 Entering Gaussian System, Link 0=/home/wagner/chemistry/gaussian/g16/g16
 Input=GAUSSIAN.com
 Output=GAUSSIAN.log
 Initial command:
 /home/wagner/chemistry/gaussian/g16/l1.exe "/home/wagner/chemistry/gaussian/work/Gau-74504.inp" -scrdir="/home/wagner/chemistry/gaussian/work/"
 Entering Link 1 = /home/wagner/chemistry/gaussian/g16/l1.exe PID=     74506.
  
 Copyright (c) 1988-2019, Gaussian, Inc.  All Rights Reserved.
  
 This is part of the Gaussian(R) 16 program.  It is based on
 the Gaussian(R) 09 system (copyright 2009, Gaussian, Inc.),
 the Gaussian(R) 03 system (copyright 2003, Gaussian, Inc.),
 the Gaussian(R) 98 system (copyright 1998, Gaussian, Inc.),
 the Gaussian(R) 94 system (copyright 1995, Gaussian, Inc.),
 the Gaussian 92(TM) system (copyright 1992, Gaussian, Inc.),
 the Gaussian 90(TM) system (copyright 1990, Gaussian, Inc.),
 the Gaussian 88(TM) system (copyright 1988, Gaussian, Inc.),
 the Gaussian 86(TM) system (copyright 1986, Carnegie Mellon
 University), and the Gaussian 82(TM) system (copyright 1983,
 Carnegie Mellon University). Gaussian is a federally registered
 trademark of Gaussian, Inc.
  
 This software contains proprietary and confidential information,
 including trade secrets, belonging to Gaussian, Inc.
  
 This software is provided under written license and may be
 used, copied, transmitted, or stored only in accord with that
 written license.
  
 The following legend is applicable only to US Government
 contracts under FAR:
  
                    RESTRICTED RIGHTS LEGEND
  
 Use, reproduction and disclosure by the US Government is
 subject to restrictions as set forth in subparagraphs (a)
 and (c) of the Commercial Computer Software - Restricted
 Rights clause in FAR 52.227-19.
  
 Gaussian, Inc.
 340 Quinnipiac St., Bldg. 40, Wallingford CT 06492
  
  
 ---------------------------------------------------------------
 Warning -- This program may not be used in any manner that
 competes with the business of Gaussian, Inc. or will provide
 assistance to any competitor of Gaussian, Inc.  The licensee
 of this program is prohibited from giving any competitor of
 Gaussian, Inc. access to this program.  By using this program,
 the user acknowledges that Gaussian, Inc. is engaged in the
 business of creating and licensing software in the field of
 computational chemistry and represents and warrants to the
 licensee that it is not a competitor of Gaussian, Inc. and that
 it will not use this program in any manner prohibited above.
 ---------------------------------------------------------------
  

 Cite this work as:
 Gaussian 16, Revision C.01,
 M. J. Frisch, G. W. Trucks, H. B. Schlegel, G. E. Scuseria, 
 M. A. Robb, J. R. Cheeseman, G. Scalmani, V. Barone, 
 G. A. Petersson, H. Nakatsuji, X. Li, M. Caricato, A. V. Marenich, 
 J. Bloino, B. G. Janesko, R. Gomperts, B. Mennucci, H. P. Hratchian, 
 J. V. Ortiz, A. F. Izmaylov, J. L. Sonnenberg, D. Williams-Young, 
 F. Ding, F. Lipparini, F. Egidi, J. Goings, B. Peng, A. Petrone, 
 T. Henderson, D. Ranasinghe, V. G. Zakrzewski, J. Gao, N. Rega, 
 G. Zheng, W. Liang, M. Hada, M. Ehara, K. Toyota, R. Fukuda, 
 J. Hasegawa, M. Ishida, T. Nakajima, Y. Honda, O. Kitao, H. Nakai, 
 T. Vreven, K. Throssell, J. A. Montgomery, Jr., J. E. Peralta, 
 F. Ogliaro, M. J. Bearpark, J. J. Heyd, E. N. Brothers, K. N. Kudin, 
 V. N. Staroverov, T. A. Keith, R. Kobayashi, J. Normand, 
 K. Raghavachari, A. P. Rendell, J. C. Burant, S. S. Iyengar, 
 J. Tomasi, M. Cossi, J. M. Millam, M. Klene, C. Adamo, R. Cammi, 
 J. W. Ochterski, R. L. Martin, K. Morokuma, O. Farkas, 
 J. B. Foresman, and D. J. Fox, Gaussian, Inc., Wallingford CT, 2019.
 
 ******************************************
 Gaussian 16:  EM64L-G16RevC.01  3-Jul-2019
                 5-Sep-2022 
 ******************************************
 %nproc=16
 Will use up to   16 processors via shared memory.
 %mem=16GB
 ----------------------------------------------------------------------
 # qcisd/aug-cc-pvtz nosymm density=current pop=(chelpg,hirshfeld,npa,d
 ipole)
 ----------------------------------------------------------------------
 1/30=1,38=1,172=1/1;
 2/12=2,15=1,17=6,18=5,40=1/2;
 3/5=16,6=1,7=10,11=9,25=1,30=1,71=1/1,2,3;
 4//1;
 5/5=2,38=5/2;
 8/6=4,9=120000,10=1/1,4;
 9/5=8,15=1/13;
 11/28=-7,31=1,32=3,42=3/11;
 10/5=6,13=10,31=1/2;
 6/7=2,8=2,9=2,10=2,15=24,20=3,22=-1,40=-1,79=1/1,2,7;
 99/5=1,9=1/99;
 ------------------
 br2co-wavefunction
 ------------------
 Symbolic Z-matrix:
 Charge =  0 Multiplicity = 1
 C                     0.        0.       -0.49176 
 Br                    0.       -1.59418  -1.54682 
 Br                    0.        1.59418  -1.54682 
 O                     0.        0.01      0.6845 
 
                          Input orientation:                          
 ---------------------------------------------------------------------
 Center     Atomic      Atomic             Coordinates (Angstroms)
 Number     Number       Type             X           Y           Z
 ---------------------------------------------------------------------
      1          6           0        0.000000    0.000000   -0.491759
      2         35           0        0.000000   -1.594181   -1.546820
      3         35           0        0.000000    1.594181   -1.546820
      4          8           0        0.000000    0.010000    0.684500
 ---------------------------------------------------------------------
                    Distance matrix (angstroms):
                    1          2          3          4
     1  C    0.000000
     2  Br   1.911692   0.000000
     3  Br   1.911692   3.188362   0.000000
     4  O    1.176302   2.748124   2.736497   0.000000
 Symmetry turned off by external request.
 Stoichiometry    CBr2O
 Framework group  CS[SG(CBr2O)]
 Deg. of freedom     5
 Full point group                 CS      NOp   2
 Rotational constants (GHZ):           6.2848092           1.2598885           1.0494998
 Standard basis: Aug-CC-pVTZ (5D, 7F)
   210 basis functions,   578 primitive gaussians,   248 cartesian basis functions
    42 alpha electrons       42 beta electrons
       nuclear repulsion energy       449.2315524996 Hartrees.
 NAtoms=    4 NActive=    4 NUniq=    4 SFac= 1.00D+00 NAtFMM=   60 NAOKFM=F Big=F
 Integral buffers will be    131072 words long.
 Raffenetti 1 integral format.
 Two-electron integral symmetry is turned off.
 One-electron integrals computed using PRISM.
 NBasis=   210 RedAO= T EigKep=  1.05D-04  NBF=   210
 NBsUse=   210 1.00D-06 EigRej= -1.00D+00 NBFU=   210
 ExpMin= 3.51D-02 ExpMax= 1.06D+07 ExpMxC= 1.21D+04 IAcc=3 IRadAn=         5 AccDes= 0.00D+00
 Harris functional with IExCor=  205 and IRadAn=       5 diagonalized for initial guess.
 HarFok:  IExCor=  205 AccDes= 0.00D+00 IRadAn=         5 IDoV= 1 UseB2=F ITyADJ=14
 ICtDFT=  3500011 ScaDFX=  1.000000  1.000000  1.000000  1.000000
 FoFCou: FMM=F IPFlag=           0 FMFlag=      100000 FMFlg1=           0
         NFxFlg=           0 DoJE=T BraDBF=F KetDBF=T FulRan=T
         wScrn=  0.000000 ICntrl=       500 IOpCl=  0 I1Cent=   200000004 NGrid=           0
         NMat0=    1 NMatS0=      1 NMatT0=    0 NMatD0=    1 NMtDS0=    0 NMtDT0=    0
 Symmetry not used in FoFCou.
 Keep R1 ints in memory in canonical form, NReq=258584884.
 Requested convergence on RMS density matrix=1.00D-08 within 128 cycles.
 Requested convergence on MAX density matrix=1.00D-06.
 Requested convergence on             energy=1.00D-06.
 No special actions if energy rises.
 SCF Done:  E(RHF) =  -5257.68452861     A.U. after   12 cycles
            NFock= 12  Conv=0.90D-08     -V/T= 2.0000
 ExpMin= 3.51D-02 ExpMax= 1.06D+07 ExpMxC= 1.21D+04 IAcc=3 IRadAn=         5 AccDes= 0.00D+00
 HarFok:  IExCor=  205 AccDes= 0.00D+00 IRadAn=         5 IDoV=-2 UseB2=F ITyADJ=14
 ICtDFT= 12500011 ScaDFX=  1.000000  1.000000  1.000000  1.000000
 Range of M.O.s used for correlation:    21   210
 NBasis=   210 NAE=    42 NBE=    42 NFC=    20 NFV=     0
 NROrb=    190 NOA=    22 NOB=    22 NVA=   168 NVB=   168

 **** Warning!!: The largest alpha MO coefficient is  0.28099332D+02

 Semi-Direct transformation.
 ModeAB=           2 MOrb=            22 LenV=    2146226337
 LASXX=     69628944 LTotXX=    69628944 LenRXX=    69628944
 LTotAB=    70719517 MaxLAS=   129061680 LenRXY=   129061680
 NonZer=   139257888 LenScr=   209707008 LnRSAI=           0
 LnScr1=           0 LExtra=           0 Total=    408397632
 MaxDsk=          -1 SrtSym=           F ITran=            4
 JobTyp=0 Pass  1:  I=   1 to  22.
 (rs|ai) integrals will be sorted in core.
 Spin components of T(2) and E(2):
     alpha-alpha T2 =       0.3832281377D-01 E2=     -0.1232788642D+00
     alpha-beta  T2 =       0.1924967466D+00 E2=     -0.6175103227D+00
     beta-beta   T2 =       0.3832281377D-01 E2=     -0.1232788642D+00
 ANorm=    0.1126562193D+01
 E2 =    -0.8640680510D+00 EUMP2 =    -0.52585485966568D+04
 Keep R2 and R3 ints in memory in canonical form, NReq=504031878.
 CIDS: In Core Option IDoMem=           1.
 Iterations=  50 Convergence= 0.100D-07
 Produce multiple copies of IABC intergrals
 Iteration Nr.   1
 **********************
 DD1Dir will call FoFMem   1 times, MxPair=       506
 NAB=   253 NAA=     0 NBB=     0.
 MP4(R+Q)=  0.21479686D-01
 E3=        0.14215055D-03        EUMP3=      -0.52585484545D+04
 E4(DQ)=    0.26865567D-03        UMP4(DQ)=   -0.52585481859D+04
 E4(SDQ)=  -0.11699222D-01        UMP4(SDQ)=  -0.52585601537D+04
 DE(Corr)= -0.84244621     E(Corr)=     -5258.5269748    
 NORM(A)=   0.11248501D+01
 Iteration Nr.   2
 **********************
 DD1Dir will call FoFMem   1 times, MxPair=       506
 NAB=   253 NAA=     0 NBB=     0.
 DE(Corr)= -0.87234434     E(CORR)=     -5258.5568729     Delta=-2.99D-02
 NORM(A)=   0.11352503D+01
 Iteration Nr.   3
 **********************
 DD1Dir will call FoFMem   1 times, MxPair=       506
 NAB=   253 NAA=     0 NBB=     0.
 DE(Corr)= -0.87023970     E(CORR)=     -5258.5547683     Delta= 2.10D-03
 NORM(A)=   0.11380127D+01
 Iteration Nr.   4
 **********************
 DD1Dir will call FoFMem   1 times, MxPair=       506
 NAB=   253 NAA=     0 NBB=     0.
 DE(Corr)= -0.87277039     E(CORR)=     -5258.5572990     Delta=-2.53D-03
 NORM(A)=   0.11393258D+01
 Iteration Nr.   5
 **********************
 DD1Dir will call FoFMem   1 times, MxPair=       506
 NAB=   253 NAA=     0 NBB=     0.
 DE(Corr)= -0.87314492     E(CORR)=     -5258.5576735     Delta=-3.75D-04
 NORM(A)=   0.11398408D+01
 Iteration Nr.   6
 **********************
 DD1Dir will call FoFMem   1 times, MxPair=       506
 NAB=   253 NAA=     0 NBB=     0.
 DE(Corr)= -0.87320921     E(CORR)=     -5258.5577378     Delta=-6.43D-05
 NORM(A)=   0.11399449D+01
 Iteration Nr.   7
 **********************
 DD1Dir will call FoFMem   1 times, MxPair=       506
 NAB=   253 NAA=     0 NBB=     0.
 DE(Corr)= -0.87322352     E(CORR)=     -5258.5577521     Delta=-1.43D-05
 NORM(A)=   0.11399537D+01
 Iteration Nr.   8
 **********************
 DD1Dir will call FoFMem   1 times, MxPair=       506
 NAB=   253 NAA=     0 NBB=     0.
 DE(Corr)= -0.87322386     E(CORR)=     -5258.5577525     Delta=-3.41D-07
 NORM(A)=   0.11399688D+01
 Iteration Nr.   9
 **********************
 DD1Dir will call FoFMem   1 times, MxPair=       506
 NAB=   253 NAA=     0 NBB=     0.
 DE(Corr)= -0.87322193     E(CORR)=     -5258.5577505     Delta= 1.93D-06
 NORM(A)=   0.11399687D+01
 Iteration Nr.  10
 **********************
 DD1Dir will call FoFMem   1 times, MxPair=       506
 NAB=   253 NAA=     0 NBB=     0.
 DE(Corr)= -0.87322334     E(CORR)=     -5258.5577520     Delta=-1.41D-06
 NORM(A)=   0.11399714D+01
 Iteration Nr.  11
 **********************
 DD1Dir will call FoFMem   1 times, MxPair=       506
 NAB=   253 NAA=     0 NBB=     0.
 DE(Corr)= -0.87322447     E(CORR)=     -5258.5577531     Delta=-1.13D-06
 NORM(A)=   0.11399733D+01
 Iteration Nr.  12
 **********************
 DD1Dir will call FoFMem   1 times, MxPair=       506
 NAB=   253 NAA=     0 NBB=     0.
 DE(Corr)= -0.87322479     E(CORR)=     -5258.5577534     Delta=-3.18D-07
 NORM(A)=   0.11399743D+01
 Iteration Nr.  13
 **********************
 DD1Dir will call FoFMem   1 times, MxPair=       506
 NAB=   253 NAA=     0 NBB=     0.
 DE(Corr)= -0.87322526     E(CORR)=     -5258.5577539     Delta=-4.66D-07
 NORM(A)=   0.11399750D+01
 Iteration Nr.  14
 **********************
 DD1Dir will call FoFMem   1 times, MxPair=       506
 NAB=   253 NAA=     0 NBB=     0.
 DE(Corr)= -0.87322537     E(CORR)=     -5258.5577540     Delta=-1.10D-07
 NORM(A)=   0.11399753D+01
 Iteration Nr.  15
 **********************
 DD1Dir will call FoFMem   1 times, MxPair=       506
 NAB=   253 NAA=     0 NBB=     0.
 DE(Corr)= -0.87322544     E(CORR)=     -5258.5577540     Delta=-6.94D-08
 NORM(A)=   0.11399755D+01
 Iteration Nr.  16
 **********************
 DD1Dir will call FoFMem   1 times, MxPair=       506
 NAB=   253 NAA=     0 NBB=     0.
 DE(Corr)= -0.87322547     E(CORR)=     -5258.5577541     Delta=-3.04D-08
 NORM(A)=   0.11399755D+01
 Iteration Nr.  17
 **********************
 DD1Dir will call FoFMem   1 times, MxPair=       506
 NAB=   253 NAA=     0 NBB=     0.
 DE(Corr)= -0.87322547     E(CORR)=     -5258.5577541     Delta= 3.68D-09
 NORM(A)=   0.11399755D+01
 Wavefunction amplitudes converged. E(Corr)=     -5258.5577541    
 Largest amplitude= 4.23D-02

 Z-amplitude iterations

 Iteration Nr.   1
 **********************
 DD1Dir will call FoFMem   1 times, MxPair=       506
 NAB=   253 NAA=     0 NBB=     0.
 DE(Z)= -0.84605000     E(Z)=     -5258.5305786     Delta= 2.72D-02
 NORM(A)=   0.11399549D+01
 Iteration Nr.   2
 **********************
 DD1Dir will call FoFMem   1 times, MxPair=       506
 NAB=   253 NAA=     0 NBB=     0.
 DE(Z)= -0.84604996     E(Z)=     -5258.5305786     Delta= 3.49D-08
 NORM(A)=   0.11381628D+01
 Iteration Nr.   3
 **********************
 DD1Dir will call FoFMem   1 times, MxPair=       506
 NAB=   253 NAA=     0 NBB=     0.
 DE(Z)= -0.84604756     E(Z)=     -5258.5305762     Delta= 2.41D-06
 NORM(A)=   0.11399405D+01
 Iteration Nr.   4
 **********************
 DD1Dir will call FoFMem   1 times, MxPair=       506
 NAB=   253 NAA=     0 NBB=     0.
 DE(Z)= -0.84604996     E(Z)=     -5258.5305786     Delta=-2.41D-06
 NORM(A)=   0.11397872D+01
 Iteration Nr.   5
 **********************
 DD1Dir will call FoFMem   1 times, MxPair=       506
 NAB=   253 NAA=     0 NBB=     0.
 DE(Z)= -0.84604927     E(Z)=     -5258.5305779     Delta= 6.92D-07
 NORM(A)=   0.11301211D+01
 Iteration Nr.   6
 **********************
 DD1Dir will call FoFMem   1 times, MxPair=       506
 NAB=   253 NAA=     0 NBB=     0.
 DE(Z)= -0.84601991     E(Z)=     -5258.5305485     Delta= 2.94D-05
 NORM(A)=   0.11301221D+01
 Iteration Nr.   7
 **********************
 DD1Dir will call FoFMem   1 times, MxPair=       506
 NAB=   253 NAA=     0 NBB=     0.
 DE(Z)= -0.84601659     E(Z)=     -5258.5305452     Delta= 3.32D-06
 NORM(A)=   0.11301221D+01
 Iteration Nr.   8
 **********************
 DD1Dir will call FoFMem   1 times, MxPair=       506
 NAB=   253 NAA=     0 NBB=     0.
 DE(Z)= -0.84601796     E(Z)=     -5258.5305466     Delta=-1.37D-06
 NORM(A)=   0.11301222D+01
 Iteration Nr.   9
 **********************
 DD1Dir will call FoFMem   1 times, MxPair=       506
 NAB=   253 NAA=     0 NBB=     0.
 DE(Z)= -0.84601789     E(Z)=     -5258.5305465     Delta= 7.31D-08
 NORM(A)=   0.11301225D+01
 Iteration Nr.  10
 **********************
 DD1Dir will call FoFMem   1 times, MxPair=       506
 NAB=   253 NAA=     0 NBB=     0.
 DE(Z)= -0.84601783     E(Z)=     -5258.5305464     Delta= 5.64D-08
 NORM(A)=   0.11301226D+01
 Iteration Nr.  11
 **********************
 DD1Dir will call FoFMem   1 times, MxPair=       506
 NAB=   253 NAA=     0 NBB=     0.
 DE(Z)= -0.84601791     E(Z)=     -5258.5305465     Delta=-7.11D-08
 NORM(A)=   0.11301227D+01
 Iteration Nr.  12
 **********************
 DD1Dir will call FoFMem   1 times, MxPair=       506
 NAB=   253 NAA=     0 NBB=     0.
 DE(Z)= -0.84601791     E(Z)=     -5258.5305465     Delta=-6.96D-09
 NORM(A)=   0.11301227D+01
 Z-amplitudes converged.
 Discarding MO integrals.
          Differentiating once with respect to electric field.
                with respect to dipole field.
          Electric field/nuclear overlap derivatives assumed to be zero.
 Keep R1 ints in memory in canonical form, NReq=258592214.
          There are     1 degrees of freedom in the 1st order CPHF.  IDoFFX=0 NUNeed=     1.
 LinEq1:  Iter=  0 NonCon=     1 RMS=1.95D-03 Max=5.61D-02 NDo=     1
 AX will form     1 AO Fock derivatives at one time.
 LinEq1:  Iter=  1 NonCon=     1 RMS=7.40D-04 Max=2.60D-02 NDo=     1
 LinEq1:  Iter=  2 NonCon=     1 RMS=3.09D-04 Max=9.34D-03 NDo=     1
 LinEq1:  Iter=  3 NonCon=     1 RMS=1.03D-04 Max=2.97D-03 NDo=     1
 LinEq1:  Iter=  4 NonCon=     1 RMS=5.33D-05 Max=1.64D-03 NDo=     1
 LinEq1:  Iter=  5 NonCon=     1 RMS=1.64D-05 Max=4.65D-04 NDo=     1
 LinEq1:  Iter=  6 NonCon=     1 RMS=6.29D-06 Max=1.31D-04 NDo=     1
 LinEq1:  Iter=  7 NonCon=     1 RMS=1.35D-06 Max=2.12D-05 NDo=     1
 LinEq1:  Iter=  8 NonCon=     1 RMS=2.69D-07 Max=4.30D-06 NDo=     1
 LinEq1:  Iter=  9 NonCon=     1 RMS=6.50D-08 Max=1.21D-06 NDo=     1
 LinEq1:  Iter= 10 NonCon=     1 RMS=1.39D-08 Max=2.08D-07 NDo=     1
 LinEq1:  Iter= 11 NonCon=     1 RMS=3.90D-09 Max=9.56D-08 NDo=     1
 LinEq1:  Iter= 12 NonCon=     1 RMS=7.22D-10 Max=1.62D-08 NDo=     1
 LinEq1:  Iter= 13 NonCon=     1 RMS=1.29D-10 Max=2.64D-09 NDo=     1
 LinEq1:  Iter= 14 NonCon=     0 RMS=3.61D-11 Max=6.70D-10 NDo=     1
 Linear equations converged to 1.000D-10 1.000D-09 after    14 iterations.
 End of Minotr F.D. properties file   721 does not exist.
 End of Minotr F.D. properties file   722 does not exist.
 End of Minotr F.D. properties file   788 does not exist.

 **********************************************************************

            Population analysis using the CC Density.

 **********************************************************************

 Alpha  occ. eigenvalues -- -490.06698-490.06580 -65.20691 -65.20576 -58.56223
 Alpha  occ. eigenvalues --  -58.56107 -58.56073 -58.56056 -58.55957 -58.55940
 Alpha  occ. eigenvalues --  -20.62832 -11.46326  -9.87997  -9.87884  -7.49185
 Alpha  occ. eigenvalues --   -7.49071  -7.48462  -7.48392  -7.48351  -7.48280
 Alpha  occ. eigenvalues --   -3.23580  -3.23464  -3.23222  -3.23126  -3.23107
 Alpha  occ. eigenvalues --   -3.23012  -3.22215  -3.22213  -3.22104  -3.22102
 Alpha  occ. eigenvalues --   -1.48397  -1.10818  -1.04780  -0.79379  -0.68341
 Alpha  occ. eigenvalues --   -0.67612  -0.63060  -0.47903  -0.46169  -0.45789
 Alpha  occ. eigenvalues --   -0.45102  -0.43156
 Alpha virt. eigenvalues --    0.03790   0.05638   0.07006   0.07543   0.08199
 Alpha virt. eigenvalues --    0.09327   0.09994   0.10256   0.10940   0.11868
 Alpha virt. eigenvalues --    0.13017   0.13181   0.17481   0.19374   0.21885
 Alpha virt. eigenvalues --    0.22373   0.23250   0.24159   0.25847   0.26652
 Alpha virt. eigenvalues --    0.27524   0.28944   0.31891   0.32941   0.35604
 Alpha virt. eigenvalues --    0.36769   0.37009   0.39727   0.41343   0.43785
 Alpha virt. eigenvalues --    0.44680   0.46416   0.46628   0.49567   0.49659
 Alpha virt. eigenvalues --    0.52596   0.55723   0.56293   0.58707   0.60129
 Alpha virt. eigenvalues --    0.60845   0.63137   0.69491   0.70121   0.71471
 Alpha virt. eigenvalues --    0.71886   0.74565   0.75881   0.77554   0.78531
 Alpha virt. eigenvalues --    0.79395   0.82305   0.83574   0.85024   0.88434
 Alpha virt. eigenvalues --    0.88450   0.89888   0.90090   0.91467   0.93822
 Alpha virt. eigenvalues --    0.94755   0.98082   1.00454   1.01614   1.02906
 Alpha virt. eigenvalues --    1.05496   1.06677   1.11236   1.13078   1.13258
 Alpha virt. eigenvalues --    1.17148   1.17714   1.18752   1.30582   1.34496
 Alpha virt. eigenvalues --    1.36352   1.36502   1.40577   1.43882   1.44825
 Alpha virt. eigenvalues --    1.44906   1.45493   1.51427   1.52386   1.53188
 Alpha virt. eigenvalues --    1.62941   1.63524   1.70600   1.74583   1.79843
 Alpha virt. eigenvalues --    1.95196   2.10716   2.16501   2.17062   2.17673
 Alpha virt. eigenvalues --    2.19028   2.23323   2.24530   2.25294   2.26773
 Alpha virt. eigenvalues --    2.27164   2.27413   2.28647   2.28995   2.29667
 Alpha virt. eigenvalues --    2.30142   2.32548   2.32698   2.32723   2.34003
 Alpha virt. eigenvalues --    2.35712   2.36365   2.37241   2.37814   2.38008
 Alpha virt. eigenvalues --    2.39345   2.39353   2.40509   2.46607   2.48751
 Alpha virt. eigenvalues --    2.53271   2.55803   2.58670   2.59584   2.67066
 Alpha virt. eigenvalues --    2.70510   2.72981   2.76455   2.78627   2.88192
 Alpha virt. eigenvalues --    2.93394   2.97692   3.01166   3.09869   3.48922
 Alpha virt. eigenvalues --    3.58146   3.59193   3.59764   3.61823   3.67587
 Alpha virt. eigenvalues --    3.73501   3.83762   3.86413   3.89894   3.96052
 Alpha virt. eigenvalues --    4.12136   4.13796   4.48726   4.50100   5.01182
 Alpha virt. eigenvalues --    5.12623   5.14788   5.33893   5.47826   6.57475
 Alpha virt. eigenvalues --    6.58682   6.86252   6.88074   7.04528   7.16239
 Alpha virt. eigenvalues --    7.16987   7.22094   7.37324   7.49970   7.67747
 Alpha virt. eigenvalues --    7.68232  13.54871  15.29158
          Condensed to atoms (all electrons):
               1          2          3          4
     1  C    5.559304   0.024342   0.027072   0.239665
     2  Br   0.024342  35.044735  -0.118481  -0.055943
     3  Br   0.027072  -0.118481  35.045866  -0.056593
     4  O    0.239665  -0.055943  -0.056593   8.229970
 Mulliken charges:
               1
     1  C    0.149617
     2  Br   0.105347
     3  Br   0.102135
     4  O   -0.357099
 Sum of Mulliken charges =  -0.00000
 Mulliken charges with hydrogens summed into heavy atoms:
               1
     1  C    0.149617
     2  Br   0.105347
     3  Br   0.102135
     4  O   -0.357099
 Electronic spatial extent (au):  <R**2>=           1355.6190
 Charge=             -0.0000 electrons
 Dipole moment (field-independent basis, Debye):
    X=              0.0000    Y=             -0.0312    Z=             -1.2405  Tot=              1.2409
 Quadrupole moment (field-independent basis, Debye-Ang):
   XX=            -46.9634   YY=            -44.9355   ZZ=            -47.5253
   XY=              0.0000   XZ=             -0.0000   YZ=              0.0443
 Traceless Quadrupole moment (field-independent basis, Debye-Ang):
   XX=             -0.4887   YY=              1.5392   ZZ=             -1.0506
   XY=              0.0000   XZ=             -0.0000   YZ=              0.0443
 Octapole moment (field-independent basis, Debye-Ang**2):
  XXX=              0.0000  YYY=             -0.2335  ZZZ=            164.8160  XYY=              0.0000
  XXY=             -0.0680  XXZ=             56.3134  XZZ=              0.0000  YZZ=             -0.1820
  YYZ=             45.7166  XYZ=             -0.0000
 Hexadecapole moment (field-independent basis, Debye-Ang**3):
 XXXX=            -53.6975 YYYY=           -570.9361 ZZZZ=           -597.1031 XXXY=              0.0000
 XXXZ=             -0.0000 YYYX=              0.0000 YYYZ=              0.0829 ZZZX=             -0.0000
 ZZZY=              0.2662 XXYY=           -111.3607 XXZZ=           -110.4164 YYZZ=           -175.0970
 XXYZ=              0.0052 YYXZ=             -0.0000 ZZXY=              0.0000
 N-N= 4.492315524996D+02 E-N=-1.347022045027D+04  KE= 5.257230055581D+03
 There are a total of      108140 grid points.
 ElSum from          density=       84.0000032632
 ElSum from atomic densities=       84.0000018084

 Hirshfeld populations at iteration   1 (CX, CA, CB, DipXYZ):
               1          2          3          4          5          6
     1  C    0.000001   2.915459   2.915459   0.000000  -0.001723  -0.028352
     2  Br   0.000015  17.497470  17.497470  -0.000000  -0.071302  -0.009813
     3  Br   0.000016  17.498756  17.498756   0.000000   0.071269  -0.006204
     4  O    0.000008   4.088317   4.088317  -0.000000   0.000583  -0.036006
       Tot   0.000040  42.000002  42.000002  -0.000000  -0.001174  -0.080375

 Dip from Atomic Chgs              0.000000  -0.011084  -0.407669
         Total Dipole             -0.000000  -0.012257  -0.488044

 Hirshfeld charges, spin densities, dipoles, and CM5 charges using IRadAn=      5:
              Q-H        S-H        Dx         Dy         Dz        Q-CM5   
     1  C    0.169082   0.000000   0.000000  -0.001723  -0.028352   0.181633
     2  Br   0.005060   0.000000  -0.000000  -0.071302  -0.009813   0.023437
     3  Br   0.002489   0.000000   0.000000   0.071269  -0.006204   0.021006
     4  O   -0.176634   0.000000  -0.000000   0.000583  -0.036006  -0.226079
       Tot  -0.000003   0.000000  -0.000000  -0.001174  -0.080375  -0.000003
 Hirshfeld charges with hydrogens summed into heavy atoms:
              Q-H       Q-CM5   
     1  C    0.169082   0.181633
     2  Br   0.005060   0.023437
     3  Br   0.002489   0.021006
     4  O   -0.176634  -0.226079
 
 EQQ= 0.000000000000E+00 EQD= 0.000000000000E+00 EDD= 0.836684841224E-04
 EQQ+QD+DD= 0.836684841224E-04
 
 Breneman (CHELPG) radii used.
 GetVDW:  no radius for atom   2 atomic number  35.
 Error termination via Lnk1e in /home/wagner/chemistry/gaussian/g16/l602.exe at Mon Sep  5 12:29:02 2022.
 Job cpu time:       0 days 13 hours 18 minutes 58.3 seconds.
 Elapsed time:       0 days  0 hours 50 minutes 23.6 seconds.
 File lengths (MBytes):  RWF=  29492 Int=      0 D2E=      0 Chk=      2 Scr=      1
