 Entering Gaussian System, Link 0=/home/wagner/chemistry/gaussian/g16/g16
 Input=GAUSSIAN.com
 Output=GAUSSIAN.log
 Initial command:
 /home/wagner/chemistry/gaussian/g16/l1.exe "/home/wagner/chemistry/gaussian/work/Gau-77332.inp" -scrdir="/home/wagner/chemistry/gaussian/work/"
 Entering Link 1 = /home/wagner/chemistry/gaussian/g16/l1.exe PID=     77334.
  
 Copyright (c) 1988-2019, Gaussian, Inc.  All Rights Reserved.
  
 This is part of the Gaussian(R) 16 program.  It is based on
 the Gaussian(R) 09 system (copyright 2009, Gaussian, Inc.),
 the Gaussian(R) 03 system (copyright 2003, Gaussian, Inc.),
 the Gaussian(R) 98 system (copyright 1998, Gaussian, Inc.),
 the Gaussian(R) 94 system (copyright 1995, Gaussian, Inc.),
 the Gaussian 92(TM) system (copyright 1992, Gaussian, Inc.),
 the Gaussian 90(TM) system (copyright 1990, Gaussian, Inc.),
 the Gaussian 88(TM) system (copyright 1988, Gaussian, Inc.),
 the Gaussian 86(TM) system (copyright 1986, Carnegie Mellon
 University), and the Gaussian 82(TM) system (copyright 1983,
 Carnegie Mellon University). Gaussian is a federally registered
 trademark of Gaussian, Inc.
  
 This software contains proprietary and confidential information,
 including trade secrets, belonging to Gaussian, Inc.
  
 This software is provided under written license and may be
 used, copied, transmitted, or stored only in accord with that
 written license.
  
 The following legend is applicable only to US Government
 contracts under FAR:
  
                    RESTRICTED RIGHTS LEGEND
  
 Use, reproduction and disclosure by the US Government is
 subject to restrictions as set forth in subparagraphs (a)
 and (c) of the Commercial Computer Software - Restricted
 Rights clause in FAR 52.227-19.
  
 Gaussian, Inc.
 340 Quinnipiac St., Bldg. 40, Wallingford CT 06492
  
  
 ---------------------------------------------------------------
 Warning -- This program may not be used in any manner that
 competes with the business of Gaussian, Inc. or will provide
 assistance to any competitor of Gaussian, Inc.  The licensee
 of this program is prohibited from giving any competitor of
 Gaussian, Inc. access to this program.  By using this program,
 the user acknowledges that Gaussian, Inc. is engaged in the
 business of creating and licensing software in the field of
 computational chemistry and represents and warrants to the
 licensee that it is not a competitor of Gaussian, Inc. and that
 it will not use this program in any manner prohibited above.
 ---------------------------------------------------------------
  

 Cite this work as:
 Gaussian 16, Revision C.01,
 M. J. Frisch, G. W. Trucks, H. B. Schlegel, G. E. Scuseria, 
 M. A. Robb, J. R. Cheeseman, G. Scalmani, V. Barone, 
 G. A. Petersson, H. Nakatsuji, X. Li, M. Caricato, A. V. Marenich, 
 J. Bloino, B. G. Janesko, R. Gomperts, B. Mennucci, H. P. Hratchian, 
 J. V. Ortiz, A. F. Izmaylov, J. L. Sonnenberg, D. Williams-Young, 
 F. Ding, F. Lipparini, F. Egidi, J. Goings, B. Peng, A. Petrone, 
 T. Henderson, D. Ranasinghe, V. G. Zakrzewski, J. Gao, N. Rega, 
 G. Zheng, W. Liang, M. Hada, M. Ehara, K. Toyota, R. Fukuda, 
 J. Hasegawa, M. Ishida, T. Nakajima, Y. Honda, O. Kitao, H. Nakai, 
 T. Vreven, K. Throssell, J. A. Montgomery, Jr., J. E. Peralta, 
 F. Ogliaro, M. J. Bearpark, J. J. Heyd, E. N. Brothers, K. N. Kudin, 
 V. N. Staroverov, T. A. Keith, R. Kobayashi, J. Normand, 
 K. Raghavachari, A. P. Rendell, J. C. Burant, S. S. Iyengar, 
 J. Tomasi, M. Cossi, J. M. Millam, M. Klene, C. Adamo, R. Cammi, 
 J. W. Ochterski, R. L. Martin, K. Morokuma, O. Farkas, 
 J. B. Foresman, and D. J. Fox, Gaussian, Inc., Wallingford CT, 2019.
 
 ******************************************
 Gaussian 16:  EM64L-G16RevC.01  3-Jul-2019
                 5-Sep-2022 
 ******************************************
 %nproc=16
 Will use up to   16 processors via shared memory.
 %mem=16GB
 ----------------------------------------------------------------------
 # qcisd/aug-cc-pvtz nosymm density=current pop=(chelpg,hirshfeld,npa,d
 ipole)
 ----------------------------------------------------------------------
 1/30=1,38=1,172=1/1;
 2/12=2,15=1,17=6,18=5,40=1/2;
 3/5=16,6=1,7=10,11=9,25=1,30=1,71=1/1,2,3;
 4//1;
 5/5=2,38=5/2;
 8/6=4,9=120000,10=1/1,4;
 9/5=8,15=1/13;
 11/28=-7,31=1,32=3,42=3/11;
 10/5=6,13=10,31=1/2;
 6/7=2,8=2,9=2,10=2,15=24,20=3,22=-1,40=-1,79=1/1,2,7;
 99/5=1,9=1/99;
 ------------------
 br2co-wavefunction
 ------------------
 Symbolic Z-matrix:
 Charge =  0 Multiplicity = 1
 C                     0.        0.       -0.49176 
 Br                    0.       -1.59418  -1.54682 
 Br                    0.        1.59418  -1.54682 
 O                     0.        0.        0.6745 
 
                          Input orientation:                          
 ---------------------------------------------------------------------
 Center     Atomic      Atomic             Coordinates (Angstroms)
 Number     Number       Type             X           Y           Z
 ---------------------------------------------------------------------
      1          6           0        0.000000    0.000000   -0.491759
      2         35           0        0.000000   -1.594181   -1.546820
      3         35           0        0.000000    1.594181   -1.546820
      4          8           0        0.000000    0.000000    0.674500
 ---------------------------------------------------------------------
                    Distance matrix (angstroms):
                    1          2          3          4
     1  C    0.000000
     2  Br   1.911692   0.000000
     3  Br   1.911692   3.188362   0.000000
     4  O    1.166259   2.734168   2.734168   0.000000
 Symmetry turned off by external request.
 Stoichiometry    CBr2O
 Framework group  C2V[C2(CO),SGV(Br2)]
 Deg. of freedom     3
 Full point group                 C2V     NOp   4
 Rotational constants (GHZ):           6.3343408           1.2598941           1.0508759
 Standard basis: Aug-CC-pVTZ (5D, 7F)
   210 basis functions,   578 primitive gaussians,   248 cartesian basis functions
    42 alpha electrons       42 beta electrons
       nuclear repulsion energy       449.7388228401 Hartrees.
 NAtoms=    4 NActive=    4 NUniq=    4 SFac= 1.00D+00 NAtFMM=   60 NAOKFM=F Big=F
 Integral buffers will be    131072 words long.
 Raffenetti 1 integral format.
 Two-electron integral symmetry is turned off.
 One-electron integrals computed using PRISM.
 NBasis=   210 RedAO= T EigKep=  1.04D-04  NBF=   210
 NBsUse=   210 1.00D-06 EigRej= -1.00D+00 NBFU=   210
 ExpMin= 3.51D-02 ExpMax= 1.06D+07 ExpMxC= 1.21D+04 IAcc=3 IRadAn=         5 AccDes= 0.00D+00
 Harris functional with IExCor=  205 and IRadAn=       5 diagonalized for initial guess.
 HarFok:  IExCor=  205 AccDes= 0.00D+00 IRadAn=         5 IDoV= 1 UseB2=F ITyADJ=14
 ICtDFT=  3500011 ScaDFX=  1.000000  1.000000  1.000000  1.000000
 FoFCou: FMM=F IPFlag=           0 FMFlag=      100000 FMFlg1=           0
         NFxFlg=           0 DoJE=T BraDBF=F KetDBF=T FulRan=T
         wScrn=  0.000000 ICntrl=       500 IOpCl=  0 I1Cent=   200000004 NGrid=           0
         NMat0=    1 NMatS0=      1 NMatT0=    0 NMatD0=    1 NMtDS0=    0 NMtDT0=    0
 Symmetry not used in FoFCou.
 Keep R1 ints in memory in canonical form, NReq=258585000.
 Requested convergence on RMS density matrix=1.00D-08 within 128 cycles.
 Requested convergence on MAX density matrix=1.00D-06.
 Requested convergence on             energy=1.00D-06.
 No special actions if energy rises.
 SCF Done:  E(RHF) =  -5257.68540515     A.U. after   12 cycles
            NFock= 12  Conv=0.86D-08     -V/T= 2.0000
 ExpMin= 3.51D-02 ExpMax= 1.06D+07 ExpMxC= 1.21D+04 IAcc=3 IRadAn=         5 AccDes= 0.00D+00
 HarFok:  IExCor=  205 AccDes= 0.00D+00 IRadAn=         5 IDoV=-2 UseB2=F ITyADJ=14
 ICtDFT= 12500011 ScaDFX=  1.000000  1.000000  1.000000  1.000000
 Range of M.O.s used for correlation:    21   210
 NBasis=   210 NAE=    42 NBE=    42 NFC=    20 NFV=     0
 NROrb=    190 NOA=    22 NOB=    22 NVA=   168 NVB=   168

 **** Warning!!: The largest alpha MO coefficient is  0.28053917D+02

 Semi-Direct transformation.
 ModeAB=           2 MOrb=            22 LenV=    2146226281
 LASXX=     69628944 LTotXX=    69628944 LenRXX=    69628944
 LTotAB=    70719517 MaxLAS=   129061680 LenRXY=   129061680
 NonZer=   139257888 LenScr=   209707008 LnRSAI=           0
 LnScr1=           0 LExtra=           0 Total=    408397632
 MaxDsk=          -1 SrtSym=           F ITran=            4
 JobTyp=0 Pass  1:  I=   1 to  22.
 (rs|ai) integrals will be sorted in core.
 Spin components of T(2) and E(2):
     alpha-alpha T2 =       0.3815433133D-01 E2=     -0.1231140451D+00
     alpha-beta  T2 =       0.1916247019D+00 E2=     -0.6165671509D+00
     beta-beta   T2 =       0.3815433133D-01 E2=     -0.1231140451D+00
 ANorm=    0.1126025472D+01
 E2 =    -0.8627952412D+00 EUMP2 =    -0.52585482003883D+04
 Keep R2 and R3 ints in memory in canonical form, NReq=504031994.
 CIDS: In Core Option IDoMem=           1.
 Iterations=  50 Convergence= 0.100D-07
 Produce multiple copies of IABC intergrals
 Iteration Nr.   1
 **********************
 DD1Dir will call FoFMem   1 times, MxPair=       506
 NAB=   253 NAA=     0 NBB=     0.
 MP4(R+Q)=  0.21378108D-01
 E3=       -0.40756408D-03        EUMP3=      -0.52585486080D+04
 E4(DQ)=    0.43042327D-03        UMP4(DQ)=   -0.52585481775D+04
 E4(SDQ)=  -0.11324694D-01        UMP4(SDQ)=  -0.52585599326D+04
 DE(Corr)= -0.84182470     E(Corr)=     -5258.5272298    
 NORM(A)=   0.11244605D+01
 Iteration Nr.   2
 **********************
 DD1Dir will call FoFMem   1 times, MxPair=       506
 NAB=   253 NAA=     0 NBB=     0.
 DE(Corr)= -0.87127101     E(CORR)=     -5258.5566762     Delta=-2.94D-02
 NORM(A)=   0.11347321D+01
 Iteration Nr.   3
 **********************
 DD1Dir will call FoFMem   1 times, MxPair=       506
 NAB=   253 NAA=     0 NBB=     0.
 DE(Corr)= -0.86929168     E(CORR)=     -5258.5546968     Delta= 1.98D-03
 NORM(A)=   0.11374080D+01
 Iteration Nr.   4
 **********************
 DD1Dir will call FoFMem   1 times, MxPair=       506
 NAB=   253 NAA=     0 NBB=     0.
 DE(Corr)= -0.87175443     E(CORR)=     -5258.5571596     Delta=-2.46D-03
 NORM(A)=   0.11386717D+01
 Iteration Nr.   5
 **********************
 DD1Dir will call FoFMem   1 times, MxPair=       506
 NAB=   253 NAA=     0 NBB=     0.
 DE(Corr)= -0.87211312     E(CORR)=     -5258.5575183     Delta=-3.59D-04
 NORM(A)=   0.11391660D+01
 Iteration Nr.   6
 **********************
 DD1Dir will call FoFMem   1 times, MxPair=       506
 NAB=   253 NAA=     0 NBB=     0.
 DE(Corr)= -0.87217494     E(CORR)=     -5258.5575801     Delta=-6.18D-05
 NORM(A)=   0.11392642D+01
 Iteration Nr.   7
 **********************
 DD1Dir will call FoFMem   1 times, MxPair=       506
 NAB=   253 NAA=     0 NBB=     0.
 DE(Corr)= -0.87218858     E(CORR)=     -5258.5575937     Delta=-1.36D-05
 NORM(A)=   0.11392736D+01
 Iteration Nr.   8
 **********************
 DD1Dir will call FoFMem   1 times, MxPair=       506
 NAB=   253 NAA=     0 NBB=     0.
 DE(Corr)= -0.87218842     E(CORR)=     -5258.5575936     Delta= 1.67D-07
 NORM(A)=   0.11392879D+01
 Iteration Nr.   9
 **********************
 DD1Dir will call FoFMem   1 times, MxPair=       506
 NAB=   253 NAA=     0 NBB=     0.
 DE(Corr)= -0.87218693     E(CORR)=     -5258.5575921     Delta= 1.48D-06
 NORM(A)=   0.11392880D+01
 Iteration Nr.  10
 **********************
 DD1Dir will call FoFMem   1 times, MxPair=       506
 NAB=   253 NAA=     0 NBB=     0.
 DE(Corr)= -0.87218814     E(CORR)=     -5258.5575933     Delta=-1.21D-06
 NORM(A)=   0.11392906D+01
 Iteration Nr.  11
 **********************
 DD1Dir will call FoFMem   1 times, MxPair=       506
 NAB=   253 NAA=     0 NBB=     0.
 DE(Corr)= -0.87218930     E(CORR)=     -5258.5575945     Delta=-1.16D-06
 NORM(A)=   0.11392923D+01
 Iteration Nr.  12
 **********************
 DD1Dir will call FoFMem   1 times, MxPair=       506
 NAB=   253 NAA=     0 NBB=     0.
 DE(Corr)= -0.87218957     E(CORR)=     -5258.5575947     Delta=-2.66D-07
 NORM(A)=   0.11392933D+01
 Iteration Nr.  13
 **********************
 DD1Dir will call FoFMem   1 times, MxPair=       506
 NAB=   253 NAA=     0 NBB=     0.
 DE(Corr)= -0.87219001     E(CORR)=     -5258.5575952     Delta=-4.43D-07
 NORM(A)=   0.11392939D+01
 Iteration Nr.  14
 **********************
 DD1Dir will call FoFMem   1 times, MxPair=       506
 NAB=   253 NAA=     0 NBB=     0.
 DE(Corr)= -0.87219011     E(CORR)=     -5258.5575953     Delta=-9.87D-08
 NORM(A)=   0.11392942D+01
 Iteration Nr.  15
 **********************
 DD1Dir will call FoFMem   1 times, MxPair=       506
 NAB=   253 NAA=     0 NBB=     0.
 DE(Corr)= -0.87219017     E(CORR)=     -5258.5575953     Delta=-6.29D-08
 NORM(A)=   0.11392943D+01
 Iteration Nr.  16
 **********************
 DD1Dir will call FoFMem   1 times, MxPair=       506
 NAB=   253 NAA=     0 NBB=     0.
 DE(Corr)= -0.87219020     E(CORR)=     -5258.5575954     Delta=-2.95D-08
 NORM(A)=   0.11392944D+01
 Iteration Nr.  17
 **********************
 DD1Dir will call FoFMem   1 times, MxPair=       506
 NAB=   253 NAA=     0 NBB=     0.
 DE(Corr)= -0.87219020     E(CORR)=     -5258.5575953     Delta= 4.43D-09
 NORM(A)=   0.11392944D+01
 Wavefunction amplitudes converged. E(Corr)=     -5258.5575953    
 Largest amplitude= 3.78D-02

 Z-amplitude iterations

 Iteration Nr.   1
 **********************
 DD1Dir will call FoFMem   1 times, MxPair=       506
 NAB=   253 NAA=     0 NBB=     0.
 DE(Z)= -0.84520822     E(Z)=     -5258.5306134     Delta= 2.70D-02
 NORM(A)=   0.11392856D+01
 Iteration Nr.   2
 **********************
 DD1Dir will call FoFMem   1 times, MxPair=       506
 NAB=   253 NAA=     0 NBB=     0.
 DE(Z)= -0.84520819     E(Z)=     -5258.5306133     Delta= 2.77D-08
 NORM(A)=   0.11392729D+01
 Iteration Nr.   3
 **********************
 DD1Dir will call FoFMem   1 times, MxPair=       506
 NAB=   253 NAA=     0 NBB=     0.
 DE(Z)= -0.84520816     E(Z)=     -5258.5306133     Delta= 3.03D-08
 NORM(A)=   0.11392831D+01
 Iteration Nr.   4
 **********************
 DD1Dir will call FoFMem   1 times, MxPair=       506
 NAB=   253 NAA=     0 NBB=     0.
 DE(Z)= -0.84520819     E(Z)=     -5258.5306133     Delta=-2.89D-08
 NORM(A)=   0.11393099D+01
 Iteration Nr.   5
 **********************
 DD1Dir will call FoFMem   1 times, MxPair=       506
 NAB=   253 NAA=     0 NBB=     0.
 DE(Z)= -0.84520830     E(Z)=     -5258.5306134     Delta=-1.14D-07
 NORM(A)=   0.11295166D+01
 Iteration Nr.   6
 **********************
 DD1Dir will call FoFMem   1 times, MxPair=       506
 NAB=   253 NAA=     0 NBB=     0.
 DE(Z)= -0.84518598     E(Z)=     -5258.5305911     Delta= 2.23D-05
 NORM(A)=   0.11295360D+01
 Iteration Nr.   7
 **********************
 DD1Dir will call FoFMem   1 times, MxPair=       506
 NAB=   253 NAA=     0 NBB=     0.
 DE(Z)= -0.84515768     E(Z)=     -5258.5305628     Delta= 2.83D-05
 NORM(A)=   0.11295312D+01
 Iteration Nr.   8
 **********************
 DD1Dir will call FoFMem   1 times, MxPair=       506
 NAB=   253 NAA=     0 NBB=     0.
 DE(Z)= -0.84516251     E(Z)=     -5258.5305677     Delta=-4.84D-06
 NORM(A)=   0.11295316D+01
 Iteration Nr.   9
 **********************
 DD1Dir will call FoFMem   1 times, MxPair=       506
 NAB=   253 NAA=     0 NBB=     0.
 DE(Z)= -0.84516256     E(Z)=     -5258.5305677     Delta=-4.62D-08
 NORM(A)=   0.11295317D+01
 Iteration Nr.  10
 **********************
 DD1Dir will call FoFMem   1 times, MxPair=       506
 NAB=   253 NAA=     0 NBB=     0.
 DE(Z)= -0.84516259     E(Z)=     -5258.5305677     Delta=-2.95D-08
 NORM(A)=   0.11295318D+01
 Iteration Nr.  11
 **********************
 DD1Dir will call FoFMem   1 times, MxPair=       506
 NAB=   253 NAA=     0 NBB=     0.
 DE(Z)= -0.84516258     E(Z)=     -5258.5305677     Delta= 1.05D-08
 NORM(A)=   0.11295319D+01
 Iteration Nr.  12
 **********************
 DD1Dir will call FoFMem   1 times, MxPair=       506
 NAB=   253 NAA=     0 NBB=     0.
 DE(Z)= -0.84516258     E(Z)=     -5258.5305677     Delta= 1.99D-11
 NORM(A)=   0.11295319D+01
 Z-amplitudes converged.
 Discarding MO integrals.
          Differentiating once with respect to electric field.
                with respect to dipole field.
          Electric field/nuclear overlap derivatives assumed to be zero.
 Keep R1 ints in memory in canonical form, NReq=258592417.
          There are     1 degrees of freedom in the 1st order CPHF.  IDoFFX=0 NUNeed=     1.
 LinEq1:  Iter=  0 NonCon=     1 RMS=1.94D-03 Max=5.23D-02 NDo=     1
 AX will form     1 AO Fock derivatives at one time.
 LinEq1:  Iter=  1 NonCon=     1 RMS=7.35D-04 Max=2.62D-02 NDo=     1
 LinEq1:  Iter=  2 NonCon=     1 RMS=3.05D-04 Max=9.26D-03 NDo=     1
 LinEq1:  Iter=  3 NonCon=     1 RMS=1.00D-04 Max=2.68D-03 NDo=     1
 LinEq1:  Iter=  4 NonCon=     1 RMS=5.19D-05 Max=1.60D-03 NDo=     1
 LinEq1:  Iter=  5 NonCon=     1 RMS=1.61D-05 Max=4.44D-04 NDo=     1
 LinEq1:  Iter=  6 NonCon=     1 RMS=6.14D-06 Max=1.22D-04 NDo=     1
 LinEq1:  Iter=  7 NonCon=     1 RMS=1.31D-06 Max=2.08D-05 NDo=     1
 LinEq1:  Iter=  8 NonCon=     1 RMS=2.59D-07 Max=4.06D-06 NDo=     1
 LinEq1:  Iter=  9 NonCon=     1 RMS=6.21D-08 Max=1.19D-06 NDo=     1
 LinEq1:  Iter= 10 NonCon=     1 RMS=1.32D-08 Max=1.89D-07 NDo=     1
 LinEq1:  Iter= 11 NonCon=     1 RMS=3.69D-09 Max=8.89D-08 NDo=     1
 LinEq1:  Iter= 12 NonCon=     1 RMS=6.77D-10 Max=1.57D-08 NDo=     1
 LinEq1:  Iter= 13 NonCon=     1 RMS=1.14D-10 Max=2.40D-09 NDo=     1
 LinEq1:  Iter= 14 NonCon=     0 RMS=1.80D-11 Max=4.23D-10 NDo=     1
 Linear equations converged to 1.000D-10 1.000D-09 after    14 iterations.
 End of Minotr F.D. properties file   721 does not exist.
 End of Minotr F.D. properties file   722 does not exist.
 End of Minotr F.D. properties file   788 does not exist.

 **********************************************************************

            Population analysis using the CC Density.

 **********************************************************************

 Alpha  occ. eigenvalues -- -490.06546-490.06546 -65.20543 -65.20543 -58.56074
 Alpha  occ. eigenvalues --  -58.56074 -58.55925 -58.55925 -58.55908 -58.55908
 Alpha  occ. eigenvalues --  -20.62888 -11.46159  -9.87853  -9.87852  -7.49039
 Alpha  occ. eigenvalues --   -7.49038  -7.48320  -7.48320  -7.48250  -7.48250
 Alpha  occ. eigenvalues --   -3.23432  -3.23431  -3.23076  -3.23074  -3.22981
 Alpha  occ. eigenvalues --   -3.22980  -3.22075  -3.22074  -3.22073  -3.22072
 Alpha  occ. eigenvalues --   -1.49197  -1.10744  -1.04740  -0.79428  -0.68698
 Alpha  occ. eigenvalues --   -0.67791  -0.63527  -0.47859  -0.46175  -0.45694
 Alpha  occ. eigenvalues --   -0.45051  -0.43099
 Alpha virt. eigenvalues --    0.03821   0.05657   0.06993   0.07698   0.08205
 Alpha virt. eigenvalues --    0.09408   0.09994   0.10267   0.10951   0.11867
 Alpha virt. eigenvalues --    0.13020   0.13184   0.17492   0.19392   0.22013
 Alpha virt. eigenvalues --    0.22373   0.23256   0.24123   0.25865   0.26613
 Alpha virt. eigenvalues --    0.27536   0.28984   0.31867   0.32970   0.35637
 Alpha virt. eigenvalues --    0.36795   0.37066   0.39757   0.41353   0.43853
 Alpha virt. eigenvalues --    0.44662   0.46446   0.46698   0.49580   0.49693
 Alpha virt. eigenvalues --    0.52647   0.55751   0.56315   0.58654   0.60132
 Alpha virt. eigenvalues --    0.60757   0.63118   0.69698   0.70155   0.71496
 Alpha virt. eigenvalues --    0.72060   0.74615   0.75884   0.77601   0.78519
 Alpha virt. eigenvalues --    0.79420   0.82324   0.83691   0.85040   0.88471
 Alpha virt. eigenvalues --    0.88586   0.89960   0.90013   0.91551   0.93907
 Alpha virt. eigenvalues --    0.94786   0.98124   1.00488   1.01830   1.02974
 Alpha virt. eigenvalues --    1.05560   1.06728   1.11233   1.13135   1.13336
 Alpha virt. eigenvalues --    1.17159   1.17756   1.18632   1.31156   1.34553
 Alpha virt. eigenvalues --    1.36383   1.36593   1.40576   1.43836   1.44728
 Alpha virt. eigenvalues --    1.45016   1.45570   1.51373   1.52301   1.53488
 Alpha virt. eigenvalues --    1.63118   1.63572   1.70978   1.74641   1.79336
 Alpha virt. eigenvalues --    1.95484   2.10822   2.16593   2.17133   2.17716
 Alpha virt. eigenvalues --    2.19140   2.23369   2.24611   2.25370   2.27007
 Alpha virt. eigenvalues --    2.27206   2.27407   2.28556   2.29075   2.29777
 Alpha virt. eigenvalues --    2.30211   2.32521   2.32748   2.32903   2.34020
 Alpha virt. eigenvalues --    2.35897   2.36487   2.37348   2.37934   2.38062
 Alpha virt. eigenvalues --    2.39349   2.39419   2.40634   2.46648   2.48979
 Alpha virt. eigenvalues --    2.53388   2.55986   2.59085   2.60254   2.67279
 Alpha virt. eigenvalues --    2.71099   2.73475   2.77103   2.78894   2.88194
 Alpha virt. eigenvalues --    2.93667   2.96843   3.00341   3.10100   3.49826
 Alpha virt. eigenvalues --    3.58114   3.59752   3.59836   3.61823   3.67677
 Alpha virt. eigenvalues --    3.74233   3.83862   3.86576   3.89726   3.96543
 Alpha virt. eigenvalues --    4.12973   4.14701   4.50017   4.51825   5.01601
 Alpha virt. eigenvalues --    5.15177   5.15552   5.36351   5.48890   6.57514
 Alpha virt. eigenvalues --    6.58740   6.86576   6.88447   7.05997   7.16792
 Alpha virt. eigenvalues --    7.17184   7.23693   7.38963   7.49826   7.67883
 Alpha virt. eigenvalues --    7.69060  13.68308  15.51541
          Condensed to atoms (all electrons):
               1          2          3          4
     1  C    5.548049   0.027482   0.027482   0.246508
     2  Br   0.027482  35.049718  -0.119595  -0.058465
     3  Br   0.027482  -0.119595  35.049718  -0.058465
     4  O    0.246508  -0.058465  -0.058465   8.222621
 Mulliken charges:
               1
     1  C    0.150479
     2  Br   0.100860
     3  Br   0.100860
     4  O   -0.352198
 Sum of Mulliken charges =  -0.00000
 Mulliken charges with hydrogens summed into heavy atoms:
               1
     1  C    0.150479
     2  Br   0.100860
     3  Br   0.100860
     4  O   -0.352198
 Electronic spatial extent (au):  <R**2>=           1355.3004
 Charge=             -0.0000 electrons
 Dipole moment (field-independent basis, Debye):
    X=              0.0000    Y=              0.0000    Z=             -1.1781  Tot=              1.1781
 Quadrupole moment (field-independent basis, Debye-Ang):
   XX=            -46.9490   YY=            -45.0094   ZZ=            -47.5633
   XY=             -0.0000   XZ=             -0.0000   YZ=             -0.0000
 Traceless Quadrupole moment (field-independent basis, Debye-Ang):
   XX=             -0.4418   YY=              1.4979   ZZ=             -1.0561
   XY=             -0.0000   XZ=             -0.0000   YZ=             -0.0000
 Octapole moment (field-independent basis, Debye-Ang**2):
  XXX=              0.0000  YYY=              0.0000  ZZZ=            165.1989  XYY=              0.0000
  XXY=              0.0000  XXZ=             56.4105  XZZ=              0.0000  YZZ=              0.0000
  YYZ=             45.9600  XYZ=              0.0000
 Hexadecapole moment (field-independent basis, Debye-Ang**3):
 XXXX=            -53.6961 YYYY=           -571.5626 ZZZZ=           -597.0997 XXXY=             -0.0000
 XXXZ=             -0.0000 YYYX=             -0.0000 YYYZ=             -0.0000 ZZZX=             -0.0000
 ZZZY=             -0.0000 XXYY=           -111.4306 XXZZ=           -110.3889 YYZZ=           -175.3719
 XXYZ=             -0.0000 YYXZ=             -0.0000 ZZXY=             -0.0000
 N-N= 4.497388228401D+02 E-N=-1.347129650398D+04  KE= 5.257277853870D+03
 There are a total of      108140 grid points.
 ElSum from          density=       84.0000032754
 ElSum from atomic densities=       84.0000018445

 Hirshfeld populations at iteration   1 (CX, CA, CB, DipXYZ):
               1          2          3          4          5          6
     1  C    0.000001   2.914861   2.914861   0.000000   0.000000  -0.027096
     2  Br   0.000016  17.499187  17.499187  -0.000000  -0.068964  -0.006960
     3  Br   0.000016  17.499187  17.499187   0.000000   0.068964  -0.006960
     4  O    0.000008   4.086766   4.086766  -0.000000  -0.000000  -0.033562
       Tot   0.000040  42.000002  42.000002  -0.000000  -0.000000  -0.074578

 Dip from Atomic Chgs              0.000000   0.000000  -0.388927
         Total Dipole             -0.000000   0.000000  -0.463505

 Hirshfeld charges, spin densities, dipoles, and CM5 charges using IRadAn=      5:
              Q-H        S-H        Dx         Dy         Dz        Q-CM5   
     1  C    0.170277   0.000000   0.000000   0.000000  -0.027096   0.183826
     2  Br   0.001626   0.000000  -0.000000  -0.068964  -0.006960   0.020172
     3  Br   0.001626   0.000000   0.000000   0.068964  -0.006960   0.020172
     4  O   -0.173531   0.000000  -0.000000  -0.000000  -0.033562  -0.224173
       Tot  -0.000003   0.000000  -0.000000  -0.000000  -0.074578  -0.000003
 Hirshfeld charges with hydrogens summed into heavy atoms:
              Q-H       Q-CM5   
     1  C    0.170277   0.183826
     2  Br   0.001626   0.020172
     3  Br   0.001626   0.020172
     4  O   -0.173531  -0.224173
 
 EQQ= 0.000000000000E+00 EQD= 0.000000000000E+00 EDD= 0.748151921445E-04
 EQQ+QD+DD= 0.748151921445E-04
 
 Breneman (CHELPG) radii used.
 GetVDW:  no radius for atom   2 atomic number  35.
 Error termination via Lnk1e in /home/wagner/chemistry/gaussian/g16/l602.exe at Mon Sep  5 15:03:24 2022.
 Job cpu time:       0 days 13 hours 24 minutes  7.6 seconds.
 Elapsed time:       0 days  0 hours 50 minutes 45.2 seconds.
 File lengths (MBytes):  RWF=  29492 Int=      0 D2E=      0 Chk=      2 Scr=      1
