 Entering Gaussian System, Link 0=/home/wagner/chemistry/gaussian/g16/g16
 Input=GAUSSIAN.com
 Output=GAUSSIAN.log
 Initial command:
 /home/wagner/chemistry/gaussian/g16/l1.exe "/home/wagner/chemistry/gaussian/work/Gau-65729.inp" -scrdir="/home/wagner/chemistry/gaussian/work/"
 Entering Link 1 = /home/wagner/chemistry/gaussian/g16/l1.exe PID=     65731.
  
 Copyright (c) 1988-2019, Gaussian, Inc.  All Rights Reserved.
  
 This is part of the Gaussian(R) 16 program.  It is based on
 the Gaussian(R) 09 system (copyright 2009, Gaussian, Inc.),
 the Gaussian(R) 03 system (copyright 2003, Gaussian, Inc.),
 the Gaussian(R) 98 system (copyright 1998, Gaussian, Inc.),
 the Gaussian(R) 94 system (copyright 1995, Gaussian, Inc.),
 the Gaussian 92(TM) system (copyright 1992, Gaussian, Inc.),
 the Gaussian 90(TM) system (copyright 1990, Gaussian, Inc.),
 the Gaussian 88(TM) system (copyright 1988, Gaussian, Inc.),
 the Gaussian 86(TM) system (copyright 1986, Carnegie Mellon
 University), and the Gaussian 82(TM) system (copyright 1983,
 Carnegie Mellon University). Gaussian is a federally registered
 trademark of Gaussian, Inc.
  
 This software contains proprietary and confidential information,
 including trade secrets, belonging to Gaussian, Inc.
  
 This software is provided under written license and may be
 used, copied, transmitted, or stored only in accord with that
 written license.
  
 The following legend is applicable only to US Government
 contracts under FAR:
  
                    RESTRICTED RIGHTS LEGEND
  
 Use, reproduction and disclosure by the US Government is
 subject to restrictions as set forth in subparagraphs (a)
 and (c) of the Commercial Computer Software - Restricted
 Rights clause in FAR 52.227-19.
  
 Gaussian, Inc.
 340 Quinnipiac St., Bldg. 40, Wallingford CT 06492
  
  
 ---------------------------------------------------------------
 Warning -- This program may not be used in any manner that
 competes with the business of Gaussian, Inc. or will provide
 assistance to any competitor of Gaussian, Inc.  The licensee
 of this program is prohibited from giving any competitor of
 Gaussian, Inc. access to this program.  By using this program,
 the user acknowledges that Gaussian, Inc. is engaged in the
 business of creating and licensing software in the field of
 computational chemistry and represents and warrants to the
 licensee that it is not a competitor of Gaussian, Inc. and that
 it will not use this program in any manner prohibited above.
 ---------------------------------------------------------------
  

 Cite this work as:
 Gaussian 16, Revision C.01,
 M. J. Frisch, G. W. Trucks, H. B. Schlegel, G. E. Scuseria, 
 M. A. Robb, J. R. Cheeseman, G. Scalmani, V. Barone, 
 G. A. Petersson, H. Nakatsuji, X. Li, M. Caricato, A. V. Marenich, 
 J. Bloino, B. G. Janesko, R. Gomperts, B. Mennucci, H. P. Hratchian, 
 J. V. Ortiz, A. F. Izmaylov, J. L. Sonnenberg, D. Williams-Young, 
 F. Ding, F. Lipparini, F. Egidi, J. Goings, B. Peng, A. Petrone, 
 T. Henderson, D. Ranasinghe, V. G. Zakrzewski, J. Gao, N. Rega, 
 G. Zheng, W. Liang, M. Hada, M. Ehara, K. Toyota, R. Fukuda, 
 J. Hasegawa, M. Ishida, T. Nakajima, Y. Honda, O. Kitao, H. Nakai, 
 T. Vreven, K. Throssell, J. A. Montgomery, Jr., J. E. Peralta, 
 F. Ogliaro, M. J. Bearpark, J. J. Heyd, E. N. Brothers, K. N. Kudin, 
 V. N. Staroverov, T. A. Keith, R. Kobayashi, J. Normand, 
 K. Raghavachari, A. P. Rendell, J. C. Burant, S. S. Iyengar, 
 J. Tomasi, M. Cossi, J. M. Millam, M. Klene, C. Adamo, R. Cammi, 
 J. W. Ochterski, R. L. Martin, K. Morokuma, O. Farkas, 
 J. B. Foresman, and D. J. Fox, Gaussian, Inc., Wallingford CT, 2019.
 
 ******************************************
 Gaussian 16:  EM64L-G16RevC.01  3-Jul-2019
                 5-Sep-2022 
 ******************************************
 %nproc=16
 Will use up to   16 processors via shared memory.
 %mem=16GB
 ----------------------------------------------------------------------
 # qcisd/aug-cc-pvtz nosymm density=current pop=(chelpg,hirshfeld,npa,d
 ipole)
 ----------------------------------------------------------------------
 1/30=1,38=1,172=1/1;
 2/12=2,15=1,17=6,18=5,40=1/2;
 3/5=16,6=1,7=10,11=9,25=1,30=1,71=1/1,2,3;
 4//1;
 5/5=2,38=5/2;
 8/6=4,9=120000,10=1/1,4;
 9/5=8,15=1/13;
 11/28=-7,31=1,32=3,42=3/11;
 10/5=6,13=10,31=1/2;
 6/7=2,8=2,9=2,10=2,15=24,20=3,22=-1,40=-1,79=1/1,2,7;
 99/5=1,9=1/99;
 ------------------
 br2co-wavefunction
 ------------------
 Symbolic Z-matrix:
 Charge =  0 Multiplicity = 1
 C                     0.        0.       -0.49176 
 Br                    0.       -1.59418  -1.53682 
 Br                    0.        1.59418  -1.54682 
 O                     0.        0.        0.6845 
 
                          Input orientation:                          
 ---------------------------------------------------------------------
 Center     Atomic      Atomic             Coordinates (Angstroms)
 Number     Number       Type             X           Y           Z
 ---------------------------------------------------------------------
      1          6           0        0.000000    0.000000   -0.491759
      2         35           0        0.000000   -1.594181   -1.536820
      3         35           0        0.000000    1.594181   -1.546820
      4          8           0        0.000000    0.000000    0.684500
 ---------------------------------------------------------------------
                    Distance matrix (angstroms):
                    1          2          3          4
     1  C    0.000000
     2  Br   1.906191   0.000000
     3  Br   1.911692   3.188378   0.000000
     4  O    1.176259   2.734168   2.742299   0.000000
 Symmetry turned off by external request.
 Stoichiometry    CBr2O
 Framework group  CS[SG(CBr2O)]
 Deg. of freedom     5
 Full point group                 CS      NOp   2
 Rotational constants (GHZ):           6.3170765           1.2598786           1.0503889
 Standard basis: Aug-CC-pVTZ (5D, 7F)
   210 basis functions,   578 primitive gaussians,   248 cartesian basis functions
    42 alpha electrons       42 beta electrons
       nuclear repulsion energy       449.5597416428 Hartrees.
 NAtoms=    4 NActive=    4 NUniq=    4 SFac= 1.00D+00 NAtFMM=   60 NAOKFM=F Big=F
 Integral buffers will be    131072 words long.
 Raffenetti 1 integral format.
 Two-electron integral symmetry is turned off.
 One-electron integrals computed using PRISM.
 NBasis=   210 RedAO= T EigKep=  1.04D-04  NBF=   210
 NBsUse=   210 1.00D-06 EigRej= -1.00D+00 NBFU=   210
 ExpMin= 3.51D-02 ExpMax= 1.06D+07 ExpMxC= 1.21D+04 IAcc=3 IRadAn=         5 AccDes= 0.00D+00
 Harris functional with IExCor=  205 and IRadAn=       5 diagonalized for initial guess.
 HarFok:  IExCor=  205 AccDes= 0.00D+00 IRadAn=         5 IDoV= 1 UseB2=F ITyADJ=14
 ICtDFT=  3500011 ScaDFX=  1.000000  1.000000  1.000000  1.000000
 FoFCou: FMM=F IPFlag=           0 FMFlag=      100000 FMFlg1=           0
         NFxFlg=           0 DoJE=T BraDBF=F KetDBF=T FulRan=T
         wScrn=  0.000000 ICntrl=       500 IOpCl=  0 I1Cent=   200000004 NGrid=           0
         NMat0=    1 NMatS0=      1 NMatT0=    0 NMatD0=    1 NMtDS0=    0 NMtDT0=    0
 Symmetry not used in FoFCou.
 Keep R1 ints in memory in canonical form, NReq=258584942.
 Requested convergence on RMS density matrix=1.00D-08 within 128 cycles.
 Requested convergence on MAX density matrix=1.00D-06.
 Requested convergence on             energy=1.00D-06.
 No special actions if energy rises.
 SCF Done:  E(RHF) =  -5257.68459580     A.U. after   12 cycles
            NFock= 12  Conv=0.90D-08     -V/T= 2.0000
 ExpMin= 3.51D-02 ExpMax= 1.06D+07 ExpMxC= 1.21D+04 IAcc=3 IRadAn=         5 AccDes= 0.00D+00
 HarFok:  IExCor=  205 AccDes= 0.00D+00 IRadAn=         5 IDoV=-2 UseB2=F ITyADJ=14
 ICtDFT= 12500011 ScaDFX=  1.000000  1.000000  1.000000  1.000000
 Range of M.O.s used for correlation:    21   210
 NBasis=   210 NAE=    42 NBE=    42 NFC=    20 NFV=     0
 NROrb=    190 NOA=    22 NOB=    22 NVA=   168 NVB=   168

 **** Warning!!: The largest alpha MO coefficient is  0.28191444D+02

 Semi-Direct transformation.
 ModeAB=           2 MOrb=            22 LenV=    2146226253
 LASXX=     69628944 LTotXX=    69628944 LenRXX=    69628944
 LTotAB=    70719517 MaxLAS=   129061680 LenRXY=   129061680
 NonZer=   139257888 LenScr=   209707008 LnRSAI=           0
 LnScr1=           0 LExtra=           0 Total=    408397632
 MaxDsk=          -1 SrtSym=           F ITran=            4
 JobTyp=0 Pass  1:  I=   1 to  22.
 (rs|ai) integrals will be sorted in core.
 Spin components of T(2) and E(2):
     alpha-alpha T2 =       0.3829985749D-01 E2=     -0.1232824700D+00
     alpha-beta  T2 =       0.1923355431D+00 E2=     -0.6174337685D+00
     beta-beta   T2 =       0.3829985749D-01 E2=     -0.1232824700D+00
 ANorm=    0.1126470265D+01
 E2 =    -0.8639987086D+00 EUMP2 =    -0.52585485945086D+04
 Keep R2 and R3 ints in memory in canonical form, NReq=504031936.
 CIDS: In Core Option IDoMem=           1.
 Iterations=  50 Convergence= 0.100D-07
 Produce multiple copies of IABC intergrals
 Iteration Nr.   1
 **********************
 DD1Dir will call FoFMem   1 times, MxPair=       506
 NAB=   253 NAA=     0 NBB=     0.
 MP4(R+Q)=  0.21456687D-01
 E3=        0.11907441D-03        EUMP3=      -0.52585484754D+04
 E4(DQ)=    0.27430305D-03        UMP4(DQ)=   -0.52585482011D+04
 E4(SDQ)=  -0.11670739D-01        UMP4(SDQ)=  -0.52585601462D+04
 DE(Corr)= -0.84242295     E(Corr)=     -5258.5270187    
 NORM(A)=   0.11247623D+01
 Iteration Nr.   2
 **********************
 DD1Dir will call FoFMem   1 times, MxPair=       506
 NAB=   253 NAA=     0 NBB=     0.
 DE(Corr)= -0.87227481     E(CORR)=     -5258.5568706     Delta=-2.99D-02
 NORM(A)=   0.11351430D+01
 Iteration Nr.   3
 **********************
 DD1Dir will call FoFMem   1 times, MxPair=       506
 NAB=   253 NAA=     0 NBB=     0.
 DE(Corr)= -0.87018204     E(CORR)=     -5258.5547778     Delta= 2.09D-03
 NORM(A)=   0.11378953D+01
 Iteration Nr.   4
 **********************
 DD1Dir will call FoFMem   1 times, MxPair=       506
 NAB=   253 NAA=     0 NBB=     0.
 DE(Corr)= -0.87270498     E(CORR)=     -5258.5573008     Delta=-2.52D-03
 NORM(A)=   0.11392036D+01
 Iteration Nr.   5
 **********************
 DD1Dir will call FoFMem   1 times, MxPair=       506
 NAB=   253 NAA=     0 NBB=     0.
 DE(Corr)= -0.87307821     E(CORR)=     -5258.5576740     Delta=-3.73D-04
 NORM(A)=   0.11397166D+01
 Iteration Nr.   6
 **********************
 DD1Dir will call FoFMem   1 times, MxPair=       506
 NAB=   253 NAA=     0 NBB=     0.
 DE(Corr)= -0.87314228     E(CORR)=     -5258.5577381     Delta=-6.41D-05
 NORM(A)=   0.11398202D+01
 Iteration Nr.   7
 **********************
 DD1Dir will call FoFMem   1 times, MxPair=       506
 NAB=   253 NAA=     0 NBB=     0.
 DE(Corr)= -0.87315653     E(CORR)=     -5258.5577523     Delta=-1.43D-05
 NORM(A)=   0.11398289D+01
 Iteration Nr.   8
 **********************
 DD1Dir will call FoFMem   1 times, MxPair=       506
 NAB=   253 NAA=     0 NBB=     0.
 DE(Corr)= -0.87315686     E(CORR)=     -5258.5577527     Delta=-3.38D-07
 NORM(A)=   0.11398439D+01
 Iteration Nr.   9
 **********************
 DD1Dir will call FoFMem   1 times, MxPair=       506
 NAB=   253 NAA=     0 NBB=     0.
 DE(Corr)= -0.87315494     E(CORR)=     -5258.5577507     Delta= 1.93D-06
 NORM(A)=   0.11398438D+01
 Iteration Nr.  10
 **********************
 DD1Dir will call FoFMem   1 times, MxPair=       506
 NAB=   253 NAA=     0 NBB=     0.
 DE(Corr)= -0.87315635     E(CORR)=     -5258.5577522     Delta=-1.41D-06
 NORM(A)=   0.11398465D+01
 Iteration Nr.  11
 **********************
 DD1Dir will call FoFMem   1 times, MxPair=       506
 NAB=   253 NAA=     0 NBB=     0.
 DE(Corr)= -0.87315747     E(CORR)=     -5258.5577533     Delta=-1.12D-06
 NORM(A)=   0.11398483D+01
 Iteration Nr.  12
 **********************
 DD1Dir will call FoFMem   1 times, MxPair=       506
 NAB=   253 NAA=     0 NBB=     0.
 DE(Corr)= -0.87315780     E(CORR)=     -5258.5577536     Delta=-3.21D-07
 NORM(A)=   0.11398493D+01
 Iteration Nr.  13
 **********************
 DD1Dir will call FoFMem   1 times, MxPair=       506
 NAB=   253 NAA=     0 NBB=     0.
 DE(Corr)= -0.87315826     E(CORR)=     -5258.5577541     Delta=-4.61D-07
 NORM(A)=   0.11398500D+01
 Iteration Nr.  14
 **********************
 DD1Dir will call FoFMem   1 times, MxPair=       506
 NAB=   253 NAA=     0 NBB=     0.
 DE(Corr)= -0.87315837     E(CORR)=     -5258.5577542     Delta=-1.12D-07
 NORM(A)=   0.11398503D+01
 Iteration Nr.  15
 **********************
 DD1Dir will call FoFMem   1 times, MxPair=       506
 NAB=   253 NAA=     0 NBB=     0.
 DE(Corr)= -0.87315844     E(CORR)=     -5258.5577542     Delta=-6.84D-08
 NORM(A)=   0.11398505D+01
 Iteration Nr.  16
 **********************
 DD1Dir will call FoFMem   1 times, MxPair=       506
 NAB=   253 NAA=     0 NBB=     0.
 DE(Corr)= -0.87315847     E(CORR)=     -5258.5577543     Delta=-2.99D-08
 NORM(A)=   0.11398506D+01
 Iteration Nr.  17
 **********************
 DD1Dir will call FoFMem   1 times, MxPair=       506
 NAB=   253 NAA=     0 NBB=     0.
 DE(Corr)= -0.87315846     E(CORR)=     -5258.5577543     Delta= 3.06D-09
 NORM(A)=   0.11398506D+01
 Wavefunction amplitudes converged. E(Corr)=     -5258.5577543    
 Largest amplitude= 4.19D-02

 Z-amplitude iterations

 Iteration Nr.   1
 **********************
 DD1Dir will call FoFMem   1 times, MxPair=       506
 NAB=   253 NAA=     0 NBB=     0.
 DE(Z)= -0.84601946     E(Z)=     -5258.5306153     Delta= 2.71D-02
 NORM(A)=   0.11398113D+01
 Iteration Nr.   2
 **********************
 DD1Dir will call FoFMem   1 times, MxPair=       506
 NAB=   253 NAA=     0 NBB=     0.
 DE(Z)= -0.84601938     E(Z)=     -5258.5306152     Delta= 7.50D-08
 NORM(A)=   0.11391052D+01
 Iteration Nr.   3
 **********************
 DD1Dir will call FoFMem   1 times, MxPair=       506
 NAB=   253 NAA=     0 NBB=     0.
 DE(Z)= -0.84601831     E(Z)=     -5258.5306141     Delta= 1.07D-06
 NORM(A)=   0.11397835D+01
 Iteration Nr.   4
 **********************
 DD1Dir will call FoFMem   1 times, MxPair=       506
 NAB=   253 NAA=     0 NBB=     0.
 DE(Z)= -0.84601937     E(Z)=     -5258.5306152     Delta=-1.06D-06
 NORM(A)=   0.11337229D+01
 Iteration Nr.   5
 **********************
 DD1Dir will call FoFMem   1 times, MxPair=       506
 NAB=   253 NAA=     0 NBB=     0.
 DE(Z)= -0.84599373     E(Z)=     -5258.5305895     Delta= 2.56D-05
 NORM(A)=   0.11300185D+01
 Iteration Nr.   6
 **********************
 DD1Dir will call FoFMem   1 times, MxPair=       506
 NAB=   253 NAA=     0 NBB=     0.
 DE(Z)= -0.84598755     E(Z)=     -5258.5305834     Delta= 6.18D-06
 NORM(A)=   0.11300200D+01
 Iteration Nr.   7
 **********************
 DD1Dir will call FoFMem   1 times, MxPair=       506
 NAB=   253 NAA=     0 NBB=     0.
 DE(Z)= -0.84598355     E(Z)=     -5258.5305793     Delta= 4.00D-06
 NORM(A)=   0.11300194D+01
 Iteration Nr.   8
 **********************
 DD1Dir will call FoFMem   1 times, MxPair=       506
 NAB=   253 NAA=     0 NBB=     0.
 DE(Z)= -0.84598550     E(Z)=     -5258.5305813     Delta=-1.95D-06
 NORM(A)=   0.11300198D+01
 Iteration Nr.   9
 **********************
 DD1Dir will call FoFMem   1 times, MxPair=       506
 NAB=   253 NAA=     0 NBB=     0.
 DE(Z)= -0.84598549     E(Z)=     -5258.5305813     Delta= 4.14D-09
 NORM(A)=   0.11300200D+01
 Iteration Nr.  10
 **********************
 DD1Dir will call FoFMem   1 times, MxPair=       506
 NAB=   253 NAA=     0 NBB=     0.
 DE(Z)= -0.84598544     E(Z)=     -5258.5305812     Delta= 4.85D-08
 NORM(A)=   0.11300201D+01
 Iteration Nr.  11
 **********************
 DD1Dir will call FoFMem   1 times, MxPair=       506
 NAB=   253 NAA=     0 NBB=     0.
 DE(Z)= -0.84598549     E(Z)=     -5258.5305813     Delta=-4.45D-08
 NORM(A)=   0.11300202D+01
 Iteration Nr.  12
 **********************
 DD1Dir will call FoFMem   1 times, MxPair=       506
 NAB=   253 NAA=     0 NBB=     0.
 DE(Z)= -0.84598548     E(Z)=     -5258.5305813     Delta= 1.13D-08
 NORM(A)=   0.11300202D+01
 Iteration Nr.  13
 **********************
 DD1Dir will call FoFMem   1 times, MxPair=       506
 NAB=   253 NAA=     0 NBB=     0.
 DE(Z)= -0.84598549     E(Z)=     -5258.5305813     Delta=-1.38D-08
 NORM(A)=   0.11300202D+01
 Iteration Nr.  14
 **********************
 DD1Dir will call FoFMem   1 times, MxPair=       506
 NAB=   253 NAA=     0 NBB=     0.
 DE(Z)= -0.84598549     E(Z)=     -5258.5305813     Delta= 3.08D-09
 NORM(A)=   0.11300202D+01
 Z-amplitudes converged.
 Discarding MO integrals.
          Differentiating once with respect to electric field.
                with respect to dipole field.
          Electric field/nuclear overlap derivatives assumed to be zero.
 Keep R1 ints in memory in canonical form, NReq=258592504.
          There are     1 degrees of freedom in the 1st order CPHF.  IDoFFX=0 NUNeed=     1.
 LinEq1:  Iter=  0 NonCon=     1 RMS=1.95D-03 Max=5.59D-02 NDo=     1
 AX will form     1 AO Fock derivatives at one time.
 LinEq1:  Iter=  1 NonCon=     1 RMS=7.39D-04 Max=2.61D-02 NDo=     1
 LinEq1:  Iter=  2 NonCon=     1 RMS=3.09D-04 Max=9.29D-03 NDo=     1
 LinEq1:  Iter=  3 NonCon=     1 RMS=1.02D-04 Max=2.95D-03 NDo=     1
 LinEq1:  Iter=  4 NonCon=     1 RMS=5.31D-05 Max=1.63D-03 NDo=     1
 LinEq1:  Iter=  5 NonCon=     1 RMS=1.64D-05 Max=4.60D-04 NDo=     1
 LinEq1:  Iter=  6 NonCon=     1 RMS=6.28D-06 Max=1.30D-04 NDo=     1
 LinEq1:  Iter=  7 NonCon=     1 RMS=1.34D-06 Max=2.11D-05 NDo=     1
 LinEq1:  Iter=  8 NonCon=     1 RMS=2.68D-07 Max=4.30D-06 NDo=     1
 LinEq1:  Iter=  9 NonCon=     1 RMS=6.50D-08 Max=1.20D-06 NDo=     1
 LinEq1:  Iter= 10 NonCon=     1 RMS=1.39D-08 Max=2.08D-07 NDo=     1
 LinEq1:  Iter= 11 NonCon=     1 RMS=3.90D-09 Max=9.44D-08 NDo=     1
 LinEq1:  Iter= 12 NonCon=     1 RMS=7.19D-10 Max=1.64D-08 NDo=     1
 LinEq1:  Iter= 13 NonCon=     1 RMS=1.25D-10 Max=2.62D-09 NDo=     1
 LinEq1:  Iter= 14 NonCon=     0 RMS=3.06D-11 Max=5.84D-10 NDo=     1
 Linear equations converged to 1.000D-10 1.000D-09 after    14 iterations.
 End of Minotr F.D. properties file   721 does not exist.
 End of Minotr F.D. properties file   722 does not exist.
 End of Minotr F.D. properties file   788 does not exist.

 **********************************************************************

            Population analysis using the CC Density.

 **********************************************************************

 Alpha  occ. eigenvalues -- -490.06652-490.06627 -65.20650 -65.20622 -58.56181
 Alpha  occ. eigenvalues --  -58.56153 -58.56032 -58.56015 -58.56003 -58.55986
 Alpha  occ. eigenvalues --  -20.62769 -11.46276  -9.87962  -9.87928  -7.49150
 Alpha  occ. eigenvalues --   -7.49115  -7.48429  -7.48395  -7.48358  -7.48324
 Alpha  occ. eigenvalues --   -3.23545  -3.23510  -3.23186  -3.23152  -3.23090
 Alpha  occ. eigenvalues --   -3.23057  -3.22183  -3.22180  -3.22148  -3.22146
 Alpha  occ. eigenvalues --   -1.48374  -1.10876  -1.04833  -0.79355  -0.68357
 Alpha  occ. eigenvalues --   -0.67614  -0.63061  -0.47898  -0.46156  -0.45811
 Alpha  occ. eigenvalues --   -0.45117  -0.43170
 Alpha virt. eigenvalues --    0.03826   0.05635   0.07023   0.07542   0.08217
 Alpha virt. eigenvalues --    0.09340   0.09998   0.10266   0.10938   0.11875
 Alpha virt. eigenvalues --    0.13034   0.13180   0.17481   0.19387   0.21928
 Alpha virt. eigenvalues --    0.22367   0.23272   0.24156   0.25866   0.26678
 Alpha virt. eigenvalues --    0.27529   0.28917   0.31889   0.32947   0.35592
 Alpha virt. eigenvalues --    0.36789   0.37022   0.39752   0.41357   0.43826
 Alpha virt. eigenvalues --    0.44717   0.46419   0.46670   0.49563   0.49639
 Alpha virt. eigenvalues --    0.52615   0.55736   0.56295   0.58716   0.60193
 Alpha virt. eigenvalues --    0.60834   0.63133   0.69514   0.70114   0.71491
 Alpha virt. eigenvalues --    0.71820   0.74580   0.75866   0.77534   0.78538
 Alpha virt. eigenvalues --    0.79432   0.82297   0.83566   0.85042   0.88507
 Alpha virt. eigenvalues --    0.88550   0.89893   0.90091   0.91532   0.93871
 Alpha virt. eigenvalues --    0.94778   0.98099   1.00455   1.01675   1.03009
 Alpha virt. eigenvalues --    1.05537   1.06774   1.11248   1.13094   1.13314
 Alpha virt. eigenvalues --    1.17130   1.17678   1.18807   1.30676   1.34662
 Alpha virt. eigenvalues --    1.36334   1.36549   1.40659   1.43945   1.44780
 Alpha virt. eigenvalues --    1.45015   1.45462   1.51405   1.52501   1.53268
 Alpha virt. eigenvalues --    1.62997   1.63613   1.70727   1.74629   1.79930
 Alpha virt. eigenvalues --    1.95292   2.10749   2.16482   2.17048   2.17699
 Alpha virt. eigenvalues --    2.18938   2.23322   2.24535   2.25307   2.26883
 Alpha virt. eigenvalues --    2.27154   2.27419   2.28638   2.28987   2.29670
 Alpha virt. eigenvalues --    2.30155   2.32620   2.32681   2.32783   2.33962
 Alpha virt. eigenvalues --    2.35744   2.36404   2.37284   2.37894   2.37982
 Alpha virt. eigenvalues --    2.39392   2.39410   2.40541   2.46643   2.48789
 Alpha virt. eigenvalues --    2.53383   2.55928   2.58755   2.59645   2.67148
 Alpha virt. eigenvalues --    2.70716   2.73224   2.76699   2.78683   2.88304
 Alpha virt. eigenvalues --    2.93650   2.97606   3.01175   3.10051   3.49026
 Alpha virt. eigenvalues --    3.58369   3.59183   3.59856   3.61946   3.67730
 Alpha virt. eigenvalues --    3.73590   3.84142   3.86543   3.90052   3.96111
 Alpha virt. eigenvalues --    4.12187   4.13918   4.48702   4.50329   5.01508
 Alpha virt. eigenvalues --    5.12683   5.15181   5.34131   5.47990   6.57543
 Alpha virt. eigenvalues --    6.58768   6.86309   6.88123   7.04591   7.16292
 Alpha virt. eigenvalues --    7.17065   7.22184   7.37481   7.50027   7.67871
 Alpha virt. eigenvalues --    7.68287  13.55084  15.29816
          Condensed to atoms (all electrons):
               1          2          3          4
     1  C    5.567589   0.021809   0.025023   0.239006
     2  Br   0.021809  35.045270  -0.118263  -0.057400
     3  Br   0.025023  -0.118263  35.047021  -0.056707
     4  O    0.239006  -0.057400  -0.056707   8.233184
 Mulliken charges:
               1
     1  C    0.146573
     2  Br   0.108584
     3  Br   0.102926
     4  O   -0.358083
 Sum of Mulliken charges =  -0.00000
 Mulliken charges with hydrogens summed into heavy atoms:
               1
     1  C    0.146573
     2  Br   0.108584
     3  Br   0.102926
     4  O   -0.358083
 Electronic spatial extent (au):  <R**2>=           1351.7396
 Charge=             -0.0000 electrons
 Dipole moment (field-independent basis, Debye):
    X=             -0.0000    Y=             -0.0167    Z=             -1.2482  Tot=              1.2483
 Quadrupole moment (field-independent basis, Debye-Ang):
   XX=            -46.9532   YY=            -44.9029   ZZ=            -47.5380
   XY=              0.0000   XZ=              0.0000   YZ=              0.0129
 Traceless Quadrupole moment (field-independent basis, Debye-Ang):
   XX=             -0.4885   YY=              1.5618   ZZ=             -1.0733
   XY=              0.0000   XZ=              0.0000   YZ=              0.0129
 Octapole moment (field-independent basis, Debye-Ang**2):
  XXX=             -0.0000  YYY=             -0.1343  ZZZ=            164.3201  XYY=             -0.0000
  XXY=             -0.0225  XXZ=             56.1152  XZZ=             -0.0000  YZZ=              0.0114
  YYZ=             45.5300  XYZ=             -0.0000
 Hexadecapole moment (field-independent basis, Debye-Ang**3):
 XXXX=            -53.6679 YYYY=           -570.5332 ZZZZ=           -593.9853 XXXY=              0.0000
 XXXZ=              0.0000 YYYX=              0.0000 YYYZ=              0.9650 ZZZX=              0.0000
 ZZZY=              0.7311 XXYY=           -111.3241 XXZZ=           -109.8332 YYZZ=           -174.6883
 XXYZ=              0.3220 YYXZ=              0.0000 ZZXY=              0.0000
 N-N= 4.495597416428D+02 E-N=-1.347088189703D+04  KE= 5.257238908448D+03
 There are a total of      108140 grid points.
 ElSum from          density=       84.0000031446
 ElSum from atomic densities=       84.0000017576

 Hirshfeld populations at iteration   1 (CX, CA, CB, DipXYZ):
               1          2          3          4          5          6
     1  C    0.000001   2.915798   2.915798   0.000000   0.000609  -0.028789
     2  Br   0.000015  17.497185  17.497185  -0.000000  -0.071491  -0.006039
     3  Br   0.000015  17.498284  17.498284   0.000000   0.071258  -0.007276
     4  O    0.000008   4.088735   4.088735  -0.000000  -0.000335  -0.036532
       Tot   0.000039  42.000002  42.000002  -0.000000   0.000042  -0.078636

 Dip from Atomic Chgs              0.000000  -0.006617  -0.412438
         Total Dipole             -0.000000  -0.006575  -0.491075

 Hirshfeld charges, spin densities, dipoles, and CM5 charges using IRadAn=      5:
              Q-H        S-H        Dx         Dy         Dz        Q-CM5   
     1  C    0.168404   0.000000   0.000000   0.000609  -0.028789   0.180772
     2  Br   0.005629   0.000000  -0.000000  -0.071491  -0.006039   0.024361
     3  Br   0.003433   0.000000   0.000000   0.071258  -0.007276   0.021880
     4  O   -0.177469   0.000000  -0.000000  -0.000335  -0.036532  -0.227017
       Tot  -0.000003   0.000000  -0.000000   0.000042  -0.078636  -0.000003
 Hirshfeld charges with hydrogens summed into heavy atoms:
              Q-H       Q-CM5   
     1  C    0.168404   0.180772
     2  Br   0.005629   0.024361
     3  Br   0.003433   0.021880
     4  O   -0.177469  -0.227017
 
 EQQ= 0.000000000000E+00 EQD= 0.000000000000E+00 EDD= 0.843183061557E-04
 EQQ+QD+DD= 0.843183061557E-04
 
 Breneman (CHELPG) radii used.
 GetVDW:  no radius for atom   2 atomic number  35.
 Error termination via Lnk1e in /home/wagner/chemistry/gaussian/g16/l602.exe at Mon Sep  5 03:57:41 2022.
 Job cpu time:       0 days 13 hours 27 minutes 56.8 seconds.
 Elapsed time:       0 days  0 hours 50 minutes 55.1 seconds.
 File lengths (MBytes):  RWF=  29492 Int=      0 D2E=      0 Chk=      2 Scr=      1
