 Entering Gaussian System, Link 0=/home/wagner/chemistry/gaussian/g16/g16
 Input=GAUSSIAN.com
 Output=GAUSSIAN.log
 Initial command:
 /home/wagner/chemistry/gaussian/g16/l1.exe "/home/wagner/chemistry/gaussian/work/Gau-61074.inp" -scrdir="/home/wagner/chemistry/gaussian/work/"
 Entering Link 1 = /home/wagner/chemistry/gaussian/g16/l1.exe PID=     61076.
  
 Copyright (c) 1988-2019, Gaussian, Inc.  All Rights Reserved.
  
 This is part of the Gaussian(R) 16 program.  It is based on
 the Gaussian(R) 09 system (copyright 2009, Gaussian, Inc.),
 the Gaussian(R) 03 system (copyright 2003, Gaussian, Inc.),
 the Gaussian(R) 98 system (copyright 1998, Gaussian, Inc.),
 the Gaussian(R) 94 system (copyright 1995, Gaussian, Inc.),
 the Gaussian 92(TM) system (copyright 1992, Gaussian, Inc.),
 the Gaussian 90(TM) system (copyright 1990, Gaussian, Inc.),
 the Gaussian 88(TM) system (copyright 1988, Gaussian, Inc.),
 the Gaussian 86(TM) system (copyright 1986, Carnegie Mellon
 University), and the Gaussian 82(TM) system (copyright 1983,
 Carnegie Mellon University). Gaussian is a federally registered
 trademark of Gaussian, Inc.
  
 This software contains proprietary and confidential information,
 including trade secrets, belonging to Gaussian, Inc.
  
 This software is provided under written license and may be
 used, copied, transmitted, or stored only in accord with that
 written license.
  
 The following legend is applicable only to US Government
 contracts under FAR:
  
                    RESTRICTED RIGHTS LEGEND
  
 Use, reproduction and disclosure by the US Government is
 subject to restrictions as set forth in subparagraphs (a)
 and (c) of the Commercial Computer Software - Restricted
 Rights clause in FAR 52.227-19.
  
 Gaussian, Inc.
 340 Quinnipiac St., Bldg. 40, Wallingford CT 06492
  
  
 ---------------------------------------------------------------
 Warning -- This program may not be used in any manner that
 competes with the business of Gaussian, Inc. or will provide
 assistance to any competitor of Gaussian, Inc.  The licensee
 of this program is prohibited from giving any competitor of
 Gaussian, Inc. access to this program.  By using this program,
 the user acknowledges that Gaussian, Inc. is engaged in the
 business of creating and licensing software in the field of
 computational chemistry and represents and warrants to the
 licensee that it is not a competitor of Gaussian, Inc. and that
 it will not use this program in any manner prohibited above.
 ---------------------------------------------------------------
  

 Cite this work as:
 Gaussian 16, Revision C.01,
 M. J. Frisch, G. W. Trucks, H. B. Schlegel, G. E. Scuseria, 
 M. A. Robb, J. R. Cheeseman, G. Scalmani, V. Barone, 
 G. A. Petersson, H. Nakatsuji, X. Li, M. Caricato, A. V. Marenich, 
 J. Bloino, B. G. Janesko, R. Gomperts, B. Mennucci, H. P. Hratchian, 
 J. V. Ortiz, A. F. Izmaylov, J. L. Sonnenberg, D. Williams-Young, 
 F. Ding, F. Lipparini, F. Egidi, J. Goings, B. Peng, A. Petrone, 
 T. Henderson, D. Ranasinghe, V. G. Zakrzewski, J. Gao, N. Rega, 
 G. Zheng, W. Liang, M. Hada, M. Ehara, K. Toyota, R. Fukuda, 
 J. Hasegawa, M. Ishida, T. Nakajima, Y. Honda, O. Kitao, H. Nakai, 
 T. Vreven, K. Throssell, J. A. Montgomery, Jr., J. E. Peralta, 
 F. Ogliaro, M. J. Bearpark, J. J. Heyd, E. N. Brothers, K. N. Kudin, 
 V. N. Staroverov, T. A. Keith, R. Kobayashi, J. Normand, 
 K. Raghavachari, A. P. Rendell, J. C. Burant, S. S. Iyengar, 
 J. Tomasi, M. Cossi, J. M. Millam, M. Klene, C. Adamo, R. Cammi, 
 J. W. Ochterski, R. L. Martin, K. Morokuma, O. Farkas, 
 J. B. Foresman, and D. J. Fox, Gaussian, Inc., Wallingford CT, 2019.
 
 ******************************************
 Gaussian 16:  EM64L-G16RevC.01  3-Jul-2019
                 4-Sep-2022 
 ******************************************
 %nproc=16
 Will use up to   16 processors via shared memory.
 %mem=16GB
 ----------------------------------------------------------------------
 # qcisd/aug-cc-pvtz nosymm density=current pop=(chelpg,hirshfeld,npa,d
 ipole)
 ----------------------------------------------------------------------
 1/30=1,38=1,172=1/1;
 2/12=2,15=1,17=6,18=5,40=1/2;
 3/5=16,6=1,7=10,11=9,25=1,30=1,71=1/1,2,3;
 4//1;
 5/5=2,38=5/2;
 8/6=4,9=120000,10=1/1,4;
 9/5=8,15=1/13;
 11/28=-7,31=1,32=3,42=3/11;
 10/5=6,13=10,31=1/2;
 6/7=2,8=2,9=2,10=2,15=24,20=3,22=-1,40=-1,79=1/1,2,7;
 99/5=1,9=1/99;
 ------------------
 br2co-wavefunction
 ------------------
 Symbolic Z-matrix:
 Charge =  0 Multiplicity = 1
 C                     0.        0.       -0.48176 
 Br                    0.       -1.59418  -1.54682 
 Br                    0.        1.59418  -1.54682 
 O                     0.        0.        0.6845 
 
                          Input orientation:                          
 ---------------------------------------------------------------------
 Center     Atomic      Atomic             Coordinates (Angstroms)
 Number     Number       Type             X           Y           Z
 ---------------------------------------------------------------------
      1          6           0        0.000000    0.000000   -0.481759
      2         35           0        0.000000   -1.594181   -1.546820
      3         35           0        0.000000    1.594181   -1.546820
      4          8           0        0.000000    0.000000    0.684500
 ---------------------------------------------------------------------
                    Distance matrix (angstroms):
                    1          2          3          4
     1  C    0.000000
     2  Br   1.917229   0.000000
     3  Br   1.917229   3.188362   0.000000
     4  O    1.166259   2.742299   2.742299   0.000000
 Symmetry turned off by external request.
 Stoichiometry    CBr2O
 Framework group  C2V[C2(CO),SGV(Br2)]
 Deg. of freedom     3
 Full point group                 C2V     NOp   4
 Rotational constants (GHZ):           6.2698230           1.2598941           1.0490849
 Standard basis: Aug-CC-pVTZ (5D, 7F)
   210 basis functions,   578 primitive gaussians,   248 cartesian basis functions
    42 alpha electrons       42 beta electrons
       nuclear repulsion energy       449.0817109926 Hartrees.
 NAtoms=    4 NActive=    4 NUniq=    4 SFac= 1.00D+00 NAtFMM=   60 NAOKFM=F Big=F
 Integral buffers will be    131072 words long.
 Raffenetti 1 integral format.
 Two-electron integral symmetry is turned off.
 One-electron integrals computed using PRISM.
 NBasis=   210 RedAO= T EigKep=  1.06D-04  NBF=   210
 NBsUse=   210 1.00D-06 EigRej= -1.00D+00 NBFU=   210
 ExpMin= 3.51D-02 ExpMax= 1.06D+07 ExpMxC= 1.21D+04 IAcc=3 IRadAn=         5 AccDes= 0.00D+00
 Harris functional with IExCor=  205 and IRadAn=       5 diagonalized for initial guess.
 HarFok:  IExCor=  205 AccDes= 0.00D+00 IRadAn=         5 IDoV= 1 UseB2=F ITyADJ=14
 ICtDFT=  3500011 ScaDFX=  1.000000  1.000000  1.000000  1.000000
 FoFCou: FMM=F IPFlag=           0 FMFlag=      100000 FMFlg1=           0
         NFxFlg=           0 DoJE=T BraDBF=F KetDBF=T FulRan=T
         wScrn=  0.000000 ICntrl=       500 IOpCl=  0 I1Cent=   200000004 NGrid=           0
         NMat0=    1 NMatS0=      1 NMatT0=    0 NMatD0=    1 NMtDS0=    0 NMtDT0=    0
 Symmetry not used in FoFCou.
 Keep R1 ints in memory in canonical form, NReq=258584710.
 Requested convergence on RMS density matrix=1.00D-08 within 128 cycles.
 Requested convergence on MAX density matrix=1.00D-06.
 Requested convergence on             energy=1.00D-06.
 No special actions if energy rises.
 SCF Done:  E(RHF) =  -5257.68528644     A.U. after   12 cycles
            NFock= 12  Conv=0.87D-08     -V/T= 2.0000
 ExpMin= 3.51D-02 ExpMax= 1.06D+07 ExpMxC= 1.21D+04 IAcc=3 IRadAn=         5 AccDes= 0.00D+00
 HarFok:  IExCor=  205 AccDes= 0.00D+00 IRadAn=         5 IDoV=-2 UseB2=F ITyADJ=14
 ICtDFT= 12500011 ScaDFX=  1.000000  1.000000  1.000000  1.000000
 Range of M.O.s used for correlation:    21   210
 NBasis=   210 NAE=    42 NBE=    42 NFC=    20 NFV=     0
 NROrb=    190 NOA=    22 NOB=    22 NVA=   168 NVB=   168

 **** Warning!!: The largest alpha MO coefficient is  0.27896871D+02

 Semi-Direct transformation.
 ModeAB=           2 MOrb=            22 LenV=    2146226309
 LASXX=     69628944 LTotXX=    69628944 LenRXX=    69628944
 LTotAB=    70719517 MaxLAS=   129061680 LenRXY=   129061680
 NonZer=   139257888 LenScr=   209707008 LnRSAI=           0
 LnScr1=           0 LExtra=           0 Total=    408397632
 MaxDsk=          -1 SrtSym=           F ITran=            4
 JobTyp=0 Pass  1:  I=   1 to  22.
 (rs|ai) integrals will be sorted in core.
 Spin components of T(2) and E(2):
     alpha-alpha T2 =       0.3819847710D-01 E2=     -0.1231050591D+00
     alpha-beta  T2 =       0.1919407538D+00 E2=     -0.6167117164D+00
     beta-beta   T2 =       0.3819847710D-01 E2=     -0.1231050591D+00
 ANorm=    0.1126205003D+01
 E2 =    -0.8629218346D+00 EUMP2 =    -0.52585482082724D+04
 Keep R2 and R3 ints in memory in canonical form, NReq=504031704.
 CIDS: In Core Option IDoMem=           1.
 Iterations=  50 Convergence= 0.100D-07
 Produce multiple copies of IABC intergrals
 Iteration Nr.   1
 **********************
 DD1Dir will call FoFMem   1 times, MxPair=       506
 NAB=   253 NAA=     0 NBB=     0.
 MP4(R+Q)=  0.21424198D-01
 E3=       -0.36908941D-03        EUMP3=      -0.52585485774D+04
 E4(DQ)=    0.42279680D-03        UMP4(DQ)=   -0.52585481546D+04
 E4(SDQ)=  -0.11373986D-01        UMP4(SDQ)=  -0.52585599513D+04
 DE(Corr)= -0.84186673     E(Corr)=     -5258.5271532    
 NORM(A)=   0.11246327D+01
 Iteration Nr.   2
 **********************
 DD1Dir will call FoFMem   1 times, MxPair=       506
 NAB=   253 NAA=     0 NBB=     0.
 DE(Corr)= -0.87139846     E(CORR)=     -5258.5566849     Delta=-2.95D-02
 NORM(A)=   0.11349420D+01
 Iteration Nr.   3
 **********************
 DD1Dir will call FoFMem   1 times, MxPair=       506
 NAB=   253 NAA=     0 NBB=     0.
 DE(Corr)= -0.86939780     E(CORR)=     -5258.5546842     Delta= 2.00D-03
 NORM(A)=   0.11376362D+01
 Iteration Nr.   4
 **********************
 DD1Dir will call FoFMem   1 times, MxPair=       506
 NAB=   253 NAA=     0 NBB=     0.
 DE(Corr)= -0.87187470     E(CORR)=     -5258.5571611     Delta=-2.48D-03
 NORM(A)=   0.11389081D+01
 Iteration Nr.   5
 **********************
 DD1Dir will call FoFMem   1 times, MxPair=       506
 NAB=   253 NAA=     0 NBB=     0.
 DE(Corr)= -0.87223560     E(CORR)=     -5258.5575220     Delta=-3.61D-04
 NORM(A)=   0.11394060D+01
 Iteration Nr.   6
 **********************
 DD1Dir will call FoFMem   1 times, MxPair=       506
 NAB=   253 NAA=     0 NBB=     0.
 DE(Corr)= -0.87229778     E(CORR)=     -5258.5575842     Delta=-6.22D-05
 NORM(A)=   0.11395049D+01
 Iteration Nr.   7
 **********************
 DD1Dir will call FoFMem   1 times, MxPair=       506
 NAB=   253 NAA=     0 NBB=     0.
 DE(Corr)= -0.87231152     E(CORR)=     -5258.5575980     Delta=-1.37D-05
 NORM(A)=   0.11395145D+01
 Iteration Nr.   8
 **********************
 DD1Dir will call FoFMem   1 times, MxPair=       506
 NAB=   253 NAA=     0 NBB=     0.
 DE(Corr)= -0.87231135     E(CORR)=     -5258.5575978     Delta= 1.74D-07
 NORM(A)=   0.11395290D+01
 Iteration Nr.   9
 **********************
 DD1Dir will call FoFMem   1 times, MxPair=       506
 NAB=   253 NAA=     0 NBB=     0.
 DE(Corr)= -0.87230987     E(CORR)=     -5258.5575963     Delta= 1.48D-06
 NORM(A)=   0.11395292D+01
 Iteration Nr.  10
 **********************
 DD1Dir will call FoFMem   1 times, MxPair=       506
 NAB=   253 NAA=     0 NBB=     0.
 DE(Corr)= -0.87231107     E(CORR)=     -5258.5575975     Delta=-1.20D-06
 NORM(A)=   0.11395318D+01
 Iteration Nr.  11
 **********************
 DD1Dir will call FoFMem   1 times, MxPair=       506
 NAB=   253 NAA=     0 NBB=     0.
 DE(Corr)= -0.87231225     E(CORR)=     -5258.5575987     Delta=-1.18D-06
 NORM(A)=   0.11395335D+01
 Iteration Nr.  12
 **********************
 DD1Dir will call FoFMem   1 times, MxPair=       506
 NAB=   253 NAA=     0 NBB=     0.
 DE(Corr)= -0.87231251     E(CORR)=     -5258.5575989     Delta=-2.60D-07
 NORM(A)=   0.11395345D+01
 Iteration Nr.  13
 **********************
 DD1Dir will call FoFMem   1 times, MxPair=       506
 NAB=   253 NAA=     0 NBB=     0.
 DE(Corr)= -0.87231296     E(CORR)=     -5258.5575994     Delta=-4.52D-07
 NORM(A)=   0.11395351D+01
 Iteration Nr.  14
 **********************
 DD1Dir will call FoFMem   1 times, MxPair=       506
 NAB=   253 NAA=     0 NBB=     0.
 DE(Corr)= -0.87231306     E(CORR)=     -5258.5575995     Delta=-9.58D-08
 NORM(A)=   0.11395354D+01
 Iteration Nr.  15
 **********************
 DD1Dir will call FoFMem   1 times, MxPair=       506
 NAB=   253 NAA=     0 NBB=     0.
 DE(Corr)= -0.87231312     E(CORR)=     -5258.5575996     Delta=-6.48D-08
 NORM(A)=   0.11395356D+01
 Iteration Nr.  16
 **********************
 DD1Dir will call FoFMem   1 times, MxPair=       506
 NAB=   253 NAA=     0 NBB=     0.
 DE(Corr)= -0.87231315     E(CORR)=     -5258.5575996     Delta=-2.96D-08
 NORM(A)=   0.11395356D+01
 Iteration Nr.  17
 **********************
 DD1Dir will call FoFMem   1 times, MxPair=       506
 NAB=   253 NAA=     0 NBB=     0.
 DE(Corr)= -0.87231315     E(CORR)=     -5258.5575996     Delta= 4.80D-09
 NORM(A)=   0.11395356D+01
 Wavefunction amplitudes converged. E(Corr)=     -5258.5575996    
 Largest amplitude= 3.86D-02

 Z-amplitude iterations

 Iteration Nr.   1
 **********************
 DD1Dir will call FoFMem   1 times, MxPair=       506
 NAB=   253 NAA=     0 NBB=     0.
 DE(Z)= -0.84525982     E(Z)=     -5258.5305463     Delta= 2.71D-02
 NORM(A)=   0.11395251D+01
 Iteration Nr.   2
 **********************
 DD1Dir will call FoFMem   1 times, MxPair=       506
 NAB=   253 NAA=     0 NBB=     0.
 DE(Z)= -0.84525979     E(Z)=     -5258.5305462     Delta= 2.82D-08
 NORM(A)=   0.11395108D+01
 Iteration Nr.   3
 **********************
 DD1Dir will call FoFMem   1 times, MxPair=       506
 NAB=   253 NAA=     0 NBB=     0.
 DE(Z)= -0.84525976     E(Z)=     -5258.5305462     Delta= 2.90D-08
 NORM(A)=   0.11395155D+01
 Iteration Nr.   4
 **********************
 DD1Dir will call FoFMem   1 times, MxPair=       506
 NAB=   253 NAA=     0 NBB=     0.
 DE(Z)= -0.84525977     E(Z)=     -5258.5305462     Delta=-1.40D-08
 NORM(A)=   0.11395740D+01
 Iteration Nr.   5
 **********************
 DD1Dir will call FoFMem   1 times, MxPair=       506
 NAB=   253 NAA=     0 NBB=     0.
 DE(Z)= -0.84526000     E(Z)=     -5258.5305464     Delta=-2.28D-07
 NORM(A)=   0.11297281D+01
 Iteration Nr.   6
 **********************
 DD1Dir will call FoFMem   1 times, MxPair=       506
 NAB=   253 NAA=     0 NBB=     0.
 DE(Z)= -0.84522014     E(Z)=     -5258.5305066     Delta= 3.99D-05
 NORM(A)=   0.11297282D+01
 Iteration Nr.   7
 **********************
 DD1Dir will call FoFMem   1 times, MxPair=       506
 NAB=   253 NAA=     0 NBB=     0.
 DE(Z)= -0.84521698     E(Z)=     -5258.5305034     Delta= 3.16D-06
 NORM(A)=   0.11297280D+01
 Iteration Nr.   8
 **********************
 DD1Dir will call FoFMem   1 times, MxPair=       506
 NAB=   253 NAA=     0 NBB=     0.
 DE(Z)= -0.84521833     E(Z)=     -5258.5305048     Delta=-1.36D-06
 NORM(A)=   0.11297286D+01
 Iteration Nr.   9
 **********************
 DD1Dir will call FoFMem   1 times, MxPair=       506
 NAB=   253 NAA=     0 NBB=     0.
 DE(Z)= -0.84521799     E(Z)=     -5258.5305044     Delta= 3.48D-07
 NORM(A)=   0.11297287D+01
 Iteration Nr.  10
 **********************
 DD1Dir will call FoFMem   1 times, MxPair=       506
 NAB=   253 NAA=     0 NBB=     0.
 DE(Z)= -0.84521800     E(Z)=     -5258.5305044     Delta=-1.17D-08
 NORM(A)=   0.11297288D+01
 Iteration Nr.  11
 **********************
 DD1Dir will call FoFMem   1 times, MxPair=       506
 NAB=   253 NAA=     0 NBB=     0.
 DE(Z)= -0.84521803     E(Z)=     -5258.5305045     Delta=-2.82D-08
 NORM(A)=   0.11297288D+01
 Iteration Nr.  12
 **********************
 DD1Dir will call FoFMem   1 times, MxPair=       506
 NAB=   253 NAA=     0 NBB=     0.
 DE(Z)= -0.84521801     E(Z)=     -5258.5305044     Delta= 1.49D-08
 NORM(A)=   0.11297288D+01
 Iteration Nr.  13
 **********************
 DD1Dir will call FoFMem   1 times, MxPair=       506
 NAB=   253 NAA=     0 NBB=     0.
 DE(Z)= -0.84521802     E(Z)=     -5258.5305045     Delta=-3.97D-09
 NORM(A)=   0.11297288D+01
 Z-amplitudes converged.
 Discarding MO integrals.
          Differentiating once with respect to electric field.
                with respect to dipole field.
          Electric field/nuclear overlap derivatives assumed to be zero.
 Keep R1 ints in memory in canonical form, NReq=258592243.
          There are     1 degrees of freedom in the 1st order CPHF.  IDoFFX=0 NUNeed=     1.
 LinEq1:  Iter=  0 NonCon=     1 RMS=1.94D-03 Max=5.26D-02 NDo=     1
 AX will form     1 AO Fock derivatives at one time.
 LinEq1:  Iter=  1 NonCon=     1 RMS=7.37D-04 Max=2.62D-02 NDo=     1
 LinEq1:  Iter=  2 NonCon=     1 RMS=3.06D-04 Max=9.18D-03 NDo=     1
 LinEq1:  Iter=  3 NonCon=     1 RMS=1.01D-04 Max=2.71D-03 NDo=     1
 LinEq1:  Iter=  4 NonCon=     1 RMS=5.24D-05 Max=1.63D-03 NDo=     1
 LinEq1:  Iter=  5 NonCon=     1 RMS=1.61D-05 Max=4.53D-04 NDo=     1
 LinEq1:  Iter=  6 NonCon=     1 RMS=6.17D-06 Max=1.24D-04 NDo=     1
 LinEq1:  Iter=  7 NonCon=     1 RMS=1.31D-06 Max=2.10D-05 NDo=     1
 LinEq1:  Iter=  8 NonCon=     1 RMS=2.61D-07 Max=4.06D-06 NDo=     1
 LinEq1:  Iter=  9 NonCon=     1 RMS=6.22D-08 Max=1.21D-06 NDo=     1
 LinEq1:  Iter= 10 NonCon=     1 RMS=1.32D-08 Max=1.90D-07 NDo=     1
 LinEq1:  Iter= 11 NonCon=     1 RMS=3.69D-09 Max=9.05D-08 NDo=     1
 LinEq1:  Iter= 12 NonCon=     1 RMS=6.79D-10 Max=1.54D-08 NDo=     1
 LinEq1:  Iter= 13 NonCon=     1 RMS=1.15D-10 Max=2.48D-09 NDo=     1
 LinEq1:  Iter= 14 NonCon=     0 RMS=1.83D-11 Max=4.34D-10 NDo=     1
 Linear equations converged to 1.000D-10 1.000D-09 after    14 iterations.
 End of Minotr F.D. properties file   721 does not exist.
 End of Minotr F.D. properties file   722 does not exist.
 End of Minotr F.D. properties file   788 does not exist.

 **********************************************************************

            Population analysis using the CC Density.

 **********************************************************************

 Alpha  occ. eigenvalues -- -490.06544-490.06544 -65.20538 -65.20538 -58.56070
 Alpha  occ. eigenvalues --  -58.56070 -58.55919 -58.55919 -58.55903 -58.55903
 Alpha  occ. eigenvalues --  -20.63015 -11.46256  -9.87842  -9.87842  -7.49028
 Alpha  occ. eigenvalues --   -7.49028  -7.48308  -7.48308  -7.48239  -7.48238
 Alpha  occ. eigenvalues --   -3.23422  -3.23421  -3.23066  -3.23064  -3.22972
 Alpha  occ. eigenvalues --   -3.22971  -3.22063  -3.22062  -3.22061  -3.22060
 Alpha  occ. eigenvalues --   -1.49252  -1.10628  -1.04633  -0.79478  -0.68671
 Alpha  occ. eigenvalues --   -0.67789  -0.63532  -0.47862  -0.46195  -0.45655
 Alpha  occ. eigenvalues --   -0.45025  -0.43069
 Alpha virt. eigenvalues --    0.03747   0.05662   0.06961   0.07704   0.08166
 Alpha virt. eigenvalues --    0.09382   0.09986   0.10249   0.10955   0.11853
 Alpha virt. eigenvalues --    0.12986   0.13187   0.17494   0.19367   0.21934
 Alpha virt. eigenvalues --    0.22383   0.23207   0.24130   0.25830   0.26560
 Alpha virt. eigenvalues --    0.27523   0.29037   0.31875   0.32956   0.35662
 Alpha virt. eigenvalues --    0.36756   0.37040   0.39707   0.41325   0.43777
 Alpha virt. eigenvalues --    0.44591   0.46436   0.46620   0.49590   0.49731
 Alpha virt. eigenvalues --    0.52599   0.55727   0.56312   0.58635   0.60031
 Alpha virt. eigenvalues --    0.60761   0.63123   0.69662   0.70172   0.71487
 Alpha virt. eigenvalues --    0.72154   0.74585   0.75920   0.77640   0.78505
 Alpha virt. eigenvalues --    0.79349   0.82343   0.83709   0.85009   0.88340
 Alpha virt. eigenvalues --    0.88369   0.89954   0.90005   0.91420   0.93810
 Alpha virt. eigenvalues --    0.94742   0.98095   1.00485   1.01705   1.02782
 Alpha virt. eigenvalues --    1.05463   1.06531   1.11221   1.13101   1.13222
 Alpha virt. eigenvalues --    1.17189   1.17831   1.18518   1.31006   1.34183
 Alpha virt. eigenvalues --    1.36458   1.36463   1.40422   1.43713   1.44795
 Alpha virt. eigenvalues --    1.44807   1.45634   1.51411   1.52076   1.53331
 Alpha virt. eigenvalues --    1.63006   1.63397   1.70726   1.74561   1.79158
 Alpha virt. eigenvalues --    1.95288   2.10754   2.16635   2.17158   2.17659
 Alpha virt. eigenvalues --    2.19323   2.23367   2.24604   2.25346   2.26833
 Alpha virt. eigenvalues --    2.27188   2.27395   2.28574   2.29093   2.29773
 Alpha virt. eigenvalues --    2.30183   2.32411   2.32745   2.32789   2.34101
 Alpha virt. eigenvalues --    2.35824   2.36401   2.37284   2.37784   2.38085
 Alpha virt. eigenvalues --    2.39212   2.39358   2.40566   2.46580   2.48911
 Alpha virt. eigenvalues --    2.53171   2.55743   2.58914   2.60127   2.67110
 Alpha virt. eigenvalues --    2.70781   2.72931   2.76702   2.78707   2.87974
 Alpha virt. eigenvalues --    2.93244   2.96884   3.00314   3.09737   3.49621
 Alpha virt. eigenvalues --    3.57669   3.59618   3.59769   3.61618   3.67395
 Alpha virt. eigenvalues --    3.74060   3.83084   3.86316   3.89421   3.96446
 Alpha virt. eigenvalues --    4.12874   4.14467   4.50142   4.51310   5.00958
 Alpha virt. eigenvalues --    5.14786   5.15078   5.35897   5.48575   6.57379
 Alpha virt. eigenvalues --    6.58570   6.86467   6.88352   7.05883   7.16686
 Alpha virt. eigenvalues --    7.17024   7.23524   7.38646   7.49711   7.67724
 Alpha virt. eigenvalues --    7.68864  13.67974  15.50259
          Condensed to atoms (all electrons):
               1          2          3          4
     1  C    5.531767   0.031927   0.031927   0.247852
     2  Br   0.031927  35.048153  -0.120069  -0.056865
     3  Br   0.031927  -0.120069  35.048153  -0.056865
     4  O    0.247852  -0.056865  -0.056865   8.216112
 Mulliken charges:
               1
     1  C    0.156528
     2  Br   0.096853
     3  Br   0.096853
     4  O   -0.350234
 Sum of Mulliken charges =  -0.00000
 Mulliken charges with hydrogens summed into heavy atoms:
               1
     1  C    0.156528
     2  Br   0.096853
     3  Br   0.096853
     4  O   -0.350234
 Electronic spatial extent (au):  <R**2>=           1355.5435
 Charge=             -0.0000 electrons
 Dipole moment (field-independent basis, Debye):
    X=              0.0000    Y=             -0.0000    Z=             -1.1620  Tot=              1.1620
 Quadrupole moment (field-independent basis, Debye-Ang):
   XX=            -46.9693   YY=            -45.0750   ZZ=            -47.5627
   XY=             -0.0000   XZ=             -0.0000   YZ=              0.0000
 Traceless Quadrupole moment (field-independent basis, Debye-Ang):
   XX=             -0.4337   YY=              1.4606   ZZ=             -1.0270
   XY=             -0.0000   XZ=             -0.0000   YZ=              0.0000
 Octapole moment (field-independent basis, Debye-Ang**2):
  XXX=              0.0000  YYY=             -0.0000  ZZZ=            164.7669  XYY=              0.0000
  XXY=             -0.0000  XXZ=             56.3383  XZZ=              0.0000  YZZ=             -0.0000
  YYZ=             45.8872  XYZ=              0.0000
 Hexadecapole moment (field-independent basis, Debye-Ang**3):
 XXXX=            -53.7553 YYYY=           -572.3687 ZZZZ=           -596.7621 XXXY=              0.0000
 XXXZ=             -0.0000 YYYX=             -0.0000 YYYZ=             -0.0000 ZZZX=             -0.0000
 ZZZY=              0.0000 XXYY=           -111.5036 XXZZ=           -110.4331 YYZZ=           -175.2839
 XXYZ=              0.0000 YYXZ=              0.0000 ZZXY=             -0.0000
 N-N= 4.490817109926D+02 E-N=-1.346997263960D+04  KE= 5.257260609914D+03
 There are a total of      108140 grid points.
 ElSum from          density=       84.0000034202
 ElSum from atomic densities=       84.0000018582

 Hirshfeld populations at iteration   1 (CX, CA, CB, DipXYZ):
               1          2          3          4          5          6
     1  C    0.000001   2.914182   2.914182   0.000000   0.000000  -0.026228
     2  Br   0.000016  17.499952  17.499952  -0.000000  -0.068773  -0.009673
     3  Br   0.000016  17.499952  17.499952  -0.000000   0.068773  -0.009673
     4  O    0.000008   4.085916   4.085916   0.000000   0.000000  -0.032493
       Tot   0.000040  42.000002  42.000002  -0.000000  -0.000000  -0.078067

 Dip from Atomic Chgs              0.000000  -0.000000  -0.379089
         Total Dipole             -0.000000  -0.000000  -0.457156

 Hirshfeld charges, spin densities, dipoles, and CM5 charges using IRadAn=      5:
              Q-H        S-H        Dx         Dy         Dz        Q-CM5   
     1  C    0.171636   0.000000   0.000000   0.000000  -0.026228   0.185555
     2  Br   0.000097   0.000000  -0.000000  -0.068773  -0.009673   0.018359
     3  Br   0.000097   0.000000  -0.000000   0.068773  -0.009673   0.018359
     4  O   -0.171832   0.000000   0.000000   0.000000  -0.032493  -0.222276
       Tot  -0.000003   0.000000  -0.000000  -0.000000  -0.078067  -0.000003
 Hirshfeld charges with hydrogens summed into heavy atoms:
              Q-H       Q-CM5   
     1  C    0.171636   0.185555
     2  Br   0.000097   0.018359
     3  Br   0.000097   0.018359
     4  O   -0.171832  -0.222276
 
 EQQ= 0.000000000000E+00 EQD= 0.000000000000E+00 EDD= 0.736020802968E-04
 EQQ+QD+DD= 0.736020802968E-04
 
 Breneman (CHELPG) radii used.
 GetVDW:  no radius for atom   2 atomic number  35.
 Error termination via Lnk1e in /home/wagner/chemistry/gaussian/g16/l602.exe at Sun Sep  4 22:58:13 2022.
 Job cpu time:       0 days 14 hours  9 minutes 33.6 seconds.
 Elapsed time:       0 days  0 hours 53 minutes 35.1 seconds.
 File lengths (MBytes):  RWF=  29492 Int=      0 D2E=      0 Chk=      2 Scr=      1
