 Entering Gaussian System, Link 0=/home/wagner/chemistry/gaussian/g16/g16
 Input=GAUSSIAN.com
 Output=GAUSSIAN.log
 Initial command:
 /home/wagner/chemistry/gaussian/g16/l1.exe "/home/wagner/chemistry/gaussian/work/Gau-66415.inp" -scrdir="/home/wagner/chemistry/gaussian/work/"
 Entering Link 1 = /home/wagner/chemistry/gaussian/g16/l1.exe PID=     66417.
  
 Copyright (c) 1988-2019, Gaussian, Inc.  All Rights Reserved.
  
 This is part of the Gaussian(R) 16 program.  It is based on
 the Gaussian(R) 09 system (copyright 2009, Gaussian, Inc.),
 the Gaussian(R) 03 system (copyright 2003, Gaussian, Inc.),
 the Gaussian(R) 98 system (copyright 1998, Gaussian, Inc.),
 the Gaussian(R) 94 system (copyright 1995, Gaussian, Inc.),
 the Gaussian 92(TM) system (copyright 1992, Gaussian, Inc.),
 the Gaussian 90(TM) system (copyright 1990, Gaussian, Inc.),
 the Gaussian 88(TM) system (copyright 1988, Gaussian, Inc.),
 the Gaussian 86(TM) system (copyright 1986, Carnegie Mellon
 University), and the Gaussian 82(TM) system (copyright 1983,
 Carnegie Mellon University). Gaussian is a federally registered
 trademark of Gaussian, Inc.
  
 This software contains proprietary and confidential information,
 including trade secrets, belonging to Gaussian, Inc.
  
 This software is provided under written license and may be
 used, copied, transmitted, or stored only in accord with that
 written license.
  
 The following legend is applicable only to US Government
 contracts under FAR:
  
                    RESTRICTED RIGHTS LEGEND
  
 Use, reproduction and disclosure by the US Government is
 subject to restrictions as set forth in subparagraphs (a)
 and (c) of the Commercial Computer Software - Restricted
 Rights clause in FAR 52.227-19.
  
 Gaussian, Inc.
 340 Quinnipiac St., Bldg. 40, Wallingford CT 06492
  
  
 ---------------------------------------------------------------
 Warning -- This program may not be used in any manner that
 competes with the business of Gaussian, Inc. or will provide
 assistance to any competitor of Gaussian, Inc.  The licensee
 of this program is prohibited from giving any competitor of
 Gaussian, Inc. access to this program.  By using this program,
 the user acknowledges that Gaussian, Inc. is engaged in the
 business of creating and licensing software in the field of
 computational chemistry and represents and warrants to the
 licensee that it is not a competitor of Gaussian, Inc. and that
 it will not use this program in any manner prohibited above.
 ---------------------------------------------------------------
  

 Cite this work as:
 Gaussian 16, Revision C.01,
 M. J. Frisch, G. W. Trucks, H. B. Schlegel, G. E. Scuseria, 
 M. A. Robb, J. R. Cheeseman, G. Scalmani, V. Barone, 
 G. A. Petersson, H. Nakatsuji, X. Li, M. Caricato, A. V. Marenich, 
 J. Bloino, B. G. Janesko, R. Gomperts, B. Mennucci, H. P. Hratchian, 
 J. V. Ortiz, A. F. Izmaylov, J. L. Sonnenberg, D. Williams-Young, 
 F. Ding, F. Lipparini, F. Egidi, J. Goings, B. Peng, A. Petrone, 
 T. Henderson, D. Ranasinghe, V. G. Zakrzewski, J. Gao, N. Rega, 
 G. Zheng, W. Liang, M. Hada, M. Ehara, K. Toyota, R. Fukuda, 
 J. Hasegawa, M. Ishida, T. Nakajima, Y. Honda, O. Kitao, H. Nakai, 
 T. Vreven, K. Throssell, J. A. Montgomery, Jr., J. E. Peralta, 
 F. Ogliaro, M. J. Bearpark, J. J. Heyd, E. N. Brothers, K. N. Kudin, 
 V. N. Staroverov, T. A. Keith, R. Kobayashi, J. Normand, 
 K. Raghavachari, A. P. Rendell, J. C. Burant, S. S. Iyengar, 
 J. Tomasi, M. Cossi, J. M. Millam, M. Klene, C. Adamo, R. Cammi, 
 J. W. Ochterski, R. L. Martin, K. Morokuma, O. Farkas, 
 J. B. Foresman, and D. J. Fox, Gaussian, Inc., Wallingford CT, 2019.
 
 ******************************************
 Gaussian 16:  EM64L-G16RevC.01  3-Jul-2019
                 5-Sep-2022 
 ******************************************
 %nproc=16
 Will use up to   16 processors via shared memory.
 %mem=16GB
 ----------------------------------------------------------------------
 # qcisd/aug-cc-pvtz nosymm density=current pop=(chelpg,hirshfeld,npa,d
 ipole)
 ----------------------------------------------------------------------
 1/30=1,38=1,172=1/1;
 2/12=2,15=1,17=6,18=5,40=1/2;
 3/5=16,6=1,7=10,11=9,25=1,30=1,71=1/1,2,3;
 4//1;
 5/5=2,38=5/2;
 8/6=4,9=120000,10=1/1,4;
 9/5=8,15=1/13;
 11/28=-7,31=1,32=3,42=3/11;
 10/5=6,13=10,31=1/2;
 6/7=2,8=2,9=2,10=2,15=24,20=3,22=-1,40=-1,79=1/1,2,7;
 99/5=1,9=1/99;
 ------------------
 br2co-wavefunction
 ------------------
 Symbolic Z-matrix:
 Charge =  0 Multiplicity = 1
 C                     0.        0.       -0.49176 
 Br                    0.       -1.59418  -1.55682 
 Br                    0.        1.59418  -1.54682 
 O                     0.        0.        0.6845 
 
                          Input orientation:                          
 ---------------------------------------------------------------------
 Center     Atomic      Atomic             Coordinates (Angstroms)
 Number     Number       Type             X           Y           Z
 ---------------------------------------------------------------------
      1          6           0        0.000000    0.000000   -0.491759
      2         35           0        0.000000   -1.594181   -1.556820
      3         35           0        0.000000    1.594181   -1.546820
      4          8           0        0.000000    0.000000    0.684500
 ---------------------------------------------------------------------
                    Distance matrix (angstroms):
                    1          2          3          4
     1  C    0.000000
     2  Br   1.917229   0.000000
     3  Br   1.911692   3.188378   0.000000
     4  O    1.176259   2.750441   2.742299   0.000000
 Symmetry turned off by external request.
 Stoichiometry    CBr2O
 Framework group  CS[SG(CBr2O)]
 Deg. of freedom     5
 Full point group                 CS      NOp   2
 Rotational constants (GHZ):           6.2528829           1.2598785           1.0485988
 Standard basis: Aug-CC-pVTZ (5D, 7F)
   210 basis functions,   578 primitive gaussians,   248 cartesian basis functions
    42 alpha electrons       42 beta electrons
       nuclear repulsion energy       448.9034755109 Hartrees.
 NAtoms=    4 NActive=    4 NUniq=    4 SFac= 1.00D+00 NAtFMM=   60 NAOKFM=F Big=F
 Integral buffers will be    131072 words long.
 Raffenetti 1 integral format.
 Two-electron integral symmetry is turned off.
 One-electron integrals computed using PRISM.
 NBasis=   210 RedAO= T EigKep=  1.05D-04  NBF=   210
 NBsUse=   210 1.00D-06 EigRej= -1.00D+00 NBFU=   210
 ExpMin= 3.51D-02 ExpMax= 1.06D+07 ExpMxC= 1.21D+04 IAcc=3 IRadAn=         5 AccDes= 0.00D+00
 Harris functional with IExCor=  205 and IRadAn=       5 diagonalized for initial guess.
 HarFok:  IExCor=  205 AccDes= 0.00D+00 IRadAn=         5 IDoV= 1 UseB2=F ITyADJ=14
 ICtDFT=  3500011 ScaDFX=  1.000000  1.000000  1.000000  1.000000
 FoFCou: FMM=F IPFlag=           0 FMFlag=      100000 FMFlg1=           0
         NFxFlg=           0 DoJE=T BraDBF=F KetDBF=T FulRan=T
         wScrn=  0.000000 ICntrl=       500 IOpCl=  0 I1Cent=   200000004 NGrid=           0
         NMat0=    1 NMatS0=      1 NMatT0=    0 NMatD0=    1 NMtDS0=    0 NMtDT0=    0
 Symmetry not used in FoFCou.
 Keep R1 ints in memory in canonical form, NReq=258584739.
 Requested convergence on RMS density matrix=1.00D-08 within 128 cycles.
 Requested convergence on MAX density matrix=1.00D-06.
 Requested convergence on             energy=1.00D-06.
 No special actions if energy rises.
 SCF Done:  E(RHF) =  -5257.68447364     A.U. after   12 cycles
            NFock= 12  Conv=0.90D-08     -V/T= 2.0000
 ExpMin= 3.51D-02 ExpMax= 1.06D+07 ExpMxC= 1.21D+04 IAcc=3 IRadAn=         5 AccDes= 0.00D+00
 HarFok:  IExCor=  205 AccDes= 0.00D+00 IRadAn=         5 IDoV=-2 UseB2=F ITyADJ=14
 ICtDFT= 12500011 ScaDFX=  1.000000  1.000000  1.000000  1.000000
 Range of M.O.s used for correlation:    21   210
 NBasis=   210 NAE=    42 NBE=    42 NFC=    20 NFV=     0
 NROrb=    190 NOA=    22 NOB=    22 NVA=   168 NVB=   168

 **** Warning!!: The largest alpha MO coefficient is  0.28025248D+02

 Semi-Direct transformation.
 ModeAB=           2 MOrb=            22 LenV=    2146226351
 LASXX=     69628944 LTotXX=    69628944 LenRXX=    69628944
 LTotAB=    70719517 MaxLAS=   129061680 LenRXY=   129061680
 NonZer=   139257888 LenScr=   209707008 LnRSAI=           0
 LnScr1=           0 LExtra=           0 Total=    408397632
 MaxDsk=          -1 SrtSym=           F ITran=            4
 JobTyp=0 Pass  1:  I=   1 to  22.
 (rs|ai) integrals will be sorted in core.
 Spin components of T(2) and E(2):
     alpha-alpha T2 =       0.3834434909D-01 E2=     -0.1232737728D+00
     alpha-beta  T2 =       0.1926515585D+00 E2=     -0.6175791244D+00
     beta-beta   T2 =       0.3834434909D-01 E2=     -0.1232737728D+00
 ANorm=    0.1126650015D+01
 E2 =    -0.8641266699D+00 EUMP2 =    -0.52585486003125D+04
 Keep R2 and R3 ints in memory in canonical form, NReq=504031733.
 CIDS: In Core Option IDoMem=           1.
 Iterations=  50 Convergence= 0.100D-07
 Produce multiple copies of IABC intergrals
 Iteration Nr.   1
 **********************
 DD1Dir will call FoFMem   1 times, MxPair=       506
 NAB=   253 NAA=     0 NBB=     0.
 MP4(R+Q)=  0.21502123D-01
 E3=        0.16047848D-03        EUMP3=      -0.52585484398D+04
 E4(DQ)=    0.26457692D-03        UMP4(DQ)=   -0.52585481753D+04
 E4(SDQ)=  -0.11724206D-01        UMP4(SDQ)=  -0.52585601640D+04
 DE(Corr)= -0.84246407     E(Corr)=     -5258.5269377    
 NORM(A)=   0.11249349D+01
 Iteration Nr.   2
 **********************
 DD1Dir will call FoFMem   1 times, MxPair=       506
 NAB=   253 NAA=     0 NBB=     0.
 DE(Corr)= -0.87240461     E(CORR)=     -5258.5568783     Delta=-2.99D-02
 NORM(A)=   0.11353536D+01
 Iteration Nr.   3
 **********************
 DD1Dir will call FoFMem   1 times, MxPair=       506
 NAB=   253 NAA=     0 NBB=     0.
 DE(Corr)= -0.87028912     E(CORR)=     -5258.5547628     Delta= 2.12D-03
 NORM(A)=   0.11381252D+01
 Iteration Nr.   4
 **********************
 DD1Dir will call FoFMem   1 times, MxPair=       506
 NAB=   253 NAA=     0 NBB=     0.
 DE(Corr)= -0.87282693     E(CORR)=     -5258.5573006     Delta=-2.54D-03
 NORM(A)=   0.11394424D+01
 Iteration Nr.   5
 **********************
 DD1Dir will call FoFMem   1 times, MxPair=       506
 NAB=   253 NAA=     0 NBB=     0.
 DE(Corr)= -0.87320258     E(CORR)=     -5258.5576762     Delta=-3.76D-04
 NORM(A)=   0.11399592D+01
 Iteration Nr.   6
 **********************
 DD1Dir will call FoFMem   1 times, MxPair=       506
 NAB=   253 NAA=     0 NBB=     0.
 DE(Corr)= -0.87326705     E(CORR)=     -5258.5577407     Delta=-6.45D-05
 NORM(A)=   0.11400637D+01
 Iteration Nr.   7
 **********************
 DD1Dir will call FoFMem   1 times, MxPair=       506
 NAB=   253 NAA=     0 NBB=     0.
 DE(Corr)= -0.87328142     E(CORR)=     -5258.5577551     Delta=-1.44D-05
 NORM(A)=   0.11400727D+01
 Iteration Nr.   8
 **********************
 DD1Dir will call FoFMem   1 times, MxPair=       506
 NAB=   253 NAA=     0 NBB=     0.
 DE(Corr)= -0.87328176     E(CORR)=     -5258.5577554     Delta=-3.40D-07
 NORM(A)=   0.11400878D+01
 Iteration Nr.   9
 **********************
 DD1Dir will call FoFMem   1 times, MxPair=       506
 NAB=   253 NAA=     0 NBB=     0.
 DE(Corr)= -0.87327983     E(CORR)=     -5258.5577535     Delta= 1.93D-06
 NORM(A)=   0.11400878D+01
 Iteration Nr.  10
 **********************
 DD1Dir will call FoFMem   1 times, MxPair=       506
 NAB=   253 NAA=     0 NBB=     0.
 DE(Corr)= -0.87328124     E(CORR)=     -5258.5577549     Delta=-1.41D-06
 NORM(A)=   0.11400905D+01
 Iteration Nr.  11
 **********************
 DD1Dir will call FoFMem   1 times, MxPair=       506
 NAB=   253 NAA=     0 NBB=     0.
 DE(Corr)= -0.87328238     E(CORR)=     -5258.5577560     Delta=-1.14D-06
 NORM(A)=   0.11400924D+01
 Iteration Nr.  12
 **********************
 DD1Dir will call FoFMem   1 times, MxPair=       506
 NAB=   253 NAA=     0 NBB=     0.
 DE(Corr)= -0.87328269     E(CORR)=     -5258.5577563     Delta=-3.15D-07
 NORM(A)=   0.11400934D+01
 Iteration Nr.  13
 **********************
 DD1Dir will call FoFMem   1 times, MxPair=       506
 NAB=   253 NAA=     0 NBB=     0.
 DE(Corr)= -0.87328316     E(CORR)=     -5258.5577568     Delta=-4.71D-07
 NORM(A)=   0.11400941D+01
 Iteration Nr.  14
 **********************
 DD1Dir will call FoFMem   1 times, MxPair=       506
 NAB=   253 NAA=     0 NBB=     0.
 DE(Corr)= -0.87328327     E(CORR)=     -5258.5577569     Delta=-1.09D-07
 NORM(A)=   0.11400944D+01
 Iteration Nr.  15
 **********************
 DD1Dir will call FoFMem   1 times, MxPair=       506
 NAB=   253 NAA=     0 NBB=     0.
 DE(Corr)= -0.87328334     E(CORR)=     -5258.5577570     Delta=-7.03D-08
 NORM(A)=   0.11400946D+01
 Iteration Nr.  16
 **********************
 DD1Dir will call FoFMem   1 times, MxPair=       506
 NAB=   253 NAA=     0 NBB=     0.
 DE(Corr)= -0.87328337     E(CORR)=     -5258.5577570     Delta=-3.01D-08
 NORM(A)=   0.11400946D+01
 Iteration Nr.  17
 **********************
 DD1Dir will call FoFMem   1 times, MxPair=       506
 NAB=   253 NAA=     0 NBB=     0.
 DE(Corr)= -0.87328337     E(CORR)=     -5258.5577570     Delta= 3.81D-09
 NORM(A)=   0.11400947D+01
 Wavefunction amplitudes converged. E(Corr)=     -5258.5577570    
 Largest amplitude= 4.27D-02

 Z-amplitude iterations

 Iteration Nr.   1
 **********************
 DD1Dir will call FoFMem   1 times, MxPair=       506
 NAB=   253 NAA=     0 NBB=     0.
 DE(Z)= -0.84607286     E(Z)=     -5258.5305465     Delta= 2.72D-02
 NORM(A)=   0.11400594D+01
 Iteration Nr.   2
 **********************
 DD1Dir will call FoFMem   1 times, MxPair=       506
 NAB=   253 NAA=     0 NBB=     0.
 DE(Z)= -0.84607281     E(Z)=     -5258.5305465     Delta= 5.13D-08
 NORM(A)=   0.11402860D+01
 Iteration Nr.   3
 **********************
 DD1Dir will call FoFMem   1 times, MxPair=       506
 NAB=   253 NAA=     0 NBB=     0.
 DE(Z)= -0.84607308     E(Z)=     -5258.5305467     Delta=-2.73D-07
 NORM(A)=   0.11400410D+01
 Iteration Nr.   4
 **********************
 DD1Dir will call FoFMem   1 times, MxPair=       506
 NAB=   253 NAA=     0 NBB=     0.
 DE(Z)= -0.84607281     E(Z)=     -5258.5305465     Delta= 2.70D-07
 NORM(A)=   0.11393412D+01
 Iteration Nr.   5
 **********************
 DD1Dir will call FoFMem   1 times, MxPair=       506
 NAB=   253 NAA=     0 NBB=     0.
 DE(Z)= -0.84607003     E(Z)=     -5258.5305437     Delta= 2.79D-06
 NORM(A)=   0.11302184D+01
 Iteration Nr.   6
 **********************
 DD1Dir will call FoFMem   1 times, MxPair=       506
 NAB=   253 NAA=     0 NBB=     0.
 DE(Z)= -0.84604470     E(Z)=     -5258.5305183     Delta= 2.53D-05
 NORM(A)=   0.11302193D+01
 Iteration Nr.   7
 **********************
 DD1Dir will call FoFMem   1 times, MxPair=       506
 NAB=   253 NAA=     0 NBB=     0.
 DE(Z)= -0.84604103     E(Z)=     -5258.5305147     Delta= 3.67D-06
 NORM(A)=   0.11302193D+01
 Iteration Nr.   8
 **********************
 DD1Dir will call FoFMem   1 times, MxPair=       506
 NAB=   253 NAA=     0 NBB=     0.
 DE(Z)= -0.84604261     E(Z)=     -5258.5305163     Delta=-1.58D-06
 NORM(A)=   0.11302196D+01
 Iteration Nr.   9
 **********************
 DD1Dir will call FoFMem   1 times, MxPair=       506
 NAB=   253 NAA=     0 NBB=     0.
 DE(Z)= -0.84604262     E(Z)=     -5258.5305163     Delta=-1.43D-08
 NORM(A)=   0.11302198D+01
 Iteration Nr.  10
 **********************
 DD1Dir will call FoFMem   1 times, MxPair=       506
 NAB=   253 NAA=     0 NBB=     0.
 DE(Z)= -0.84604256     E(Z)=     -5258.5305162     Delta= 6.58D-08
 NORM(A)=   0.11302199D+01
 Iteration Nr.  11
 **********************
 DD1Dir will call FoFMem   1 times, MxPair=       506
 NAB=   253 NAA=     0 NBB=     0.
 DE(Z)= -0.84604262     E(Z)=     -5258.5305163     Delta=-5.91D-08
 NORM(A)=   0.11302200D+01
 Iteration Nr.  12
 **********************
 DD1Dir will call FoFMem   1 times, MxPair=       506
 NAB=   253 NAA=     0 NBB=     0.
 DE(Z)= -0.84604261     E(Z)=     -5258.5305163     Delta= 5.99D-09
 NORM(A)=   0.11302200D+01
 Z-amplitudes converged.
 Discarding MO integrals.
          Differentiating once with respect to electric field.
                with respect to dipole field.
          Electric field/nuclear overlap derivatives assumed to be zero.
 Keep R1 ints in memory in canonical form, NReq=258592127.
          There are     1 degrees of freedom in the 1st order CPHF.  IDoFFX=0 NUNeed=     1.
 LinEq1:  Iter=  0 NonCon=     1 RMS=1.95D-03 Max=5.63D-02 NDo=     1
 AX will form     1 AO Fock derivatives at one time.
 LinEq1:  Iter=  1 NonCon=     1 RMS=7.41D-04 Max=2.60D-02 NDo=     1
 LinEq1:  Iter=  2 NonCon=     1 RMS=3.10D-04 Max=9.40D-03 NDo=     1
 LinEq1:  Iter=  3 NonCon=     1 RMS=1.03D-04 Max=2.99D-03 NDo=     1
 LinEq1:  Iter=  4 NonCon=     1 RMS=5.35D-05 Max=1.65D-03 NDo=     1
 LinEq1:  Iter=  5 NonCon=     1 RMS=1.65D-05 Max=4.70D-04 NDo=     1
 LinEq1:  Iter=  6 NonCon=     1 RMS=6.31D-06 Max=1.31D-04 NDo=     1
 LinEq1:  Iter=  7 NonCon=     1 RMS=1.35D-06 Max=2.13D-05 NDo=     1
 LinEq1:  Iter=  8 NonCon=     1 RMS=2.70D-07 Max=4.30D-06 NDo=     1
 LinEq1:  Iter=  9 NonCon=     1 RMS=6.51D-08 Max=1.22D-06 NDo=     1
 LinEq1:  Iter= 10 NonCon=     1 RMS=1.39D-08 Max=2.08D-07 NDo=     1
 LinEq1:  Iter= 11 NonCon=     1 RMS=3.90D-09 Max=9.66D-08 NDo=     1
 LinEq1:  Iter= 12 NonCon=     1 RMS=7.22D-10 Max=1.61D-08 NDo=     1
 LinEq1:  Iter= 13 NonCon=     1 RMS=1.26D-10 Max=2.63D-09 NDo=     1
 LinEq1:  Iter= 14 NonCon=     0 RMS=3.14D-11 Max=6.03D-10 NDo=     1
 Linear equations converged to 1.000D-10 1.000D-09 after    14 iterations.
 End of Minotr F.D. properties file   721 does not exist.
 End of Minotr F.D. properties file   722 does not exist.
 End of Minotr F.D. properties file   788 does not exist.

 **********************************************************************

            Population analysis using the CC Density.

 **********************************************************************

 Alpha  occ. eigenvalues -- -490.06650-490.06624 -65.20645 -65.20616 -58.56177
 Alpha  occ. eigenvalues --  -58.56148 -58.56027 -58.56010 -58.55997 -58.55980
 Alpha  occ. eigenvalues --  -20.62895 -11.46374  -9.87952  -9.87918  -7.49140
 Alpha  occ. eigenvalues --   -7.49104  -7.48418  -7.48383  -7.48347  -7.48313
 Alpha  occ. eigenvalues --   -3.23535  -3.23499  -3.23177  -3.23142  -3.23081
 Alpha  occ. eigenvalues --   -3.23047  -3.22171  -3.22169  -3.22136  -3.22134
 Alpha  occ. eigenvalues --   -1.48427  -1.10761  -1.04726  -0.79403  -0.68327
 Alpha  occ. eigenvalues --   -0.67613  -0.63064  -0.47902  -0.46178  -0.45771
 Alpha  occ. eigenvalues --   -0.45091  -0.43142
 Alpha virt. eigenvalues --    0.03753   0.05641   0.06990   0.07545   0.08180
 Alpha virt. eigenvalues --    0.09316   0.09990   0.10246   0.10942   0.11861
 Alpha virt. eigenvalues --    0.13000   0.13183   0.17481   0.19361   0.21848
 Alpha virt. eigenvalues --    0.22378   0.23224   0.24162   0.25831   0.26626
 Alpha virt. eigenvalues --    0.27516   0.28970   0.31896   0.32933   0.35617
 Alpha virt. eigenvalues --    0.36750   0.36996   0.39702   0.41330   0.43748
 Alpha virt. eigenvalues --    0.44646   0.46410   0.46592   0.49572   0.49676
 Alpha virt. eigenvalues --    0.52570   0.55712   0.56291   0.58697   0.60085
 Alpha virt. eigenvalues --    0.60838   0.63139   0.69472   0.70129   0.71482
 Alpha virt. eigenvalues --    0.71920   0.74551   0.75902   0.77573   0.78523
 Alpha virt. eigenvalues --    0.79360   0.82315   0.83585   0.85011   0.88330
 Alpha virt. eigenvalues --    0.88382   0.89887   0.90086   0.91403   0.93773
 Alpha virt. eigenvalues --    0.94733   0.98067   1.00452   1.01551   1.02817
 Alpha virt. eigenvalues --    1.05439   1.06580   1.11233   1.13060   1.13199
 Alpha virt. eigenvalues --    1.17161   1.17753   1.18693   1.30527   1.34295
 Alpha virt. eigenvalues --    1.36382   1.36445   1.40508   1.43820   1.44794
 Alpha virt. eigenvalues --    1.44867   1.45520   1.51444   1.52275   1.53107
 Alpha virt. eigenvalues --    1.62888   1.63437   1.70476   1.74538   1.79762
 Alpha virt. eigenvalues --    1.95102   2.10681   2.16524   2.17074   2.17641
 Alpha virt. eigenvalues --    2.19123   2.23325   2.24527   2.25283   2.26713
 Alpha virt. eigenvalues --    2.27135   2.27405   2.28654   2.29006   2.29664
 Alpha virt. eigenvalues --    2.30127   2.32509   2.32669   2.32676   2.34043
 Alpha virt. eigenvalues --    2.35676   2.36322   2.37214   2.37744   2.38017
 Alpha virt. eigenvalues --    2.39270   2.39319   2.40475   2.46574   2.48715
 Alpha virt. eigenvalues --    2.53162   2.55684   2.58591   2.59533   2.66978
 Alpha virt. eigenvalues --    2.70400   2.72668   2.76289   2.78496   2.88084
 Alpha virt. eigenvalues --    2.93234   2.97631   3.01150   3.09691   3.48821
 Alpha virt. eigenvalues --    3.57926   3.59203   3.59667   3.61709   3.67445
 Alpha virt. eigenvalues --    3.73419   3.83366   3.86293   3.89745   3.96014
 Alpha virt. eigenvalues --    4.12092   4.13680   4.48825   4.49835   5.00847
 Alpha virt. eigenvalues --    5.12585   5.14422   5.33679   5.47676   6.57409
 Alpha virt. eigenvalues --    6.58601   6.86201   6.88031   7.04477   7.16191
 Alpha virt. eigenvalues --    7.16907   7.22015   7.37162   7.49911   7.67673
 Alpha virt. eigenvalues --    7.68126  13.54744  15.28599
          Condensed to atoms (all electrons):
               1          2          3          4
     1  C    5.551054   0.029541   0.026417   0.240314
     2  Br   0.029541  35.045409  -0.118717  -0.055141
     3  Br   0.026417  -0.118717  35.043569  -0.055820
     4  O    0.240314  -0.055141  -0.055820   8.226780
 Mulliken charges:
               1
     1  C    0.152674
     2  Br   0.098909
     3  Br   0.104551
     4  O   -0.356133
 Sum of Mulliken charges =  -0.00000
 Mulliken charges with hydrogens summed into heavy atoms:
               1
     1  C    0.152674
     2  Br   0.098909
     3  Br   0.104551
     4  O   -0.356133
 Electronic spatial extent (au):  <R**2>=           1359.5182
 Charge=             -0.0000 electrons
 Dipole moment (field-independent basis, Debye):
    X=             -0.0000    Y=              0.0169    Z=             -1.2323  Tot=              1.2325
 Quadrupole moment (field-independent basis, Debye-Ang):
   XX=            -46.9735   YY=            -44.9685   ZZ=            -47.5130
   XY=             -0.0000   XZ=              0.0000   YZ=             -0.0139
 Traceless Quadrupole moment (field-independent basis, Debye-Ang):
   XX=             -0.4885   YY=              1.5165   ZZ=             -1.0280
   XY=             -0.0000   XZ=              0.0000   YZ=             -0.0139
 Octapole moment (field-independent basis, Debye-Ang**2):
  XXX=             -0.0000  YYY=              0.1358  ZZZ=            165.3131  XYY=             -0.0000
  XXY=              0.0227  XXZ=             56.5122  XZZ=             -0.0000  YZZ=             -0.0095
  YYZ=             45.9056  XYZ=              0.0000
 Hexadecapole moment (field-independent basis, Debye-Ang**3):
 XXXX=            -53.7270 YYYY=           -571.3370 ZZZZ=           -600.2408 XXXY=              0.0000
 XXXZ=              0.0000 YYYX=             -0.0000 YYYZ=             -0.9723 ZZZX=              0.0000
 ZZZY=             -0.7341 XXYY=           -111.3969 XXZZ=           -111.0039 YYZZ=           -175.5129
 XXYZ=             -0.3229 YYXZ=              0.0000 ZZXY=             -0.0000
 N-N= 4.489034755109D+02 E-N=-1.346955967203D+04  KE= 5.257221628135D+03
 There are a total of      108140 grid points.
 ElSum from          density=       84.0000033345
 ElSum from atomic densities=       84.0000018161

 Hirshfeld populations at iteration   1 (CX, CA, CB, DipXYZ):
               1          2          3          4          5          6
     1  C    0.000001   2.915119   2.915119   0.000000  -0.000606  -0.027929
     2  Br   0.000016  17.499054  17.499054  -0.000000  -0.071058  -0.009968
     3  Br   0.000015  17.497942  17.497942   0.000000   0.071303  -0.008753
     4  O    0.000008   4.087887   4.087887   0.000000   0.000328  -0.035452
       Tot   0.000039  42.000002  42.000002  -0.000000  -0.000034  -0.082102

 Dip from Atomic Chgs              0.000000   0.006700  -0.402726
         Total Dipole             -0.000000   0.006667  -0.484828

 Hirshfeld charges, spin densities, dipoles, and CM5 charges using IRadAn=      5:
              Q-H        S-H        Dx         Dy         Dz        Q-CM5   
     1  C    0.169762   0.000000   0.000000  -0.000606  -0.027929   0.182501
     2  Br   0.001892   0.000000  -0.000000  -0.071058  -0.009968   0.020058
     3  Br   0.004117   0.000000   0.000000   0.071303  -0.008753   0.022564
     4  O   -0.175774   0.000000   0.000000   0.000328  -0.035452  -0.225126
       Tot  -0.000003   0.000000  -0.000000  -0.000034  -0.082102  -0.000003
 Hirshfeld charges with hydrogens summed into heavy atoms:
              Q-H       Q-CM5   
     1  C    0.169762   0.182501
     2  Br   0.001892   0.020058
     3  Br   0.004117   0.022564
     4  O   -0.175774  -0.225126
 
 EQQ= 0.000000000000E+00 EQD= 0.000000000000E+00 EDD= 0.831488767170E-04
 EQQ+QD+DD= 0.831488767170E-04
 
 Breneman (CHELPG) radii used.
 GetVDW:  no radius for atom   2 atomic number  35.
 Error termination via Lnk1e in /home/wagner/chemistry/gaussian/g16/l602.exe at Mon Sep  5 04:49:24 2022.
 Job cpu time:       0 days 13 hours 38 minutes 56.6 seconds.
 Elapsed time:       0 days  0 hours 51 minutes 35.8 seconds.
 File lengths (MBytes):  RWF=  29492 Int=      0 D2E=      0 Chk=      2 Scr=      1
