 Entering Gaussian System, Link 0=/home/wagner/chemistry/gaussian/g16/g16
 Input=GAUSSIAN.com
 Output=GAUSSIAN.log
 Initial command:
 /home/wagner/chemistry/gaussian/g16/l1.exe "/home/wagner/chemistry/gaussian/work/Gau-55408.inp" -scrdir="/home/wagner/chemistry/gaussian/work/"
 Entering Link 1 = /home/wagner/chemistry/gaussian/g16/l1.exe PID=     55410.
  
 Copyright (c) 1988-2019, Gaussian, Inc.  All Rights Reserved.
  
 This is part of the Gaussian(R) 16 program.  It is based on
 the Gaussian(R) 09 system (copyright 2009, Gaussian, Inc.),
 the Gaussian(R) 03 system (copyright 2003, Gaussian, Inc.),
 the Gaussian(R) 98 system (copyright 1998, Gaussian, Inc.),
 the Gaussian(R) 94 system (copyright 1995, Gaussian, Inc.),
 the Gaussian 92(TM) system (copyright 1992, Gaussian, Inc.),
 the Gaussian 90(TM) system (copyright 1990, Gaussian, Inc.),
 the Gaussian 88(TM) system (copyright 1988, Gaussian, Inc.),
 the Gaussian 86(TM) system (copyright 1986, Carnegie Mellon
 University), and the Gaussian 82(TM) system (copyright 1983,
 Carnegie Mellon University). Gaussian is a federally registered
 trademark of Gaussian, Inc.
  
 This software contains proprietary and confidential information,
 including trade secrets, belonging to Gaussian, Inc.
  
 This software is provided under written license and may be
 used, copied, transmitted, or stored only in accord with that
 written license.
  
 The following legend is applicable only to US Government
 contracts under FAR:
  
                    RESTRICTED RIGHTS LEGEND
  
 Use, reproduction and disclosure by the US Government is
 subject to restrictions as set forth in subparagraphs (a)
 and (c) of the Commercial Computer Software - Restricted
 Rights clause in FAR 52.227-19.
  
 Gaussian, Inc.
 340 Quinnipiac St., Bldg. 40, Wallingford CT 06492
  
  
 ---------------------------------------------------------------
 Warning -- This program may not be used in any manner that
 competes with the business of Gaussian, Inc. or will provide
 assistance to any competitor of Gaussian, Inc.  The licensee
 of this program is prohibited from giving any competitor of
 Gaussian, Inc. access to this program.  By using this program,
 the user acknowledges that Gaussian, Inc. is engaged in the
 business of creating and licensing software in the field of
 computational chemistry and represents and warrants to the
 licensee that it is not a competitor of Gaussian, Inc. and that
 it will not use this program in any manner prohibited above.
 ---------------------------------------------------------------
  

 Cite this work as:
 Gaussian 16, Revision C.01,
 M. J. Frisch, G. W. Trucks, H. B. Schlegel, G. E. Scuseria, 
 M. A. Robb, J. R. Cheeseman, G. Scalmani, V. Barone, 
 G. A. Petersson, H. Nakatsuji, X. Li, M. Caricato, A. V. Marenich, 
 J. Bloino, B. G. Janesko, R. Gomperts, B. Mennucci, H. P. Hratchian, 
 J. V. Ortiz, A. F. Izmaylov, J. L. Sonnenberg, D. Williams-Young, 
 F. Ding, F. Lipparini, F. Egidi, J. Goings, B. Peng, A. Petrone, 
 T. Henderson, D. Ranasinghe, V. G. Zakrzewski, J. Gao, N. Rega, 
 G. Zheng, W. Liang, M. Hada, M. Ehara, K. Toyota, R. Fukuda, 
 J. Hasegawa, M. Ishida, T. Nakajima, Y. Honda, O. Kitao, H. Nakai, 
 T. Vreven, K. Throssell, J. A. Montgomery, Jr., J. E. Peralta, 
 F. Ogliaro, M. J. Bearpark, J. J. Heyd, E. N. Brothers, K. N. Kudin, 
 V. N. Staroverov, T. A. Keith, R. Kobayashi, J. Normand, 
 K. Raghavachari, A. P. Rendell, J. C. Burant, S. S. Iyengar, 
 J. Tomasi, M. Cossi, J. M. Millam, M. Klene, C. Adamo, R. Cammi, 
 J. W. Ochterski, R. L. Martin, K. Morokuma, O. Farkas, 
 J. B. Foresman, and D. J. Fox, Gaussian, Inc., Wallingford CT, 2019.
 
 ******************************************
 Gaussian 16:  EM64L-G16RevC.01  3-Jul-2019
                 4-Sep-2022 
 ******************************************
 %nproc=16
 Will use up to   16 processors via shared memory.
 %mem=16GB
 ----------------------------------------------------------------------
 # qcisd/aug-cc-pvtz nosymm density=current pop=(chelpg,hirshfeld,npa,d
 ipole)
 ----------------------------------------------------------------------
 1/30=1,38=1,172=1/1;
 2/12=2,15=1,17=6,18=5,40=1/2;
 3/5=16,6=1,7=10,11=9,25=1,30=1,71=1/1,2,3;
 4//1;
 5/5=2,38=5/2;
 8/6=4,9=120000,10=1/1,4;
 9/5=8,15=1/13;
 11/28=-7,31=1,32=3,42=3/11;
 10/5=6,13=10,31=1/2;
 6/7=2,8=2,9=2,10=2,15=24,20=3,22=-1,40=-1,79=1/1,2,7;
 99/5=1,9=1/99;
 ------------------
 br2co-wavefunction
 ------------------
 Symbolic Z-matrix:
 Charge =  0 Multiplicity = 1
 C                     0.        0.       -0.49176 
 Br                    0.       -1.59418  -1.54682 
 Br                    0.        1.59418  -1.54682 
 O                     0.        0.        0.6845 
 
                          Input orientation:                          
 ---------------------------------------------------------------------
 Center     Atomic      Atomic             Coordinates (Angstroms)
 Number     Number       Type             X           Y           Z
 ---------------------------------------------------------------------
      1          6           0        0.000000    0.000000   -0.491759
      2         35           0        0.000000   -1.594181   -1.546820
      3         35           0        0.000000    1.594181   -1.546820
      4          8           0        0.000000    0.000000    0.684500
 ---------------------------------------------------------------------
                    Distance matrix (angstroms):
                    1          2          3          4
     1  C    0.000000
     2  Br   1.911692   0.000000
     3  Br   1.911692   3.188362   0.000000
     4  O    1.176259   2.742299   2.742299   0.000000
 Symmetry turned off by external request.
 Stoichiometry    CBr2O
 Framework group  C2V[C2(CO),SGV(Br2)]
 Deg. of freedom     3
 Full point group                 C2V     NOp   4
 Rotational constants (GHZ):           6.2847849           1.2598941           1.0495030
 Standard basis: Aug-CC-pVTZ (5D, 7F)
   210 basis functions,   578 primitive gaussians,   248 cartesian basis functions
    42 alpha electrons       42 beta electrons
       nuclear repulsion energy       449.2323229003 Hartrees.
 NAtoms=    4 NActive=    4 NUniq=    4 SFac= 1.00D+00 NAtFMM=   60 NAOKFM=F Big=F
 Integral buffers will be    131072 words long.
 Raffenetti 1 integral format.
 Two-electron integral symmetry is turned off.
 One-electron integrals computed using PRISM.
 NBasis=   210 RedAO= T EigKep=  1.05D-04  NBF=   210
 NBsUse=   210 1.00D-06 EigRej= -1.00D+00 NBFU=   210
 ExpMin= 3.51D-02 ExpMax= 1.06D+07 ExpMxC= 1.21D+04 IAcc=3 IRadAn=         5 AccDes= 0.00D+00
 Harris functional with IExCor=  205 and IRadAn=       5 diagonalized for initial guess.
 HarFok:  IExCor=  205 AccDes= 0.00D+00 IRadAn=         5 IDoV= 1 UseB2=F ITyADJ=14
 ICtDFT=  3500011 ScaDFX=  1.000000  1.000000  1.000000  1.000000
 FoFCou: FMM=F IPFlag=           0 FMFlag=      100000 FMFlg1=           0
         NFxFlg=           0 DoJE=T BraDBF=F KetDBF=T FulRan=T
         wScrn=  0.000000 ICntrl=       500 IOpCl=  0 I1Cent=   200000004 NGrid=           0
         NMat0=    1 NMatS0=      1 NMatT0=    0 NMatD0=    1 NMtDS0=    0 NMtDT0=    0
 Symmetry not used in FoFCou.
 Keep R1 ints in memory in canonical form, NReq=258584913.
 Requested convergence on RMS density matrix=1.00D-08 within 128 cycles.
 Requested convergence on MAX density matrix=1.00D-06.
 Requested convergence on             energy=1.00D-06.
 No special actions if energy rises.
 SCF Done:  E(RHF) =  -5257.68454935     A.U. after   12 cycles
            NFock= 12  Conv=0.90D-08     -V/T= 2.0000
 ExpMin= 3.51D-02 ExpMax= 1.06D+07 ExpMxC= 1.21D+04 IAcc=3 IRadAn=         5 AccDes= 0.00D+00
 HarFok:  IExCor=  205 AccDes= 0.00D+00 IRadAn=         5 IDoV=-2 UseB2=F ITyADJ=14
 ICtDFT= 12500011 ScaDFX=  1.000000  1.000000  1.000000  1.000000
 Range of M.O.s used for correlation:    21   210
 NBasis=   210 NAE=    42 NBE=    42 NFC=    20 NFV=     0
 NROrb=    190 NOA=    22 NOB=    22 NVA=   168 NVB=   168

 **** Warning!!: The largest alpha MO coefficient is  0.28109636D+02

 Semi-Direct transformation.
 ModeAB=           2 MOrb=            22 LenV=    2146226309
 LASXX=     69628944 LTotXX=    69628944 LenRXX=    69628944
 LTotAB=    70719517 MaxLAS=   129061680 LenRXY=   129061680
 NonZer=   139257888 LenScr=   209707008 LnRSAI=           0
 LnScr1=           0 LExtra=           0 Total=    408397632
 MaxDsk=          -1 SrtSym=           F ITran=            4
 JobTyp=0 Pass  1:  I=   1 to  22.
 (rs|ai) integrals will be sorted in core.
 Spin components of T(2) and E(2):
     alpha-alpha T2 =       0.3832195236D-01 E2=     -0.1232778910D+00
     alpha-beta  T2 =       0.1924923037D+00 E2=     -0.6175052863D+00
     beta-beta   T2 =       0.3832195236D-01 E2=     -0.1232778910D+00
 ANorm=    0.1126559456D+01
 E2 =    -0.8640610683D+00 EUMP2 =    -0.52585486104193D+04
 Keep R2 and R3 ints in memory in canonical form, NReq=504031907.
 CIDS: In Core Option IDoMem=           1.
 Iterations=  50 Convergence= 0.100D-07
 Produce multiple copies of IABC intergrals
 Iteration Nr.   1
 **********************
 DD1Dir will call FoFMem   1 times, MxPair=       506
 NAB=   253 NAA=     0 NBB=     0.
 MP4(R+Q)=  0.21479113D-01
 E3=        0.13939027D-03        EUMP3=      -0.52585484710D+04
 E4(DQ)=    0.26939508D-03        UMP4(DQ)=   -0.52585482016D+04
 E4(SDQ)=  -0.11697362D-01        UMP4(SDQ)=  -0.52585601684D+04
 DE(Corr)= -0.84244257     E(Corr)=     -5258.5269919    
 NORM(A)=   0.11248481D+01
 Iteration Nr.   2
 **********************
 DD1Dir will call FoFMem   1 times, MxPair=       506
 NAB=   253 NAA=     0 NBB=     0.
 DE(Corr)= -0.87233836     E(CORR)=     -5258.5568877     Delta=-2.99D-02
 NORM(A)=   0.11352476D+01
 Iteration Nr.   3
 **********************
 DD1Dir will call FoFMem   1 times, MxPair=       506
 NAB=   253 NAA=     0 NBB=     0.
 DE(Corr)= -0.87023438     E(CORR)=     -5258.5547837     Delta= 2.10D-03
 NORM(A)=   0.11380094D+01
 Iteration Nr.   4
 **********************
 DD1Dir will call FoFMem   1 times, MxPair=       506
 NAB=   253 NAA=     0 NBB=     0.
 DE(Corr)= -0.87276469     E(CORR)=     -5258.5573140     Delta=-2.53D-03
 NORM(A)=   0.11393221D+01
 Iteration Nr.   5
 **********************
 DD1Dir will call FoFMem   1 times, MxPair=       506
 NAB=   253 NAA=     0 NBB=     0.
 DE(Corr)= -0.87313911     E(CORR)=     -5258.5576885     Delta=-3.74D-04
 NORM(A)=   0.11398370D+01
 Iteration Nr.   6
 **********************
 DD1Dir will call FoFMem   1 times, MxPair=       506
 NAB=   253 NAA=     0 NBB=     0.
 DE(Corr)= -0.87320338     E(CORR)=     -5258.5577527     Delta=-6.43D-05
 NORM(A)=   0.11399410D+01
 Iteration Nr.   7
 **********************
 DD1Dir will call FoFMem   1 times, MxPair=       506
 NAB=   253 NAA=     0 NBB=     0.
 DE(Corr)= -0.87321768     E(CORR)=     -5258.5577670     Delta=-1.43D-05
 NORM(A)=   0.11399498D+01
 Iteration Nr.   8
 **********************
 DD1Dir will call FoFMem   1 times, MxPair=       506
 NAB=   253 NAA=     0 NBB=     0.
 DE(Corr)= -0.87321802     E(CORR)=     -5258.5577674     Delta=-3.34D-07
 NORM(A)=   0.11399649D+01
 Iteration Nr.   9
 **********************
 DD1Dir will call FoFMem   1 times, MxPair=       506
 NAB=   253 NAA=     0 NBB=     0.
 DE(Corr)= -0.87321609     E(CORR)=     -5258.5577654     Delta= 1.92D-06
 NORM(A)=   0.11399648D+01
 Iteration Nr.  10
 **********************
 DD1Dir will call FoFMem   1 times, MxPair=       506
 NAB=   253 NAA=     0 NBB=     0.
 DE(Corr)= -0.87321750     E(CORR)=     -5258.5577669     Delta=-1.41D-06
 NORM(A)=   0.11399676D+01
 Iteration Nr.  11
 **********************
 DD1Dir will call FoFMem   1 times, MxPair=       506
 NAB=   253 NAA=     0 NBB=     0.
 DE(Corr)= -0.87321863     E(CORR)=     -5258.5577680     Delta=-1.13D-06
 NORM(A)=   0.11399694D+01
 Iteration Nr.  12
 **********************
 DD1Dir will call FoFMem   1 times, MxPair=       506
 NAB=   253 NAA=     0 NBB=     0.
 DE(Corr)= -0.87321895     E(CORR)=     -5258.5577683     Delta=-3.16D-07
 NORM(A)=   0.11399704D+01
 Iteration Nr.  13
 **********************
 DD1Dir will call FoFMem   1 times, MxPair=       506
 NAB=   253 NAA=     0 NBB=     0.
 DE(Corr)= -0.87321942     E(CORR)=     -5258.5577688     Delta=-4.67D-07
 NORM(A)=   0.11399711D+01
 Iteration Nr.  14
 **********************
 DD1Dir will call FoFMem   1 times, MxPair=       506
 NAB=   253 NAA=     0 NBB=     0.
 DE(Corr)= -0.87321953     E(CORR)=     -5258.5577689     Delta=-1.09D-07
 NORM(A)=   0.11399714D+01
 Iteration Nr.  15
 **********************
 DD1Dir will call FoFMem   1 times, MxPair=       506
 NAB=   253 NAA=     0 NBB=     0.
 DE(Corr)= -0.87321960     E(CORR)=     -5258.5577689     Delta=-6.94D-08
 NORM(A)=   0.11399716D+01
 Iteration Nr.  16
 **********************
 DD1Dir will call FoFMem   1 times, MxPair=       506
 NAB=   253 NAA=     0 NBB=     0.
 DE(Corr)= -0.87321963     E(CORR)=     -5258.5577690     Delta=-3.05D-08
 NORM(A)=   0.11399716D+01
 Iteration Nr.  17
 **********************
 DD1Dir will call FoFMem   1 times, MxPair=       506
 NAB=   253 NAA=     0 NBB=     0.
 DE(Corr)= -0.87321962     E(CORR)=     -5258.5577690     Delta= 2.97D-09
 NORM(A)=   0.11399717D+01
 Wavefunction amplitudes converged. E(Corr)=     -5258.5577690    
 Largest amplitude= 4.23D-02

 Z-amplitude iterations

 Iteration Nr.   1
 **********************
 DD1Dir will call FoFMem   1 times, MxPair=       506
 NAB=   253 NAA=     0 NBB=     0.
 DE(Z)= -0.84604529     E(Z)=     -5258.5305946     Delta= 2.72D-02
 NORM(A)=   0.11399634D+01
 Iteration Nr.   2
 **********************
 DD1Dir will call FoFMem   1 times, MxPair=       506
 NAB=   253 NAA=     0 NBB=     0.
 DE(Z)= -0.84604528     E(Z)=     -5258.5305946     Delta= 1.42D-08
 NORM(A)=   0.11400017D+01
 Iteration Nr.   3
 **********************
 DD1Dir will call FoFMem   1 times, MxPair=       506
 NAB=   253 NAA=     0 NBB=     0.
 DE(Z)= -0.84604533     E(Z)=     -5258.5305947     Delta=-5.46D-08
 NORM(A)=   0.11399625D+01
 Iteration Nr.   4
 **********************
 DD1Dir will call FoFMem   1 times, MxPair=       506
 NAB=   253 NAA=     0 NBB=     0.
 DE(Z)= -0.84604528     E(Z)=     -5258.5305946     Delta= 5.06D-08
 NORM(A)=   0.11399339D+01
 Iteration Nr.   5
 **********************
 DD1Dir will call FoFMem   1 times, MxPair=       506
 NAB=   253 NAA=     0 NBB=     0.
 DE(Z)= -0.84604516     E(Z)=     -5258.5305945     Delta= 1.27D-07
 NORM(A)=   0.11301189D+01
 Iteration Nr.   6
 **********************
 DD1Dir will call FoFMem   1 times, MxPair=       506
 NAB=   253 NAA=     0 NBB=     0.
 DE(Z)= -0.84601175     E(Z)=     -5258.5305611     Delta= 3.34D-05
 NORM(A)=   0.11301182D+01
 Iteration Nr.   7
 **********************
 DD1Dir will call FoFMem   1 times, MxPair=       506
 NAB=   253 NAA=     0 NBB=     0.
 DE(Z)= -0.84601233     E(Z)=     -5258.5305617     Delta=-5.82D-07
 NORM(A)=   0.11301187D+01
 Iteration Nr.   8
 **********************
 DD1Dir will call FoFMem   1 times, MxPair=       506
 NAB=   253 NAA=     0 NBB=     0.
 DE(Z)= -0.84601325     E(Z)=     -5258.5305626     Delta=-9.16D-07
 NORM(A)=   0.11301189D+01
 Iteration Nr.   9
 **********************
 DD1Dir will call FoFMem   1 times, MxPair=       506
 NAB=   253 NAA=     0 NBB=     0.
 DE(Z)= -0.84601300     E(Z)=     -5258.5305624     Delta= 2.46D-07
 NORM(A)=   0.11301192D+01
 Iteration Nr.  10
 **********************
 DD1Dir will call FoFMem   1 times, MxPair=       506
 NAB=   253 NAA=     0 NBB=     0.
 DE(Z)= -0.84601314     E(Z)=     -5258.5305625     Delta=-1.42D-07
 NORM(A)=   0.11301193D+01
 Iteration Nr.  11
 **********************
 DD1Dir will call FoFMem   1 times, MxPair=       506
 NAB=   253 NAA=     0 NBB=     0.
 DE(Z)= -0.84601313     E(Z)=     -5258.5305625     Delta= 1.41D-08
 NORM(A)=   0.11301194D+01
 Iteration Nr.  12
 **********************
 DD1Dir will call FoFMem   1 times, MxPair=       506
 NAB=   253 NAA=     0 NBB=     0.
 DE(Z)= -0.84601314     E(Z)=     -5258.5305625     Delta=-5.94D-09
 NORM(A)=   0.11301194D+01
 Z-amplitudes converged.
 Discarding MO integrals.
          Differentiating once with respect to electric field.
                with respect to dipole field.
          Electric field/nuclear overlap derivatives assumed to be zero.
 Keep R1 ints in memory in canonical form, NReq=258592272.
          There are     1 degrees of freedom in the 1st order CPHF.  IDoFFX=0 NUNeed=     1.
 LinEq1:  Iter=  0 NonCon=     1 RMS=1.95D-03 Max=5.61D-02 NDo=     1
 AX will form     1 AO Fock derivatives at one time.
 LinEq1:  Iter=  1 NonCon=     1 RMS=7.40D-04 Max=2.61D-02 NDo=     1
 LinEq1:  Iter=  2 NonCon=     1 RMS=3.09D-04 Max=9.34D-03 NDo=     1
 LinEq1:  Iter=  3 NonCon=     1 RMS=1.03D-04 Max=2.97D-03 NDo=     1
 LinEq1:  Iter=  4 NonCon=     1 RMS=5.33D-05 Max=1.64D-03 NDo=     1
 LinEq1:  Iter=  5 NonCon=     1 RMS=1.64D-05 Max=4.65D-04 NDo=     1
 LinEq1:  Iter=  6 NonCon=     1 RMS=6.29D-06 Max=1.31D-04 NDo=     1
 LinEq1:  Iter=  7 NonCon=     1 RMS=1.35D-06 Max=2.12D-05 NDo=     1
 LinEq1:  Iter=  8 NonCon=     1 RMS=2.69D-07 Max=4.30D-06 NDo=     1
 LinEq1:  Iter=  9 NonCon=     1 RMS=6.50D-08 Max=1.21D-06 NDo=     1
 LinEq1:  Iter= 10 NonCon=     1 RMS=1.39D-08 Max=2.08D-07 NDo=     1
 LinEq1:  Iter= 11 NonCon=     1 RMS=3.90D-09 Max=9.55D-08 NDo=     1
 LinEq1:  Iter= 12 NonCon=     1 RMS=7.18D-10 Max=1.62D-08 NDo=     1
 LinEq1:  Iter= 13 NonCon=     1 RMS=1.20D-10 Max=2.63D-09 NDo=     1
 LinEq1:  Iter= 14 NonCon=     0 RMS=1.85D-11 Max=4.29D-10 NDo=     1
 Linear equations converged to 1.000D-10 1.000D-09 after    14 iterations.
 End of Minotr F.D. properties file   721 does not exist.
 End of Minotr F.D. properties file   722 does not exist.
 End of Minotr F.D. properties file   788 does not exist.

 **********************************************************************

            Population analysis using the CC Density.

 **********************************************************************

 Alpha  occ. eigenvalues -- -490.06638-490.06638 -65.20633 -65.20633 -58.56165
 Alpha  occ. eigenvalues --  -58.56165 -58.56015 -58.56015 -58.55998 -58.55998
 Alpha  occ. eigenvalues --  -20.62832 -11.46325  -9.87940  -9.87940  -7.49128
 Alpha  occ. eigenvalues --   -7.49127  -7.48407  -7.48406  -7.48336  -7.48335
 Alpha  occ. eigenvalues --   -3.23522  -3.23522  -3.23165  -3.23163  -3.23069
 Alpha  occ. eigenvalues --   -3.23068  -3.22160  -3.22159  -3.22158  -3.22157
 Alpha  occ. eigenvalues --   -1.48400  -1.10818  -1.04780  -0.79379  -0.68342
 Alpha  occ. eigenvalues --   -0.67614  -0.63062  -0.47901  -0.46167  -0.45791
 Alpha  occ. eigenvalues --   -0.45104  -0.43156
 Alpha virt. eigenvalues --    0.03790   0.05638   0.07006   0.07544   0.08199
 Alpha virt. eigenvalues --    0.09328   0.09994   0.10256   0.10940   0.11868
 Alpha virt. eigenvalues --    0.13017   0.13181   0.17481   0.19374   0.21889
 Alpha virt. eigenvalues --    0.22373   0.23248   0.24159   0.25848   0.26652
 Alpha virt. eigenvalues --    0.27523   0.28944   0.31893   0.32940   0.35605
 Alpha virt. eigenvalues --    0.36769   0.37009   0.39727   0.41344   0.43786
 Alpha virt. eigenvalues --    0.44682   0.46414   0.46631   0.49568   0.49657
 Alpha virt. eigenvalues --    0.52593   0.55724   0.56293   0.58707   0.60139
 Alpha virt. eigenvalues --    0.60836   0.63136   0.69493   0.70121   0.71486
 Alpha virt. eigenvalues --    0.71870   0.74565   0.75884   0.77553   0.78530
 Alpha virt. eigenvalues --    0.79396   0.82306   0.83576   0.85027   0.88440
 Alpha virt. eigenvalues --    0.88445   0.89892   0.90088   0.91468   0.93823
 Alpha virt. eigenvalues --    0.94754   0.98082   1.00453   1.01613   1.02914
 Alpha virt. eigenvalues --    1.05487   1.06676   1.11242   1.13075   1.13256
 Alpha virt. eigenvalues --    1.17145   1.17717   1.18749   1.30605   1.34477
 Alpha virt. eigenvalues --    1.36374   1.36482   1.40584   1.43883   1.44824
 Alpha virt. eigenvalues --    1.44904   1.45490   1.51424   1.52388   1.53186
 Alpha virt. eigenvalues --    1.62942   1.63526   1.70602   1.74583   1.79848
 Alpha virt. eigenvalues --    1.95199   2.10714   2.16504   2.17062   2.17669
 Alpha virt. eigenvalues --    2.19031   2.23324   2.24531   2.25295   2.26799
 Alpha virt. eigenvalues --    2.27143   2.27411   2.28645   2.28996   2.29667
 Alpha virt. eigenvalues --    2.30141   2.32566   2.32677   2.32726   2.34003
 Alpha virt. eigenvalues --    2.35709   2.36366   2.37244   2.37820   2.38003
 Alpha virt. eigenvalues --    2.39338   2.39351   2.40508   2.46608   2.48752
 Alpha virt. eigenvalues --    2.53272   2.55810   2.58675   2.59593   2.67063
 Alpha virt. eigenvalues --    2.70573   2.72925   2.76501   2.78580   2.88194
 Alpha virt. eigenvalues --    2.93453   2.97603   3.01162   3.09869   3.48933
 Alpha virt. eigenvalues --    3.58149   3.59193   3.59765   3.61823   3.67588
 Alpha virt. eigenvalues --    3.73504   3.83762   3.86413   3.89895   3.96058
 Alpha virt. eigenvalues --    4.12141   4.13799   4.48764   4.50080   5.01191
 Alpha virt. eigenvalues --    5.12634   5.14791   5.33907   5.47829   6.57477
 Alpha virt. eigenvalues --    6.58685   6.86255   6.88078   7.04534   7.16242
 Alpha virt. eigenvalues --    7.16985   7.22100   7.37320   7.49969   7.67774
 Alpha virt. eigenvalues --    7.68204  13.54924  15.29194
          Condensed to atoms (all electrons):
               1          2          3          4
     1  C    5.559216   0.025734   0.025734   0.239657
     2  Br   0.025734  35.045296  -0.118496  -0.056261
     3  Br   0.025734  -0.118496  35.045296  -0.056261
     4  O    0.239657  -0.056261  -0.056261   8.229978
 Mulliken charges:
               1
     1  C    0.149657
     2  Br   0.103727
     3  Br   0.103727
     4  O   -0.357112
 Sum of Mulliken charges =  -0.00000
 Mulliken charges with hydrogens summed into heavy atoms:
               1
     1  C    0.149657
     2  Br   0.103727
     3  Br   0.103727
     4  O   -0.357112
 Electronic spatial extent (au):  <R**2>=           1355.6161
 Charge=             -0.0000 electrons
 Dipole moment (field-independent basis, Debye):
    X=             -0.0000    Y=              0.0000    Z=             -1.2404  Tot=              1.2404
 Quadrupole moment (field-independent basis, Debye-Ang):
   XX=            -46.9633   YY=            -44.9357   ZZ=            -47.5252
   XY=             -0.0000   XZ=              0.0000   YZ=              0.0000
 Traceless Quadrupole moment (field-independent basis, Debye-Ang):
   XX=             -0.4886   YY=              1.5391   ZZ=             -1.0505
   XY=             -0.0000   XZ=              0.0000   YZ=              0.0000
 Octapole moment (field-independent basis, Debye-Ang**2):
  XXX=             -0.0000  YYY=              0.0000  ZZZ=            164.8162  XYY=             -0.0000
  XXY=              0.0000  XXZ=             56.3135  XZZ=             -0.0000  YZZ=             -0.0000
  YYZ=             45.7169  XYZ=              0.0000
 Hexadecapole moment (field-independent basis, Debye-Ang**3):
 XXXX=            -53.6974 YYYY=           -570.9346 ZZZZ=           -597.1022 XXXY=              0.0000
 XXXZ=              0.0000 YYYX=             -0.0000 YYYZ=              0.0000 ZZZX=              0.0000
 ZZZY=              0.0000 XXYY=           -111.3604 XXZZ=           -110.4163 YYZZ=           -175.0970
 XXYZ=             -0.0000 YYXZ=              0.0000 ZZXY=             -0.0000
 N-N= 4.492323229003D+02 E-N=-1.347022217246D+04  KE= 5.257230208901D+03
 There are a total of      108140 grid points.
 ElSum from          density=       84.0000032627
 ElSum from atomic densities=       84.0000018095

 Hirshfeld populations at iteration   1 (CX, CA, CB, DipXYZ):
               1          2          3          4          5          6
     1  C    0.000001   2.915458   2.915458   0.000000  -0.000000  -0.028359
     2  Br   0.000015  17.498116  17.498116  -0.000000  -0.071278  -0.008011
     3  Br   0.000015  17.498116  17.498116  -0.000000   0.071278  -0.008011
     4  O    0.000008   4.088312   4.088312  -0.000000   0.000000  -0.035992
       Tot   0.000039  42.000002  42.000002  -0.000000  -0.000000  -0.080374

 Dip from Atomic Chgs              0.000000   0.000000  -0.407625
         Total Dipole             -0.000000  -0.000000  -0.488000

 Hirshfeld charges, spin densities, dipoles, and CM5 charges using IRadAn=      5:
              Q-H        S-H        Dx         Dy         Dz        Q-CM5   
     1  C    0.169083   0.000000   0.000000  -0.000000  -0.028359   0.181638
     2  Br   0.003769   0.000000  -0.000000  -0.071278  -0.008011   0.022216
     3  Br   0.003769   0.000000  -0.000000   0.071278  -0.008011   0.022216
     4  O   -0.176624   0.000000  -0.000000   0.000000  -0.035992  -0.226073
       Tot  -0.000003   0.000000  -0.000000  -0.000000  -0.080374  -0.000003
 Hirshfeld charges with hydrogens summed into heavy atoms:
              Q-H       Q-CM5   
     1  C    0.169083   0.181638
     2  Br   0.003769   0.022216
     3  Br   0.003769   0.022216
     4  O   -0.176624  -0.226073
 
 EQQ= 0.000000000000E+00 EQD= 0.000000000000E+00 EDD= 0.837855246773E-04
 EQQ+QD+DD= 0.837855246773E-04
 
 Breneman (CHELPG) radii used.
 GetVDW:  no radius for atom   2 atomic number  35.
 Error termination via Lnk1e in /home/wagner/chemistry/gaussian/g16/l602.exe at Sun Sep  4 18:44:22 2022.
 Job cpu time:       0 days 12 hours 56 minutes 33.8 seconds.
 Elapsed time:       0 days  0 hours 48 minutes 56.8 seconds.
 File lengths (MBytes):  RWF=  29492 Int=      0 D2E=      0 Chk=      2 Scr=      1
