 Entering Gaussian System, Link 0=/home/wagner/chemistry/gaussian/g16/g16
 Input=GAUSSIAN.com
 Output=GAUSSIAN.log
 Initial command:
 /home/wagner/chemistry/gaussian/g16/l1.exe "/home/wagner/chemistry/gaussian/work/Gau-56696.inp" -scrdir="/home/wagner/chemistry/gaussian/work/"
 Entering Link 1 = /home/wagner/chemistry/gaussian/g16/l1.exe PID=     56698.
  
 Copyright (c) 1988-2019, Gaussian, Inc.  All Rights Reserved.
  
 This is part of the Gaussian(R) 16 program.  It is based on
 the Gaussian(R) 09 system (copyright 2009, Gaussian, Inc.),
 the Gaussian(R) 03 system (copyright 2003, Gaussian, Inc.),
 the Gaussian(R) 98 system (copyright 1998, Gaussian, Inc.),
 the Gaussian(R) 94 system (copyright 1995, Gaussian, Inc.),
 the Gaussian 92(TM) system (copyright 1992, Gaussian, Inc.),
 the Gaussian 90(TM) system (copyright 1990, Gaussian, Inc.),
 the Gaussian 88(TM) system (copyright 1988, Gaussian, Inc.),
 the Gaussian 86(TM) system (copyright 1986, Carnegie Mellon
 University), and the Gaussian 82(TM) system (copyright 1983,
 Carnegie Mellon University). Gaussian is a federally registered
 trademark of Gaussian, Inc.
  
 This software contains proprietary and confidential information,
 including trade secrets, belonging to Gaussian, Inc.
  
 This software is provided under written license and may be
 used, copied, transmitted, or stored only in accord with that
 written license.
  
 The following legend is applicable only to US Government
 contracts under FAR:
  
                    RESTRICTED RIGHTS LEGEND
  
 Use, reproduction and disclosure by the US Government is
 subject to restrictions as set forth in subparagraphs (a)
 and (c) of the Commercial Computer Software - Restricted
 Rights clause in FAR 52.227-19.
  
 Gaussian, Inc.
 340 Quinnipiac St., Bldg. 40, Wallingford CT 06492
  
  
 ---------------------------------------------------------------
 Warning -- This program may not be used in any manner that
 competes with the business of Gaussian, Inc. or will provide
 assistance to any competitor of Gaussian, Inc.  The licensee
 of this program is prohibited from giving any competitor of
 Gaussian, Inc. access to this program.  By using this program,
 the user acknowledges that Gaussian, Inc. is engaged in the
 business of creating and licensing software in the field of
 computational chemistry and represents and warrants to the
 licensee that it is not a competitor of Gaussian, Inc. and that
 it will not use this program in any manner prohibited above.
 ---------------------------------------------------------------
  

 Cite this work as:
 Gaussian 16, Revision C.01,
 M. J. Frisch, G. W. Trucks, H. B. Schlegel, G. E. Scuseria, 
 M. A. Robb, J. R. Cheeseman, G. Scalmani, V. Barone, 
 G. A. Petersson, H. Nakatsuji, X. Li, M. Caricato, A. V. Marenich, 
 J. Bloino, B. G. Janesko, R. Gomperts, B. Mennucci, H. P. Hratchian, 
 J. V. Ortiz, A. F. Izmaylov, J. L. Sonnenberg, D. Williams-Young, 
 F. Ding, F. Lipparini, F. Egidi, J. Goings, B. Peng, A. Petrone, 
 T. Henderson, D. Ranasinghe, V. G. Zakrzewski, J. Gao, N. Rega, 
 G. Zheng, W. Liang, M. Hada, M. Ehara, K. Toyota, R. Fukuda, 
 J. Hasegawa, M. Ishida, T. Nakajima, Y. Honda, O. Kitao, H. Nakai, 
 T. Vreven, K. Throssell, J. A. Montgomery, Jr., J. E. Peralta, 
 F. Ogliaro, M. J. Bearpark, J. J. Heyd, E. N. Brothers, K. N. Kudin, 
 V. N. Staroverov, T. A. Keith, R. Kobayashi, J. Normand, 
 K. Raghavachari, A. P. Rendell, J. C. Burant, S. S. Iyengar, 
 J. Tomasi, M. Cossi, J. M. Millam, M. Klene, C. Adamo, R. Cammi, 
 J. W. Ochterski, R. L. Martin, K. Morokuma, O. Farkas, 
 J. B. Foresman, and D. J. Fox, Gaussian, Inc., Wallingford CT, 2019.
 
 ******************************************
 Gaussian 16:  EM64L-G16RevC.01  3-Jul-2019
                 4-Sep-2022 
 ******************************************
 %nproc=16
 Will use up to   16 processors via shared memory.
 %mem=16GB
 ----------------------------------------------------------------------
 # qcisd/aug-cc-pvtz nosymm density=current pop=(chelpg,hirshfeld,npa,d
 ipole)
 ----------------------------------------------------------------------
 1/30=1,38=1,172=1/1;
 2/12=2,15=1,17=6,18=5,40=1/2;
 3/5=16,6=1,7=10,11=9,25=1,30=1,71=1/1,2,3;
 4//1;
 5/5=2,38=5/2;
 8/6=4,9=120000,10=1/1,4;
 9/5=8,15=1/13;
 11/28=-7,31=1,32=3,42=3/11;
 10/5=6,13=10,31=1/2;
 6/7=2,8=2,9=2,10=2,15=24,20=3,22=-1,40=-1,79=1/1,2,7;
 99/5=1,9=1/99;
 ------------------
 br2co-wavefunction
 ------------------
 Symbolic Z-matrix:
 Charge =  0 Multiplicity = 1
 C                     0.01      0.       -0.49176 
 Br                    0.       -1.59418  -1.54682 
 Br                    0.        1.59418  -1.54682 
 O                     0.        0.        0.6845 
 
                          Input orientation:                          
 ---------------------------------------------------------------------
 Center     Atomic      Atomic             Coordinates (Angstroms)
 Number     Number       Type             X           Y           Z
 ---------------------------------------------------------------------
      1          6           0        0.010000    0.000000   -0.491759
      2         35           0        0.000000   -1.594181   -1.546820
      3         35           0        0.000000    1.594181   -1.546820
      4          8           0        0.000000    0.000000    0.684500
 ---------------------------------------------------------------------
                    Distance matrix (angstroms):
                    1          2          3          4
     1  C    0.000000
     2  Br   1.911718   0.000000
     3  Br   1.911718   3.188362   0.000000
     4  O    1.176302   2.742299   2.742299   0.000000
 Symmetry turned off by external request.
 Stoichiometry    CBr2O
 Framework group  CS[SG(CO),X(Br2)]
 Deg. of freedom     4
 Full point group                 CS      NOp   2
 Rotational constants (GHZ):           6.2846972           1.2598909           1.0495027
 Standard basis: Aug-CC-pVTZ (5D, 7F)
   210 basis functions,   578 primitive gaussians,   248 cartesian basis functions
    42 alpha electrons       42 beta electrons
       nuclear repulsion energy       449.2299519795 Hartrees.
 NAtoms=    4 NActive=    4 NUniq=    4 SFac= 1.00D+00 NAtFMM=   60 NAOKFM=F Big=F
 Integral buffers will be    131072 words long.
 Raffenetti 1 integral format.
 Two-electron integral symmetry is turned off.
 One-electron integrals computed using PRISM.
 NBasis=   210 RedAO= T EigKep=  1.05D-04  NBF=   210
 NBsUse=   210 1.00D-06 EigRej= -1.00D+00 NBFU=   210
 ExpMin= 3.51D-02 ExpMax= 1.06D+07 ExpMxC= 1.21D+04 IAcc=3 IRadAn=         5 AccDes= 0.00D+00
 Harris functional with IExCor=  205 and IRadAn=       5 diagonalized for initial guess.
 HarFok:  IExCor=  205 AccDes= 0.00D+00 IRadAn=         5 IDoV= 1 UseB2=F ITyADJ=14
 ICtDFT=  3500011 ScaDFX=  1.000000  1.000000  1.000000  1.000000
 FoFCou: FMM=F IPFlag=           0 FMFlag=      100000 FMFlg1=           0
         NFxFlg=           0 DoJE=T BraDBF=F KetDBF=T FulRan=T
         wScrn=  0.000000 ICntrl=       500 IOpCl=  0 I1Cent=   200000004 NGrid=           0
         NMat0=    1 NMatS0=      1 NMatT0=    0 NMatD0=    1 NMtDS0=    0 NMtDT0=    0
 Symmetry not used in FoFCou.
 Keep R1 ints in memory in canonical form, NReq=258584913.
 Requested convergence on RMS density matrix=1.00D-08 within 128 cycles.
 Requested convergence on MAX density matrix=1.00D-06.
 Requested convergence on             energy=1.00D-06.
 No special actions if energy rises.
 SCF Done:  E(RHF) =  -5257.68452301     A.U. after   12 cycles
            NFock= 12  Conv=0.90D-08     -V/T= 2.0000
 ExpMin= 3.51D-02 ExpMax= 1.06D+07 ExpMxC= 1.21D+04 IAcc=3 IRadAn=         5 AccDes= 0.00D+00
 HarFok:  IExCor=  205 AccDes= 0.00D+00 IRadAn=         5 IDoV=-2 UseB2=F ITyADJ=14
 ICtDFT= 12500011 ScaDFX=  1.000000  1.000000  1.000000  1.000000
 Range of M.O.s used for correlation:    21   210
 NBasis=   210 NAE=    42 NBE=    42 NFC=    20 NFV=     0
 NROrb=    190 NOA=    22 NOB=    22 NVA=   168 NVB=   168

 **** Warning!!: The largest alpha MO coefficient is  0.28095050D+02

 Semi-Direct transformation.
 ModeAB=           2 MOrb=            22 LenV=    2146226309
 LASXX=     69628944 LTotXX=    69628944 LenRXX=    69628944
 LTotAB=    70719517 MaxLAS=   129061680 LenRXY=   129061680
 NonZer=   139257888 LenScr=   209707008 LnRSAI=           0
 LnScr1=           0 LExtra=           0 Total=    408397632
 MaxDsk=          -1 SrtSym=           F ITran=            4
 JobTyp=0 Pass  1:  I=   1 to  22.
 (rs|ai) integrals will be sorted in core.
 Spin components of T(2) and E(2):
     alpha-alpha T2 =       0.3832296471D-01 E2=     -0.1232787256D+00
     alpha-beta  T2 =       0.1924992342D+00 E2=     -0.6175117784D+00
     beta-beta   T2 =       0.3832296471D-01 E2=     -0.1232787256D+00
 ANorm=    0.1126563431D+01
 E2 =    -0.8640692296D+00 EUMP2 =    -0.52585485922346D+04
 Keep R2 and R3 ints in memory in canonical form, NReq=504031907.
 CIDS: In Core Option IDoMem=           1.
 Iterations=  50 Convergence= 0.100D-07
 Produce multiple copies of IABC intergrals
 Iteration Nr.   1
 **********************
 DD1Dir will call FoFMem   1 times, MxPair=       506
 NAB=   253 NAA=     0 NBB=     0.
 MP4(R+Q)=  0.21480159D-01
 E3=        0.14190020D-03        EUMP3=      -0.52585484503D+04
 E4(DQ)=    0.26872319D-03        UMP4(DQ)=   -0.52585481816D+04
 E4(SDQ)=  -0.11699163D-01        UMP4(SDQ)=  -0.52585601495D+04
 DE(Corr)= -0.84244717     E(Corr)=     -5258.5269702    
 NORM(A)=   0.11248513D+01
 Iteration Nr.   2
 **********************
 DD1Dir will call FoFMem   1 times, MxPair=       506
 NAB=   253 NAA=     0 NBB=     0.
 DE(Corr)= -0.87234561     E(CORR)=     -5258.5568686     Delta=-2.99D-02
 NORM(A)=   0.11352518D+01
 Iteration Nr.   3
 **********************
 DD1Dir will call FoFMem   1 times, MxPair=       506
 NAB=   253 NAA=     0 NBB=     0.
 DE(Corr)= -0.87024100     E(CORR)=     -5258.5547640     Delta= 2.10D-03
 NORM(A)=   0.11380143D+01
 Iteration Nr.   4
 **********************
 DD1Dir will call FoFMem   1 times, MxPair=       506
 NAB=   253 NAA=     0 NBB=     0.
 DE(Corr)= -0.87277172     E(CORR)=     -5258.5572947     Delta=-2.53D-03
 NORM(A)=   0.11393273D+01
 Iteration Nr.   5
 **********************
 DD1Dir will call FoFMem   1 times, MxPair=       506
 NAB=   253 NAA=     0 NBB=     0.
 DE(Corr)= -0.87314624     E(CORR)=     -5258.5576692     Delta=-3.75D-04
 NORM(A)=   0.11398423D+01
 Iteration Nr.   6
 **********************
 DD1Dir will call FoFMem   1 times, MxPair=       506
 NAB=   253 NAA=     0 NBB=     0.
 DE(Corr)= -0.87321052     E(CORR)=     -5258.5577335     Delta=-6.43D-05
 NORM(A)=   0.11399464D+01
 Iteration Nr.   7
 **********************
 DD1Dir will call FoFMem   1 times, MxPair=       506
 NAB=   253 NAA=     0 NBB=     0.
 DE(Corr)= -0.87322483     E(CORR)=     -5258.5577478     Delta=-1.43D-05
 NORM(A)=   0.11399552D+01
 Iteration Nr.   8
 **********************
 DD1Dir will call FoFMem   1 times, MxPair=       506
 NAB=   253 NAA=     0 NBB=     0.
 DE(Corr)= -0.87322517     E(CORR)=     -5258.5577482     Delta=-3.36D-07
 NORM(A)=   0.11399703D+01
 Iteration Nr.   9
 **********************
 DD1Dir will call FoFMem   1 times, MxPair=       506
 NAB=   253 NAA=     0 NBB=     0.
 DE(Corr)= -0.87322324     E(CORR)=     -5258.5577462     Delta= 1.93D-06
 NORM(A)=   0.11399702D+01
 Iteration Nr.  10
 **********************
 DD1Dir will call FoFMem   1 times, MxPair=       506
 NAB=   253 NAA=     0 NBB=     0.
 DE(Corr)= -0.87322465     E(CORR)=     -5258.5577477     Delta=-1.41D-06
 NORM(A)=   0.11399730D+01
 Iteration Nr.  11
 **********************
 DD1Dir will call FoFMem   1 times, MxPair=       506
 NAB=   253 NAA=     0 NBB=     0.
 DE(Corr)= -0.87322579     E(CORR)=     -5258.5577488     Delta=-1.13D-06
 NORM(A)=   0.11399748D+01
 Iteration Nr.  12
 **********************
 DD1Dir will call FoFMem   1 times, MxPair=       506
 NAB=   253 NAA=     0 NBB=     0.
 DE(Corr)= -0.87322610     E(CORR)=     -5258.5577491     Delta=-3.16D-07
 NORM(A)=   0.11399758D+01
 Iteration Nr.  13
 **********************
 DD1Dir will call FoFMem   1 times, MxPair=       506
 NAB=   253 NAA=     0 NBB=     0.
 DE(Corr)= -0.87322657     E(CORR)=     -5258.5577496     Delta=-4.67D-07
 NORM(A)=   0.11399765D+01
 Iteration Nr.  14
 **********************
 DD1Dir will call FoFMem   1 times, MxPair=       506
 NAB=   253 NAA=     0 NBB=     0.
 DE(Corr)= -0.87322668     E(CORR)=     -5258.5577497     Delta=-1.10D-07
 NORM(A)=   0.11399768D+01
 Iteration Nr.  15
 **********************
 DD1Dir will call FoFMem   1 times, MxPair=       506
 NAB=   253 NAA=     0 NBB=     0.
 DE(Corr)= -0.87322675     E(CORR)=     -5258.5577498     Delta=-6.96D-08
 NORM(A)=   0.11399770D+01
 Iteration Nr.  16
 **********************
 DD1Dir will call FoFMem   1 times, MxPair=       506
 NAB=   253 NAA=     0 NBB=     0.
 DE(Corr)= -0.87322678     E(CORR)=     -5258.5577498     Delta=-2.87D-08
 NORM(A)=   0.11399771D+01
 Iteration Nr.  17
 **********************
 DD1Dir will call FoFMem   1 times, MxPair=       506
 NAB=   253 NAA=     0 NBB=     0.
 DE(Corr)= -0.87322677     E(CORR)=     -5258.5577498     Delta= 8.64D-09
 NORM(A)=   0.11399771D+01
 Wavefunction amplitudes converged. E(Corr)=     -5258.5577498    
 Largest amplitude= 4.22D-02

 Z-amplitude iterations

 Iteration Nr.   1
 **********************
 DD1Dir will call FoFMem   1 times, MxPair=       506
 NAB=   253 NAA=     0 NBB=     0.
 DE(Z)= -0.84605062     E(Z)=     -5258.5305736     Delta= 2.72D-02
 NORM(A)=   0.11399896D+01
 Iteration Nr.   2
 **********************
 DD1Dir will call FoFMem   1 times, MxPair=       506
 NAB=   253 NAA=     0 NBB=     0.
 DE(Z)= -0.84605064     E(Z)=     -5258.5305736     Delta=-2.00D-08
 NORM(A)=   0.11398931D+01
 Iteration Nr.   3
 **********************
 DD1Dir will call FoFMem   1 times, MxPair=       506
 NAB=   253 NAA=     0 NBB=     0.
 DE(Z)= -0.84605051     E(Z)=     -5258.5305735     Delta= 1.34D-07
 NORM(A)=   0.11400007D+01
 Iteration Nr.   4
 **********************
 DD1Dir will call FoFMem   1 times, MxPair=       506
 NAB=   253 NAA=     0 NBB=     0.
 DE(Z)= -0.84605065     E(Z)=     -5258.5305737     Delta=-1.38D-07
 NORM(A)=   0.11399165D+01
 Iteration Nr.   5
 **********************
 DD1Dir will call FoFMem   1 times, MxPair=       506
 NAB=   253 NAA=     0 NBB=     0.
 DE(Z)= -0.84605036     E(Z)=     -5258.5305734     Delta= 2.86D-07
 NORM(A)=   0.11301219D+01
 Iteration Nr.   6
 **********************
 DD1Dir will call FoFMem   1 times, MxPair=       506
 NAB=   253 NAA=     0 NBB=     0.
 DE(Z)= -0.84602117     E(Z)=     -5258.5305442     Delta= 2.92D-05
 NORM(A)=   0.11301236D+01
 Iteration Nr.   7
 **********************
 DD1Dir will call FoFMem   1 times, MxPair=       506
 NAB=   253 NAA=     0 NBB=     0.
 DE(Z)= -0.84601626     E(Z)=     -5258.5305393     Delta= 4.91D-06
 NORM(A)=   0.11301229D+01
 Iteration Nr.   8
 **********************
 DD1Dir will call FoFMem   1 times, MxPair=       506
 NAB=   253 NAA=     0 NBB=     0.
 DE(Z)= -0.84601864     E(Z)=     -5258.5305416     Delta=-2.38D-06
 NORM(A)=   0.11301236D+01
 Iteration Nr.   9
 **********************
 DD1Dir will call FoFMem   1 times, MxPair=       506
 NAB=   253 NAA=     0 NBB=     0.
 DE(Z)= -0.84601858     E(Z)=     -5258.5305416     Delta= 6.18D-08
 NORM(A)=   0.11301237D+01
 Iteration Nr.  10
 **********************
 DD1Dir will call FoFMem   1 times, MxPair=       506
 NAB=   253 NAA=     0 NBB=     0.
 DE(Z)= -0.84601859     E(Z)=     -5258.5305416     Delta=-7.99D-09
 NORM(A)=   0.11301238D+01
 Z-amplitudes converged.
 Discarding MO integrals.
          Differentiating once with respect to electric field.
                with respect to dipole field.
          Electric field/nuclear overlap derivatives assumed to be zero.
 Keep R1 ints in memory in canonical form, NReq=258592272.
          There are     1 degrees of freedom in the 1st order CPHF.  IDoFFX=0 NUNeed=     1.
 LinEq1:  Iter=  0 NonCon=     1 RMS=1.95D-03 Max=5.60D-02 NDo=     1
 AX will form     1 AO Fock derivatives at one time.
 LinEq1:  Iter=  1 NonCon=     1 RMS=7.40D-04 Max=2.60D-02 NDo=     1
 LinEq1:  Iter=  2 NonCon=     1 RMS=3.09D-04 Max=9.33D-03 NDo=     1
 LinEq1:  Iter=  3 NonCon=     1 RMS=1.03D-04 Max=2.97D-03 NDo=     1
 LinEq1:  Iter=  4 NonCon=     1 RMS=5.33D-05 Max=1.64D-03 NDo=     1
 LinEq1:  Iter=  5 NonCon=     1 RMS=1.64D-05 Max=4.64D-04 NDo=     1
 LinEq1:  Iter=  6 NonCon=     1 RMS=6.29D-06 Max=1.30D-04 NDo=     1
 LinEq1:  Iter=  7 NonCon=     1 RMS=1.35D-06 Max=2.12D-05 NDo=     1
 LinEq1:  Iter=  8 NonCon=     1 RMS=2.69D-07 Max=4.30D-06 NDo=     1
 LinEq1:  Iter=  9 NonCon=     1 RMS=6.50D-08 Max=1.21D-06 NDo=     1
 LinEq1:  Iter= 10 NonCon=     1 RMS=1.39D-08 Max=2.08D-07 NDo=     1
 LinEq1:  Iter= 11 NonCon=     1 RMS=3.90D-09 Max=9.57D-08 NDo=     1
 LinEq1:  Iter= 12 NonCon=     1 RMS=7.19D-10 Max=1.62D-08 NDo=     1
 LinEq1:  Iter= 13 NonCon=     1 RMS=1.21D-10 Max=2.63D-09 NDo=     1
 LinEq1:  Iter= 14 NonCon=     0 RMS=2.08D-11 Max=4.55D-10 NDo=     1
 Linear equations converged to 1.000D-10 1.000D-09 after    14 iterations.
 End of Minotr F.D. properties file   721 does not exist.
 End of Minotr F.D. properties file   722 does not exist.
 End of Minotr F.D. properties file   788 does not exist.

 **********************************************************************

            Population analysis using the CC Density.

 **********************************************************************

 Alpha  occ. eigenvalues -- -490.06639-490.06639 -65.20633 -65.20633 -58.56165
 Alpha  occ. eigenvalues --  -58.56165 -58.56015 -58.56015 -58.55998 -58.55998
 Alpha  occ. eigenvalues --  -20.62832 -11.46326  -9.87940  -9.87940  -7.49128
 Alpha  occ. eigenvalues --   -7.49127  -7.48407  -7.48406  -7.48336  -7.48335
 Alpha  occ. eigenvalues --   -3.23522  -3.23522  -3.23165  -3.23164  -3.23069
 Alpha  occ. eigenvalues --   -3.23068  -3.22160  -3.22159  -3.22158  -3.22157
 Alpha  occ. eigenvalues --   -1.48397  -1.10817  -1.04779  -0.79379  -0.68341
 Alpha  occ. eigenvalues --   -0.67613  -0.63060  -0.47901  -0.46167  -0.45792
 Alpha  occ. eigenvalues --   -0.45103  -0.43156
 Alpha virt. eigenvalues --    0.03787   0.05638   0.07006   0.07540   0.08200
 Alpha virt. eigenvalues --    0.09325   0.09994   0.10258   0.10940   0.11867
 Alpha virt. eigenvalues --    0.13022   0.13181   0.17481   0.19374   0.21887
 Alpha virt. eigenvalues --    0.22367   0.23251   0.24156   0.25847   0.26654
 Alpha virt. eigenvalues --    0.27526   0.28944   0.31894   0.32940   0.35605
 Alpha virt. eigenvalues --    0.36769   0.37009   0.39729   0.41343   0.43785
 Alpha virt. eigenvalues --    0.44667   0.46415   0.46647   0.49545   0.49677
 Alpha virt. eigenvalues --    0.52592   0.55723   0.56292   0.58699   0.60147
 Alpha virt. eigenvalues --    0.60834   0.63135   0.69493   0.70113   0.71494
 Alpha virt. eigenvalues --    0.71866   0.74567   0.75883   0.77554   0.78521
 Alpha virt. eigenvalues --    0.79393   0.82300   0.83577   0.85034   0.88419
 Alpha virt. eigenvalues --    0.88445   0.89891   0.90109   0.91470   0.93822
 Alpha virt. eigenvalues --    0.94756   0.98079   1.00454   1.01609   1.02913
 Alpha virt. eigenvalues --    1.05482   1.06674   1.11238   1.13078   1.13257
 Alpha virt. eigenvalues --    1.17145   1.17718   1.18760   1.30603   1.34481
 Alpha virt. eigenvalues --    1.36373   1.36482   1.40577   1.43871   1.44828
 Alpha virt. eigenvalues --    1.44918   1.45490   1.51418   1.52386   1.53190
 Alpha virt. eigenvalues --    1.62902   1.63565   1.70583   1.74575   1.79858
 Alpha virt. eigenvalues --    1.95189   2.10718   2.16480   2.17082   2.17671
 Alpha virt. eigenvalues --    2.19026   2.23328   2.24531   2.25290   2.26793
 Alpha virt. eigenvalues --    2.27143   2.27416   2.28642   2.28998   2.29667
 Alpha virt. eigenvalues --    2.30140   2.32552   2.32676   2.32738   2.34003
 Alpha virt. eigenvalues --    2.35657   2.36414   2.37239   2.37838   2.38000
 Alpha virt. eigenvalues --    2.39333   2.39359   2.40510   2.46615   2.48753
 Alpha virt. eigenvalues --    2.53276   2.55806   2.58608   2.59641   2.67057
 Alpha virt. eigenvalues --    2.70575   2.72923   2.76485   2.78546   2.88188
 Alpha virt. eigenvalues --    2.93454   2.97617   3.01167   3.09869   3.48928
 Alpha virt. eigenvalues --    3.58148   3.59113   3.59848   3.61825   3.67585
 Alpha virt. eigenvalues --    3.73490   3.83781   3.86398   3.89912   3.96051
 Alpha virt. eigenvalues --    4.12100   4.13846   4.48740   4.50075   5.01159
 Alpha virt. eigenvalues --    5.12627   5.14787   5.33869   5.47816   6.57476
 Alpha virt. eigenvalues --    6.58683   6.86256   6.88072   7.04529   7.16239
 Alpha virt. eigenvalues --    7.16993   7.22091   7.37313   7.49972   7.67763
 Alpha virt. eigenvalues --    7.68209  13.54820  15.29079
          Condensed to atoms (all electrons):
               1          2          3          4
     1  C    5.559231   0.025700   0.025700   0.239627
     2  Br   0.025700  35.045271  -0.118475  -0.056197
     3  Br   0.025700  -0.118475  35.045271  -0.056197
     4  O    0.239627  -0.056197  -0.056197   8.229906
 Mulliken charges:
               1
     1  C    0.149741
     2  Br   0.103700
     3  Br   0.103700
     4  O   -0.357140
 Sum of Mulliken charges =  -0.00000
 Mulliken charges with hydrogens summed into heavy atoms:
               1
     1  C    0.149741
     2  Br   0.103700
     3  Br   0.103700
     4  O   -0.357140
 Electronic spatial extent (au):  <R**2>=           1355.6184
 Charge=             -0.0000 electrons
 Dipole moment (field-independent basis, Debye):
    X=              0.0059    Y=              0.0000    Z=             -1.2404  Tot=              1.2404
 Quadrupole moment (field-independent basis, Debye-Ang):
   XX=            -46.9630   YY=            -44.9360   ZZ=            -47.5254
   XY=             -0.0000   XZ=              0.0244   YZ=             -0.0000
 Traceless Quadrupole moment (field-independent basis, Debye-Ang):
   XX=             -0.4882   YY=              1.5388   ZZ=             -1.0506
   XY=             -0.0000   XZ=              0.0244   YZ=             -0.0000
 Octapole moment (field-independent basis, Debye-Ang**2):
  XXX=             -0.1611  YYY=              0.0000  ZZZ=            164.8166  XYY=             -0.1616
  XXY=              0.0000  XXZ=             56.3132  XZZ=             -0.1367  YZZ=              0.0000
  YYZ=             45.7175  XYZ=             -0.0000
 Hexadecapole moment (field-independent basis, Debye-Ang**3):
 XXXX=            -53.7000 YYYY=           -570.9385 ZZZZ=           -597.1041 XXXY=              0.0000
 XXXZ=              0.1174 YYYX=              0.0000 YYYZ=             -0.0000 ZZZX=              0.2969
 ZZZY=             -0.0000 XXYY=           -111.3606 XXZZ=           -110.4164 YYZZ=           -175.0990
 XXYZ=             -0.0000 YYXZ=              0.2613 ZZXY=              0.0000
 N-N= 4.492299519795D+02 E-N=-1.347021727216D+04  KE= 5.257229987481D+03
 There are a total of      108140 grid points.
 ElSum from          density=       84.0000032491
 ElSum from atomic densities=       84.0000017949

 Hirshfeld populations at iteration   1 (CX, CA, CB, DipXYZ):
               1          2          3          4          5          6
     1  C    0.000001   2.915458   2.915458   0.004197  -0.000000  -0.028351
     2  Br   0.000015  17.498116  17.498116  -0.002247  -0.071273  -0.008012
     3  Br   0.000015  17.498116  17.498116  -0.002247   0.071273  -0.008012
     4  O    0.000008   4.088312   4.088312  -0.000561  -0.000000  -0.036002
       Tot   0.000040  42.000002  42.000002  -0.000857  -0.000000  -0.080377

 Dip from Atomic Chgs              0.003195   0.000000  -0.407625
         Total Dipole              0.002338   0.000000  -0.488002

 Hirshfeld charges, spin densities, dipoles, and CM5 charges using IRadAn=      5:
              Q-H        S-H        Dx         Dy         Dz        Q-CM5   
     1  C    0.169084   0.000000   0.004197  -0.000000  -0.028351   0.181637
     2  Br   0.003768   0.000000  -0.002247  -0.071273  -0.008012   0.022214
     3  Br   0.003768   0.000000  -0.002247   0.071273  -0.008012   0.022214
     4  O   -0.176624   0.000000  -0.000561  -0.000000  -0.036002  -0.226069
       Tot  -0.000003   0.000000  -0.000857  -0.000000  -0.080377  -0.000003
 Hirshfeld charges with hydrogens summed into heavy atoms:
              Q-H       Q-CM5   
     1  C    0.169084   0.181637
     2  Br   0.003768   0.022214
     3  Br   0.003768   0.022214
     4  O   -0.176624  -0.226069
 
 EQQ= 0.000000000000E+00 EQD= 0.000000000000E+00 EDD= 0.832035141789E-04
 EQQ+QD+DD= 0.832035141789E-04
 
 Breneman (CHELPG) radii used.
 GetVDW:  no radius for atom   2 atomic number  35.
 Error termination via Lnk1e in /home/wagner/chemistry/gaussian/g16/l602.exe at Sun Sep  4 19:32:59 2022.
 Job cpu time:       0 days 12 hours 48 minutes 39.3 seconds.
 Elapsed time:       0 days  0 hours 48 minutes 30.2 seconds.
 File lengths (MBytes):  RWF=  29492 Int=      0 D2E=      0 Chk=      2 Scr=      1
