 Entering Gaussian System, Link 0=/home/wagner/chemistry/gaussian/g16/g16
 Input=GAUSSIAN.com
 Output=GAUSSIAN.log
 Initial command:
 /home/wagner/chemistry/gaussian/g16/l1.exe "/home/wagner/chemistry/gaussian/work/Gau-67081.inp" -scrdir="/home/wagner/chemistry/gaussian/work/"
 Entering Link 1 = /home/wagner/chemistry/gaussian/g16/l1.exe PID=     67083.
  
 Copyright (c) 1988-2019, Gaussian, Inc.  All Rights Reserved.
  
 This is part of the Gaussian(R) 16 program.  It is based on
 the Gaussian(R) 09 system (copyright 2009, Gaussian, Inc.),
 the Gaussian(R) 03 system (copyright 2003, Gaussian, Inc.),
 the Gaussian(R) 98 system (copyright 1998, Gaussian, Inc.),
 the Gaussian(R) 94 system (copyright 1995, Gaussian, Inc.),
 the Gaussian 92(TM) system (copyright 1992, Gaussian, Inc.),
 the Gaussian 90(TM) system (copyright 1990, Gaussian, Inc.),
 the Gaussian 88(TM) system (copyright 1988, Gaussian, Inc.),
 the Gaussian 86(TM) system (copyright 1986, Carnegie Mellon
 University), and the Gaussian 82(TM) system (copyright 1983,
 Carnegie Mellon University). Gaussian is a federally registered
 trademark of Gaussian, Inc.
  
 This software contains proprietary and confidential information,
 including trade secrets, belonging to Gaussian, Inc.
  
 This software is provided under written license and may be
 used, copied, transmitted, or stored only in accord with that
 written license.
  
 The following legend is applicable only to US Government
 contracts under FAR:
  
                    RESTRICTED RIGHTS LEGEND
  
 Use, reproduction and disclosure by the US Government is
 subject to restrictions as set forth in subparagraphs (a)
 and (c) of the Commercial Computer Software - Restricted
 Rights clause in FAR 52.227-19.
  
 Gaussian, Inc.
 340 Quinnipiac St., Bldg. 40, Wallingford CT 06492
  
  
 ---------------------------------------------------------------
 Warning -- This program may not be used in any manner that
 competes with the business of Gaussian, Inc. or will provide
 assistance to any competitor of Gaussian, Inc.  The licensee
 of this program is prohibited from giving any competitor of
 Gaussian, Inc. access to this program.  By using this program,
 the user acknowledges that Gaussian, Inc. is engaged in the
 business of creating and licensing software in the field of
 computational chemistry and represents and warrants to the
 licensee that it is not a competitor of Gaussian, Inc. and that
 it will not use this program in any manner prohibited above.
 ---------------------------------------------------------------
  

 Cite this work as:
 Gaussian 16, Revision C.01,
 M. J. Frisch, G. W. Trucks, H. B. Schlegel, G. E. Scuseria, 
 M. A. Robb, J. R. Cheeseman, G. Scalmani, V. Barone, 
 G. A. Petersson, H. Nakatsuji, X. Li, M. Caricato, A. V. Marenich, 
 J. Bloino, B. G. Janesko, R. Gomperts, B. Mennucci, H. P. Hratchian, 
 J. V. Ortiz, A. F. Izmaylov, J. L. Sonnenberg, D. Williams-Young, 
 F. Ding, F. Lipparini, F. Egidi, J. Goings, B. Peng, A. Petrone, 
 T. Henderson, D. Ranasinghe, V. G. Zakrzewski, J. Gao, N. Rega, 
 G. Zheng, W. Liang, M. Hada, M. Ehara, K. Toyota, R. Fukuda, 
 J. Hasegawa, M. Ishida, T. Nakajima, Y. Honda, O. Kitao, H. Nakai, 
 T. Vreven, K. Throssell, J. A. Montgomery, Jr., J. E. Peralta, 
 F. Ogliaro, M. J. Bearpark, J. J. Heyd, E. N. Brothers, K. N. Kudin, 
 V. N. Staroverov, T. A. Keith, R. Kobayashi, J. Normand, 
 K. Raghavachari, A. P. Rendell, J. C. Burant, S. S. Iyengar, 
 J. Tomasi, M. Cossi, J. M. Millam, M. Klene, C. Adamo, R. Cammi, 
 J. W. Ochterski, R. L. Martin, K. Morokuma, O. Farkas, 
 J. B. Foresman, and D. J. Fox, Gaussian, Inc., Wallingford CT, 2019.
 
 ******************************************
 Gaussian 16:  EM64L-G16RevC.01  3-Jul-2019
                 5-Sep-2022 
 ******************************************
 %nproc=16
 Will use up to   16 processors via shared memory.
 %mem=16GB
 ----------------------------------------------------------------------
 # qcisd/aug-cc-pvtz nosymm density=current pop=(chelpg,hirshfeld,npa,d
 ipole)
 ----------------------------------------------------------------------
 1/30=1,38=1,172=1/1;
 2/12=2,15=1,17=6,18=5,40=1/2;
 3/5=16,6=1,7=10,11=9,25=1,30=1,71=1/1,2,3;
 4//1;
 5/5=2,38=5/2;
 8/6=4,9=120000,10=1/1,4;
 9/5=8,15=1/13;
 11/28=-7,31=1,32=3,42=3/11;
 10/5=6,13=10,31=1/2;
 6/7=2,8=2,9=2,10=2,15=24,20=3,22=-1,40=-1,79=1/1,2,7;
 99/5=1,9=1/99;
 ------------------
 br2co-wavefunction
 ------------------
 Symbolic Z-matrix:
 Charge =  0 Multiplicity = 1
 C                     0.        0.       -0.49176 
 Br                    0.       -1.59418  -1.54682 
 Br                    0.01      1.59418  -1.54682 
 O                     0.        0.        0.6845 
 
                          Input orientation:                          
 ---------------------------------------------------------------------
 Center     Atomic      Atomic             Coordinates (Angstroms)
 Number     Number       Type             X           Y           Z
 ---------------------------------------------------------------------
      1          6           0        0.000000    0.000000   -0.491759
      2         35           0        0.000000   -1.594181   -1.546820
      3         35           0        0.010000    1.594181   -1.546820
      4          8           0        0.000000    0.000000    0.684500
 ---------------------------------------------------------------------
                    Distance matrix (angstroms):
                    1          2          3          4
     1  C    0.000000
     2  Br   1.911692   0.000000
     3  Br   1.911718   3.188378   0.000000
     4  O    1.176259   2.742299   2.742317   0.000000
 Symmetry turned off by external request.
 Stoichiometry    CBr2O
 Framework group  C1[X(CBr2O)]
 Deg. of freedom     6
 Full point group                 C1      NOp   1
 Rotational constants (GHZ):           6.2847385           1.2598814           1.0494932
 Standard basis: Aug-CC-pVTZ (5D, 7F)
   210 basis functions,   578 primitive gaussians,   248 cartesian basis functions
    42 alpha electrons       42 beta electrons
       nuclear repulsion energy       449.2301683672 Hartrees.
 NAtoms=    4 NActive=    4 NUniq=    4 SFac= 1.00D+00 NAtFMM=   60 NAOKFM=F Big=F
 Integral buffers will be    131072 words long.
 Raffenetti 1 integral format.
 Two-electron integral symmetry is turned off.
 One-electron integrals computed using PRISM.
 NBasis=   210 RedAO= T EigKep=  1.05D-04  NBF=   210
 NBsUse=   210 1.00D-06 EigRej= -1.00D+00 NBFU=   210
 ExpMin= 3.51D-02 ExpMax= 1.06D+07 ExpMxC= 1.21D+04 IAcc=3 IRadAn=         5 AccDes= 0.00D+00
 Harris functional with IExCor=  205 and IRadAn=       5 diagonalized for initial guess.
 HarFok:  IExCor=  205 AccDes= 0.00D+00 IRadAn=         5 IDoV= 1 UseB2=F ITyADJ=14
 ICtDFT=  3500011 ScaDFX=  1.000000  1.000000  1.000000  1.000000
 FoFCou: FMM=F IPFlag=           0 FMFlag=      100000 FMFlg1=           0
         NFxFlg=           0 DoJE=T BraDBF=F KetDBF=T FulRan=T
         wScrn=  0.000000 ICntrl=       500 IOpCl=  0 I1Cent=   200000004 NGrid=           0
         NMat0=    1 NMatS0=      1 NMatT0=    0 NMatD0=    1 NMtDS0=    0 NMtDT0=    0
 Symmetry not used in FoFCou.
 Keep R1 ints in memory in canonical form, NReq=258584913.
 Requested convergence on RMS density matrix=1.00D-08 within 128 cycles.
 Requested convergence on MAX density matrix=1.00D-06.
 Requested convergence on             energy=1.00D-06.
 No special actions if energy rises.
 SCF Done:  E(RHF) =  -5257.68454768     A.U. after   12 cycles
            NFock= 12  Conv=0.90D-08     -V/T= 2.0000
 ExpMin= 3.51D-02 ExpMax= 1.06D+07 ExpMxC= 1.21D+04 IAcc=3 IRadAn=         5 AccDes= 0.00D+00
 HarFok:  IExCor=  205 AccDes= 0.00D+00 IRadAn=         5 IDoV=-2 UseB2=F ITyADJ=14
 ICtDFT= 12500011 ScaDFX=  1.000000  1.000000  1.000000  1.000000
 Range of M.O.s used for correlation:    21   210
 NBasis=   210 NAE=    42 NBE=    42 NFC=    20 NFV=     0
 NROrb=    190 NOA=    22 NOB=    22 NVA=   168 NVB=   168

 **** Warning!!: The largest alpha MO coefficient is  0.28108430D+02

 Semi-Direct transformation.
 ModeAB=           2 MOrb=            22 LenV=    2146226309
 LASXX=     69628944 LTotXX=    69628944 LenRXX=    69628944
 LTotAB=    70719517 MaxLAS=   129061680 LenRXY=   129061680
 NonZer=   139257888 LenScr=   209707008 LnRSAI=           0
 LnScr1=           0 LExtra=           0 Total=    408397632
 MaxDsk=          -1 SrtSym=           F ITran=            4
 JobTyp=0 Pass  1:  I=   1 to  22.
 (rs|ai) integrals will be sorted in core.
 Spin components of T(2) and E(2):
     alpha-alpha T2 =       0.3832204043D-01 E2=     -0.1232778408D+00
     alpha-beta  T2 =       0.1924931251D+00 E2=     -0.6175056627D+00
     beta-beta   T2 =       0.3832204043D-01 E2=     -0.1232778408D+00
 ANorm=    0.1126559899D+01
 E2 =    -0.8640613444D+00 EUMP2 =    -0.52585486090239D+04
 Keep R2 and R3 ints in memory in canonical form, NReq=504031907.
 CIDS: In Core Option IDoMem=           1.
 Iterations=  50 Convergence= 0.100D-07
 Produce multiple copies of IABC intergrals
 Iteration Nr.   1
 **********************
 DD1Dir will call FoFMem   1 times, MxPair=       506
 NAB=   253 NAA=     0 NBB=     0.
 MP4(R+Q)=  0.21479242D-01
 E3=        0.13939906D-03        EUMP3=      -0.52585484696D+04
 E4(DQ)=    0.26938518D-03        UMP4(DQ)=   -0.52585482002D+04
 E4(SDQ)=  -0.11697459D-01        UMP4(SDQ)=  -0.52585601671D+04
 DE(Corr)= -0.84244270     E(Corr)=     -5258.5269904    
 NORM(A)=   0.11248485D+01
 Iteration Nr.   2
 **********************
 DD1Dir will call FoFMem   1 times, MxPair=       506
 NAB=   253 NAA=     0 NBB=     0.
 DE(Corr)= -0.87233870     E(CORR)=     -5258.5568864     Delta=-2.99D-02
 NORM(A)=   0.11352481D+01
 Iteration Nr.   3
 **********************
 DD1Dir will call FoFMem   1 times, MxPair=       506
 NAB=   253 NAA=     0 NBB=     0.
 DE(Corr)= -0.87023467     E(CORR)=     -5258.5547824     Delta= 2.10D-03
 NORM(A)=   0.11380101D+01
 Iteration Nr.   4
 **********************
 DD1Dir will call FoFMem   1 times, MxPair=       506
 NAB=   253 NAA=     0 NBB=     0.
 DE(Corr)= -0.87276502     E(CORR)=     -5258.5573127     Delta=-2.53D-03
 NORM(A)=   0.11393228D+01
 Iteration Nr.   5
 **********************
 DD1Dir will call FoFMem   1 times, MxPair=       506
 NAB=   253 NAA=     0 NBB=     0.
 DE(Corr)= -0.87313945     E(CORR)=     -5258.5576871     Delta=-3.74D-04
 NORM(A)=   0.11398377D+01
 Iteration Nr.   6
 **********************
 DD1Dir will call FoFMem   1 times, MxPair=       506
 NAB=   253 NAA=     0 NBB=     0.
 DE(Corr)= -0.87320372     E(CORR)=     -5258.5577514     Delta=-6.43D-05
 NORM(A)=   0.11399417D+01
 Iteration Nr.   7
 **********************
 DD1Dir will call FoFMem   1 times, MxPair=       506
 NAB=   253 NAA=     0 NBB=     0.
 DE(Corr)= -0.87321802     E(CORR)=     -5258.5577657     Delta=-1.43D-05
 NORM(A)=   0.11399505D+01
 Iteration Nr.   8
 **********************
 DD1Dir will call FoFMem   1 times, MxPair=       506
 NAB=   253 NAA=     0 NBB=     0.
 DE(Corr)= -0.87321836     E(CORR)=     -5258.5577660     Delta=-3.34D-07
 NORM(A)=   0.11399656D+01
 Iteration Nr.   9
 **********************
 DD1Dir will call FoFMem   1 times, MxPair=       506
 NAB=   253 NAA=     0 NBB=     0.
 DE(Corr)= -0.87321643     E(CORR)=     -5258.5577641     Delta= 1.92D-06
 NORM(A)=   0.11399655D+01
 Iteration Nr.  10
 **********************
 DD1Dir will call FoFMem   1 times, MxPair=       506
 NAB=   253 NAA=     0 NBB=     0.
 DE(Corr)= -0.87321784     E(CORR)=     -5258.5577655     Delta=-1.41D-06
 NORM(A)=   0.11399682D+01
 Iteration Nr.  11
 **********************
 DD1Dir will call FoFMem   1 times, MxPair=       506
 NAB=   253 NAA=     0 NBB=     0.
 DE(Corr)= -0.87321897     E(CORR)=     -5258.5577667     Delta=-1.13D-06
 NORM(A)=   0.11399700D+01
 Iteration Nr.  12
 **********************
 DD1Dir will call FoFMem   1 times, MxPair=       506
 NAB=   253 NAA=     0 NBB=     0.
 DE(Corr)= -0.87321929     E(CORR)=     -5258.5577670     Delta=-3.16D-07
 NORM(A)=   0.11399711D+01
 Iteration Nr.  13
 **********************
 DD1Dir will call FoFMem   1 times, MxPair=       506
 NAB=   253 NAA=     0 NBB=     0.
 DE(Corr)= -0.87321976     E(CORR)=     -5258.5577674     Delta=-4.67D-07
 NORM(A)=   0.11399718D+01
 Iteration Nr.  14
 **********************
 DD1Dir will call FoFMem   1 times, MxPair=       506
 NAB=   253 NAA=     0 NBB=     0.
 DE(Corr)= -0.87321987     E(CORR)=     -5258.5577675     Delta=-1.10D-07
 NORM(A)=   0.11399721D+01
 Iteration Nr.  15
 **********************
 DD1Dir will call FoFMem   1 times, MxPair=       506
 NAB=   253 NAA=     0 NBB=     0.
 DE(Corr)= -0.87321994     E(CORR)=     -5258.5577676     Delta=-6.98D-08
 NORM(A)=   0.11399722D+01
 Iteration Nr.  16
 **********************
 DD1Dir will call FoFMem   1 times, MxPair=       506
 NAB=   253 NAA=     0 NBB=     0.
 DE(Corr)= -0.87321996     E(CORR)=     -5258.5577676     Delta=-2.79D-08
 NORM(A)=   0.11399723D+01
 Iteration Nr.  17
 **********************
 DD1Dir will call FoFMem   1 times, MxPair=       506
 NAB=   253 NAA=     0 NBB=     0.
 DE(Corr)= -0.87321996     E(CORR)=     -5258.5577676     Delta=-1.31D-09
 NORM(A)=   0.11399723D+01
 Wavefunction amplitudes converged. E(Corr)=     -5258.5577676    
 Largest amplitude= 4.23D-02

 Z-amplitude iterations

 Iteration Nr.   1
 **********************
 DD1Dir will call FoFMem   1 times, MxPair=       506
 NAB=   253 NAA=     0 NBB=     0.
 DE(Z)= -0.84604542     E(Z)=     -5258.5305931     Delta= 2.72D-02
 NORM(A)=   0.11397700D+01
 Iteration Nr.   2
 **********************
 DD1Dir will call FoFMem   1 times, MxPair=       506
 NAB=   253 NAA=     0 NBB=     0.
 DE(Z)= -0.84604508     E(Z)=     -5258.5305928     Delta= 3.40D-07
 NORM(A)=   0.11398704D+01
 Iteration Nr.   3
 **********************
 DD1Dir will call FoFMem   1 times, MxPair=       506
 NAB=   253 NAA=     0 NBB=     0.
 DE(Z)= -0.84604529     E(Z)=     -5258.5305930     Delta=-2.03D-07
 NORM(A)=   0.11406580D+01
 Iteration Nr.   4
 **********************
 DD1Dir will call FoFMem   1 times, MxPair=       506
 NAB=   253 NAA=     0 NBB=     0.
 DE(Z)= -0.84604617     E(Z)=     -5258.5305939     Delta=-8.86D-07
 NORM(A)=   0.11397931D+01
 Iteration Nr.   5
 **********************
 DD1Dir will call FoFMem   1 times, MxPair=       506
 NAB=   253 NAA=     0 NBB=     0.
 DE(Z)= -0.84604470     E(Z)=     -5258.5305924     Delta= 1.47D-06
 NORM(A)=   0.11301165D+01
 Iteration Nr.   6
 **********************
 DD1Dir will call FoFMem   1 times, MxPair=       506
 NAB=   253 NAA=     0 NBB=     0.
 DE(Z)= -0.84601972     E(Z)=     -5258.5305674     Delta= 2.50D-05
 NORM(A)=   0.11301196D+01
 Iteration Nr.   7
 **********************
 DD1Dir will call FoFMem   1 times, MxPair=       506
 NAB=   253 NAA=     0 NBB=     0.
 DE(Z)= -0.84601018     E(Z)=     -5258.5305579     Delta= 9.54D-06
 NORM(A)=   0.11301192D+01
 Iteration Nr.   8
 **********************
 DD1Dir will call FoFMem   1 times, MxPair=       506
 NAB=   253 NAA=     0 NBB=     0.
 DE(Z)= -0.84601337     E(Z)=     -5258.5305610     Delta=-3.19D-06
 NORM(A)=   0.11301196D+01
 Iteration Nr.   9
 **********************
 DD1Dir will call FoFMem   1 times, MxPair=       506
 NAB=   253 NAA=     0 NBB=     0.
 DE(Z)= -0.84601328     E(Z)=     -5258.5305610     Delta= 8.54D-08
 NORM(A)=   0.11301198D+01
 Iteration Nr.  10
 **********************
 DD1Dir will call FoFMem   1 times, MxPair=       506
 NAB=   253 NAA=     0 NBB=     0.
 DE(Z)= -0.84601324     E(Z)=     -5258.5305609     Delta= 4.14D-08
 NORM(A)=   0.11301199D+01
 Iteration Nr.  11
 **********************
 DD1Dir will call FoFMem   1 times, MxPair=       506
 NAB=   253 NAA=     0 NBB=     0.
 DE(Z)= -0.84601327     E(Z)=     -5258.5305610     Delta=-3.23D-08
 NORM(A)=   0.11301199D+01
 Iteration Nr.  12
 **********************
 DD1Dir will call FoFMem   1 times, MxPair=       506
 NAB=   253 NAA=     0 NBB=     0.
 DE(Z)= -0.84601328     E(Z)=     -5258.5305610     Delta=-6.82D-09
 NORM(A)=   0.11301200D+01
 Z-amplitudes converged.
 Discarding MO integrals.
          Differentiating once with respect to electric field.
                with respect to dipole field.
          Electric field/nuclear overlap derivatives assumed to be zero.
 Keep R1 ints in memory in canonical form, NReq=258592272.
          There are     1 degrees of freedom in the 1st order CPHF.  IDoFFX=0 NUNeed=     1.
 LinEq1:  Iter=  0 NonCon=     1 RMS=1.95D-03 Max=5.61D-02 NDo=     1
 AX will form     1 AO Fock derivatives at one time.
 LinEq1:  Iter=  1 NonCon=     1 RMS=7.40D-04 Max=2.61D-02 NDo=     1
 LinEq1:  Iter=  2 NonCon=     1 RMS=3.09D-04 Max=9.34D-03 NDo=     1
 LinEq1:  Iter=  3 NonCon=     1 RMS=1.03D-04 Max=2.97D-03 NDo=     1
 LinEq1:  Iter=  4 NonCon=     1 RMS=5.33D-05 Max=1.64D-03 NDo=     1
 LinEq1:  Iter=  5 NonCon=     1 RMS=1.64D-05 Max=4.65D-04 NDo=     1
 LinEq1:  Iter=  6 NonCon=     1 RMS=6.29D-06 Max=1.31D-04 NDo=     1
 LinEq1:  Iter=  7 NonCon=     1 RMS=1.35D-06 Max=2.12D-05 NDo=     1
 LinEq1:  Iter=  8 NonCon=     1 RMS=2.69D-07 Max=4.30D-06 NDo=     1
 LinEq1:  Iter=  9 NonCon=     1 RMS=6.50D-08 Max=1.21D-06 NDo=     1
 LinEq1:  Iter= 10 NonCon=     1 RMS=1.39D-08 Max=2.08D-07 NDo=     1
 LinEq1:  Iter= 11 NonCon=     1 RMS=3.90D-09 Max=9.55D-08 NDo=     1
 LinEq1:  Iter= 12 NonCon=     1 RMS=7.18D-10 Max=1.62D-08 NDo=     1
 LinEq1:  Iter= 13 NonCon=     1 RMS=1.20D-10 Max=2.63D-09 NDo=     1
 LinEq1:  Iter= 14 NonCon=     0 RMS=1.87D-11 Max=4.30D-10 NDo=     1
 Linear equations converged to 1.000D-10 1.000D-09 after    14 iterations.
 End of Minotr F.D. properties file   721 does not exist.
 End of Minotr F.D. properties file   722 does not exist.
 End of Minotr F.D. properties file   788 does not exist.

 **********************************************************************

            Population analysis using the CC Density.

 **********************************************************************

 Alpha  occ. eigenvalues -- -490.06638-490.06638 -65.20633 -65.20633 -58.56165
 Alpha  occ. eigenvalues --  -58.56165 -58.56015 -58.56014 -58.55998 -58.55998
 Alpha  occ. eigenvalues --  -20.62832 -11.46325  -9.87940  -9.87939  -7.49128
 Alpha  occ. eigenvalues --   -7.49127  -7.48407  -7.48406  -7.48336  -7.48335
 Alpha  occ. eigenvalues --   -3.23522  -3.23522  -3.23165  -3.23163  -3.23069
 Alpha  occ. eigenvalues --   -3.23068  -3.22160  -3.22159  -3.22158  -3.22157
 Alpha  occ. eigenvalues --   -1.48400  -1.10817  -1.04780  -0.79379  -0.68342
 Alpha  occ. eigenvalues --   -0.67614  -0.63062  -0.47900  -0.46167  -0.45791
 Alpha  occ. eigenvalues --   -0.45104  -0.43156
 Alpha virt. eigenvalues --    0.03790   0.05638   0.07006   0.07544   0.08199
 Alpha virt. eigenvalues --    0.09327   0.09994   0.10256   0.10940   0.11868
 Alpha virt. eigenvalues --    0.13018   0.13181   0.17481   0.19374   0.21889
 Alpha virt. eigenvalues --    0.22372   0.23248   0.24159   0.25848   0.26652
 Alpha virt. eigenvalues --    0.27523   0.28944   0.31893   0.32940   0.35605
 Alpha virt. eigenvalues --    0.36769   0.37009   0.39727   0.41344   0.43786
 Alpha virt. eigenvalues --    0.44681   0.46414   0.46632   0.49566   0.49659
 Alpha virt. eigenvalues --    0.52593   0.55724   0.56293   0.58706   0.60139
 Alpha virt. eigenvalues --    0.60836   0.63136   0.69493   0.70120   0.71486
 Alpha virt. eigenvalues --    0.71870   0.74566   0.75884   0.77553   0.78530
 Alpha virt. eigenvalues --    0.79395   0.82305   0.83576   0.85027   0.88438
 Alpha virt. eigenvalues --    0.88445   0.89892   0.90089   0.91468   0.93823
 Alpha virt. eigenvalues --    0.94754   0.98082   1.00453   1.01613   1.02914
 Alpha virt. eigenvalues --    1.05486   1.06676   1.11242   1.13075   1.13256
 Alpha virt. eigenvalues --    1.17145   1.17716   1.18750   1.30605   1.34477
 Alpha virt. eigenvalues --    1.36373   1.36482   1.40584   1.43882   1.44824
 Alpha virt. eigenvalues --    1.44905   1.45490   1.51424   1.52388   1.53186
 Alpha virt. eigenvalues --    1.62939   1.63528   1.70600   1.74582   1.79848
 Alpha virt. eigenvalues --    1.95198   2.10714   2.16502   2.17064   2.17669
 Alpha virt. eigenvalues --    2.19031   2.23325   2.24531   2.25294   2.26799
 Alpha virt. eigenvalues --    2.27143   2.27412   2.28645   2.28996   2.29667
 Alpha virt. eigenvalues --    2.30141   2.32565   2.32677   2.32727   2.34003
 Alpha virt. eigenvalues --    2.35705   2.36370   2.37244   2.37821   2.38003
 Alpha virt. eigenvalues --    2.39337   2.39351   2.40508   2.46608   2.48752
 Alpha virt. eigenvalues --    2.53272   2.55810   2.58670   2.59596   2.67062
 Alpha virt. eigenvalues --    2.70573   2.72924   2.76500   2.78577   2.88193
 Alpha virt. eigenvalues --    2.93452   2.97604   3.01162   3.09869   3.48933
 Alpha virt. eigenvalues --    3.58148   3.59186   3.59771   3.61823   3.67587
 Alpha virt. eigenvalues --    3.73503   3.83762   3.86412   3.89896   3.96058
 Alpha virt. eigenvalues --    4.12138   4.13802   4.48762   4.50079   5.01186
 Alpha virt. eigenvalues --    5.12634   5.14788   5.33904   5.47828   6.57477
 Alpha virt. eigenvalues --    6.58685   6.86255   6.88077   7.04534   7.16241
 Alpha virt. eigenvalues --    7.16985   7.22099   7.37319   7.49969   7.67773
 Alpha virt. eigenvalues --    7.68204  13.54919  15.29190
          Condensed to atoms (all electrons):
               1          2          3          4
     1  C    5.559191   0.025729   0.025749   0.239657
     2  Br   0.025729  35.045286  -0.118493  -0.056256
     3  Br   0.025749  -0.118493  35.045296  -0.056254
     4  O    0.239657  -0.056256  -0.056254   8.229963
 Mulliken charges:
               1
     1  C    0.149675
     2  Br   0.103734
     3  Br   0.103701
     4  O   -0.357110
 Sum of Mulliken charges =  -0.00000
 Mulliken charges with hydrogens summed into heavy atoms:
               1
     1  C    0.149675
     2  Br   0.103734
     3  Br   0.103701
     4  O   -0.357110
 Electronic spatial extent (au):  <R**2>=           1355.6287
 Charge=             -0.0000 electrons
 Dipole moment (field-independent basis, Debye):
    X=              0.0012    Y=             -0.0001    Z=             -1.2403  Tot=              1.2403
 Quadrupole moment (field-independent basis, Debye-Ang):
   XX=            -46.9633   YY=            -44.9358   ZZ=            -47.5253
   XY=              0.0064   XZ=             -0.0071   YZ=              0.0002
 Traceless Quadrupole moment (field-independent basis, Debye-Ang):
   XX=             -0.4885   YY=              1.5390   ZZ=             -1.0505
   XY=              0.0064   XZ=             -0.0071   YZ=              0.0002
 Octapole moment (field-independent basis, Debye-Ang**2):
  XXX=             -0.5522  YYY=             -0.0009  ZZZ=            164.8165  XYY=             -0.1288
  XXY=              0.0002  XXZ=             56.3133  XZZ=             -0.1538  YZZ=             -0.0005
  YYZ=             45.7172  XYZ=             -0.0332
 Hexadecapole moment (field-independent basis, Debye-Ang**3):
 XXXX=            -53.7085 YYYY=           -570.9360 ZZZZ=           -597.1031 XXXY=             -0.8794
 XXXZ=              0.8501 YYYX=             -0.7429 YYYZ=              0.0017 ZZZX=              0.7703
 ZZZY=              0.0014 XXYY=           -111.3613 XXZZ=           -110.4176 YYZZ=           -175.0977
 XXYZ=             -0.0007 YYXZ=              0.1441 ZZXY=             -0.2029
 N-N= 4.492301683672D+02 E-N=-1.347021784514D+04  KE= 5.257230170861D+03
 There are a total of      108140 grid points.
 ElSum from          density=       84.0000032557
 ElSum from atomic densities=       84.0000018029

 Hirshfeld populations at iteration   1 (CX, CA, CB, DipXYZ):
               1          2          3          4          5          6
     1  C    0.000001   2.915457   2.915457  -0.001043   0.000004  -0.028360
     2  Br   0.000015  17.498114  17.498114   0.000386  -0.071281  -0.008014
     3  Br   0.000015  17.498121  17.498121   0.000834   0.071276  -0.008011
     4  O    0.000008   4.088310   4.088310   0.000229  -0.000001  -0.035990
       Tot   0.000039  42.000002  42.000002   0.000406  -0.000002  -0.080374

 Dip from Atomic Chgs              0.000071  -0.000045  -0.407605
         Total Dipole              0.000477  -0.000047  -0.487979

 Hirshfeld charges, spin densities, dipoles, and CM5 charges using IRadAn=      5:
              Q-H        S-H        Dx         Dy         Dz        Q-CM5   
     1  C    0.169086   0.000000  -0.001043   0.000004  -0.028360   0.181642
     2  Br   0.003773   0.000000   0.000386  -0.071281  -0.008014   0.022220
     3  Br   0.003758   0.000000   0.000834   0.071276  -0.008011   0.022204
     4  O   -0.176620   0.000000   0.000229  -0.000001  -0.035990  -0.226069
       Tot  -0.000003   0.000000   0.000406  -0.000002  -0.080374  -0.000003
 Hirshfeld charges with hydrogens summed into heavy atoms:
              Q-H       Q-CM5   
     1  C    0.169086   0.181642
     2  Br   0.003773   0.022220
     3  Br   0.003758   0.022204
     4  O   -0.176620  -0.226069
 
 EQQ= 0.000000000000E+00 EQD= 0.000000000000E+00 EDD= 0.837389016419E-04
 EQQ+QD+DD= 0.837389016419E-04
 
 Breneman (CHELPG) radii used.
 GetVDW:  no radius for atom   2 atomic number  35.
 Error termination via Lnk1e in /home/wagner/chemistry/gaussian/g16/l602.exe at Mon Sep  5 05:39:53 2022.
 Job cpu time:       0 days 13 hours 18 minutes 35.7 seconds.
 Elapsed time:       0 days  0 hours 50 minutes 21.7 seconds.
 File lengths (MBytes):  RWF=  29492 Int=      0 D2E=      0 Chk=      2 Scr=      1
