 Entering Gaussian System, Link 0=/home/wagner/chemistry/gaussian/g16/g16
 Input=GAUSSIAN.com
 Output=GAUSSIAN.log
 Initial command:
 /home/wagner/chemistry/gaussian/g16/l1.exe "/home/wagner/chemistry/gaussian/work/Gau-61848.inp" -scrdir="/home/wagner/chemistry/gaussian/work/"
 Entering Link 1 = /home/wagner/chemistry/gaussian/g16/l1.exe PID=     61850.
  
 Copyright (c) 1988-2019, Gaussian, Inc.  All Rights Reserved.
  
 This is part of the Gaussian(R) 16 program.  It is based on
 the Gaussian(R) 09 system (copyright 2009, Gaussian, Inc.),
 the Gaussian(R) 03 system (copyright 2003, Gaussian, Inc.),
 the Gaussian(R) 98 system (copyright 1998, Gaussian, Inc.),
 the Gaussian(R) 94 system (copyright 1995, Gaussian, Inc.),
 the Gaussian 92(TM) system (copyright 1992, Gaussian, Inc.),
 the Gaussian 90(TM) system (copyright 1990, Gaussian, Inc.),
 the Gaussian 88(TM) system (copyright 1988, Gaussian, Inc.),
 the Gaussian 86(TM) system (copyright 1986, Carnegie Mellon
 University), and the Gaussian 82(TM) system (copyright 1983,
 Carnegie Mellon University). Gaussian is a federally registered
 trademark of Gaussian, Inc.
  
 This software contains proprietary and confidential information,
 including trade secrets, belonging to Gaussian, Inc.
  
 This software is provided under written license and may be
 used, copied, transmitted, or stored only in accord with that
 written license.
  
 The following legend is applicable only to US Government
 contracts under FAR:
  
                    RESTRICTED RIGHTS LEGEND
  
 Use, reproduction and disclosure by the US Government is
 subject to restrictions as set forth in subparagraphs (a)
 and (c) of the Commercial Computer Software - Restricted
 Rights clause in FAR 52.227-19.
  
 Gaussian, Inc.
 340 Quinnipiac St., Bldg. 40, Wallingford CT 06492
  
  
 ---------------------------------------------------------------
 Warning -- This program may not be used in any manner that
 competes with the business of Gaussian, Inc. or will provide
 assistance to any competitor of Gaussian, Inc.  The licensee
 of this program is prohibited from giving any competitor of
 Gaussian, Inc. access to this program.  By using this program,
 the user acknowledges that Gaussian, Inc. is engaged in the
 business of creating and licensing software in the field of
 computational chemistry and represents and warrants to the
 licensee that it is not a competitor of Gaussian, Inc. and that
 it will not use this program in any manner prohibited above.
 ---------------------------------------------------------------
  

 Cite this work as:
 Gaussian 16, Revision C.01,
 M. J. Frisch, G. W. Trucks, H. B. Schlegel, G. E. Scuseria, 
 M. A. Robb, J. R. Cheeseman, G. Scalmani, V. Barone, 
 G. A. Petersson, H. Nakatsuji, X. Li, M. Caricato, A. V. Marenich, 
 J. Bloino, B. G. Janesko, R. Gomperts, B. Mennucci, H. P. Hratchian, 
 J. V. Ortiz, A. F. Izmaylov, J. L. Sonnenberg, D. Williams-Young, 
 F. Ding, F. Lipparini, F. Egidi, J. Goings, B. Peng, A. Petrone, 
 T. Henderson, D. Ranasinghe, V. G. Zakrzewski, J. Gao, N. Rega, 
 G. Zheng, W. Liang, M. Hada, M. Ehara, K. Toyota, R. Fukuda, 
 J. Hasegawa, M. Ishida, T. Nakajima, Y. Honda, O. Kitao, H. Nakai, 
 T. Vreven, K. Throssell, J. A. Montgomery, Jr., J. E. Peralta, 
 F. Ogliaro, M. J. Bearpark, J. J. Heyd, E. N. Brothers, K. N. Kudin, 
 V. N. Staroverov, T. A. Keith, R. Kobayashi, J. Normand, 
 K. Raghavachari, A. P. Rendell, J. C. Burant, S. S. Iyengar, 
 J. Tomasi, M. Cossi, J. M. Millam, M. Klene, C. Adamo, R. Cammi, 
 J. W. Ochterski, R. L. Martin, K. Morokuma, O. Farkas, 
 J. B. Foresman, and D. J. Fox, Gaussian, Inc., Wallingford CT, 2019.
 
 ******************************************
 Gaussian 16:  EM64L-G16RevC.01  3-Jul-2019
                 4-Sep-2022 
 ******************************************
 %nproc=16
 Will use up to   16 processors via shared memory.
 %mem=16GB
 ----------------------------------------------------------------------
 # qcisd/aug-cc-pvtz nosymm density=current pop=(chelpg,hirshfeld,npa,d
 ipole)
 ----------------------------------------------------------------------
 1/30=1,38=1,172=1/1;
 2/12=2,15=1,17=6,18=5,40=1/2;
 3/5=16,6=1,7=10,11=9,25=1,30=1,71=1/1,2,3;
 4//1;
 5/5=2,38=5/2;
 8/6=4,9=120000,10=1/1,4;
 9/5=8,15=1/13;
 11/28=-7,31=1,32=3,42=3/11;
 10/5=6,13=10,31=1/2;
 6/7=2,8=2,9=2,10=2,15=24,20=3,22=-1,40=-1,79=1/1,2,7;
 99/5=1,9=1/99;
 ------------------
 br2co-wavefunction
 ------------------
 Symbolic Z-matrix:
 Charge =  0 Multiplicity = 1
 C                     0.        0.       -0.50176 
 Br                    0.       -1.59418  -1.54682 
 Br                    0.        1.59418  -1.54682 
 O                     0.        0.        0.6845 
 
                          Input orientation:                          
 ---------------------------------------------------------------------
 Center     Atomic      Atomic             Coordinates (Angstroms)
 Number     Number       Type             X           Y           Z
 ---------------------------------------------------------------------
      1          6           0        0.000000    0.000000   -0.501759
      2         35           0        0.000000   -1.594181   -1.546820
      3         35           0        0.000000    1.594181   -1.546820
      4          8           0        0.000000    0.000000    0.684500
 ---------------------------------------------------------------------
                    Distance matrix (angstroms):
                    1          2          3          4
     1  C    0.000000
     2  Br   1.906191   0.000000
     3  Br   1.906191   3.188362   0.000000
     4  O    1.186259   2.742299   2.742299   0.000000
 Symmetry turned off by external request.
 Stoichiometry    CBr2O
 Framework group  C2V[C2(CO),SGV(Br2)]
 Deg. of freedom     3
 Full point group                 C2V     NOp   4
 Rotational constants (GHZ):           6.2996421           1.2598941           1.0499165
 Standard basis: Aug-CC-pVTZ (5D, 7F)
   210 basis functions,   578 primitive gaussians,   248 cartesian basis functions
    42 alpha electrons       42 beta electrons
       nuclear repulsion energy       449.3857821776 Hartrees.
 NAtoms=    4 NActive=    4 NUniq=    4 SFac= 1.00D+00 NAtFMM=   60 NAOKFM=F Big=F
 Integral buffers will be    131072 words long.
 Raffenetti 1 integral format.
 Two-electron integral symmetry is turned off.
 One-electron integrals computed using PRISM.
 NBasis=   210 RedAO= T EigKep=  1.04D-04  NBF=   210
 NBsUse=   210 1.00D-06 EigRej= -1.00D+00 NBFU=   210
 ExpMin= 3.51D-02 ExpMax= 1.06D+07 ExpMxC= 1.21D+04 IAcc=3 IRadAn=         5 AccDes= 0.00D+00
 Harris functional with IExCor=  205 and IRadAn=       5 diagonalized for initial guess.
 HarFok:  IExCor=  205 AccDes= 0.00D+00 IRadAn=         5 IDoV= 1 UseB2=F ITyADJ=14
 ICtDFT=  3500011 ScaDFX=  1.000000  1.000000  1.000000  1.000000
 FoFCou: FMM=F IPFlag=           0 FMFlag=      100000 FMFlg1=           0
         NFxFlg=           0 DoJE=T BraDBF=F KetDBF=T FulRan=T
         wScrn=  0.000000 ICntrl=       500 IOpCl=  0 I1Cent=   200000004 NGrid=           0
         NMat0=    1 NMatS0=      1 NMatT0=    0 NMatD0=    1 NMtDS0=    0 NMtDT0=    0
 Symmetry not used in FoFCou.
 Keep R1 ints in memory in canonical form, NReq=258584884.
 Requested convergence on RMS density matrix=1.00D-08 within 128 cycles.
 Requested convergence on MAX density matrix=1.00D-06.
 Requested convergence on             energy=1.00D-06.
 No special actions if energy rises.
 SCF Done:  E(RHF) =  -5257.68348053     A.U. after   12 cycles
            NFock= 12  Conv=0.94D-08     -V/T= 2.0000
 ExpMin= 3.51D-02 ExpMax= 1.06D+07 ExpMxC= 1.21D+04 IAcc=3 IRadAn=         5 AccDes= 0.00D+00
 HarFok:  IExCor=  205 AccDes= 0.00D+00 IRadAn=         5 IDoV=-2 UseB2=F ITyADJ=14
 ICtDFT= 12500011 ScaDFX=  1.000000  1.000000  1.000000  1.000000
 Range of M.O.s used for correlation:    21   210
 NBasis=   210 NAE=    42 NBE=    42 NFC=    20 NFV=     0
 NROrb=    190 NOA=    22 NOB=    22 NVA=   168 NVB=   168

 **** Warning!!: The largest alpha MO coefficient is  0.28144060D+02

 Semi-Direct transformation.
 ModeAB=           2 MOrb=            22 LenV=    2146226211
 LASXX=     69628944 LTotXX=    69628944 LenRXX=    69628944
 LTotAB=    70719517 MaxLAS=   129061680 LenRXY=   129061680
 NonZer=   139257888 LenScr=   209707008 LnRSAI=           0
 LnScr1=           0 LExtra=           0 Total=    408397632
 MaxDsk=          -1 SrtSym=           F ITran=            4
 JobTyp=0 Pass  1:  I=   1 to  22.
 (rs|ai) integrals will be sorted in core.
 Spin components of T(2) and E(2):
     alpha-alpha T2 =       0.3844688740D-01 E2=     -0.1234512309D+00
     alpha-beta  T2 =       0.1930542510D+00 E2=     -0.6182994555D+00
     beta-beta   T2 =       0.3844688740D-01 E2=     -0.1234512309D+00
 ANorm=    0.1126919707D+01
 E2 =    -0.8652019174D+00 EUMP2 =    -0.52585486824434D+04
 Keep R2 and R3 ints in memory in canonical form, NReq=504031878.
 CIDS: In Core Option IDoMem=           1.
 Iterations=  50 Convergence= 0.100D-07
 Produce multiple copies of IABC intergrals
 Iteration Nr.   1
 **********************
 DD1Dir will call FoFMem   1 times, MxPair=       506
 NAB=   253 NAA=     0 NBB=     0.
 MP4(R+Q)=  0.21537104D-01
 E3=        0.65146468D-03        EUMP3=      -0.52585480310D+04
 E4(DQ)=    0.11612081D-03        UMP4(DQ)=   -0.52585479149D+04
 E4(SDQ)=  -0.12020788D-01        UMP4(SDQ)=  -0.52585600518D+04
 DE(Corr)= -0.84301335     E(Corr)=     -5258.5264939    
 NORM(A)=   0.11250656D+01
 Iteration Nr.   2
 **********************
 DD1Dir will call FoFMem   1 times, MxPair=       506
 NAB=   253 NAA=     0 NBB=     0.
 DE(Corr)= -0.87327646     E(CORR)=     -5258.5567570     Delta=-3.03D-02
 NORM(A)=   0.11355565D+01
 Iteration Nr.   3
 **********************
 DD1Dir will call FoFMem   1 times, MxPair=       506
 NAB=   253 NAA=     0 NBB=     0.
 DE(Corr)= -0.87106749     E(CORR)=     -5258.5545480     Delta= 2.21D-03
 NORM(A)=   0.11383871D+01
 Iteration Nr.   4
 **********************
 DD1Dir will call FoFMem   1 times, MxPair=       506
 NAB=   253 NAA=     0 NBB=     0.
 DE(Corr)= -0.87365161     E(CORR)=     -5258.5571321     Delta=-2.58D-03
 NORM(A)=   0.11397416D+01
 Iteration Nr.   5
 **********************
 DD1Dir will call FoFMem   1 times, MxPair=       506
 NAB=   253 NAA=     0 NBB=     0.
 DE(Corr)= -0.87403984     E(CORR)=     -5258.5575204     Delta=-3.88D-04
 NORM(A)=   0.11402740D+01
 Iteration Nr.   6
 **********************
 DD1Dir will call FoFMem   1 times, MxPair=       506
 NAB=   253 NAA=     0 NBB=     0.
 DE(Corr)= -0.87410624     E(CORR)=     -5258.5575868     Delta=-6.64D-05
 NORM(A)=   0.11403831D+01
 Iteration Nr.   7
 **********************
 DD1Dir will call FoFMem   1 times, MxPair=       506
 NAB=   253 NAA=     0 NBB=     0.
 DE(Corr)= -0.87412110     E(CORR)=     -5258.5576016     Delta=-1.49D-05
 NORM(A)=   0.11403911D+01
 Iteration Nr.   8
 **********************
 DD1Dir will call FoFMem   1 times, MxPair=       506
 NAB=   253 NAA=     0 NBB=     0.
 DE(Corr)= -0.87412197     E(CORR)=     -5258.5576025     Delta=-8.72D-07
 NORM(A)=   0.11404067D+01
 Iteration Nr.   9
 **********************
 DD1Dir will call FoFMem   1 times, MxPair=       506
 NAB=   253 NAA=     0 NBB=     0.
 DE(Corr)= -0.87411958     E(CORR)=     -5258.5576001     Delta= 2.39D-06
 NORM(A)=   0.11404063D+01
 Iteration Nr.  10
 **********************
 DD1Dir will call FoFMem   1 times, MxPair=       506
 NAB=   253 NAA=     0 NBB=     0.
 DE(Corr)= -0.87412122     E(CORR)=     -5258.5576017     Delta=-1.64D-06
 NORM(A)=   0.11404091D+01
 Iteration Nr.  11
 **********************
 DD1Dir will call FoFMem   1 times, MxPair=       506
 NAB=   253 NAA=     0 NBB=     0.
 DE(Corr)= -0.87412228     E(CORR)=     -5258.5576028     Delta=-1.06D-06
 NORM(A)=   0.11404110D+01
 Iteration Nr.  12
 **********************
 DD1Dir will call FoFMem   1 times, MxPair=       506
 NAB=   253 NAA=     0 NBB=     0.
 DE(Corr)= -0.87412266     E(CORR)=     -5258.5576032     Delta=-3.82D-07
 NORM(A)=   0.11404121D+01
 Iteration Nr.  13
 **********************
 DD1Dir will call FoFMem   1 times, MxPair=       506
 NAB=   253 NAA=     0 NBB=     0.
 DE(Corr)= -0.87412314     E(CORR)=     -5258.5576037     Delta=-4.78D-07
 NORM(A)=   0.11404129D+01
 Iteration Nr.  14
 **********************
 DD1Dir will call FoFMem   1 times, MxPair=       506
 NAB=   253 NAA=     0 NBB=     0.
 DE(Corr)= -0.87412326     E(CORR)=     -5258.5576038     Delta=-1.25D-07
 NORM(A)=   0.11404132D+01
 Iteration Nr.  15
 **********************
 DD1Dir will call FoFMem   1 times, MxPair=       506
 NAB=   253 NAA=     0 NBB=     0.
 DE(Corr)= -0.87412334     E(CORR)=     -5258.5576039     Delta=-7.38D-08
 NORM(A)=   0.11404134D+01
 Iteration Nr.  16
 **********************
 DD1Dir will call FoFMem   1 times, MxPair=       506
 NAB=   253 NAA=     0 NBB=     0.
 DE(Corr)= -0.87412337     E(CORR)=     -5258.5576039     Delta=-3.17D-08
 NORM(A)=   0.11404135D+01
 Iteration Nr.  17
 **********************
 DD1Dir will call FoFMem   1 times, MxPair=       506
 NAB=   253 NAA=     0 NBB=     0.
 DE(Corr)= -0.87412337     E(CORR)=     -5258.5576039     Delta= 1.71D-09
 NORM(A)=   0.11404135D+01
 Wavefunction amplitudes converged. E(Corr)=     -5258.5576039    
 Largest amplitude= 4.56D-02

 Z-amplitude iterations

 Iteration Nr.   1
 **********************
 DD1Dir will call FoFMem   1 times, MxPair=       506
 NAB=   253 NAA=     0 NBB=     0.
 DE(Z)= -0.84682400     E(Z)=     -5258.5303045     Delta= 2.73D-02
 NORM(A)=   0.11403987D+01
 Iteration Nr.   2
 **********************
 DD1Dir will call FoFMem   1 times, MxPair=       506
 NAB=   253 NAA=     0 NBB=     0.
 DE(Z)= -0.84682399     E(Z)=     -5258.5303045     Delta= 9.31D-09
 NORM(A)=   0.11402474D+01
 Iteration Nr.   3
 **********************
 DD1Dir will call FoFMem   1 times, MxPair=       506
 NAB=   253 NAA=     0 NBB=     0.
 DE(Z)= -0.84682394     E(Z)=     -5258.5303045     Delta= 4.47D-08
 NORM(A)=   0.11403919D+01
 Iteration Nr.   4
 **********************
 DD1Dir will call FoFMem   1 times, MxPair=       506
 NAB=   253 NAA=     0 NBB=     0.
 DE(Z)= -0.84682400     E(Z)=     -5258.5303045     Delta=-5.46D-08
 NORM(A)=   0.11403863D+01
 Iteration Nr.   5
 **********************
 DD1Dir will call FoFMem   1 times, MxPair=       506
 NAB=   253 NAA=     0 NBB=     0.
 DE(Z)= -0.84682391     E(Z)=     -5258.5303044     Delta= 8.10D-08
 NORM(A)=   0.11305110D+01
 Iteration Nr.   6
 **********************
 DD1Dir will call FoFMem   1 times, MxPair=       506
 NAB=   253 NAA=     0 NBB=     0.
 DE(Z)= -0.84680538     E(Z)=     -5258.5302859     Delta= 1.85D-05
 NORM(A)=   0.11305115D+01
 Iteration Nr.   7
 **********************
 DD1Dir will call FoFMem   1 times, MxPair=       506
 NAB=   253 NAA=     0 NBB=     0.
 DE(Z)= -0.84680186     E(Z)=     -5258.5302824     Delta= 3.51D-06
 NORM(A)=   0.11305123D+01
 Iteration Nr.   8
 **********************
 DD1Dir will call FoFMem   1 times, MxPair=       506
 NAB=   253 NAA=     0 NBB=     0.
 DE(Z)= -0.84680277     E(Z)=     -5258.5302833     Delta=-9.03D-07
 NORM(A)=   0.11305128D+01
 Iteration Nr.   9
 **********************
 DD1Dir will call FoFMem   1 times, MxPair=       506
 NAB=   253 NAA=     0 NBB=     0.
 DE(Z)= -0.84680244     E(Z)=     -5258.5302830     Delta= 3.30D-07
 NORM(A)=   0.11305131D+01
 Iteration Nr.  10
 **********************
 DD1Dir will call FoFMem   1 times, MxPair=       506
 NAB=   253 NAA=     0 NBB=     0.
 DE(Z)= -0.84680240     E(Z)=     -5258.5302829     Delta= 3.22D-08
 NORM(A)=   0.11305132D+01
 Iteration Nr.  11
 **********************
 DD1Dir will call FoFMem   1 times, MxPair=       506
 NAB=   253 NAA=     0 NBB=     0.
 DE(Z)= -0.84680249     E(Z)=     -5258.5302830     Delta=-8.65D-08
 NORM(A)=   0.11305133D+01
 Iteration Nr.  12
 **********************
 DD1Dir will call FoFMem   1 times, MxPair=       506
 NAB=   253 NAA=     0 NBB=     0.
 DE(Z)= -0.84680249     E(Z)=     -5258.5302830     Delta= 7.63D-10
 NORM(A)=   0.11305133D+01
 Z-amplitudes converged.
 Discarding MO integrals.
          Differentiating once with respect to electric field.
                with respect to dipole field.
          Electric field/nuclear overlap derivatives assumed to be zero.
 Keep R1 ints in memory in canonical form, NReq=258592620.
          There are     1 degrees of freedom in the 1st order CPHF.  IDoFFX=0 NUNeed=     1.
 LinEq1:  Iter=  0 NonCon=     1 RMS=1.96D-03 Max=5.94D-02 NDo=     1
 AX will form     1 AO Fock derivatives at one time.
 LinEq1:  Iter=  1 NonCon=     1 RMS=7.44D-04 Max=2.59D-02 NDo=     1
 LinEq1:  Iter=  2 NonCon=     1 RMS=3.12D-04 Max=9.77D-03 NDo=     1
 LinEq1:  Iter=  3 NonCon=     1 RMS=1.04D-04 Max=3.22D-03 NDo=     1
 LinEq1:  Iter=  4 NonCon=     1 RMS=5.42D-05 Max=1.64D-03 NDo=     1
 LinEq1:  Iter=  5 NonCon=     1 RMS=1.66D-05 Max=4.69D-04 NDo=     1
 LinEq1:  Iter=  6 NonCon=     1 RMS=6.40D-06 Max=1.37D-04 NDo=     1
 LinEq1:  Iter=  7 NonCon=     1 RMS=1.38D-06 Max=2.20D-05 NDo=     1
 LinEq1:  Iter=  8 NonCon=     1 RMS=2.77D-07 Max=4.53D-06 NDo=     1
 LinEq1:  Iter=  9 NonCon=     1 RMS=6.79D-08 Max=1.22D-06 NDo=     1
 LinEq1:  Iter= 10 NonCon=     1 RMS=1.45D-08 Max=2.30D-07 NDo=     1
 LinEq1:  Iter= 11 NonCon=     1 RMS=4.10D-09 Max=9.92D-08 NDo=     1
 LinEq1:  Iter= 12 NonCon=     1 RMS=7.54D-10 Max=1.69D-08 NDo=     1
 LinEq1:  Iter= 13 NonCon=     1 RMS=1.24D-10 Max=2.82D-09 NDo=     1
 LinEq1:  Iter= 14 NonCon=     0 RMS=1.86D-11 Max=4.20D-10 NDo=     1
 Linear equations converged to 1.000D-10 1.000D-09 after    14 iterations.
 End of Minotr F.D. properties file   721 does not exist.
 End of Minotr F.D. properties file   722 does not exist.
 End of Minotr F.D. properties file   788 does not exist.

 **********************************************************************

            Population analysis using the CC Density.

 **********************************************************************

 Alpha  occ. eigenvalues -- -490.06732-490.06732 -65.20727 -65.20727 -58.56259
 Alpha  occ. eigenvalues --  -58.56259 -58.56109 -58.56109 -58.56092 -58.56092
 Alpha  occ. eigenvalues --  -20.62651 -11.46390  -9.88037  -9.88036  -7.49226
 Alpha  occ. eigenvalues --   -7.49226  -7.48504  -7.48504  -7.48432  -7.48431
 Alpha  occ. eigenvalues --   -3.23622  -3.23622  -3.23263  -3.23262  -3.23166
 Alpha  occ. eigenvalues --   -3.23165  -3.22256  -3.22255  -3.22254  -3.22253
 Alpha  occ. eigenvalues --   -1.47563  -1.11006  -1.04927  -0.79291  -0.68029
 Alpha  occ. eigenvalues --   -0.67429  -0.62612  -0.47936  -0.46131  -0.45925
 Alpha  occ. eigenvalues --   -0.45182  -0.43239
 Alpha virt. eigenvalues --    0.03830   0.05614   0.07052   0.07376   0.08230
 Alpha virt. eigenvalues --    0.09278   0.10002   0.10265   0.10926   0.11887
 Alpha virt. eigenvalues --    0.13049   0.13175   0.17469   0.19381   0.21850
 Alpha virt. eigenvalues --    0.22360   0.23287   0.24188   0.25867   0.26741
 Alpha virt. eigenvalues --    0.27522   0.28849   0.31913   0.32925   0.35548
 Alpha virt. eigenvalues --    0.36785   0.36979   0.39747   0.41362   0.43798
 Alpha virt. eigenvalues --    0.44773   0.46392   0.46644   0.49545   0.49585
 Alpha virt. eigenvalues --    0.52573   0.55720   0.56274   0.58782   0.60256
 Alpha virt. eigenvalues --    0.60909   0.63147   0.69307   0.70071   0.71484
 Alpha virt. eigenvalues --    0.71583   0.74545   0.75849   0.77466   0.78559
 Alpha virt. eigenvalues --    0.79442   0.82271   0.83444   0.85043   0.88509
 Alpha virt. eigenvalues --    0.88543   0.89830   0.90162   0.91511   0.93838
 Alpha virt. eigenvalues --    0.94776   0.98075   1.00421   1.01536   1.03046
 Alpha virt. eigenvalues --    1.05509   1.06823   1.11271   1.13049   1.13288
 Alpha virt. eigenvalues --    1.17097   1.17602   1.18983   1.30223   1.34758
 Alpha virt. eigenvalues --    1.36299   1.36496   1.40745   1.44061   1.44815
 Alpha virt. eigenvalues --    1.45013   1.45370   1.51434   1.52703   1.53044
 Alpha virt. eigenvalues --    1.62873   1.63656   1.70479   1.74597   1.80591
 Alpha virt. eigenvalues --    1.95093   2.10676   2.16375   2.16967   2.17678
 Alpha virt. eigenvalues --    2.18736   2.23272   2.24459   2.25244   2.26765
 Alpha virt. eigenvalues --    2.27099   2.27425   2.28718   2.28899   2.29566
 Alpha virt. eigenvalues --    2.30098   2.32610   2.32659   2.32722   2.33903
 Alpha virt. eigenvalues --    2.35572   2.36321   2.37223   2.37866   2.37898
 Alpha virt. eigenvalues --    2.39370   2.39452   2.40462   2.46633   2.48621
 Alpha virt. eigenvalues --    2.53380   2.55881   2.58425   2.59045   2.67017
 Alpha virt. eigenvalues --    2.70373   2.72955   2.76336   2.78444   2.88394
 Alpha virt. eigenvalues --    2.93685   2.98322   3.01982   3.10018   3.48195
 Alpha virt. eigenvalues --    3.58615   3.58632   3.59856   3.62095   3.67775
 Alpha virt. eigenvalues --    3.72983   3.84433   3.86488   3.90387   3.95691
 Alpha virt. eigenvalues --    4.11421   4.13169   4.47387   4.48717   5.01410
 Alpha virt. eigenvalues --    5.10194   5.14813   5.31930   5.47329   6.57576
 Alpha virt. eigenvalues --    6.58800   6.86042   6.87813   7.03250   7.15811
 Alpha virt. eigenvalues --    7.16951   7.20734   7.36133   7.50173   7.66682
 Alpha virt. eigenvalues --    7.68635  13.41188  15.09491
          Condensed to atoms (all electrons):
               1          2          3          4
     1  C    5.587237   0.019226   0.019226   0.231841
     2  Br   0.019226  35.042723  -0.116947  -0.055602
     3  Br   0.019226  -0.116947  35.042723  -0.055602
     4  O    0.231841  -0.055602  -0.055602   8.243031
 Mulliken charges:
               1
     1  C    0.142470
     2  Br   0.110599
     3  Br   0.110599
     4  O   -0.363669
 Sum of Mulliken charges =  -0.00000
 Mulliken charges with hydrogens summed into heavy atoms:
               1
     1  C    0.142470
     2  Br   0.110599
     3  Br   0.110599
     4  O   -0.363669
 Electronic spatial extent (au):  <R**2>=           1355.6942
 Charge=             -0.0000 electrons
 Dipole moment (field-independent basis, Debye):
    X=             -0.0000    Y=              0.0000    Z=             -1.3176  Tot=              1.3176
 Quadrupole moment (field-independent basis, Debye-Ang):
   XX=            -46.9573   YY=            -44.7978   ZZ=            -47.4878
   XY=              0.0000   XZ=              0.0000   YZ=              0.0000
 Traceless Quadrupole moment (field-independent basis, Debye-Ang):
   XX=             -0.5430   YY=              1.6165   ZZ=             -1.0735
   XY=              0.0000   XZ=              0.0000   YZ=              0.0000
 Octapole moment (field-independent basis, Debye-Ang**2):
  XXX=             -0.0000  YYY=              0.0000  ZZZ=            164.8687  XYY=              0.0000
  XXY=              0.0000  XXZ=             56.2896  XZZ=              0.0000  YZZ=             -0.0000
  YYZ=             45.5511  XYZ=             -0.0000
 Hexadecapole moment (field-independent basis, Debye-Ang**3):
 XXXX=            -53.6409 YYYY=           -569.5178 ZZZZ=           -597.4540 XXXY=              0.0000
 XXXZ=              0.0000 YYYX=             -0.0000 YYYZ=              0.0000 ZZZX=             -0.0000
 ZZZY=             -0.0000 XXYY=           -111.2189 XXZZ=           -110.4012 YYZZ=           -174.9214
 XXYZ=              0.0000 YYXZ=             -0.0000 ZZXY=              0.0000
 N-N= 4.493857821776D+02 E-N=-1.347047869395D+04  KE= 5.257201829057D+03
 There are a total of      108140 grid points.
 ElSum from          density=       84.0000029991
 ElSum from atomic densities=       84.0000016578

 Hirshfeld populations at iteration   1 (CX, CA, CB, DipXYZ):
               1          2          3          4          5          6
     1  C    0.000001   2.916719   2.916719  -0.000000   0.000000  -0.030453
     2  Br   0.000015  17.496296  17.496296  -0.000000  -0.073743  -0.006362
     3  Br   0.000015  17.496296  17.496296   0.000000   0.073743  -0.006362
     4  O    0.000008   4.090689   4.090689   0.000000   0.000000  -0.039343
       Tot   0.000039  42.000001  42.000001  -0.000000  -0.000000  -0.082519

 Dip from Atomic Chgs              0.000000   0.000000  -0.435851
         Total Dipole             -0.000000  -0.000000  -0.518370

 Hirshfeld charges, spin densities, dipoles, and CM5 charges using IRadAn=      5:
              Q-H        S-H        Dx         Dy         Dz        Q-CM5   
     1  C    0.166561   0.000000  -0.000000   0.000000  -0.030453   0.177774
     2  Br   0.007407   0.000000  -0.000000  -0.073743  -0.006362   0.026040
     3  Br   0.007407   0.000000   0.000000   0.073743  -0.006362   0.026040
     4  O   -0.181379   0.000000   0.000000   0.000000  -0.039343  -0.229857
       Tot  -0.000003   0.000000  -0.000000  -0.000000  -0.082519  -0.000003
 Hirshfeld charges with hydrogens summed into heavy atoms:
              Q-H       Q-CM5   
     1  C    0.166561   0.177774
     2  Br   0.007407   0.026040
     3  Br   0.007407   0.026040
     4  O   -0.181379  -0.229857
 
 EQQ= 0.000000000000E+00 EQD= 0.000000000000E+00 EDD= 0.935647440492E-04
 EQQ+QD+DD= 0.935647440492E-04
 
 Breneman (CHELPG) radii used.
 GetVDW:  no radius for atom   2 atomic number  35.
 Error termination via Lnk1e in /home/wagner/chemistry/gaussian/g16/l602.exe at Sun Sep  4 23:48:59 2022.
 Job cpu time:       0 days 13 hours 23 minutes 17.6 seconds.
 Elapsed time:       0 days  0 hours 50 minutes 38.1 seconds.
 File lengths (MBytes):  RWF=  29492 Int=      0 D2E=      0 Chk=      2 Scr=      1
