 Entering Gaussian System, Link 0=/home/wagner/chemistry/gaussian/g16/g16
 Input=GAUSSIAN.com
 Output=GAUSSIAN.log
 Initial command:
 /home/wagner/chemistry/gaussian/g16/l1.exe "/home/wagner/chemistry/gaussian/work/Gau-60289.inp" -scrdir="/home/wagner/chemistry/gaussian/work/"
 Entering Link 1 = /home/wagner/chemistry/gaussian/g16/l1.exe PID=     60291.
  
 Copyright (c) 1988-2019, Gaussian, Inc.  All Rights Reserved.
  
 This is part of the Gaussian(R) 16 program.  It is based on
 the Gaussian(R) 09 system (copyright 2009, Gaussian, Inc.),
 the Gaussian(R) 03 system (copyright 2003, Gaussian, Inc.),
 the Gaussian(R) 98 system (copyright 1998, Gaussian, Inc.),
 the Gaussian(R) 94 system (copyright 1995, Gaussian, Inc.),
 the Gaussian 92(TM) system (copyright 1992, Gaussian, Inc.),
 the Gaussian 90(TM) system (copyright 1990, Gaussian, Inc.),
 the Gaussian 88(TM) system (copyright 1988, Gaussian, Inc.),
 the Gaussian 86(TM) system (copyright 1986, Carnegie Mellon
 University), and the Gaussian 82(TM) system (copyright 1983,
 Carnegie Mellon University). Gaussian is a federally registered
 trademark of Gaussian, Inc.
  
 This software contains proprietary and confidential information,
 including trade secrets, belonging to Gaussian, Inc.
  
 This software is provided under written license and may be
 used, copied, transmitted, or stored only in accord with that
 written license.
  
 The following legend is applicable only to US Government
 contracts under FAR:
  
                    RESTRICTED RIGHTS LEGEND
  
 Use, reproduction and disclosure by the US Government is
 subject to restrictions as set forth in subparagraphs (a)
 and (c) of the Commercial Computer Software - Restricted
 Rights clause in FAR 52.227-19.
  
 Gaussian, Inc.
 340 Quinnipiac St., Bldg. 40, Wallingford CT 06492
  
  
 ---------------------------------------------------------------
 Warning -- This program may not be used in any manner that
 competes with the business of Gaussian, Inc. or will provide
 assistance to any competitor of Gaussian, Inc.  The licensee
 of this program is prohibited from giving any competitor of
 Gaussian, Inc. access to this program.  By using this program,
 the user acknowledges that Gaussian, Inc. is engaged in the
 business of creating and licensing software in the field of
 computational chemistry and represents and warrants to the
 licensee that it is not a competitor of Gaussian, Inc. and that
 it will not use this program in any manner prohibited above.
 ---------------------------------------------------------------
  

 Cite this work as:
 Gaussian 16, Revision C.01,
 M. J. Frisch, G. W. Trucks, H. B. Schlegel, G. E. Scuseria, 
 M. A. Robb, J. R. Cheeseman, G. Scalmani, V. Barone, 
 G. A. Petersson, H. Nakatsuji, X. Li, M. Caricato, A. V. Marenich, 
 J. Bloino, B. G. Janesko, R. Gomperts, B. Mennucci, H. P. Hratchian, 
 J. V. Ortiz, A. F. Izmaylov, J. L. Sonnenberg, D. Williams-Young, 
 F. Ding, F. Lipparini, F. Egidi, J. Goings, B. Peng, A. Petrone, 
 T. Henderson, D. Ranasinghe, V. G. Zakrzewski, J. Gao, N. Rega, 
 G. Zheng, W. Liang, M. Hada, M. Ehara, K. Toyota, R. Fukuda, 
 J. Hasegawa, M. Ishida, T. Nakajima, Y. Honda, O. Kitao, H. Nakai, 
 T. Vreven, K. Throssell, J. A. Montgomery, Jr., J. E. Peralta, 
 F. Ogliaro, M. J. Bearpark, J. J. Heyd, E. N. Brothers, K. N. Kudin, 
 V. N. Staroverov, T. A. Keith, R. Kobayashi, J. Normand, 
 K. Raghavachari, A. P. Rendell, J. C. Burant, S. S. Iyengar, 
 J. Tomasi, M. Cossi, J. M. Millam, M. Klene, C. Adamo, R. Cammi, 
 J. W. Ochterski, R. L. Martin, K. Morokuma, O. Farkas, 
 J. B. Foresman, and D. J. Fox, Gaussian, Inc., Wallingford CT, 2019.
 
 ******************************************
 Gaussian 16:  EM64L-G16RevC.01  3-Jul-2019
                 4-Sep-2022 
 ******************************************
 %nproc=16
 Will use up to   16 processors via shared memory.
 %mem=16GB
 ----------------------------------------------------------------------
 # qcisd/aug-cc-pvtz nosymm density=current pop=(chelpg,hirshfeld,npa,d
 ipole)
 ----------------------------------------------------------------------
 1/30=1,38=1,172=1/1;
 2/12=2,15=1,17=6,18=5,40=1/2;
 3/5=16,6=1,7=10,11=9,25=1,30=1,71=1/1,2,3;
 4//1;
 5/5=2,38=5/2;
 8/6=4,9=120000,10=1/1,4;
 9/5=8,15=1/13;
 11/28=-7,31=1,32=3,42=3/11;
 10/5=6,13=10,31=1/2;
 6/7=2,8=2,9=2,10=2,15=24,20=3,22=-1,40=-1,79=1/1,2,7;
 99/5=1,9=1/99;
 ------------------
 br2co-wavefunction
 ------------------
 Symbolic Z-matrix:
 Charge =  0 Multiplicity = 1
 C                     0.       -0.01     -0.49176 
 Br                    0.       -1.59418  -1.54682 
 Br                    0.        1.59418  -1.54682 
 O                     0.        0.        0.6845 
 
                          Input orientation:                          
 ---------------------------------------------------------------------
 Center     Atomic      Atomic             Coordinates (Angstroms)
 Number     Number       Type             X           Y           Z
 ---------------------------------------------------------------------
      1          6           0        0.000000   -0.010000   -0.491759
      2         35           0        0.000000   -1.594181   -1.546820
      3         35           0        0.000000    1.594181   -1.546820
      4          8           0        0.000000    0.000000    0.684500
 ---------------------------------------------------------------------
                    Distance matrix (angstroms):
                    1          2          3          4
     1  C    0.000000
     2  Br   1.903361   0.000000
     3  Br   1.920039   3.188362   0.000000
     4  O    1.176302   2.742299   2.742299   0.000000
 Symmetry turned off by external request.
 Stoichiometry    CBr2O
 Framework group  CS[SG(CBr2O)]
 Deg. of freedom     5
 Full point group                 CS      NOp   2
 Rotational constants (GHZ):           6.2847872           1.2598904           1.0495005
 Standard basis: Aug-CC-pVTZ (5D, 7F)
   210 basis functions,   578 primitive gaussians,   248 cartesian basis functions
    42 alpha electrons       42 beta electrons
       nuclear repulsion energy       449.2332703248 Hartrees.
 NAtoms=    4 NActive=    4 NUniq=    4 SFac= 1.00D+00 NAtFMM=   60 NAOKFM=F Big=F
 Integral buffers will be    131072 words long.
 Raffenetti 1 integral format.
 Two-electron integral symmetry is turned off.
 One-electron integrals computed using PRISM.
 NBasis=   210 RedAO= T EigKep=  1.05D-04  NBF=   210
 NBsUse=   210 1.00D-06 EigRej= -1.00D+00 NBFU=   210
 ExpMin= 3.51D-02 ExpMax= 1.06D+07 ExpMxC= 1.21D+04 IAcc=3 IRadAn=         5 AccDes= 0.00D+00
 Harris functional with IExCor=  205 and IRadAn=       5 diagonalized for initial guess.
 HarFok:  IExCor=  205 AccDes= 0.00D+00 IRadAn=         5 IDoV= 1 UseB2=F ITyADJ=14
 ICtDFT=  3500011 ScaDFX=  1.000000  1.000000  1.000000  1.000000
 FoFCou: FMM=F IPFlag=           0 FMFlag=      100000 FMFlg1=           0
         NFxFlg=           0 DoJE=T BraDBF=F KetDBF=T FulRan=T
         wScrn=  0.000000 ICntrl=       500 IOpCl=  0 I1Cent=   200000004 NGrid=           0
         NMat0=    1 NMatS0=      1 NMatT0=    0 NMatD0=    1 NMtDS0=    0 NMtDT0=    0
 Symmetry not used in FoFCou.
 Keep R1 ints in memory in canonical form, NReq=258584797.
 Requested convergence on RMS density matrix=1.00D-08 within 128 cycles.
 Requested convergence on MAX density matrix=1.00D-06.
 Requested convergence on             energy=1.00D-06.
 No special actions if energy rises.
 SCF Done:  E(RHF) =  -5257.68449383     A.U. after   12 cycles
            NFock= 12  Conv=0.90D-08     -V/T= 2.0000
 ExpMin= 3.51D-02 ExpMax= 1.06D+07 ExpMxC= 1.21D+04 IAcc=3 IRadAn=         5 AccDes= 0.00D+00
 HarFok:  IExCor=  205 AccDes= 0.00D+00 IRadAn=         5 IDoV=-2 UseB2=F ITyADJ=14
 ICtDFT= 12500011 ScaDFX=  1.000000  1.000000  1.000000  1.000000
 Range of M.O.s used for correlation:    21   210
 NBasis=   210 NAE=    42 NBE=    42 NFC=    20 NFV=     0
 NROrb=    190 NOA=    22 NOB=    22 NVA=   168 NVB=   168

 **** Warning!!: The largest alpha MO coefficient is  0.28087375D+02

 Semi-Direct transformation.
 ModeAB=           2 MOrb=            22 LenV=    2146226239
 LASXX=     69628944 LTotXX=    69628944 LenRXX=    69628944
 LTotAB=    70719517 MaxLAS=   129061680 LenRXY=   129061680
 NonZer=   139257888 LenScr=   209707008 LnRSAI=           0
 LnScr1=           0 LExtra=           0 Total=    408397632
 MaxDsk=          -1 SrtSym=           F ITran=            4
 JobTyp=0 Pass  1:  I=   1 to  22.
 (rs|ai) integrals will be sorted in core.
 Spin components of T(2) and E(2):
     alpha-alpha T2 =       0.3832375400D-01 E2=     -0.1232806799D+00
     alpha-beta  T2 =       0.1925006937D+00 E2=     -0.6175148799D+00
     beta-beta   T2 =       0.3832375400D-01 E2=     -0.1232806799D+00
 ANorm=    0.1126564779D+01
 E2 =    -0.8640762397D+00 EUMP2 =    -0.52585485700670D+04
 Keep R2 and R3 ints in memory in canonical form, NReq=504031791.
 CIDS: In Core Option IDoMem=           1.
 Iterations=  50 Convergence= 0.100D-07
 Produce multiple copies of IABC intergrals
 Iteration Nr.   1
 **********************
 DD1Dir will call FoFMem   1 times, MxPair=       506
 NAB=   253 NAA=     0 NBB=     0.
 MP4(R+Q)=  0.21480735D-01
 E3=        0.14573057D-03        EUMP3=      -0.52585484243D+04
 E4(DQ)=    0.26904176D-03        UMP4(DQ)=   -0.52585481553D+04
 E4(SDQ)=  -0.11699431D-01        UMP4(SDQ)=  -0.52585601238D+04
 DE(Corr)= -0.84244977     E(Corr)=     -5258.5269436    
 NORM(A)=   0.11248511D+01
 Iteration Nr.   2
 **********************
 DD1Dir will call FoFMem   1 times, MxPair=       506
 NAB=   253 NAA=     0 NBB=     0.
 DE(Corr)= -0.87234943     E(CORR)=     -5258.5568433     Delta=-2.99D-02
 NORM(A)=   0.11352514D+01
 Iteration Nr.   3
 **********************
 DD1Dir will call FoFMem   1 times, MxPair=       506
 NAB=   253 NAA=     0 NBB=     0.
 DE(Corr)= -0.87024412     E(CORR)=     -5258.5547379     Delta= 2.11D-03
 NORM(A)=   0.11380139D+01
 Iteration Nr.   4
 **********************
 DD1Dir will call FoFMem   1 times, MxPair=       506
 NAB=   253 NAA=     0 NBB=     0.
 DE(Corr)= -0.87277493     E(CORR)=     -5258.5572688     Delta=-2.53D-03
 NORM(A)=   0.11393269D+01
 Iteration Nr.   5
 **********************
 DD1Dir will call FoFMem   1 times, MxPair=       506
 NAB=   253 NAA=     0 NBB=     0.
 DE(Corr)= -0.87314945     E(CORR)=     -5258.5576433     Delta=-3.75D-04
 NORM(A)=   0.11398419D+01
 Iteration Nr.   6
 **********************
 DD1Dir will call FoFMem   1 times, MxPair=       506
 NAB=   253 NAA=     0 NBB=     0.
 DE(Corr)= -0.87321373     E(CORR)=     -5258.5577076     Delta=-6.43D-05
 NORM(A)=   0.11399460D+01
 Iteration Nr.   7
 **********************
 DD1Dir will call FoFMem   1 times, MxPair=       506
 NAB=   253 NAA=     0 NBB=     0.
 DE(Corr)= -0.87322805     E(CORR)=     -5258.5577219     Delta=-1.43D-05
 NORM(A)=   0.11399548D+01
 Iteration Nr.   8
 **********************
 DD1Dir will call FoFMem   1 times, MxPair=       506
 NAB=   253 NAA=     0 NBB=     0.
 DE(Corr)= -0.87322839     E(CORR)=     -5258.5577222     Delta=-3.40D-07
 NORM(A)=   0.11399699D+01
 Iteration Nr.   9
 **********************
 DD1Dir will call FoFMem   1 times, MxPair=       506
 NAB=   253 NAA=     0 NBB=     0.
 DE(Corr)= -0.87322646     E(CORR)=     -5258.5577203     Delta= 1.93D-06
 NORM(A)=   0.11399698D+01
 Iteration Nr.  10
 **********************
 DD1Dir will call FoFMem   1 times, MxPair=       506
 NAB=   253 NAA=     0 NBB=     0.
 DE(Corr)= -0.87322787     E(CORR)=     -5258.5577217     Delta=-1.41D-06
 NORM(A)=   0.11399726D+01
 Iteration Nr.  11
 **********************
 DD1Dir will call FoFMem   1 times, MxPair=       506
 NAB=   253 NAA=     0 NBB=     0.
 DE(Corr)= -0.87322901     E(CORR)=     -5258.5577228     Delta=-1.13D-06
 NORM(A)=   0.11399744D+01
 Iteration Nr.  12
 **********************
 DD1Dir will call FoFMem   1 times, MxPair=       506
 NAB=   253 NAA=     0 NBB=     0.
 DE(Corr)= -0.87322932     E(CORR)=     -5258.5577232     Delta=-3.17D-07
 NORM(A)=   0.11399754D+01
 Iteration Nr.  13
 **********************
 DD1Dir will call FoFMem   1 times, MxPair=       506
 NAB=   253 NAA=     0 NBB=     0.
 DE(Corr)= -0.87322979     E(CORR)=     -5258.5577236     Delta=-4.69D-07
 NORM(A)=   0.11399761D+01
 Iteration Nr.  14
 **********************
 DD1Dir will call FoFMem   1 times, MxPair=       506
 NAB=   253 NAA=     0 NBB=     0.
 DE(Corr)= -0.87322990     E(CORR)=     -5258.5577237     Delta=-1.10D-07
 NORM(A)=   0.11399765D+01
 Iteration Nr.  15
 **********************
 DD1Dir will call FoFMem   1 times, MxPair=       506
 NAB=   253 NAA=     0 NBB=     0.
 DE(Corr)= -0.87322997     E(CORR)=     -5258.5577238     Delta=-6.96D-08
 NORM(A)=   0.11399766D+01
 Iteration Nr.  16
 **********************
 DD1Dir will call FoFMem   1 times, MxPair=       506
 NAB=   253 NAA=     0 NBB=     0.
 DE(Corr)= -0.87323000     E(CORR)=     -5258.5577238     Delta=-3.01D-08
 NORM(A)=   0.11399767D+01
 Iteration Nr.  17
 **********************
 DD1Dir will call FoFMem   1 times, MxPair=       506
 NAB=   253 NAA=     0 NBB=     0.
 DE(Corr)= -0.87323000     E(CORR)=     -5258.5577238     Delta= 4.06D-09
 NORM(A)=   0.11399767D+01
 Wavefunction amplitudes converged. E(Corr)=     -5258.5577238    
 Largest amplitude= 4.23D-02

 Z-amplitude iterations

 Iteration Nr.   1
 **********************
 DD1Dir will call FoFMem   1 times, MxPair=       506
 NAB=   253 NAA=     0 NBB=     0.
 DE(Z)= -0.84605366     E(Z)=     -5258.5305475     Delta= 2.72D-02
 NORM(A)=   0.11399409D+01
 Iteration Nr.   2
 **********************
 DD1Dir will call FoFMem   1 times, MxPair=       506
 NAB=   253 NAA=     0 NBB=     0.
 DE(Z)= -0.84605360     E(Z)=     -5258.5305474     Delta= 5.92D-08
 NORM(A)=   0.11397951D+01
 Iteration Nr.   3
 **********************
 DD1Dir will call FoFMem   1 times, MxPair=       506
 NAB=   253 NAA=     0 NBB=     0.
 DE(Z)= -0.84605342     E(Z)=     -5258.5305473     Delta= 1.81D-07
 NORM(A)=   0.11399190D+01
 Iteration Nr.   4
 **********************
 DD1Dir will call FoFMem   1 times, MxPair=       506
 NAB=   253 NAA=     0 NBB=     0.
 DE(Z)= -0.84605360     E(Z)=     -5258.5305474     Delta=-1.79D-07
 NORM(A)=   0.11397355D+01
 Iteration Nr.   5
 **********************
 DD1Dir will call FoFMem   1 times, MxPair=       506
 NAB=   253 NAA=     0 NBB=     0.
 DE(Z)= -0.84605272     E(Z)=     -5258.5305465     Delta= 8.84D-07
 NORM(A)=   0.11301218D+01
 Iteration Nr.   6
 **********************
 DD1Dir will call FoFMem   1 times, MxPair=       506
 NAB=   253 NAA=     0 NBB=     0.
 DE(Z)= -0.84602389     E(Z)=     -5258.5305177     Delta= 2.88D-05
 NORM(A)=   0.11301229D+01
 Iteration Nr.   7
 **********************
 DD1Dir will call FoFMem   1 times, MxPair=       506
 NAB=   253 NAA=     0 NBB=     0.
 DE(Z)= -0.84602074     E(Z)=     -5258.5305146     Delta= 3.15D-06
 NORM(A)=   0.11301230D+01
 Iteration Nr.   8
 **********************
 DD1Dir will call FoFMem   1 times, MxPair=       506
 NAB=   253 NAA=     0 NBB=     0.
 DE(Z)= -0.84602187     E(Z)=     -5258.5305157     Delta=-1.13D-06
 NORM(A)=   0.11301230D+01
 Iteration Nr.   9
 **********************
 DD1Dir will call FoFMem   1 times, MxPair=       506
 NAB=   253 NAA=     0 NBB=     0.
 DE(Z)= -0.84602178     E(Z)=     -5258.5305156     Delta= 8.82D-08
 NORM(A)=   0.11301232D+01
 Iteration Nr.  10
 **********************
 DD1Dir will call FoFMem   1 times, MxPair=       506
 NAB=   253 NAA=     0 NBB=     0.
 DE(Z)= -0.84602173     E(Z)=     -5258.5305156     Delta= 5.46D-08
 NORM(A)=   0.11301233D+01
 Iteration Nr.  11
 **********************
 DD1Dir will call FoFMem   1 times, MxPair=       506
 NAB=   253 NAA=     0 NBB=     0.
 DE(Z)= -0.84602179     E(Z)=     -5258.5305156     Delta=-6.54D-08
 NORM(A)=   0.11301234D+01
 Iteration Nr.  12
 **********************
 DD1Dir will call FoFMem   1 times, MxPair=       506
 NAB=   253 NAA=     0 NBB=     0.
 DE(Z)= -0.84602180     E(Z)=     -5258.5305156     Delta=-1.22D-08
 NORM(A)=   0.11301235D+01
 Iteration Nr.  13
 **********************
 DD1Dir will call FoFMem   1 times, MxPair=       506
 NAB=   253 NAA=     0 NBB=     0.
 DE(Z)= -0.84602180     E(Z)=     -5258.5305156     Delta= 6.73D-10
 NORM(A)=   0.11301235D+01
 Z-amplitudes converged.
 Discarding MO integrals.
          Differentiating once with respect to electric field.
                with respect to dipole field.
          Electric field/nuclear overlap derivatives assumed to be zero.
 Keep R1 ints in memory in canonical form, NReq=258592388.
          There are     1 degrees of freedom in the 1st order CPHF.  IDoFFX=0 NUNeed=     1.
 LinEq1:  Iter=  0 NonCon=     1 RMS=1.95D-03 Max=5.61D-02 NDo=     1
 AX will form     1 AO Fock derivatives at one time.
 LinEq1:  Iter=  1 NonCon=     1 RMS=7.40D-04 Max=2.60D-02 NDo=     1
 LinEq1:  Iter=  2 NonCon=     1 RMS=3.09D-04 Max=9.28D-03 NDo=     1
 LinEq1:  Iter=  3 NonCon=     1 RMS=1.03D-04 Max=2.95D-03 NDo=     1
 LinEq1:  Iter=  4 NonCon=     1 RMS=5.33D-05 Max=1.63D-03 NDo=     1
 LinEq1:  Iter=  5 NonCon=     1 RMS=1.64D-05 Max=4.65D-04 NDo=     1
 LinEq1:  Iter=  6 NonCon=     1 RMS=6.30D-06 Max=1.31D-04 NDo=     1
 LinEq1:  Iter=  7 NonCon=     1 RMS=1.35D-06 Max=2.11D-05 NDo=     1
 LinEq1:  Iter=  8 NonCon=     1 RMS=2.69D-07 Max=4.28D-06 NDo=     1
 LinEq1:  Iter=  9 NonCon=     1 RMS=6.50D-08 Max=1.21D-06 NDo=     1
 LinEq1:  Iter= 10 NonCon=     1 RMS=1.39D-08 Max=2.07D-07 NDo=     1
 LinEq1:  Iter= 11 NonCon=     1 RMS=3.90D-09 Max=9.50D-08 NDo=     1
 LinEq1:  Iter= 12 NonCon=     1 RMS=7.19D-10 Max=1.62D-08 NDo=     1
 LinEq1:  Iter= 13 NonCon=     1 RMS=1.21D-10 Max=2.63D-09 NDo=     1
 LinEq1:  Iter= 14 NonCon=     0 RMS=2.04D-11 Max=4.61D-10 NDo=     1
 Linear equations converged to 1.000D-10 1.000D-09 after    14 iterations.
 End of Minotr F.D. properties file   721 does not exist.
 End of Minotr F.D. properties file   722 does not exist.
 End of Minotr F.D. properties file   788 does not exist.

 **********************************************************************

            Population analysis using the CC Density.

 **********************************************************************

 Alpha  occ. eigenvalues -- -490.06801-490.06475 -65.20799 -65.20467 -58.56330
 Alpha  occ. eigenvalues --  -58.56180 -58.56163 -58.55999 -58.55849 -58.55832
 Alpha  occ. eigenvalues --  -20.62833 -11.46327  -9.88111  -9.87769  -7.49301
 Alpha  occ. eigenvalues --   -7.48954  -7.48577  -7.48505  -7.48236  -7.48166
 Alpha  occ. eigenvalues --   -3.23698  -3.23346  -3.23337  -3.23240  -3.22992
 Alpha  occ. eigenvalues --   -3.22898  -3.22329  -3.22326  -3.21991  -3.21989
 Alpha  occ. eigenvalues --   -1.48398  -1.10836  -1.04766  -0.79380  -0.68348
 Alpha  occ. eigenvalues --   -0.67609  -0.63063  -0.47911  -0.46184  -0.45781
 Alpha  occ. eigenvalues --   -0.45087  -0.43152
 Alpha virt. eigenvalues --    0.03789   0.05638   0.07006   0.07541   0.08198
 Alpha virt. eigenvalues --    0.09327   0.09994   0.10257   0.10941   0.11867
 Alpha virt. eigenvalues --    0.13016   0.13182   0.17481   0.19374   0.21883
 Alpha virt. eigenvalues --    0.22372   0.23250   0.24159   0.25844   0.26651
 Alpha virt. eigenvalues --    0.27527   0.28945   0.31891   0.32943   0.35605
 Alpha virt. eigenvalues --    0.36769   0.37009   0.39728   0.41343   0.43786
 Alpha virt. eigenvalues --    0.44679   0.46414   0.46627   0.49568   0.49660
 Alpha virt. eigenvalues --    0.52596   0.55723   0.56294   0.58706   0.60113
 Alpha virt. eigenvalues --    0.60857   0.63139   0.69488   0.70120   0.71437
 Alpha virt. eigenvalues --    0.71924   0.74562   0.75878   0.77557   0.78534
 Alpha virt. eigenvalues --    0.79395   0.82306   0.83574   0.85025   0.88390
 Alpha virt. eigenvalues --    0.88488   0.89891   0.90087   0.91469   0.93825
 Alpha virt. eigenvalues --    0.94757   0.98083   1.00454   1.01614   1.02908
 Alpha virt. eigenvalues --    1.05493   1.06678   1.11243   1.13068   1.13258
 Alpha virt. eigenvalues --    1.17143   1.17716   1.18749   1.30584   1.34487
 Alpha virt. eigenvalues --    1.36369   1.36486   1.40577   1.43877   1.44828
 Alpha virt. eigenvalues --    1.44904   1.45498   1.51425   1.52386   1.53190
 Alpha virt. eigenvalues --    1.62930   1.63522   1.70601   1.74595   1.79846
 Alpha virt. eigenvalues --    1.95193   2.10715   2.16503   2.17038   2.17673
 Alpha virt. eigenvalues --    2.19051   2.23322   2.24526   2.25293   2.26751
 Alpha virt. eigenvalues --    2.27175   2.27410   2.28641   2.28987   2.29679
 Alpha virt. eigenvalues --    2.30149   2.32533   2.32716   2.32719   2.34003
 Alpha virt. eigenvalues --    2.35714   2.36369   2.37237   2.37816   2.38015
 Alpha virt. eigenvalues --    2.39350   2.39355   2.40513   2.46608   2.48748
 Alpha virt. eigenvalues --    2.53268   2.55812   2.58676   2.59585   2.67060
 Alpha virt. eigenvalues --    2.70557   2.72936   2.76479   2.78613   2.88185
 Alpha virt. eigenvalues --    2.93400   2.97679   3.01166   3.09869   3.48909
 Alpha virt. eigenvalues --    3.58095   3.59227   3.59748   3.61814   3.67590
 Alpha virt. eigenvalues --    3.73526   3.83698   3.86454   3.89892   3.96074
 Alpha virt. eigenvalues --    4.12140   4.13817   4.48686   4.50155   5.01053
 Alpha virt. eigenvalues --    5.12623   5.14933   5.33912   5.47855   6.57474
 Alpha virt. eigenvalues --    6.58683   6.86248   6.88076   7.04531   7.16240
 Alpha virt. eigenvalues --    7.16985   7.22099   7.37322   7.49971   7.67735
 Alpha virt. eigenvalues --    7.68243  13.54919  15.29137
          Condensed to atoms (all electrons):
               1          2          3          4
     1  C    5.559677   0.017942   0.033292   0.239709
     2  Br   0.017942  35.041430  -0.118478  -0.056639
     3  Br   0.033292  -0.118478  35.049251  -0.055940
     4  O    0.239709  -0.056639  -0.055940   8.229871
 Mulliken charges:
               1
     1  C    0.149381
     2  Br   0.115745
     3  Br   0.091875
     4  O   -0.357001
 Sum of Mulliken charges =  -0.00000
 Mulliken charges with hydrogens summed into heavy atoms:
               1
     1  C    0.149381
     2  Br   0.115745
     3  Br   0.091875
     4  O   -0.357001
 Electronic spatial extent (au):  <R**2>=           1355.6185
 Charge=             -0.0000 electrons
 Dipole moment (field-independent basis, Debye):
    X=             -0.0000    Y=             -0.1050    Z=             -1.2403  Tot=              1.2448
 Quadrupole moment (field-independent basis, Debye-Ang):
   XX=            -46.9633   YY=            -44.9358   ZZ=            -47.5253
   XY=             -0.0000   XZ=              0.0000   YZ=              0.1771
 Traceless Quadrupole moment (field-independent basis, Debye-Ang):
   XX=             -0.4885   YY=              1.5390   ZZ=             -1.0505
   XY=             -0.0000   XZ=              0.0000   YZ=              0.1771
 Octapole moment (field-independent basis, Debye-Ang**2):
  XXX=             -0.0000  YYY=             -0.2256  ZZZ=            164.8162  XYY=             -0.0000
  XXY=             -0.0573  XXZ=             56.3134  XZZ=             -0.0000  YZZ=             -0.3521
  YYZ=             45.7181  XYZ=              0.0000
 Hexadecapole moment (field-independent basis, Debye-Ang**3):
 XXXX=            -53.6978 YYYY=           -570.9435 ZZZZ=           -597.1030 XXXY=             -0.0000
 XXXZ=              0.0000 YYYX=             -0.0000 YYYZ=              0.6592 ZZZX=              0.0000
 ZZZY=              1.0412 XXYY=           -111.3607 XXZZ=           -110.4163 YYZZ=           -175.1009
 XXYZ=              0.1509 YYXZ=              0.0000 ZZXY=             -0.0000
 N-N= 4.492332703248D+02 E-N=-1.347022396593D+04  KE= 5.257230296658D+03
 There are a total of      108140 grid points.
 ElSum from          density=       84.0000031152
 ElSum from atomic densities=       84.0000016842

 Hirshfeld populations at iteration   1 (CX, CA, CB, DipXYZ):
               1          2          3          4          5          6
     1  C    0.000001   2.915458   2.915458   0.000000  -0.001539  -0.028348
     2  Br   0.000015  17.495089  17.495089  -0.000000  -0.071605  -0.010660
     3  Br   0.000016  17.501148  17.501148  -0.000000   0.070965  -0.005378
     4  O    0.000008   4.088308   4.088308  -0.000000   0.000573  -0.035999
       Tot   0.000040  42.000002  42.000002  -0.000000  -0.001606  -0.080385

 Dip from Atomic Chgs              0.000000  -0.039702  -0.407588
         Total Dipole             -0.000000  -0.041307  -0.487973

 Hirshfeld charges, spin densities, dipoles, and CM5 charges using IRadAn=      5:
              Q-H        S-H        Dx         Dy         Dz        Q-CM5   
     1  C    0.169084   0.000000   0.000000  -0.001539  -0.028348   0.181630
     2  Br   0.009823   0.000000  -0.000000  -0.071605  -0.010660   0.028553
     3  Br  -0.002295   0.000000  -0.000000   0.070965  -0.005378   0.015874
     4  O   -0.176615   0.000000  -0.000000   0.000573  -0.035999  -0.226060
       Tot  -0.000003   0.000000  -0.000000  -0.001606  -0.080385  -0.000003
 Hirshfeld charges with hydrogens summed into heavy atoms:
              Q-H       Q-CM5   
     1  C    0.169084   0.181630
     2  Br   0.009823   0.028553
     3  Br  -0.002295   0.015874
     4  O   -0.176615  -0.226060
 
 EQQ= 0.000000000000E+00 EQD= 0.000000000000E+00 EDD= 0.837722901328E-04
 EQQ+QD+DD= 0.837722901328E-04
 
 Breneman (CHELPG) radii used.
 GetVDW:  no radius for atom   2 atomic number  35.
 Error termination via Lnk1e in /home/wagner/chemistry/gaussian/g16/l602.exe at Sun Sep  4 22:04:30 2022.
 Job cpu time:       0 days 13 hours 23 minutes 40.6 seconds.
 Elapsed time:       0 days  0 hours 50 minutes 40.4 seconds.
 File lengths (MBytes):  RWF=  29492 Int=      0 D2E=      0 Chk=      2 Scr=      1
