 Entering Gaussian System, Link 0=/home/wagner/chemistry/gaussian/g16/g16
 Input=GAUSSIAN.com
 Output=GAUSSIAN.log
 Initial command:
 /home/wagner/chemistry/gaussian/g16/l1.exe "/home/wagner/chemistry/gaussian/work/Gau-64825.inp" -scrdir="/home/wagner/chemistry/gaussian/work/"
 Entering Link 1 = /home/wagner/chemistry/gaussian/g16/l1.exe PID=     64827.
  
 Copyright (c) 1988-2019, Gaussian, Inc.  All Rights Reserved.
  
 This is part of the Gaussian(R) 16 program.  It is based on
 the Gaussian(R) 09 system (copyright 2009, Gaussian, Inc.),
 the Gaussian(R) 03 system (copyright 2003, Gaussian, Inc.),
 the Gaussian(R) 98 system (copyright 1998, Gaussian, Inc.),
 the Gaussian(R) 94 system (copyright 1995, Gaussian, Inc.),
 the Gaussian 92(TM) system (copyright 1992, Gaussian, Inc.),
 the Gaussian 90(TM) system (copyright 1990, Gaussian, Inc.),
 the Gaussian 88(TM) system (copyright 1988, Gaussian, Inc.),
 the Gaussian 86(TM) system (copyright 1986, Carnegie Mellon
 University), and the Gaussian 82(TM) system (copyright 1983,
 Carnegie Mellon University). Gaussian is a federally registered
 trademark of Gaussian, Inc.
  
 This software contains proprietary and confidential information,
 including trade secrets, belonging to Gaussian, Inc.
  
 This software is provided under written license and may be
 used, copied, transmitted, or stored only in accord with that
 written license.
  
 The following legend is applicable only to US Government
 contracts under FAR:
  
                    RESTRICTED RIGHTS LEGEND
  
 Use, reproduction and disclosure by the US Government is
 subject to restrictions as set forth in subparagraphs (a)
 and (c) of the Commercial Computer Software - Restricted
 Rights clause in FAR 52.227-19.
  
 Gaussian, Inc.
 340 Quinnipiac St., Bldg. 40, Wallingford CT 06492
  
  
 ---------------------------------------------------------------
 Warning -- This program may not be used in any manner that
 competes with the business of Gaussian, Inc. or will provide
 assistance to any competitor of Gaussian, Inc.  The licensee
 of this program is prohibited from giving any competitor of
 Gaussian, Inc. access to this program.  By using this program,
 the user acknowledges that Gaussian, Inc. is engaged in the
 business of creating and licensing software in the field of
 computational chemistry and represents and warrants to the
 licensee that it is not a competitor of Gaussian, Inc. and that
 it will not use this program in any manner prohibited above.
 ---------------------------------------------------------------
  

 Cite this work as:
 Gaussian 16, Revision C.01,
 M. J. Frisch, G. W. Trucks, H. B. Schlegel, G. E. Scuseria, 
 M. A. Robb, J. R. Cheeseman, G. Scalmani, V. Barone, 
 G. A. Petersson, H. Nakatsuji, X. Li, M. Caricato, A. V. Marenich, 
 J. Bloino, B. G. Janesko, R. Gomperts, B. Mennucci, H. P. Hratchian, 
 J. V. Ortiz, A. F. Izmaylov, J. L. Sonnenberg, D. Williams-Young, 
 F. Ding, F. Lipparini, F. Egidi, J. Goings, B. Peng, A. Petrone, 
 T. Henderson, D. Ranasinghe, V. G. Zakrzewski, J. Gao, N. Rega, 
 G. Zheng, W. Liang, M. Hada, M. Ehara, K. Toyota, R. Fukuda, 
 J. Hasegawa, M. Ishida, T. Nakajima, Y. Honda, O. Kitao, H. Nakai, 
 T. Vreven, K. Throssell, J. A. Montgomery, Jr., J. E. Peralta, 
 F. Ogliaro, M. J. Bearpark, J. J. Heyd, E. N. Brothers, K. N. Kudin, 
 V. N. Staroverov, T. A. Keith, R. Kobayashi, J. Normand, 
 K. Raghavachari, A. P. Rendell, J. C. Burant, S. S. Iyengar, 
 J. Tomasi, M. Cossi, J. M. Millam, M. Klene, C. Adamo, R. Cammi, 
 J. W. Ochterski, R. L. Martin, K. Morokuma, O. Farkas, 
 J. B. Foresman, and D. J. Fox, Gaussian, Inc., Wallingford CT, 2019.
 
 ******************************************
 Gaussian 16:  EM64L-G16RevC.01  3-Jul-2019
                 5-Sep-2022 
 ******************************************
 %nproc=16
 Will use up to   16 processors via shared memory.
 %mem=16GB
 ----------------------------------------------------------------------
 # qcisd/aug-cc-pvtz nosymm density=current pop=(chelpg,hirshfeld,npa,d
 ipole)
 ----------------------------------------------------------------------
 1/30=1,38=1,172=1/1;
 2/12=2,15=1,17=6,18=5,40=1/2;
 3/5=16,6=1,7=10,11=9,25=1,30=1,71=1/1,2,3;
 4//1;
 5/5=2,38=5/2;
 8/6=4,9=120000,10=1/1,4;
 9/5=8,15=1/13;
 11/28=-7,31=1,32=3,42=3/11;
 10/5=6,13=10,31=1/2;
 6/7=2,8=2,9=2,10=2,15=24,20=3,22=-1,40=-1,79=1/1,2,7;
 99/5=1,9=1/99;
 ------------------
 br2co-wavefunction
 ------------------
 Symbolic Z-matrix:
 Charge =  0 Multiplicity = 1
 C                     0.        0.       -0.49176 
 Br                    0.       -1.60418  -1.54682 
 Br                    0.        1.59418  -1.54682 
 O                     0.        0.        0.6845 
 
                          Input orientation:                          
 ---------------------------------------------------------------------
 Center     Atomic      Atomic             Coordinates (Angstroms)
 Number     Number       Type             X           Y           Z
 ---------------------------------------------------------------------
      1          6           0        0.000000    0.000000   -0.491759
      2         35           0        0.000000   -1.604181   -1.546820
      3         35           0        0.000000    1.594181   -1.546820
      4          8           0        0.000000    0.000000    0.684500
 ---------------------------------------------------------------------
                    Distance matrix (angstroms):
                    1          2          3          4
     1  C    0.000000
     2  Br   1.920039   0.000000
     3  Br   1.911692   3.198362   0.000000
     4  O    1.176259   2.748124   2.742299   0.000000
 Symmetry turned off by external request.
 Stoichiometry    CBr2O
 Framework group  CS[SG(CBr2O)]
 Deg. of freedom     5
 Full point group                 CS      NOp   2
 Rotational constants (GHZ):           6.2847951           1.2520258           1.0440377
 Standard basis: Aug-CC-pVTZ (5D, 7F)
   210 basis functions,   578 primitive gaussians,   248 cartesian basis functions
    42 alpha electrons       42 beta electrons
       nuclear repulsion energy       448.2293935909 Hartrees.
 NAtoms=    4 NActive=    4 NUniq=    4 SFac= 1.00D+00 NAtFMM=   60 NAOKFM=F Big=F
 Integral buffers will be    131072 words long.
 Raffenetti 1 integral format.
 Two-electron integral symmetry is turned off.
 One-electron integrals computed using PRISM.
 NBasis=   210 RedAO= T EigKep=  1.06D-04  NBF=   210
 NBsUse=   210 1.00D-06 EigRej= -1.00D+00 NBFU=   210
 ExpMin= 3.51D-02 ExpMax= 1.06D+07 ExpMxC= 1.21D+04 IAcc=3 IRadAn=         5 AccDes= 0.00D+00
 Harris functional with IExCor=  205 and IRadAn=       5 diagonalized for initial guess.
 HarFok:  IExCor=  205 AccDes= 0.00D+00 IRadAn=         5 IDoV= 1 UseB2=F ITyADJ=14
 ICtDFT=  3500011 ScaDFX=  1.000000  1.000000  1.000000  1.000000
 FoFCou: FMM=F IPFlag=           0 FMFlag=      100000 FMFlg1=           0
         NFxFlg=           0 DoJE=T BraDBF=F KetDBF=T FulRan=T
         wScrn=  0.000000 ICntrl=       500 IOpCl=  0 I1Cent=   200000004 NGrid=           0
         NMat0=    1 NMatS0=      1 NMatT0=    0 NMatD0=    1 NMtDS0=    0 NMtDT0=    0
 Symmetry not used in FoFCou.
 Keep R1 ints in memory in canonical form, NReq=258584739.
 Requested convergence on RMS density matrix=1.00D-08 within 128 cycles.
 Requested convergence on MAX density matrix=1.00D-06.
 Requested convergence on             energy=1.00D-06.
 No special actions if energy rises.
 SCF Done:  E(RHF) =  -5257.68449832     A.U. after   12 cycles
            NFock= 12  Conv=0.90D-08     -V/T= 2.0000
 ExpMin= 3.51D-02 ExpMax= 1.06D+07 ExpMxC= 1.21D+04 IAcc=3 IRadAn=         5 AccDes= 0.00D+00
 HarFok:  IExCor=  205 AccDes= 0.00D+00 IRadAn=         5 IDoV=-2 UseB2=F ITyADJ=14
 ICtDFT= 12500011 ScaDFX=  1.000000  1.000000  1.000000  1.000000
 Range of M.O.s used for correlation:    21   210
 NBasis=   210 NAE=    42 NBE=    42 NFC=    20 NFV=     0
 NROrb=    190 NOA=    22 NOB=    22 NVA=   168 NVB=   168

 **** Warning!!: The largest alpha MO coefficient is  0.28065593D+02

 Semi-Direct transformation.
 ModeAB=           2 MOrb=            22 LenV=    2146226379
 LASXX=     69628944 LTotXX=    69628944 LenRXX=    69628944
 LTotAB=    70719517 MaxLAS=   129061680 LenRXY=   129061680
 NonZer=   139257888 LenScr=   209707008 LnRSAI=           0
 LnScr1=           0 LExtra=           0 Total=    408397632
 MaxDsk=          -1 SrtSym=           F ITran=            4
 JobTyp=0 Pass  1:  I=   1 to  22.
 (rs|ai) integrals will be sorted in core.
 Spin components of T(2) and E(2):
     alpha-alpha T2 =       0.3834105213D-01 E2=     -0.1232453294D+00
     alpha-beta  T2 =       0.1927029498D+00 E2=     -0.6175576072D+00
     beta-beta   T2 =       0.3834105213D-01 E2=     -0.1232453294D+00
 ANorm=    0.1126669896D+01
 E2 =    -0.8640482661D+00 EUMP2 =    -0.52585485465840D+04
 Keep R2 and R3 ints in memory in canonical form, NReq=504031733.
 CIDS: In Core Option IDoMem=           1.
 Iterations=  50 Convergence= 0.100D-07
 Produce multiple copies of IABC intergrals
 Iteration Nr.   1
 **********************
 DD1Dir will call FoFMem   1 times, MxPair=       506
 NAB=   253 NAA=     0 NBB=     0.
 MP4(R+Q)=  0.21510103D-01
 E3=        0.11619008D-03        EUMP3=      -0.52585484304D+04
 E4(DQ)=    0.26756723D-03        UMP4(DQ)=   -0.52585481628D+04
 E4(SDQ)=  -0.11721152D-01        UMP4(SDQ)=  -0.52585601515D+04
 DE(Corr)= -0.84242197     E(Corr)=     -5258.5269203    
 NORM(A)=   0.11249726D+01
 Iteration Nr.   2
 **********************
 DD1Dir will call FoFMem   1 times, MxPair=       506
 NAB=   253 NAA=     0 NBB=     0.
 DE(Corr)= -0.87236367     E(CORR)=     -5258.5568620     Delta=-2.99D-02
 NORM(A)=   0.11353999D+01
 Iteration Nr.   3
 **********************
 DD1Dir will call FoFMem   1 times, MxPair=       506
 NAB=   253 NAA=     0 NBB=     0.
 DE(Corr)= -0.87025084     E(CORR)=     -5258.5547492     Delta= 2.11D-03
 NORM(A)=   0.11381754D+01
 Iteration Nr.   4
 **********************
 DD1Dir will call FoFMem   1 times, MxPair=       506
 NAB=   253 NAA=     0 NBB=     0.
 DE(Corr)= -0.87279048     E(CORR)=     -5258.5572888     Delta=-2.54D-03
 NORM(A)=   0.11394949D+01
 Iteration Nr.   5
 **********************
 DD1Dir will call FoFMem   1 times, MxPair=       506
 NAB=   253 NAA=     0 NBB=     0.
 DE(Corr)= -0.87316661     E(CORR)=     -5258.5576649     Delta=-3.76D-04
 NORM(A)=   0.11400133D+01
 Iteration Nr.   6
 **********************
 DD1Dir will call FoFMem   1 times, MxPair=       506
 NAB=   253 NAA=     0 NBB=     0.
 DE(Corr)= -0.87323128     E(CORR)=     -5258.5577296     Delta=-6.47D-05
 NORM(A)=   0.11401182D+01
 Iteration Nr.   7
 **********************
 DD1Dir will call FoFMem   1 times, MxPair=       506
 NAB=   253 NAA=     0 NBB=     0.
 DE(Corr)= -0.87324572     E(CORR)=     -5258.5577440     Delta=-1.44D-05
 NORM(A)=   0.11401273D+01
 Iteration Nr.   8
 **********************
 DD1Dir will call FoFMem   1 times, MxPair=       506
 NAB=   253 NAA=     0 NBB=     0.
 DE(Corr)= -0.87324605     E(CORR)=     -5258.5577444     Delta=-3.28D-07
 NORM(A)=   0.11401425D+01
 Iteration Nr.   9
 **********************
 DD1Dir will call FoFMem   1 times, MxPair=       506
 NAB=   253 NAA=     0 NBB=     0.
 DE(Corr)= -0.87324413     E(CORR)=     -5258.5577424     Delta= 1.92D-06
 NORM(A)=   0.11401425D+01
 Iteration Nr.  10
 **********************
 DD1Dir will call FoFMem   1 times, MxPair=       506
 NAB=   253 NAA=     0 NBB=     0.
 DE(Corr)= -0.87324554     E(CORR)=     -5258.5577439     Delta=-1.41D-06
 NORM(A)=   0.11401453D+01
 Iteration Nr.  11
 **********************
 DD1Dir will call FoFMem   1 times, MxPair=       506
 NAB=   253 NAA=     0 NBB=     0.
 DE(Corr)= -0.87324669     E(CORR)=     -5258.5577450     Delta=-1.15D-06
 NORM(A)=   0.11401471D+01
 Iteration Nr.  12
 **********************
 DD1Dir will call FoFMem   1 times, MxPair=       506
 NAB=   253 NAA=     0 NBB=     0.
 DE(Corr)= -0.87324700     E(CORR)=     -5258.5577453     Delta=-3.15D-07
 NORM(A)=   0.11401481D+01
 Iteration Nr.  13
 **********************
 DD1Dir will call FoFMem   1 times, MxPair=       506
 NAB=   253 NAA=     0 NBB=     0.
 DE(Corr)= -0.87324748     E(CORR)=     -5258.5577458     Delta=-4.74D-07
 NORM(A)=   0.11401488D+01
 Iteration Nr.  14
 **********************
 DD1Dir will call FoFMem   1 times, MxPair=       506
 NAB=   253 NAA=     0 NBB=     0.
 DE(Corr)= -0.87324759     E(CORR)=     -5258.5577459     Delta=-1.09D-07
 NORM(A)=   0.11401492D+01
 Iteration Nr.  15
 **********************
 DD1Dir will call FoFMem   1 times, MxPair=       506
 NAB=   253 NAA=     0 NBB=     0.
 DE(Corr)= -0.87324766     E(CORR)=     -5258.5577460     Delta=-7.09D-08
 NORM(A)=   0.11401493D+01
 Iteration Nr.  16
 **********************
 DD1Dir will call FoFMem   1 times, MxPair=       506
 NAB=   253 NAA=     0 NBB=     0.
 DE(Corr)= -0.87324769     E(CORR)=     -5258.5577460     Delta=-3.04D-08
 NORM(A)=   0.11401494D+01
 Iteration Nr.  17
 **********************
 DD1Dir will call FoFMem   1 times, MxPair=       506
 NAB=   253 NAA=     0 NBB=     0.
 DE(Corr)= -0.87324768     E(CORR)=     -5258.5577460     Delta= 3.53D-09
 NORM(A)=   0.11401494D+01
 Wavefunction amplitudes converged. E(Corr)=     -5258.5577460    
 Largest amplitude= 4.29D-02

 Z-amplitude iterations

 Iteration Nr.   1
 **********************
 DD1Dir will call FoFMem   1 times, MxPair=       506
 NAB=   253 NAA=     0 NBB=     0.
 DE(Z)= -0.84602022     E(Z)=     -5258.5305185     Delta= 2.72D-02
 NORM(A)=   0.11401231D+01
 Iteration Nr.   2
 **********************
 DD1Dir will call FoFMem   1 times, MxPair=       506
 NAB=   253 NAA=     0 NBB=     0.
 DE(Z)= -0.84602018     E(Z)=     -5258.5305185     Delta= 3.81D-08
 NORM(A)=   0.11401129D+01
 Iteration Nr.   3
 **********************
 DD1Dir will call FoFMem   1 times, MxPair=       506
 NAB=   253 NAA=     0 NBB=     0.
 DE(Z)= -0.84602018     E(Z)=     -5258.5305185     Delta= 4.03D-09
 NORM(A)=   0.11401048D+01
 Iteration Nr.   4
 **********************
 DD1Dir will call FoFMem   1 times, MxPair=       506
 NAB=   253 NAA=     0 NBB=     0.
 DE(Z)= -0.84602018     E(Z)=     -5258.5305185     Delta=-2.33D-09
 NORM(A)=   0.11399214D+01
 Iteration Nr.   5
 **********************
 DD1Dir will call FoFMem   1 times, MxPair=       506
 NAB=   253 NAA=     0 NBB=     0.
 DE(Z)= -0.84601936     E(Z)=     -5258.5305177     Delta= 8.20D-07
 NORM(A)=   0.11302614D+01
 Iteration Nr.   6
 **********************
 DD1Dir will call FoFMem   1 times, MxPair=       506
 NAB=   253 NAA=     0 NBB=     0.
 DE(Z)= -0.84599219     E(Z)=     -5258.5304905     Delta= 2.72D-05
 NORM(A)=   0.11302639D+01
 Iteration Nr.   7
 **********************
 DD1Dir will call FoFMem   1 times, MxPair=       506
 NAB=   253 NAA=     0 NBB=     0.
 DE(Z)= -0.84598871     E(Z)=     -5258.5304870     Delta= 3.49D-06
 NORM(A)=   0.11302634D+01
 Iteration Nr.   8
 **********************
 DD1Dir will call FoFMem   1 times, MxPair=       506
 NAB=   253 NAA=     0 NBB=     0.
 DE(Z)= -0.84599010     E(Z)=     -5258.5304884     Delta=-1.39D-06
 NORM(A)=   0.11302631D+01
 Iteration Nr.   9
 **********************
 DD1Dir will call FoFMem   1 times, MxPair=       506
 NAB=   253 NAA=     0 NBB=     0.
 DE(Z)= -0.84599003     E(Z)=     -5258.5304884     Delta= 6.54D-08
 NORM(A)=   0.11302630D+01
 Iteration Nr.  10
 **********************
 DD1Dir will call FoFMem   1 times, MxPair=       506
 NAB=   253 NAA=     0 NBB=     0.
 DE(Z)= -0.84598996     E(Z)=     -5258.5304883     Delta= 7.67D-08
 NORM(A)=   0.11302631D+01
 Iteration Nr.  11
 **********************
 DD1Dir will call FoFMem   1 times, MxPair=       506
 NAB=   253 NAA=     0 NBB=     0.
 DE(Z)= -0.84598999     E(Z)=     -5258.5304883     Delta=-3.42D-08
 NORM(A)=   0.11302631D+01
 Iteration Nr.  12
 **********************
 DD1Dir will call FoFMem   1 times, MxPair=       506
 NAB=   253 NAA=     0 NBB=     0.
 DE(Z)= -0.84599000     E(Z)=     -5258.5304883     Delta=-7.75D-09
 NORM(A)=   0.11302630D+01
 Z-amplitudes converged.
 Discarding MO integrals.
          Differentiating once with respect to electric field.
                with respect to dipole field.
          Electric field/nuclear overlap derivatives assumed to be zero.
 Keep R1 ints in memory in canonical form, NReq=258592069.
          There are     1 degrees of freedom in the 1st order CPHF.  IDoFFX=0 NUNeed=     1.
 LinEq1:  Iter=  0 NonCon=     1 RMS=1.95D-03 Max=5.62D-02 NDo=     1
 AX will form     1 AO Fock derivatives at one time.
 LinEq1:  Iter=  1 NonCon=     1 RMS=7.42D-04 Max=2.60D-02 NDo=     1
 LinEq1:  Iter=  2 NonCon=     1 RMS=3.10D-04 Max=9.39D-03 NDo=     1
 LinEq1:  Iter=  3 NonCon=     1 RMS=1.03D-04 Max=2.99D-03 NDo=     1
 LinEq1:  Iter=  4 NonCon=     1 RMS=5.36D-05 Max=1.65D-03 NDo=     1
 LinEq1:  Iter=  5 NonCon=     1 RMS=1.65D-05 Max=4.70D-04 NDo=     1
 LinEq1:  Iter=  6 NonCon=     1 RMS=6.31D-06 Max=1.31D-04 NDo=     1
 LinEq1:  Iter=  7 NonCon=     1 RMS=1.35D-06 Max=2.12D-05 NDo=     1
 LinEq1:  Iter=  8 NonCon=     1 RMS=2.69D-07 Max=4.28D-06 NDo=     1
 LinEq1:  Iter=  9 NonCon=     1 RMS=6.48D-08 Max=1.21D-06 NDo=     1
 LinEq1:  Iter= 10 NonCon=     1 RMS=1.38D-08 Max=2.12D-07 NDo=     1
 LinEq1:  Iter= 11 NonCon=     1 RMS=3.91D-09 Max=9.83D-08 NDo=     1
 LinEq1:  Iter= 12 NonCon=     1 RMS=7.24D-10 Max=1.62D-08 NDo=     1
 LinEq1:  Iter= 13 NonCon=     1 RMS=1.25D-10 Max=2.68D-09 NDo=     1
 LinEq1:  Iter= 14 NonCon=     0 RMS=2.82D-11 Max=5.61D-10 NDo=     1
 Linear equations converged to 1.000D-10 1.000D-09 after    14 iterations.
 End of Minotr F.D. properties file   721 does not exist.
 End of Minotr F.D. properties file   722 does not exist.
 End of Minotr F.D. properties file   788 does not exist.

 **********************************************************************

            Population analysis using the CC Density.

 **********************************************************************

 Alpha  occ. eigenvalues -- -490.06700-490.06595 -65.20693 -65.20585 -58.56225
 Alpha  occ. eigenvalues --  -58.56117 -58.56074 -58.56058 -58.55966 -58.55950
 Alpha  occ. eigenvalues --  -20.62887 -11.46379  -9.87999  -9.87884  -7.49187
 Alpha  occ. eigenvalues --   -7.49071  -7.48464  -7.48393  -7.48349  -7.48279
 Alpha  occ. eigenvalues --   -3.23583  -3.23465  -3.23224  -3.23128  -3.23108
 Alpha  occ. eigenvalues --   -3.23014  -3.22216  -3.22214  -3.22102  -3.22100
 Alpha  occ. eigenvalues --   -1.48428  -1.10682  -1.04734  -0.79403  -0.68332
 Alpha  occ. eigenvalues --   -0.67577  -0.63049  -0.47857  -0.46156  -0.45761
 Alpha  occ. eigenvalues --   -0.45106  -0.43188
 Alpha virt. eigenvalues --    0.03726   0.05638   0.06985   0.07555   0.08167
 Alpha virt. eigenvalues --    0.09306   0.09993   0.10241   0.10941   0.11874
 Alpha virt. eigenvalues --    0.13001   0.13177   0.17470   0.19362   0.21845
 Alpha virt. eigenvalues --    0.22358   0.23242   0.24152   0.25856   0.26652
 Alpha virt. eigenvalues --    0.27508   0.28895   0.31925   0.32912   0.35562
 Alpha virt. eigenvalues --    0.36753   0.37003   0.39739   0.41305   0.43720
 Alpha virt. eigenvalues --    0.44685   0.46441   0.46626   0.49535   0.49678
 Alpha virt. eigenvalues --    0.52526   0.55717   0.56274   0.58708   0.60140
 Alpha virt. eigenvalues --    0.60855   0.63116   0.69543   0.70141   0.71518
 Alpha virt. eigenvalues --    0.71836   0.74624   0.75859   0.77523   0.78561
 Alpha virt. eigenvalues --    0.79399   0.82204   0.83594   0.84972   0.88362
 Alpha virt. eigenvalues --    0.88412   0.89859   0.90051   0.91343   0.93711
 Alpha virt. eigenvalues --    0.94722   0.98019   1.00348   1.01584   1.02878
 Alpha virt. eigenvalues --    1.05459   1.06691   1.11088   1.13092   1.13209
 Alpha virt. eigenvalues --    1.16977   1.17473   1.18688   1.30585   1.34494
 Alpha virt. eigenvalues --    1.36180   1.36321   1.40548   1.43743   1.44737
 Alpha virt. eigenvalues --    1.44823   1.45490   1.51348   1.52380   1.53078
 Alpha virt. eigenvalues --    1.62924   1.63428   1.70450   1.74446   1.79810
 Alpha virt. eigenvalues --    1.95168   2.10664   2.16500   2.17046   2.17654
 Alpha virt. eigenvalues --    2.19128   2.23326   2.24576   2.25204   2.26759
 Alpha virt. eigenvalues --    2.27110   2.27397   2.28675   2.28962   2.29662
 Alpha virt. eigenvalues --    2.30095   2.32580   2.32661   2.32666   2.33942
 Alpha virt. eigenvalues --    2.35650   2.36363   2.37175   2.37742   2.37972
 Alpha virt. eigenvalues --    2.39177   2.39324   2.40449   2.46494   2.48667
 Alpha virt. eigenvalues --    2.53167   2.55842   2.58553   2.59455   2.66646
 Alpha virt. eigenvalues --    2.70193   2.72822   2.76211   2.78457   2.87630
 Alpha virt. eigenvalues --    2.93181   2.97720   3.01125   3.09547   3.48847
 Alpha virt. eigenvalues --    3.57996   3.59066   3.59674   3.61694   3.67410
 Alpha virt. eigenvalues --    3.73305   3.83360   3.86300   3.89767   3.96095
 Alpha virt. eigenvalues --    4.11993   4.13619   4.48683   4.49767   5.00228
 Alpha virt. eigenvalues --    5.12600   5.13746   5.33626   5.47558   6.57428
 Alpha virt. eigenvalues --    6.58637   6.86170   6.87999   7.04470   7.16156
 Alpha virt. eigenvalues --    7.16892   7.21908   7.37211   7.49892   7.67691
 Alpha virt. eigenvalues --    7.68104  13.53988  15.28370
          Condensed to atoms (all electrons):
               1          2          3          4
     1  C    5.553821   0.030215   0.023986   0.238747
     2  Br   0.030215  35.045266  -0.116772  -0.055098
     3  Br   0.023986  -0.116772  35.041910  -0.055763
     4  O    0.238747  -0.055098  -0.055763   8.228372
 Mulliken charges:
               1
     1  C    0.153231
     2  Br   0.096389
     3  Br   0.106639
     4  O   -0.356259
 Sum of Mulliken charges =  -0.00000
 Mulliken charges with hydrogens summed into heavy atoms:
               1
     1  C    0.153231
     2  Br   0.096389
     3  Br   0.106639
     4  O   -0.356259
 Electronic spatial extent (au):  <R**2>=           1359.6413
 Charge=             -0.0000 electrons
 Dipole moment (field-independent basis, Debye):
    X=              0.0000    Y=              0.0370    Z=             -1.2269  Tot=              1.2274
 Quadrupole moment (field-independent basis, Debye-Ang):
   XX=            -46.9795   YY=            -44.9306   ZZ=            -47.5513
   XY=              0.0000   XZ=             -0.0000   YZ=             -0.0603
 Traceless Quadrupole moment (field-independent basis, Debye-Ang):
   XX=             -0.4924   YY=              1.5566   ZZ=             -1.0641
   XY=              0.0000   XZ=             -0.0000   YZ=             -0.0603
 Octapole moment (field-independent basis, Debye-Ang**2):
  XXX=              0.0000  YYY=              0.6710  ZZZ=            164.9261  XYY=              0.0000
  XXY=              0.2295  XXZ=             56.3403  XZZ=              0.0000  YZZ=              0.3231
  YYZ=             45.7002  XYZ=              0.0000
 Hexadecapole moment (field-independent basis, Debye-Ang**3):
 XXXX=            -53.7443 YYYY=           -574.0378 ZZZZ=           -597.4144 XXXY=              0.0000
 XXXZ=             -0.0000 YYYX=              0.0000 YYYZ=             -0.9756 ZZZX=             -0.0000
 ZZZY=             -1.2128 XXYY=           -111.9863 XXZZ=           -110.4650 YYZZ=           -175.6669
 XXYZ=             -0.3545 YYXZ=             -0.0000 ZZXY=              0.0000
 N-N= 4.482293935909D+02 E-N=-1.346820564831D+04  KE= 5.257216570671D+03
 There are a total of      108140 grid points.
 ElSum from          density=       84.0000033534
 ElSum from atomic densities=       84.0000019320

 Hirshfeld populations at iteration   1 (CX, CA, CB, DipXYZ):
               1          2          3          4          5          6
     1  C    0.000001   2.915078   2.915078   0.000000  -0.000088  -0.028493
     2  Br   0.000016  17.499704  17.499704  -0.000000  -0.072195  -0.007689
     3  Br   0.000015  17.497319  17.497319   0.000000   0.072483  -0.008517
     4  O    0.000008   4.087900   4.087900  -0.000000   0.000006  -0.035337
       Tot   0.000039  42.000002  42.000002  -0.000000   0.000207  -0.080036

 Dip from Atomic Chgs              0.000000   0.014358  -0.402638
         Total Dipole             -0.000000   0.014565  -0.482674

 Hirshfeld charges, spin densities, dipoles, and CM5 charges using IRadAn=      5:
              Q-H        S-H        Dx         Dy         Dz        Q-CM5   
     1  C    0.169843   0.000000   0.000000  -0.000088  -0.028493   0.182676
     2  Br   0.000592   0.000000  -0.000000  -0.072195  -0.007689   0.018692
     3  Br   0.005362   0.000000   0.000000   0.072483  -0.008517   0.023809
     4  O   -0.175800   0.000000  -0.000000   0.000006  -0.035337  -0.225180
       Tot  -0.000003   0.000000  -0.000000   0.000207  -0.080036  -0.000003
 Hirshfeld charges with hydrogens summed into heavy atoms:
              Q-H       Q-CM5   
     1  C    0.169843   0.182676
     2  Br   0.000592   0.018692
     3  Br   0.005362   0.023809
     4  O   -0.175800  -0.225180
 
 EQQ= 0.000000000000E+00 EQD= 0.000000000000E+00 EDD= 0.821070726021E-04
 EQQ+QD+DD= 0.821070726021E-04
 
 Breneman (CHELPG) radii used.
 GetVDW:  no radius for atom   2 atomic number  35.
 Error termination via Lnk1e in /home/wagner/chemistry/gaussian/g16/l602.exe at Mon Sep  5 03:06:38 2022.
 Job cpu time:       0 days 13 hours 27 minutes 13.3 seconds.
 Elapsed time:       0 days  0 hours 50 minutes 53.3 seconds.
 File lengths (MBytes):  RWF=  29492 Int=      0 D2E=      0 Chk=      2 Scr=      1
