 Entering Gaussian System, Link 0=/home/wagner/chemistry/gaussian/g16/g16
 Input=GAUSSIAN.com
 Output=GAUSSIAN.log
 Initial command:
 /home/wagner/chemistry/gaussian/g16/l1.exe "/home/wagner/chemistry/gaussian/work/Gau-76649.inp" -scrdir="/home/wagner/chemistry/gaussian/work/"
 Entering Link 1 = /home/wagner/chemistry/gaussian/g16/l1.exe PID=     76651.
  
 Copyright (c) 1988-2019, Gaussian, Inc.  All Rights Reserved.
  
 This is part of the Gaussian(R) 16 program.  It is based on
 the Gaussian(R) 09 system (copyright 2009, Gaussian, Inc.),
 the Gaussian(R) 03 system (copyright 2003, Gaussian, Inc.),
 the Gaussian(R) 98 system (copyright 1998, Gaussian, Inc.),
 the Gaussian(R) 94 system (copyright 1995, Gaussian, Inc.),
 the Gaussian 92(TM) system (copyright 1992, Gaussian, Inc.),
 the Gaussian 90(TM) system (copyright 1990, Gaussian, Inc.),
 the Gaussian 88(TM) system (copyright 1988, Gaussian, Inc.),
 the Gaussian 86(TM) system (copyright 1986, Carnegie Mellon
 University), and the Gaussian 82(TM) system (copyright 1983,
 Carnegie Mellon University). Gaussian is a federally registered
 trademark of Gaussian, Inc.
  
 This software contains proprietary and confidential information,
 including trade secrets, belonging to Gaussian, Inc.
  
 This software is provided under written license and may be
 used, copied, transmitted, or stored only in accord with that
 written license.
  
 The following legend is applicable only to US Government
 contracts under FAR:
  
                    RESTRICTED RIGHTS LEGEND
  
 Use, reproduction and disclosure by the US Government is
 subject to restrictions as set forth in subparagraphs (a)
 and (c) of the Commercial Computer Software - Restricted
 Rights clause in FAR 52.227-19.
  
 Gaussian, Inc.
 340 Quinnipiac St., Bldg. 40, Wallingford CT 06492
  
  
 ---------------------------------------------------------------
 Warning -- This program may not be used in any manner that
 competes with the business of Gaussian, Inc. or will provide
 assistance to any competitor of Gaussian, Inc.  The licensee
 of this program is prohibited from giving any competitor of
 Gaussian, Inc. access to this program.  By using this program,
 the user acknowledges that Gaussian, Inc. is engaged in the
 business of creating and licensing software in the field of
 computational chemistry and represents and warrants to the
 licensee that it is not a competitor of Gaussian, Inc. and that
 it will not use this program in any manner prohibited above.
 ---------------------------------------------------------------
  

 Cite this work as:
 Gaussian 16, Revision C.01,
 M. J. Frisch, G. W. Trucks, H. B. Schlegel, G. E. Scuseria, 
 M. A. Robb, J. R. Cheeseman, G. Scalmani, V. Barone, 
 G. A. Petersson, H. Nakatsuji, X. Li, M. Caricato, A. V. Marenich, 
 J. Bloino, B. G. Janesko, R. Gomperts, B. Mennucci, H. P. Hratchian, 
 J. V. Ortiz, A. F. Izmaylov, J. L. Sonnenberg, D. Williams-Young, 
 F. Ding, F. Lipparini, F. Egidi, J. Goings, B. Peng, A. Petrone, 
 T. Henderson, D. Ranasinghe, V. G. Zakrzewski, J. Gao, N. Rega, 
 G. Zheng, W. Liang, M. Hada, M. Ehara, K. Toyota, R. Fukuda, 
 J. Hasegawa, M. Ishida, T. Nakajima, Y. Honda, O. Kitao, H. Nakai, 
 T. Vreven, K. Throssell, J. A. Montgomery, Jr., J. E. Peralta, 
 F. Ogliaro, M. J. Bearpark, J. J. Heyd, E. N. Brothers, K. N. Kudin, 
 V. N. Staroverov, T. A. Keith, R. Kobayashi, J. Normand, 
 K. Raghavachari, A. P. Rendell, J. C. Burant, S. S. Iyengar, 
 J. Tomasi, M. Cossi, J. M. Millam, M. Klene, C. Adamo, R. Cammi, 
 J. W. Ochterski, R. L. Martin, K. Morokuma, O. Farkas, 
 J. B. Foresman, and D. J. Fox, Gaussian, Inc., Wallingford CT, 2019.
 
 ******************************************
 Gaussian 16:  EM64L-G16RevC.01  3-Jul-2019
                 5-Sep-2022 
 ******************************************
 %nproc=16
 Will use up to   16 processors via shared memory.
 %mem=16GB
 ----------------------------------------------------------------------
 # qcisd/aug-cc-pvtz nosymm density=current pop=(chelpg,hirshfeld,npa,d
 ipole)
 ----------------------------------------------------------------------
 1/30=1,38=1,172=1/1;
 2/12=2,15=1,17=6,18=5,40=1/2;
 3/5=16,6=1,7=10,11=9,25=1,30=1,71=1/1,2,3;
 4//1;
 5/5=2,38=5/2;
 8/6=4,9=120000,10=1/1,4;
 9/5=8,15=1/13;
 11/28=-7,31=1,32=3,42=3/11;
 10/5=6,13=10,31=1/2;
 6/7=2,8=2,9=2,10=2,15=24,20=3,22=-1,40=-1,79=1/1,2,7;
 99/5=1,9=1/99;
 ------------------
 br2co-wavefunction
 ------------------
 Symbolic Z-matrix:
 Charge =  0 Multiplicity = 1
 C                     0.        0.       -0.49176 
 Br                    0.       -1.59418  -1.54682 
 Br                    0.        1.59418  -1.54682 
 O                     0.        0.        0.6945 
 
                          Input orientation:                          
 ---------------------------------------------------------------------
 Center     Atomic      Atomic             Coordinates (Angstroms)
 Number     Number       Type             X           Y           Z
 ---------------------------------------------------------------------
      1          6           0        0.000000    0.000000   -0.491759
      2         35           0        0.000000   -1.594181   -1.546820
      3         35           0        0.000000    1.594181   -1.546820
      4          8           0        0.000000    0.000000    0.694500
 ---------------------------------------------------------------------
                    Distance matrix (angstroms):
                    1          2          3          4
     1  C    0.000000
     2  Br   1.911692   0.000000
     3  Br   1.911692   3.188362   0.000000
     4  O    1.186259   2.750441   2.750441   0.000000
 Symmetry turned off by external request.
 Stoichiometry    CBr2O
 Framework group  C2V[C2(CO),SGV(Br2)]
 Deg. of freedom     3
 Full point group                 C2V     NOp   4
 Rotational constants (GHZ):           6.2357735           1.2598941           1.0481273
 Standard basis: Aug-CC-pVTZ (5D, 7F)
   210 basis functions,   578 primitive gaussians,   248 cartesian basis functions
    42 alpha electrons       42 beta electrons
       nuclear repulsion energy       448.7303617613 Hartrees.
 NAtoms=    4 NActive=    4 NUniq=    4 SFac= 1.00D+00 NAtFMM=   60 NAOKFM=F Big=F
 Integral buffers will be    131072 words long.
 Raffenetti 1 integral format.
 Two-electron integral symmetry is turned off.
 One-electron integrals computed using PRISM.
 NBasis=   210 RedAO= T EigKep=  1.05D-04  NBF=   210
 NBsUse=   210 1.00D-06 EigRej= -1.00D+00 NBFU=   210
 ExpMin= 3.51D-02 ExpMax= 1.06D+07 ExpMxC= 1.21D+04 IAcc=3 IRadAn=         5 AccDes= 0.00D+00
 Harris functional with IExCor=  205 and IRadAn=       5 diagonalized for initial guess.
 HarFok:  IExCor=  205 AccDes= 0.00D+00 IRadAn=         5 IDoV= 1 UseB2=F ITyADJ=14
 ICtDFT=  3500011 ScaDFX=  1.000000  1.000000  1.000000  1.000000
 FoFCou: FMM=F IPFlag=           0 FMFlag=      100000 FMFlg1=           0
         NFxFlg=           0 DoJE=T BraDBF=F KetDBF=T FulRan=T
         wScrn=  0.000000 ICntrl=       500 IOpCl=  0 I1Cent=   200000004 NGrid=           0
         NMat0=    1 NMatS0=      1 NMatT0=    0 NMatD0=    1 NMtDS0=    0 NMtDT0=    0
 Symmetry not used in FoFCou.
 Keep R1 ints in memory in canonical form, NReq=258584768.
 Requested convergence on RMS density matrix=1.00D-08 within 128 cycles.
 Requested convergence on MAX density matrix=1.00D-06.
 Requested convergence on             energy=1.00D-06.
 No special actions if energy rises.
 SCF Done:  E(RHF) =  -5257.68335528     A.U. after   12 cycles
            NFock= 12  Conv=0.94D-08     -V/T= 2.0001
 ExpMin= 3.51D-02 ExpMax= 1.06D+07 ExpMxC= 1.21D+04 IAcc=3 IRadAn=         5 AccDes= 0.00D+00
 HarFok:  IExCor=  205 AccDes= 0.00D+00 IRadAn=         5 IDoV=-2 UseB2=F ITyADJ=14
 ICtDFT= 12500011 ScaDFX=  1.000000  1.000000  1.000000  1.000000
 Range of M.O.s used for correlation:    21   210
 NBasis=   210 NAE=    42 NBE=    42 NFC=    20 NFV=     0
 NROrb=    190 NOA=    22 NOB=    22 NVA=   168 NVB=   168

 **** Warning!!: The largest alpha MO coefficient is  0.27969017D+02

 Semi-Direct transformation.
 ModeAB=           2 MOrb=            22 LenV=    2146226379
 LASXX=     69628944 LTotXX=    69628944 LenRXX=    69628944
 LTotAB=    70719517 MaxLAS=   129061680 LenRXY=   129061680
 NonZer=   139257888 LenScr=   209707008 LnRSAI=           0
 LnScr1=           0 LExtra=           0 Total=    408397632
 MaxDsk=          -1 SrtSym=           F ITran=            4
 JobTyp=0 Pass  1:  I=   1 to  22.
 (rs|ai) integrals will be sorted in core.
 Spin components of T(2) and E(2):
     alpha-alpha T2 =       0.3849169249D-01 E2=     -0.1234427518D+00
     alpha-beta  T2 =       0.1933701257D+00 E2=     -0.6184454044D+00
     beta-beta   T2 =       0.3849169249D-01 E2=     -0.1234427518D+00
 ANorm=    0.1127099601D+01
 E2 =    -0.8653309079D+00 EUMP2 =    -0.52585486861888D+04
 Keep R2 and R3 ints in memory in canonical form, NReq=504031762.
 CIDS: In Core Option IDoMem=           1.
 Iterations=  50 Convergence= 0.100D-07
 Produce multiple copies of IABC intergrals
 Iteration Nr.   1
 **********************
 DD1Dir will call FoFMem   1 times, MxPair=       506
 NAB=   253 NAA=     0 NBB=     0.
 MP4(R+Q)=  0.21581852D-01
 E3=        0.69565548D-03        EUMP3=      -0.52585479905D+04
 E4(DQ)=    0.10425577D-03        UMP4(DQ)=   -0.52585478863D+04
 E4(SDQ)=  -0.12078480D-01        UMP4(SDQ)=  -0.52585600690D+04
 DE(Corr)= -0.84305340     E(Corr)=     -5258.5264087    
 NORM(A)=   0.11252386D+01
 Iteration Nr.   2
 **********************
 DD1Dir will call FoFMem   1 times, MxPair=       506
 NAB=   253 NAA=     0 NBB=     0.
 DE(Corr)= -0.87340843     E(CORR)=     -5258.5567637     Delta=-3.04D-02
 NORM(A)=   0.11357678D+01
 Iteration Nr.   3
 **********************
 DD1Dir will call FoFMem   1 times, MxPair=       506
 NAB=   253 NAA=     0 NBB=     0.
 DE(Corr)= -0.87117535     E(CORR)=     -5258.5545306     Delta= 2.23D-03
 NORM(A)=   0.11386188D+01
 Iteration Nr.   4
 **********************
 DD1Dir will call FoFMem   1 times, MxPair=       506
 NAB=   253 NAA=     0 NBB=     0.
 DE(Corr)= -0.87377508     E(CORR)=     -5258.5571304     Delta=-2.60D-03
 NORM(A)=   0.11399829D+01
 Iteration Nr.   5
 **********************
 DD1Dir will call FoFMem   1 times, MxPair=       506
 NAB=   253 NAA=     0 NBB=     0.
 DE(Corr)= -0.87416595     E(CORR)=     -5258.5575212     Delta=-3.91D-04
 NORM(A)=   0.11405195D+01
 Iteration Nr.   6
 **********************
 DD1Dir will call FoFMem   1 times, MxPair=       506
 NAB=   253 NAA=     0 NBB=     0.
 DE(Corr)= -0.87423280     E(CORR)=     -5258.5575881     Delta=-6.69D-05
 NORM(A)=   0.11406295D+01
 Iteration Nr.   7
 **********************
 DD1Dir will call FoFMem   1 times, MxPair=       506
 NAB=   253 NAA=     0 NBB=     0.
 DE(Corr)= -0.87424779     E(CORR)=     -5258.5576031     Delta=-1.50D-05
 NORM(A)=   0.11406378D+01
 Iteration Nr.   8
 **********************
 DD1Dir will call FoFMem   1 times, MxPair=       506
 NAB=   253 NAA=     0 NBB=     0.
 DE(Corr)= -0.87424867     E(CORR)=     -5258.5576040     Delta=-8.83D-07
 NORM(A)=   0.11406536D+01
 Iteration Nr.   9
 **********************
 DD1Dir will call FoFMem   1 times, MxPair=       506
 NAB=   253 NAA=     0 NBB=     0.
 DE(Corr)= -0.87424627     E(CORR)=     -5258.5576016     Delta= 2.40D-06
 NORM(A)=   0.11406532D+01
 Iteration Nr.  10
 **********************
 DD1Dir will call FoFMem   1 times, MxPair=       506
 NAB=   253 NAA=     0 NBB=     0.
 DE(Corr)= -0.87424791     E(CORR)=     -5258.5576032     Delta=-1.64D-06
 NORM(A)=   0.11406561D+01
 Iteration Nr.  11
 **********************
 DD1Dir will call FoFMem   1 times, MxPair=       506
 NAB=   253 NAA=     0 NBB=     0.
 DE(Corr)= -0.87424899     E(CORR)=     -5258.5576043     Delta=-1.08D-06
 NORM(A)=   0.11406580D+01
 Iteration Nr.  12
 **********************
 DD1Dir will call FoFMem   1 times, MxPair=       506
 NAB=   253 NAA=     0 NBB=     0.
 DE(Corr)= -0.87424937     E(CORR)=     -5258.5576046     Delta=-3.76D-07
 NORM(A)=   0.11406592D+01
 Iteration Nr.  13
 **********************
 DD1Dir will call FoFMem   1 times, MxPair=       506
 NAB=   253 NAA=     0 NBB=     0.
 DE(Corr)= -0.87424986     E(CORR)=     -5258.5576051     Delta=-4.88D-07
 NORM(A)=   0.11406599D+01
 Iteration Nr.  14
 **********************
 DD1Dir will call FoFMem   1 times, MxPair=       506
 NAB=   253 NAA=     0 NBB=     0.
 DE(Corr)= -0.87424998     E(CORR)=     -5258.5576053     Delta=-1.22D-07
 NORM(A)=   0.11406603D+01
 Iteration Nr.  15
 **********************
 DD1Dir will call FoFMem   1 times, MxPair=       506
 NAB=   253 NAA=     0 NBB=     0.
 DE(Corr)= -0.87425005     E(CORR)=     -5258.5576053     Delta=-7.62D-08
 NORM(A)=   0.11406604D+01
 Iteration Nr.  16
 **********************
 DD1Dir will call FoFMem   1 times, MxPair=       506
 NAB=   253 NAA=     0 NBB=     0.
 DE(Corr)= -0.87425009     E(CORR)=     -5258.5576054     Delta=-3.16D-08
 NORM(A)=   0.11406605D+01
 Iteration Nr.  17
 **********************
 DD1Dir will call FoFMem   1 times, MxPair=       506
 NAB=   253 NAA=     0 NBB=     0.
 DE(Corr)= -0.87425008     E(CORR)=     -5258.5576054     Delta= 1.30D-09
 NORM(A)=   0.11406605D+01
 Wavefunction amplitudes converged. E(Corr)=     -5258.5576054    
 Largest amplitude= 4.65D-02

 Z-amplitude iterations

 Iteration Nr.   1
 **********************
 DD1Dir will call FoFMem   1 times, MxPair=       506
 NAB=   253 NAA=     0 NBB=     0.
 DE(Z)= -0.84687904     E(Z)=     -5258.5302343     Delta= 2.74D-02
 NORM(A)=   0.11406625D+01
 Iteration Nr.   2
 **********************
 DD1Dir will call FoFMem   1 times, MxPair=       506
 NAB=   253 NAA=     0 NBB=     0.
 DE(Z)= -0.84687904     E(Z)=     -5258.5302343     Delta=-2.26D-10
 NORM(A)=   0.11406529D+01
 Iteration Nr.   3
 **********************
 DD1Dir will call FoFMem   1 times, MxPair=       506
 NAB=   253 NAA=     0 NBB=     0.
 DE(Z)= -0.84687904     E(Z)=     -5258.5302343     Delta= 1.57D-10
 NORM(A)=   0.11406616D+01
 Iteration Nr.   4
 **********************
 DD1Dir will call FoFMem   1 times, MxPair=       506
 NAB=   253 NAA=     0 NBB=     0.
 DE(Z)= -0.84687904     E(Z)=     -5258.5302343     Delta= 6.15D-10
 NORM(A)=   0.11406616D+01
 Iteration Nr.   5
 **********************
 DD1Dir will call FoFMem   1 times, MxPair=       506
 NAB=   253 NAA=     0 NBB=     0.
 DE(Z)= -0.84687904     E(Z)=     -5258.5302343     Delta= 1.30D-10
 NORM(A)=   0.11307615D+01
 Iteration Nr.   6
 **********************
 DD1Dir will call FoFMem   1 times, MxPair=       506
 NAB=   253 NAA=     0 NBB=     0.
 DE(Z)= -0.84688241     E(Z)=     -5258.5302377     Delta=-3.37D-06
 NORM(A)=   0.11307328D+01
 Iteration Nr.   7
 **********************
 DD1Dir will call FoFMem   1 times, MxPair=       506
 NAB=   253 NAA=     0 NBB=     0.
 DE(Z)= -0.84692271     E(Z)=     -5258.5302780     Delta=-4.03D-05
 NORM(A)=   0.11306285D+01
 Iteration Nr.   8
 **********************
 DD1Dir will call FoFMem   1 times, MxPair=       506
 NAB=   253 NAA=     0 NBB=     0.
 DE(Z)= -0.84685214     E(Z)=     -5258.5302074     Delta= 7.06D-05
 NORM(A)=   0.11307141D+01
 Iteration Nr.   9
 **********************
 DD1Dir will call FoFMem   1 times, MxPair=       506
 NAB=   253 NAA=     0 NBB=     0.
 DE(Z)= -0.84686001     E(Z)=     -5258.5302153     Delta=-7.86D-06
 NORM(A)=   0.11307147D+01
 Iteration Nr.  10
 **********************
 DD1Dir will call FoFMem   1 times, MxPair=       506
 NAB=   253 NAA=     0 NBB=     0.
 DE(Z)= -0.84686136     E(Z)=     -5258.5302166     Delta=-1.35D-06
 NORM(A)=   0.11307156D+01
 Iteration Nr.  11
 **********************
 DD1Dir will call FoFMem   1 times, MxPair=       506
 NAB=   253 NAA=     0 NBB=     0.
 DE(Z)= -0.84686116     E(Z)=     -5258.5302164     Delta= 1.95D-07
 NORM(A)=   0.11307159D+01
 Iteration Nr.  12
 **********************
 DD1Dir will call FoFMem   1 times, MxPair=       506
 NAB=   253 NAA=     0 NBB=     0.
 DE(Z)= -0.84686111     E(Z)=     -5258.5302164     Delta= 5.44D-08
 NORM(A)=   0.11307160D+01
 Iteration Nr.  13
 **********************
 DD1Dir will call FoFMem   1 times, MxPair=       506
 NAB=   253 NAA=     0 NBB=     0.
 DE(Z)= -0.84686118     E(Z)=     -5258.5302165     Delta=-6.90D-08
 NORM(A)=   0.11307161D+01
 Iteration Nr.  14
 **********************
 DD1Dir will call FoFMem   1 times, MxPair=       506
 NAB=   253 NAA=     0 NBB=     0.
 DE(Z)= -0.84686115     E(Z)=     -5258.5302164     Delta= 2.59D-08
 NORM(A)=   0.11307161D+01
 Iteration Nr.  15
 **********************
 DD1Dir will call FoFMem   1 times, MxPair=       506
 NAB=   253 NAA=     0 NBB=     0.
 DE(Z)= -0.84686115     E(Z)=     -5258.5302164     Delta=-1.94D-09
 NORM(A)=   0.11307161D+01
 Z-amplitudes converged.
 Discarding MO integrals.
          Differentiating once with respect to electric field.
                with respect to dipole field.
          Electric field/nuclear overlap derivatives assumed to be zero.
 Keep R1 ints in memory in canonical form, NReq=258592040.
          There are     1 degrees of freedom in the 1st order CPHF.  IDoFFX=0 NUNeed=     1.
 LinEq1:  Iter=  0 NonCon=     1 RMS=1.97D-03 Max=5.97D-02 NDo=     1
 AX will form     1 AO Fock derivatives at one time.
 LinEq1:  Iter=  1 NonCon=     1 RMS=7.46D-04 Max=2.59D-02 NDo=     1
 LinEq1:  Iter=  2 NonCon=     1 RMS=3.13D-04 Max=9.88D-03 NDo=     1
 LinEq1:  Iter=  3 NonCon=     1 RMS=1.05D-04 Max=3.26D-03 NDo=     1
 LinEq1:  Iter=  4 NonCon=     1 RMS=5.46D-05 Max=1.67D-03 NDo=     1
 LinEq1:  Iter=  5 NonCon=     1 RMS=1.67D-05 Max=4.80D-04 NDo=     1
 LinEq1:  Iter=  6 NonCon=     1 RMS=6.44D-06 Max=1.38D-04 NDo=     1
 LinEq1:  Iter=  7 NonCon=     1 RMS=1.39D-06 Max=2.21D-05 NDo=     1
 LinEq1:  Iter=  8 NonCon=     1 RMS=2.79D-07 Max=4.53D-06 NDo=     1
 LinEq1:  Iter=  9 NonCon=     1 RMS=6.80D-08 Max=1.23D-06 NDo=     1
 LinEq1:  Iter= 10 NonCon=     1 RMS=1.45D-08 Max=2.31D-07 NDo=     1
 LinEq1:  Iter= 11 NonCon=     1 RMS=4.11D-09 Max=1.02D-07 NDo=     1
 LinEq1:  Iter= 12 NonCon=     1 RMS=7.59D-10 Max=1.67D-08 NDo=     1
 LinEq1:  Iter= 13 NonCon=     1 RMS=1.26D-10 Max=2.84D-09 NDo=     1
 LinEq1:  Iter= 14 NonCon=     0 RMS=1.90D-11 Max=4.32D-10 NDo=     1
 Linear equations converged to 1.000D-10 1.000D-09 after    14 iterations.
 End of Minotr F.D. properties file   721 does not exist.
 End of Minotr F.D. properties file   722 does not exist.
 End of Minotr F.D. properties file   788 does not exist.

 **********************************************************************

            Population analysis using the CC Density.

 **********************************************************************

 Alpha  occ. eigenvalues -- -490.06730-490.06730 -65.20722 -65.20722 -58.56254
 Alpha  occ. eigenvalues --  -58.56254 -58.56104 -58.56104 -58.56087 -58.56087
 Alpha  occ. eigenvalues --  -20.62776 -11.46488  -9.88027  -9.88026  -7.49216
 Alpha  occ. eigenvalues --   -7.49215  -7.48493  -7.48492  -7.48421  -7.48420
 Alpha  occ. eigenvalues --   -3.23612  -3.23611  -3.23254  -3.23252  -3.23157
 Alpha  occ. eigenvalues --   -3.23156  -3.22244  -3.22243  -3.22242  -3.22241
 Alpha  occ. eigenvalues --   -1.47615  -1.10892  -1.04821  -0.79337  -0.67996
 Alpha  occ. eigenvalues --   -0.67430  -0.62611  -0.47941  -0.46156  -0.45886
 Alpha  occ. eigenvalues --   -0.45157  -0.43213
 Alpha virt. eigenvalues --    0.03759   0.05619   0.07018   0.07378   0.08194
 Alpha virt. eigenvalues --    0.09257   0.09995   0.10244   0.10929   0.11873
 Alpha virt. eigenvalues --    0.13015   0.13178   0.17470   0.19353   0.21770
 Alpha virt. eigenvalues --    0.22372   0.23239   0.24195   0.25832   0.26688
 Alpha virt. eigenvalues --    0.27509   0.28903   0.31919   0.32910   0.35572
 Alpha virt. eigenvalues --    0.36745   0.36953   0.39696   0.41335   0.43719
 Alpha virt. eigenvalues --    0.44701   0.46383   0.46567   0.49554   0.49621
 Alpha virt. eigenvalues --    0.52533   0.55696   0.56270   0.58763   0.60141
 Alpha virt. eigenvalues --    0.60913   0.63154   0.69259   0.70086   0.71475
 Alpha virt. eigenvalues --    0.71688   0.74515   0.75885   0.77505   0.78543
 Alpha virt. eigenvalues --    0.79370   0.82288   0.83463   0.85013   0.88295
 Alpha virt. eigenvalues --    0.88415   0.89823   0.90160   0.91385   0.93740
 Alpha virt. eigenvalues --    0.94730   0.98040   1.00418   1.01415   1.02856
 Alpha virt. eigenvalues --    1.05411   1.06631   1.11253   1.13013   1.13172
 Alpha virt. eigenvalues --    1.17129   1.17677   1.18870   1.30074   1.34399
 Alpha virt. eigenvalues --    1.36364   1.36371   1.40597   1.43934   1.44792
 Alpha virt. eigenvalues --    1.44914   1.45418   1.51474   1.52475   1.52879
 Alpha virt. eigenvalues --    1.62767   1.63480   1.70228   1.74496   1.80432
 Alpha virt. eigenvalues --    1.94910   2.10608   2.16418   2.16992   2.17619
 Alpha virt. eigenvalues --    2.18922   2.23281   2.24450   2.25218   2.26598
 Alpha virt. eigenvalues --    2.27080   2.27410   2.28731   2.28920   2.29559
 Alpha virt. eigenvalues --    2.30070   2.32544   2.32605   2.32606   2.33984
 Alpha virt. eigenvalues --    2.35508   2.36245   2.37146   2.37716   2.37944
 Alpha virt. eigenvalues --    2.39287   2.39310   2.40399   2.46563   2.48538
 Alpha virt. eigenvalues --    2.53156   2.55636   2.58267   2.58946   2.66845
 Alpha virt. eigenvalues --    2.70060   2.72386   2.75915   2.78259   2.88174
 Alpha virt. eigenvalues --    2.93275   2.98331   3.01958   3.09663   3.47991
 Alpha virt. eigenvalues --    3.58174   3.58656   3.59694   3.61830   3.67487
 Alpha virt. eigenvalues --    3.72813   3.83658   3.86249   3.90079   3.95593
 Alpha virt. eigenvalues --    4.11329   4.12929   4.47509   4.48244   5.00729
 Alpha virt. eigenvalues --    5.10097   5.14061   5.31482   5.47018   6.57444
 Alpha virt. eigenvalues --    6.58636   6.85933   6.87723   7.03135   7.15714
 Alpha virt. eigenvalues --    7.16794   7.20566   7.35813   7.50058   7.66482
 Alpha virt. eigenvalues --    7.68472  13.40835  15.08343
          Condensed to atoms (all electrons):
               1          2          3          4
     1  C    5.570448   0.023908   0.023908   0.233112
     2  Br   0.023908  35.040973  -0.117379  -0.054058
     3  Br   0.023908  -0.117379  35.040973  -0.054058
     4  O    0.233112  -0.054058  -0.054058   8.236737
 Mulliken charges:
               1
     1  C    0.148622
     2  Br   0.106556
     3  Br   0.106556
     4  O   -0.361734
 Sum of Mulliken charges =  -0.00000
 Mulliken charges with hydrogens summed into heavy atoms:
               1
     1  C    0.148622
     2  Br   0.106556
     3  Br   0.106556
     4  O   -0.361734
 Electronic spatial extent (au):  <R**2>=           1355.9393
 Charge=             -0.0000 electrons
 Dipole moment (field-independent basis, Debye):
    X=              0.0000    Y=             -0.0000    Z=             -1.3020  Tot=              1.3020
 Quadrupole moment (field-independent basis, Debye-Ang):
   XX=            -46.9776   YY=            -44.8634   ZZ=            -47.4880
   XY=              0.0000   XZ=              0.0000   YZ=              0.0000
 Traceless Quadrupole moment (field-independent basis, Debye-Ang):
   XX=             -0.5346   YY=              1.5796   ZZ=             -1.0450
   XY=              0.0000   XZ=              0.0000   YZ=              0.0000
 Octapole moment (field-independent basis, Debye-Ang**2):
  XXX=              0.0000  YYY=             -0.0000  ZZZ=            164.4352  XYY=              0.0000
  XXY=              0.0000  XXZ=             56.2167  XZZ=              0.0000  YZZ=              0.0000
  YYZ=             45.4764  XYZ=             -0.0000
 Hexadecapole moment (field-independent basis, Debye-Ang**3):
 XXXX=            -53.6998 YYYY=           -570.3193 ZZZZ=           -597.1173 XXXY=              0.0000
 XXXZ=              0.0000 YYYX=              0.0000 YYYZ=              0.0000 ZZZX=             -0.0000
 ZZZY=             -0.0000 XXYY=           -111.2916 XXZZ=           -110.4459 YYZZ=           -174.8298
 XXYZ=             -0.0000 YYXZ=              0.0000 ZZXY=              0.0000
 N-N= 4.487303617613D+02 E-N=-1.346915811000D+04  KE= 5.257184513738D+03
 There are a total of      108140 grid points.
 ElSum from          density=       84.0000032341
 ElSum from atomic densities=       84.0000017613

 Hirshfeld populations at iteration   1 (CX, CA, CB, DipXYZ):
               1          2          3          4          5          6
     1  C    0.000001   2.916041   2.916041   0.000000   0.000000  -0.029600
     2  Br   0.000015  17.497058  17.497058  -0.000000  -0.073546  -0.009055
     3  Br   0.000015  17.497058  17.497058   0.000000   0.073546  -0.009055
     4  O    0.000008   4.089844   4.089844  -0.000000  -0.000000  -0.038252
       Tot   0.000039  42.000002  42.000002  -0.000000  -0.000000  -0.085962

 Dip from Atomic Chgs              0.000000  -0.000000  -0.426264
         Total Dipole             -0.000000  -0.000000  -0.512226

 Hirshfeld charges, spin densities, dipoles, and CM5 charges using IRadAn=      5:
              Q-H        S-H        Dx         Dy         Dz        Q-CM5   
     1  C    0.167919   0.000000   0.000000   0.000000  -0.029600   0.179503
     2  Br   0.005883   0.000000  -0.000000  -0.073546  -0.009055   0.024233
     3  Br   0.005883   0.000000   0.000000   0.073546  -0.009055   0.024233
     4  O   -0.179688   0.000000  -0.000000  -0.000000  -0.038252  -0.227972
       Tot  -0.000003   0.000000  -0.000000  -0.000000  -0.085962  -0.000003
 Hirshfeld charges with hydrogens summed into heavy atoms:
              Q-H       Q-CM5   
     1  C    0.167919   0.179503
     2  Br   0.005883   0.024233
     3  Br   0.005883   0.024233
     4  O   -0.179688  -0.227972
 
 EQQ= 0.000000000000E+00 EQD= 0.000000000000E+00 EDD= 0.924583636472E-04
 EQQ+QD+DD= 0.924583636472E-04
 
 Breneman (CHELPG) radii used.
 GetVDW:  no radius for atom   2 atomic number  35.
 Error termination via Lnk1e in /home/wagner/chemistry/gaussian/g16/l602.exe at Mon Sep  5 14:12:31 2022.
 Job cpu time:       0 days 13 hours 49 minutes 31.2 seconds.
 Elapsed time:       0 days  0 hours 52 minutes 20.0 seconds.
 File lengths (MBytes):  RWF=  29492 Int=      0 D2E=      0 Chk=      2 Scr=      1
