 Entering Gaussian System, Link 0=/home/bruns/programas/chemistry/gaussian/g09/g09
 Input=./h2co/h2co-fv.com
 Output=./h2co/h2co-fv.log
 Initial command:
 /home/bruns/programas/chemistry/gaussian/g09/l1.exe /home/bruns/programas/chemistry/gaussian/work/Gau-56163.inp -scrdir=/home/bruns/programas/chemistry/gaussian/work/
 Entering Link 1 = /home/bruns/programas/chemistry/gaussian/g09/l1.exe PID=     56165.
  
 Copyright (c) 1988,1990,1992,1993,1995,1998,2003,2009,2010,
            Gaussian, Inc.  All Rights Reserved.
  
 This is part of the Gaussian(R) 09 program.  It is based on
 the Gaussian(R) 03 system (copyright 2003, Gaussian, Inc.),
 the Gaussian(R) 98 system (copyright 1998, Gaussian, Inc.),
 the Gaussian(R) 94 system (copyright 1995, Gaussian, Inc.),
 the Gaussian 92(TM) system (copyright 1992, Gaussian, Inc.),
 the Gaussian 90(TM) system (copyright 1990, Gaussian, Inc.),
 the Gaussian 88(TM) system (copyright 1988, Gaussian, Inc.),
 the Gaussian 86(TM) system (copyright 1986, Carnegie Mellon
 University), and the Gaussian 82(TM) system (copyright 1983,
 Carnegie Mellon University). Gaussian is a federally registered
 trademark of Gaussian, Inc.
  
 This software contains proprietary and confidential information,
 including trade secrets, belonging to Gaussian, Inc.
  
 This software is provided under written license and may be
 used, copied, transmitted, or stored only in accord with that
 written license.
  
 The following legend is applicable only to US Government
 contracts under FAR:
  
                    RESTRICTED RIGHTS LEGEND
  
 Use, reproduction and disclosure by the US Government is
 subject to restrictions as set forth in subparagraphs (a)
 and (c) of the Commercial Computer Software - Restricted
 Rights clause in FAR 52.227-19.
  
 Gaussian, Inc.
 340 Quinnipiac St., Bldg. 40, Wallingford CT 06492
  
  
 ---------------------------------------------------------------
 Warning -- This program may not be used in any manner that
 competes with the business of Gaussian, Inc. or will provide
 assistance to any competitor of Gaussian, Inc.  The licensee
 of this program is prohibited from giving any competitor of
 Gaussian, Inc. access to this program.  By using this program,
 the user acknowledges that Gaussian, Inc. is engaged in the
 business of creating and licensing software in the field of
 computational chemistry and represents and warrants to the
 licensee that it is not a competitor of Gaussian, Inc. and that
 it will not use this program in any manner prohibited above.
 ---------------------------------------------------------------
  

 Cite this work as:
 Gaussian 09, Revision B.01,
 M. J. Frisch, G. W. Trucks, H. B. Schlegel, G. E. Scuseria, 
 M. A. Robb, J. R. Cheeseman, G. Scalmani, V. Barone, B. Mennucci, 
 G. A. Petersson, H. Nakatsuji, M. Caricato, X. Li, H. P. Hratchian, 
 A. F. Izmaylov, J. Bloino, G. Zheng, J. L. Sonnenberg, M. Hada, 
 M. Ehara, K. Toyota, R. Fukuda, J. Hasegawa, M. Ishida, T. Nakajima, 
 Y. Honda, O. Kitao, H. Nakai, T. Vreven, J. A. Montgomery, Jr., 
 J. E. Peralta, F. Ogliaro, M. Bearpark, J. J. Heyd, E. Brothers, 
 K. N. Kudin, V. N. Staroverov, T. Keith, R. Kobayashi, J. Normand, 
 K. Raghavachari, A. Rendell, J. C. Burant, S. S. Iyengar, J. Tomasi, 
 M. Cossi, N. Rega, J. M. Millam, M. Klene, J. E. Knox, J. B. Cross, 
 V. Bakken, C. Adamo, J. Jaramillo, R. Gomperts, R. E. Stratmann, 
 O. Yazyev, A. J. Austin, R. Cammi, C. Pomelli, J. W. Ochterski, 
 R. L. Martin, K. Morokuma, V. G. Zakrzewski, G. A. Voth, 
 P. Salvador, J. J. Dannenberg, S. Dapprich, A. D. Daniels, 
 O. Farkas, J. B. Foresman, J. V. Ortiz, J. Cioslowski, 
 and D. J. Fox, Gaussian, Inc., Wallingford CT, 2010.
 
 ******************************************
 Gaussian 09:  EM64L-G09RevB.01 12-Aug-2010
                16-Nov-2021 
 ******************************************
 %nproc=8
 Will use up to    8 processors via shared memory.
 %mem=8GB
 ----------------------------------------------------------------------
 #freq=noraman qcisd/aug-cc-pvtz density=current iop(7/33=1) nosym form
 check=forcecart
 ----------------------------------------------------------------------
 1/10=4,30=1,38=11/1,3,6;
 2/12=2,15=1,17=6,18=5,40=1/2;
 3/5=16,6=1,7=10,11=9,16=1,25=1,30=1,71=1/1,2,3;
 4/69=2/1;
 5/5=2,38=5,98=1/2;
 8/6=4,9=120000,10=1/1,4;
 9/5=8,15=1/13;
 11/28=-7,29=200,31=1,42=3/11;
 10/5=6,31=1/2;
 6/7=2,8=2,9=2,10=2,22=-1/1;
 7/12=7,30=1,33=1/1,2,3,16;
 1/38=10/6(3);
 7/8=1,25=1,30=1,33=1,44=-1/16;
 1/10=4,30=1,38=10/3;
 99//99;
 3/5=16,6=1,7=10,11=9,16=1,25=1,30=1,71=1/1,2,3;
 4/5=5,16=3,69=2/1;
 5/5=2,38=5,98=1/2;
 8/6=4,9=120000,10=1/1,4;
 9/5=8,15=1/13;
 11/28=-7,29=200,31=1,42=3/11;
 10/5=6,31=1/2;
 6/7=2,8=2,9=2,10=2,22=-1/1;
 7/7=1,12=7,30=1,33=1/1,2,3,16;
 1/38=10/6(-9);
 7/8=1,25=1,30=1,33=1,44=-1/16;
 1/10=4,30=1,38=10/3;
 99//99;
 ----------------
 h2co-frequencies
 ----------------
 Symbolic Z-matrix:
 Charge =  0 Multiplicity = 1
 O                     0.        0.        0.67925 
 C                     0.        0.       -0.52691 
 H                     0.        0.93661  -1.10662 
 H                     0.       -0.93661  -1.10662 
 

 GradGradGradGradGradGradGradGradGradGradGradGradGradGradGradGradGradGrad
 Berny optimization.
 Initialization pass.
 Trust Radius=3.00D-01 FncErr=1.00D-07 GrdErr=1.00D-07
 Number of steps in this run=      2 maximum allowed number of steps=      2.
 GradGradGradGradGradGradGradGradGradGradGradGradGradGradGradGradGradGrad

 NDeriv=  12 NFrqRd=  0 LFDDif=       1
 Numerical evaluation of force-constants.
 Nuclear step= 0.001000 Angstroms, electric field step= 0.000333 atomic units, NStep=1.
                          Input orientation:                          
 ---------------------------------------------------------------------
 Center     Atomic      Atomic             Coordinates (Angstroms)
 Number     Number       Type             X           Y           Z
 ---------------------------------------------------------------------
      1          8           0        0.000000    0.000000    0.679252
      2          6           0        0.000000    0.000000   -0.526911
      3          1           0        0.000000    0.936614   -1.106620
      4          1           0        0.000000   -0.936614   -1.106620
 ---------------------------------------------------------------------
                    Distance matrix (angstroms):
                    1          2          3          4
     1  O    0.000000
     2  C    1.206163   0.000000
     3  H    2.016577   1.101503   0.000000
     4  H    2.016577   1.101503   1.873228   0.000000
 Symmetry turned off by external request.
 Stoichiometry    CH2O
 Framework group  C2V[C2(CO),SGV(H2)]
 Deg. of freedom     3
 Full point group                 C2V     NOp   4
 Rotational constants (GHZ):    285.8122027     38.8698822     34.2165065
 Standard basis: Aug-CC-pVTZ (5D, 7F)
 Integral buffers will be    131072 words long.
 Raffenetti 1 integral format.
 Two-electron integral symmetry is turned off.
   138 basis functions,   198 primitive gaussians,   160 cartesian basis functions
     8 alpha electrons        8 beta electrons
       nuclear repulsion energy        31.3050110403 Hartrees.
 NAtoms=    4 NActive=    4 NUniq=    4 SFac= 1.00D+00 NAtFMM=   50 NAOKFM=F Big=F
 One-electron integrals computed using PRISM.
 NBasis=   138 RedAO= T  NBF=   138
 NBsUse=   138 1.00D-06 NBFU=   138
 Harris functional with IExCor=  205 diagonalized for initial guess.
 ExpMin= 2.53D-02 ExpMax= 1.53D+04 ExpMxC= 5.22D+02 IAcc=3 IRadAn=         0 AccDes= 0.00D+00
 HarFok:  IExCor=  205 AccDes= 0.00D+00 IRadAn=         0 IDoV= 1
 ScaDFX=  1.000000  1.000000  1.000000  1.000000
 FoFCou: FMM=F IPFlag=           0 FMFlag=      100000 FMFlg1=           0
         NFxFlg=           0 DoJE=T BraDBF=F KetDBF=T FulRan=T
         Omega=  0.000000  0.000000  1.000000  0.000000  0.000000 ICntrl=     500 IOpCl=  0
         NMat0=    1 NMatS0=    1 NMatT0=    0 NMatD0=    1 NMtDS0=    0 NMtDT0=    0
         I1Cent=           4 NGrid=           0.
 Symmetry not used in FoFCou.
 Requested convergence on RMS density matrix=1.00D-08 within 128 cycles.
 Requested convergence on MAX density matrix=1.00D-06.
 Requested convergence on             energy=1.00D-06.
 No special actions if energy rises.
 Keep R1 ints in memory in canonical form, NReq=85137408.
 SCF Done:  E(RHF) =  -113.913826411     A.U. after   11 cycles
             Convg  =    0.2900D-08             -V/T =  2.0018
 ExpMin= 2.53D-02 ExpMax= 1.53D+04 ExpMxC= 5.22D+02 IAcc=3 IRadAn=         5 AccDes= 0.00D+00
 HarFok:  IExCor=  205 AccDes= 0.00D+00 IRadAn=         5 IDoV=-2
 ScaDFX=  1.000000  1.000000  1.000000  1.000000
 DSYEVD returned Info=          93 IAlg= 4 N=    46 NDim=    46 NE2=    23340785 trying DSYEV.
 Range of M.O.s used for correlation:     3   138
 NBasis=   138 NAE=     8 NBE=     8 NFC=     2 NFV=     0
 NROrb=    136 NOA=     6 NOB=     6 NVA=   130 NVB=   130

 **** Warning!!: The largest alpha MO coefficient is  0.33810154D+02

 Semi-Direct transformation.
 ModeAB=           2 MOrb=             6 LenV=    1073118443
 LASXX=      7286295 LTotXX=     7286295 LenRXX=     7286295
 LTotAB=     7445736 MaxLAS=    10510080 LenRXY=    10510080
 NonZer=    14572590 LenScr=    22628352 LnRSAI=           0
 LnScr1=           0 LExtra=           0 Total=     40424727
 MaxDsk=          -1 SrtSym=           F ITran=            4
 JobTyp=0 Pass  1:  I=   1 to   6.
 (rs|ai) integrals will be sorted in core.
 Spin components of T(2) and E(2):
     alpha-alpha T2 =       0.1376070564D-01 E2=     -0.4804183287D-01
     alpha-beta  T2 =       0.8505465295D-01 E2=     -0.3064344908D+00
     beta-beta   T2 =       0.1376070564D-01 E2=     -0.4804183287D-01
 ANorm=    0.1054787213D+01
 E2 =    -0.4025181565D+00 EUMP2 =    -0.11431634456741D+03
 R2 and R3 integrals will be kept in memory, NReq=   167993840.
 Iterations=  50 Convergence= 0.100D-07
 Iteration Nr.   1
 **********************
 DD1Dir will call FoFMem   1 times, MxPair=        42
 NAB=    21 NAA=     0 NBB=     0.
 MP4(R+Q)=  0.88725993D-02
 E3=       -0.40191561D-02        EUMP3=      -0.11432036372D+03
 E4(DQ)=   -0.13495093D-02        UMP4(DQ)=   -0.11432171323D+03
 E4(SDQ)=  -0.66114986D-02        UMP4(SDQ)=  -0.11432697522D+03
 DE(Corr)= -0.39766471     E(Corr)=     -114.31149112    
 NORM(A)=   0.10554806D+01
 Iteration Nr.   2
 **********************
 DD1Dir will call FoFMem   1 times, MxPair=        42
 NAB=    21 NAA=     0 NBB=     0.
 DE(Corr)= -0.41160701     E(CORR)=     -114.32543342     Delta=-1.39D-02
 NORM(A)=   0.10615345D+01
 Iteration Nr.   3
 **********************
 DD1Dir will call FoFMem   1 times, MxPair=        42
 NAB=    21 NAA=     0 NBB=     0.
 DE(Corr)= -0.41153427     E(CORR)=     -114.32536068     Delta= 7.27D-05
 NORM(A)=   0.10634214D+01
 Iteration Nr.   4
 **********************
 DD1Dir will call FoFMem   1 times, MxPair=        42
 NAB=    21 NAA=     0 NBB=     0.
 DE(Corr)= -0.41294069     E(CORR)=     -114.32676710     Delta=-1.41D-03
 NORM(A)=   0.10641012D+01
 Iteration Nr.   5
 **********************
 DD1Dir will call FoFMem   1 times, MxPair=        42
 NAB=    21 NAA=     0 NBB=     0.
 DE(Corr)= -0.41312820     E(CORR)=     -114.32695461     Delta=-1.88D-04
 NORM(A)=   0.10643163D+01
 Iteration Nr.   6
 **********************
 DD1Dir will call FoFMem   1 times, MxPair=        42
 NAB=    21 NAA=     0 NBB=     0.
 DE(Corr)= -0.41315413     E(CORR)=     -114.32698054     Delta=-2.59D-05
 NORM(A)=   0.10643417D+01
 Iteration Nr.   7
 **********************
 DD1Dir will call FoFMem   1 times, MxPair=        42
 NAB=    21 NAA=     0 NBB=     0.
 DE(Corr)= -0.41315533     E(CORR)=     -114.32698175     Delta=-1.21D-06
 NORM(A)=   0.10643428D+01
 Iteration Nr.   8
 **********************
 DD1Dir will call FoFMem   1 times, MxPair=        42
 NAB=    21 NAA=     0 NBB=     0.
 DE(Corr)= -0.41315446     E(CORR)=     -114.32698087     Delta= 8.75D-07
 NORM(A)=   0.10643456D+01
 Iteration Nr.   9
 **********************
 DD1Dir will call FoFMem   1 times, MxPair=        42
 NAB=    21 NAA=     0 NBB=     0.
 DE(Corr)= -0.41315334     E(CORR)=     -114.32697975     Delta= 1.12D-06
 NORM(A)=   0.10643459D+01
 Iteration Nr.  10
 **********************
 DD1Dir will call FoFMem   1 times, MxPair=        42
 NAB=    21 NAA=     0 NBB=     0.
 DE(Corr)= -0.41315396     E(CORR)=     -114.32698037     Delta=-6.21D-07
 NORM(A)=   0.10643465D+01
 Iteration Nr.  11
 **********************
 DD1Dir will call FoFMem   1 times, MxPair=        42
 NAB=    21 NAA=     0 NBB=     0.
 DE(Corr)= -0.41315410     E(CORR)=     -114.32698051     Delta=-1.32D-07
 NORM(A)=   0.10643469D+01
 Iteration Nr.  12
 **********************
 DD1Dir will call FoFMem   1 times, MxPair=        42
 NAB=    21 NAA=     0 NBB=     0.
 DE(Corr)= -0.41315425     E(CORR)=     -114.32698066     Delta=-1.55D-07
 NORM(A)=   0.10643471D+01
 Iteration Nr.  13
 **********************
 DD1Dir will call FoFMem   1 times, MxPair=        42
 NAB=    21 NAA=     0 NBB=     0.
 DE(Corr)= -0.41315431     E(CORR)=     -114.32698072     Delta=-6.10D-08
 NORM(A)=   0.10643472D+01
 Iteration Nr.  14
 **********************
 DD1Dir will call FoFMem   1 times, MxPair=        42
 NAB=    21 NAA=     0 NBB=     0.
 DE(Corr)= -0.41315434     E(CORR)=     -114.32698075     Delta=-3.14D-08
 NORM(A)=   0.10643472D+01
 Iteration Nr.  15
 **********************
 DD1Dir will call FoFMem   1 times, MxPair=        42
 NAB=    21 NAA=     0 NBB=     0.
 DE(Corr)= -0.41315435     E(CORR)=     -114.32698076     Delta=-4.91D-09
 NORM(A)=   0.10643472D+01
 Iteration Nr.  16
 **********************
 DD1Dir will call FoFMem   1 times, MxPair=        42
 NAB=    21 NAA=     0 NBB=     0.
 DE(Corr)= -0.41315435     E(CORR)=     -114.32698076     Delta=-3.11D-09
 NORM(A)=   0.10643472D+01
 Largest amplitude= 6.44D-02

 Z-AMPLITUDE ITERATIONS

 Iteration Nr.   1
 **********************
 DD1Dir will call FoFMem   1 times, MxPair=        42
 NAB=    21 NAA=     0 NBB=     0.
 DE(Z)  -0.40112023D+00          E(Z)=    -0.11431494664D+03
 NORM(A)=   0.10643467D+01
 Iteration Nr.   2
 **********************
 DD1Dir will call FoFMem   1 times, MxPair=        42
 NAB=    21 NAA=     0 NBB=     0.
 DE(Z)  -0.40112020D+00          E(Z)=    -0.11431494661D+03
 NORM(A)=   0.10643467D+01
 Iteration Nr.   3
 **********************
 DD1Dir will call FoFMem   1 times, MxPair=        42
 NAB=    21 NAA=     0 NBB=     0.
 DE(Z)  -0.40112021D+00          E(Z)=    -0.11431494662D+03
 NORM(A)=   0.10643469D+01
 Iteration Nr.   4
 **********************
 DD1Dir will call FoFMem   1 times, MxPair=        42
 NAB=    21 NAA=     0 NBB=     0.
 DE(Z)  -0.40112022D+00          E(Z)=    -0.11431494663D+03
 NORM(A)=   0.10643469D+01
 Iteration Nr.   5
 **********************
 DD1Dir will call FoFMem   1 times, MxPair=        42
 NAB=    21 NAA=     0 NBB=     0.
 DE(Z)  -0.40112022D+00          E(Z)=    -0.11431494663D+03
 NORM(A)=   0.10603075D+01
 Iteration Nr.   6
 **********************
 DD1Dir will call FoFMem   1 times, MxPair=        42
 NAB=    21 NAA=     0 NBB=     0.
 DE(Z)  -0.40091077D+00          E(Z)=    -0.11431473718D+03
 NORM(A)=   0.10602862D+01
 Iteration Nr.   7
 **********************
 DD1Dir will call FoFMem   1 times, MxPair=        42
 NAB=    21 NAA=     0 NBB=     0.
 DE(Z)  -0.40090710D+00          E(Z)=    -0.11431473351D+03
 NORM(A)=   0.10602659D+01
 Iteration Nr.   8
 **********************
 DD1Dir will call FoFMem   1 times, MxPair=        42
 NAB=    21 NAA=     0 NBB=     0.
 DE(Z)  -0.40090651D+00          E(Z)=    -0.11431473292D+03
 NORM(A)=   0.10602647D+01
 Iteration Nr.   9
 **********************
 DD1Dir will call FoFMem   1 times, MxPair=        42
 NAB=    21 NAA=     0 NBB=     0.
 DE(Z)  -0.40090570D+00          E(Z)=    -0.11431473211D+03
 NORM(A)=   0.10602644D+01
 Iteration Nr.  10
 **********************
 DD1Dir will call FoFMem   1 times, MxPair=        42
 NAB=    21 NAA=     0 NBB=     0.
 DE(Z)  -0.40090586D+00          E(Z)=    -0.11431473227D+03
 NORM(A)=   0.10602644D+01
 Iteration Nr.  11
 **********************
 DD1Dir will call FoFMem   1 times, MxPair=        42
 NAB=    21 NAA=     0 NBB=     0.
 DE(Z)  -0.40090591D+00          E(Z)=    -0.11431473232D+03
 NORM(A)=   0.10602644D+01
 Iteration Nr.  12
 **********************
 DD1Dir will call FoFMem   1 times, MxPair=        42
 NAB=    21 NAA=     0 NBB=     0.
 DE(Z)  -0.40090585D+00          E(Z)=    -0.11431473226D+03
 NORM(A)=   0.10602644D+01
 Iteration Nr.  13
 **********************
 DD1Dir will call FoFMem   1 times, MxPair=        42
 NAB=    21 NAA=     0 NBB=     0.
 DE(Z)  -0.40090588D+00          E(Z)=    -0.11431473229D+03
 NORM(A)=   0.10602645D+01
 Iteration Nr.  14
 **********************
 DD1Dir will call FoFMem   1 times, MxPair=        42
 NAB=    21 NAA=     0 NBB=     0.
 DE(Z)  -0.40090588D+00          E(Z)=    -0.11431473229D+03
 NORM(A)=   0.10602645D+01
 Discarding MO integrals.
          IDoAtm=1111
          Differentiating once with respect to electric field.
                with respect to dipole field.
          Differentiating once with respect to nuclear coordinates.
          Keep R1 ints in memory in canonical form, NReq=84894631.
          There are     1 degrees of freedom in the 1st order CPHF.  IDoFFX=0.
 LinEq1:  Iter=  0 NonCon=     1 RMS=3.55D-03 Max=5.57D-02
 AX will form     1 AO Fock derivatives at one time.
 LinEq1:  Iter=  1 NonCon=     1 RMS=8.96D-04 Max=8.54D-03
 LinEq1:  Iter=  2 NonCon=     1 RMS=2.35D-04 Max=3.42D-03
 LinEq1:  Iter=  3 NonCon=     1 RMS=1.15D-04 Max=1.21D-03
 LinEq1:  Iter=  4 NonCon=     1 RMS=4.45D-05 Max=5.32D-04
 LinEq1:  Iter=  5 NonCon=     1 RMS=9.21D-06 Max=8.74D-05
 LinEq1:  Iter=  6 NonCon=     1 RMS=1.50D-06 Max=1.74D-05
 LinEq1:  Iter=  7 NonCon=     1 RMS=2.28D-07 Max=1.66D-06
 LinEq1:  Iter=  8 NonCon=     1 RMS=2.61D-08 Max=2.06D-07
 LinEq1:  Iter=  9 NonCon=     1 RMS=3.14D-09 Max=2.52D-08
 LinEq1:  Iter= 10 NonCon=     1 RMS=2.95D-10 Max=2.32D-09
 LinEq1:  Iter= 11 NonCon=     0 RMS=2.66D-11 Max=2.39D-10
 Linear equations converged to 1.000D-10 1.000D-09 after    11 iterations.
 End of Minotr Frequency-dependent properties file   721 does not exist.
 End of Minotr Frequency-dependent properties file   722 does not exist.

 **********************************************************************

            Population analysis using the QCI/CC density.

 **********************************************************************

 Alpha  occ. eigenvalues --  -20.57889 -11.34241  -1.40667  -0.87136  -0.69535
 Alpha  occ. eigenvalues --   -0.65246  -0.53718  -0.44380
 Alpha virt. eigenvalues --    0.02626   0.04168   0.06240   0.07646   0.12928
 Alpha virt. eigenvalues --    0.13296   0.13346   0.17433   0.19819   0.21172
 Alpha virt. eigenvalues --    0.21714   0.25409   0.25610   0.28124   0.32051
 Alpha virt. eigenvalues --    0.33801   0.33937   0.35899   0.38784   0.38980
 Alpha virt. eigenvalues --    0.39597   0.41891   0.48224   0.49878   0.56175
 Alpha virt. eigenvalues --    0.56743   0.66938   0.67680   0.72314   0.76379
 Alpha virt. eigenvalues --    0.81893   0.83426   0.84216   0.85683   0.87628
 Alpha virt. eigenvalues --    0.88208   0.92755   0.93411   0.93966   0.97962
 Alpha virt. eigenvalues --    1.00153   1.02091   1.02355   1.03797   1.06849
 Alpha virt. eigenvalues --    1.08246   1.09831   1.10185   1.25858   1.26577
 Alpha virt. eigenvalues --    1.30479   1.37045   1.38915   1.45783   1.47647
 Alpha virt. eigenvalues --    1.51303   1.57152   1.59856   1.62669   1.70678
 Alpha virt. eigenvalues --    1.73067   1.83597   1.96303   2.00597   2.03157
 Alpha virt. eigenvalues --    2.09409   2.18038   2.28729   2.32197   2.34114
 Alpha virt. eigenvalues --    2.34398   2.48994   2.49780   2.56028   2.60645
 Alpha virt. eigenvalues --    2.71589   2.78354   2.80902   2.92041   2.92944
 Alpha virt. eigenvalues --    3.06546   3.07633   3.14511   3.18696   3.41208
 Alpha virt. eigenvalues --    3.44418   3.52852   3.56479   3.62834   3.65985
 Alpha virt. eigenvalues --    3.70039   3.89668   3.95335   4.05622   4.11927
 Alpha virt. eigenvalues --    4.16186   4.16481   4.22045   4.24715   4.36367
 Alpha virt. eigenvalues --    4.58500   4.64822   4.68775   4.77016   5.03247
 Alpha virt. eigenvalues --    5.05132   5.10701   5.16054   5.24783   5.28445
 Alpha virt. eigenvalues --    5.32818   5.38588   5.88991   6.13733   6.23507
 Alpha virt. eigenvalues --    6.50096   6.59832   6.61841   6.91584   6.94937
 Alpha virt. eigenvalues --    7.09114   7.19090   7.20573   7.41345   7.52522
 Alpha virt. eigenvalues --    7.68647   7.72585   7.77145  14.96448  16.39637
          Condensed to atoms (all electrons):
              1          2          3          4
     1  O    8.193690   0.349453  -0.062868  -0.062868
     2  C    0.349453   5.719225   0.207784   0.207784
     3  H   -0.062868   0.207784   0.434667  -0.030409
     4  H   -0.062868   0.207784  -0.030409   0.434667
 Mulliken atomic charges:
              1
     1  O   -0.417407
     2  C   -0.484246
     3  H    0.450826
     4  H    0.450826
 Sum of Mulliken atomic charges =   0.00000
 Mulliken charges with hydrogens summed into heavy atoms:
              1
     1  O   -0.417407
     2  C    0.417407
 Sum of Mulliken charges with hydrogens summed into heavy atoms =   0.00000
 Electronic spatial extent (au):  <R**2>=             60.6315
 Charge=              0.0000 electrons
 Dipole moment (field-independent basis, Debye):
    X=              0.0000    Y=              0.0000    Z=             -2.4421  Tot=              2.4421
 Quadrupole moment (field-independent basis, Debye-Ang):
   XX=            -11.7378   YY=            -11.6215   ZZ=            -12.2708
   XY=              0.0000   XZ=              0.0000   YZ=              0.0000
 Traceless Quadrupole moment (field-independent basis, Debye-Ang):
   XX=              0.1389   YY=              0.2552   ZZ=             -0.3941
   XY=              0.0000   XZ=              0.0000   YZ=              0.0000
 Octapole moment (field-independent basis, Debye-Ang**2):
  XXX=              0.0000  YYY=              0.0000  ZZZ=              0.3113  XYY=              0.0000
  XXY=              0.0000  XXZ=              0.5813  XZZ=              0.0000  YZZ=              0.0000
  YYZ=             -0.7023  XYZ=              0.0000
 Hexadecapole moment (field-independent basis, Debye-Ang**3):
 XXXX=            -10.5190 YYYY=            -18.2497 ZZZZ=            -46.2399 XXXY=              0.0000
 XXXZ=              0.0000 YYYX=              0.0000 YYYZ=              0.0000 ZZZX=              0.0000
 ZZZY=              0.0000 XXYY=             -5.1552 XXZZ=             -9.3942 YYZZ=            -10.4551
 XXYZ=              0.0000 YYXZ=              0.0000 ZZXY=              0.0000
 N-N= 3.130501104030D+01 E-N=-3.313620117509D+02  KE= 1.142316246362D+02
 Use density number 7.
 DipInt: DoE/N= T T RetVal/Mat= T F Init=T NMatP=  1 IDeriv=0 Min/MaxMlt=  1  1
 Entering OneElI...
 Multipole integrals L=1 to 1 MinM= 0 MaxM= 0.
 Requested accuracy = 0.1000D-12
 PrsmSu:  NPrtUS=   1 ThrOK=F IAlg=1 NPAlg=1 LenDen=           0.
 Prism:   IPart=     0 DynPar=F LinDyn=F Incr=          10.
 PRISM was handed  1073591569 working-precision words and  1081 shell-pairs
 IPart=  0 NShTot=        1081 NBatch=          44 AvBLen=        24.6
 PrSmSu:  NxtVal=             11.
 Entering OneElI...
 Calculate overlap and kinetic energy integrals
    NBasis = 160  MinDer = 1  MaxDer = 1
 Requested accuracy = 0.1000D-12
 PrsmSu:  NPrtUS=   8 ThrOK=T IAlg=1 NPAlg=1 LenDen=           0.
 Prism:   IPart=     0 DynPar=F LinDyn=F Incr=           1.
 PRISM was handed   134174939 working-precision words and  1081 shell-pairs
 PRISM was handed   134174939 working-precision words and  1081 shell-pairs
 PRISM was handed   134174939 working-precision words and  1081 shell-pairs
 PRISM was handed   134174939 working-precision words and  1081 shell-pairs
 PRISM was handed   134174939 working-precision words and  1081 shell-pairs
 PRISM was handed   134174939 working-precision words and  1081 shell-pairs
 PRISM was handed   134174939 working-precision words and  1081 shell-pairs
 PRISM was handed   134174939 working-precision words and  1081 shell-pairs
 IPart=  0 NShTot=         154 NBatch=          44 AvBLen=         3.5
 IPart=  4 NShTot=         129 NBatch=          25 AvBLen=         5.2
 IPart=  6 NShTot=         127 NBatch=          25 AvBLen=         5.1
 IPart=  1 NShTot=         149 NBatch=          39 AvBLen=         3.8
 IPart=  3 NShTot=         133 NBatch=          25 AvBLen=         5.3
 IPart=  7 NShTot=         126 NBatch=          25 AvBLen=         5.0
 IPart=  5 NShTot=         129 NBatch=          25 AvBLen=         5.2
 IPart=  2 NShTot=         134 NBatch=          26 AvBLen=         5.2
 PrSmSu:  NxtVal=              9.
 Entering OneElI...
 Calculate potential energy integrals
    NBasis = 160  MinDer = 1  MaxDer = 1
 Requested accuracy = 0.1000D-12
 PrsmSu:  NPrtUS=   8 ThrOK=T IAlg=1 NPAlg=1 LenDen=           0.
 Prism:   IPart=     0 DynPar=F LinDyn=F Incr=           5.
 PRISM was handed   134178785 working-precision words and  1081 shell-pairs
 PRISM was handed   134178785 working-precision words and  1081 shell-pairs
 PRISM was handed   134178785 working-precision words and  1081 shell-pairs
 PRISM was handed   134178785 working-precision words and  1081 shell-pairs
 PRISM was handed   134178785 working-precision words and  1081 shell-pairs
 PRISM was handed   134178785 working-precision words and  1081 shell-pairs
 PRISM was handed   134178785 working-precision words and  1081 shell-pairs
 PRISM was handed   134178785 working-precision words and  1081 shell-pairs
 IPart=  1 NShTot=         592 NBatch=         148 AvBLen=         4.0
 IPart=  4 NShTot=         516 NBatch=         129 AvBLen=         4.0
 IPart=  6 NShTot=         508 NBatch=         127 AvBLen=         4.0
 IPart=  0 NShTot=         628 NBatch=         157 AvBLen=         4.0
 IPart=  3 NShTot=         528 NBatch=         132 AvBLen=         4.0
 IPart=  5 NShTot=         516 NBatch=         129 AvBLen=         4.0
 IPart=  7 NShTot=         504 NBatch=         126 AvBLen=         4.0
 IPart=  2 NShTot=         532 NBatch=         133 AvBLen=         4.0
 PrSmSu:  NxtVal=             41.
 l701 out
 I=    0 X=   0.000000000000D+00 Y=   0.000000000000D+00 Z=  -9.607969997141D-01
 I=    1 X=   0.000000000000D+00 Y=   0.000000000000D+00 Z=   1.130120871486D+01
 I=    2 X=   0.000000000000D+00 Y=   0.000000000000D+00 Z=  -9.138648570833D+00
 I=    3 X=   0.000000000000D+00 Y=   2.253055975607D+00 Z=  -1.081280072017D+00
 I=    4 X=   0.000000000000D+00 Y=  -2.253055975832D+00 Z=  -1.081280072015D+00
 ICntrl=      2127.
 Calling FoFJK, ICntrl=      2127 FMM=F ISym2X=0 I1Cent= 0 IOpClX= 0 NMat=1 NMatS=1 NMatT=0.
 FoFJK:  IHMeth= 1 ICntrl=  2127 DoSepK=F KAlg= 1 I1Cent= 0 FoldK=F
 FoFCou: FMM=F IPFlag=           0 FMFlag=      100000 FMFlg1=         800
         NFxFlg=           0 DoJE=F BraDBF=F KetDBF=F FulRan=T
         Omega=  0.000000  0.000000  1.000000  0.000000  0.000000 ICntrl=    2127 IOpCl=  0
         NMat0=    1 NMatS0=    1 NMatT0=    0 NMatD0=    1 NMtDS0=    0 NMtDT0=    0
         I1Cent=           0 NGrid=           0.
 Symmetry not used in FoFCou.
 FoFCou:  KetSym=F NOpSet=  1 NOpAb=1 NOp=  1.
 FoFCou:  CnvScl= 1.00D+00 Thresh= 1.00D-10
 PrismS was handed  1073629448 working-precision words and  1081 shell-pairs
 FoFCou: LinMIO=F DoNuc=F BraDBF=F KetDBF=F HaveP=T PDBF=F HaveZ=T HaveW=F
         NIJTC =      10 NIJTAt=       0 NIJTCD=       0 NIJTT =      10
         IJTBeg=       1 IJTEnd=      10 KLTBeg=       1 KLTEnd=      10
         IPTBeg=       1 IPTEnd=      10 IPTBCv=       1 IPTECv=      10
         IZTBeg=       1 IZTEnd=      10 IZTBCv=       1 IZTECv=      10
         IWTBeg=      11 IWTEnd=      10 IWTBCv=      11 IWTECv=      10
         INTBeg=       1 INTEnd=       0 IFTBCv=       1 IFTECv=      10
 NCel replicated for PrismC:     1
 CoulSu:  IncDef=  1024 NBBP=         584821 NTPThr=   100 NPartT=    8 Incr=         731 LDynOK=F.
 CoulSu:  NPrtUS=   8 ThrOK=T IAlg=1 NPAlg=1 LenDen=           0.
 Enter PrismC: JobTyp=21 DoJE=F Cont=F.
 PrismC:  IPart=     0 DynPar=T LinDyn=F Incr=         731 UseFst=F UseS4=T.
 PrismC was handed   134183256 working-precision words and  1081 shell-pairs
 Enter PrismC: JobTyp=21 DoJE=F Cont=F.
 PrismC was handed   134183256 working-precision words and  1081 shell-pairs
 Enter PrismC: JobTyp=21 DoJE=F Cont=F.
 PrismC was handed   134183256 working-precision words and  1081 shell-pairs
 Enter PrismC: JobTyp=21 DoJE=F Cont=F.
 Enter PrismC: JobTyp=21 DoJE=F Cont=F.
 Enter PrismC: JobTyp=21 DoJE=F Cont=F.
 PrismC was handed   134183256 working-precision words and  1081 shell-pairs
 PrismC was handed   134183256 working-precision words and  1081 shell-pairs
 Enter PrismC: JobTyp=21 DoJE=F Cont=F.
 PrismC was handed   134183256 working-precision words and  1081 shell-pairs
 PrismC was handed   134183256 working-precision words and  1081 shell-pairs
 Enter PrismC: JobTyp=21 DoJE=F Cont=F.
 PrismC was handed   134183256 working-precision words and  1081 shell-pairs
 IPart=  0 NShTot=       77335 NShNF=       77335 NShFF=           0 NBatch=         277 AvBLen=       279.2
 IPart=  4 NShTot=       70442 NShNF=       70442 NShFF=           0 NBatch=         287 AvBLen=       245.4
 IPart=  3 NShTot=       59426 NShNF=       59426 NShFF=           0 NBatch=         283 AvBLen=       210.0
 IPart=  1 NShTot=       76617 NShNF=       76617 NShFF=           0 NBatch=         233 AvBLen=       328.8
 IPart=  6 NShTot=       68999 NShNF=       68999 NShFF=           0 NBatch=         264 AvBLen=       261.4
 IPart=  5 NShTot=       71187 NShNF=       71187 NShFF=           0 NBatch=         316 AvBLen=       225.3
 IPart=  2 NShTot=       75623 NShNF=       75623 NShFF=           0 NBatch=         280 AvBLen=       270.1
 IPart=  7 NShTot=       84770 NShNF=       84770 NShFF=           0 NBatch=         291 AvBLen=       291.3
 CoulSu:  NxtVal=         629392.
 Forces at end of L703
 I=    0 X=   0.000000000000D+00 Y=   0.000000000000D+00 Z=  -9.607969997141D-01
 I=    1 X=   0.000000000000D+00 Y=   0.000000000000D+00 Z=  -5.542037053452D-05
 I=    2 X=   0.000000000000D+00 Y=   0.000000000000D+00 Z=   2.626315486332D-05
 I=    3 X=   0.000000000000D+00 Y=   7.789415019932D-05 Z=   1.457860869136D-05
 I=    4 X=   0.000000000000D+00 Y=  -7.789415458959D-05 Z=   1.457860698340D-05
 FrcOut:
 IF    =    56 IFX   =    68 IFXYZ =    80
 IFFX  =    92 IFFFX =    92 IFLen =    12
 IFFLen=     0 IFFFLn=     0 IEDerv=    92
 LEDerv=   629 IFroze=   725 ICStrt= 39142
 DipInt: DoE/N= T T RetVal/Mat= T F Init=T NMatP=  1 IDeriv=0 Min/MaxMlt=  1  1
 Entering OneElI...
 Multipole integrals L=1 to 1 MinM= 0 MaxM= 0.
 Requested accuracy = 0.1000D-12
 PrsmSu:  NPrtUS=   1 ThrOK=F IAlg=1 NPAlg=1 LenDen=           0.
 Prism:   IPart=     0 DynPar=F LinDyn=F Incr=          10.
 PRISM was handed  1073616849 working-precision words and  1081 shell-pairs
 IPart=  0 NShTot=        1081 NBatch=          44 AvBLen=        24.6
 PrSmSu:  NxtVal=             11.
 Computed dipole moment (without fudge factor):
 X=-0.4036096489251D-15   Y= 0.2347011474058D-12   Z=-0.9607969997141D+00
 Quadrupole    = 1.03251506D-01 1.89760872D-01-2.93012378D-01
                 2.19611212D-16 9.09317431D-16 3.91408910D-13
 -------------------------------------------------------------------
 Center     Atomic                   Forces (Hartrees/Bohr)
 Number     Number              X              Y              Z
 -------------------------------------------------------------------
      1        8           0.000000000    0.000000000    0.000055420
      2        6           0.000000000    0.000000000   -0.000026263
      3        1           0.000000000   -0.000077894   -0.000014579
      4        1           0.000000000    0.000077894   -0.000014579
 -------------------------------------------------------------------
 Cartesian Forces:  Max     0.000077894 RMS     0.000036880
 Z-matrix is all fixed cartesians, so copy forces.
 Final forces over variables, Energy=-1.14326981D+02:
  1.06265402D-14 4.68603701D-14-8.06720687D-14 2.31851584D-14
 -1.16123074D-12-3.27272578D-12-7.78941502D-05 7.78941546D-05
  5.54203705D-05-2.62631549D-05-1.45786087D-05-1.45786070D-05
 NDeriv=  12 NFrqRd=  0 LFDDif=       1
 NDeriv=  12 NFrqRd=  0 LFDDif=       1
 At 1st pt Frequency-dependent properties file   721 does not exist.
 D2Numr ... symmetry will not be used.
 Standard basis: Aug-CC-pVTZ (5D, 7F)
 Integral buffers will be    131072 words long.
 Raffenetti 1 integral format.
 Two-electron integral symmetry is turned off.
   138 basis functions,   198 primitive gaussians,   160 cartesian basis functions
     8 alpha electrons        8 beta electrons
       nuclear repulsion energy        31.3050032865 Hartrees.
 NAtoms=    4 NActive=    4 NUniq=    4 SFac= 1.00D+00 NAtFMM=   50 NAOKFM=F Big=F
 One-electron integrals computed using PRISM.
 NBasis=   138 RedAO= T  NBF=   138
 NBsUse=   138 1.00D-06 NBFU=   138
 Initial guess read from the read-write file.
 B after Tr=     0.000000    0.000000    0.000000
         Rot=    1.000000    0.000000    0.000000    0.000000 Ang=   0.00 deg.
 Requested convergence on RMS density matrix=1.00D-08 within 128 cycles.
 Requested convergence on MAX density matrix=1.00D-06.
 Requested convergence on             energy=1.00D-06.
 No special actions if energy rises.
 Keep R1 ints in memory in canonical form, NReq=85137408.
 SCF Done:  E(RHF) =  -113.913826333     A.U. after    6 cycles
             Convg  =    0.3855D-08             -V/T =  2.0018
 ExpMin= 2.53D-02 ExpMax= 1.53D+04 ExpMxC= 5.22D+02 IAcc=3 IRadAn=         5 AccDes= 0.00D+00
 HarFok:  IExCor=  205 AccDes= 0.00D+00 IRadAn=         5 IDoV=-2
 ScaDFX=  1.000000  1.000000  1.000000  1.000000
 Range of M.O.s used for correlation:     3   138
 NBasis=   138 NAE=     8 NBE=     8 NFC=     2 NFV=     0
 NROrb=    136 NOA=     6 NOB=     6 NVA=   130 NVB=   130

 **** Warning!!: The largest alpha MO coefficient is  0.33810132D+02

 Semi-Direct transformation.
 ModeAB=           2 MOrb=             6 LenV=    1073118443
 LASXX=      7286295 LTotXX=     7286295 LenRXX=     7286295
 LTotAB=     7445736 MaxLAS=    10510080 LenRXY=    10510080
 NonZer=    14572590 LenScr=    22628352 LnRSAI=           0
 LnScr1=           0 LExtra=           0 Total=     40424727
 MaxDsk=          -1 SrtSym=           F ITran=            4
 JobTyp=0 Pass  1:  I=   1 to   6.
 (rs|ai) integrals will be sorted in core.
 Spin components of T(2) and E(2):
     alpha-alpha T2 =       0.1376071068D-01 E2=     -0.4804183862D-01
     alpha-beta  T2 =       0.8505468433D-01 E2=     -0.3064345253D+00
     beta-beta   T2 =       0.1376071068D-01 E2=     -0.4804183862D-01
 ANorm=    0.1054787232D+01
 E2 =    -0.4025182026D+00 EUMP2 =    -0.11431634453530D+03
 R2 and R3 integrals will be kept in memory, NReq=   167993840.
 Iterations=  50 Convergence= 0.100D-07
 Iteration Nr.   1
 **********************
 DD1Dir will call FoFMem   1 times, MxPair=        42
 NAB=    21 NAA=     0 NBB=     0.
 MP4(R+Q)=  0.88726031D-02
 E3=       -0.40191400D-02        EUMP3=      -0.11432036368D+03
 E4(DQ)=   -0.13495129D-02        UMP4(DQ)=   -0.11432171319D+03
 E4(SDQ)=  -0.66115079D-02        UMP4(SDQ)=  -0.11432697518D+03
 DE(Corr)= -0.39766474     E(Corr)=     -114.31149107    
 NORM(A)=   0.10554806D+01
 Iteration Nr.   2
 **********************
 DD1Dir will call FoFMem   1 times, MxPair=        42
 NAB=    21 NAA=     0 NBB=     0.
 DE(Corr)= -0.41160705     E(CORR)=     -114.32543338     Delta=-1.39D-02
 NORM(A)=   0.10615345D+01
 Iteration Nr.   3
 **********************
 DD1Dir will call FoFMem   1 times, MxPair=        42
 NAB=    21 NAA=     0 NBB=     0.
 DE(Corr)= -0.41153431     E(CORR)=     -114.32536064     Delta= 7.27D-05
 NORM(A)=   0.10634214D+01
 Iteration Nr.   4
 **********************
 DD1Dir will call FoFMem   1 times, MxPair=        42
 NAB=    21 NAA=     0 NBB=     0.
 DE(Corr)= -0.41294072     E(CORR)=     -114.32676706     Delta=-1.41D-03
 NORM(A)=   0.10641013D+01
 Iteration Nr.   5
 **********************
 DD1Dir will call FoFMem   1 times, MxPair=        42
 NAB=    21 NAA=     0 NBB=     0.
 DE(Corr)= -0.41312824     E(CORR)=     -114.32695457     Delta=-1.88D-04
 NORM(A)=   0.10643163D+01
 Iteration Nr.   6
 **********************
 DD1Dir will call FoFMem   1 times, MxPair=        42
 NAB=    21 NAA=     0 NBB=     0.
 DE(Corr)= -0.41315416     E(CORR)=     -114.32698050     Delta=-2.59D-05
 NORM(A)=   0.10643417D+01
 Iteration Nr.   7
 **********************
 DD1Dir will call FoFMem   1 times, MxPair=        42
 NAB=    21 NAA=     0 NBB=     0.
 DE(Corr)= -0.41315537     E(CORR)=     -114.32698171     Delta=-1.21D-06
 NORM(A)=   0.10643428D+01
 Iteration Nr.   8
 **********************
 DD1Dir will call FoFMem   1 times, MxPair=        42
 NAB=    21 NAA=     0 NBB=     0.
 DE(Corr)= -0.41315450     E(CORR)=     -114.32698083     Delta= 8.75D-07
 NORM(A)=   0.10643456D+01
 Iteration Nr.   9
 **********************
 DD1Dir will call FoFMem   1 times, MxPair=        42
 NAB=    21 NAA=     0 NBB=     0.
 DE(Corr)= -0.41315338     E(CORR)=     -114.32697971     Delta= 1.12D-06
 NORM(A)=   0.10643459D+01
 Iteration Nr.  10
 **********************
 DD1Dir will call FoFMem   1 times, MxPair=        42
 NAB=    21 NAA=     0 NBB=     0.
 DE(Corr)= -0.41315400     E(CORR)=     -114.32698034     Delta=-6.21D-07
 NORM(A)=   0.10643465D+01
 Iteration Nr.  11
 **********************
 DD1Dir will call FoFMem   1 times, MxPair=        42
 NAB=    21 NAA=     0 NBB=     0.
 DE(Corr)= -0.41315413     E(CORR)=     -114.32698047     Delta=-1.32D-07
 NORM(A)=   0.10643469D+01
 Iteration Nr.  12
 **********************
 DD1Dir will call FoFMem   1 times, MxPair=        42
 NAB=    21 NAA=     0 NBB=     0.
 DE(Corr)= -0.41315429     E(CORR)=     -114.32698062     Delta=-1.55D-07
 NORM(A)=   0.10643471D+01
 Iteration Nr.  13
 **********************
 DD1Dir will call FoFMem   1 times, MxPair=        42
 NAB=    21 NAA=     0 NBB=     0.
 DE(Corr)= -0.41315435     E(CORR)=     -114.32698068     Delta=-6.10D-08
 NORM(A)=   0.10643472D+01
 Iteration Nr.  14
 **********************
 DD1Dir will call FoFMem   1 times, MxPair=        42
 NAB=    21 NAA=     0 NBB=     0.
 DE(Corr)= -0.41315438     E(CORR)=     -114.32698071     Delta=-3.15D-08
 NORM(A)=   0.10643472D+01
 Iteration Nr.  15
 **********************
 DD1Dir will call FoFMem   1 times, MxPair=        42
 NAB=    21 NAA=     0 NBB=     0.
 DE(Corr)= -0.41315439     E(CORR)=     -114.32698072     Delta=-4.92D-09
 NORM(A)=   0.10643472D+01
 Iteration Nr.  16
 **********************
 DD1Dir will call FoFMem   1 times, MxPair=        42
 NAB=    21 NAA=     0 NBB=     0.
 DE(Corr)= -0.41315439     E(CORR)=     -114.32698072     Delta=-2.98D-09
 NORM(A)=   0.10643472D+01
 Largest amplitude= 6.44D-02

 Z-AMPLITUDE ITERATIONS

 Iteration Nr.   1
 **********************
 DD1Dir will call FoFMem   1 times, MxPair=        42
 NAB=    21 NAA=     0 NBB=     0.
 DE(Z)  -0.40112026D+00          E(Z)=    -0.11431494660D+03
 NORM(A)=   0.10643467D+01
 Iteration Nr.   2
 **********************
 DD1Dir will call FoFMem   1 times, MxPair=        42
 NAB=    21 NAA=     0 NBB=     0.
 DE(Z)  -0.40112024D+00          E(Z)=    -0.11431494657D+03
 NORM(A)=   0.10643470D+01
 Iteration Nr.   3
 **********************
 DD1Dir will call FoFMem   1 times, MxPair=        42
 NAB=    21 NAA=     0 NBB=     0.
 DE(Z)  -0.40112025D+00          E(Z)=    -0.11431494659D+03
 NORM(A)=   0.10643528D+01
 Iteration Nr.   4
 **********************
 DD1Dir will call FoFMem   1 times, MxPair=        42
 NAB=    21 NAA=     0 NBB=     0.
 DE(Z)  -0.40112051D+00          E(Z)=    -0.11431494685D+03
 NORM(A)=   0.10643508D+01
 Iteration Nr.   5
 **********************
 DD1Dir will call FoFMem   1 times, MxPair=        42
 NAB=    21 NAA=     0 NBB=     0.
 DE(Z)  -0.40112044D+00          E(Z)=    -0.11431494677D+03
 NORM(A)=   0.10603086D+01
 Iteration Nr.   6
 **********************
 DD1Dir will call FoFMem   1 times, MxPair=        42
 NAB=    21 NAA=     0 NBB=     0.
 DE(Z)  -0.40090782D+00          E(Z)=    -0.11431473415D+03
 NORM(A)=   0.10602471D+01
 Iteration Nr.   7
 **********************
 DD1Dir will call FoFMem   1 times, MxPair=        42
 NAB=    21 NAA=     0 NBB=     0.
 DE(Z)  -0.40091543D+00          E(Z)=    -0.11431474176D+03
 NORM(A)=   0.10602669D+01
 Iteration Nr.   8
 **********************
 DD1Dir will call FoFMem   1 times, MxPair=        42
 NAB=    21 NAA=     0 NBB=     0.
 DE(Z)  -0.40090555D+00          E(Z)=    -0.11431473189D+03
 NORM(A)=   0.10602646D+01
 Iteration Nr.   9
 **********************
 DD1Dir will call FoFMem   1 times, MxPair=        42
 NAB=    21 NAA=     0 NBB=     0.
 DE(Z)  -0.40090577D+00          E(Z)=    -0.11431473210D+03
 NORM(A)=   0.10602642D+01
 Iteration Nr.  10
 **********************
 DD1Dir will call FoFMem   1 times, MxPair=        42
 NAB=    21 NAA=     0 NBB=     0.
 DE(Z)  -0.40090608D+00          E(Z)=    -0.11431473241D+03
 NORM(A)=   0.10602644D+01
 Iteration Nr.  11
 **********************
 DD1Dir will call FoFMem   1 times, MxPair=        42
 NAB=    21 NAA=     0 NBB=     0.
 DE(Z)  -0.40090588D+00          E(Z)=    -0.11431473221D+03
 NORM(A)=   0.10602644D+01
 Iteration Nr.  12
 **********************
 DD1Dir will call FoFMem   1 times, MxPair=        42
 NAB=    21 NAA=     0 NBB=     0.
 DE(Z)  -0.40090590D+00          E(Z)=    -0.11431473223D+03
 NORM(A)=   0.10602645D+01
 Iteration Nr.  13
 **********************
 DD1Dir will call FoFMem   1 times, MxPair=        42
 NAB=    21 NAA=     0 NBB=     0.
 DE(Z)  -0.40090591D+00          E(Z)=    -0.11431473224D+03
 NORM(A)=   0.10602645D+01
 Iteration Nr.  14
 **********************
 DD1Dir will call FoFMem   1 times, MxPair=        42
 NAB=    21 NAA=     0 NBB=     0.
 DE(Z)  -0.40090591D+00          E(Z)=    -0.11431473224D+03
 NORM(A)=   0.10602645D+01
 Discarding MO integrals.
          IDoAtm=1111
          Differentiating once with respect to electric field.
                with respect to dipole field.
          Differentiating once with respect to nuclear coordinates.
          Keep R1 ints in memory in canonical form, NReq=84894631.
          There are     1 degrees of freedom in the 1st order CPHF.  IDoFFX=0.
 LinEq1:  Iter=  0 NonCon=     1 RMS=3.55D-03 Max=5.57D-02
 AX will form     1 AO Fock derivatives at one time.
 LinEq1:  Iter=  1 NonCon=     1 RMS=8.96D-04 Max=8.54D-03
 LinEq1:  Iter=  2 NonCon=     1 RMS=2.35D-04 Max=3.42D-03
 LinEq1:  Iter=  3 NonCon=     1 RMS=1.15D-04 Max=1.21D-03
 LinEq1:  Iter=  4 NonCon=     1 RMS=4.45D-05 Max=5.32D-04
 LinEq1:  Iter=  5 NonCon=     1 RMS=9.21D-06 Max=8.74D-05
 LinEq1:  Iter=  6 NonCon=     1 RMS=1.50D-06 Max=1.74D-05
 LinEq1:  Iter=  7 NonCon=     1 RMS=2.28D-07 Max=1.66D-06
 LinEq1:  Iter=  8 NonCon=     1 RMS=2.61D-08 Max=2.06D-07
 LinEq1:  Iter=  9 NonCon=     1 RMS=3.14D-09 Max=2.52D-08
 LinEq1:  Iter= 10 NonCon=     1 RMS=2.95D-10 Max=2.32D-09
 LinEq1:  Iter= 11 NonCon=     0 RMS=2.66D-11 Max=2.38D-10
 Linear equations converged to 1.000D-10 1.000D-09 after    11 iterations.
 End of Minotr Frequency-dependent properties file   721 does not exist.
 End of Minotr Frequency-dependent properties file   722 does not exist.

 **********************************************************************

            Population analysis using the QCI/CC density.

 **********************************************************************

 Alpha  occ. eigenvalues --  -20.57889 -11.34241  -1.40667  -0.87136  -0.69535
 Alpha  occ. eigenvalues --   -0.65246  -0.53718  -0.44380
 Alpha virt. eigenvalues --    0.02626   0.04168   0.06240   0.07646   0.12928
 Alpha virt. eigenvalues --    0.13296   0.13346   0.17433   0.19819   0.21172
 Alpha virt. eigenvalues --    0.21714   0.25409   0.25610   0.28124   0.32051
 Alpha virt. eigenvalues --    0.33801   0.33937   0.35899   0.38784   0.38980
 Alpha virt. eigenvalues --    0.39597   0.41891   0.48224   0.49878   0.56175
 Alpha virt. eigenvalues --    0.56743   0.66938   0.67680   0.72314   0.76379
 Alpha virt. eigenvalues --    0.81893   0.83426   0.84216   0.85683   0.87628
 Alpha virt. eigenvalues --    0.88208   0.92755   0.93411   0.93966   0.97962
 Alpha virt. eigenvalues --    1.00153   1.02091   1.02355   1.03797   1.06849
 Alpha virt. eigenvalues --    1.08246   1.09830   1.10185   1.25858   1.26578
 Alpha virt. eigenvalues --    1.30479   1.37045   1.38915   1.45783   1.47647
 Alpha virt. eigenvalues --    1.51303   1.57152   1.59856   1.62669   1.70678
 Alpha virt. eigenvalues --    1.73067   1.83597   1.96303   2.00597   2.03157
 Alpha virt. eigenvalues --    2.09409   2.18038   2.28729   2.32197   2.34114
 Alpha virt. eigenvalues --    2.34399   2.48994   2.49780   2.56028   2.60645
 Alpha virt. eigenvalues --    2.71589   2.78354   2.80902   2.92041   2.92944
 Alpha virt. eigenvalues --    3.06546   3.07633   3.14511   3.18696   3.41208
 Alpha virt. eigenvalues --    3.44418   3.52852   3.56479   3.62834   3.65985
 Alpha virt. eigenvalues --    3.70039   3.89668   3.95335   4.05622   4.11927
 Alpha virt. eigenvalues --    4.16186   4.16481   4.22045   4.24715   4.36367
 Alpha virt. eigenvalues --    4.58500   4.64822   4.68775   4.77016   5.03247
 Alpha virt. eigenvalues --    5.05132   5.10701   5.16054   5.24783   5.28446
 Alpha virt. eigenvalues --    5.32818   5.38588   5.88991   6.13733   6.23507
 Alpha virt. eigenvalues --    6.50096   6.59832   6.61841   6.91584   6.94937
 Alpha virt. eigenvalues --    7.09114   7.19090   7.20573   7.41345   7.52522
 Alpha virt. eigenvalues --    7.68647   7.72585   7.77145  14.96447  16.39637
          Condensed to atoms (all electrons):
              1          2          3          4
     1  O    8.193690   0.349452  -0.062868  -0.062868
     2  C    0.349452   5.719225   0.207784   0.207784
     3  H   -0.062868   0.207784   0.434667  -0.030409
     4  H   -0.062868   0.207784  -0.030409   0.434667
 Mulliken atomic charges:
              1
     1  O   -0.417407
     2  C   -0.484245
     3  H    0.450826
     4  H    0.450826
 Sum of Mulliken atomic charges =   0.00000
 Mulliken charges with hydrogens summed into heavy atoms:
              1
     1  O   -0.417407
     2  C    0.417407
 Sum of Mulliken charges with hydrogens summed into heavy atoms =   0.00000
 Electronic spatial extent (au):  <R**2>=             60.6316
 Charge=              0.0000 electrons
 Dipole moment (field-independent basis, Debye):
    X=             -0.0016    Y=              0.0000    Z=             -2.4421  Tot=              2.4421
 Quadrupole moment (field-independent basis, Debye-Ang):
   XX=            -11.7378   YY=            -11.6215   ZZ=            -12.2708
   XY=              0.0000   XZ=             -0.0019   YZ=              0.0000
 Traceless Quadrupole moment (field-independent basis, Debye-Ang):
   XX=              0.1389   YY=              0.2552   ZZ=             -0.3941
   XY=              0.0000   XZ=             -0.0019   YZ=              0.0000
 Octapole moment (field-independent basis, Debye-Ang**2):
  XXX=             -0.0160  YYY=              0.0000  ZZZ=              0.3113  XYY=             -0.0055
  XXY=              0.0000  XXZ=              0.5813  XZZ=             -0.0059  YZZ=              0.0000
  YYZ=             -0.7023  XYZ=              0.0000
 Hexadecapole moment (field-independent basis, Debye-Ang**3):
 XXXX=            -10.5191 YYYY=            -18.2497 ZZZZ=            -46.2399 XXXY=              0.0000
 XXXZ=             -0.0112 YYYX=              0.0000 YYYZ=              0.0000 ZZZX=             -0.0132
 ZZZY=              0.0000 XXYY=             -5.1553 XXZZ=             -9.3942 YYZZ=            -10.4551
 XXYZ=              0.0000 YYXZ=             -0.0048 ZZXY=              0.0000
 N-N= 3.130500328647D+01 E-N=-3.313619974408D+02  KE= 1.142316241374D+02
 Use density number 7.
 DipInt: DoE/N= T T RetVal/Mat= T F Init=T NMatP=  1 IDeriv=0 Min/MaxMlt=  1  1
 Entering OneElI...
 Multipole integrals L=1 to 1 MinM= 0 MaxM= 0.
 Requested accuracy = 0.1000D-12
 PrsmSu:  NPrtUS=   1 ThrOK=F IAlg=1 NPAlg=1 LenDen=           0.
 Prism:   IPart=     0 DynPar=F LinDyn=F Incr=          10.
 PRISM was handed  1073591569 working-precision words and  1081 shell-pairs
 IPart=  0 NShTot=        1081 NBatch=          44 AvBLen=        24.6
 PrSmSu:  NxtVal=             11.
 Entering OneElI...
 Calculate overlap and kinetic energy integrals
    NBasis = 160  MinDer = 1  MaxDer = 1
 Requested accuracy = 0.1000D-12
 PrsmSu:  NPrtUS=   8 ThrOK=T IAlg=1 NPAlg=1 LenDen=           0.
 Prism:   IPart=     0 DynPar=F LinDyn=F Incr=           1.
 PRISM was handed   134174939 working-precision words and  1081 shell-pairs
 PRISM was handed   134174939 working-precision words and  1081 shell-pairs
 PRISM was handed   134174939 working-precision words and  1081 shell-pairs
 PRISM was handed   134174939 working-precision words and  1081 shell-pairs
 PRISM was handed   134174939 working-precision words and  1081 shell-pairs
 PRISM was handed   134174939 working-precision words and  1081 shell-pairs
 PRISM was handed   134174939 working-precision words and  1081 shell-pairs
 PRISM was handed   134174939 working-precision words and  1081 shell-pairs
 IPart=  0 NShTot=         154 NBatch=          44 AvBLen=         3.5
 IPart=  6 NShTot=         127 NBatch=          25 AvBLen=         5.1
 IPart=  5 NShTot=         129 NBatch=          25 AvBLen=         5.2
 IPart=  7 NShTot=         126 NBatch=          25 AvBLen=         5.0
 IPart=  1 NShTot=         149 NBatch=          39 AvBLen=         3.8
 IPart=  2 NShTot=         134 NBatch=          26 AvBLen=         5.2
 IPart=  4 NShTot=         129 NBatch=          25 AvBLen=         5.2
 IPart=  3 NShTot=         133 NBatch=          25 AvBLen=         5.3
 PrSmSu:  NxtVal=              9.
 Entering OneElI...
 Calculate potential energy integrals
    NBasis = 160  MinDer = 1  MaxDer = 1
 Requested accuracy = 0.1000D-12
 PrsmSu:  NPrtUS=   8 ThrOK=T IAlg=1 NPAlg=1 LenDen=           0.
 Prism:   IPart=     0 DynPar=F LinDyn=F Incr=           5.
 PRISM was handed   134178785 working-precision words and  1081 shell-pairs
 PRISM was handed   134178785 working-precision words and  1081 shell-pairs
 PRISM was handed   134178785 working-precision words and  1081 shell-pairs
 PRISM was handed   134178785 working-precision words and  1081 shell-pairs
 PRISM was handed   134178785 working-precision words and  1081 shell-pairs
 PRISM was handed   134178785 working-precision words and  1081 shell-pairs
 PRISM was handed   134178785 working-precision words and  1081 shell-pairs
 PRISM was handed   134178785 working-precision words and  1081 shell-pairs
 IPart=  1 NShTot=         592 NBatch=         148 AvBLen=         4.0
 IPart=  7 NShTot=         504 NBatch=         126 AvBLen=         4.0
 IPart=  6 NShTot=         508 NBatch=         127 AvBLen=         4.0
 IPart=  5 NShTot=         516 NBatch=         129 AvBLen=         4.0
 IPart=  0 NShTot=         628 NBatch=         157 AvBLen=         4.0
 IPart=  3 NShTot=         528 NBatch=         132 AvBLen=         4.0
 IPart=  4 NShTot=         516 NBatch=         129 AvBLen=         4.0
 IPart=  2 NShTot=         532 NBatch=         133 AvBLen=         4.0
 PrSmSu:  NxtVal=             41.
 l701 out
 I=    0 X=  -6.247435545383D-04 Y=   0.000000000000D+00 Z=  -9.607977828335D-01
 I=    1 X=   9.708502783208D-03 Y=   0.000000000000D+00 Z=   1.130119952423D+01
 I=    2 X=  -9.719353278530D-03 Y=   0.000000000000D+00 Z=  -9.138637908622D+00
 I=    3 X=   5.425247828745D-06 Y=   2.253056185423D+00 Z=  -1.081280807794D+00
 I=    4 X=   5.425247492661D-06 Y=  -2.253056185315D+00 Z=  -1.081280807818D+00
 ICntrl=      2127.
 Calling FoFJK, ICntrl=      2127 FMM=F ISym2X=0 I1Cent= 0 IOpClX= 0 NMat=1 NMatS=1 NMatT=0.
 FoFJK:  IHMeth= 1 ICntrl=  2127 DoSepK=F KAlg= 1 I1Cent= 0 FoldK=F
 FoFCou: FMM=F IPFlag=           0 FMFlag=      100000 FMFlg1=         800
         NFxFlg=           0 DoJE=F BraDBF=F KetDBF=F FulRan=T
         Omega=  0.000000  0.000000  1.000000  0.000000  0.000000 ICntrl=    2127 IOpCl=  0
         NMat0=    1 NMatS0=    1 NMatT0=    0 NMatD0=    1 NMtDS0=    0 NMtDT0=    0
         I1Cent=           0 NGrid=           0.
 Symmetry not used in FoFCou.
 FoFCou:  KetSym=F NOpSet=  1 NOpAb=1 NOp=  1.
 FoFCou:  CnvScl= 1.00D+00 Thresh= 1.00D-10
 PrismS was handed  1073629448 working-precision words and  1081 shell-pairs
 FoFCou: LinMIO=F DoNuc=F BraDBF=F KetDBF=F HaveP=T PDBF=F HaveZ=T HaveW=F
         NIJTC =      10 NIJTAt=       0 NIJTCD=       0 NIJTT =      10
         IJTBeg=       1 IJTEnd=      10 KLTBeg=       1 KLTEnd=      10
         IPTBeg=       1 IPTEnd=      10 IPTBCv=       1 IPTECv=      10
         IZTBeg=       1 IZTEnd=      10 IZTBCv=       1 IZTECv=      10
         IWTBeg=      11 IWTEnd=      10 IWTBCv=      11 IWTECv=      10
         INTBeg=       1 INTEnd=       0 IFTBCv=       1 IFTECv=      10
 NCel replicated for PrismC:     1
 CoulSu:  IncDef=  1024 NBBP=         584821 NTPThr=   100 NPartT=    8 Incr=         731 LDynOK=F.
 CoulSu:  NPrtUS=   8 ThrOK=T IAlg=1 NPAlg=1 LenDen=           0.
 Enter PrismC: JobTyp=21 DoJE=F Cont=F.
 PrismC:  IPart=     0 DynPar=T LinDyn=F Incr=         731 UseFst=F UseS4=T.
 PrismC was handed   134183256 working-precision words and  1081 shell-pairs
 Enter PrismC: JobTyp=21 DoJE=F Cont=F.
 PrismC was handed   134183256 working-precision words and  1081 shell-pairs
 Enter PrismC: JobTyp=21 DoJE=F Cont=F.
 PrismC was handed   134183256 working-precision words and  1081 shell-pairs
 Enter PrismC: JobTyp=21 DoJE=F Cont=F.
 PrismC was handed   134183256 working-precision words and  1081 shell-pairs
 Enter PrismC: JobTyp=21 DoJE=F Cont=F.
 PrismC was handed   134183256 working-precision words and  1081 shell-pairs
 Enter PrismC: JobTyp=21 DoJE=F Cont=F.
 Enter PrismC: JobTyp=21 DoJE=F Cont=F.
 PrismC was handed   134183256 working-precision words and  1081 shell-pairs
 Enter PrismC: JobTyp=21 DoJE=F Cont=F.
 PrismC was handed   134183256 working-precision words and  1081 shell-pairs
 PrismC was handed   134183256 working-precision words and  1081 shell-pairs
 IPart=  2 NShTot=       71395 NShNF=       71395 NShFF=           0 NBatch=         316 AvBLen=       225.9
 IPart=  7 NShTot=       71135 NShNF=       71135 NShFF=           0 NBatch=         259 AvBLen=       274.7
 IPart=  6 NShTot=       72564 NShNF=       72564 NShFF=           0 NBatch=         277 AvBLen=       262.0
 IPart=  4 NShTot=       75721 NShNF=       75721 NShFF=           0 NBatch=         256 AvBLen=       295.8
 IPart=  5 NShTot=       74509 NShNF=       74509 NShFF=           0 NBatch=         287 AvBLen=       259.6
 IPart=  0 NShTot=       71186 NShNF=       71186 NShFF=           0 NBatch=         295 AvBLen=       241.3
 IPart=  1 NShTot=       73546 NShNF=       73546 NShFF=           0 NBatch=         265 AvBLen=       277.5
 IPart=  3 NShTot=       74343 NShNF=       74343 NShFF=           0 NBatch=         273 AvBLen=       272.3
 CoulSu:  NxtVal=         629392.
 Forces at end of L703
 I=    0 X=  -6.247435545383D-04 Y=   0.000000000000D+00 Z=  -9.607977828335D-01
 I=    1 X=   3.445576813269D-05 Y=   0.000000000000D+00 Z=  -5.482845000948D-05
 I=    2 X=  -1.063025918247D-04 Y=   0.000000000000D+00 Z=   2.578337483783D-05
 I=    3 X=   3.592341184497D-05 Y=   7.791883170105D-05 Z=   1.452253858503D-05
 I=    4 X=   3.592341184704D-05 Y=  -7.791883290009D-05 Z=   1.452253656997D-05
 FrcOut:
 IF    =    56 IFX   =    68 IFXYZ =    80
 IFFX  =    92 IFFFX =    92 IFLen =    12
 IFFLen=     0 IFFFLn=     0 IEDerv=    92
 LEDerv=   629 IFroze=   725 ICStrt= 39142
 DipInt: DoE/N= T T RetVal/Mat= T F Init=T NMatP=  1 IDeriv=0 Min/MaxMlt=  1  1
 Entering OneElI...
 Multipole integrals L=1 to 1 MinM= 0 MaxM= 0.
 Requested accuracy = 0.1000D-12
 PrsmSu:  NPrtUS=   1 ThrOK=F IAlg=1 NPAlg=1 LenDen=           0.
 Prism:   IPart=     0 DynPar=F LinDyn=F Incr=          10.
 PRISM was handed  1073616849 working-precision words and  1081 shell-pairs
 IPart=  0 NShTot=        1081 NBatch=          44 AvBLen=        24.6
 PrSmSu:  NxtVal=             11.
 Computed dipole moment (without fudge factor):
 X=-0.6247435545383D-03   Y= 0.5018208071306D-13   Z=-0.9607977828335D+00
 Quadrupole    = 1.03249703D-01 1.89761220D-01-2.93010923D-01
                -4.71029967D-15-1.40268309D-03 4.22111836D-13
 -------------------------------------------------------------------
 Center     Atomic                   Forces (Hartrees/Bohr)
 Number     Number              X              Y              Z
 -------------------------------------------------------------------
      1        8          -0.000034456    0.000000000    0.000054828
      2        6           0.000106303    0.000000000   -0.000025783
      3        1          -0.000035923   -0.000077919   -0.000014523
      4        1          -0.000035923    0.000077919   -0.000014523
 -------------------------------------------------------------------
 Cartesian Forces:  Max     0.000106303 RMS     0.000051075
 Final forces over variables, Energy=-1.14326981D+02:
  1.06265402D-14 4.68603701D-14-8.06720687D-14 2.31851584D-14
 -1.16123074D-12-3.27272578D-12-7.78941502D-05 7.78941546D-05
  5.54203705D-05-2.62631549D-05-1.45786087D-05-1.45786070D-05
 NDeriv=  12 NFrqRd=  0 LFDDif=       1
 NDeriv=  12 NFrqRd=  0 LFDDif=       1
 Re-enter D2Numr: IAtom=  1 IXYZ=1 IStep= 1.
 Standard basis: Aug-CC-pVTZ (5D, 7F)
 Integral buffers will be    131072 words long.
 Raffenetti 1 integral format.
 Two-electron integral symmetry is turned off.
   138 basis functions,   198 primitive gaussians,   160 cartesian basis functions
     8 alpha electrons        8 beta electrons
       nuclear repulsion energy        31.3050032865 Hartrees.
 NAtoms=    4 NActive=    4 NUniq=    4 SFac= 1.00D+00 NAtFMM=   50 NAOKFM=F Big=F
 One-electron integrals computed using PRISM.
 NBasis=   138 RedAO= T  NBF=   138
 NBsUse=   138 1.00D-06 NBFU=   138
 Initial guess read from the read-write file.
 B after Tr=     0.000000    0.000000    0.000000
         Rot=    1.000000    0.000000    0.000000    0.000000 Ang=   0.00 deg.
 Requested convergence on RMS density matrix=1.00D-08 within 128 cycles.
 Requested convergence on MAX density matrix=1.00D-06.
 Requested convergence on             energy=1.00D-06.
 No special actions if energy rises.
 Keep R1 ints in memory in canonical form, NReq=85137408.
 SCF Done:  E(RHF) =  -113.913826333     A.U. after    7 cycles
             Convg  =    0.3382D-08             -V/T =  2.0018
 ExpMin= 2.53D-02 ExpMax= 1.53D+04 ExpMxC= 5.22D+02 IAcc=3 IRadAn=         5 AccDes= 0.00D+00
 HarFok:  IExCor=  205 AccDes= 0.00D+00 IRadAn=         5 IDoV=-2
 ScaDFX=  1.000000  1.000000  1.000000  1.000000
 DSYEVD returned Info=          93 IAlg= 4 N=    46 NDim=    46 NE2=    23340785 trying DSYEV.
 Range of M.O.s used for correlation:     3   138
 NBasis=   138 NAE=     8 NBE=     8 NFC=     2 NFV=     0
 NROrb=    136 NOA=     6 NOB=     6 NVA=   130 NVB=   130

 **** Warning!!: The largest alpha MO coefficient is  0.33810128D+02

 Semi-Direct transformation.
 ModeAB=           2 MOrb=             6 LenV=    1073118443
 LASXX=      7286295 LTotXX=     7286295 LenRXX=     7286295
 LTotAB=     7445736 MaxLAS=    10510080 LenRXY=    10510080
 NonZer=    14572590 LenScr=    22628352 LnRSAI=           0
 LnScr1=           0 LExtra=           0 Total=     40424727
 MaxDsk=          -1 SrtSym=           F ITran=            4
 JobTyp=0 Pass  1:  I=   1 to   6.
 (rs|ai) integrals will be sorted in core.
 Spin components of T(2) and E(2):
     alpha-alpha T2 =       0.1376071223D-01 E2=     -0.4804184014D-01
     alpha-beta  T2 =       0.8505469214D-01 E2=     -0.3064345318D+00
     beta-beta   T2 =       0.1376071223D-01 E2=     -0.4804184014D-01
 ANorm=    0.1054787238D+01
 E2 =    -0.4025182121D+00 EUMP2 =    -0.11431634454484D+03
 R2 and R3 integrals will be kept in memory, NReq=   167993840.
 Iterations=  50 Convergence= 0.100D-07
 Iteration Nr.   1
 **********************
 DD1Dir will call FoFMem   1 times, MxPair=        42
 NAB=    21 NAA=     0 NBB=     0.
 MP4(R+Q)=  0.88726043D-02
 E3=       -0.40191382D-02        EUMP3=      -0.11432036368D+03
 E4(DQ)=   -0.13495129D-02        UMP4(DQ)=   -0.11432171320D+03
 E4(SDQ)=  -0.66115087D-02        UMP4(SDQ)=  -0.11432697519D+03
 DE(Corr)= -0.39766475     E(Corr)=     -114.31149108    
 NORM(A)=   0.10554806D+01
 Iteration Nr.   2
 **********************
 DD1Dir will call FoFMem   1 times, MxPair=        42
 NAB=    21 NAA=     0 NBB=     0.
 DE(Corr)= -0.41160706     E(CORR)=     -114.32543339     Delta=-1.39D-02
 NORM(A)=   0.10615345D+01
 Iteration Nr.   3
 **********************
 DD1Dir will call FoFMem   1 times, MxPair=        42
 NAB=    21 NAA=     0 NBB=     0.
 DE(Corr)= -0.41153432     E(CORR)=     -114.32536065     Delta= 7.27D-05
 NORM(A)=   0.10634214D+01
 Iteration Nr.   4
 **********************
 DD1Dir will call FoFMem   1 times, MxPair=        42
 NAB=    21 NAA=     0 NBB=     0.
 DE(Corr)= -0.41294073     E(CORR)=     -114.32676707     Delta=-1.41D-03
 NORM(A)=   0.10641013D+01
 Iteration Nr.   5
 **********************
 DD1Dir will call FoFMem   1 times, MxPair=        42
 NAB=    21 NAA=     0 NBB=     0.
 DE(Corr)= -0.41312824     E(CORR)=     -114.32695458     Delta=-1.88D-04
 NORM(A)=   0.10643164D+01
 Iteration Nr.   6
 **********************
 DD1Dir will call FoFMem   1 times, MxPair=        42
 NAB=    21 NAA=     0 NBB=     0.
 DE(Corr)= -0.41315417     E(CORR)=     -114.32698051     Delta=-2.59D-05
 NORM(A)=   0.10643417D+01
 Iteration Nr.   7
 **********************
 DD1Dir will call FoFMem   1 times, MxPair=        42
 NAB=    21 NAA=     0 NBB=     0.
 DE(Corr)= -0.41315538     E(CORR)=     -114.32698171     Delta=-1.21D-06
 NORM(A)=   0.10643429D+01
 Iteration Nr.   8
 **********************
 DD1Dir will call FoFMem   1 times, MxPair=        42
 NAB=    21 NAA=     0 NBB=     0.
 DE(Corr)= -0.41315451     E(CORR)=     -114.32698084     Delta= 8.75D-07
 NORM(A)=   0.10643456D+01
 Iteration Nr.   9
 **********************
 DD1Dir will call FoFMem   1 times, MxPair=        42
 NAB=    21 NAA=     0 NBB=     0.
 DE(Corr)= -0.41315339     E(CORR)=     -114.32697972     Delta= 1.12D-06
 NORM(A)=   0.10643459D+01
 Iteration Nr.  10
 **********************
 DD1Dir will call FoFMem   1 times, MxPair=        42
 NAB=    21 NAA=     0 NBB=     0.
 DE(Corr)= -0.41315401     E(CORR)=     -114.32698034     Delta=-6.21D-07
 NORM(A)=   0.10643465D+01
 Iteration Nr.  11
 **********************
 DD1Dir will call FoFMem   1 times, MxPair=        42
 NAB=    21 NAA=     0 NBB=     0.
 DE(Corr)= -0.41315414     E(CORR)=     -114.32698048     Delta=-1.32D-07
 NORM(A)=   0.10643469D+01
 Iteration Nr.  12
 **********************
 DD1Dir will call FoFMem   1 times, MxPair=        42
 NAB=    21 NAA=     0 NBB=     0.
 DE(Corr)= -0.41315430     E(CORR)=     -114.32698063     Delta=-1.55D-07
 NORM(A)=   0.10643471D+01
 Iteration Nr.  13
 **********************
 DD1Dir will call FoFMem   1 times, MxPair=        42
 NAB=    21 NAA=     0 NBB=     0.
 DE(Corr)= -0.41315436     E(CORR)=     -114.32698069     Delta=-6.10D-08
 NORM(A)=   0.10643472D+01
 Iteration Nr.  14
 **********************
 DD1Dir will call FoFMem   1 times, MxPair=        42
 NAB=    21 NAA=     0 NBB=     0.
 DE(Corr)= -0.41315439     E(CORR)=     -114.32698072     Delta=-3.15D-08
 NORM(A)=   0.10643472D+01
 Iteration Nr.  15
 **********************
 DD1Dir will call FoFMem   1 times, MxPair=        42
 NAB=    21 NAA=     0 NBB=     0.
 DE(Corr)= -0.41315440     E(CORR)=     -114.32698073     Delta=-4.89D-09
 NORM(A)=   0.10643472D+01
 Iteration Nr.  16
 **********************
 DD1Dir will call FoFMem   1 times, MxPair=        42
 NAB=    21 NAA=     0 NBB=     0.
 DE(Corr)= -0.41315440     E(CORR)=     -114.32698073     Delta=-3.02D-09
 NORM(A)=   0.10643472D+01
 Largest amplitude= 6.44D-02

 Z-AMPLITUDE ITERATIONS

 Iteration Nr.   1
 **********************
 DD1Dir will call FoFMem   1 times, MxPair=        42
 NAB=    21 NAA=     0 NBB=     0.
 DE(Z)  -0.40112027D+00          E(Z)=    -0.11431494660D+03
 NORM(A)=   0.10643467D+01
 Iteration Nr.   2
 **********************
 DD1Dir will call FoFMem   1 times, MxPair=        42
 NAB=    21 NAA=     0 NBB=     0.
 DE(Z)  -0.40112024D+00          E(Z)=    -0.11431494657D+03
 NORM(A)=   0.10643466D+01
 Iteration Nr.   3
 **********************
 DD1Dir will call FoFMem   1 times, MxPair=        42
 NAB=    21 NAA=     0 NBB=     0.
 DE(Z)  -0.40112024D+00          E(Z)=    -0.11431494657D+03
 NORM(A)=   0.10643386D+01
 Iteration Nr.   4
 **********************
 DD1Dir will call FoFMem   1 times, MxPair=        42
 NAB=    21 NAA=     0 NBB=     0.
 DE(Z)  -0.40111982D+00          E(Z)=    -0.11431494616D+03
 NORM(A)=   0.10643344D+01
 Iteration Nr.   5
 **********************
 DD1Dir will call FoFMem   1 times, MxPair=        42
 NAB=    21 NAA=     0 NBB=     0.
 DE(Z)  -0.40111961D+00          E(Z)=    -0.11431494594D+03
 NORM(A)=   0.10602515D+01
 Iteration Nr.   6
 **********************
 DD1Dir will call FoFMem   1 times, MxPair=        42
 NAB=    21 NAA=     0 NBB=     0.
 DE(Z)  -0.40091128D+00          E(Z)=    -0.11431473761D+03
 NORM(A)=   0.10602696D+01
 Iteration Nr.   7
 **********************
 DD1Dir will call FoFMem   1 times, MxPair=        42
 NAB=    21 NAA=     0 NBB=     0.
 DE(Z)  -0.40089930D+00          E(Z)=    -0.11431472564D+03
 NORM(A)=   0.10602644D+01
 Iteration Nr.   8
 **********************
 DD1Dir will call FoFMem   1 times, MxPair=        42
 NAB=    21 NAA=     0 NBB=     0.
 DE(Z)  -0.40090587D+00          E(Z)=    -0.11431473221D+03
 NORM(A)=   0.10602644D+01
 Iteration Nr.   9
 **********************
 DD1Dir will call FoFMem   1 times, MxPair=        42
 NAB=    21 NAA=     0 NBB=     0.
 DE(Z)  -0.40090593D+00          E(Z)=    -0.11431473226D+03
 NORM(A)=   0.10602645D+01
 Iteration Nr.  10
 **********************
 DD1Dir will call FoFMem   1 times, MxPair=        42
 NAB=    21 NAA=     0 NBB=     0.
 DE(Z)  -0.40090588D+00          E(Z)=    -0.11431473222D+03
 NORM(A)=   0.10602645D+01
 Iteration Nr.  11
 **********************
 DD1Dir will call FoFMem   1 times, MxPair=        42
 NAB=    21 NAA=     0 NBB=     0.
 DE(Z)  -0.40090592D+00          E(Z)=    -0.11431473225D+03
 NORM(A)=   0.10602645D+01
 Iteration Nr.  12
 **********************
 DD1Dir will call FoFMem   1 times, MxPair=        42
 NAB=    21 NAA=     0 NBB=     0.
 DE(Z)  -0.40090591D+00          E(Z)=    -0.11431473225D+03
 NORM(A)=   0.10602645D+01
 Discarding MO integrals.
          IDoAtm=1111
          Differentiating once with respect to electric field.
                with respect to dipole field.
          Differentiating once with respect to nuclear coordinates.
          Keep R1 ints in memory in canonical form, NReq=84894631.
          There are     1 degrees of freedom in the 1st order CPHF.  IDoFFX=0.
 LinEq1:  Iter=  0 NonCon=     1 RMS=3.55D-03 Max=5.57D-02
 AX will form     1 AO Fock derivatives at one time.
 LinEq1:  Iter=  1 NonCon=     1 RMS=8.96D-04 Max=8.54D-03
 LinEq1:  Iter=  2 NonCon=     1 RMS=2.35D-04 Max=3.42D-03
 LinEq1:  Iter=  3 NonCon=     1 RMS=1.15D-04 Max=1.21D-03
 LinEq1:  Iter=  4 NonCon=     1 RMS=4.45D-05 Max=5.32D-04
 LinEq1:  Iter=  5 NonCon=     1 RMS=9.21D-06 Max=8.74D-05
 LinEq1:  Iter=  6 NonCon=     1 RMS=1.50D-06 Max=1.74D-05
 LinEq1:  Iter=  7 NonCon=     1 RMS=2.28D-07 Max=1.66D-06
 LinEq1:  Iter=  8 NonCon=     1 RMS=2.61D-08 Max=2.06D-07
 LinEq1:  Iter=  9 NonCon=     1 RMS=3.14D-09 Max=2.52D-08
 LinEq1:  Iter= 10 NonCon=     1 RMS=2.95D-10 Max=2.32D-09
 LinEq1:  Iter= 11 NonCon=     0 RMS=2.66D-11 Max=2.38D-10
 Linear equations converged to 1.000D-10 1.000D-09 after    11 iterations.
 End of Minotr Frequency-dependent properties file   721 does not exist.
 End of Minotr Frequency-dependent properties file   722 does not exist.

 **********************************************************************

            Population analysis using the QCI/CC density.

 **********************************************************************

 Alpha  occ. eigenvalues --  -20.57889 -11.34241  -1.40667  -0.87136  -0.69535
 Alpha  occ. eigenvalues --   -0.65246  -0.53718  -0.44380
 Alpha virt. eigenvalues --    0.02626   0.04168   0.06240   0.07646   0.12928
 Alpha virt. eigenvalues --    0.13296   0.13346   0.17433   0.19819   0.21172
 Alpha virt. eigenvalues --    0.21714   0.25409   0.25610   0.28124   0.32051
 Alpha virt. eigenvalues --    0.33801   0.33937   0.35899   0.38784   0.38980
 Alpha virt. eigenvalues --    0.39597   0.41891   0.48224   0.49878   0.56175
 Alpha virt. eigenvalues --    0.56743   0.66938   0.67680   0.72314   0.76379
 Alpha virt. eigenvalues --    0.81893   0.83426   0.84216   0.85683   0.87628
 Alpha virt. eigenvalues --    0.88208   0.92755   0.93411   0.93966   0.97962
 Alpha virt. eigenvalues --    1.00153   1.02091   1.02355   1.03797   1.06849
 Alpha virt. eigenvalues --    1.08246   1.09830   1.10185   1.25858   1.26578
 Alpha virt. eigenvalues --    1.30479   1.37045   1.38915   1.45783   1.47647
 Alpha virt. eigenvalues --    1.51303   1.57152   1.59856   1.62669   1.70678
 Alpha virt. eigenvalues --    1.73067   1.83597   1.96303   2.00597   2.03157
 Alpha virt. eigenvalues --    2.09409   2.18038   2.28729   2.32197   2.34114
 Alpha virt. eigenvalues --    2.34399   2.48994   2.49780   2.56028   2.60645
 Alpha virt. eigenvalues --    2.71589   2.78354   2.80902   2.92041   2.92944
 Alpha virt. eigenvalues --    3.06546   3.07633   3.14511   3.18696   3.41208
 Alpha virt. eigenvalues --    3.44418   3.52852   3.56479   3.62834   3.65985
 Alpha virt. eigenvalues --    3.70039   3.89668   3.95335   4.05622   4.11927
 Alpha virt. eigenvalues --    4.16186   4.16481   4.22045   4.24715   4.36367
 Alpha virt. eigenvalues --    4.58500   4.64822   4.68775   4.77016   5.03247
 Alpha virt. eigenvalues --    5.05132   5.10701   5.16054   5.24783   5.28446
 Alpha virt. eigenvalues --    5.32818   5.38588   5.88991   6.13733   6.23507
 Alpha virt. eigenvalues --    6.50096   6.59832   6.61841   6.91584   6.94937
 Alpha virt. eigenvalues --    7.09114   7.19090   7.20573   7.41345   7.52522
 Alpha virt. eigenvalues --    7.68647   7.72585   7.77145  14.96447  16.39637
          Condensed to atoms (all electrons):
              1          2          3          4
     1  O    8.193690   0.349452  -0.062868  -0.062868
     2  C    0.349452   5.719226   0.207784   0.207784
     3  H   -0.062868   0.207784   0.434667  -0.030409
     4  H   -0.062868   0.207784  -0.030409   0.434667
 Mulliken atomic charges:
              1
     1  O   -0.417407
     2  C   -0.484246
     3  H    0.450826
     4  H    0.450826
 Sum of Mulliken atomic charges =   0.00000
 Mulliken charges with hydrogens summed into heavy atoms:
              1
     1  O   -0.417407
     2  C    0.417407
 Sum of Mulliken charges with hydrogens summed into heavy atoms =   0.00000
 Electronic spatial extent (au):  <R**2>=             60.6316
 Charge=              0.0000 electrons
 Dipole moment (field-independent basis, Debye):
    X=              0.0016    Y=              0.0000    Z=             -2.4421  Tot=              2.4421
 Quadrupole moment (field-independent basis, Debye-Ang):
   XX=            -11.7378   YY=            -11.6215   ZZ=            -12.2708
   XY=              0.0000   XZ=              0.0019   YZ=              0.0000
 Traceless Quadrupole moment (field-independent basis, Debye-Ang):
   XX=              0.1389   YY=              0.2552   ZZ=             -0.3941
   XY=              0.0000   XZ=              0.0019   YZ=              0.0000
 Octapole moment (field-independent basis, Debye-Ang**2):
  XXX=              0.0160  YYY=              0.0000  ZZZ=              0.3113  XYY=              0.0055
  XXY=              0.0000  XXZ=              0.5813  XZZ=              0.0059  YZZ=              0.0000
  YYZ=             -0.7023  XYZ=              0.0000
 Hexadecapole moment (field-independent basis, Debye-Ang**3):
 XXXX=            -10.5191 YYYY=            -18.2497 ZZZZ=            -46.2399 XXXY=              0.0000
 XXXZ=              0.0112 YYYX=              0.0000 YYYZ=              0.0000 ZZZX=              0.0132
 ZZZY=              0.0000 XXYY=             -5.1553 XXZZ=             -9.3942 YYZZ=            -10.4551
 XXYZ=              0.0000 YYXZ=              0.0048 ZZXY=              0.0000
 N-N= 3.130500328647D+01 E-N=-3.313619951680D+02  KE= 1.142316229782D+02
 Use density number 7.
 DipInt: DoE/N= T T RetVal/Mat= T F Init=T NMatP=  1 IDeriv=0 Min/MaxMlt=  1  1
 Entering OneElI...
 Multipole integrals L=1 to 1 MinM= 0 MaxM= 0.
 Requested accuracy = 0.1000D-12
 PrsmSu:  NPrtUS=   1 ThrOK=F IAlg=1 NPAlg=1 LenDen=           0.
 Prism:   IPart=     0 DynPar=F LinDyn=F Incr=          10.
 PRISM was handed  1073591569 working-precision words and  1081 shell-pairs
 IPart=  0 NShTot=        1081 NBatch=          44 AvBLen=        24.6
 PrSmSu:  NxtVal=             11.
 Entering OneElI...
 Calculate overlap and kinetic energy integrals
    NBasis = 160  MinDer = 1  MaxDer = 1
 Requested accuracy = 0.1000D-12
 PrsmSu:  NPrtUS=   8 ThrOK=T IAlg=1 NPAlg=1 LenDen=           0.
 Prism:   IPart=     0 DynPar=F LinDyn=F Incr=           1.
 PRISM was handed   134174939 working-precision words and  1081 shell-pairs
 PRISM was handed   134174939 working-precision words and  1081 shell-pairs
 PRISM was handed   134174939 working-precision words and  1081 shell-pairs
 PRISM was handed   134174939 working-precision words and  1081 shell-pairs
 PRISM was handed   134174939 working-precision words and  1081 shell-pairs
 PRISM was handed   134174939 working-precision words and  1081 shell-pairs
 PRISM was handed   134174939 working-precision words and  1081 shell-pairs
 PRISM was handed   134174939 working-precision words and  1081 shell-pairs
 IPart=  0 NShTot=         154 NBatch=          44 AvBLen=         3.5
 IPart=  3 NShTot=         133 NBatch=          25 AvBLen=         5.3
 IPart=  4 NShTot=         129 NBatch=          25 AvBLen=         5.2
 IPart=  5 NShTot=         129 NBatch=          25 AvBLen=         5.2
 IPart=  7 NShTot=         126 NBatch=          25 AvBLen=         5.0
 IPart=  1 NShTot=         149 NBatch=          39 AvBLen=         3.8
 IPart=  2 NShTot=         134 NBatch=          26 AvBLen=         5.2
 IPart=  6 NShTot=         127 NBatch=          25 AvBLen=         5.1
 PrSmSu:  NxtVal=              9.
 Entering OneElI...
 Calculate potential energy integrals
    NBasis = 160  MinDer = 1  MaxDer = 1
 Requested accuracy = 0.1000D-12
 PrsmSu:  NPrtUS=   8 ThrOK=T IAlg=1 NPAlg=1 LenDen=           0.
 Prism:   IPart=     0 DynPar=F LinDyn=F Incr=           5.
 PRISM was handed   134178785 working-precision words and  1081 shell-pairs
 PRISM was handed   134178785 working-precision words and  1081 shell-pairs
 PRISM was handed   134178785 working-precision words and  1081 shell-pairs
 PRISM was handed   134178785 working-precision words and  1081 shell-pairs
 PRISM was handed   134178785 working-precision words and  1081 shell-pairs
 PRISM was handed   134178785 working-precision words and  1081 shell-pairs
 PRISM was handed   134178785 working-precision words and  1081 shell-pairs
 PRISM was handed   134178785 working-precision words and  1081 shell-pairs
 IPart=  3 NShTot=         528 NBatch=         132 AvBLen=         4.0
 IPart=  1 NShTot=         592 NBatch=         148 AvBLen=         4.0
 IPart=  5 NShTot=         516 NBatch=         129 AvBLen=         4.0
 IPart=  4 NShTot=         516 NBatch=         129 AvBLen=         4.0
 IPart=  7 NShTot=         504 NBatch=         126 AvBLen=         4.0
 IPart=  0 NShTot=         628 NBatch=         157 AvBLen=         4.0
 IPart=  2 NShTot=         532 NBatch=         133 AvBLen=         4.0
 IPart=  6 NShTot=         508 NBatch=         127 AvBLen=         4.0
 PrSmSu:  NxtVal=             41.
 l701 out
 I=    0 X=   6.249210787289D-04 Y=   0.000000000000D+00 Z=  -9.607972578111D-01
 I=    1 X=  -9.709357827452D-03 Y=   0.000000000000D+00 Z=   1.130119956307D+01
 I=    2 X=   9.720215091481D-03 Y=   0.000000000000D+00 Z=  -9.138638013914D+00
 I=    3 X=  -5.428632112434D-06 Y=   2.253056166808D+00 Z=  -1.081280774684D+00
 I=    4 X=  -5.428631916772D-06 Y=  -2.253056166559D+00 Z=  -1.081280774471D+00
 ICntrl=      2127.
 Calling FoFJK, ICntrl=      2127 FMM=F ISym2X=0 I1Cent= 0 IOpClX= 0 NMat=1 NMatS=1 NMatT=0.
 FoFJK:  IHMeth= 1 ICntrl=  2127 DoSepK=F KAlg= 1 I1Cent= 0 FoldK=F
 FoFCou: FMM=F IPFlag=           0 FMFlag=      100000 FMFlg1=         800
         NFxFlg=           0 DoJE=F BraDBF=F KetDBF=F FulRan=T
         Omega=  0.000000  0.000000  1.000000  0.000000  0.000000 ICntrl=    2127 IOpCl=  0
         NMat0=    1 NMatS0=    1 NMatT0=    0 NMatD0=    1 NMtDS0=    0 NMtDT0=    0
         I1Cent=           0 NGrid=           0.
 Symmetry not used in FoFCou.
 FoFCou:  KetSym=F NOpSet=  1 NOpAb=1 NOp=  1.
 FoFCou:  CnvScl= 1.00D+00 Thresh= 1.00D-10
 PrismS was handed  1073629448 working-precision words and  1081 shell-pairs
 FoFCou: LinMIO=F DoNuc=F BraDBF=F KetDBF=F HaveP=T PDBF=F HaveZ=T HaveW=F
         NIJTC =      10 NIJTAt=       0 NIJTCD=       0 NIJTT =      10
         IJTBeg=       1 IJTEnd=      10 KLTBeg=       1 KLTEnd=      10
         IPTBeg=       1 IPTEnd=      10 IPTBCv=       1 IPTECv=      10
         IZTBeg=       1 IZTEnd=      10 IZTBCv=       1 IZTECv=      10
         IWTBeg=      11 IWTEnd=      10 IWTBCv=      11 IWTECv=      10
         INTBeg=       1 INTEnd=       0 IFTBCv=       1 IFTECv=      10
 NCel replicated for PrismC:     1
 CoulSu:  IncDef=  1024 NBBP=         584821 NTPThr=   100 NPartT=    8 Incr=         731 LDynOK=F.
 CoulSu:  NPrtUS=   8 ThrOK=T IAlg=1 NPAlg=1 LenDen=           0.
 Enter PrismC: JobTyp=21 DoJE=F Cont=F.
 PrismC:  IPart=     0 DynPar=T LinDyn=F Incr=         731 UseFst=F UseS4=T.
 PrismC was handed   134183256 working-precision words and  1081 shell-pairs
 Enter PrismC: JobTyp=21 DoJE=F Cont=F.
 Enter PrismC: JobTyp=21 DoJE=F Cont=F.
 PrismC was handed   134183256 working-precision words and  1081 shell-pairs
 PrismC was handed   134183256 working-precision words and  1081 shell-pairs
 Enter PrismC: JobTyp=21 DoJE=F Cont=F.
 PrismC was handed   134183256 working-precision words and  1081 shell-pairs
 Enter PrismC: JobTyp=21 DoJE=F Cont=F.
 Enter PrismC: JobTyp=21 DoJE=F Cont=F.
 Enter PrismC: JobTyp=21 DoJE=F Cont=F.
 PrismC was handed   134183256 working-precision words and  1081 shell-pairs
 PrismC was handed   134183256 working-precision words and  1081 shell-pairs
 Enter PrismC: JobTyp=21 DoJE=F Cont=F.
 PrismC was handed   134183256 working-precision words and  1081 shell-pairs
 PrismC was handed   134183256 working-precision words and  1081 shell-pairs
 IPart=  0 NShTot=       52712 NShNF=       52712 NShFF=           0 NBatch=         281 AvBLen=       187.6
 IPart=  4 NShTot=       85067 NShNF=       85067 NShFF=           0 NBatch=         224 AvBLen=       379.8
 IPart=  3 NShTot=       72700 NShNF=       72700 NShFF=           0 NBatch=         296 AvBLen=       245.6
 IPart=  1 NShTot=       83287 NShNF=       83287 NShFF=           0 NBatch=         301 AvBLen=       276.7
[...]
 OrtVCM:  Ph=2 NNew=    0 IAdd=    3 IPass= 1 DotMx2= 0.00D+00
 OrtVCM:  IS=    1 I=    3 IndO=    3 Dot= 1.00D+00 DotN= 1.00D+00 ElMax1= 7.30D-01 ElMax1N= 7.30D-01
 OrtVCM:  Ph=2 NNew=    0 IAdd=    4 IPass= 1 DotMx2= 0.00D+00
 OrtVCM:  IS=    1 I=    4 IndO=    4 Dot= 1.00D+00 DotN= 1.00D+00 ElMax1= 7.07D-01 ElMax1N= 7.07D-01
 OrtVCM:  Ph=2 NNew=    0 IAdd=    5 IPass= 1 DotMx2= 5.55D-17
 OrtVCM:  IS=    1 I=    5 IndO=    5 Dot= 1.00D+00 DotN= 1.00D+00 ElMax1= 6.68D-01 ElMax1N= 6.68D-01
 OrtVCM:  Ph=2 NNew=    0 IAdd=    6 IPass= 1 DotMx2= 0.00D+00
 OrtVCM:  IS=    1 I=    6 IndO=    6 Dot= 1.00D+00 DotN= 1.00D+00 ElMax1= 6.27D-01 ElMax1N= 6.27D-01
 OrtVCM:  Ph=1 IPass= 1 DotMx1= 7.30D-01
 OrtVCM:  Ph=1 IPass= 2 DotMx1= 1.04D-16
 OrtVCM:  IS=    1 I=    1 IndO=    7 Dot= 2.08D-02 DotN= 2.08D-02 ElMax1= 8.63D-02 ElMax1N= 8.63D-02
 OrtVCM:  Ph=2 NNew=    0 IAdd=    2 IPass= 1 DotMx2= 0.00D+00
 OrtVCM:  IS=    1 I=    2 IndO=    8 Dot= 7.42D-02 DotN= 7.42D-02 ElMax1= 1.53D-01 ElMax1N= 1.53D-01
 OrtVCM:  Ph=2 NNew=    0 IAdd=    3 IPass= 1 DotMx2= 0.00D+00
 OrtVCM:  IS=    1 I=    3 IndO=    9 Dot= 4.67D-01 DotN= 4.67D-01 ElMax1= 4.67D-01 ElMax1N= 4.67D-01
 OrtVCM:  Ph=2 NNew=    0 IAdd=    4 IPass= 1 DotMx2= 5.13D-01
 OrtVCM:  Ph=2 NNew=    0 IAdd=    4 IPass= 2 DotMx2= 2.45D-17
 OrtVCM:  IS=    1 I=    4 IndO=    0 Dot= 3.25D-33 DotN= 3.25D-33 ElMax1= 4.29D-17 ElMax1N= 4.29D-17
 OrtVCM:  Ph=2 NNew=    0 IAdd=    5 IPass= 1 DotMx2= 4.42D-01
 OrtVCM:  Ph=2 NNew=    0 IAdd=    5 IPass= 2 DotMx2= 1.25D-16
 OrtVCM:  IS=    1 I=    5 IndO=   10 Dot= 1.08D-01 DotN= 1.08D-01 ElMax1= 1.87D-01 ElMax1N= 1.87D-01
 OrtVCM:  Ph=2 NNew=    0 IAdd=    6 IPass= 1 DotMx2= 6.76D-01
 OrtVCM:  Ph=2 NNew=    0 IAdd=    6 IPass= 2 DotMx2= 2.78D-17
 OrtVCM:  IS=    1 I=    6 IndO=   11 Dot= 1.44D-01 DotN= 1.44D-01 ElMax1= 2.48D-01 ElMax1N= 2.48D-01
 SchOr2:  IPass= 1 Test2A= 1.00D-01 IOff=     0 NDo=     6 NNew=     5
 OrtVCM:  Ph=1 IPass= 1 DotMx1= 7.07D-01
 OrtVCM:  Ph=1 IPass= 2 DotMx1= 1.96D-16
 OrtVCM:  IS=    1 I=    1 IndO=    0 Dot= 1.26D-63 DotN= 1.26D-63 ElMax1= 2.77D-32 ElMax1N= 2.77D-32
 SchOr2:  IPass= 1 Test2A= 1.00D-01 IOff=     6 NDo=     1 NNew=     0
 OrtVCM:  Ph=1 IPass= 1 DotMx1= 5.68D-01
 OrtVCM:  Ph=1 IPass= 2 DotMx1= 7.50D-17
 OrtVCM:  IS=    1 I=    1 IndO=   12 Dot= 5.00D-01 DotN= 5.00D-01 ElMax1= 5.00D-01 ElMax1N= 5.00D-01
 SchOr2:  IPass= 1 Test2A= 1.00D-01 IOff=     7 NDo=     1 NNew=     1
 VibFq2-Diag2:  N=      6 IV=           5 MDV=  1073701790 NE2=   178950297
 Dipole derivatives wrt mode   1:  2.48544D+00  2.74325D-07 -3.77676D-03
 Vibrational polarizability contributions from mode   1       0.1147148       0.0000000       0.0000003
 Vibrational hyperpolarizability contributions from mode   1       0.0000000       0.0000000       0.0000000
 Dipole derivatives wrt mode   2:  2.04094D-07 -3.38171D+00  7.08994D-04
 Vibrational polarizability contributions from mode   2       0.0000000       0.1892063       0.0000000
 Vibrational hyperpolarizability contributions from mode   2       0.0000000       0.0000000       0.0000000
 Dipole derivatives wrt mode   3:  8.82736D-05  1.41227D-05 -3.52848D+00
 Vibrational polarizability contributions from mode   3       0.0000000       0.0000000       0.1404401
 Vibrational hyperpolarizability contributions from mode   3       0.0000000       0.0000000       0.0000000
 Dipole derivatives wrt mode   4: -4.29250D-05 -1.88258D-05 -9.35153D+00
 Vibrational polarizability contributions from mode   4       0.0000000       0.0000000       0.7239280
 Vibrational hyperpolarizability contributions from mode   4       0.0000000       0.0000000       0.0000000
 Dipole derivatives wrt mode   5:  4.74665D-05  3.36759D-04  7.85083D+00
 Vibrational polarizability contributions from mode   5       0.0000000       0.0000000       0.1900487
 Vibrational hyperpolarizability contributions from mode   5       0.0000000       0.0000000       0.0000000
 Dipole derivatives wrt mode   6:  6.69260D-10  9.51265D+00  6.47574D-05
 Vibrational polarizability contributions from mode   6       0.0000000       0.2668435       0.0000000
 Vibrational hyperpolarizability contributions from mode   6       0.0000000       0.0000000       0.0000000
 Diagonal vibrational polarizability:
        0.1147148       0.4560499       1.0544171
 NorSel:  MapVib=      1      2      3      4      5      6
 Harmonic frequencies (cm**-1), IR intensities (KM/Mole), Raman scattering
 activities (A**4/AMU), depolarization ratios for plane and unpolarized
 incident light, reduced masses (AMU), force constants (mDyne/A),
 and normal coordinates:
                           1         2         3         4         5
                           A         A         A         A         A
       Frequencies ---  1203.8177 1275.3651 1544.5733 1803.0246 2954.2668
    Reduced masses ---     1.3636    1.3377    1.1255    6.5954    1.0450
   Force constants ---     1.1643    1.2820    1.5820   12.6326    5.3737
    IR Intensities ---     6.1774   11.4359   12.4502   87.4512   61.6355
 Coord Atom Element:
   1     1     8          0.04214   0.00000   0.00000   0.00000   0.00000
   2     1     8          0.00000   0.07880   0.00000   0.00000   0.00000
   3     1     8          0.00000   0.00000   0.08783   0.38388   0.00027
   1     2     6         -0.17305   0.00000  -0.00001   0.00001   0.00000
   2     2     6          0.00000  -0.14678   0.00000   0.00000   0.00000
   3     2     6         -0.00001   0.00000  -0.01366  -0.55443   0.05817
   1     3     1          0.69580   0.00000   0.00002  -0.00003   0.00001
   2     3     1          0.00000   0.24857  -0.34203   0.45590   0.61390
   3     3     1          0.00003   0.65141  -0.61568   0.25451  -0.34843
   1     4     1          0.69580   0.00000   0.00002  -0.00003   0.00001
   2     4     1          0.00000   0.24857   0.34203  -0.45590  -0.61394
   3     4     1          0.00003  -0.65142  -0.61568   0.25451  -0.34845
                           6
                           A
       Frequencies ---  3020.9223
    Reduced masses ---     1.1214
   Force constants ---     6.0295
    IR Intensities ---    90.4904
 Coord Atom Element:
   1     1     8          0.00000
   2     1     8         -0.00056
   3     1     8          0.00000
   1     2     6          0.00000
   2     2     6          0.10164
   3     2     6          0.00000
   1     3     1          0.00000
   2     3     1         -0.60070
   3     3     1          0.36610
   1     4     1          0.00000
   2     4     1         -0.60065
   3     4     1         -0.36608
 Harmonic frequencies (cm**-1), IR intensities (KM/Mole), Raman scattering
 activities (A**4/AMU), depolarization ratios for plane and unpolarized
 incident light, reduced masses (AMU), force constants (mDyne/A),
 and normal coordinates:
                     1                      2                      3
                     A                      A                      A
 Frequencies --  1203.8177              1275.3651              1544.5733
 Red. masses --     1.3636                 1.3377                 1.1255
 Frc consts  --     1.1643                 1.2820                 1.5820
 IR Inten    --     6.1774                11.4359                12.4502
  Atom  AN      X      Y      Z        X      Y      Z        X      Y      Z
     1   8     0.04   0.00   0.00     0.00   0.08   0.00     0.00   0.00   0.09
     2   6    -0.17   0.00   0.00     0.00  -0.15   0.00     0.00   0.00  -0.01
     3   1     0.70   0.00   0.00     0.00   0.25   0.65     0.00  -0.34  -0.62
     4   1     0.70   0.00   0.00     0.00   0.25  -0.65     0.00   0.34  -0.62
                     4                      5                      6
                     A                      A                      A
 Frequencies --  1803.0246              2954.2668              3020.9223
 Red. masses --     6.5954                 1.0450                 1.1214
 Frc consts  --    12.6326                 5.3737                 6.0295
 IR Inten    --    87.4512                61.6355                90.4904
  Atom  AN      X      Y      Z        X      Y      Z        X      Y      Z
     1   8     0.00   0.00   0.38     0.00   0.00   0.00     0.00   0.00   0.00
     2   6     0.00   0.00  -0.55     0.00   0.00   0.06     0.00   0.10   0.00
     3   1     0.00   0.46   0.25     0.00   0.61  -0.35     0.00  -0.60   0.37
     4   1     0.00  -0.46   0.25     0.00  -0.61  -0.35     0.00  -0.60  -0.37

 -------------------
 - Thermochemistry -
 -------------------
 Temperature   298.150 Kelvin.  Pressure   1.00000 Atm.
 Atom     1 has atomic number  8 and mass  15.99491
 Atom     2 has atomic number  6 and mass  12.00000
 Atom     3 has atomic number  1 and mass   1.00783
 Atom     4 has atomic number  1 and mass   1.00783
 Molecular mass:    30.01056 amu.
 Principal axes and moments of inertia in atomic units:
                           1         2         3
     Eigenvalues --     6.31443  46.43032  52.74475
           X            0.00000   0.00000   1.00000
           Y            0.00000   1.00000   0.00000
           Z            1.00000   0.00000   0.00000
 This molecule is an asymmetric top.
 Rotational symmetry number  2.
 Rotational temperatures (Kelvin)     13.71681     1.86546     1.64213
 Rotational constants (GHZ):         285.81220    38.86988    34.21651
 Zero-point vibrational energy      70591.5 (Joules/Mol)
                                   16.87176 (Kcal/Mol)
 Vibrational temperatures:   1732.02  1834.96  2222.29  2594.15  4250.53
          (Kelvin)           4346.43
 
 Zero-point correction=                           0.026887 (Hartree/Particle)
 Thermal correction to Energy=                    0.029754
 Thermal correction to Enthalpy=                  0.030698
 Thermal correction to Gibbs Free Energy=         0.005885
 Sum of electronic and zero-point Energies=           -114.300094
 Sum of electronic and thermal Energies=              -114.297227
 Sum of electronic and thermal Enthalpies=            -114.296283
 Sum of electronic and thermal Free Energies=         -114.321096
 
                     E (Thermal)             CV                S
                      KCal/Mol        Cal/Mol-Kelvin    Cal/Mol-Kelvin
 Total                   18.671              6.414             52.224
 Electronic               0.000              0.000              0.000
 Translational            0.889              2.981             36.130
 Rotational               0.889              2.981             16.010
 Vibrational             16.893              0.452              0.084
                       Q            Log10(Q)             Ln(Q)
 Total Bot       0.196481D-02         -2.706680         -6.232362
 Total V=0       0.457502D+10          9.660393         22.243877
 Vib (Bot)       0.431996D-12        -12.364521        -28.470361
 Vib (V=0)       0.100589D+01          0.002553          0.005877
 Electronic      0.100000D+01          0.000000          0.000000
 Translational   0.646199D+07          6.810366         15.681448
 Rotational      0.703840D+03          2.847474          6.556551
 -------------------------------------------------------------------
 Center     Atomic                   Forces (Hartrees/Bohr)
 Number     Number              X              Y              Z
 -------------------------------------------------------------------
      1        8           0.000000000    0.000000000    0.000055420
      2        6           0.000000000    0.000000000   -0.000026263
      3        1           0.000000000   -0.000077894   -0.000014579
      4        1           0.000000000    0.000077894   -0.000014579
 -------------------------------------------------------------------
 Cartesian Forces:  Max     0.000077894 RMS     0.000036880
 Z-matrix is all fixed cartesians, so copy forces.
 Force constants in Cartesian coordinates: 
                1             2             3             4             5 
      1  0.182472D-01
      2  0.000000D+00  0.730798D-01
      3 -0.399633D-05  0.378875D-05  0.861584D+00
      4 -0.562834D-01  0.000000D+00  0.000000D+00  0.173421D+00
      5  0.000000D+00 -0.105449D+00  0.102718D-05  0.000000D+00  0.600886D+00
      6  0.106574D-04 -0.123717D-04 -0.779548D+00  0.000000D+00 -0.572544D-05
      7  0.190319D-01  0.000000D+00  0.000000D+00 -0.585798D-01  0.000000D+00
      8  0.326114D-05  0.161866D-01  0.146118D-01  0.000000D+00 -0.247713D+00
      9 -0.332984D-05  0.370477D-01 -0.410200D-01  0.000000D+00  0.853958D-01
     10  0.190319D-01  0.000000D+00 -0.131996D-05 -0.585798D-01  0.000000D+00
     11 -0.326205D-05  0.161942D-01 -0.146120D-01  0.000000D+00 -0.247708D+00
     12 -0.333121D-05 -0.370391D-01 -0.410205D-01  0.000000D+00 -0.853911D-01
                6             7             8             9            10 
      6  0.981863D+00
      7  0.449168D-05  0.198031D-01
      8  0.840210D-01  0.198740D-05  0.250216D+00
      9 -0.101155D+00 -0.209675D-05 -0.110533D+00  0.132848D+00
     10  0.553937D-05  0.197418D-01  0.209779D-05 -0.210818D-05  0.198031D-01
     11 -0.840213D-01 -0.198378D-05 -0.187097D-01 -0.119038D-01 -0.210093D-05
     12 -0.101154D+00 -0.209474D-05  0.119043D-01  0.932605D-02 -0.211123D-05
               11            12 
     11  0.250216D+00
     12  0.110533D+00  0.132847D+00
 Final forces over variables, Energy=-1.14326981D+02:
  1.06265402D-14 4.68603701D-14-8.06720687D-14 2.31851584D-14
 -1.16123074D-12-3.27272578D-12-7.78941502D-05 7.78941546D-05
  5.54203705D-05-2.62631549D-05-1.45786087D-05-1.45786070D-05

 GradGradGradGradGradGradGradGradGradGradGradGradGradGradGradGradGradGrad
 Berny optimization.
 Search for a local minimum.
 Step number   1 out of a maximum of    2
 All quantities printed in internal units (Hartrees-Bohrs-Radians)
 Second derivative matrix not updated -- analytic derivatives used.
 The second derivative matrix:
                          X1        Y1        Z1        X2        Y2
           X1           0.01825
           Y1           0.00000   0.07308
           Z1           0.00000   0.00000   0.86158
           X2          -0.05628   0.00000   0.00000   0.17342
           Y2           0.00000  -0.10545   0.00000   0.00000   0.60089
           Z2           0.00001  -0.00001  -0.77955   0.00000  -0.00001
           X3           0.01903   0.00000   0.00000  -0.05858   0.00000
           Y3           0.00000   0.01619   0.01461   0.00000  -0.24771
           Z3           0.00000   0.03705  -0.04102   0.00000   0.08540
           X4           0.01903   0.00000   0.00000  -0.05858   0.00000
           Y4           0.00000   0.01619  -0.01461   0.00000  -0.24771
           Z4           0.00000  -0.03704  -0.04102   0.00000  -0.08539
                          Z2        X3        Y3        Z3        X4
           Z2           0.98186
           X3           0.00000   0.01980
           Y3           0.08402   0.00000   0.25022
           Z3          -0.10115   0.00000  -0.11053   0.13285
           X4           0.00001   0.01974   0.00000   0.00000   0.01980
           Y4          -0.08402   0.00000  -0.01871  -0.01190   0.00000
           Z4          -0.10115   0.00000   0.01190   0.00933   0.00000
                          Y4        Z4
           Y4           0.25022
           Z4           0.11053   0.13285
 ITU=  0
     Eigenvalues ---    0.12429   0.14681   0.19291   0.37165   0.75315
     Eigenvalues ---    1.70790
 Angle between quadratic step and forces=  33.49 degrees.
 Linear search not attempted -- first point.
 TrRot=  0.000000  0.000000  0.000094  0.000000  0.000000  0.000000
 Variable       Old X    -DE/DX   Delta X   Delta X   Delta X     New X
                                 (Linear)    (Quad)   (Total)
    X1        0.00000   0.00000   0.00000   0.00000   0.00000   0.00000
    Y1        0.00000   0.00000   0.00000   0.00000   0.00000   0.00000
    Z1        1.28360   0.00006   0.00000   0.00013   0.00023   1.28383
    X2        0.00000   0.00000   0.00000   0.00000   0.00000   0.00000
    Y2        0.00000   0.00000   0.00000   0.00000   0.00000   0.00000
    Z2       -0.99572  -0.00003   0.00000   0.00009   0.00019  -0.99553
    X3        0.00000   0.00000   0.00000   0.00000   0.00000   0.00000
    Y3        1.76994  -0.00008   0.00000  -0.00044  -0.00044   1.76951
    Z3       -2.09121  -0.00001   0.00000  -0.00030  -0.00021  -2.09142
    X4        0.00000   0.00000   0.00000   0.00000   0.00000   0.00000
    Y4       -1.76994   0.00008   0.00000   0.00044   0.00044  -1.76951
    Z4       -2.09121  -0.00001   0.00000  -0.00030  -0.00021  -2.09142
         Item               Value     Threshold  Converged?
 Maximum Force            0.000078     0.000450     YES
 RMS     Force            0.000037     0.000300     YES
 Maximum Displacement     0.000436     0.001800     YES
 RMS     Displacement     0.000215     0.001200     YES
 Predicted change in Energy=-4.085130D-08
 Optimization completed.
    -- Stationary point found.
 GradGradGradGradGradGradGradGradGradGradGradGradGradGradGradGradGradGrad


 Test job not archived.
 1\1\GINC-TRAPISTA\Freq\RQCISD-FC\Aug-CC-pVTZ\C1H2O1\BRUNS\16-Nov-2021\
 0\\#freq=noraman qcisd/aug-cc-pvtz density=current iop(7/33=1) nosym f
 ormcheck=forcecart\\h2co-frequencies\\0,1\O,0.,0.,0.679252\C,0.,0.,-0.
 526911\H,0.,0.936614,-1.10662\H,0.,-0.936614,-1.10662\\Version=EM64L-G
 09RevB.01\HF=-113.9138264\MP2=-114.3163446\MP3=-114.3203637\MP4D=-114.
 3305858\MP4DQ=-114.3217132\MP4SDQ=-114.3269752\QCISD=-114.3269808\RMSD
 =2.900e-09\RMSF=3.688e-05\ZeroPoint=0.0268869\Thermal=0.0297538\Dipole
 =0.,0.,-0.960797\DipoleDeriv=-0.330647,0.,-0.0001389,0.,-0.4522837,0.0
 001704,0.,0.,-0.8647729,0.1416652,0.,0.0000057,0.,0.7653014,0.0001005,
 0.,0.,0.9650217,0.0944264,0.,-0.0000985,0.,-0.1565648,0.1353296,0.,0.0
 771702,-0.0501798,0.0944264,0.,-0.0000847,0.,-0.156565,-0.1353116,0.,-
 0.0771703,-0.0502135\Quadrupole=0.1032515,0.1897609,-0.2930124,0.,0.,0
 .\QuadrupoleDeriv=0.0000072,0.000008,-0.0000152,0.,-0.7422733,0.,-0.00
 00097,-0.0000084,0.0000181,0.,0.,0.1245103,-0.7937074,0.3227898,0.4709
 176,0.,0.,0.,0.0000004,-0.000001,0.0000006,0.,0.0912703,0.,-0.0000136,
 -0.0000028,0.0000164,0.,0.,-2.0936245,1.3601813,-0.5983332,-0.7618481,
 0.,0.,0.,0.0000135,0.0000021,-0.0000156,0.0245673,-0.1547781,-0.000000
 2,-0.1335779,0.5298825,-0.3963046,0.,0.,0.5047819,0.0369554,0.4581729,
 -0.4951282,0.,0.,0.1737615,0.0000183,0.0000007,-0.000019,-0.0245672,-0
 .154778,0.0000002,0.1335852,-0.5298854,0.3963002,0.,0.,0.504783,0.0369
 312,0.4581828,-0.4951139,0.,0.,-0.1737612\PG=C02V [C2(C1O1),SGV(H2)]\N
 Imag=0\\0.01824717,0.,0.07307985,-0.00000400,0.00000379,0.86158422,-0.
 05628340,0.,0.00000012,0.17342134,0.,-0.10544872,0.00000103,0.,0.60088
 595,0.00001066,-0.00001237,-0.77954819,-0.00000059,-0.00000573,0.98186
 329,0.01903192,0.,-0.00000030,-0.05857982,0.,0.00000449,0.01980312,0.0
 0000326,0.01618656,0.01461184,-0.00000008,-0.24771278,0.08402100,0.000
 00199,0.25021572,-0.00000333,0.03704771,-0.04102001,0.00000023,0.08539
 584,-0.10115500,-0.00000210,-0.11053294,0.13284807,0.01903192,0.,-0.00
 000132,-0.05857982,0.,0.00000554,0.01974182,0.00000210,-0.00000211,0.0
 1980312,-0.00000326,0.01619416,-0.01461199,0.00000008,-0.24770826,-0.0
 8402130,-0.00000198,-0.01870967,-0.01190377,-0.00000210,0.25021591,-0.
 00000333,-0.03703912,-0.04102053,0.00000024,-0.08539114,-0.10115381,-0
 .00000209,0.01190431,0.00932605,-0.00000211,0.11053284,0.13284740\\0.,
 0.,-0.00005542,0.,0.,0.00002626,0.,0.00007789,0.00001458,0.,-0.0000778
 9,0.00001458\\\@


 ... THE UNIVERSE IS NOT ONLY QUEERER THAN WE SUPPOSE,
 BUT QUEERER THAN WE CAN SUPPOSE ... 

                                   -- J. B. S. HALDANE
 Job cpu time:  0 days 10 hours 40 minutes 17.4 seconds.
 File lengths (MBytes):  RWF=   5787 Int=      0 D2E=      0 Chk=     41 Scr=      1
 Normal termination of Gaussian 09 at Tue Nov 16 17:57:15 2021.
