 Entering Gaussian System, Link 0=/home/bruns/programas/chemistry/gaussian/g09/g09
 Input=./h2co/h2co-opt.com
 Output=./h2co/h2co-opt.log
 Initial command:
 /home/bruns/programas/chemistry/gaussian/g09/l1.exe /home/bruns/programas/chemistry/gaussian/work/Gau-55575.inp -scrdir=/home/bruns/programas/chemistry/gaussian/work/
 Entering Link 1 = /home/bruns/programas/chemistry/gaussian/g09/l1.exe PID=     55577.
  
 Copyright (c) 1988,1990,1992,1993,1995,1998,2003,2009,2010,
            Gaussian, Inc.  All Rights Reserved.
  
 This is part of the Gaussian(R) 09 program.  It is based on
 the Gaussian(R) 03 system (copyright 2003, Gaussian, Inc.),
 the Gaussian(R) 98 system (copyright 1998, Gaussian, Inc.),
 the Gaussian(R) 94 system (copyright 1995, Gaussian, Inc.),
 the Gaussian 92(TM) system (copyright 1992, Gaussian, Inc.),
 the Gaussian 90(TM) system (copyright 1990, Gaussian, Inc.),
 the Gaussian 88(TM) system (copyright 1988, Gaussian, Inc.),
 the Gaussian 86(TM) system (copyright 1986, Carnegie Mellon
 University), and the Gaussian 82(TM) system (copyright 1983,
 Carnegie Mellon University). Gaussian is a federally registered
 trademark of Gaussian, Inc.
  
 This software contains proprietary and confidential information,
 including trade secrets, belonging to Gaussian, Inc.
  
 This software is provided under written license and may be
 used, copied, transmitted, or stored only in accord with that
 written license.
  
 The following legend is applicable only to US Government
 contracts under FAR:
  
                    RESTRICTED RIGHTS LEGEND
  
 Use, reproduction and disclosure by the US Government is
 subject to restrictions as set forth in subparagraphs (a)
 and (c) of the Commercial Computer Software - Restricted
 Rights clause in FAR 52.227-19.
  
 Gaussian, Inc.
 340 Quinnipiac St., Bldg. 40, Wallingford CT 06492
  
  
 ---------------------------------------------------------------
 Warning -- This program may not be used in any manner that
 competes with the business of Gaussian, Inc. or will provide
 assistance to any competitor of Gaussian, Inc.  The licensee
 of this program is prohibited from giving any competitor of
 Gaussian, Inc. access to this program.  By using this program,
 the user acknowledges that Gaussian, Inc. is engaged in the
 business of creating and licensing software in the field of
 computational chemistry and represents and warrants to the
 licensee that it is not a competitor of Gaussian, Inc. and that
 it will not use this program in any manner prohibited above.
 ---------------------------------------------------------------
  

 Cite this work as:
 Gaussian 09, Revision B.01,
 M. J. Frisch, G. W. Trucks, H. B. Schlegel, G. E. Scuseria, 
 M. A. Robb, J. R. Cheeseman, G. Scalmani, V. Barone, B. Mennucci, 
 G. A. Petersson, H. Nakatsuji, M. Caricato, X. Li, H. P. Hratchian, 
 A. F. Izmaylov, J. Bloino, G. Zheng, J. L. Sonnenberg, M. Hada, 
 M. Ehara, K. Toyota, R. Fukuda, J. Hasegawa, M. Ishida, T. Nakajima, 
 Y. Honda, O. Kitao, H. Nakai, T. Vreven, J. A. Montgomery, Jr., 
 J. E. Peralta, F. Ogliaro, M. Bearpark, J. J. Heyd, E. Brothers, 
 K. N. Kudin, V. N. Staroverov, T. Keith, R. Kobayashi, J. Normand, 
 K. Raghavachari, A. Rendell, J. C. Burant, S. S. Iyengar, J. Tomasi, 
 M. Cossi, N. Rega, J. M. Millam, M. Klene, J. E. Knox, J. B. Cross, 
 V. Bakken, C. Adamo, J. Jaramillo, R. Gomperts, R. E. Stratmann, 
 O. Yazyev, A. J. Austin, R. Cammi, C. Pomelli, J. W. Ochterski, 
 R. L. Martin, K. Morokuma, V. G. Zakrzewski, G. A. Voth, 
 P. Salvador, J. J. Dannenberg, S. Dapprich, A. D. Daniels, 
 O. Farkas, J. B. Foresman, J. V. Ortiz, J. Cioslowski, 
 and D. J. Fox, Gaussian, Inc., Wallingford CT, 2010.
 
 ******************************************
 Gaussian 09:  EM64L-G09RevB.01 12-Aug-2010
                16-Nov-2021 
 ******************************************
 %nproc=8
 Will use up to    8 processors via shared memory.
 %mem=8GB
 --------------------------------------------
 #opt qcisd/aug-cc-pvtz density=current nosym
 --------------------------------------------
 1/18=20,19=15,38=1/1,3;
 2/9=110,12=2,15=1,17=6,18=5,40=1/2;
 3/5=16,6=1,7=10,11=9,16=1,25=1,30=1,71=1/1,2,3;
 4//1;
 5/5=2,38=5/2;
 8/6=4,9=120000,10=1/1,4;
 9/5=8,15=1/13;
 11/28=-7,29=200,31=1,42=3/11;
 10/5=6,31=1/2;
 6/7=2,8=2,9=2,10=2,22=-1/1;
 7/12=7,30=1/1,2,3,16;
 1/18=20,19=15/3(2);
 2/9=110,15=1/2;
 99//99;
 2/9=110,15=1/2;
 3/5=16,6=1,7=10,11=9,16=1,25=1,30=1,71=1/1,2,3;
 4/5=5,16=3/1;
 5/5=2,38=5/2;
 8/6=4,9=120000,10=1/1,4;
 9/5=8,15=1/13;
 11/28=-7,29=200,31=1,42=3/11;
 10/5=6,31=1/2;
 7/12=7,30=1/1,2,3,16;
 1/18=20,19=15/3(-9);
 2/9=110,15=1/2;
 6/7=2,8=2,9=2,10=2,22=-1/1;
 99//99;
 ----
 h2co
 ----
 Symbolic Z-matrix:
 Charge =  0 Multiplicity = 1
 O                     0.        0.        0.69608 
 C                     0.        0.       -0.56233 
 H                     0.        0.92665  -1.09733 
 H                     0.       -0.92665  -1.09733 
 

 GradGradGradGradGradGradGradGradGradGradGradGradGradGradGradGradGradGrad
 Berny optimization.
 Initialization pass.
                           ----------------------------
                           !    Initial Parameters    !
                           ! (Angstroms and Degrees)  !
 --------------------------                            --------------------------
 ! Name  Definition              Value          Derivative Info.                !
 --------------------------------------------------------------------------------
 ! R1    R(1,2)                  1.2584         estimate D2E/DX2                !
 ! R2    R(2,3)                  1.07           estimate D2E/DX2                !
 ! R3    R(2,4)                  1.07           estimate D2E/DX2                !
 ! A1    A(1,2,3)              120.0            estimate D2E/DX2                !
 ! A2    A(1,2,4)              120.0            estimate D2E/DX2                !
 ! A3    A(3,2,4)              120.0            estimate D2E/DX2                !
 ! D1    D(1,2,4,3)            180.0            estimate D2E/DX2                !
 --------------------------------------------------------------------------------
 Trust Radius=3.00D-01 FncErr=1.00D-07 GrdErr=1.00D-07
 Number of steps in this run=     20 maximum allowed number of steps=    100.
 GradGradGradGradGradGradGradGradGradGradGradGradGradGradGradGradGradGrad

                          Input orientation:                          
 ---------------------------------------------------------------------
 Center     Atomic      Atomic             Coordinates (Angstroms)
 Number     Number       Type             X           Y           Z
 ---------------------------------------------------------------------
      1          8           0        0.000000    0.000000    0.696075
      2          6           0        0.000000    0.000000   -0.562325
      3          1           0        0.000000    0.926647   -1.097325
      4          1           0        0.000000   -0.926647   -1.097325
 ---------------------------------------------------------------------
                    Distance matrix (angstroms):
                    1          2          3          4
     1  O    0.000000
     2  C    1.258400   0.000000
     3  H    2.018653   1.070000   0.000000
     4  H    2.018653   1.070000   1.853294   0.000000
 Symmetry turned off by external request.
 Stoichiometry    CH2O
 Framework group  C2V[C2(CO),SGV(H2)]
 Deg. of freedom     3
 Full point group                 C2V     NOp   4
 Rotational constants (GHZ):    291.9935380     36.5845884     32.5111824
 Standard basis: Aug-CC-pVTZ (5D, 7F)
 Integral buffers will be    131072 words long.
 Raffenetti 1 integral format.
 Two-electron integral symmetry is turned off.
   138 basis functions,   198 primitive gaussians,   160 cartesian basis functions
     8 alpha electrons        8 beta electrons
       nuclear repulsion energy        30.5992943961 Hartrees.
 NAtoms=    4 NActive=    4 NUniq=    4 SFac= 1.00D+00 NAtFMM=   50 NAOKFM=F Big=F
 One-electron integrals computed using PRISM.
 NBasis=   138 RedAO= T  NBF=   138
 NBsUse=   138 1.00D-06 NBFU=   138
 Harris functional with IExCor=  205 diagonalized for initial guess.
 ExpMin= 2.53D-02 ExpMax= 1.53D+04 ExpMxC= 5.22D+02 IAcc=3 IRadAn=         0 AccDes= 0.00D+00
 HarFok:  IExCor=  205 AccDes= 0.00D+00 IRadAn=         0 IDoV= 1
 ScaDFX=  1.000000  1.000000  1.000000  1.000000
 FoFCou: FMM=F IPFlag=           0 FMFlag=      100000 FMFlg1=           0
         NFxFlg=           0 DoJE=T BraDBF=F KetDBF=T FulRan=T
         Omega=  0.000000  0.000000  1.000000  0.000000  0.000000 ICntrl=     500 IOpCl=  0
         NMat0=    1 NMatS0=    1 NMatT0=    0 NMatD0=    1 NMtDS0=    0 NMtDT0=    0
         I1Cent=           4 NGrid=           0.
 Symmetry not used in FoFCou.
 Requested convergence on RMS density matrix=1.00D-08 within 128 cycles.
 Requested convergence on MAX density matrix=1.00D-06.
 Requested convergence on             energy=1.00D-06.
 No special actions if energy rises.
 Keep R1 ints in memory in canonical form, NReq=85137408.
 SCF Done:  E(RHF) =  -113.905082055     A.U. after   11 cycles
             Convg  =    0.4141D-08             -V/T =  2.0026
 ExpMin= 2.53D-02 ExpMax= 1.53D+04 ExpMxC= 5.22D+02 IAcc=3 IRadAn=         5 AccDes= 0.00D+00
 HarFok:  IExCor=  205 AccDes= 0.00D+00 IRadAn=         5 IDoV=-2
 ScaDFX=  1.000000  1.000000  1.000000  1.000000
 DSYEVD returned Info=          93 IAlg= 4 N=    46 NDim=    46 NE2=    23340785 trying DSYEV.
 Range of M.O.s used for correlation:     3   138
 NBasis=   138 NAE=     8 NBE=     8 NFC=     2 NFV=     0
 NROrb=    136 NOA=     6 NOB=     6 NVA=   130 NVB=   130

 **** Warning!!: The largest alpha MO coefficient is  0.39272061D+02

 Semi-Direct transformation.
 ModeAB=           2 MOrb=             6 LenV=    1073118513
 LASXX=      7286295 LTotXX=     7286295 LenRXX=     7286295
 LTotAB=     7445736 MaxLAS=    10510080 LenRXY=    10510080
 NonZer=    14572590 LenScr=    22628352 LnRSAI=           0
 LnScr1=           0 LExtra=           0 Total=     40424727
 MaxDsk=          -1 SrtSym=           F ITran=            4
 JobTyp=0 Pass  1:  I=   1 to   6.
 (rs|ai) integrals will be sorted in core.
 Spin components of T(2) and E(2):
     alpha-alpha T2 =       0.1442036981D-01 E2=     -0.4875442598D-01
     alpha-beta  T2 =       0.8854800759D-01 E2=     -0.3103222084D+00
     beta-beta   T2 =       0.1442036981D-01 E2=     -0.4875442598D-01
 ANorm=    0.1057066104D+01
 E2 =    -0.4078310603D+00 EUMP2 =    -0.11431291311511D+03
 R2 and R3 integrals will be kept in memory, NReq=   167993840.
 Iterations=  50 Convergence= 0.100D-07
 Iteration Nr.   1
 **********************
 DD1Dir will call FoFMem   1 times, MxPair=        42
 NAB=    21 NAA=     0 NBB=     0.
 MP4(R+Q)=  0.93523817D-02
 E3=       -0.19254516D-02        EUMP3=      -0.11431483857D+03
 E4(DQ)=   -0.17180938D-02        UMP4(DQ)=   -0.11431655666D+03
 E4(SDQ)=  -0.76850810D-02        UMP4(SDQ)=  -0.11432252365D+03
 DE(Corr)= -0.40040413     E(Corr)=     -114.30548619    
 NORM(A)=   0.10570099D+01
 Iteration Nr.   2
 **********************
 DD1Dir will call FoFMem   1 times, MxPair=        42
 NAB=    21 NAA=     0 NBB=     0.
 DE(Corr)= -0.41581091     E(CORR)=     -114.32089297     Delta=-1.54D-02
 NORM(A)=   0.10637298D+01
 Iteration Nr.   3
 **********************
 DD1Dir will call FoFMem   1 times, MxPair=        42
 NAB=    21 NAA=     0 NBB=     0.
 DE(Corr)= -0.41546422     E(CORR)=     -114.32054628     Delta= 3.47D-04
 NORM(A)=   0.10660825D+01
 Iteration Nr.   4
 **********************
 DD1Dir will call FoFMem   1 times, MxPair=        42
 NAB=    21 NAA=     0 NBB=     0.
 DE(Corr)= -0.41709817     E(CORR)=     -114.32218022     Delta=-1.63D-03
 NORM(A)=   0.10670101D+01
 Iteration Nr.   5
 **********************
 DD1Dir will call FoFMem   1 times, MxPair=        42
 NAB=    21 NAA=     0 NBB=     0.
 DE(Corr)= -0.41734123     E(CORR)=     -114.32242329     Delta=-2.43D-04
 NORM(A)=   0.10673302D+01
 Iteration Nr.   6
 **********************
 DD1Dir will call FoFMem   1 times, MxPair=        42
 NAB=    21 NAA=     0 NBB=     0.
 DE(Corr)= -0.41737635     E(CORR)=     -114.32245840     Delta=-3.51D-05
 NORM(A)=   0.10673679D+01
 Iteration Nr.   7
 **********************
 DD1Dir will call FoFMem   1 times, MxPair=        42
 NAB=    21 NAA=     0 NBB=     0.
 DE(Corr)= -0.41737795     E(CORR)=     -114.32246000     Delta=-1.60D-06
 NORM(A)=   0.10673704D+01
 Iteration Nr.   8
 **********************
 DD1Dir will call FoFMem   1 times, MxPair=        42
 NAB=    21 NAA=     0 NBB=     0.
 DE(Corr)= -0.41737667     E(CORR)=     -114.32245873     Delta= 1.28D-06
 NORM(A)=   0.10673743D+01
 Iteration Nr.   9
 **********************
 DD1Dir will call FoFMem   1 times, MxPair=        42
 NAB=    21 NAA=     0 NBB=     0.
 DE(Corr)= -0.41737506     E(CORR)=     -114.32245711     Delta= 1.62D-06
 NORM(A)=   0.10673747D+01
 Iteration Nr.  10
 **********************
 DD1Dir will call FoFMem   1 times, MxPair=        42
 NAB=    21 NAA=     0 NBB=     0.
 DE(Corr)= -0.41737592     E(CORR)=     -114.32245797     Delta=-8.63D-07
 NORM(A)=   0.10673755D+01
 Iteration Nr.  11
 **********************
 DD1Dir will call FoFMem   1 times, MxPair=        42
 NAB=    21 NAA=     0 NBB=     0.
 DE(Corr)= -0.41737610     E(CORR)=     -114.32245816     Delta=-1.81D-07
 NORM(A)=   0.10673761D+01
 Iteration Nr.  12
 **********************
 DD1Dir will call FoFMem   1 times, MxPair=        42
 NAB=    21 NAA=     0 NBB=     0.
 DE(Corr)= -0.41737631     E(CORR)=     -114.32245837     Delta=-2.10D-07
 NORM(A)=   0.10673764D+01
 Iteration Nr.  13
 **********************
 DD1Dir will call FoFMem   1 times, MxPair=        42
 NAB=    21 NAA=     0 NBB=     0.
 DE(Corr)= -0.41737641     E(CORR)=     -114.32245846     Delta=-9.58D-08
 NORM(A)=   0.10673766D+01
 Iteration Nr.  14
 **********************
 DD1Dir will call FoFMem   1 times, MxPair=        42
 NAB=    21 NAA=     0 NBB=     0.
 DE(Corr)= -0.41737645     E(CORR)=     -114.32245851     Delta=-4.62D-08
 NORM(A)=   0.10673766D+01
 Iteration Nr.  15
 **********************
 DD1Dir will call FoFMem   1 times, MxPair=        42
 NAB=    21 NAA=     0 NBB=     0.
 DE(Corr)= -0.41737646     E(CORR)=     -114.32245852     Delta=-7.46D-09
 NORM(A)=   0.10673767D+01
 Iteration Nr.  16
 **********************
 DD1Dir will call FoFMem   1 times, MxPair=        42
 NAB=    21 NAA=     0 NBB=     0.
 DE(Corr)= -0.41737647     E(CORR)=     -114.32245852     Delta=-5.63D-09
 NORM(A)=   0.10673767D+01
 Largest amplitude= 6.55D-02

 Z-AMPLITUDE ITERATIONS

 Iteration Nr.   1
 **********************
 DD1Dir will call FoFMem   1 times, MxPair=        42
 NAB=    21 NAA=     0 NBB=     0.
 DE(Z)  -0.40439135D+00          E(Z)=    -0.11430947341D+03
 NORM(A)=   0.10673765D+01
 Iteration Nr.   2
 **********************
 DD1Dir will call FoFMem   1 times, MxPair=        42
 NAB=    21 NAA=     0 NBB=     0.
 DE(Z)  -0.40439135D+00          E(Z)=    -0.11430947340D+03
 NORM(A)=   0.10673765D+01
 Iteration Nr.   3
 **********************
 DD1Dir will call FoFMem   1 times, MxPair=        42
 NAB=    21 NAA=     0 NBB=     0.
 DE(Z)  -0.40439135D+00          E(Z)=    -0.11430947341D+03
 NORM(A)=   0.10673760D+01
 Iteration Nr.   4
 **********************
 DD1Dir will call FoFMem   1 times, MxPair=        42
 NAB=    21 NAA=     0 NBB=     0.
 DE(Z)  -0.40439134D+00          E(Z)=    -0.11430947339D+03
 NORM(A)=   0.10673770D+01
 Iteration Nr.   5
 **********************
 DD1Dir will call FoFMem   1 times, MxPair=        42
 NAB=    21 NAA=     0 NBB=     0.
 DE(Z)  -0.40439136D+00          E(Z)=    -0.11430947342D+03
 NORM(A)=   0.10627762D+01
 Iteration Nr.   6
 **********************
 DD1Dir will call FoFMem   1 times, MxPair=        42
 NAB=    21 NAA=     0 NBB=     0.
 DE(Z)  -0.40426510D+00          E(Z)=    -0.11430934716D+03
 NORM(A)=   0.10627808D+01
 Iteration Nr.   7
 **********************
 DD1Dir will call FoFMem   1 times, MxPair=        42
 NAB=    21 NAA=     0 NBB=     0.
 DE(Z)  -0.40426844D+00          E(Z)=    -0.11430935050D+03
 NORM(A)=   0.10627432D+01
 Iteration Nr.   8
 **********************
 DD1Dir will call FoFMem   1 times, MxPair=        42
 NAB=    21 NAA=     0 NBB=     0.
 DE(Z)  -0.40426134D+00          E(Z)=    -0.11430934339D+03
 NORM(A)=   0.10627413D+01
 Iteration Nr.   9
 **********************
 DD1Dir will call FoFMem   1 times, MxPair=        42
 NAB=    21 NAA=     0 NBB=     0.
 DE(Z)  -0.40426236D+00          E(Z)=    -0.11430934442D+03
 NORM(A)=   0.10627416D+01
 Iteration Nr.  10
 **********************
 DD1Dir will call FoFMem   1 times, MxPair=        42
 NAB=    21 NAA=     0 NBB=     0.
 DE(Z)  -0.40426180D+00          E(Z)=    -0.11430934386D+03
 NORM(A)=   0.10627416D+01
 Iteration Nr.  11
 **********************
 DD1Dir will call FoFMem   1 times, MxPair=        42
 NAB=    21 NAA=     0 NBB=     0.
 DE(Z)  -0.40426187D+00          E(Z)=    -0.11430934393D+03
 NORM(A)=   0.10627416D+01
 Iteration Nr.  12
 **********************
 DD1Dir will call FoFMem   1 times, MxPair=        42
 NAB=    21 NAA=     0 NBB=     0.
 DE(Z)  -0.40426192D+00          E(Z)=    -0.11430934397D+03
 NORM(A)=   0.10627416D+01
 Iteration Nr.  13
 **********************
 DD1Dir will call FoFMem   1 times, MxPair=        42
 NAB=    21 NAA=     0 NBB=     0.
 DE(Z)  -0.40426190D+00          E(Z)=    -0.11430934395D+03
 NORM(A)=   0.10627416D+01
 Iteration Nr.  14
 **********************
 DD1Dir will call FoFMem   1 times, MxPair=        42
 NAB=    21 NAA=     0 NBB=     0.
 DE(Z)  -0.40426190D+00          E(Z)=    -0.11430934396D+03
 NORM(A)=   0.10627416D+01
 Discarding MO integrals.
          IDoAtm=1111
          Differentiating once with respect to electric field.
                with respect to dipole field.
          Differentiating once with respect to nuclear coordinates.
          Keep R1 ints in memory in canonical form, NReq=84894631.
          There are     1 degrees of freedom in the 1st order CPHF.  IDoFFX=0.
 LinEq1:  Iter=  0 NonCon=     1 RMS=3.77D-03 Max=5.96D-02
 AX will form     1 AO Fock derivatives at one time.
 LinEq1:  Iter=  1 NonCon=     1 RMS=9.41D-04 Max=8.34D-03
 LinEq1:  Iter=  2 NonCon=     1 RMS=2.59D-04 Max=3.99D-03
 LinEq1:  Iter=  3 NonCon=     1 RMS=1.24D-04 Max=1.26D-03
 LinEq1:  Iter=  4 NonCon=     1 RMS=6.17D-05 Max=9.59D-04
 LinEq1:  Iter=  5 NonCon=     1 RMS=1.20D-05 Max=1.15D-04
 LinEq1:  Iter=  6 NonCon=     1 RMS=1.88D-06 Max=2.08D-05
 LinEq1:  Iter=  7 NonCon=     1 RMS=2.98D-07 Max=2.18D-06
 LinEq1:  Iter=  8 NonCon=     1 RMS=3.44D-08 Max=2.69D-07
 LinEq1:  Iter=  9 NonCon=     1 RMS=4.14D-09 Max=3.27D-08
 LinEq1:  Iter= 10 NonCon=     1 RMS=3.95D-10 Max=3.01D-09
 LinEq1:  Iter= 11 NonCon=     0 RMS=3.29D-11 Max=2.50D-10
 Linear equations converged to 1.000D-10 1.000D-09 after    11 iterations.
 End of Minotr Frequency-dependent properties file   721 does not exist.
 End of Minotr Frequency-dependent properties file   722 does not exist.

 **********************************************************************

            Population analysis using the QCI/CC density.

 **********************************************************************

 Alpha  occ. eigenvalues --  -20.57985 -11.34517  -1.37333  -0.88822  -0.69906
 Alpha  occ. eigenvalues --   -0.63647  -0.51453  -0.45264
 Alpha virt. eigenvalues --    0.02548   0.04067   0.05894   0.07665   0.12022
 Alpha virt. eigenvalues --    0.13222   0.13472   0.17497   0.19497   0.21392
 Alpha virt. eigenvalues --    0.21731   0.25172   0.25455   0.28362   0.31919
 Alpha virt. eigenvalues --    0.33704   0.34342   0.35839   0.38952   0.39321
 Alpha virt. eigenvalues --    0.39399   0.41272   0.47394   0.49782   0.55973
 Alpha virt. eigenvalues --    0.56799   0.67082   0.68178   0.70288   0.76562
 Alpha virt. eigenvalues --    0.81486   0.83795   0.84626   0.85462   0.87169
 Alpha virt. eigenvalues --    0.88207   0.92889   0.93186   0.94596   0.98198
 Alpha virt. eigenvalues --    0.99887   1.02380   1.02492   1.02610   1.07230
 Alpha virt. eigenvalues --    1.08085   1.09813   1.09965   1.23494   1.26665
 Alpha virt. eigenvalues --    1.32019   1.36274   1.39883   1.45235   1.48398
 Alpha virt. eigenvalues --    1.51791   1.57408   1.59479   1.62334   1.70778
 Alpha virt. eigenvalues --    1.73143   1.81521   1.97516   2.01778   2.04324
 Alpha virt. eigenvalues --    2.14626   2.15758   2.27620   2.30077   2.31929
 Alpha virt. eigenvalues --    2.34592   2.47376   2.48833   2.54516   2.57276
 Alpha virt. eigenvalues --    2.70632   2.76103   2.81072   2.90285   2.90359
 Alpha virt. eigenvalues --    3.07188   3.10455   3.14049   3.17687   3.41495
 Alpha virt. eigenvalues --    3.41833   3.53294   3.56293   3.58985   3.66188
 Alpha virt. eigenvalues --    3.72187   3.91274   4.01173   4.02533   4.09230
 Alpha virt. eigenvalues --    4.10156   4.19289   4.20270   4.23392   4.36321
 Alpha virt. eigenvalues --    4.55236   4.67488   4.71428   4.75415   4.96789
 Alpha virt. eigenvalues --    5.00462   5.11083   5.17820   5.30962   5.31083
 Alpha virt. eigenvalues --    5.41834   5.49548   6.00998   6.15044   6.23154
 Alpha virt. eigenvalues --    6.47692   6.59739   6.61066   6.89225   6.91254
 Alpha virt. eigenvalues --    7.03202   7.18090   7.20121   7.37374   7.51607
 Alpha virt. eigenvalues --    7.63045   7.69230   7.75790  14.00112  16.79456
          Condensed to atoms (all electrons):
              1          2          3          4
     1  O    8.208338   0.317811  -0.048591  -0.048591
     2  C    0.317811   5.845041   0.191158   0.191158
     3  H   -0.048591   0.191158   0.417014  -0.046649
     4  H   -0.048591   0.191158  -0.046649   0.417014
 Mulliken atomic charges:
              1
     1  O   -0.428967
     2  C   -0.545168
     3  H    0.487068
     4  H    0.487068
 Sum of Mulliken atomic charges =   0.00000
 Mulliken charges with hydrogens summed into heavy atoms:
              1
     1  O   -0.428967
     2  C    0.428967
 Sum of Mulliken charges with hydrogens summed into heavy atoms =   0.00000
 Electronic spatial extent (au):  <R**2>=             61.7298
 Charge=              0.0000 electrons
 Dipole moment (field-independent basis, Debye):
    X=              0.0000    Y=              0.0000    Z=             -2.6695  Tot=              2.6695
 Quadrupole moment (field-independent basis, Debye-Ang):
   XX=            -11.8258   YY=            -11.5197   ZZ=            -12.1362
   XY=              0.0000   XZ=              0.0000   YZ=              0.0000
 Traceless Quadrupole moment (field-independent basis, Debye-Ang):
   XX=              0.0014   YY=              0.3075   ZZ=             -0.3089
   XY=              0.0000   XZ=              0.0000   YZ=              0.0000
 Octapole moment (field-independent basis, Debye-Ang**2):
  XXX=              0.0000  YYY=              0.0000  ZZZ=              0.0064  XYY=              0.0000
  XXY=              0.0000  XXZ=              0.5017  XZZ=              0.0000  YZZ=              0.0000
  YYZ=             -1.0239  XYZ=              0.0000
 Hexadecapole moment (field-independent basis, Debye-Ang**3):
 XXXX=            -10.7906 YYYY=            -17.4329 ZZZZ=            -47.3361 XXXY=              0.0000
 XXXZ=              0.0000 YYYX=              0.0000 YYYZ=              0.0000 ZZZX=              0.0000
 ZZZY=              0.0000 XXYY=             -5.0828 XXZZ=             -9.6026 YYZZ=            -10.4117
 XXYZ=              0.0000 YYXZ=              0.0000 ZZXY=              0.0000
 N-N= 3.059929439606D+01 E-N=-3.299292483678D+02  KE= 1.141442038614D+02
 Calling FoFJK, ICntrl=      2127 FMM=F ISym2X=0 I1Cent= 0 IOpClX= 0 NMat=1 NMatS=1 NMatT=0.
 -------------------------------------------------------------------
 Center     Atomic                   Forces (Hartrees/Bohr)
 Number     Number              X              Y              Z
 -------------------------------------------------------------------
      1        8           0.000000000    0.000000000   -0.065114308
      2        6           0.000000000    0.000000000    0.086157405
      3        1           0.000000000    0.013758490   -0.010521549
      4        1           0.000000000   -0.013758490   -0.010521549
 -------------------------------------------------------------------
 Cartesian Forces:  Max     0.086157405 RMS     0.031967392

 GradGradGradGradGradGradGradGradGradGradGradGradGradGradGradGradGradGrad
 Berny optimization.
 Internal  Forces:  Max     0.065114308 RMS     0.026304504
 Search for a local minimum.
 Step number   1 out of a maximum of   20
 All quantities printed in internal units (Hartrees-Bohrs-Radians)
 Mixed Optimization -- RFO/linear search
 Second derivative matrix not updated -- first step.
 The second derivative matrix:
                          R1        R2        R3        A1        A2
           R1           0.80209
           R2           0.00000   0.37230
           R3           0.00000   0.00000   0.37230
           A1           0.00000   0.00000   0.00000   0.16000
           A2           0.00000   0.00000   0.00000   0.00000   0.16000
           A3           0.00000   0.00000   0.00000   0.00000   0.00000
           D1           0.00000   0.00000   0.00000   0.00000   0.00000
                          A3        D1
           A3           0.16000
           D1           0.00000   0.00499
 ITU=  0
     Eigenvalues ---    0.00499   0.16000   0.16000   0.37230   0.37230
     Eigenvalues ---    0.80209
 RFO step:  Lambda=-6.87859336D-03 EMin= 4.99391742D-03
 Linear search not attempted -- first point.
 Iteration  1 RMS(Cart)=  0.02687573 RMS(Int)=  0.00018812
 Iteration  2 RMS(Cart)=  0.00018912 RMS(Int)=  0.00000002
 Iteration  3 RMS(Cart)=  0.00000002 RMS(Int)=  0.00000000
 Variable       Old X    -DE/DX   Delta X   Delta X   Delta X     New X
                                 (Linear)    (Quad)   (Total)
    R1        2.37803  -0.06511   0.00000  -0.08049  -0.08049   2.29754
    R2        2.02201   0.01718   0.00000   0.04530   0.04530   2.06730
    R3        2.02201   0.01718   0.00000   0.04530   0.04530   2.06730
    A1        2.09440   0.00150   0.00000   0.00902   0.00902   2.10341
    A2        2.09440   0.00150   0.00000   0.00902   0.00902   2.10341
    A3        2.09440  -0.00301   0.00000  -0.01804  -0.01804   2.07636
    D1        3.14159   0.00000   0.00000   0.00000   0.00000   3.14159
         Item               Value     Threshold  Converged?
 Maximum Force            0.065114     0.000450     NO 
 RMS     Force            0.026305     0.000300     NO 
 Maximum Displacement     0.040993     0.001800     NO 
 RMS     Displacement     0.026785     0.001200     NO 
 Predicted change in Energy=-3.477366D-03
 GradGradGradGradGradGradGradGradGradGradGradGradGradGradGradGradGradGrad

                          Input orientation:                          
 ---------------------------------------------------------------------
 Center     Atomic      Atomic             Coordinates (Angstroms)
 Number     Number       Type             X           Y           Z
 ---------------------------------------------------------------------
      1          8           0        0.000000    0.000000    0.674383
      2          6           0        0.000000    0.000000   -0.541423
      3          1           0        0.000000    0.942435   -1.096930
      4          1           0        0.000000   -0.942435   -1.096930
 ---------------------------------------------------------------------
                    Distance matrix (angstroms):
                    1          2          3          4
     1  O    0.000000
     2  C    1.215806   0.000000
     3  H    2.006423   1.093971   0.000000
     4  H    2.006423   1.093971   1.884871   0.000000
 Symmetry turned off by external request.
 Stoichiometry    CH2O
 Framework group  C2V[C2(CO),SGV(H2)]
 Deg. of freedom     3
 Full point group                 C2V     NOp   4
 Rotational constants (GHZ):    282.2922273     38.6570293     34.0009477
 Standard basis: Aug-CC-pVTZ (5D, 7F)
 Integral buffers will be    131072 words long.
 Raffenetti 1 integral format.
 Two-electron integral symmetry is turned off.
   138 basis functions,   198 primitive gaussians,   160 cartesian basis functions
     8 alpha electrons        8 beta electrons
       nuclear repulsion energy        31.1971806924 Hartrees.
 NAtoms=    4 NActive=    4 NUniq=    4 SFac= 1.00D+00 NAtFMM=   50 NAOKFM=F Big=F
 One-electron integrals computed using PRISM.
 NBasis=   138 RedAO= T  NBF=   138
 NBsUse=   138 1.00D-06 NBFU=   138
 Initial guess read from the read-write file.
 B after Tr=     0.000000    0.000000    0.000000
         Rot=    1.000000    0.000000    0.000000    0.000000 Ang=   0.00 deg.
 Harris functional with IExCor=  205 diagonalized for initial guess.
 ExpMin= 2.53D-02 ExpMax= 1.53D+04 ExpMxC= 5.22D+02 IAcc=3 IRadAn=         0 AccDes= 0.00D+00
 HarFok:  IExCor=  205 AccDes= 0.00D+00 IRadAn=         0 IDoV= 1
 ScaDFX=  1.000000  1.000000  1.000000  1.000000
 FoFCou: FMM=F IPFlag=           0 FMFlag=      100000 FMFlg1=           0
         NFxFlg=           0 DoJE=T BraDBF=F KetDBF=T FulRan=T
         Omega=  0.000000  0.000000  1.000000  0.000000  0.000000 ICntrl=     500 IOpCl=  0
         NMat0=    1 NMatS0=    1 NMatT0=    0 NMatD0=    1 NMtDS0=    0 NMtDT0=    0
         I1Cent=           4 NGrid=           0.
 Symmetry not used in FoFCou.
 Requested convergence on RMS density matrix=1.00D-08 within 128 cycles.
 Requested convergence on MAX density matrix=1.00D-06.
 Requested convergence on             energy=1.00D-06.
 No special actions if energy rises.
 Keep R1 ints in memory in canonical form, NReq=85137408.
 SCF Done:  E(RHF) =  -113.912847247     A.U. after   10 cycles
             Convg  =    0.7554D-08             -V/T =  2.0020
 ExpMin= 2.53D-02 ExpMax= 1.53D+04 ExpMxC= 5.22D+02 IAcc=3 IRadAn=         5 AccDes= 0.00D+00
 HarFok:  IExCor=  205 AccDes= 0.00D+00 IRadAn=         5 IDoV=-2
 ScaDFX=  1.000000  1.000000  1.000000  1.000000
 Range of M.O.s used for correlation:     3   138
 NBasis=   138 NAE=     8 NBE=     8 NFC=     2 NFV=     0
 NROrb=    136 NOA=     6 NOB=     6 NVA=   130 NVB=   130

 **** Warning!!: The largest alpha MO coefficient is  0.34343136D+02

 Semi-Direct transformation.
 ModeAB=           2 MOrb=             6 LenV=    1073118429
 LASXX=      7286295 LTotXX=     7286295 LenRXX=     7286295
 LTotAB=     7445736 MaxLAS=    10510080 LenRXY=    10510080
 NonZer=    14572590 LenScr=    22628352 LnRSAI=           0
 LnScr1=           0 LExtra=           0 Total=     40424727
 MaxDsk=          -1 SrtSym=           F ITran=            4
 JobTyp=0 Pass  1:  I=   1 to   6.
 (rs|ai) integrals will be sorted in core.
 Spin components of T(2) and E(2):
     alpha-alpha T2 =       0.1386350819D-01 E2=     -0.4815912849D-01
     alpha-beta  T2 =       0.8559003261D-01 E2=     -0.3070544064D+00
     beta-beta   T2 =       0.1386350819D-01 E2=     -0.4815912849D-01
 ANorm=    0.1055138403D+01
 E2 =    -0.4033726634D+00 EUMP2 =    -0.11431621991025D+03
 R2 and R3 integrals will be kept in memory, NReq=   167993840.
 Iterations=  50 Convergence= 0.100D-07
 Iteration Nr.   1
 **********************
 DD1Dir will call FoFMem   1 times, MxPair=        42
 NAB=    21 NAA=     0 NBB=     0.
 MP4(R+Q)=  0.89530693D-02
 E3=       -0.37092116D-02        EUMP3=      -0.11431992912D+03
 E4(DQ)=   -0.13949198D-02        UMP4(DQ)=   -0.11432132404D+03
 E4(SDQ)=  -0.67479260D-02        UMP4(SDQ)=  -0.11432667705D+03
 DE(Corr)= -0.39812881     E(Corr)=     -114.31097605    
 NORM(A)=   0.10557040D+01
 Iteration Nr.   2
 **********************
 DD1Dir will call FoFMem   1 times, MxPair=        42
 NAB=    21 NAA=     0 NBB=     0.
 DE(Corr)= -0.41227381     E(CORR)=     -114.32512106     Delta=-1.41D-02
 NORM(A)=   0.10618558D+01
 Iteration Nr.   3
 **********************
 DD1Dir will call FoFMem   1 times, MxPair=        42
 NAB=    21 NAA=     0 NBB=     0.
 DE(Corr)= -0.41216696     E(CORR)=     -114.32501421     Delta= 1.07D-04
 NORM(A)=   0.10638064D+01
 Iteration Nr.   4
 **********************
 DD1Dir will call FoFMem   1 times, MxPair=        42
 NAB=    21 NAA=     0 NBB=     0.
 DE(Corr)= -0.41360274     E(CORR)=     -114.32644999     Delta=-1.44D-03
 NORM(A)=   0.10645199D+01
 Iteration Nr.   5
 **********************
 DD1Dir will call FoFMem   1 times, MxPair=        42
 NAB=    21 NAA=     0 NBB=     0.
 DE(Corr)= -0.41379754     E(CORR)=     -114.32664479     Delta=-1.95D-04
 NORM(A)=   0.10647495D+01
 Iteration Nr.   6
 **********************
 DD1Dir will call FoFMem   1 times, MxPair=        42
 NAB=    21 NAA=     0 NBB=     0.
 DE(Corr)= -0.41382475     E(CORR)=     -114.32667200     Delta=-2.72D-05
 NORM(A)=   0.10647765D+01
 Iteration Nr.   7
 **********************
 DD1Dir will call FoFMem   1 times, MxPair=        42
 NAB=    21 NAA=     0 NBB=     0.
 DE(Corr)= -0.41382600     E(CORR)=     -114.32667324     Delta=-1.25D-06
 NORM(A)=   0.10647778D+01
 Iteration Nr.   8
 **********************
 DD1Dir will call FoFMem   1 times, MxPair=        42
 NAB=    21 NAA=     0 NBB=     0.
 DE(Corr)= -0.41382507     E(CORR)=     -114.32667232     Delta= 9.25D-07
 NORM(A)=   0.10647807D+01
 Iteration Nr.   9
 **********************
 DD1Dir will call FoFMem   1 times, MxPair=        42
 NAB=    21 NAA=     0 NBB=     0.
 DE(Corr)= -0.41382387     E(CORR)=     -114.32667112     Delta= 1.20D-06
 NORM(A)=   0.10647811D+01
 Iteration Nr.  10
 **********************
 DD1Dir will call FoFMem   1 times, MxPair=        42
 NAB=    21 NAA=     0 NBB=     0.
 DE(Corr)= -0.41382453     E(CORR)=     -114.32667178     Delta=-6.61D-07
 NORM(A)=   0.10647817D+01
 Iteration Nr.  11
 **********************
 DD1Dir will call FoFMem   1 times, MxPair=        42
 NAB=    21 NAA=     0 NBB=     0.
 DE(Corr)= -0.41382467     E(CORR)=     -114.32667192     Delta=-1.37D-07
 NORM(A)=   0.10647821D+01
 Iteration Nr.  12
 **********************
 DD1Dir will call FoFMem   1 times, MxPair=        42
 NAB=    21 NAA=     0 NBB=     0.
 DE(Corr)= -0.41382483     E(CORR)=     -114.32667208     Delta=-1.64D-07
 NORM(A)=   0.10647823D+01
 Iteration Nr.  13
 **********************
 DD1Dir will call FoFMem   1 times, MxPair=        42
 NAB=    21 NAA=     0 NBB=     0.
 DE(Corr)= -0.41382490     E(CORR)=     -114.32667214     Delta=-6.56D-08
 NORM(A)=   0.10647824D+01
 Iteration Nr.  14
 **********************
 DD1Dir will call FoFMem   1 times, MxPair=        42
 NAB=    21 NAA=     0 NBB=     0.
 DE(Corr)= -0.41382493     E(CORR)=     -114.32667218     Delta=-3.36D-08
 NORM(A)=   0.10647824D+01
 Iteration Nr.  15
 **********************
 DD1Dir will call FoFMem   1 times, MxPair=        42
 NAB=    21 NAA=     0 NBB=     0.
 DE(Corr)= -0.41382494     E(CORR)=     -114.32667218     Delta=-5.30D-09
 NORM(A)=   0.10647825D+01
 Iteration Nr.  16
 **********************
 DD1Dir will call FoFMem   1 times, MxPair=        42
 NAB=    21 NAA=     0 NBB=     0.
 DE(Corr)= -0.41382494     E(CORR)=     -114.32667219     Delta=-3.35D-09
 NORM(A)=   0.10647825D+01
 Largest amplitude= 6.54D-02

 Z-AMPLITUDE ITERATIONS

 Iteration Nr.   1
 **********************
 DD1Dir will call FoFMem   1 times, MxPair=        42
 NAB=    21 NAA=     0 NBB=     0.
 DE(Z)  -0.40164096D+00          E(Z)=    -0.11431448821D+03
 NORM(A)=   0.10647822D+01
 Iteration Nr.   2
 **********************
 DD1Dir will call FoFMem   1 times, MxPair=        42
 NAB=    21 NAA=     0 NBB=     0.
 DE(Z)  -0.40164094D+00          E(Z)=    -0.11431448819D+03
 NORM(A)=   0.10647827D+01
 Iteration Nr.   3
 **********************
 DD1Dir will call FoFMem   1 times, MxPair=        42
 NAB=    21 NAA=     0 NBB=     0.
 DE(Z)  -0.40164097D+00          E(Z)=    -0.11431448821D+03
 NORM(A)=   0.10647823D+01
 Iteration Nr.   4
 **********************
 DD1Dir will call FoFMem   1 times, MxPair=        42
 NAB=    21 NAA=     0 NBB=     0.
 DE(Z)  -0.40164095D+00          E(Z)=    -0.11431448820D+03
 NORM(A)=   0.10647823D+01
 Iteration Nr.   5
 **********************
 DD1Dir will call FoFMem   1 times, MxPair=        42
 NAB=    21 NAA=     0 NBB=     0.
 DE(Z)  -0.40164095D+00          E(Z)=    -0.11431448820D+03
 NORM(A)=   0.10606410D+01
 Iteration Nr.   6
 **********************
 DD1Dir will call FoFMem   1 times, MxPair=        42
 NAB=    21 NAA=     0 NBB=     0.
 DE(Z)  -0.40144113D+00          E(Z)=    -0.11431428838D+03
 NORM(A)=   0.10607007D+01
 Iteration Nr.   7
 **********************
 DD1Dir will call FoFMem   1 times, MxPair=        42
 NAB=    21 NAA=     0 NBB=     0.
 DE(Z)  -0.40143836D+00          E(Z)=    -0.11431428561D+03
 NORM(A)=   0.10606162D+01
 Iteration Nr.   8
 **********************
 DD1Dir will call FoFMem   1 times, MxPair=        42
 NAB=    21 NAA=     0 NBB=     0.
 DE(Z)  -0.40144126D+00          E(Z)=    -0.11431428850D+03
 NORM(A)=   0.10606163D+01
 Iteration Nr.   9
 **********************
 DD1Dir will call FoFMem   1 times, MxPair=        42
 NAB=    21 NAA=     0 NBB=     0.
 DE(Z)  -0.40144104D+00          E(Z)=    -0.11431428829D+03
 NORM(A)=   0.10606163D+01
 Iteration Nr.  10
 **********************
 DD1Dir will call FoFMem   1 times, MxPair=        42
 NAB=    21 NAA=     0 NBB=     0.
 DE(Z)  -0.40144111D+00          E(Z)=    -0.11431428836D+03
 NORM(A)=   0.10606164D+01
 Iteration Nr.  11
 **********************
 DD1Dir will call FoFMem   1 times, MxPair=        42
 NAB=    21 NAA=     0 NBB=     0.
 DE(Z)  -0.40144108D+00          E(Z)=    -0.11431428833D+03
 NORM(A)=   0.10606164D+01
 Iteration Nr.  12
 **********************
 DD1Dir will call FoFMem   1 times, MxPair=        42
 NAB=    21 NAA=     0 NBB=     0.
 DE(Z)  -0.40144106D+00          E(Z)=    -0.11431428831D+03
 NORM(A)=   0.10606164D+01
 Iteration Nr.  13
 **********************
 DD1Dir will call FoFMem   1 times, MxPair=        42
 NAB=    21 NAA=     0 NBB=     0.
 DE(Z)  -0.40144108D+00          E(Z)=    -0.11431428833D+03
 NORM(A)=   0.10606164D+01
 Iteration Nr.  14
 **********************
 DD1Dir will call FoFMem   1 times, MxPair=        42
 NAB=    21 NAA=     0 NBB=     0.
 DE(Z)  -0.40144108D+00          E(Z)=    -0.11431428832D+03
 NORM(A)=   0.10606164D+01
 Discarding MO integrals.
          IDoAtm=1111
          Differentiating once with respect to electric field.
                with respect to dipole field.
          Differentiating once with respect to nuclear coordinates.
          Keep R1 ints in memory in canonical form, NReq=84894631.
          There are     1 degrees of freedom in the 1st order CPHF.  IDoFFX=0.
 LinEq1:  Iter=  0 NonCon=     1 RMS=3.58D-03 Max=5.63D-02
 AX will form     1 AO Fock derivatives at one time.
 LinEq1:  Iter=  1 NonCon=     1 RMS=9.02D-04 Max=8.44D-03
 LinEq1:  Iter=  2 NonCon=     1 RMS=2.38D-04 Max=3.53D-03
 LinEq1:  Iter=  3 NonCon=     1 RMS=1.17D-04 Max=1.23D-03
 LinEq1:  Iter=  4 NonCon=     1 RMS=4.69D-05 Max=5.94D-04
 LinEq1:  Iter=  5 NonCon=     1 RMS=9.68D-06 Max=9.21D-05
 LinEq1:  Iter=  6 NonCon=     1 RMS=1.56D-06 Max=1.77D-05
 LinEq1:  Iter=  7 NonCon=     1 RMS=2.38D-07 Max=1.71D-06
 LinEq1:  Iter=  8 NonCon=     1 RMS=2.73D-08 Max=2.17D-07
 LinEq1:  Iter=  9 NonCon=     1 RMS=3.29D-09 Max=2.58D-08
 LinEq1:  Iter= 10 NonCon=     1 RMS=3.11D-10 Max=2.38D-09
 LinEq1:  Iter= 11 NonCon=     0 RMS=2.75D-11 Max=2.46D-10
 Linear equations converged to 1.000D-10 1.000D-09 after    11 iterations.
 End of Minotr Frequency-dependent properties file   721 does not exist.
 End of Minotr Frequency-dependent properties file   722 does not exist.
 Calling FoFJK, ICntrl=      2127 FMM=F ISym2X=0 I1Cent= 0 IOpClX= 0 NMat=1 NMatS=1 NMatT=0.
 -------------------------------------------------------------------
 Center     Atomic                   Forces (Hartrees/Bohr)
 Number     Number              X              Y              Z
 -------------------------------------------------------------------
      1        8           0.000000000    0.000000000   -0.011747309
      2        6           0.000000000    0.000000000    0.021030632
      3        1           0.000000000    0.001284137   -0.004641662
      4        1           0.000000000   -0.001284137   -0.004641662
 -------------------------------------------------------------------
 Cartesian Forces:  Max     0.021030632 RMS     0.007226541

 GradGradGradGradGradGradGradGradGradGradGradGradGradGradGradGradGradGrad
 Berny optimization.
 Using GEDIIS/GDIIS optimizer.
 Internal  Forces:  Max     0.011747309 RMS     0.005263051
 Search for a local minimum.
 Step number   2 out of a maximum of   20
 All quantities printed in internal units (Hartrees-Bohrs-Radians)
 Mixed Optimization -- RFO/linear search
 Update second derivatives using D2CorX and points    1    2
 DE= -4.21D-03 DEPred=-3.48D-03 R= 1.21D+00
 SS=  1.41D+00  RLast= 1.05D-01 DXNew= 5.0454D-01 3.1565D-01
 Trust test= 1.21D+00 RLast= 1.05D-01 DXMaxT set to 3.16D-01
 The second derivative matrix:
                          R1        R2        R3        A1        A2
           R1           0.70770
           R2           0.02687   0.36471
           R3           0.02687  -0.00759   0.36471
           A1           0.02148  -0.00558  -0.00558   0.15981
           A2           0.02148  -0.00558  -0.00558  -0.00019   0.15981
           A3          -0.04295   0.01115   0.01115   0.00038   0.00038
           D1           0.00000   0.00000   0.00000   0.00000   0.00000
                          A3        D1
           A3           0.15924
           D1           0.00000   0.00499
 ITU=  1  0
 Use linear search instead of GDIIS.
     Eigenvalues ---    0.00499   0.15131   0.16000   0.35607   0.37230
     Eigenvalues ---    0.71631
 RFO step:  Lambda=-2.13482846D-04 EMin= 4.99391742D-03
 Quartic linear search produced a step of  0.22640.
 Iteration  1 RMS(Cart)=  0.01214875 RMS(Int)=  0.00018327
 Iteration  2 RMS(Cart)=  0.00019204 RMS(Int)=  0.00000001
 Iteration  3 RMS(Cart)=  0.00000001 RMS(Int)=  0.00000000
 Variable       Old X    -DE/DX   Delta X   Delta X   Delta X     New X
                                 (Linear)    (Quad)   (Total)
    R1        2.29754  -0.01175  -0.01822  -0.00090  -0.01913   2.27841
    R2        2.06730   0.00346   0.01026   0.00088   0.01114   2.07844
    R3        2.06730   0.00346   0.01026   0.00088   0.01114   2.07844
    A1        2.10341   0.00231   0.00204   0.01510   0.01715   2.12056
    A2        2.10341   0.00231   0.00204   0.01510   0.01715   2.12056
    A3        2.07636  -0.00461  -0.00408  -0.03021  -0.03429   2.04207
    D1        3.14159   0.00000   0.00000   0.00000   0.00000   3.14159
         Item               Value     Threshold  Converged?
 Maximum Force            0.011747     0.000450     NO 
 RMS     Force            0.005263     0.000300     NO 
 Maximum Displacement     0.022880     0.001800     NO 
 RMS     Displacement     0.012224     0.001200     NO 
 Predicted change in Energy=-2.917046D-04
 GradGradGradGradGradGradGradGradGradGradGradGradGradGradGradGradGradGrad

                          Input orientation:                          
 ---------------------------------------------------------------------
 Center     Atomic      Atomic             Coordinates (Angstroms)
 Number     Number       Type             X           Y           Z
 ---------------------------------------------------------------------
      1          8           0        0.000000    0.000000    0.676369
      2          6           0        0.000000    0.000000   -0.529316
      3          1           0        0.000000    0.937798   -1.103977
      4          1           0        0.000000   -0.937798   -1.103977
 ---------------------------------------------------------------------
                    Distance matrix (angstroms):
                    1          2          3          4
     1  O    0.000000
     2  C    1.205685   0.000000
     3  H    2.012237   1.099864   0.000000
     4  H    2.012237   1.099864   1.875596   0.000000
 Symmetry turned off by external request.
 Stoichiometry    CH2O
 Framework group  C2[C2(CO),X(H2)]
 Deg. of freedom     3
 Full point group                 C2      NOp   2
 Rotational constants (GHZ):    285.0910345     38.9695263     34.2832912
 Standard basis: Aug-CC-pVTZ (5D, 7F)
 Integral buffers will be    131072 words long.
 Raffenetti 1 integral format.
 Two-electron integral symmetry is turned off.
   138 basis functions,   198 primitive gaussians,   160 cartesian basis functions
     8 alpha electrons        8 beta electrons
       nuclear repulsion energy        31.3306558819 Hartrees.
 NAtoms=    4 NActive=    4 NUniq=    4 SFac= 1.00D+00 NAtFMM=   50 NAOKFM=F Big=F
 One-electron integrals computed using PRISM.
 NBasis=   138 RedAO= T  NBF=   138
 NBsUse=   138 1.00D-06 NBFU=   138
 Initial guess read from the read-write file.
 B after Tr=     0.000000    0.000000    0.000000
         Rot=    1.000000    0.000000    0.000000    0.000000 Ang=   0.00 deg.
 Harris functional with IExCor=  205 diagonalized for initial guess.
 ExpMin= 2.53D-02 ExpMax= 1.53D+04 ExpMxC= 5.22D+02 IAcc=3 IRadAn=         0 AccDes= 0.00D+00
 HarFok:  IExCor=  205 AccDes= 0.00D+00 IRadAn=         0 IDoV= 1
 ScaDFX=  1.000000  1.000000  1.000000  1.000000
 FoFCou: FMM=F IPFlag=           0 FMFlag=      100000 FMFlg1=           0
         NFxFlg=           0 DoJE=T BraDBF=F KetDBF=T FulRan=T
         Omega=  0.000000  0.000000  1.000000  0.000000  0.000000 ICntrl=     500 IOpCl=  0
         NMat0=    1 NMatS0=    1 NMatT0=    0 NMatD0=    1 NMtDS0=    0 NMtDT0=    0
         I1Cent=           4 NGrid=           0.
 Symmetry not used in FoFCou.
 Requested convergence on RMS density matrix=1.00D-08 within 128 cycles.
 Requested convergence on MAX density matrix=1.00D-06.
 Requested convergence on             energy=1.00D-06.
 No special actions if energy rises.
 Keep R1 ints in memory in canonical form, NReq=85137408.
 SCF Done:  E(RHF) =  -113.913921713     A.U. after    9 cycles
             Convg  =    0.6231D-08             -V/T =  2.0018
 ExpMin= 2.53D-02 ExpMax= 1.53D+04 ExpMxC= 5.22D+02 IAcc=3 IRadAn=         5 AccDes= 0.00D+00
 HarFok:  IExCor=  205 AccDes= 0.00D+00 IRadAn=         5 IDoV=-2
 ScaDFX=  1.000000  1.000000  1.000000  1.000000
 DSYEVD returned Info=          93 IAlg= 4 N=    46 NDim=    46 NE2=    23340785 trying DSYEV.
 Range of M.O.s used for correlation:     3   138
 NBasis=   138 NAE=     8 NBE=     8 NFC=     2 NFV=     0
 NROrb=    136 NOA=     6 NOB=     6 NVA=   130 NVB=   130

 **** Warning!!: The largest alpha MO coefficient is  0.33814097D+02

 Semi-Direct transformation.
 ModeAB=           2 MOrb=             6 LenV=    1073118415
 LASXX=      7286295 LTotXX=     7286295 LenRXX=     7286295
 LTotAB=     7445736 MaxLAS=    10510080 LenRXY=    10510080
 NonZer=    14572590 LenScr=    22628352 LnRSAI=           0
 LnScr1=           0 LExtra=           0 Total=     40424727
 MaxDsk=          -1 SrtSym=           F ITran=            4
 JobTyp=0 Pass  1:  I=   1 to   6.
 (rs|ai) integrals will be sorted in core.
 Spin components of T(2) and E(2):
     alpha-alpha T2 =       0.1374569624D-01 E2=     -0.4802799046D-01
     alpha-beta  T2 =       0.8495691456D-01 E2=     -0.3063445763D+00
     beta-beta   T2 =       0.1374569624D-01 E2=     -0.4802799046D-01
 ANorm=    0.1054726650D+01
 E2 =    -0.4024005573D+00 EUMP2 =    -0.11431632227030D+03
 R2 and R3 integrals will be kept in memory, NReq=   167993840.
 Iterations=  50 Convergence= 0.100D-07
 Iteration Nr.   1
 **********************
 DD1Dir will call FoFMem   1 times, MxPair=        42
 NAB=    21 NAA=     0 NBB=     0.
 MP4(R+Q)=  0.88644589D-02
 E3=       -0.40609861D-02        EUMP3=      -0.11432038326D+03
 E4(DQ)=   -0.13364304D-02        UMP4(DQ)=   -0.11432171969D+03
 E4(SDQ)=  -0.65788480D-02        UMP4(SDQ)=  -0.11432696210D+03
 DE(Corr)= -0.39759708     E(Corr)=     -114.31151880    
 NORM(A)=   0.10554236D+01
 Iteration Nr.   2
 **********************
 DD1Dir will call FoFMem   1 times, MxPair=        42
 NAB=    21 NAA=     0 NBB=     0.
 DE(Corr)= -0.41150146     E(CORR)=     -114.32542318     Delta=-1.39D-02
 NORM(A)=   0.10614612D+01
 Iteration Nr.   3
 **********************
 DD1Dir will call FoFMem   1 times, MxPair=        42
 NAB=    21 NAA=     0 NBB=     0.
 DE(Corr)= -0.41143499     E(CORR)=     -114.32535670     Delta= 6.65D-05
 NORM(A)=   0.10633387D+01
 Iteration Nr.   4
 **********************
 DD1Dir will call FoFMem   1 times, MxPair=        42
 NAB=    21 NAA=     0 NBB=     0.
 DE(Corr)= -0.41283498     E(CORR)=     -114.32675669     Delta=-1.40D-03
 NORM(A)=   0.10640146D+01
 Iteration Nr.   5
 **********************
 DD1Dir will call FoFMem   1 times, MxPair=        42
 NAB=    21 NAA=     0 NBB=     0.
 DE(Corr)= -0.41302133     E(CORR)=     -114.32694304     Delta=-1.86D-04
 NORM(A)=   0.10642283D+01
 Iteration Nr.   6
 **********************
 DD1Dir will call FoFMem   1 times, MxPair=        42
 NAB=    21 NAA=     0 NBB=     0.
 DE(Corr)= -0.41304709     E(CORR)=     -114.32696880     Delta=-2.58D-05
 NORM(A)=   0.10642534D+01
 Iteration Nr.   7
 **********************
 DD1Dir will call FoFMem   1 times, MxPair=        42
 NAB=    21 NAA=     0 NBB=     0.
 DE(Corr)= -0.41304829     E(CORR)=     -114.32697000     Delta=-1.19D-06
 NORM(A)=   0.10642545D+01
 Iteration Nr.   8
 **********************
 DD1Dir will call FoFMem   1 times, MxPair=        42
 NAB=    21 NAA=     0 NBB=     0.
 DE(Corr)= -0.41304741     E(CORR)=     -114.32696913     Delta= 8.72D-07
 NORM(A)=   0.10642573D+01
 Iteration Nr.   9
 **********************
 DD1Dir will call FoFMem   1 times, MxPair=        42
 NAB=    21 NAA=     0 NBB=     0.
 DE(Corr)= -0.41304631     E(CORR)=     -114.32696802     Delta= 1.11D-06
 NORM(A)=   0.10642576D+01
 Iteration Nr.  10
 **********************
 DD1Dir will call FoFMem   1 times, MxPair=        42
 NAB=    21 NAA=     0 NBB=     0.
 DE(Corr)= -0.41304692     E(CORR)=     -114.32696864     Delta=-6.18D-07
 NORM(A)=   0.10642582D+01
 Iteration Nr.  11
 **********************
 DD1Dir will call FoFMem   1 times, MxPair=        42
 NAB=    21 NAA=     0 NBB=     0.
 DE(Corr)= -0.41304705     E(CORR)=     -114.32696877     Delta=-1.31D-07
 NORM(A)=   0.10642586D+01
 Iteration Nr.  12
 **********************
 DD1Dir will call FoFMem   1 times, MxPair=        42
 NAB=    21 NAA=     0 NBB=     0.
 DE(Corr)= -0.41304721     E(CORR)=     -114.32696892     Delta=-1.54D-07
 NORM(A)=   0.10642587D+01
 Iteration Nr.  13
 **********************
 DD1Dir will call FoFMem   1 times, MxPair=        42
 NAB=    21 NAA=     0 NBB=     0.
 DE(Corr)= -0.41304727     E(CORR)=     -114.32696898     Delta=-6.05D-08
 NORM(A)=   0.10642588D+01
 Iteration Nr.  14
 **********************
 DD1Dir will call FoFMem   1 times, MxPair=        42
 NAB=    21 NAA=     0 NBB=     0.
 DE(Corr)= -0.41304730     E(CORR)=     -114.32696901     Delta=-3.12D-08
 NORM(A)=   0.10642589D+01
 Iteration Nr.  15
 **********************
 DD1Dir will call FoFMem   1 times, MxPair=        42
 NAB=    21 NAA=     0 NBB=     0.
 DE(Corr)= -0.41304731     E(CORR)=     -114.32696902     Delta=-4.82D-09
 NORM(A)=   0.10642589D+01
 Iteration Nr.  16
 **********************
 DD1Dir will call FoFMem   1 times, MxPair=        42
 NAB=    21 NAA=     0 NBB=     0.
 DE(Corr)= -0.41304731     E(CORR)=     -114.32696902     Delta=-3.01D-09
 NORM(A)=   0.10642589D+01
 Largest amplitude= 6.45D-02

 Z-AMPLITUDE ITERATIONS

 Iteration Nr.   1
 **********************
 DD1Dir will call FoFMem   1 times, MxPair=        42
 NAB=    21 NAA=     0 NBB=     0.
 DE(Z)  -0.40103008D+00          E(Z)=    -0.11431495180D+03
 NORM(A)=   0.10642587D+01
 Iteration Nr.   2
 **********************
 DD1Dir will call FoFMem   1 times, MxPair=        42
 NAB=    21 NAA=     0 NBB=     0.
 DE(Z)  -0.40103007D+00          E(Z)=    -0.11431495178D+03
 NORM(A)=   0.10642588D+01
 Iteration Nr.   3
 **********************
 DD1Dir will call FoFMem   1 times, MxPair=        42
 NAB=    21 NAA=     0 NBB=     0.
 DE(Z)  -0.40103008D+00          E(Z)=    -0.11431495179D+03
 NORM(A)=   0.10642589D+01
 Iteration Nr.   4
 **********************
 DD1Dir will call FoFMem   1 times, MxPair=        42
 NAB=    21 NAA=     0 NBB=     0.
 DE(Z)  -0.40103008D+00          E(Z)=    -0.11431495180D+03
 NORM(A)=   0.10642588D+01
 Iteration Nr.   5
 **********************
 DD1Dir will call FoFMem   1 times, MxPair=        42
 NAB=    21 NAA=     0 NBB=     0.
 DE(Z)  -0.40103008D+00          E(Z)=    -0.11431495179D+03
 NORM(A)=   0.10602526D+01
 Iteration Nr.   6
 **********************
 DD1Dir will call FoFMem   1 times, MxPair=        42
 NAB=    21 NAA=     0 NBB=     0.
 DE(Z)  -0.40083060D+00          E(Z)=    -0.11431475231D+03
 NORM(A)=   0.10602187D+01
 Iteration Nr.   7
 **********************
 DD1Dir will call FoFMem   1 times, MxPair=        42
 NAB=    21 NAA=     0 NBB=     0.
 DE(Z)  -0.40081562D+00          E(Z)=    -0.11431473734D+03
 NORM(A)=   0.10601974D+01
 Iteration Nr.   8
 **********************
 DD1Dir will call FoFMem   1 times, MxPair=        42
 NAB=    21 NAA=     0 NBB=     0.
 DE(Z)  -0.40081670D+00          E(Z)=    -0.11431473841D+03
 NORM(A)=   0.10601874D+01
 Iteration Nr.   9
 **********************
 DD1Dir will call FoFMem   1 times, MxPair=        42
 NAB=    21 NAA=     0 NBB=     0.
 DE(Z)  -0.40081637D+00          E(Z)=    -0.11431473809D+03
 NORM(A)=   0.10601862D+01
 Iteration Nr.  10
 **********************
 DD1Dir will call FoFMem   1 times, MxPair=        42
 NAB=    21 NAA=     0 NBB=     0.
 DE(Z)  -0.40081560D+00          E(Z)=    -0.11431473731D+03
 NORM(A)=   0.10601858D+01
 Iteration Nr.  11
 **********************
 DD1Dir will call FoFMem   1 times, MxPair=        42
 NAB=    21 NAA=     0 NBB=     0.
 DE(Z)  -0.40081575D+00          E(Z)=    -0.11431473746D+03
 NORM(A)=   0.10601857D+01
 Iteration Nr.  12
 **********************
 DD1Dir will call FoFMem   1 times, MxPair=        42
 NAB=    21 NAA=     0 NBB=     0.
 DE(Z)  -0.40081578D+00          E(Z)=    -0.11431473749D+03
 NORM(A)=   0.10601858D+01
 Iteration Nr.  13
 **********************
 DD1Dir will call FoFMem   1 times, MxPair=        42
 NAB=    21 NAA=     0 NBB=     0.
 DE(Z)  -0.40081573D+00          E(Z)=    -0.11431473744D+03
 NORM(A)=   0.10601858D+01
 Iteration Nr.  14
 **********************
 DD1Dir will call FoFMem   1 times, MxPair=        42
 NAB=    21 NAA=     0 NBB=     0.
 DE(Z)  -0.40081576D+00          E(Z)=    -0.11431473747D+03
 NORM(A)=   0.10601858D+01
 Iteration Nr.  15
 **********************
 DD1Dir will call FoFMem   1 times, MxPair=        42
 NAB=    21 NAA=     0 NBB=     0.
 DE(Z)  -0.40081575D+00          E(Z)=    -0.11431473747D+03
 NORM(A)=   0.10601858D+01
 Discarding MO integrals.
          IDoAtm=1111
          Differentiating once with respect to electric field.
                with respect to dipole field.
          Differentiating once with respect to nuclear coordinates.
          Keep R1 ints in memory in canonical form, NReq=84894631.
          There are     1 degrees of freedom in the 1st order CPHF.  IDoFFX=0.
 LinEq1:  Iter=  0 NonCon=     1 RMS=3.54D-03 Max=5.56D-02
 AX will form     1 AO Fock derivatives at one time.
 LinEq1:  Iter=  1 NonCon=     1 RMS=8.94D-04 Max=8.50D-03
 LinEq1:  Iter=  2 NonCon=     1 RMS=2.34D-04 Max=3.41D-03
 LinEq1:  Iter=  3 NonCon=     1 RMS=1.15D-04 Max=1.20D-03
 LinEq1:  Iter=  4 NonCon=     1 RMS=4.41D-05 Max=5.26D-04
 LinEq1:  Iter=  5 NonCon=     1 RMS=9.16D-06 Max=8.66D-05
 LinEq1:  Iter=  6 NonCon=     1 RMS=1.50D-06 Max=1.73D-05
 LinEq1:  Iter=  7 NonCon=     1 RMS=2.27D-07 Max=1.64D-06
 LinEq1:  Iter=  8 NonCon=     1 RMS=2.59D-08 Max=2.05D-07
 LinEq1:  Iter=  9 NonCon=     1 RMS=3.12D-09 Max=2.49D-08
 LinEq1:  Iter= 10 NonCon=     1 RMS=2.93D-10 Max=2.30D-09
 LinEq1:  Iter= 11 NonCon=     0 RMS=2.64D-11 Max=2.39D-10
 Linear equations converged to 1.000D-10 1.000D-09 after    11 iterations.
 End of Minotr Frequency-dependent properties file   721 does not exist.
 End of Minotr Frequency-dependent properties file   722 does not exist.
 Calling FoFJK, ICntrl=      2127 FMM=F ISym2X=0 I1Cent= 0 IOpClX= 0 NMat=1 NMatS=1 NMatT=0.
 -------------------------------------------------------------------
 Center     Atomic                   Forces (Hartrees/Bohr)
 Number     Number              X              Y              Z
 -------------------------------------------------------------------
      1        8          -0.000000001    0.000000000    0.001556287
      2        6           0.000000002    0.000000000    0.000816370
      3        1          -0.000000001    0.000277792   -0.001186329
      4        1          -0.000000001   -0.000277792   -0.001186329
 -------------------------------------------------------------------
 Cartesian Forces:  Max     0.001556287 RMS     0.000710492

 GradGradGradGradGradGradGradGradGradGradGradGradGradGradGradGradGradGrad
 Berny optimization.
 Using GEDIIS/GDIIS optimizer.
 Internal  Forces:  Max     0.001556287 RMS     0.000929794
 Search for a local minimum.
 Step number   3 out of a maximum of   20
 All quantities printed in internal units (Hartrees-Bohrs-Radians)
 Mixed Optimization -- En-DIIS/RFO-DIIS
 Update second derivatives using D2CorX and points    1    2    3
 DE= -2.97D-04 DEPred=-2.92D-04 R= 1.02D+00
 SS=  1.41D+00  RLast= 4.88D-02 DXNew= 5.3085D-01 1.4628D-01
 Trust test= 1.02D+00 RLast= 4.88D-02 DXMaxT set to 3.16D-01
 The second derivative matrix:
                          R1        R2        R3        A1        A2
           R1           0.85344
           R2           0.01754   0.36130
           R3           0.01754  -0.01100   0.36130
           A1           0.02556  -0.00932  -0.00932   0.15669
           A2           0.02556  -0.00932  -0.00932  -0.00331   0.15669
           A3          -0.05112   0.01865   0.01865   0.00663   0.00663
           D1           0.00000   0.00000   0.00000   0.00000   0.00000
                          A3        D1
           A3           0.14675
           D1           0.00000   0.00499
 ITU=  1  1  0
 Use linear search instead of GDIIS.
     Eigenvalues ---    0.00499   0.12932   0.16000   0.35471   0.37230
     Eigenvalues ---    0.85984
 RFO step:  Lambda=-1.74579725D-05 EMin= 4.99391742D-03
 Quartic linear search produced a step of  0.10217.
 Iteration  1 RMS(Cart)=  0.00396403 RMS(Int)=  0.00001269
 Iteration  2 RMS(Cart)=  0.00001334 RMS(Int)=  0.00000000
 Iteration  3 RMS(Cart)=  0.00000000 RMS(Int)=  0.00000000
 Variable       Old X    -DE/DX   Delta X   Delta X   Delta X     New X
                                 (Linear)    (Quad)   (Total)
    R1        2.27841   0.00156  -0.00195   0.00286   0.00090   2.27932
    R2        2.07844   0.00086   0.00114   0.00196   0.00310   2.08154
    R3        2.07844   0.00086   0.00114   0.00196   0.00310   2.08154
    A1        2.12056   0.00060   0.00175   0.00272   0.00447   2.12503
    A2        2.12056   0.00060   0.00175   0.00272   0.00447   2.12503
    A3        2.04207  -0.00120  -0.00350  -0.00543  -0.00894   2.03313
    D1        3.14159   0.00000   0.00000   0.00000   0.00000   3.14159
         Item               Value     Threshold  Converged?
 Maximum Force            0.001556     0.000450     NO 
 RMS     Force            0.000930     0.000300     NO 
 Maximum Displacement     0.005448     0.001800     NO 
 RMS     Displacement     0.003968     0.001200     NO 
 Predicted change in Energy=-1.153471D-05
 GradGradGradGradGradGradGradGradGradGradGradGradGradGradGradGradGradGrad

                          Input orientation:                          
 ---------------------------------------------------------------------
 Center     Atomic      Atomic             Coordinates (Angstroms)
 Number     Number       Type             X           Y           Z
 ---------------------------------------------------------------------
      1          8           0        0.000000    0.000000    0.679252
      2          6           0        0.000000    0.000000   -0.526911
      3          1           0        0.000000    0.936614   -1.106620
      4          1           0        0.000000   -0.936614   -1.106620
 ---------------------------------------------------------------------
                    Distance matrix (angstroms):
                    1          2          3          4
     1  O    0.000000
     2  C    1.206163   0.000000
     3  H    2.016578   1.101503   0.000000
     4  H    2.016578   1.101503   1.873229   0.000000
 Symmetry turned off by external request.
 Stoichiometry    CH2O
 Framework group  CS[SG(CO),X(H2)]
 Deg. of freedom     4
 Full point group                 CS      NOp   2
 Rotational constants (GHZ):    285.8119488     38.8698605     34.2164860
 Standard basis: Aug-CC-pVTZ (5D, 7F)
 Integral buffers will be    131072 words long.
 Raffenetti 1 integral format.
 Two-electron integral symmetry is turned off.
   138 basis functions,   198 primitive gaussians,   160 cartesian basis functions
     8 alpha electrons        8 beta electrons
       nuclear repulsion energy        31.3050013469 Hartrees.
 NAtoms=    4 NActive=    4 NUniq=    4 SFac= 1.00D+00 NAtFMM=   50 NAOKFM=F Big=F
 One-electron integrals computed using PRISM.
 NBasis=   138 RedAO= T  NBF=   138
 NBsUse=   138 1.00D-06 NBFU=   138
 Initial guess read from the read-write file.
 B after Tr=     0.000000    0.000000    0.000000
         Rot=    1.000000    0.000000    0.000000    0.000000 Ang=   0.00 deg.
 Requested convergence on RMS density matrix=1.00D-08 within 128 cycles.
 Requested convergence on MAX density matrix=1.00D-06.
 Requested convergence on             energy=1.00D-06.
 No special actions if energy rises.
 Keep R1 ints in memory in canonical form, NReq=85137408.
 SCF Done:  E(RHF) =  -113.913826364     A.U. after    8 cycles
             Convg  =    0.5192D-08             -V/T =  2.0018
 ExpMin= 2.53D-02 ExpMax= 1.53D+04 ExpMxC= 5.22D+02 IAcc=3 IRadAn=         5 AccDes= 0.00D+00
 HarFok:  IExCor=  205 AccDes= 0.00D+00 IRadAn=         5 IDoV=-2
 ScaDFX=  1.000000  1.000000  1.000000  1.000000
 Range of M.O.s used for correlation:     3   138
 NBasis=   138 NAE=     8 NBE=     8 NFC=     2 NFV=     0
 NROrb=    136 NOA=     6 NOB=     6 NVA=   130 NVB=   130

 **** Warning!!: The largest alpha MO coefficient is  0.33810156D+02

 Semi-Direct transformation.
 ModeAB=           2 MOrb=             6 LenV=    1073118443
 LASXX=      7286295 LTotXX=     7286295 LenRXX=     7286295
 LTotAB=     7445736 MaxLAS=    10510080 LenRXY=    10510080
 NonZer=    14572590 LenScr=    22628352 LnRSAI=           0
 LnScr1=           0 LExtra=           0 Total=     40424727
 MaxDsk=          -1 SrtSym=           F ITran=            4
 JobTyp=0 Pass  1:  I=   1 to   6.
 (rs|ai) integrals will be sorted in core.
 Spin components of T(2) and E(2):
     alpha-alpha T2 =       0.1376071271D-01 E2=     -0.4804184041D-01
     alpha-beta  T2 =       0.8505469670D-01 E2=     -0.3064345334D+00
     beta-beta   T2 =       0.1376071271D-01 E2=     -0.4804184041D-01
 ANorm=    0.1054787240D+01
 E2 =    -0.4025182142D+00 EUMP2 =    -0.11431634457777D+03
 R2 and R3 integrals will be kept in memory, NReq=   167993840.
 Iterations=  50 Convergence= 0.100D-07
 Iteration Nr.   1
 **********************
 DD1Dir will call FoFMem   1 times, MxPair=        42
 NAB=    21 NAA=     0 NBB=     0.
 MP4(R+Q)=  0.88726043D-02
 E3=       -0.40191372D-02        EUMP3=      -0.11432036371D+03
 E4(DQ)=   -0.13495138D-02        UMP4(DQ)=   -0.11432171323D+03
 E4(SDQ)=  -0.66115101D-02        UMP4(SDQ)=  -0.11432697523D+03
 DE(Corr)= -0.39766475     E(Corr)=     -114.31149111    
 NORM(A)=   0.10554806D+01
 Iteration Nr.   2
 **********************
 DD1Dir will call FoFMem   1 times, MxPair=        42
 NAB=    21 NAA=     0 NBB=     0.
 DE(Corr)= -0.41160706     E(CORR)=     -114.32543342     Delta=-1.39D-02
 NORM(A)=   0.10615345D+01
 Iteration Nr.   3
 **********************
 DD1Dir will call FoFMem   1 times, MxPair=        42
 NAB=    21 NAA=     0 NBB=     0.
 DE(Corr)= -0.41153432     E(CORR)=     -114.32536068     Delta= 7.27D-05
 NORM(A)=   0.10634214D+01
 Iteration Nr.   4
 **********************
 DD1Dir will call FoFMem   1 times, MxPair=        42
 NAB=    21 NAA=     0 NBB=     0.
 DE(Corr)= -0.41294074     E(CORR)=     -114.32676710     Delta=-1.41D-03
 NORM(A)=   0.10641013D+01
 Iteration Nr.   5
 **********************
 DD1Dir will call FoFMem   1 times, MxPair=        42
 NAB=    21 NAA=     0 NBB=     0.
 DE(Corr)= -0.41312825     E(CORR)=     -114.32695461     Delta=-1.88D-04
 NORM(A)=   0.10643164D+01
 Iteration Nr.   6
 **********************
 DD1Dir will call FoFMem   1 times, MxPair=        42
 NAB=    21 NAA=     0 NBB=     0.
 DE(Corr)= -0.41315418     E(CORR)=     -114.32698054     Delta=-2.59D-05
 NORM(A)=   0.10643417D+01
 Iteration Nr.   7
 **********************
 DD1Dir will call FoFMem   1 times, MxPair=        42
 NAB=    21 NAA=     0 NBB=     0.
 DE(Corr)= -0.41315538     E(CORR)=     -114.32698175     Delta=-1.21D-06
 NORM(A)=   0.10643429D+01
 Iteration Nr.   8
 **********************
 DD1Dir will call FoFMem   1 times, MxPair=        42
 NAB=    21 NAA=     0 NBB=     0.
 DE(Corr)= -0.41315451     E(CORR)=     -114.32698087     Delta= 8.75D-07
 NORM(A)=   0.10643456D+01
 Iteration Nr.   9
 **********************
 DD1Dir will call FoFMem   1 times, MxPair=        42
 NAB=    21 NAA=     0 NBB=     0.
 DE(Corr)= -0.41315339     E(CORR)=     -114.32697976     Delta= 1.12D-06
 NORM(A)=   0.10643459D+01
 Iteration Nr.  10
 **********************
 DD1Dir will call FoFMem   1 times, MxPair=        42
 NAB=    21 NAA=     0 NBB=     0.
 DE(Corr)= -0.41315401     E(CORR)=     -114.32698038     Delta=-6.21D-07
 NORM(A)=   0.10643465D+01
 Iteration Nr.  11
 **********************
 DD1Dir will call FoFMem   1 times, MxPair=        42
 NAB=    21 NAA=     0 NBB=     0.
 DE(Corr)= -0.41315415     E(CORR)=     -114.32698051     Delta=-1.32D-07
 NORM(A)=   0.10643469D+01
 Iteration Nr.  12
 **********************
 DD1Dir will call FoFMem   1 times, MxPair=        42
 NAB=    21 NAA=     0 NBB=     0.
 DE(Corr)= -0.41315430     E(CORR)=     -114.32698066     Delta=-1.55D-07
 NORM(A)=   0.10643471D+01
 Iteration Nr.  13
 **********************
 DD1Dir will call FoFMem   1 times, MxPair=        42
 NAB=    21 NAA=     0 NBB=     0.
 DE(Corr)= -0.41315436     E(CORR)=     -114.32698073     Delta=-6.10D-08
 NORM(A)=   0.10643472D+01
 Iteration Nr.  14
 **********************
 DD1Dir will call FoFMem   1 times, MxPair=        42
 NAB=    21 NAA=     0 NBB=     0.
 DE(Corr)= -0.41315439     E(CORR)=     -114.32698076     Delta=-3.15D-08
 NORM(A)=   0.10643472D+01
 Iteration Nr.  15
 **********************
 DD1Dir will call FoFMem   1 times, MxPair=        42
 NAB=    21 NAA=     0 NBB=     0.
 DE(Corr)= -0.41315440     E(CORR)=     -114.32698076     Delta=-4.93D-09
 NORM(A)=   0.10643472D+01
 Iteration Nr.  16
 **********************
 DD1Dir will call FoFMem   1 times, MxPair=        42
 NAB=    21 NAA=     0 NBB=     0.
 DE(Corr)= -0.41315440     E(CORR)=     -114.32698076     Delta=-2.99D-09
 NORM(A)=   0.10643473D+01
 Largest amplitude= 6.44D-02

 Z-AMPLITUDE ITERATIONS

 Iteration Nr.   1
 **********************
 DD1Dir will call FoFMem   1 times, MxPair=        42
 NAB=    21 NAA=     0 NBB=     0.
 DE(Z)  -0.40112027D+00          E(Z)=    -0.11431494664D+03
 NORM(A)=   0.10643464D+01
 Iteration Nr.   2
 **********************
 DD1Dir will call FoFMem   1 times, MxPair=        42
 NAB=    21 NAA=     0 NBB=     0.
 DE(Z)  -0.40112022D+00          E(Z)=    -0.11431494659D+03
 NORM(A)=   0.10643462D+01
 Iteration Nr.   3
 **********************
 DD1Dir will call FoFMem   1 times, MxPair=        42
 NAB=    21 NAA=     0 NBB=     0.
 DE(Z)  -0.40112022D+00          E(Z)=    -0.11431494658D+03
 NORM(A)=   0.10643458D+01
 Iteration Nr.   4
 **********************
 DD1Dir will call FoFMem   1 times, MxPair=        42
 NAB=    21 NAA=     0 NBB=     0.
 DE(Z)  -0.40112020D+00          E(Z)=    -0.11431494656D+03
 NORM(A)=   0.10643449D+01
 Iteration Nr.   5
 **********************
 DD1Dir will call FoFMem   1 times, MxPair=        42
 NAB=    21 NAA=     0 NBB=     0.
 DE(Z)  -0.40112015D+00          E(Z)=    -0.11431494652D+03
 NORM(A)=   0.10602873D+01
 Iteration Nr.   6
 **********************
 DD1Dir will call FoFMem   1 times, MxPair=        42
 NAB=    21 NAA=     0 NBB=     0.
 DE(Z)  -0.40090702D+00          E(Z)=    -0.11431473338D+03
 NORM(A)=   0.10602714D+01
 Iteration Nr.   7
 **********************
 DD1Dir will call FoFMem   1 times, MxPair=        42
 NAB=    21 NAA=     0 NBB=     0.
 DE(Z)  -0.40090633D+00          E(Z)=    -0.11431473270D+03
 NORM(A)=   0.10602657D+01
 Iteration Nr.   8
 **********************
 DD1Dir will call FoFMem   1 times, MxPair=        42
 NAB=    21 NAA=     0 NBB=     0.
 DE(Z)  -0.40090625D+00          E(Z)=    -0.11431473261D+03
 NORM(A)=   0.10602644D+01
 Iteration Nr.   9
 **********************
 DD1Dir will call FoFMem   1 times, MxPair=        42
 NAB=    21 NAA=     0 NBB=     0.
 DE(Z)  -0.40090583D+00          E(Z)=    -0.11431473219D+03
 NORM(A)=   0.10602644D+01
 Iteration Nr.  10
 **********************
 DD1Dir will call FoFMem   1 times, MxPair=        42
 NAB=    21 NAA=     0 NBB=     0.
 DE(Z)  -0.40090595D+00          E(Z)=    -0.11431473231D+03
 NORM(A)=   0.10602645D+01
 Iteration Nr.  11
 **********************
 DD1Dir will call FoFMem   1 times, MxPair=        42
 NAB=    21 NAA=     0 NBB=     0.
 DE(Z)  -0.40090592D+00          E(Z)=    -0.11431473228D+03
 NORM(A)=   0.10602645D+01
 Iteration Nr.  12
 **********************
 DD1Dir will call FoFMem   1 times, MxPair=        42
 NAB=    21 NAA=     0 NBB=     0.
 DE(Z)  -0.40090591D+00          E(Z)=    -0.11431473227D+03
 NORM(A)=   0.10602645D+01
 Iteration Nr.  13
 **********************
 DD1Dir will call FoFMem   1 times, MxPair=        42
 NAB=    21 NAA=     0 NBB=     0.
 DE(Z)  -0.40090592D+00          E(Z)=    -0.11431473229D+03
 NORM(A)=   0.10602645D+01
 Iteration Nr.  14
 **********************
 DD1Dir will call FoFMem   1 times, MxPair=        42
 NAB=    21 NAA=     0 NBB=     0.
 DE(Z)  -0.40090592D+00          E(Z)=    -0.11431473228D+03
 NORM(A)=   0.10602645D+01
 Discarding MO integrals.
          IDoAtm=1111
          Differentiating once with respect to electric field.
                with respect to dipole field.
          Differentiating once with respect to nuclear coordinates.
          Keep R1 ints in memory in canonical form, NReq=84894631.
          There are     1 degrees of freedom in the 1st order CPHF.  IDoFFX=0.
 LinEq1:  Iter=  0 NonCon=     1 RMS=3.55D-03 Max=5.57D-02
 AX will form     1 AO Fock derivatives at one time.
 LinEq1:  Iter=  1 NonCon=     1 RMS=8.96D-04 Max=8.54D-03
 LinEq1:  Iter=  2 NonCon=     1 RMS=2.35D-04 Max=3.42D-03
 LinEq1:  Iter=  3 NonCon=     1 RMS=1.15D-04 Max=1.21D-03
 LinEq1:  Iter=  4 NonCon=     1 RMS=4.45D-05 Max=5.32D-04
 LinEq1:  Iter=  5 NonCon=     1 RMS=9.21D-06 Max=8.74D-05
 LinEq1:  Iter=  6 NonCon=     1 RMS=1.50D-06 Max=1.74D-05
 LinEq1:  Iter=  7 NonCon=     1 RMS=2.28D-07 Max=1.66D-06
 LinEq1:  Iter=  8 NonCon=     1 RMS=2.61D-08 Max=2.06D-07
 LinEq1:  Iter=  9 NonCon=     1 RMS=3.14D-09 Max=2.52D-08
 LinEq1:  Iter= 10 NonCon=     1 RMS=2.95D-10 Max=2.32D-09
 LinEq1:  Iter= 11 NonCon=     0 RMS=2.66D-11 Max=2.39D-10
 Linear equations converged to 1.000D-10 1.000D-09 after    11 iterations.
 End of Minotr Frequency-dependent properties file   721 does not exist.
 End of Minotr Frequency-dependent properties file   722 does not exist.
 Calling FoFJK, ICntrl=      2127 FMM=F ISym2X=0 I1Cent= 0 IOpClX= 0 NMat=1 NMatS=1 NMatT=0.
 -------------------------------------------------------------------
 Center     Atomic                   Forces (Hartrees/Bohr)
 Number     Number              X              Y              Z
 -------------------------------------------------------------------
      1        8           0.000000008    0.000000000    0.000054735
      2        6          -0.000000024    0.000000000   -0.000025719
      3        1           0.000000008   -0.000078084   -0.000014508
      4        1           0.000000008    0.000078084   -0.000014508
 -------------------------------------------------------------------
 Cartesian Forces:  Max     0.000078084 RMS     0.000036825

 GradGradGradGradGradGradGradGradGradGradGradGradGradGradGradGradGradGrad
 Berny optimization.
 Using GEDIIS/GDIIS optimizer.
 Internal  Forces:  Max     0.000074146 RMS     0.000050917
 Search for a local minimum.
 Step number   4 out of a maximum of   20
 All quantities printed in internal units (Hartrees-Bohrs-Radians)
 Mixed Optimization -- En-DIIS/RFO-DIIS
 Swaping is turned off.
 Update second derivatives using D2CorX and points    1    2    3    4
 DE= -1.17D-05 DEPred=-1.15D-05 R= 1.02D+00
 SS=  1.41D+00  RLast= 1.18D-02 DXNew= 5.3085D-01 3.5475D-02
 Trust test= 1.02D+00 RLast= 1.18D-02 DXMaxT set to 3.16D-01
 The second derivative matrix:
                          R1        R2        R3        A1        A2
           R1           0.81859
           R2           0.02746   0.36567
           R3           0.02746  -0.00663   0.36567
           A1           0.02204  -0.00827  -0.00827   0.15550
           A2           0.02204  -0.00827  -0.00827  -0.00450   0.15550
           A3          -0.04408   0.01653   0.01653   0.00899   0.00899
           D1           0.00000   0.00000   0.00000   0.00000   0.00000
                          A3        D1
           A3           0.14202
           D1           0.00000   0.00499
 ITU=  1  1  1  0
     Eigenvalues ---    0.00499   0.12451   0.16000   0.36047   0.37230
     Eigenvalues ---    0.82567
 En-DIIS/RFO-DIIS IScMMF=        0 using points:     4    3
 RFO step:  Lambda=-3.49130321D-08.
 DidBck=F Rises=F RFO-DIIS coefs:    1.03070   -0.03070
 Iteration  1 RMS(Cart)=  0.00025937 RMS(Int)=  0.00000004
 Iteration  2 RMS(Cart)=  0.00000003 RMS(Int)=  0.00000000
 Variable       Old X    -DE/DX   Delta X   Delta X   Delta X     New X
                                  (DIIS)     (GDIIS)  (Total)
    R1        2.27932   0.00005   0.00003   0.00001   0.00003   2.27935
    R2        2.08154  -0.00006   0.00010  -0.00023  -0.00013   2.08141
    R3        2.08154  -0.00006   0.00010  -0.00023  -0.00013   2.08141
    A1        2.12503   0.00004   0.00014   0.00012   0.00026   2.12528
    A2        2.12503   0.00004   0.00014   0.00012   0.00026   2.12528
    A3        2.03313  -0.00007  -0.00027  -0.00024  -0.00051   2.03262
    D1        3.14159   0.00000   0.00000   0.00000   0.00000  -3.14159
         Item               Value     Threshold  Converged?
 Maximum Force            0.000074     0.000450     YES
 RMS     Force            0.000051     0.000300     YES
 Maximum Displacement     0.000393     0.001800     YES
 RMS     Displacement     0.000259     0.001200     YES
 Predicted change in Energy=-3.717935D-08
 Optimization completed.
    -- Stationary point found.
                           ----------------------------
                           !   Optimized Parameters   !
                           ! (Angstroms and Degrees)  !
 --------------------------                            --------------------------
 ! Name  Definition              Value          Derivative Info.                !
 --------------------------------------------------------------------------------
 ! R1    R(1,2)                  1.2062         -DE/DX =    0.0001              !
 ! R2    R(2,3)                  1.1015         -DE/DX =   -0.0001              !
 ! R3    R(2,4)                  1.1015         -DE/DX =   -0.0001              !
 ! A1    A(1,2,3)              121.7551         -DE/DX =    0.0                 !
 ! A2    A(1,2,4)              121.7551         -DE/DX =    0.0                 !
 ! A3    A(3,2,4)              116.4899         -DE/DX =   -0.0001              !
 ! D1    D(1,2,4,3)           -180.0            -DE/DX =    0.0                 !
 --------------------------------------------------------------------------------
 GradGradGradGradGradGradGradGradGradGradGradGradGradGradGradGradGradGrad

                          Input orientation:                          
 ---------------------------------------------------------------------
 Center     Atomic      Atomic             Coordinates (Angstroms)
 Number     Number       Type             X           Y           Z
 ---------------------------------------------------------------------
      1          8           0        0.000000    0.000000    0.679252
      2          6           0        0.000000    0.000000   -0.526911
      3          1           0        0.000000    0.936614   -1.106620
      4          1           0        0.000000   -0.936614   -1.106620
 ---------------------------------------------------------------------
                    Distance matrix (angstroms):
                    1          2          3          4
     1  O    0.000000
     2  C    1.206163   0.000000
     3  H    2.016578   1.101503   0.000000
     4  H    2.016578   1.101503   1.873229   0.000000
 Symmetry turned off by external request.
 Stoichiometry    CH2O
 Framework group  CS[SG(CO),X(H2)]
 Deg. of freedom     4
 Full point group                 CS      NOp   2
 Rotational constants (GHZ):    285.8119488     38.8698605     34.2164860

 **********************************************************************

            Population analysis using the QCI/CC density.

 **********************************************************************

 Alpha  occ. eigenvalues --  -20.57889 -11.34241  -1.40667  -0.87136  -0.69535
 Alpha  occ. eigenvalues --   -0.65246  -0.53718  -0.44380
 Alpha virt. eigenvalues --    0.02626   0.04168   0.06240   0.07646   0.12928
 Alpha virt. eigenvalues --    0.13296   0.13346   0.17433   0.19819   0.21172
 Alpha virt. eigenvalues --    0.21714   0.25409   0.25610   0.28124   0.32051
 Alpha virt. eigenvalues --    0.33801   0.33937   0.35899   0.38784   0.38980
 Alpha virt. eigenvalues --    0.39597   0.41891   0.48224   0.49878   0.56175
 Alpha virt. eigenvalues --    0.56743   0.66938   0.67680   0.72314   0.76379
 Alpha virt. eigenvalues --    0.81893   0.83426   0.84216   0.85683   0.87628
 Alpha virt. eigenvalues --    0.88208   0.92755   0.93411   0.93966   0.97962
 Alpha virt. eigenvalues --    1.00153   1.02091   1.02355   1.03797   1.06849
 Alpha virt. eigenvalues --    1.08246   1.09831   1.10185   1.25858   1.26577
 Alpha virt. eigenvalues --    1.30479   1.37045   1.38915   1.45783   1.47647
 Alpha virt. eigenvalues --    1.51303   1.57152   1.59856   1.62669   1.70678
 Alpha virt. eigenvalues --    1.73067   1.83597   1.96303   2.00597   2.03157
 Alpha virt. eigenvalues --    2.09409   2.18038   2.28729   2.32197   2.34114
 Alpha virt. eigenvalues --    2.34398   2.48994   2.49780   2.56028   2.60645
 Alpha virt. eigenvalues --    2.71589   2.78354   2.80902   2.92041   2.92944
 Alpha virt. eigenvalues --    3.06546   3.07633   3.14511   3.18696   3.41208
 Alpha virt. eigenvalues --    3.44418   3.52852   3.56479   3.62834   3.65985
 Alpha virt. eigenvalues --    3.70039   3.89668   3.95335   4.05622   4.11927
 Alpha virt. eigenvalues --    4.16186   4.16481   4.22045   4.24715   4.36367
 Alpha virt. eigenvalues --    4.58500   4.64822   4.68775   4.77016   5.03247
 Alpha virt. eigenvalues --    5.05132   5.10701   5.16054   5.24783   5.28445
 Alpha virt. eigenvalues --    5.32818   5.38588   5.88991   6.13733   6.23507
 Alpha virt. eigenvalues --    6.50096   6.59832   6.61841   6.91584   6.94937
 Alpha virt. eigenvalues --    7.09114   7.19090   7.20573   7.41345   7.52522
 Alpha virt. eigenvalues --    7.68647   7.72585   7.77145  14.96447  16.39636
          Condensed to atoms (all electrons):
              1          2          3          4
     1  O    8.193689   0.349453  -0.062868  -0.062868
     2  C    0.349453   5.719225   0.207784   0.207784
     3  H   -0.062868   0.207784   0.434667  -0.030409
     4  H   -0.062868   0.207784  -0.030409   0.434667
 Mulliken atomic charges:
              1
     1  O   -0.417406
     2  C   -0.484245
     3  H    0.450826
     4  H    0.450826
 Sum of Mulliken atomic charges =   0.00000
 Mulliken charges with hydrogens summed into heavy atoms:
              1
     1  O   -0.417406
     2  C    0.417406
 Sum of Mulliken charges with hydrogens summed into heavy atoms =   0.00000
 Electronic spatial extent (au):  <R**2>=             60.6316
 Charge=              0.0000 electrons
 Dipole moment (field-independent basis, Debye):
    X=              0.0000    Y=              0.0000    Z=             -2.4421  Tot=              2.4421
 Quadrupole moment (field-independent basis, Debye-Ang):
   XX=            -11.7378   YY=            -11.6215   ZZ=            -12.2708
   XY=              0.0000   XZ=              0.0000   YZ=              0.0000
 Traceless Quadrupole moment (field-independent basis, Debye-Ang):
   XX=              0.1389   YY=              0.2552   ZZ=             -0.3941
   XY=              0.0000   XZ=              0.0000   YZ=              0.0000
 Octapole moment (field-independent basis, Debye-Ang**2):
  XXX=              0.0000  YYY=              0.0000  ZZZ=              0.3113  XYY=              0.0000
  XXY=              0.0000  XXZ=              0.5813  XZZ=              0.0000  YZZ=              0.0000
  YYZ=             -0.7023  XYZ=              0.0000
 Hexadecapole moment (field-independent basis, Debye-Ang**3):
 XXXX=            -10.5190 YYYY=            -18.2497 ZZZZ=            -46.2399 XXXY=              0.0000
 XXXZ=              0.0000 YYYX=              0.0000 YYYZ=              0.0000 ZZZX=              0.0000
 ZZZY=              0.0000 XXYY=             -5.1553 XXZZ=             -9.3942 YYZZ=            -10.4551
 XXYZ=              0.0000 YYXZ=              0.0000 ZZXY=              0.0000
 N-N= 3.130500134690D+01 E-N=-3.313619909977D+02  KE= 1.142316222787D+02
 1\1\GINC-TRAPISTA\FOpt\RQCISD-FC\Aug-CC-pVTZ\C1H2O1\BRUNS\16-Nov-2021\
 0\\#opt qcisd/aug-cc-pvtz density=current nosym\\h2co\\0,1\O,-0.000000
 018,0.,0.6792519943\C,0.0000000558,0.,-0.5269114143\H,-0.0000000189,0.
 936614416,-1.10662029\H,-0.0000000189,-0.936614416,-1.10662029\\Versio
 n=EM64L-G09RevB.01\HF=-113.9138264\MP2=-114.3163446\MP3=-114.3203637\M
 P4D=-114.3305858\MP4DQ=-114.3217132\MP4SDQ=-114.3269752\QCISD=-114.326
 9808\RMSD=5.192e-09\RMSF=3.682e-05\Dipole=0.,0.,-0.9607974\Quadrupole=
 0.1032503,0.1897615,-0.2930117,0.,0.,0.\PG=CS [SG(C1O1),X(H2)]\\@


 REFRAIN FROM ILLUSIONS, INSIST ON WORK AND NOT WORDS,
 PATIENTLY SEEK DIVINE AND SCIENTIFIC TRUTH.
 LAST WORDS OF MARIA MENDELEEVA TO HER SON DMITRI, C. 1850
 Job cpu time:  0 days  1 hours 42 minutes 22.2 seconds.
 File lengths (MBytes):  RWF=   5787 Int=      0 D2E=      0 Chk=      3 Scr=      1
 Normal termination of Gaussian 09 at Tue Nov 16 16:35:48 2021.
