 Entering Gaussian System, Link 0=/home/wagner/chemistry/gaussian/g16/g16
 Input=GAUSSIAN.com
 Output=GAUSSIAN.log
 Initial command:
 /home/wagner/chemistry/gaussian/g16/l1.exe "/home/wagner/chemistry/gaussian/work/Gau-3532.inp" -scrdir="/home/wagner/chemistry/gaussian/work/"
 Entering Link 1 = /home/wagner/chemistry/gaussian/g16/l1.exe PID=      3534.
  
 Copyright (c) 1988-2019, Gaussian, Inc.  All Rights Reserved.
  
 This is part of the Gaussian(R) 16 program.  It is based on
 the Gaussian(R) 09 system (copyright 2009, Gaussian, Inc.),
 the Gaussian(R) 03 system (copyright 2003, Gaussian, Inc.),
 the Gaussian(R) 98 system (copyright 1998, Gaussian, Inc.),
 the Gaussian(R) 94 system (copyright 1995, Gaussian, Inc.),
 the Gaussian 92(TM) system (copyright 1992, Gaussian, Inc.),
 the Gaussian 90(TM) system (copyright 1990, Gaussian, Inc.),
 the Gaussian 88(TM) system (copyright 1988, Gaussian, Inc.),
 the Gaussian 86(TM) system (copyright 1986, Carnegie Mellon
 University), and the Gaussian 82(TM) system (copyright 1983,
 Carnegie Mellon University). Gaussian is a federally registered
 trademark of Gaussian, Inc.
  
 This software contains proprietary and confidential information,
 including trade secrets, belonging to Gaussian, Inc.
  
 This software is provided under written license and may be
 used, copied, transmitted, or stored only in accord with that
 written license.
  
 The following legend is applicable only to US Government
 contracts under FAR:
  
                    RESTRICTED RIGHTS LEGEND
  
 Use, reproduction and disclosure by the US Government is
 subject to restrictions as set forth in subparagraphs (a)
 and (c) of the Commercial Computer Software - Restricted
 Rights clause in FAR 52.227-19.
  
 Gaussian, Inc.
 340 Quinnipiac St., Bldg. 40, Wallingford CT 06492
  
  
 ---------------------------------------------------------------
 Warning -- This program may not be used in any manner that
 competes with the business of Gaussian, Inc. or will provide
 assistance to any competitor of Gaussian, Inc.  The licensee
 of this program is prohibited from giving any competitor of
 Gaussian, Inc. access to this program.  By using this program,
 the user acknowledges that Gaussian, Inc. is engaged in the
 business of creating and licensing software in the field of
 computational chemistry and represents and warrants to the
 licensee that it is not a competitor of Gaussian, Inc. and that
 it will not use this program in any manner prohibited above.
 ---------------------------------------------------------------
  

 Cite this work as:
 Gaussian 16, Revision C.01,
 M. J. Frisch, G. W. Trucks, H. B. Schlegel, G. E. Scuseria, 
 M. A. Robb, J. R. Cheeseman, G. Scalmani, V. Barone, 
 G. A. Petersson, H. Nakatsuji, X. Li, M. Caricato, A. V. Marenich, 
 J. Bloino, B. G. Janesko, R. Gomperts, B. Mennucci, H. P. Hratchian, 
 J. V. Ortiz, A. F. Izmaylov, J. L. Sonnenberg, D. Williams-Young, 
 F. Ding, F. Lipparini, F. Egidi, J. Goings, B. Peng, A. Petrone, 
 T. Henderson, D. Ranasinghe, V. G. Zakrzewski, J. Gao, N. Rega, 
 G. Zheng, W. Liang, M. Hada, M. Ehara, K. Toyota, R. Fukuda, 
 J. Hasegawa, M. Ishida, T. Nakajima, Y. Honda, O. Kitao, H. Nakai, 
 T. Vreven, K. Throssell, J. A. Montgomery, Jr., J. E. Peralta, 
 F. Ogliaro, M. J. Bearpark, J. J. Heyd, E. N. Brothers, K. N. Kudin, 
 V. N. Staroverov, T. A. Keith, R. Kobayashi, J. Normand, 
 K. Raghavachari, A. P. Rendell, J. C. Burant, S. S. Iyengar, 
 J. Tomasi, M. Cossi, J. M. Millam, M. Klene, C. Adamo, R. Cammi, 
 J. W. Ochterski, R. L. Martin, K. Morokuma, O. Farkas, 
 J. B. Foresman, and D. J. Fox, Gaussian, Inc., Wallingford CT, 2019.
 
 ******************************************
 Gaussian 16:  EM64L-G16RevC.01  3-Jul-2019
                 3-Sep-2022 
 ******************************************
 %nproc=16
 Will use up to   16 processors via shared memory.
 %mem=16GB
 ----------------------------------------------------------------------
 # qcisd/aug-cc-pvtz nosymm density=current pop=(chelpg,hirshfeld,npa,d
 ipole)
 ----------------------------------------------------------------------
 1/30=1,38=1,172=1/1;
 2/12=2,15=1,17=6,18=5,40=1/2;
 3/5=16,6=1,7=10,11=9,25=1,30=1,71=1/1,2,3;
 4//1;
 5/5=2,38=5/2;
 8/6=4,9=120000,10=1/1,4;
 9/5=8,15=1/13;
 11/28=-7,31=1,32=3,42=3/11;
 10/5=6,13=10,31=1/2;
 6/7=2,8=2,9=2,10=2,15=24,20=3,22=-1,40=-1,79=1/1,2,7;
 99/5=1,9=1/99;
 -----------------
 f2co-wavefunction
 -----------------
 Symbolic Z-matrix:
 Charge =  0 Multiplicity = 1
 O                     0.        0.        0.67993 
 C                     0.        0.       -0.50222 
 F                     0.       -1.05888  -1.26431 
 F                     0.        1.05888  -1.26431 
 
                          Input orientation:                          
 ---------------------------------------------------------------------
 Center     Atomic      Atomic             Coordinates (Angstroms)
 Number     Number       Type             X           Y           Z
 ---------------------------------------------------------------------
      1          8           0        0.000000    0.000000    0.679927
      2          6           0        0.000000    0.000000   -0.502216
      3          9           0        0.000000   -1.058878   -1.264305
      4          9           0        0.000000    1.058878   -1.264305
 ---------------------------------------------------------------------
                    Distance matrix (angstroms):
                    1          2          3          4
     1  O    0.000000
     2  C    1.182143   0.000000
     3  F    2.213879   1.304608   0.000000
     4  F    2.213879   1.304608   2.117756   0.000000
 Symmetry turned off by external request.
 Stoichiometry    CF2O
 Framework group  C2V[C2(CO),SGV(F2)]
 Deg. of freedom     3
 Full point group                 C2V     NOp   4
 Rotational constants (GHZ):          11.8625554          11.7831624           5.9113628
 Standard basis: Aug-CC-pVTZ (5D, 7F)
   184 basis functions,   288 primitive gaussians,   220 cartesian basis functions
    16 alpha electrons       16 beta electrons
       nuclear repulsion energy       119.9538589938 Hartrees.
 NAtoms=    4 NActive=    4 NUniq=    4 SFac= 1.00D+00 NAtFMM=   60 NAOKFM=F Big=F
 Integral buffers will be    131072 words long.
 Raffenetti 1 integral format.
 Two-electron integral symmetry is turned off.
 One-electron integrals computed using PRISM.
 NBasis=   184 RedAO= T EigKep=  3.54D-04  NBF=   184
 NBsUse=   184 1.00D-06 EigRej= -1.00D+00 NBFU=   184
 ExpMin= 3.57D-02 ExpMax= 1.95D+04 ExpMxC= 6.65D+02 IAcc=3 IRadAn=         5 AccDes= 0.00D+00
 Harris functional with IExCor=  205 and IRadAn=       5 diagonalized for initial guess.
 HarFok:  IExCor=  205 AccDes= 0.00D+00 IRadAn=         5 IDoV= 1 UseB2=F ITyADJ=14
 ICtDFT=  3500011 ScaDFX=  1.000000  1.000000  1.000000  1.000000
 FoFCou: FMM=F IPFlag=           0 FMFlag=      100000 FMFlg1=           0
         NFxFlg=           0 DoJE=T BraDBF=F KetDBF=T FulRan=T
         wScrn=  0.000000 ICntrl=       500 IOpCl=  0 I1Cent=   200000004 NGrid=           0
         NMat0=    1 NMatS0=      1 NMatT0=    0 NMatD0=    1 NMtDS0=    0 NMtDT0=    0
 Symmetry not used in FoFCou.
 Keep R1 ints in memory in canonical form, NReq=152781338.
 Requested convergence on RMS density matrix=1.00D-08 within 128 cycles.
 Requested convergence on MAX density matrix=1.00D-06.
 Requested convergence on             energy=1.00D-06.
 No special actions if energy rises.
 SCF Done:  E(RHF) =  -311.740780828     A.U. after   11 cycles
            NFock= 11  Conv=0.84D-08     -V/T= 2.0015
 ExpMin= 3.57D-02 ExpMax= 1.95D+04 ExpMxC= 6.65D+02 IAcc=3 IRadAn=         5 AccDes= 0.00D+00
 HarFok:  IExCor=  205 AccDes= 0.00D+00 IRadAn=         5 IDoV=-2 UseB2=F ITyADJ=14
 ICtDFT= 12500011 ScaDFX=  1.000000  1.000000  1.000000  1.000000
 Range of M.O.s used for correlation:     5   184
 NBasis=   184 NAE=    16 NBE=    16 NFC=     4 NFV=     0
 NROrb=    180 NOA=    12 NOB=    12 NVA=   168 NVB=   168

 **** Warning!!: The largest alpha MO coefficient is  0.15617653D+02

 Semi-Direct transformation.
 ModeAB=           2 MOrb=            12 LenV=    2146514633
 LASXX=     33405819 LTotXX=    33405819 LenRXX=    33405819
 LTotAB=    33954012 MaxLAS=    52509600 LenRXY=    52509600
 NonZer=    66811638 LenScr=   100987392 LnRSAI=           0
 LnScr1=           0 LExtra=           0 Total=    186902811
 MaxDsk=          -1 SrtSym=           F ITran=            4
 JobTyp=0 Pass  1:  I=   1 to  12.
 (rs|ai) integrals will be sorted in core.
 Spin components of T(2) and E(2):
     alpha-alpha T2 =       0.2662486745D-01 E2=     -0.1191674561D+00
     alpha-beta  T2 =       0.1373720120D+00 E2=     -0.6578896090D+00
     beta-beta   T2 =       0.2662486745D-01 E2=     -0.1191674561D+00
 ANorm=    0.1091156151D+01
 E2 =    -0.8962245211D+00 EUMP2 =    -0.31263700534869D+03
 Keep R2 and R3 ints in memory in canonical form, NReq=297638850.
 CIDS: In Core Option IDoMem=           1.
 Iterations=  50 Convergence= 0.100D-07
 Produce multiple copies of IABC intergrals
 Iteration Nr.   1
 **********************
 DD1Dir will call FoFMem   1 times, MxPair=       156
 NAB=    78 NAA=     0 NBB=     0.
 MP4(R+Q)=  0.16094355D-01
 E3=        0.12651696D-01        EUMP3=      -0.31262435365D+03
 E4(DQ)=    0.43824776D-03        UMP4(DQ)=   -0.31262391540D+03
 E4(SDQ)=  -0.11225112D-01        UMP4(SDQ)=  -0.31263557876D+03
 DE(Corr)= -0.86747847     E(Corr)=     -312.60825930    
 NORM(A)=   0.10859818D+01
 Iteration Nr.   2
 **********************
 DD1Dir will call FoFMem   1 times, MxPair=       156
 NAB=    78 NAA=     0 NBB=     0.
 DE(Corr)= -0.89346980     E(CORR)=     -312.63425063     Delta=-2.60D-02
 NORM(A)=   0.10933276D+01
 Iteration Nr.   3
 **********************
 DD1Dir will call FoFMem   1 times, MxPair=       156
 NAB=    78 NAA=     0 NBB=     0.
 DE(Corr)= -0.89168168     E(CORR)=     -312.63246250     Delta= 1.79D-03
 NORM(A)=   0.10955904D+01
 Iteration Nr.   4
 **********************
 DD1Dir will call FoFMem   1 times, MxPair=       156
 NAB=    78 NAA=     0 NBB=     0.
 DE(Corr)= -0.89400467     E(CORR)=     -312.63478550     Delta=-2.32D-03
 NORM(A)=   0.10964140D+01
 Iteration Nr.   5
 **********************
 DD1Dir will call FoFMem   1 times, MxPair=       156
 NAB=    78 NAA=     0 NBB=     0.
 DE(Corr)= -0.89427441     E(CORR)=     -312.63505523     Delta=-2.70D-04
 NORM(A)=   0.10966005D+01
 Iteration Nr.   6
 **********************
 DD1Dir will call FoFMem   1 times, MxPair=       156
 NAB=    78 NAA=     0 NBB=     0.
 DE(Corr)= -0.89430104     E(CORR)=     -312.63508187     Delta=-2.66D-05
 NORM(A)=   0.10966139D+01
 Iteration Nr.   7
 **********************
 DD1Dir will call FoFMem   1 times, MxPair=       156
 NAB=    78 NAA=     0 NBB=     0.
 DE(Corr)= -0.89430263     E(CORR)=     -312.63508345     Delta=-1.58D-06
 NORM(A)=   0.10966138D+01
 Iteration Nr.   8
 **********************
 DD1Dir will call FoFMem   1 times, MxPair=       156
 NAB=    78 NAA=     0 NBB=     0.
 DE(Corr)= -0.89430158     E(CORR)=     -312.63508241     Delta= 1.05D-06
 NORM(A)=   0.10966144D+01
 Iteration Nr.   9
 **********************
 DD1Dir will call FoFMem   1 times, MxPair=       156
 NAB=    78 NAA=     0 NBB=     0.
 DE(Corr)= -0.89430200     E(CORR)=     -312.63508283     Delta=-4.21D-07
 NORM(A)=   0.10966145D+01
 Iteration Nr.  10
 **********************
 DD1Dir will call FoFMem   1 times, MxPair=       156
 NAB=    78 NAA=     0 NBB=     0.
 DE(Corr)= -0.89430191     E(CORR)=     -312.63508273     Delta= 9.33D-08
 NORM(A)=   0.10966147D+01
 Iteration Nr.  11
 **********************
 DD1Dir will call FoFMem   1 times, MxPair=       156
 NAB=    78 NAA=     0 NBB=     0.
 DE(Corr)= -0.89430232     E(CORR)=     -312.63508315     Delta=-4.16D-07
 NORM(A)=   0.10966149D+01
 Iteration Nr.  12
 **********************
 DD1Dir will call FoFMem   1 times, MxPair=       156
 NAB=    78 NAA=     0 NBB=     0.
 DE(Corr)= -0.89430233     E(CORR)=     -312.63508316     Delta=-1.03D-08
 NORM(A)=   0.10966150D+01
 Iteration Nr.  13
 **********************
 DD1Dir will call FoFMem   1 times, MxPair=       156
 NAB=    78 NAA=     0 NBB=     0.
 DE(Corr)= -0.89430241     E(CORR)=     -312.63508324     Delta=-8.00D-08
 NORM(A)=   0.10966151D+01
 Iteration Nr.  14
 **********************
 DD1Dir will call FoFMem   1 times, MxPair=       156
 NAB=    78 NAA=     0 NBB=     0.
 DE(Corr)= -0.89430242     E(CORR)=     -312.63508325     Delta=-9.62D-09
 NORM(A)=   0.10966151D+01
 Wavefunction amplitudes converged. E(Corr)=     -312.63508325    
 Largest amplitude= 6.05D-02

 Z-amplitude iterations

 Iteration Nr.   1
 **********************
 DD1Dir will call FoFMem   1 times, MxPair=       156
 NAB=    78 NAA=     0 NBB=     0.
 DE(Z)= -0.87493863     E(Z)=     -312.61571945     Delta= 1.94D-02
 NORM(A)=   0.10966133D+01
 Iteration Nr.   2
 **********************
 DD1Dir will call FoFMem   1 times, MxPair=       156
 NAB=    78 NAA=     0 NBB=     0.
 DE(Z)= -0.87493862     E(Z)=     -312.61571945     Delta= 1.75D-09
 NORM(A)=   0.10966180D+01
 Iteration Nr.   3
 **********************
 DD1Dir will call FoFMem   1 times, MxPair=       156
 NAB=    78 NAA=     0 NBB=     0.
 DE(Z)= -0.87493865     E(Z)=     -312.61571948     Delta=-3.14D-08
 NORM(A)=   0.10966136D+01
 Iteration Nr.   4
 **********************
 DD1Dir will call FoFMem   1 times, MxPair=       156
 NAB=    78 NAA=     0 NBB=     0.
 DE(Z)= -0.87493862     E(Z)=     -312.61571944     Delta= 3.95D-08
 NORM(A)=   0.10966145D+01
 Iteration Nr.   5
 **********************
 DD1Dir will call FoFMem   1 times, MxPair=       156
 NAB=    78 NAA=     0 NBB=     0.
 DE(Z)= -0.87493863     E(Z)=     -312.61571945     Delta=-1.12D-08
 NORM(A)=   0.10921805D+01
 Iteration Nr.   6
 **********************
 DD1Dir will call FoFMem   1 times, MxPair=       156
 NAB=    78 NAA=     0 NBB=     0.
 DE(Z)= -0.87492434     E(Z)=     -312.61570517     Delta= 1.43D-05
 NORM(A)=   0.10921592D+01
 Iteration Nr.   7
 **********************
 DD1Dir will call FoFMem   1 times, MxPair=       156
 NAB=    78 NAA=     0 NBB=     0.
 DE(Z)= -0.87488523     E(Z)=     -312.61566606     Delta= 3.91D-05
 NORM(A)=   0.10921407D+01
 Iteration Nr.   8
 **********************
 DD1Dir will call FoFMem   1 times, MxPair=       156
 NAB=    78 NAA=     0 NBB=     0.
 DE(Z)= -0.87489048     E(Z)=     -312.61567130     Delta=-5.25D-06
 NORM(A)=   0.10921393D+01
 Iteration Nr.   9
 **********************
 DD1Dir will call FoFMem   1 times, MxPair=       156
 NAB=    78 NAA=     0 NBB=     0.
 DE(Z)= -0.87488768     E(Z)=     -312.61566851     Delta= 2.79D-06
 NORM(A)=   0.10921391D+01
 Iteration Nr.  10
 **********************
 DD1Dir will call FoFMem   1 times, MxPair=       156
 NAB=    78 NAA=     0 NBB=     0.
 DE(Z)= -0.87488872     E(Z)=     -312.61566955     Delta=-1.03D-06
 NORM(A)=   0.10921395D+01
 Iteration Nr.  11
 **********************
 DD1Dir will call FoFMem   1 times, MxPair=       156
 NAB=    78 NAA=     0 NBB=     0.
 DE(Z)= -0.87488866     E(Z)=     -312.61566949     Delta= 5.42D-08
 NORM(A)=   0.10921396D+01
 Iteration Nr.  12
 **********************
 DD1Dir will call FoFMem   1 times, MxPair=       156
 NAB=    78 NAA=     0 NBB=     0.
 DE(Z)= -0.87488863     E(Z)=     -312.61566945     Delta= 3.65D-08
 NORM(A)=   0.10921397D+01
 Iteration Nr.  13
 **********************
 DD1Dir will call FoFMem   1 times, MxPair=       156
 NAB=    78 NAA=     0 NBB=     0.
 DE(Z)= -0.87488872     E(Z)=     -312.61566955     Delta=-9.59D-08
 NORM(A)=   0.10921397D+01
 Iteration Nr.  14
 **********************
 DD1Dir will call FoFMem   1 times, MxPair=       156
 NAB=    78 NAA=     0 NBB=     0.
 DE(Z)= -0.87488868     E(Z)=     -312.61566951     Delta= 4.33D-08
 NORM(A)=   0.10921397D+01
 Iteration Nr.  15
 **********************
 DD1Dir will call FoFMem   1 times, MxPair=       156
 NAB=    78 NAA=     0 NBB=     0.
 DE(Z)= -0.87488869     E(Z)=     -312.61566952     Delta=-1.00D-08
 NORM(A)=   0.10921397D+01
 Iteration Nr.  16
 **********************
 DD1Dir will call FoFMem   1 times, MxPair=       156
 NAB=    78 NAA=     0 NBB=     0.
 DE(Z)= -0.87488869     E(Z)=     -312.61566951     Delta= 4.73D-09
 NORM(A)=   0.10921396D+01
 Z-amplitudes converged.
 Discarding MO integrals.
          Differentiating once with respect to electric field.
                with respect to dipole field.
          Electric field/nuclear overlap derivatives assumed to be zero.
 Keep R1 ints in memory in canonical form, NReq=152784335.
          There are     1 degrees of freedom in the 1st order CPHF.  IDoFFX=0 NUNeed=     1.
 LinEq1:  Iter=  0 NonCon=     1 RMS=3.08D-03 Max=8.52D-02 NDo=     1
 AX will form     1 AO Fock derivatives at one time.
 LinEq1:  Iter=  1 NonCon=     1 RMS=7.56D-04 Max=1.10D-02 NDo=     1
 LinEq1:  Iter=  2 NonCon=     1 RMS=2.26D-04 Max=3.41D-03 NDo=     1
 LinEq1:  Iter=  3 NonCon=     1 RMS=9.93D-05 Max=1.51D-03 NDo=     1
 LinEq1:  Iter=  4 NonCon=     1 RMS=2.34D-05 Max=3.49D-04 NDo=     1
 LinEq1:  Iter=  5 NonCon=     1 RMS=1.08D-05 Max=2.45D-04 NDo=     1
 LinEq1:  Iter=  6 NonCon=     1 RMS=2.20D-06 Max=2.81D-05 NDo=     1
 LinEq1:  Iter=  7 NonCon=     1 RMS=3.89D-07 Max=8.30D-06 NDo=     1
 LinEq1:  Iter=  8 NonCon=     1 RMS=8.16D-08 Max=1.33D-06 NDo=     1
 LinEq1:  Iter=  9 NonCon=     1 RMS=1.23D-08 Max=1.78D-07 NDo=     1
 LinEq1:  Iter= 10 NonCon=     1 RMS=1.94D-09 Max=2.24D-08 NDo=     1
 LinEq1:  Iter= 11 NonCon=     1 RMS=4.07D-10 Max=6.17D-09 NDo=     1
 LinEq1:  Iter= 12 NonCon=     0 RMS=5.53D-11 Max=4.52D-10 NDo=     1
 Linear equations converged to 1.000D-10 1.000D-09 after    12 iterations.
 End of Minotr F.D. properties file   721 does not exist.
 End of Minotr F.D. properties file   722 does not exist.
 End of Minotr F.D. properties file   788 does not exist.

 **********************************************************************

            Population analysis using the CC Density.

 **********************************************************************

 Alpha  occ. eigenvalues --  -26.39591 -26.39588 -20.61764 -11.53512  -1.76841
 Alpha  occ. eigenvalues --   -1.69147  -1.46940  -0.96201  -0.86942  -0.82114
 Alpha  occ. eigenvalues --   -0.80830  -0.73050  -0.70951  -0.70162  -0.57093
 Alpha  occ. eigenvalues --   -0.55471
 Alpha virt. eigenvalues --    0.05496   0.07192   0.07785   0.07920   0.15204
 Alpha virt. eigenvalues --    0.17129   0.17220   0.19412   0.19913   0.21489
 Alpha virt. eigenvalues --    0.24884   0.24930   0.26142   0.26375   0.28441
 Alpha virt. eigenvalues --    0.31199   0.34756   0.36125   0.39063   0.41514
 Alpha virt. eigenvalues --    0.44756   0.48923   0.49974   0.52380   0.53777
 Alpha virt. eigenvalues --    0.62838   0.66700   0.69320   0.71647   0.78790
 Alpha virt. eigenvalues --    0.81225   0.81821   0.84894   0.91149   0.93451
 Alpha virt. eigenvalues --    0.96385   0.97377   1.02828   1.04446   1.06844
 Alpha virt. eigenvalues --    1.07474   1.09867   1.10185   1.10928   1.13713
 Alpha virt. eigenvalues --    1.14412   1.18667   1.21951   1.24416   1.26885
 Alpha virt. eigenvalues --    1.27803   1.29835   1.36725   1.41009   1.50612
 Alpha virt. eigenvalues --    1.51830   1.52500   1.55849   1.65573   1.67138
 Alpha virt. eigenvalues --    1.68454   1.76178   1.78598   1.79712   2.04205
 Alpha virt. eigenvalues --    2.22519   2.27883   2.27918   2.33023   2.35922
 Alpha virt. eigenvalues --    2.41178   2.48700   2.54386   2.59500   2.62379
 Alpha virt. eigenvalues --    2.66926   2.70319   2.73450   2.73654   2.77251
 Alpha virt. eigenvalues --    2.80119   2.81672   2.84025   2.88394   2.92589
 Alpha virt. eigenvalues --    2.94158   2.94472   2.94607   3.06503   3.08077
 Alpha virt. eigenvalues --    3.10265   3.10654   3.11360   3.19984   3.23165
 Alpha virt. eigenvalues --    3.31638   3.35902   3.39164   3.46172   3.52338
 Alpha virt. eigenvalues --    3.56312   3.60392   3.63120   3.78913   3.81735
 Alpha virt. eigenvalues --    3.95220   4.01099   4.01527   4.02932   4.07617
 Alpha virt. eigenvalues --    4.20229   4.21056   4.40217   4.41521   4.53134
 Alpha virt. eigenvalues --    4.61129   4.75106   4.77511   4.83563   5.24783
 Alpha virt. eigenvalues --    5.32087   5.46390   5.46862   5.57436   5.73295
 Alpha virt. eigenvalues --    6.13398   6.57148   6.58486   6.68801   6.88686
 Alpha virt. eigenvalues --    7.08925   7.11991   7.18816   7.20656   7.25590
 Alpha virt. eigenvalues --    7.38400   7.50729   7.59995   7.69202   7.69343
 Alpha virt. eigenvalues --    8.78743   8.80102   8.84814   8.86610   9.00135
 Alpha virt. eigenvalues --    9.02498   9.11860   9.13188   9.18953   9.25681
 Alpha virt. eigenvalues --    9.26757   9.30183   9.32645   9.33091   9.33712
 Alpha virt. eigenvalues --    9.34717   9.36969   9.56169   9.61619   9.62649
 Alpha virt. eigenvalues --    9.66575   9.75560   9.87499   9.96225  13.38929
 Alpha virt. eigenvalues --   15.03994  16.03152  17.33302
          Condensed to atoms (all electrons):
               1          2          3          4
     1  O    7.959689   0.495473  -0.079458  -0.079458
     2  C    0.495473   4.524620   0.186584   0.186584
     3  F   -0.079458   0.186584   9.095762  -0.047642
     4  F   -0.079458   0.186584  -0.047642   9.095762
 Mulliken charges:
               1
     1  O   -0.296247
     2  C    0.606740
     3  F   -0.155247
     4  F   -0.155247
 Sum of Mulliken charges =  -0.00000
 Mulliken charges with hydrogens summed into heavy atoms:
               1
     1  O   -0.296247
     2  C    0.606740
     3  F   -0.155247
     4  F   -0.155247
 Electronic spatial extent (au):  <R**2>=            239.5576
 Charge=             -0.0000 electrons
 Dipole moment (field-independent basis, Debye):
    X=             -0.0000    Y=              0.0000    Z=             -1.1414  Tot=              1.1414
 Quadrupole moment (field-independent basis, Debye-Ang):
   XX=            -18.9213   YY=            -21.2802   ZZ=            -21.8406
   XY=              0.0000   XZ=              0.0000   YZ=             -0.0000
 Traceless Quadrupole moment (field-independent basis, Debye-Ang):
   XX=              1.7594   YY=             -0.5995   ZZ=             -1.1599
   XY=              0.0000   XZ=              0.0000   YZ=             -0.0000
 Octapole moment (field-independent basis, Debye-Ang**2):
  XXX=              0.0000  YYY=              0.0000  ZZZ=             34.2129  XYY=              0.0000
  XXY=              0.0000  XXZ=             10.3299  XZZ=             -0.0000  YZZ=              0.0000
  YYZ=             11.9487  XYZ=              0.0000
 Hexadecapole moment (field-independent basis, Debye-Ang**3):
 XXXX=            -13.5246 YYYY=            -79.7140 ZZZZ=           -132.4714 XXXY=              0.0000
 XXXZ=              0.0000 YYYX=              0.0000 YYYZ=             -0.0000 ZZZX=             -0.0000
 ZZZY=             -0.0000 XXYY=            -15.6217 XXZZ=            -23.5807 YYZZ=            -36.1281
 XXYZ=             -0.0000 YYXZ=              0.0000 ZZXY=             -0.0000
 N-N= 1.199538589938D+02 E-N=-9.819168711875D+02  KE= 3.123638235476D+02
 There are a total of       93060 grid points.
 ElSum from          density=       32.0000004667
 ElSum from atomic densities=       32.0000001121

 Hirshfeld populations at iteration   1 (CX, CA, CB, DipXYZ):
               1          2          3          4          5          6
     1  O    0.000004   4.112413   4.112413   0.000000   0.000000  -0.056160
     2  C    0.000000   2.820045   2.820045   0.000000   0.000000  -0.160752
     3  F    0.000001   4.533771   4.533771   0.000000   0.036380   0.037788
     4  F    0.000001   4.533771   4.533771   0.000000  -0.036380   0.037788
       Tot   0.000007  16.000000  16.000000   0.000000   0.000000  -0.141337

 Dip from Atomic Chgs              0.000000  -0.000000  -0.307708
         Total Dipole              0.000000   0.000000  -0.449044

 Hirshfeld charges, spin densities, dipoles, and CM5 charges using IRadAn=      5:
              Q-H        S-H        Dx         Dy         Dz        Q-CM5   
     1  O   -0.224827   0.000000   0.000000   0.000000  -0.056160  -0.267070
     2  C    0.359910   0.000000   0.000000   0.000000  -0.160752   0.439993
     3  F   -0.067542   0.000000   0.000000   0.036380   0.037788  -0.086462
     4  F   -0.067542   0.000000   0.000000  -0.036380   0.037788  -0.086462
       Tot  -0.000000   0.000000   0.000000   0.000000  -0.141337  -0.000000
 Hirshfeld charges with hydrogens summed into heavy atoms:
              Q-H       Q-CM5   
     1  O   -0.224827  -0.267070
     2  C    0.359910   0.439993
     3  F   -0.067542  -0.086462
     4  F   -0.067542  -0.086462
 
 EQQ= 0.000000000000E+00 EQD= 0.000000000000E+00 EDD=-0.573119781047E-04
 EQQ+QD+DD=-0.573119781047E-04
 
 Breneman (CHELPG) radii used.
 Generate Potential Derived Charges using the Breneman model, NDens= 1.
 Grid spacing= 0.300 Box extension= 2.800
 NStep X,Y,Z=   20     27     27   Total possible points=       14580
 Number of Points to Fit=    4710

 **********************************************************************

            Electrostatic Properties Using The CC Density.

 **********************************************************************

       Atomic Center    1 is at   0.000000  0.000000  0.679927
       Atomic Center    2 is at   0.000000  0.000000 -0.502216
       Atomic Center    3 is at   0.000000 -1.058878 -1.264305
       Atomic Center    4 is at   0.000000  1.058878 -1.264305
    4710 points will be used for fitting atomic charges
 Fitting point charges to electrostatic potential
 The dipole moment will be constrained to the correct value
 Charges from ESP fit, RMS=   0.00231 RRMS=   0.17310:
 ESP charges:
               1
     1  O   -0.472504
     2  C    0.893640
     3  F   -0.210568
     4  F   -0.210568
 Sum of ESP charges =   0.00000
 ESP charges with hydrogens summed into heavy atoms:
               1
     1  O   -0.472504
     2  C    0.893640
     3  F   -0.210568
     4  F   -0.210568
 Charge=   0.00000 Dipole=     0.0000     0.0000    -1.1414 Tot=     1.1414
 -----------------------------------------------------------------

              Electrostatic Properties (Atomic Units)

 -----------------------------------------------------------------
    Center     Electric         -------- Electric Field --------
               Potential          X             Y             Z
 -----------------------------------------------------------------
    1 Atom    -22.292500
    2 Atom    -14.476132
    3 Atom    -26.489574
    4 Atom    -26.489574
 -----------------------------------------------------------------
 ******************************Gaussian NBO Version 3.1******************************
             N A T U R A L   A T O M I C   O R B I T A L   A N D
          N A T U R A L   B O N D   O R B I T A L   A N A L Y S I S
 ******************************Gaussian NBO Version 3.1******************************
       /RESON  / : Allow strongly delocalized NBO set

 Analyzing the QCI/CC density

 Job title: f2co-wavefunction                                               

 Storage needed:    102424 in NPA (2147483536 available)
 GSVD:  LWork=          64 too small for GESVD, short by       66368 words or       66368 for optimal perf.


 NATURAL POPULATIONS:  Natural atomic orbital occupancies 
                                                          
   NAO  Atom  No  lang   Type(AO)    Occupancy
 --------------------------------------------
     1    O    1  S      Cor( 1S)     1.99950
     2    O    1  S      Val( 2S)     1.71813
     3    O    1  S      Ryd( 3S)     0.00640
     4    O    1  S      Ryd( 4S)     0.00036
     5    O    1  S      Ryd( 5S)     0.00019
     6    O    1  px     Val( 2p)     1.42394
     7    O    1  px     Ryd( 3p)     0.00813
     8    O    1  px     Ryd( 4p)     0.00055
     9    O    1  px     Ryd( 5p)     0.00009
    10    O    1  py     Val( 2p)     1.78096
    11    O    1  py     Ryd( 3p)     0.01146
    12    O    1  py     Ryd( 4p)     0.00067
    13    O    1  py     Ryd( 5p)     0.00010
    14    O    1  pz     Val( 2p)     1.50351
    15    O    1  pz     Ryd( 3p)     0.00687
    16    O    1  pz     Ryd( 4p)     0.00042
    17    O    1  pz     Ryd( 5p)     0.00006
    18    O    1  dxy    Ryd( 3d)     0.00566
    19    O    1  dxy    Ryd( 4d)     0.00045
    20    O    1  dxy    Ryd( 5d)     0.00006
    21    O    1  dxz    Ryd( 3d)     0.01163
    22    O    1  dxz    Ryd( 4d)     0.00039
    23    O    1  dxz    Ryd( 5d)     0.00011
    24    O    1  dyz    Ryd( 3d)     0.01099
    25    O    1  dyz    Ryd( 4d)     0.00043
    26    O    1  dyz    Ryd( 5d)     0.00008
    27    O    1  dx2y2  Ryd( 3d)     0.00565
    28    O    1  dx2y2  Ryd( 4d)     0.00047
    29    O    1  dx2y2  Ryd( 5d)     0.00008
    30    O    1  dz2    Ryd( 3d)     0.01919
    31    O    1  dz2    Ryd( 4d)     0.00047
    32    O    1  dz2    Ryd( 5d)     0.00014
    33    O    1  f(0)   Ryd( 4f)     0.00092
    34    O    1  f(0)   Ryd( 5f)     0.00009
    35    O    1  f(C1)  Ryd( 4f)     0.00052
    36    O    1  f(C1)  Ryd( 5f)     0.00010
    37    O    1  f(S1)  Ryd( 4f)     0.00057
    38    O    1  f(S1)  Ryd( 5f)     0.00010
    39    O    1  f(C2)  Ryd( 4f)     0.00050
    40    O    1  f(C2)  Ryd( 5f)     0.00008
    41    O    1  f(S2)  Ryd( 4f)     0.00049
    42    O    1  f(S2)  Ryd( 5f)     0.00008
    43    O    1  f(C3)  Ryd( 4f)     0.00047
    44    O    1  f(C3)  Ryd( 5f)     0.00006
    45    O    1  f(S3)  Ryd( 4f)     0.00047
    46    O    1  f(S3)  Ryd( 5f)     0.00006

    47    C    2  S      Cor( 1S)     1.99936
    48    C    2  S      Val( 2S)     0.69092
    49    C    2  S      Ryd( 3S)     0.00528
    50    C    2  S      Ryd( 4S)     0.00012
    51    C    2  S      Ryd( 5S)     0.00008
    52    C    2  px     Val( 2p)     0.72846
    53    C    2  px     Ryd( 3p)     0.00470
    54    C    2  px     Ryd( 4p)     0.00050
    55    C    2  px     Ryd( 5p)     0.00013
    56    C    2  py     Val( 2p)     0.64772
    57    C    2  py     Ryd( 3p)     0.01377
    58    C    2  py     Ryd( 4p)     0.00030
    59    C    2  py     Ryd( 5p)     0.00021
    60    C    2  pz     Val( 2p)     0.71154
    61    C    2  pz     Ryd( 3p)     0.02272
    62    C    2  pz     Ryd( 4p)     0.00028
    63    C    2  pz     Ryd( 5p)     0.00016
    64    C    2  dxy    Ryd( 3d)     0.00625
    65    C    2  dxy    Ryd( 4d)     0.00021
    66    C    2  dxy    Ryd( 5d)     0.00017
    67    C    2  dxz    Ryd( 3d)     0.00852
    68    C    2  dxz    Ryd( 4d)     0.00026
    69    C    2  dxz    Ryd( 5d)     0.00019
    70    C    2  dyz    Ryd( 3d)     0.00989
    71    C    2  dyz    Ryd( 5d)     0.00020
    72    C    2  dyz    Ryd( 4d)     0.00025
    73    C    2  dx2y2  Ryd( 3d)     0.00402
    74    C    2  dx2y2  Ryd( 4d)     0.00039
    75    C    2  dx2y2  Ryd( 5d)     0.00011
    76    C    2  dz2    Ryd( 3d)     0.00491
    77    C    2  dz2    Ryd( 4d)     0.00030
    78    C    2  dz2    Ryd( 5d)     0.00016
    79    C    2  f(0)   Ryd( 4f)     0.00040
    80    C    2  f(0)   Ryd( 5f)     0.00016
    81    C    2  f(C1)  Ryd( 4f)     0.00034
    82    C    2  f(C1)  Ryd( 5f)     0.00020
    83    C    2  f(S1)  Ryd( 4f)     0.00051
    84    C    2  f(S1)  Ryd( 5f)     0.00015
    85    C    2  f(C2)  Ryd( 4f)     0.00042
    86    C    2  f(C2)  Ryd( 5f)     0.00013
    87    C    2  f(S2)  Ryd( 4f)     0.00051
    88    C    2  f(S2)  Ryd( 5f)     0.00013
    89    C    2  f(C3)  Ryd( 4f)     0.00036
    90    C    2  f(C3)  Ryd( 5f)     0.00023
    91    C    2  f(S3)  Ryd( 4f)     0.00032
    92    C    2  f(S3)  Ryd( 5f)     0.00016

    93    F    3  S      Cor( 1S)     1.99980
    94    F    3  S      Val( 2S)     1.84358
    95    F    3  S      Ryd( 3S)     0.00614
    96    F    3  S      Ryd( 4S)     0.00026
    97    F    3  S      Ryd( 5S)     0.00019
    98    F    3  px     Val( 2p)     1.87703
    99    F    3  px     Ryd( 3p)     0.01175
   100    F    3  px     Ryd( 4p)     0.00066
   101    F    3  px     Ryd( 5p)     0.00010
   102    F    3  py     Val( 2p)     1.69174
   103    F    3  py     Ryd( 3p)     0.00836
   104    F    3  py     Ryd( 4p)     0.00057
   105    F    3  py     Ryd( 5p)     0.00009
   106    F    3  pz     Val( 2p)     1.81243
   107    F    3  pz     Ryd( 3p)     0.00993
   108    F    3  pz     Ryd( 4p)     0.00062
   109    F    3  pz     Ryd( 5p)     0.00010
   110    F    3  dxy    Ryd( 3d)     0.00701
   111    F    3  dxy    Ryd( 4d)     0.00052
   112    F    3  dxy    Ryd( 5d)     0.00008
   113    F    3  dxz    Ryd( 3d)     0.00575
   114    F    3  dxz    Ryd( 4d)     0.00051
   115    F    3  dxz    Ryd( 5d)     0.00007
   116    F    3  dyz    Ryd( 3d)     0.00932
   117    F    3  dyz    Ryd( 4d)     0.00050
   118    F    3  dyz    Ryd( 5d)     0.00009
   119    F    3  dx2y2  Ryd( 3d)     0.00730
   120    F    3  dx2y2  Ryd( 4d)     0.00054
   121    F    3  dx2y2  Ryd( 5d)     0.00012
   122    F    3  dz2    Ryd( 3d)     0.00615
   123    F    3  dz2    Ryd( 4d)     0.00047
   124    F    3  dz2    Ryd( 5d)     0.00008
   125    F    3  f(0)   Ryd( 4f)     0.00051
   126    F    3  f(0)   Ryd( 5f)     0.00009
   127    F    3  f(C1)  Ryd( 4f)     0.00044
   128    F    3  f(C1)  Ryd( 5f)     0.00007
   129    F    3  f(S1)  Ryd( 4f)     0.00056
   130    F    3  f(S1)  Ryd( 5f)     0.00010
   131    F    3  f(C2)  Ryd( 4f)     0.00063
   132    F    3  f(C2)  Ryd( 5f)     0.00010
   133    F    3  f(S2)  Ryd( 4f)     0.00052
   134    F    3  f(S2)  Ryd( 5f)     0.00009
   135    F    3  f(C3)  Ryd( 4f)     0.00049
   136    F    3  f(C3)  Ryd( 5f)     0.00008
   137    F    3  f(S3)  Ryd( 4f)     0.00051
   138    F    3  f(S3)  Ryd( 5f)     0.00009

   139    F    4  S      Cor( 1S)     1.99980
   140    F    4  S      Val( 2S)     1.84358
   141    F    4  S      Ryd( 3S)     0.00614
   142    F    4  S      Ryd( 4S)     0.00026
   143    F    4  S      Ryd( 5S)     0.00019
   144    F    4  px     Val( 2p)     1.87703
   145    F    4  px     Ryd( 3p)     0.01175
   146    F    4  px     Ryd( 4p)     0.00066
   147    F    4  px     Ryd( 5p)     0.00010
   148    F    4  py     Val( 2p)     1.69174
   149    F    4  py     Ryd( 3p)     0.00836
   150    F    4  py     Ryd( 4p)     0.00057
   151    F    4  py     Ryd( 5p)     0.00009
   152    F    4  pz     Val( 2p)     1.81243
   153    F    4  pz     Ryd( 3p)     0.00993
   154    F    4  pz     Ryd( 4p)     0.00062
   155    F    4  pz     Ryd( 5p)     0.00010
   156    F    4  dxy    Ryd( 3d)     0.00701
   157    F    4  dxy    Ryd( 4d)     0.00052
   158    F    4  dxy    Ryd( 5d)     0.00008
   159    F    4  dxz    Ryd( 3d)     0.00575
   160    F    4  dxz    Ryd( 4d)     0.00051
   161    F    4  dxz    Ryd( 5d)     0.00007
   162    F    4  dyz    Ryd( 3d)     0.00932
   163    F    4  dyz    Ryd( 4d)     0.00050
   164    F    4  dyz    Ryd( 5d)     0.00009
   165    F    4  dx2y2  Ryd( 3d)     0.00730
   166    F    4  dx2y2  Ryd( 4d)     0.00054
   167    F    4  dx2y2  Ryd( 5d)     0.00012
   168    F    4  dz2    Ryd( 3d)     0.00615
   169    F    4  dz2    Ryd( 4d)     0.00047
   170    F    4  dz2    Ryd( 5d)     0.00008
   171    F    4  f(0)   Ryd( 4f)     0.00051
   172    F    4  f(0)   Ryd( 5f)     0.00009
   173    F    4  f(C1)  Ryd( 4f)     0.00044
   174    F    4  f(C1)  Ryd( 5f)     0.00007
   175    F    4  f(S1)  Ryd( 4f)     0.00056
   176    F    4  f(S1)  Ryd( 5f)     0.00010
   177    F    4  f(C2)  Ryd( 4f)     0.00063
   178    F    4  f(C2)  Ryd( 5f)     0.00010
   179    F    4  f(S2)  Ryd( 4f)     0.00052
   180    F    4  f(S2)  Ryd( 5f)     0.00009
   181    F    4  f(C3)  Ryd( 4f)     0.00049
   182    F    4  f(C3)  Ryd( 5f)     0.00008
   183    F    4  f(S3)  Ryd( 4f)     0.00051
   184    F    4  f(S3)  Ryd( 5f)     0.00009


 Summary of Natural Population Analysis:                  
                                                          
                                       Natural Population 
                Natural  -----------------------------------------------
    Atom  No    Charge         Core      Valence    Rydberg      Total
 -----------------------------------------------------------------------
      O    1   -0.52165      1.99950     6.42654    0.09561     8.52165
      C    2    1.13389      1.99936     2.77864    0.08811     4.86611
      F    3   -0.30612      1.99980     7.22478    0.08155     9.30612
      F    4   -0.30612      1.99980     7.22478    0.08155     9.30612
 =======================================================================
   * Total *    0.00000      7.99846    23.65473    0.34681    32.00000

                                 Natural Population      
 --------------------------------------------------------
   Core                       7.99846 ( 99.9807% of   8)
   Valence                   23.65473 ( 98.5614% of  24)
   Natural Minimal Basis     31.65319 ( 98.9162% of  32)
   Natural Rydberg Basis      0.34681 (  1.0838% of  32)
 --------------------------------------------------------

    Atom  No          Natural Electron Configuration
 ----------------------------------------------------------------------------
      O    1      [core]2S( 1.72)2p( 4.71)3S( 0.01)3p( 0.03)3d( 0.05)
      C    2      [core]2S( 0.69)2p( 2.09)3S( 0.01)3p( 0.04)3d( 0.03)
      F    3      [core]2S( 1.84)2p( 5.38)3S( 0.01)3p( 0.03)3d( 0.04)
      F    4      [core]2S( 1.84)2p( 5.38)3S( 0.01)3p( 0.03)3d( 0.04)


 NBO analysis skipped by request.
 Unable to Open any file for archive entry.
 1\1\GINC-TRAPISTA\SP\RQCISD-FC\Aug-CC-pVTZ\C1F2O1\WAGNER\03-Sep-2022\0
 \\# qcisd/aug-cc-pvtz nosymm density=current pop=(chelpg,hirshfeld,npa
 ,dipole)\\f2co-wavefunction\\0,1\O,0,0.,0.,0.679927\C,0,0.,0.,-0.50221
 6\F,0,0.,-1.058878,-1.264305\F,0,0.,1.058878,-1.264305\\Version=EM64L-
 G16RevC.01\HF=-311.7407808\MP2=-312.6370053\MP3=-312.6243537\MP4D=-312
 .6400098\MP4DQ=-312.6239154\MP4SDQ=-312.6355788\QCISD=-312.6350832\RMS
 D=8.370e-09\Dipole=0.,0.,-0.449045\Quadrupole=1.3080846,-0.445727,-0.8
 623576,0.,0.,0.\PG=C02V [C2(C1O1),SGV(F2)]\\@
 The archive entry for this job was punched.


 We're simply so accustomed to the marvels of everyday thought
 that we never wonder about it.
 -- Marvin Minsky in "Why people think computers are smart"
 Job cpu time:       0 days  6 hours 28 minutes  7.1 seconds.
 Elapsed time:       0 days  0 hours 24 minutes 34.7 seconds.
 File lengths (MBytes):  RWF=  21297 Int=      0 D2E=      0 Chk=      4 Scr=      1
 Normal termination of Gaussian 16 at Sat Sep  3 03:45:42 2022.
