 Entering Gaussian System, Link 0=/home/wagner/chemistry/gaussian/g16/g16
 Input=GAUSSIAN.com
 Output=GAUSSIAN.log
 Initial command:
 /home/wagner/chemistry/gaussian/g16/l1.exe "/home/wagner/chemistry/gaussian/work/Gau-80359.inp" -scrdir="/home/wagner/chemistry/gaussian/work/"
 Entering Link 1 = /home/wagner/chemistry/gaussian/g16/l1.exe PID=     80361.
  
 Copyright (c) 1988-2019, Gaussian, Inc.  All Rights Reserved.
  
 This is part of the Gaussian(R) 16 program.  It is based on
 the Gaussian(R) 09 system (copyright 2009, Gaussian, Inc.),
 the Gaussian(R) 03 system (copyright 2003, Gaussian, Inc.),
 the Gaussian(R) 98 system (copyright 1998, Gaussian, Inc.),
 the Gaussian(R) 94 system (copyright 1995, Gaussian, Inc.),
 the Gaussian 92(TM) system (copyright 1992, Gaussian, Inc.),
 the Gaussian 90(TM) system (copyright 1990, Gaussian, Inc.),
 the Gaussian 88(TM) system (copyright 1988, Gaussian, Inc.),
 the Gaussian 86(TM) system (copyright 1986, Carnegie Mellon
 University), and the Gaussian 82(TM) system (copyright 1983,
 Carnegie Mellon University). Gaussian is a federally registered
 trademark of Gaussian, Inc.
  
 This software contains proprietary and confidential information,
 including trade secrets, belonging to Gaussian, Inc.
  
 This software is provided under written license and may be
 used, copied, transmitted, or stored only in accord with that
 written license.
  
 The following legend is applicable only to US Government
 contracts under FAR:
  
                    RESTRICTED RIGHTS LEGEND
  
 Use, reproduction and disclosure by the US Government is
 subject to restrictions as set forth in subparagraphs (a)
 and (c) of the Commercial Computer Software - Restricted
 Rights clause in FAR 52.227-19.
  
 Gaussian, Inc.
 340 Quinnipiac St., Bldg. 40, Wallingford CT 06492
  
  
 ---------------------------------------------------------------
 Warning -- This program may not be used in any manner that
 competes with the business of Gaussian, Inc. or will provide
 assistance to any competitor of Gaussian, Inc.  The licensee
 of this program is prohibited from giving any competitor of
 Gaussian, Inc. access to this program.  By using this program,
 the user acknowledges that Gaussian, Inc. is engaged in the
 business of creating and licensing software in the field of
 computational chemistry and represents and warrants to the
 licensee that it is not a competitor of Gaussian, Inc. and that
 it will not use this program in any manner prohibited above.
 ---------------------------------------------------------------
  

 Cite this work as:
 Gaussian 16, Revision C.01,
 M. J. Frisch, G. W. Trucks, H. B. Schlegel, G. E. Scuseria, 
 M. A. Robb, J. R. Cheeseman, G. Scalmani, V. Barone, 
 G. A. Petersson, H. Nakatsuji, X. Li, M. Caricato, A. V. Marenich, 
 J. Bloino, B. G. Janesko, R. Gomperts, B. Mennucci, H. P. Hratchian, 
 J. V. Ortiz, A. F. Izmaylov, J. L. Sonnenberg, D. Williams-Young, 
 F. Ding, F. Lipparini, F. Egidi, J. Goings, B. Peng, A. Petrone, 
 T. Henderson, D. Ranasinghe, V. G. Zakrzewski, J. Gao, N. Rega, 
 G. Zheng, W. Liang, M. Hada, M. Ehara, K. Toyota, R. Fukuda, 
 J. Hasegawa, M. Ishida, T. Nakajima, Y. Honda, O. Kitao, H. Nakai, 
 T. Vreven, K. Throssell, J. A. Montgomery, Jr., J. E. Peralta, 
 F. Ogliaro, M. J. Bearpark, J. J. Heyd, E. N. Brothers, K. N. Kudin, 
 V. N. Staroverov, T. A. Keith, R. Kobayashi, J. Normand, 
 K. Raghavachari, A. P. Rendell, J. C. Burant, S. S. Iyengar, 
 J. Tomasi, M. Cossi, J. M. Millam, M. Klene, C. Adamo, R. Cammi, 
 J. W. Ochterski, R. L. Martin, K. Morokuma, O. Farkas, 
 J. B. Foresman, and D. J. Fox, Gaussian, Inc., Wallingford CT, 2019.
 
 ******************************************
 Gaussian 16:  EM64L-G16RevC.01  3-Jul-2019
                 3-Sep-2022 
 ******************************************
 %nproc=16
 Will use up to   16 processors via shared memory.
 %mem=16GB
 ----------------------------------------------------------------------
 # qcisd/aug-cc-pvtz nosymm density=current pop=(chelpg,hirshfeld,npa,d
 ipole)
 ----------------------------------------------------------------------
 1/30=1,38=1,172=1/1;
 2/12=2,15=1,17=6,18=5,40=1/2;
 3/5=16,6=1,7=10,11=9,25=1,30=1,71=1/1,2,3;
 4//1;
 5/5=2,38=5/2;
 8/6=4,9=120000,10=1/1,4;
 9/5=8,15=1/13;
 11/28=-7,31=1,32=3,42=3/11;
 10/5=6,13=10,31=1/2;
 6/7=2,8=2,9=2,10=2,15=24,20=3,22=-1,40=-1,79=1/1,2,7;
 99/5=1,9=1/99;
 -----------------
 f2co-wavefunction
 -----------------
 Symbolic Z-matrix:
 Charge =  0 Multiplicity = 1
 O                     0.       -0.01      0.67993 
 C                     0.        0.       -0.49222 
 F                     0.       -1.05888  -1.26431 
 F                     0.        1.05888  -1.26431 
 
                          Input orientation:                          
 ---------------------------------------------------------------------
 Center     Atomic      Atomic             Coordinates (Angstroms)
 Number     Number       Type             X           Y           Z
 ---------------------------------------------------------------------
      1          8           0        0.000000   -0.010000    0.679927
      2          6           0        0.000000    0.000000   -0.492216
      3          9           0        0.000000   -1.058878   -1.264305
      4          9           0        0.000000    1.058878   -1.264305
 ---------------------------------------------------------------------
                    Distance matrix (angstroms):
                    1          2          3          4
     1  O    0.000000
     2  C    1.172186   0.000000
     3  F    2.209114   1.310475   0.000000
     4  F    2.218679   1.310475   2.117756   0.000000
 Symmetry turned off by external request.
 Stoichiometry    CF2O
 Framework group  CS[SG(CF2O)]
 Deg. of freedom     5
 Full point group                 CS      NOp   2
 Rotational constants (GHZ):          11.8917627          11.7439039           5.9086854
 Standard basis: Aug-CC-pVTZ (5D, 7F)
   184 basis functions,   288 primitive gaussians,   220 cartesian basis functions
    16 alpha electrons       16 beta electrons
       nuclear repulsion energy       119.9401595773 Hartrees.
 NAtoms=    4 NActive=    4 NUniq=    4 SFac= 1.00D+00 NAtFMM=   60 NAOKFM=F Big=F
 Integral buffers will be    131072 words long.
 Raffenetti 1 integral format.
 Two-electron integral symmetry is turned off.
 One-electron integrals computed using PRISM.
 NBasis=   184 RedAO= T EigKep=  3.49D-04  NBF=   184
 NBsUse=   184 1.00D-06 EigRej= -1.00D+00 NBFU=   184
 ExpMin= 3.57D-02 ExpMax= 1.95D+04 ExpMxC= 6.65D+02 IAcc=3 IRadAn=         5 AccDes= 0.00D+00
 Harris functional with IExCor=  205 and IRadAn=       5 diagonalized for initial guess.
 HarFok:  IExCor=  205 AccDes= 0.00D+00 IRadAn=         5 IDoV= 1 UseB2=F ITyADJ=14
 ICtDFT=  3500011 ScaDFX=  1.000000  1.000000  1.000000  1.000000
 FoFCou: FMM=F IPFlag=           0 FMFlag=      100000 FMFlg1=           0
         NFxFlg=           0 DoJE=T BraDBF=F KetDBF=T FulRan=T
         wScrn=  0.000000 ICntrl=       500 IOpCl=  0 I1Cent=   200000004 NGrid=           0
         NMat0=    1 NMatS0=      1 NMatT0=    0 NMatD0=    1 NMtDS0=    0 NMtDT0=    0
 Symmetry not used in FoFCou.
 Keep R1 ints in memory in canonical form, NReq=152781367.
 Requested convergence on RMS density matrix=1.00D-08 within 128 cycles.
 Requested convergence on MAX density matrix=1.00D-06.
 Requested convergence on             energy=1.00D-06.
 No special actions if energy rises.
 SCF Done:  E(RHF) =  -311.741214761     A.U. after   11 cycles
            NFock= 11  Conv=0.82D-08     -V/T= 2.0014
 ExpMin= 3.57D-02 ExpMax= 1.95D+04 ExpMxC= 6.65D+02 IAcc=3 IRadAn=         5 AccDes= 0.00D+00
 HarFok:  IExCor=  205 AccDes= 0.00D+00 IRadAn=         5 IDoV=-2 UseB2=F ITyADJ=14
 ICtDFT= 12500011 ScaDFX=  1.000000  1.000000  1.000000  1.000000
 Range of M.O.s used for correlation:     5   184
 NBasis=   184 NAE=    16 NBE=    16 NFC=     4 NFV=     0
 NROrb=    180 NOA=    12 NOB=    12 NVA=   168 NVB=   168

 **** Warning!!: The largest alpha MO coefficient is  0.15543673D+02

 Semi-Direct transformation.
 ModeAB=           2 MOrb=            12 LenV=    2146514573
 LASXX=     33405819 LTotXX=    33405819 LenRXX=    33405819
 LTotAB=    33954012 MaxLAS=    52509600 LenRXY=    52509600
 NonZer=    66811638 LenScr=   100987392 LnRSAI=           0
 LnScr1=           0 LExtra=           0 Total=    186902811
 MaxDsk=          -1 SrtSym=           F ITran=            4
 JobTyp=0 Pass  1:  I=   1 to  12.
 (rs|ai) integrals will be sorted in core.
 Spin components of T(2) and E(2):
     alpha-alpha T2 =       0.2657429044D-01 E2=     -0.1191097468D+00
     alpha-beta  T2 =       0.1371298494D+00 E2=     -0.6576912298D+00
     beta-beta   T2 =       0.2657429044D-01 E2=     -0.1191097468D+00
 ANorm=    0.1090998822D+01
 E2 =    -0.8959107234D+00 EUMP2 =    -0.31263712548452D+03
 Keep R2 and R3 ints in memory in canonical form, NReq=297638879.
 CIDS: In Core Option IDoMem=           1.
 Iterations=  50 Convergence= 0.100D-07
 Produce multiple copies of IABC intergrals
 Iteration Nr.   1
 **********************
 DD1Dir will call FoFMem   1 times, MxPair=       156
 NAB=    78 NAA=     0 NBB=     0.
 MP4(R+Q)=  0.16057490D-01
 E3=        0.12501602D-01        EUMP3=      -0.31262462388D+03
 E4(DQ)=    0.45687847D-03        UMP4(DQ)=   -0.31262416700D+03
 E4(SDQ)=  -0.11147206D-01        UMP4(SDQ)=  -0.31263577109D+03
 DE(Corr)= -0.86735163     E(Corr)=     -312.60856639    
 NORM(A)=   0.10858777D+01
 Iteration Nr.   2
 **********************
 DD1Dir will call FoFMem   1 times, MxPair=       156
 NAB=    78 NAA=     0 NBB=     0.
 DE(Corr)= -0.89322086     E(CORR)=     -312.63443562     Delta=-2.59D-02
 NORM(A)=   0.10931779D+01
 Iteration Nr.   3
 **********************
 DD1Dir will call FoFMem   1 times, MxPair=       156
 NAB=    78 NAA=     0 NBB=     0.
 DE(Corr)= -0.89146246     E(CORR)=     -312.63267722     Delta= 1.76D-03
 NORM(A)=   0.10954097D+01
 Iteration Nr.   4
 **********************
 DD1Dir will call FoFMem   1 times, MxPair=       156
 NAB=    78 NAA=     0 NBB=     0.
 DE(Corr)= -0.89376543     E(CORR)=     -312.63498020     Delta=-2.30D-03
 NORM(A)=   0.10962162D+01
 Iteration Nr.   5
 **********************
 DD1Dir will call FoFMem   1 times, MxPair=       156
 NAB=    78 NAA=     0 NBB=     0.
 DE(Corr)= -0.89403129     E(CORR)=     -312.63524605     Delta=-2.66D-04
 NORM(A)=   0.10963987D+01
 Iteration Nr.   6
 **********************
 DD1Dir will call FoFMem   1 times, MxPair=       156
 NAB=    78 NAA=     0 NBB=     0.
 DE(Corr)= -0.89405779     E(CORR)=     -312.63527255     Delta=-2.65D-05
 NORM(A)=   0.10964120D+01
 Iteration Nr.   7
 **********************
 DD1Dir will call FoFMem   1 times, MxPair=       156
 NAB=    78 NAA=     0 NBB=     0.
 DE(Corr)= -0.89405941     E(CORR)=     -312.63527418     Delta=-1.62D-06
 NORM(A)=   0.10964118D+01
 Iteration Nr.   8
 **********************
 DD1Dir will call FoFMem   1 times, MxPair=       156
 NAB=    78 NAA=     0 NBB=     0.
 DE(Corr)= -0.89405840     E(CORR)=     -312.63527316     Delta= 1.01D-06
 NORM(A)=   0.10964123D+01
 Iteration Nr.   9
 **********************
 DD1Dir will call FoFMem   1 times, MxPair=       156
 NAB=    78 NAA=     0 NBB=     0.
 DE(Corr)= -0.89405880     E(CORR)=     -312.63527356     Delta=-4.00D-07
 NORM(A)=   0.10964123D+01
 Iteration Nr.  10
 **********************
 DD1Dir will call FoFMem   1 times, MxPair=       156
 NAB=    78 NAA=     0 NBB=     0.
 DE(Corr)= -0.89405870     E(CORR)=     -312.63527346     Delta= 1.01D-07
 NORM(A)=   0.10964125D+01
 Iteration Nr.  11
 **********************
 DD1Dir will call FoFMem   1 times, MxPair=       156
 NAB=    78 NAA=     0 NBB=     0.
 DE(Corr)= -0.89405917     E(CORR)=     -312.63527393     Delta=-4.72D-07
 NORM(A)=   0.10964128D+01
 Iteration Nr.  12
 **********************
 DD1Dir will call FoFMem   1 times, MxPair=       156
 NAB=    78 NAA=     0 NBB=     0.
 DE(Corr)= -0.89405920     E(CORR)=     -312.63527396     Delta=-3.35D-08
 NORM(A)=   0.10964129D+01
 Iteration Nr.  13
 **********************
 DD1Dir will call FoFMem   1 times, MxPair=       156
 NAB=    78 NAA=     0 NBB=     0.
 DE(Corr)= -0.89405930     E(CORR)=     -312.63527406     Delta=-9.62D-08
 NORM(A)=   0.10964130D+01
 Iteration Nr.  14
 **********************
 DD1Dir will call FoFMem   1 times, MxPair=       156
 NAB=    78 NAA=     0 NBB=     0.
 DE(Corr)= -0.89405932     E(CORR)=     -312.63527408     Delta=-1.60D-08
 NORM(A)=   0.10964131D+01
 Iteration Nr.  15
 **********************
 DD1Dir will call FoFMem   1 times, MxPair=       156
 NAB=    78 NAA=     0 NBB=     0.
 DE(Corr)= -0.89405932     E(CORR)=     -312.63527409     Delta=-9.11D-09
 NORM(A)=   0.10964131D+01
 Wavefunction amplitudes converged. E(Corr)=     -312.63527409    
 Largest amplitude= 5.78D-02

 Z-amplitude iterations

 Iteration Nr.   1
 **********************
 DD1Dir will call FoFMem   1 times, MxPair=       156
 NAB=    78 NAA=     0 NBB=     0.
 DE(Z)= -0.87475549     E(Z)=     -312.61597025     Delta= 1.93D-02
 NORM(A)=   0.10964369D+01
 Iteration Nr.   2
 **********************
 DD1Dir will call FoFMem   1 times, MxPair=       156
 NAB=    78 NAA=     0 NBB=     0.
 DE(Z)= -0.87475557     E(Z)=     -312.61597033     Delta=-8.20D-08
 NORM(A)=   0.10964254D+01
 Iteration Nr.   3
 **********************
 DD1Dir will call FoFMem   1 times, MxPair=       156
 NAB=    78 NAA=     0 NBB=     0.
 DE(Z)= -0.87475563     E(Z)=     -312.61597039     Delta=-6.08D-08
 NORM(A)=   0.10964467D+01
 Iteration Nr.   4
 **********************
 DD1Dir will call FoFMem   1 times, MxPair=       156
 NAB=    78 NAA=     0 NBB=     0.
 DE(Z)= -0.87475576     E(Z)=     -312.61597052     Delta=-1.32D-07
 NORM(A)=   0.10964599D+01
 Iteration Nr.   5
 **********************
 DD1Dir will call FoFMem   1 times, MxPair=       156
 NAB=    78 NAA=     0 NBB=     0.
 DE(Z)= -0.87475612     E(Z)=     -312.61597088     Delta=-3.58D-07
 NORM(A)=   0.10919710D+01
 Iteration Nr.   6
 **********************
 DD1Dir will call FoFMem   1 times, MxPair=       156
 NAB=    78 NAA=     0 NBB=     0.
 DE(Z)= -0.87469985     E(Z)=     -312.61591461     Delta= 5.63D-05
 NORM(A)=   0.10919711D+01
 Iteration Nr.   7
 **********************
 DD1Dir will call FoFMem   1 times, MxPair=       156
 NAB=    78 NAA=     0 NBB=     0.
 DE(Z)= -0.87469876     E(Z)=     -312.61591352     Delta= 1.09D-06
 NORM(A)=   0.10919709D+01
 Iteration Nr.   8
 **********************
 DD1Dir will call FoFMem   1 times, MxPair=       156
 NAB=    78 NAA=     0 NBB=     0.
 DE(Z)= -0.87469891     E(Z)=     -312.61591367     Delta=-1.48D-07
 NORM(A)=   0.10919709D+01
 Iteration Nr.   9
 **********************
 DD1Dir will call FoFMem   1 times, MxPair=       156
 NAB=    78 NAA=     0 NBB=     0.
 DE(Z)= -0.87469863     E(Z)=     -312.61591339     Delta= 2.81D-07
 NORM(A)=   0.10919710D+01
 Iteration Nr.  10
 **********************
 DD1Dir will call FoFMem   1 times, MxPair=       156
 NAB=    78 NAA=     0 NBB=     0.
 DE(Z)= -0.87469866     E(Z)=     -312.61591342     Delta=-3.49D-08
 NORM(A)=   0.10919711D+01
 Iteration Nr.  11
 **********************
 DD1Dir will call FoFMem   1 times, MxPair=       156
 NAB=    78 NAA=     0 NBB=     0.
 DE(Z)= -0.87469868     E(Z)=     -312.61591344     Delta=-1.67D-08
 NORM(A)=   0.10919711D+01
 Iteration Nr.  12
 **********************
 DD1Dir will call FoFMem   1 times, MxPair=       156
 NAB=    78 NAA=     0 NBB=     0.
 DE(Z)= -0.87469868     E(Z)=     -312.61591344     Delta=-3.21D-10
 NORM(A)=   0.10919711D+01
 Z-amplitudes converged.
 Discarding MO integrals.
          Differentiating once with respect to electric field.
                with respect to dipole field.
          Electric field/nuclear overlap derivatives assumed to be zero.
 Keep R1 ints in memory in canonical form, NReq=152784306.
          There are     1 degrees of freedom in the 1st order CPHF.  IDoFFX=0 NUNeed=     1.
 LinEq1:  Iter=  0 NonCon=     1 RMS=3.07D-03 Max=8.45D-02 NDo=     1
 AX will form     1 AO Fock derivatives at one time.
 LinEq1:  Iter=  1 NonCon=     1 RMS=7.55D-04 Max=1.11D-02 NDo=     1
 LinEq1:  Iter=  2 NonCon=     1 RMS=2.24D-04 Max=3.37D-03 NDo=     1
 LinEq1:  Iter=  3 NonCon=     1 RMS=9.87D-05 Max=1.57D-03 NDo=     1
 LinEq1:  Iter=  4 NonCon=     1 RMS=2.27D-05 Max=3.72D-04 NDo=     1
 LinEq1:  Iter=  5 NonCon=     1 RMS=1.09D-05 Max=2.98D-04 NDo=     1
 LinEq1:  Iter=  6 NonCon=     1 RMS=2.61D-06 Max=4.74D-05 NDo=     1
 LinEq1:  Iter=  7 NonCon=     1 RMS=5.33D-07 Max=1.03D-05 NDo=     1
 LinEq1:  Iter=  8 NonCon=     1 RMS=9.46D-08 Max=1.21D-06 NDo=     1
 LinEq1:  Iter=  9 NonCon=     1 RMS=1.31D-08 Max=1.79D-07 NDo=     1
 LinEq1:  Iter= 10 NonCon=     1 RMS=2.48D-09 Max=2.97D-08 NDo=     1
 LinEq1:  Iter= 11 NonCon=     1 RMS=9.96D-10 Max=1.25D-08 NDo=     1
 LinEq1:  Iter= 12 NonCon=     1 RMS=2.76D-10 Max=3.23D-09 NDo=     1
 LinEq1:  Iter= 13 NonCon=     0 RMS=4.50D-11 Max=4.13D-10 NDo=     1
 Linear equations converged to 1.000D-10 1.000D-09 after    13 iterations.
 End of Minotr F.D. properties file   721 does not exist.
 End of Minotr F.D. properties file   722 does not exist.
 End of Minotr F.D. properties file   788 does not exist.

 **********************************************************************

            Population analysis using the CC Density.

 **********************************************************************

 Alpha  occ. eigenvalues --  -26.39405 -26.39233 -20.62020 -11.53393  -1.76378
 Alpha  occ. eigenvalues --   -1.68672  -1.47829  -0.95858  -0.86620  -0.81835
 Alpha  occ. eigenvalues --   -0.80635  -0.72758  -0.70591  -0.70515  -0.57649
 Alpha  occ. eigenvalues --   -0.55830
 Alpha virt. eigenvalues --    0.05517   0.07195   0.07794   0.07908   0.15333
 Alpha virt. eigenvalues --    0.17098   0.17197   0.19386   0.19972   0.21581
 Alpha virt. eigenvalues --    0.24816   0.24867   0.26163   0.26399   0.28488
 Alpha virt. eigenvalues --    0.31149   0.34842   0.36139   0.38925   0.41647
 Alpha virt. eigenvalues --    0.44478   0.48614   0.49999   0.52360   0.53576
 Alpha virt. eigenvalues --    0.62893   0.66643   0.69288   0.72305   0.78660
 Alpha virt. eigenvalues --    0.81167   0.81726   0.84784   0.91211   0.93354
 Alpha virt. eigenvalues --    0.96346   0.97293   1.03057   1.04427   1.06902
 Alpha virt. eigenvalues --    1.07442   1.10088   1.10347   1.10746   1.14114
 Alpha virt. eigenvalues --    1.14383   1.18940   1.21742   1.24218   1.26912
 Alpha virt. eigenvalues --    1.28115   1.29869   1.37093   1.40960   1.50227
 Alpha virt. eigenvalues --    1.51632   1.52550   1.55885   1.65648   1.67625
 Alpha virt. eigenvalues --    1.69260   1.75862   1.78391   1.79742   2.03886
 Alpha virt. eigenvalues --    2.22586   2.27760   2.28206   2.33557   2.35695
 Alpha virt. eigenvalues --    2.41258   2.48915   2.55080   2.59526   2.62020
 Alpha virt. eigenvalues --    2.67096   2.70632   2.73186   2.73677   2.77242
 Alpha virt. eigenvalues --    2.80218   2.81826   2.83533   2.88467   2.92350
 Alpha virt. eigenvalues --    2.94340   2.94512   2.94679   3.06092   3.08176
 Alpha virt. eigenvalues --    3.10207   3.10310   3.12248   3.20378   3.23207
 Alpha virt. eigenvalues --    3.31542   3.36253   3.39131   3.46227   3.52594
 Alpha virt. eigenvalues --    3.56044   3.60052   3.63432   3.78925   3.81177
 Alpha virt. eigenvalues --    3.95008   4.00403   4.01876   4.03414   4.07668
 Alpha virt. eigenvalues --    4.20715   4.21856   4.40355   4.41404   4.53193
 Alpha virt. eigenvalues --    4.60126   4.75371   4.77226   4.83488   5.26559
 Alpha virt. eigenvalues --    5.33950   5.46047   5.47045   5.56750   5.74206
 Alpha virt. eigenvalues --    6.12010   6.56989   6.58322   6.68915   6.89023
 Alpha virt. eigenvalues --    7.10454   7.13523   7.18852   7.21275   7.24347
 Alpha virt. eigenvalues --    7.39368   7.50336   7.60648   7.69716   7.69951
 Alpha virt. eigenvalues --    8.78674   8.80134   8.84988   8.86880   9.00269
 Alpha virt. eigenvalues --    9.02638   9.11751   9.13071   9.19415   9.25892
 Alpha virt. eigenvalues --    9.26915   9.30292   9.33124   9.33358   9.33822
 Alpha virt. eigenvalues --    9.35098   9.37119   9.56163   9.61368   9.62767
 Alpha virt. eigenvalues --    9.66507   9.75630   9.87649   9.95857  13.36587
 Alpha virt. eigenvalues --   15.05950  16.18559  17.35699
          Condensed to atoms (all electrons):
               1          2          3          4
     1  O    7.946921   0.499985  -0.080084  -0.079264
     2  C    0.499985   4.519605   0.185190   0.185049
     3  F   -0.080084   0.185190   9.105418  -0.048514
     4  F   -0.079264   0.185049  -0.048514   9.103334
 Mulliken charges:
               1
     1  O   -0.287558
     2  C    0.610172
     3  F   -0.162010
     4  F   -0.160605
 Sum of Mulliken charges =  -0.00000
 Mulliken charges with hydrogens summed into heavy atoms:
               1
     1  O   -0.287558
     2  C    0.610172
     3  F   -0.162010
     4  F   -0.160605
 Electronic spatial extent (au):  <R**2>=            239.4206
 Charge=             -0.0000 electrons
 Dipole moment (field-independent basis, Debye):
    X=              0.0000    Y=              0.0251    Z=             -1.0335  Tot=              1.0338
 Quadrupole moment (field-independent basis, Debye-Ang):
   XX=            -18.9051   YY=            -21.3170   ZZ=            -21.9185
   XY=              0.0000   XZ=             -0.0000   YZ=             -0.0111
 Traceless Quadrupole moment (field-independent basis, Debye-Ang):
   XX=              1.8085   YY=             -0.6035   ZZ=             -1.2050
   XY=              0.0000   XZ=             -0.0000   YZ=             -0.0111
 Octapole moment (field-independent basis, Debye-Ang**2):
  XXX=              0.0000  YYY=              0.1818  ZZZ=             34.2710  XYY=             -0.0000
  XXY=              0.0552  XXZ=             10.3472  XZZ=             -0.0000  YZZ=              0.0803
  YYZ=             12.0137  XYZ=              0.0000
 Hexadecapole moment (field-independent basis, Debye-Ang**3):
 XXXX=            -13.4825 YYYY=            -79.9337 ZZZZ=           -132.3931 XXXY=              0.0000
 XXXZ=             -0.0000 YYYX=              0.0000 YYYZ=              0.0831 ZZZX=             -0.0000
 ZZZY=              0.0389 XXYY=            -15.6418 XXZZ=            -23.5677 YYZZ=            -36.1540
 XXYZ=              0.0280 YYXZ=              0.0000 ZZXY=             -0.0000
 N-N= 1.199401595773D+02 E-N=-9.819236909057D+02  KE= 3.123813252184D+02
 There are a total of       93060 grid points.
 ElSum from          density=       32.0000004912
 ElSum from atomic densities=       32.0000001513

 Hirshfeld populations at iteration   1 (CX, CA, CB, DipXYZ):
               1          2          3          4          5          6
     1  O    0.000004   4.109104   4.109104   0.000000  -0.000836  -0.052888
     2  C    0.000000   2.819373   2.819373   0.000000   0.003098  -0.156245
     3  F    0.000001   4.536194   4.536194   0.000000   0.037631   0.039032
     4  F    0.000001   4.535330   4.535330  -0.000000  -0.037583   0.038133
       Tot   0.000006  16.000000  16.000000   0.000000   0.002310  -0.131968

 Dip from Atomic Chgs              0.000000   0.007582  -0.274625
         Total Dipole              0.000000   0.009892  -0.406593

 Hirshfeld charges, spin densities, dipoles, and CM5 charges using IRadAn=      5:
              Q-H        S-H        Dx         Dy         Dz        Q-CM5   
     1  O   -0.218207   0.000000   0.000000  -0.000836  -0.052888  -0.261426
     2  C    0.361254   0.000000   0.000000   0.003098  -0.156245   0.441723
     3  F   -0.072388   0.000000   0.000000   0.037631   0.039032  -0.090994
     4  F   -0.070659   0.000000  -0.000000  -0.037583   0.038133  -0.089303
       Tot  -0.000000   0.000000   0.000000   0.002310  -0.131968  -0.000000
 Hirshfeld charges with hydrogens summed into heavy atoms:
              Q-H       Q-CM5   
     1  O   -0.218207  -0.261426
     2  C    0.361254   0.441723
     3  F   -0.072388  -0.090994
     4  F   -0.070659  -0.089303
 
 EQQ= 0.000000000000E+00 EQD= 0.000000000000E+00 EDD=-0.883895721354E-04
 EQQ+QD+DD=-0.883895721354E-04
 
 Breneman (CHELPG) radii used.
 Generate Potential Derived Charges using the Breneman model, NDens= 1.
 Grid spacing= 0.300 Box extension= 2.800
 NStep X,Y,Z=   20     27     27   Total possible points=       14580
 Number of Points to Fit=    4708

 **********************************************************************

            Electrostatic Properties Using The CC Density.

 **********************************************************************

       Atomic Center    1 is at   0.000000 -0.010000  0.679927
       Atomic Center    2 is at   0.000000  0.000000 -0.492216
       Atomic Center    3 is at   0.000000 -1.058878 -1.264305
       Atomic Center    4 is at   0.000000  1.058878 -1.264305
    4708 points will be used for fitting atomic charges
 Fitting point charges to electrostatic potential
 The dipole moment will be constrained to the correct value
 Charges from ESP fit, RMS=   0.00229 RRMS=   0.17752:
 ESP charges:
               1
     1  O   -0.466836
     2  C    0.896889
     3  F   -0.215294
     4  F   -0.214759
 Sum of ESP charges =  -0.00000
 ESP charges with hydrogens summed into heavy atoms:
               1
     1  O   -0.466836
     2  C    0.896889
     3  F   -0.215294
     4  F   -0.214759
 Charge=  -0.00000 Dipole=     0.0000     0.0251    -1.0335 Tot=     1.0338
 -----------------------------------------------------------------

              Electrostatic Properties (Atomic Units)

 -----------------------------------------------------------------
    Center     Electric         -------- Electric Field --------
               Potential          X             Y             Z
 -----------------------------------------------------------------
    1 Atom    -22.290288
    2 Atom    -14.477461
    3 Atom    -26.492795
    4 Atom    -26.491236
 -----------------------------------------------------------------
 ******************************Gaussian NBO Version 3.1******************************
             N A T U R A L   A T O M I C   O R B I T A L   A N D
          N A T U R A L   B O N D   O R B I T A L   A N A L Y S I S
 ******************************Gaussian NBO Version 3.1******************************
       /RESON  / : Allow strongly delocalized NBO set

 Analyzing the QCI/CC density

 Job title: f2co-wavefunction                                               

 Storage needed:    102424 in NPA (2147483536 available)
 GSVD:  LWork=          64 too small for GESVD, short by       66368 words or       66368 for optimal perf.


 NATURAL POPULATIONS:  Natural atomic orbital occupancies 
                                                          
   NAO  Atom  No  lang   Type(AO)    Occupancy
 --------------------------------------------
     1    O    1  S      Cor( 1S)     1.99949
     2    O    1  S      Val( 2S)     1.71243
     3    O    1  S      Ryd( 3S)     0.00637
     4    O    1  S      Ryd( 4S)     0.00037
     5    O    1  S      Ryd( 5S)     0.00019
     6    O    1  px     Val( 2p)     1.42055
     7    O    1  px     Ryd( 3p)     0.00798
     8    O    1  px     Ryd( 4p)     0.00054
     9    O    1  px     Ryd( 5p)     0.00009
    10    O    1  py     Val( 2p)     1.77357
    11    O    1  py     Ryd( 3p)     0.01130
    12    O    1  py     Ryd( 4p)     0.00066
    13    O    1  py     Ryd( 5p)     0.00010
    14    O    1  pz     Val( 2p)     1.51362
    15    O    1  pz     Ryd( 3p)     0.00683
    16    O    1  pz     Ryd( 4p)     0.00042
    17    O    1  pz     Ryd( 5p)     0.00006
    18    O    1  dxy    Ryd( 3d)     0.00566
    19    O    1  dxy    Ryd( 4d)     0.00045
    20    O    1  dxy    Ryd( 5d)     0.00006
    21    O    1  dxz    Ryd( 3d)     0.01179
    22    O    1  dxz    Ryd( 4d)     0.00038
    23    O    1  dxz    Ryd( 5d)     0.00011
    24    O    1  dyz    Ryd( 3d)     0.01118
    25    O    1  dyz    Ryd( 4d)     0.00043
    26    O    1  dyz    Ryd( 5d)     0.00008
    27    O    1  dx2y2  Ryd( 3d)     0.00564
    28    O    1  dx2y2  Ryd( 4d)     0.00046
    29    O    1  dx2y2  Ryd( 5d)     0.00008
    30    O    1  dz2    Ryd( 3d)     0.01971
    31    O    1  dz2    Ryd( 4d)     0.00047
    32    O    1  dz2    Ryd( 5d)     0.00014
    33    O    1  f(0)   Ryd( 4f)     0.00092
    34    O    1  f(0)   Ryd( 5f)     0.00009
    35    O    1  f(C1)  Ryd( 4f)     0.00052
    36    O    1  f(C1)  Ryd( 5f)     0.00010
    37    O    1  f(S1)  Ryd( 4f)     0.00057
    38    O    1  f(S1)  Ryd( 5f)     0.00010
    39    O    1  f(C2)  Ryd( 4f)     0.00049
    40    O    1  f(C2)  Ryd( 5f)     0.00008
    41    O    1  f(S2)  Ryd( 4f)     0.00049
    42    O    1  f(S2)  Ryd( 5f)     0.00008
    43    O    1  f(C3)  Ryd( 4f)     0.00047
    44    O    1  f(C3)  Ryd( 5f)     0.00006
    45    O    1  f(S3)  Ryd( 4f)     0.00047
    46    O    1  f(S3)  Ryd( 5f)     0.00006

    47    C    2  S      Cor( 1S)     1.99932
    48    C    2  S      Val( 2S)     0.68860
    49    C    2  S      Ryd( 3S)     0.00539
    50    C    2  S      Ryd( 4S)     0.00011
    51    C    2  S      Ryd( 5S)     0.00009
    52    C    2  px     Val( 2p)     0.72826
    53    C    2  px     Ryd( 3p)     0.00470
    54    C    2  px     Ryd( 4p)     0.00049
    55    C    2  px     Ryd( 5p)     0.00013
    56    C    2  py     Val( 2p)     0.65038
    57    C    2  py     Ryd( 3p)     0.01336
    58    C    2  py     Ryd( 4p)     0.00030
    59    C    2  py     Ryd( 5p)     0.00021
    60    C    2  pz     Val( 2p)     0.71026
    61    C    2  pz     Ryd( 3p)     0.02301
    62    C    2  pz     Ryd( 4p)     0.00028
    63    C    2  pz     Ryd( 5p)     0.00016
    64    C    2  dxy    Ryd( 3d)     0.00621
    65    C    2  dxy    Ryd( 4d)     0.00021
    66    C    2  dxy    Ryd( 5d)     0.00017
    67    C    2  dxz    Ryd( 3d)     0.00842
    68    C    2  dxz    Ryd( 4d)     0.00026
    69    C    2  dxz    Ryd( 5d)     0.00019
    70    C    2  dyz    Ryd( 3d)     0.00994
    71    C    2  dyz    Ryd( 5d)     0.00020
    72    C    2  dyz    Ryd( 4d)     0.00025
    73    C    2  dx2y2  Ryd( 3d)     0.00400
    74    C    2  dx2y2  Ryd( 4d)     0.00039
    75    C    2  dx2y2  Ryd( 5d)     0.00012
    76    C    2  dz2    Ryd( 3d)     0.00483
    77    C    2  dz2    Ryd( 4d)     0.00030
    78    C    2  dz2    Ryd( 5d)     0.00016
    79    C    2  f(0)   Ryd( 4f)     0.00040
    80    C    2  f(0)   Ryd( 5f)     0.00016
    81    C    2  f(C1)  Ryd( 4f)     0.00034
    82    C    2  f(C1)  Ryd( 5f)     0.00020
    83    C    2  f(S1)  Ryd( 4f)     0.00050
    84    C    2  f(S1)  Ryd( 5f)     0.00015
    85    C    2  f(C2)  Ryd( 4f)     0.00042
    86    C    2  f(C2)  Ryd( 5f)     0.00013
    87    C    2  f(S2)  Ryd( 4f)     0.00051
    88    C    2  f(S2)  Ryd( 5f)     0.00013
    89    C    2  f(C3)  Ryd( 4f)     0.00036
    90    C    2  f(C3)  Ryd( 5f)     0.00023
    91    C    2  f(S3)  Ryd( 4f)     0.00032
    92    C    2  f(S3)  Ryd( 5f)     0.00016

    93    F    3  S      Cor( 1S)     1.99980
    94    F    3  S      Val( 2S)     1.84616
    95    F    3  S      Ryd( 3S)     0.00619
    96    F    3  S      Ryd( 4S)     0.00026
    97    F    3  S      Ryd( 5S)     0.00019
    98    F    3  px     Val( 2p)     1.87889
    99    F    3  px     Ryd( 3p)     0.01183
   100    F    3  px     Ryd( 4p)     0.00066
   101    F    3  px     Ryd( 5p)     0.00010
   102    F    3  py     Val( 2p)     1.69337
   103    F    3  py     Ryd( 3p)     0.00847
   104    F    3  py     Ryd( 4p)     0.00058
   105    F    3  py     Ryd( 5p)     0.00009
   106    F    3  pz     Val( 2p)     1.81081
   107    F    3  pz     Ryd( 3p)     0.00997
   108    F    3  pz     Ryd( 4p)     0.00062
   109    F    3  pz     Ryd( 5p)     0.00010
   110    F    3  dxy    Ryd( 3d)     0.00695
   111    F    3  dxy    Ryd( 4d)     0.00052
   112    F    3  dxy    Ryd( 5d)     0.00008
   113    F    3  dxz    Ryd( 3d)     0.00576
   114    F    3  dxz    Ryd( 4d)     0.00051
   115    F    3  dxz    Ryd( 5d)     0.00007
   116    F    3  dyz    Ryd( 3d)     0.00922
   117    F    3  dyz    Ryd( 4d)     0.00050
   118    F    3  dyz    Ryd( 5d)     0.00009
   119    F    3  dx2y2  Ryd( 3d)     0.00721
   120    F    3  dx2y2  Ryd( 4d)     0.00054
   121    F    3  dx2y2  Ryd( 5d)     0.00012
   122    F    3  dz2    Ryd( 3d)     0.00613
   123    F    3  dz2    Ryd( 4d)     0.00048
   124    F    3  dz2    Ryd( 5d)     0.00008
   125    F    3  f(0)   Ryd( 4f)     0.00051
   126    F    3  f(0)   Ryd( 5f)     0.00009
   127    F    3  f(C1)  Ryd( 4f)     0.00044
   128    F    3  f(C1)  Ryd( 5f)     0.00007
   129    F    3  f(S1)  Ryd( 4f)     0.00056
   130    F    3  f(S1)  Ryd( 5f)     0.00010
   131    F    3  f(C2)  Ryd( 4f)     0.00062
   132    F    3  f(C2)  Ryd( 5f)     0.00010
   133    F    3  f(S2)  Ryd( 4f)     0.00052
   134    F    3  f(S2)  Ryd( 5f)     0.00009
   135    F    3  f(C3)  Ryd( 4f)     0.00049
   136    F    3  f(C3)  Ryd( 5f)     0.00008
   137    F    3  f(S3)  Ryd( 4f)     0.00051
   138    F    3  f(S3)  Ryd( 5f)     0.00009

   139    F    4  S      Cor( 1S)     1.99980
   140    F    4  S      Val( 2S)     1.84594
   141    F    4  S      Ryd( 3S)     0.00616
   142    F    4  S      Ryd( 4S)     0.00026
   143    F    4  S      Ryd( 5S)     0.00019
   144    F    4  px     Val( 2p)     1.87886
   145    F    4  px     Ryd( 3p)     0.01181
   146    F    4  px     Ryd( 4p)     0.00066
   147    F    4  px     Ryd( 5p)     0.00010
   148    F    4  py     Val( 2p)     1.69382
   149    F    4  py     Ryd( 3p)     0.00846
   150    F    4  py     Ryd( 4p)     0.00058
   151    F    4  py     Ryd( 5p)     0.00009
   152    F    4  pz     Val( 2p)     1.80907
   153    F    4  pz     Ryd( 3p)     0.00993
   154    F    4  pz     Ryd( 4p)     0.00062
   155    F    4  pz     Ryd( 5p)     0.00010
   156    F    4  dxy    Ryd( 3d)     0.00694
   157    F    4  dxy    Ryd( 4d)     0.00052
   158    F    4  dxy    Ryd( 5d)     0.00008
   159    F    4  dxz    Ryd( 3d)     0.00576
   160    F    4  dxz    Ryd( 4d)     0.00051
   161    F    4  dxz    Ryd( 5d)     0.00007
   162    F    4  dyz    Ryd( 3d)     0.00923
   163    F    4  dyz    Ryd( 4d)     0.00050
   164    F    4  dyz    Ryd( 5d)     0.00009
   165    F    4  dx2y2  Ryd( 3d)     0.00720
   166    F    4  dx2y2  Ryd( 4d)     0.00054
   167    F    4  dx2y2  Ryd( 5d)     0.00012
   168    F    4  dz2    Ryd( 3d)     0.00614
   169    F    4  dz2    Ryd( 4d)     0.00048
   170    F    4  dz2    Ryd( 5d)     0.00008
   171    F    4  f(0)   Ryd( 4f)     0.00051
   172    F    4  f(0)   Ryd( 5f)     0.00009
   173    F    4  f(C1)  Ryd( 4f)     0.00044
   174    F    4  f(C1)  Ryd( 5f)     0.00007
   175    F    4  f(S1)  Ryd( 4f)     0.00056
   176    F    4  f(S1)  Ryd( 5f)     0.00010
   177    F    4  f(C2)  Ryd( 4f)     0.00062
   178    F    4  f(C2)  Ryd( 5f)     0.00010
   179    F    4  f(S2)  Ryd( 4f)     0.00052
   180    F    4  f(S2)  Ryd( 5f)     0.00009
   181    F    4  f(C3)  Ryd( 4f)     0.00049
   182    F    4  f(C3)  Ryd( 5f)     0.00008
   183    F    4  f(S3)  Ryd( 4f)     0.00051
   184    F    4  f(S3)  Ryd( 5f)     0.00009


 Summary of Natural Population Analysis:                  
                                                          
                                       Natural Population 
                Natural  -----------------------------------------------
    Atom  No    Charge         Core      Valence    Rydberg      Total
 -----------------------------------------------------------------------
      O    1   -0.51572      1.99949     6.42018    0.09606     8.51572
      C    2    1.13532      1.99932     2.77749    0.08786     4.86468
      F    3   -0.31062      1.99980     7.22923    0.08158     9.31062
      F    4   -0.30898      1.99980     7.22769    0.08149     9.30898
 =======================================================================
   * Total *    0.00000      7.99841    23.65459    0.34700    32.00000

                                 Natural Population      
 --------------------------------------------------------
   Core                       7.99841 ( 99.9801% of   8)
   Valence                   23.65459 ( 98.5608% of  24)
   Natural Minimal Basis     31.65300 ( 98.9156% of  32)
   Natural Rydberg Basis      0.34700 (  1.0844% of  32)
 --------------------------------------------------------

    Atom  No          Natural Electron Configuration
 ----------------------------------------------------------------------------
      O    1      [core]2S( 1.71)2p( 4.71)3S( 0.01)3p( 0.03)3d( 0.05)
      C    2      [core]2S( 0.69)2p( 2.09)3S( 0.01)3p( 0.04)3d( 0.03)
      F    3      [core]2S( 1.85)2p( 5.38)3S( 0.01)3p( 0.03)3d( 0.04)
      F    4      [core]2S( 1.85)2p( 5.38)3S( 0.01)3p( 0.03)3d( 0.04)


 NBO analysis skipped by request.
 Unable to Open any file for archive entry.
 1\1\GINC-TRAPISTA\SP\RQCISD-FC\Aug-CC-pVTZ\C1F2O1\WAGNER\03-Sep-2022\0
 \\# qcisd/aug-cc-pvtz nosymm density=current pop=(chelpg,hirshfeld,npa
 ,dipole)\\f2co-wavefunction\\0,1\O,0,0.,-0.01,0.679927\C,0,0.,0.,-0.49
 2216\F,0,0.,-1.058878,-1.264305\F,0,0.,1.058878,-1.264305\\Version=EM6
 4L-G16RevC.01\HF=-311.7412148\MP2=-312.6371255\MP3=-312.6246239\MP4D=-
 312.6402245\MP4DQ=-312.624167\MP4SDQ=-312.6357711\QCISD=-312.6352741\R
 MSD=8.241e-09\Dipole=0.,0.0098916,-0.406593\Quadrupole=1.3445624,-0.44
 86797,-0.8958828,0.,0.,-0.0082372\PG=CS [SG(C1F2O1)]\\@
 The archive entry for this job was punched.


 THE MOST BEAUTIFUL EXPERIENCE WE CAN HAVE IS THE MYSTERIOUS.
 IT IS THE FUNDAMENTAL EMOTION WHICH STANDS AT AT THE CRADLE 
 OF TRUE ART AND TRUE SCIENCE.

                                    -- ALBERT EINSTEIN
 Job cpu time:       0 days  5 hours 56 minutes 51.3 seconds.
 Elapsed time:       0 days  0 hours 22 minutes 33.3 seconds.
 File lengths (MBytes):  RWF=  21297 Int=      0 D2E=      0 Chk=      4 Scr=      1
 Normal termination of Gaussian 16 at Sat Sep  3 00:39:28 2022.
