 Entering Gaussian System, Link 0=/home/wagner/chemistry/gaussian/g16/g16
 Input=GAUSSIAN.com
 Output=GAUSSIAN.log
 Initial command:
 /home/wagner/chemistry/gaussian/g16/l1.exe "/home/wagner/chemistry/gaussian/work/Gau-80792.inp" -scrdir="/home/wagner/chemistry/gaussian/work/"
 Entering Link 1 = /home/wagner/chemistry/gaussian/g16/l1.exe PID=     80794.
  
 Copyright (c) 1988-2019, Gaussian, Inc.  All Rights Reserved.
  
 This is part of the Gaussian(R) 16 program.  It is based on
 the Gaussian(R) 09 system (copyright 2009, Gaussian, Inc.),
 the Gaussian(R) 03 system (copyright 2003, Gaussian, Inc.),
 the Gaussian(R) 98 system (copyright 1998, Gaussian, Inc.),
 the Gaussian(R) 94 system (copyright 1995, Gaussian, Inc.),
 the Gaussian 92(TM) system (copyright 1992, Gaussian, Inc.),
 the Gaussian 90(TM) system (copyright 1990, Gaussian, Inc.),
 the Gaussian 88(TM) system (copyright 1988, Gaussian, Inc.),
 the Gaussian 86(TM) system (copyright 1986, Carnegie Mellon
 University), and the Gaussian 82(TM) system (copyright 1983,
 Carnegie Mellon University). Gaussian is a federally registered
 trademark of Gaussian, Inc.
  
 This software contains proprietary and confidential information,
 including trade secrets, belonging to Gaussian, Inc.
  
 This software is provided under written license and may be
 used, copied, transmitted, or stored only in accord with that
 written license.
  
 The following legend is applicable only to US Government
 contracts under FAR:
  
                    RESTRICTED RIGHTS LEGEND
  
 Use, reproduction and disclosure by the US Government is
 subject to restrictions as set forth in subparagraphs (a)
 and (c) of the Commercial Computer Software - Restricted
 Rights clause in FAR 52.227-19.
  
 Gaussian, Inc.
 340 Quinnipiac St., Bldg. 40, Wallingford CT 06492
  
  
 ---------------------------------------------------------------
 Warning -- This program may not be used in any manner that
 competes with the business of Gaussian, Inc. or will provide
 assistance to any competitor of Gaussian, Inc.  The licensee
 of this program is prohibited from giving any competitor of
 Gaussian, Inc. access to this program.  By using this program,
 the user acknowledges that Gaussian, Inc. is engaged in the
 business of creating and licensing software in the field of
 computational chemistry and represents and warrants to the
 licensee that it is not a competitor of Gaussian, Inc. and that
 it will not use this program in any manner prohibited above.
 ---------------------------------------------------------------
  

 Cite this work as:
 Gaussian 16, Revision C.01,
 M. J. Frisch, G. W. Trucks, H. B. Schlegel, G. E. Scuseria, 
 M. A. Robb, J. R. Cheeseman, G. Scalmani, V. Barone, 
 G. A. Petersson, H. Nakatsuji, X. Li, M. Caricato, A. V. Marenich, 
 J. Bloino, B. G. Janesko, R. Gomperts, B. Mennucci, H. P. Hratchian, 
 J. V. Ortiz, A. F. Izmaylov, J. L. Sonnenberg, D. Williams-Young, 
 F. Ding, F. Lipparini, F. Egidi, J. Goings, B. Peng, A. Petrone, 
 T. Henderson, D. Ranasinghe, V. G. Zakrzewski, J. Gao, N. Rega, 
 G. Zheng, W. Liang, M. Hada, M. Ehara, K. Toyota, R. Fukuda, 
 J. Hasegawa, M. Ishida, T. Nakajima, Y. Honda, O. Kitao, H. Nakai, 
 T. Vreven, K. Throssell, J. A. Montgomery, Jr., J. E. Peralta, 
 F. Ogliaro, M. J. Bearpark, J. J. Heyd, E. N. Brothers, K. N. Kudin, 
 V. N. Staroverov, T. A. Keith, R. Kobayashi, J. Normand, 
 K. Raghavachari, A. P. Rendell, J. C. Burant, S. S. Iyengar, 
 J. Tomasi, M. Cossi, J. M. Millam, M. Klene, C. Adamo, R. Cammi, 
 J. W. Ochterski, R. L. Martin, K. Morokuma, O. Farkas, 
 J. B. Foresman, and D. J. Fox, Gaussian, Inc., Wallingford CT, 2019.
 
 ******************************************
 Gaussian 16:  EM64L-G16RevC.01  3-Jul-2019
                 3-Sep-2022 
 ******************************************
 %nproc=16
 Will use up to   16 processors via shared memory.
 %mem=16GB
 ----------------------------------------------------------------------
 # qcisd/aug-cc-pvtz nosymm density=current pop=(chelpg,hirshfeld,npa,d
 ipole)
 ----------------------------------------------------------------------
 1/30=1,38=1,172=1/1;
 2/12=2,15=1,17=6,18=5,40=1/2;
 3/5=16,6=1,7=10,11=9,25=1,30=1,71=1/1,2,3;
 4//1;
 5/5=2,38=5/2;
 8/6=4,9=120000,10=1/1,4;
 9/5=8,15=1/13;
 11/28=-7,31=1,32=3,42=3/11;
 10/5=6,13=10,31=1/2;
 6/7=2,8=2,9=2,10=2,15=24,20=3,22=-1,40=-1,79=1/1,2,7;
 99/5=1,9=1/99;
 -----------------
 f2co-wavefunction
 -----------------
 Symbolic Z-matrix:
 Charge =  0 Multiplicity = 1
 O                     0.        0.        0.68993 
 C                     0.        0.       -0.49222 
 F                     0.       -1.05888  -1.26431 
 F                     0.        1.05888  -1.26431 
 
                          Input orientation:                          
 ---------------------------------------------------------------------
 Center     Atomic      Atomic             Coordinates (Angstroms)
 Number     Number       Type             X           Y           Z
 ---------------------------------------------------------------------
      1          8           0        0.000000    0.000000    0.689927
      2          6           0        0.000000    0.000000   -0.492216
      3          9           0        0.000000   -1.058878   -1.264305
      4          9           0        0.000000    1.058878   -1.264305
 ---------------------------------------------------------------------
                    Distance matrix (angstroms):
                    1          2          3          4
     1  O    0.000000
     2  C    1.182143   0.000000
     3  F    2.222666   1.310475   0.000000
     4  F    2.222666   1.310475   2.117756   0.000000
 Symmetry turned off by external request.
 Stoichiometry    CF2O
 Framework group  C2V[C2(CO),SGV(F2)]
 Deg. of freedom     3
 Full point group                 C2V     NOp   4
 Rotational constants (GHZ):          11.8625554          11.6567738           5.8793822
 Standard basis: Aug-CC-pVTZ (5D, 7F)
   184 basis functions,   288 primitive gaussians,   220 cartesian basis functions
    16 alpha electrons       16 beta electrons
       nuclear repulsion energy       119.6216691613 Hartrees.
 NAtoms=    4 NActive=    4 NUniq=    4 SFac= 1.00D+00 NAtFMM=   60 NAOKFM=F Big=F
 Integral buffers will be    131072 words long.
 Raffenetti 1 integral format.
 Two-electron integral symmetry is turned off.
 One-electron integrals computed using PRISM.
 NBasis=   184 RedAO= T EigKep=  3.54D-04  NBF=   184
 NBsUse=   184 1.00D-06 EigRej= -1.00D+00 NBFU=   184
 ExpMin= 3.57D-02 ExpMax= 1.95D+04 ExpMxC= 6.65D+02 IAcc=3 IRadAn=         5 AccDes= 0.00D+00
 Harris functional with IExCor=  205 and IRadAn=       5 diagonalized for initial guess.
 HarFok:  IExCor=  205 AccDes= 0.00D+00 IRadAn=         5 IDoV= 1 UseB2=F ITyADJ=14
 ICtDFT=  3500011 ScaDFX=  1.000000  1.000000  1.000000  1.000000
 FoFCou: FMM=F IPFlag=           0 FMFlag=      100000 FMFlg1=           0
         NFxFlg=           0 DoJE=T BraDBF=F KetDBF=T FulRan=T
         wScrn=  0.000000 ICntrl=       500 IOpCl=  0 I1Cent=   200000004 NGrid=           0
         NMat0=    1 NMatS0=      1 NMatT0=    0 NMatD0=    1 NMtDS0=    0 NMtDT0=    0
 Symmetry not used in FoFCou.
 Keep R1 ints in memory in canonical form, NReq=152781280.
 Requested convergence on RMS density matrix=1.00D-08 within 128 cycles.
 Requested convergence on MAX density matrix=1.00D-06.
 Requested convergence on             energy=1.00D-06.
 No special actions if energy rises.
 SCF Done:  E(RHF) =  -311.740067108     A.U. after   11 cycles
            NFock= 11  Conv=0.85D-08     -V/T= 2.0016
 ExpMin= 3.57D-02 ExpMax= 1.95D+04 ExpMxC= 6.65D+02 IAcc=3 IRadAn=         5 AccDes= 0.00D+00
 HarFok:  IExCor=  205 AccDes= 0.00D+00 IRadAn=         5 IDoV=-2 UseB2=F ITyADJ=14
 ICtDFT= 12500011 ScaDFX=  1.000000  1.000000  1.000000  1.000000
 Range of M.O.s used for correlation:     5   184
 NBasis=   184 NAE=    16 NBE=    16 NFC=     4 NFV=     0
 NROrb=    180 NOA=    12 NOB=    12 NVA=   168 NVB=   168

 **** Warning!!: The largest alpha MO coefficient is  0.15499041D+02

 Semi-Direct transformation.
 ModeAB=           2 MOrb=            12 LenV=    2146514661
 LASXX=     33405819 LTotXX=    33405819 LenRXX=    33405819
 LTotAB=    33954012 MaxLAS=    52509600 LenRXY=    52509600
 NonZer=    66811638 LenScr=   100987392 LnRSAI=           0
 LnScr1=           0 LExtra=           0 Total=    186902811
 MaxDsk=          -1 SrtSym=           F ITran=            4
 JobTyp=0 Pass  1:  I=   1 to  12.
 (rs|ai) integrals will be sorted in core.
 Spin components of T(2) and E(2):
     alpha-alpha T2 =       0.2672370020D-01 E2=     -0.1192758461D+00
     alpha-beta  T2 =       0.1379074557D+00 E2=     -0.6585848766D+00
     beta-beta   T2 =       0.2672370020D-01 E2=     -0.1192758461D+00
 ANorm=    0.1091492032D+01
 E2 =    -0.8971365688D+00 EUMP2 =    -0.31263720367691D+03
 Keep R2 and R3 ints in memory in canonical form, NReq=297638792.
 CIDS: In Core Option IDoMem=           1.
 Iterations=  50 Convergence= 0.100D-07
 Produce multiple copies of IABC intergrals
 Iteration Nr.   1
 **********************
 DD1Dir will call FoFMem   1 times, MxPair=       156
 NAB=    78 NAA=     0 NBB=     0.
 MP4(R+Q)=  0.16164746D-01
 E3=        0.12971801D-01        EUMP3=      -0.31262423188D+03
 E4(DQ)=    0.38063408D-03        UMP4(DQ)=   -0.31262385124D+03
 E4(SDQ)=  -0.11407090D-01        UMP4(SDQ)=  -0.31263563897D+03
 DE(Corr)= -0.86800002     E(Corr)=     -312.60806713    
 NORM(A)=   0.10862511D+01
 Iteration Nr.   2
 **********************
 DD1Dir will call FoFMem   1 times, MxPair=       156
 NAB=    78 NAA=     0 NBB=     0.
 DE(Corr)= -0.89423272     E(CORR)=     -312.63429982     Delta=-2.62D-02
 NORM(A)=   0.10936630D+01
 Iteration Nr.   3
 **********************
 DD1Dir will call FoFMem   1 times, MxPair=       156
 NAB=    78 NAA=     0 NBB=     0.
 DE(Corr)= -0.89239484     E(CORR)=     -312.63246195     Delta= 1.84D-03
 NORM(A)=   0.10959614D+01
 Iteration Nr.   4
 **********************
 DD1Dir will call FoFMem   1 times, MxPair=       156
 NAB=    78 NAA=     0 NBB=     0.
 DE(Corr)= -0.89474994     E(CORR)=     -312.63481705     Delta=-2.36D-03
 NORM(A)=   0.10967997D+01
 Iteration Nr.   5
 **********************
 DD1Dir will call FoFMem   1 times, MxPair=       156
 NAB=    78 NAA=     0 NBB=     0.
 DE(Corr)= -0.89502499     E(CORR)=     -312.63509209     Delta=-2.75D-04
 NORM(A)=   0.10969905D+01
 Iteration Nr.   6
 **********************
 DD1Dir will call FoFMem   1 times, MxPair=       156
 NAB=    78 NAA=     0 NBB=     0.
 DE(Corr)= -0.89505239     E(CORR)=     -312.63511950     Delta=-2.74D-05
 NORM(A)=   0.10970045D+01
 Iteration Nr.   7
 **********************
 DD1Dir will call FoFMem   1 times, MxPair=       156
 NAB=    78 NAA=     0 NBB=     0.
 DE(Corr)= -0.89505408     E(CORR)=     -312.63512119     Delta=-1.69D-06
 NORM(A)=   0.10970044D+01
 Iteration Nr.   8
 **********************
 DD1Dir will call FoFMem   1 times, MxPair=       156
 NAB=    78 NAA=     0 NBB=     0.
 DE(Corr)= -0.89505302     E(CORR)=     -312.63512013     Delta= 1.06D-06
 NORM(A)=   0.10970049D+01
 Iteration Nr.   9
 **********************
 DD1Dir will call FoFMem   1 times, MxPair=       156
 NAB=    78 NAA=     0 NBB=     0.
 DE(Corr)= -0.89505347     E(CORR)=     -312.63512057     Delta=-4.48D-07
 NORM(A)=   0.10970050D+01
 Iteration Nr.  10
 **********************
 DD1Dir will call FoFMem   1 times, MxPair=       156
 NAB=    78 NAA=     0 NBB=     0.
 DE(Corr)= -0.89505334     E(CORR)=     -312.63512045     Delta= 1.22D-07
 NORM(A)=   0.10970051D+01
 Iteration Nr.  11
 **********************
 DD1Dir will call FoFMem   1 times, MxPair=       156
 NAB=    78 NAA=     0 NBB=     0.
 DE(Corr)= -0.89505381     E(CORR)=     -312.63512092     Delta=-4.70D-07
 NORM(A)=   0.10970054D+01
 Iteration Nr.  12
 **********************
 DD1Dir will call FoFMem   1 times, MxPair=       156
 NAB=    78 NAA=     0 NBB=     0.
 DE(Corr)= -0.89505382     E(CORR)=     -312.63512093     Delta=-5.96D-09
 NORM(A)=   0.10970056D+01
 Wavefunction amplitudes converged. E(Corr)=     -312.63512093    
 Largest amplitude= 6.15D-02

 Z-amplitude iterations

 Iteration Nr.   1
 **********************
 DD1Dir will call FoFMem   1 times, MxPair=       156
 NAB=    78 NAA=     0 NBB=     0.
 DE(Z)= -0.87558460     E(Z)=     -312.61565171     Delta= 1.95D-02
 NORM(A)=   0.10970349D+01
 Iteration Nr.   2
 **********************
 DD1Dir will call FoFMem   1 times, MxPair=       156
 NAB=    78 NAA=     0 NBB=     0.
 DE(Z)= -0.87558461     E(Z)=     -312.61565172     Delta=-1.20D-08
 NORM(A)=   0.10969769D+01
 Iteration Nr.   3
 **********************
 DD1Dir will call FoFMem   1 times, MxPair=       156
 NAB=    78 NAA=     0 NBB=     0.
 DE(Z)= -0.87558434     E(Z)=     -312.61565144     Delta= 2.77D-07
 NORM(A)=   0.10970909D+01
 Iteration Nr.   4
 **********************
 DD1Dir will call FoFMem   1 times, MxPair=       156
 NAB=    78 NAA=     0 NBB=     0.
 DE(Z)= -0.87558508     E(Z)=     -312.61565219     Delta=-7.41D-07
 NORM(A)=   0.10968357D+01
 Iteration Nr.   5
 **********************
 DD1Dir will call FoFMem   1 times, MxPair=       156
 NAB=    78 NAA=     0 NBB=     0.
 DE(Z)= -0.87558271     E(Z)=     -312.61564981     Delta= 2.37D-06
 NORM(A)=   0.10924909D+01
 Iteration Nr.   6
 **********************
 DD1Dir will call FoFMem   1 times, MxPair=       156
 NAB=    78 NAA=     0 NBB=     0.
 DE(Z)= -0.87553903     E(Z)=     -312.61560614     Delta= 4.37D-05
 NORM(A)=   0.10924909D+01
 Iteration Nr.   7
 **********************
 DD1Dir will call FoFMem   1 times, MxPair=       156
 NAB=    78 NAA=     0 NBB=     0.
 DE(Z)= -0.87553714     E(Z)=     -312.61560425     Delta= 1.89D-06
 NORM(A)=   0.10924908D+01
 Iteration Nr.   8
 **********************
 DD1Dir will call FoFMem   1 times, MxPair=       156
 NAB=    78 NAA=     0 NBB=     0.
 DE(Z)= -0.87553800     E(Z)=     -312.61560511     Delta=-8.64D-07
 NORM(A)=   0.10924910D+01
 Iteration Nr.   9
 **********************
 DD1Dir will call FoFMem   1 times, MxPair=       156
 NAB=    78 NAA=     0 NBB=     0.
 DE(Z)= -0.87553775     E(Z)=     -312.61560485     Delta= 2.58D-07
 NORM(A)=   0.10924911D+01
 Iteration Nr.  10
 **********************
 DD1Dir will call FoFMem   1 times, MxPair=       156
 NAB=    78 NAA=     0 NBB=     0.
 DE(Z)= -0.87553784     E(Z)=     -312.61560495     Delta=-9.68D-08
 NORM(A)=   0.10924911D+01
 Iteration Nr.  11
 **********************
 DD1Dir will call FoFMem   1 times, MxPair=       156
 NAB=    78 NAA=     0 NBB=     0.
 DE(Z)= -0.87553784     E(Z)=     -312.61560494     Delta= 7.57D-09
 NORM(A)=   0.10924912D+01
 Z-amplitudes converged.
 Discarding MO integrals.
          Differentiating once with respect to electric field.
                with respect to dipole field.
          Electric field/nuclear overlap derivatives assumed to be zero.
 Keep R1 ints in memory in canonical form, NReq=152784219.
          There are     1 degrees of freedom in the 1st order CPHF.  IDoFFX=0 NUNeed=     1.
 LinEq1:  Iter=  0 NonCon=     1 RMS=3.10D-03 Max=8.60D-02 NDo=     1
 AX will form     1 AO Fock derivatives at one time.
 LinEq1:  Iter=  1 NonCon=     1 RMS=7.65D-04 Max=1.12D-02 NDo=     1
 LinEq1:  Iter=  2 NonCon=     1 RMS=2.29D-04 Max=3.47D-03 NDo=     1
 LinEq1:  Iter=  3 NonCon=     1 RMS=1.01D-04 Max=1.55D-03 NDo=     1
 LinEq1:  Iter=  4 NonCon=     1 RMS=2.38D-05 Max=3.64D-04 NDo=     1
 LinEq1:  Iter=  5 NonCon=     1 RMS=1.12D-05 Max=2.70D-04 NDo=     1
 LinEq1:  Iter=  6 NonCon=     1 RMS=2.36D-06 Max=3.57D-05 NDo=     1
 LinEq1:  Iter=  7 NonCon=     1 RMS=4.52D-07 Max=9.93D-06 NDo=     1
 LinEq1:  Iter=  8 NonCon=     1 RMS=9.06D-08 Max=1.24D-06 NDo=     1
 LinEq1:  Iter=  9 NonCon=     1 RMS=1.29D-08 Max=1.78D-07 NDo=     1
 LinEq1:  Iter= 10 NonCon=     1 RMS=1.89D-09 Max=2.06D-08 NDo=     1
 LinEq1:  Iter= 11 NonCon=     1 RMS=3.99D-10 Max=5.93D-09 NDo=     1
 LinEq1:  Iter= 12 NonCon=     0 RMS=5.63D-11 Max=4.81D-10 NDo=     1
 Linear equations converged to 1.000D-10 1.000D-09 after    12 iterations.
 End of Minotr F.D. properties file   721 does not exist.
 End of Minotr F.D. properties file   722 does not exist.
 End of Minotr F.D. properties file   788 does not exist.

 **********************************************************************

            Population analysis using the CC Density.

 **********************************************************************

 Alpha  occ. eigenvalues --  -26.39489 -26.39486 -20.62048 -11.53670  -1.76480
 Alpha  occ. eigenvalues --   -1.68800  -1.47135  -0.96012  -0.86616  -0.81864
 Alpha  occ. eigenvalues --   -0.80720  -0.72876  -0.70724  -0.70320  -0.57300
 Alpha  occ. eigenvalues --   -0.55661
 Alpha virt. eigenvalues --    0.05498   0.07200   0.07791   0.07917   0.15032
 Alpha virt. eigenvalues --    0.17113   0.17207   0.19339   0.19946   0.21553
 Alpha virt. eigenvalues --    0.24782   0.24889   0.26163   0.26372   0.28462
 Alpha virt. eigenvalues --    0.31136   0.34755   0.36113   0.38932   0.41596
 Alpha virt. eigenvalues --    0.44339   0.48588   0.49991   0.52369   0.53282
 Alpha virt. eigenvalues --    0.62837   0.66679   0.69313   0.71609   0.78710
 Alpha virt. eigenvalues --    0.81187   0.81609   0.84737   0.91111   0.93272
 Alpha virt. eigenvalues --    0.96172   0.97238   1.03103   1.04367   1.06853
 Alpha virt. eigenvalues --    1.07351   1.10055   1.10263   1.10696   1.13730
 Alpha virt. eigenvalues --    1.14292   1.18660   1.21607   1.24212   1.26943
 Alpha virt. eigenvalues --    1.28009   1.29797   1.36914   1.40932   1.50249
 Alpha virt. eigenvalues --    1.51478   1.52492   1.55705   1.65580   1.67057
 Alpha virt. eigenvalues --    1.69278   1.76101   1.78387   1.79572   2.03398
 Alpha virt. eigenvalues --    2.22323   2.27740   2.27778   2.32878   2.35597
 Alpha virt. eigenvalues --    2.41139   2.48478   2.54785   2.59096   2.61740
 Alpha virt. eigenvalues --    2.66682   2.69899   2.73554   2.73616   2.76902
 Alpha virt. eigenvalues --    2.80219   2.81789   2.84019   2.88441   2.92094
 Alpha virt. eigenvalues --    2.94200   2.94210   2.94532   3.05961   3.08141
 Alpha virt. eigenvalues --    3.10233   3.10238   3.12161   3.20151   3.22919
 Alpha virt. eigenvalues --    3.31410   3.36196   3.38521   3.46092   3.52150
 Alpha virt. eigenvalues --    3.55871   3.59950   3.62949   3.78596   3.80741
 Alpha virt. eigenvalues --    3.94060   3.99965   4.01445   4.02420   4.07098
 Alpha virt. eigenvalues --    4.19761   4.21470   4.39132   4.41265   4.52921
 Alpha virt. eigenvalues --    4.60016   4.74740   4.76517   4.82169   5.24365
 Alpha virt. eigenvalues --    5.32763   5.45753   5.46269   5.56352   5.73480
 Alpha virt. eigenvalues --    6.11084   6.56940   6.58258   6.68309   6.88545
 Alpha virt. eigenvalues --    7.09144   7.11847   7.18484   7.20364   7.23499
 Alpha virt. eigenvalues --    7.38083   7.50490   7.59601   7.68922   7.69198
 Alpha virt. eigenvalues --    8.78509   8.79980   8.84835   8.86764   9.00054
 Alpha virt. eigenvalues --    9.02454   9.11570   9.12889   9.19252   9.25725
 Alpha virt. eigenvalues --    9.26776   9.30055   9.32972   9.33177   9.33627
 Alpha virt. eigenvalues --    9.34989   9.36914   9.55956   9.61072   9.62553
 Alpha virt. eigenvalues --    9.65615   9.75358   9.87366   9.95548  13.32265
 Alpha virt. eigenvalues --   15.05254  15.97863  17.29051
          Condensed to atoms (all electrons):
               1          2          3          4
     1  O    7.951778   0.495901  -0.078135  -0.078135
     2  C    0.495901   4.523147   0.185359   0.185359
     3  F   -0.078135   0.185359   9.100649  -0.048462
     4  F   -0.078135   0.185359  -0.048462   9.100649
 Mulliken charges:
               1
     1  O   -0.291409
     2  C    0.610234
     3  F   -0.159412
     4  F   -0.159412
 Sum of Mulliken charges =  -0.00000
 Mulliken charges with hydrogens summed into heavy atoms:
               1
     1  O   -0.291409
     2  C    0.610234
     3  F   -0.159412
     4  F   -0.159412
 Electronic spatial extent (au):  <R**2>=            239.8278
 Charge=             -0.0000 electrons
 Dipole moment (field-independent basis, Debye):
    X=             -0.0000    Y=             -0.0000    Z=             -1.0801  Tot=              1.0801
 Quadrupole moment (field-independent basis, Debye-Ang):
   XX=            -18.9344   YY=            -21.3163   ZZ=            -21.9150
   XY=             -0.0000   XZ=              0.0000   YZ=              0.0000
 Traceless Quadrupole moment (field-independent basis, Debye-Ang):
   XX=              1.7875   YY=             -0.5944   ZZ=             -1.1931
   XY=             -0.0000   XZ=              0.0000   YZ=              0.0000
 Octapole moment (field-independent basis, Debye-Ang**2):
  XXX=             -0.0000  YYY=             -0.0000  ZZZ=             34.0102  XYY=             -0.0000
  XXY=              0.0000  XXZ=             10.2724  XZZ=             -0.0000  YZZ=             -0.0000
  YYZ=             11.8979  XYZ=              0.0000
 Hexadecapole moment (field-independent basis, Debye-Ang**3):
 XXXX=            -13.5397 YYYY=            -79.8884 ZZZZ=           -132.7277 XXXY=             -0.0000
 XXXZ=             -0.0000 YYYX=             -0.0000 YYYZ=              0.0000 ZZZX=              0.0000
 ZZZY=              0.0000 XXYY=            -15.6473 XXZZ=            -23.6438 YYZZ=            -36.1827
 XXYZ=             -0.0000 YYXZ=              0.0000 ZZXY=             -0.0000
 N-N= 1.196216691613D+02 E-N=-9.812428668039D+02  KE= 3.123341845525D+02
 There are a total of       93060 grid points.
 ElSum from          density=       32.0000004505
 ElSum from atomic densities=       32.0000001295

 Hirshfeld populations at iteration   1 (CX, CA, CB, DipXYZ):
               1          2          3          4          5          6
     1  O    0.000004   4.110395   4.110395   0.000000   0.000000  -0.053936
     2  C    0.000000   2.819395   2.819395   0.000000   0.000000  -0.157854
     3  F    0.000001   4.535105   4.535105   0.000000   0.036739   0.037601
     4  F    0.000001   4.535105   4.535105  -0.000000  -0.036739   0.037601
       Tot   0.000006  16.000000  16.000000   0.000000   0.000000  -0.136588

 Dip from Atomic Chgs              0.000000   0.000000  -0.288347
         Total Dipole              0.000000   0.000000  -0.424935

 Hirshfeld charges, spin densities, dipoles, and CM5 charges using IRadAn=      5:
              Q-H        S-H        Dx         Dy         Dz        Q-CM5   
     1  O   -0.220789   0.000000   0.000000   0.000000  -0.053936  -0.262965
     2  C    0.361210   0.000000   0.000000   0.000000  -0.157854   0.440703
     3  F   -0.070211   0.000000   0.000000   0.036739   0.037601  -0.088869
     4  F   -0.070211   0.000000  -0.000000  -0.036739   0.037601  -0.088869
       Tot  -0.000000   0.000000   0.000000   0.000000  -0.136588  -0.000000
 Hirshfeld charges with hydrogens summed into heavy atoms:
              Q-H       Q-CM5   
     1  O   -0.220789  -0.262965
     2  C    0.361210   0.440703
     3  F   -0.070211  -0.088869
     4  F   -0.070211  -0.088869
 
 EQQ= 0.000000000000E+00 EQD= 0.000000000000E+00 EDD=-0.716691501798E-04
 EQQ+QD+DD=-0.716691501798E-04
 
 Breneman (CHELPG) radii used.
 Generate Potential Derived Charges using the Breneman model, NDens= 1.
 Grid spacing= 0.300 Box extension= 2.800
 NStep X,Y,Z=   20     27     26   Total possible points=       14040
 Number of Points to Fit=    4710

 **********************************************************************

            Electrostatic Properties Using The CC Density.

 **********************************************************************

       Atomic Center    1 is at   0.000000  0.000000  0.689927
       Atomic Center    2 is at   0.000000  0.000000 -0.492216
       Atomic Center    3 is at   0.000000 -1.058878 -1.264305
       Atomic Center    4 is at   0.000000  1.058878 -1.264305
    4710 points will be used for fitting atomic charges
 Fitting point charges to electrostatic potential
 The dipole moment will be constrained to the correct value
 Charges from ESP fit, RMS=   0.00233 RRMS=   0.17803:
 ESP charges:
               1
     1  O   -0.465955
     2  C    0.888132
     3  F   -0.211089
     4  F   -0.211089
 Sum of ESP charges =   0.00000
 ESP charges with hydrogens summed into heavy atoms:
               1
     1  O   -0.465955
     2  C    0.888132
     3  F   -0.211089
     4  F   -0.211089
 Charge=   0.00000 Dipole=     0.0000     0.0000    -1.0801 Tot=     1.0801
 -----------------------------------------------------------------

              Electrostatic Properties (Atomic Units)

 -----------------------------------------------------------------
    Center     Electric         -------- Electric Field --------
               Potential          X             Y             Z
 -----------------------------------------------------------------
    1 Atom    -22.289893
    2 Atom    -14.474775
    3 Atom    -26.490650
    4 Atom    -26.490650
 -----------------------------------------------------------------
 ******************************Gaussian NBO Version 3.1******************************
             N A T U R A L   A T O M I C   O R B I T A L   A N D
          N A T U R A L   B O N D   O R B I T A L   A N A L Y S I S
 ******************************Gaussian NBO Version 3.1******************************
       /RESON  / : Allow strongly delocalized NBO set

 Analyzing the QCI/CC density

 Job title: f2co-wavefunction                                               

 Storage needed:    102424 in NPA (2147483536 available)
 GSVD:  LWork=          64 too small for GESVD, short by       66368 words or       66368 for optimal perf.


 NATURAL POPULATIONS:  Natural atomic orbital occupancies 
                                                          
   NAO  Atom  No  lang   Type(AO)    Occupancy
 --------------------------------------------
     1    O    1  S      Cor( 1S)     1.99950
     2    O    1  S      Val( 2S)     1.71810
     3    O    1  S      Ryd( 3S)     0.00637
     4    O    1  S      Ryd( 4S)     0.00036
     5    O    1  S      Ryd( 5S)     0.00019
     6    O    1  px     Val( 2p)     1.42317
     7    O    1  px     Ryd( 3p)     0.00809
     8    O    1  px     Ryd( 4p)     0.00055
     9    O    1  px     Ryd( 5p)     0.00009
    10    O    1  py     Val( 2p)     1.77776
    11    O    1  py     Ryd( 3p)     0.01140
    12    O    1  py     Ryd( 4p)     0.00067
    13    O    1  py     Ryd( 5p)     0.00010
    14    O    1  pz     Val( 2p)     1.50427
    15    O    1  pz     Ryd( 3p)     0.00684
    16    O    1  pz     Ryd( 4p)     0.00041
    17    O    1  pz     Ryd( 5p)     0.00006
    18    O    1  dxy    Ryd( 3d)     0.00565
    19    O    1  dxy    Ryd( 4d)     0.00045
    20    O    1  dxy    Ryd( 5d)     0.00006
    21    O    1  dxz    Ryd( 3d)     0.01165
    22    O    1  dxz    Ryd( 4d)     0.00039
    23    O    1  dxz    Ryd( 5d)     0.00011
    24    O    1  dyz    Ryd( 3d)     0.01105
    25    O    1  dyz    Ryd( 4d)     0.00043
    26    O    1  dyz    Ryd( 5d)     0.00008
    27    O    1  dx2y2  Ryd( 3d)     0.00564
    28    O    1  dx2y2  Ryd( 4d)     0.00047
    29    O    1  dx2y2  Ryd( 5d)     0.00008
    30    O    1  dz2    Ryd( 3d)     0.01922
    31    O    1  dz2    Ryd( 4d)     0.00047
    32    O    1  dz2    Ryd( 5d)     0.00014
    33    O    1  f(0)   Ryd( 4f)     0.00092
    34    O    1  f(0)   Ryd( 5f)     0.00009
    35    O    1  f(C1)  Ryd( 4f)     0.00052
    36    O    1  f(C1)  Ryd( 5f)     0.00010
    37    O    1  f(S1)  Ryd( 4f)     0.00057
    38    O    1  f(S1)  Ryd( 5f)     0.00010
    39    O    1  f(C2)  Ryd( 4f)     0.00049
    40    O    1  f(C2)  Ryd( 5f)     0.00008
    41    O    1  f(S2)  Ryd( 4f)     0.00049
    42    O    1  f(S2)  Ryd( 5f)     0.00008
    43    O    1  f(C3)  Ryd( 4f)     0.00047
    44    O    1  f(C3)  Ryd( 5f)     0.00006
    45    O    1  f(S3)  Ryd( 4f)     0.00047
    46    O    1  f(S3)  Ryd( 5f)     0.00006

    47    C    2  S      Cor( 1S)     1.99936
    48    C    2  S      Val( 2S)     0.69320
    49    C    2  S      Ryd( 3S)     0.00529
    50    C    2  S      Ryd( 4S)     0.00012
    51    C    2  S      Ryd( 5S)     0.00008
    52    C    2  px     Val( 2p)     0.72702
    53    C    2  px     Ryd( 3p)     0.00470
    54    C    2  px     Ryd( 4p)     0.00050
    55    C    2  px     Ryd( 5p)     0.00013
    56    C    2  py     Val( 2p)     0.64737
    57    C    2  py     Ryd( 3p)     0.01350
    58    C    2  py     Ryd( 4p)     0.00030
    59    C    2  py     Ryd( 5p)     0.00021
    60    C    2  pz     Val( 2p)     0.70977
    61    C    2  pz     Ryd( 3p)     0.02270
    62    C    2  pz     Ryd( 4p)     0.00028
    63    C    2  pz     Ryd( 5p)     0.00016
    64    C    2  dxy    Ryd( 3d)     0.00619
    65    C    2  dxy    Ryd( 4d)     0.00021
    66    C    2  dxy    Ryd( 5d)     0.00017
    67    C    2  dxz    Ryd( 3d)     0.00846
    68    C    2  dxz    Ryd( 4d)     0.00026
    69    C    2  dxz    Ryd( 5d)     0.00019
    70    C    2  dyz    Ryd( 3d)     0.00995
    71    C    2  dyz    Ryd( 5d)     0.00020
    72    C    2  dyz    Ryd( 4d)     0.00025
    73    C    2  dx2y2  Ryd( 3d)     0.00401
    74    C    2  dx2y2  Ryd( 4d)     0.00039
    75    C    2  dx2y2  Ryd( 5d)     0.00011
    76    C    2  dz2    Ryd( 3d)     0.00490
    77    C    2  dz2    Ryd( 4d)     0.00030
    78    C    2  dz2    Ryd( 5d)     0.00016
    79    C    2  f(0)   Ryd( 4f)     0.00040
    80    C    2  f(0)   Ryd( 5f)     0.00016
    81    C    2  f(C1)  Ryd( 4f)     0.00034
    82    C    2  f(C1)  Ryd( 5f)     0.00020
    83    C    2  f(S1)  Ryd( 4f)     0.00051
    84    C    2  f(S1)  Ryd( 5f)     0.00015
    85    C    2  f(C2)  Ryd( 4f)     0.00042
    86    C    2  f(C2)  Ryd( 5f)     0.00013
    87    C    2  f(S2)  Ryd( 4f)     0.00051
    88    C    2  f(S2)  Ryd( 5f)     0.00013
    89    C    2  f(C3)  Ryd( 4f)     0.00036
    90    C    2  f(C3)  Ryd( 5f)     0.00023
    91    C    2  f(S3)  Ryd( 4f)     0.00032
    92    C    2  f(S3)  Ryd( 5f)     0.00016

    93    F    3  S      Cor( 1S)     1.99980
    94    F    3  S      Val( 2S)     1.84589
    95    F    3  S      Ryd( 3S)     0.00616
    96    F    3  S      Ryd( 4S)     0.00026
    97    F    3  S      Ryd( 5S)     0.00019
    98    F    3  px     Val( 2p)     1.87819
    99    F    3  px     Ryd( 3p)     0.01180
   100    F    3  px     Ryd( 4p)     0.00066
   101    F    3  px     Ryd( 5p)     0.00010
   102    F    3  py     Val( 2p)     1.69395
   103    F    3  py     Ryd( 3p)     0.00845
   104    F    3  py     Ryd( 4p)     0.00058
   105    F    3  py     Ryd( 5p)     0.00009
   106    F    3  pz     Val( 2p)     1.80924
   107    F    3  pz     Ryd( 3p)     0.00993
   108    F    3  pz     Ryd( 4p)     0.00062
   109    F    3  pz     Ryd( 5p)     0.00010
   110    F    3  dxy    Ryd( 3d)     0.00696
   111    F    3  dxy    Ryd( 4d)     0.00052
   112    F    3  dxy    Ryd( 5d)     0.00008
   113    F    3  dxz    Ryd( 3d)     0.00576
   114    F    3  dxz    Ryd( 4d)     0.00051
   115    F    3  dxz    Ryd( 5d)     0.00007
   116    F    3  dyz    Ryd( 3d)     0.00925
   117    F    3  dyz    Ryd( 4d)     0.00050
   118    F    3  dyz    Ryd( 5d)     0.00009
   119    F    3  dx2y2  Ryd( 3d)     0.00721
   120    F    3  dx2y2  Ryd( 4d)     0.00054
   121    F    3  dx2y2  Ryd( 5d)     0.00012
   122    F    3  dz2    Ryd( 3d)     0.00615
   123    F    3  dz2    Ryd( 4d)     0.00048
   124    F    3  dz2    Ryd( 5d)     0.00008
   125    F    3  f(0)   Ryd( 4f)     0.00051
   126    F    3  f(0)   Ryd( 5f)     0.00009
   127    F    3  f(C1)  Ryd( 4f)     0.00044
   128    F    3  f(C1)  Ryd( 5f)     0.00007
   129    F    3  f(S1)  Ryd( 4f)     0.00056
   130    F    3  f(S1)  Ryd( 5f)     0.00010
   131    F    3  f(C2)  Ryd( 4f)     0.00062
   132    F    3  f(C2)  Ryd( 5f)     0.00010
   133    F    3  f(S2)  Ryd( 4f)     0.00052
   134    F    3  f(S2)  Ryd( 5f)     0.00009
   135    F    3  f(C3)  Ryd( 4f)     0.00049
   136    F    3  f(C3)  Ryd( 5f)     0.00008
   137    F    3  f(S3)  Ryd( 4f)     0.00051
   138    F    3  f(S3)  Ryd( 5f)     0.00009

   139    F    4  S      Cor( 1S)     1.99980
   140    F    4  S      Val( 2S)     1.84589
   141    F    4  S      Ryd( 3S)     0.00616
   142    F    4  S      Ryd( 4S)     0.00026
   143    F    4  S      Ryd( 5S)     0.00019
   144    F    4  px     Val( 2p)     1.87819
   145    F    4  px     Ryd( 3p)     0.01180
   146    F    4  px     Ryd( 4p)     0.00066
   147    F    4  px     Ryd( 5p)     0.00010
   148    F    4  py     Val( 2p)     1.69395
   149    F    4  py     Ryd( 3p)     0.00845
   150    F    4  py     Ryd( 4p)     0.00058
   151    F    4  py     Ryd( 5p)     0.00009
   152    F    4  pz     Val( 2p)     1.80924
   153    F    4  pz     Ryd( 3p)     0.00993
   154    F    4  pz     Ryd( 4p)     0.00062
   155    F    4  pz     Ryd( 5p)     0.00010
   156    F    4  dxy    Ryd( 3d)     0.00696
   157    F    4  dxy    Ryd( 4d)     0.00052
   158    F    4  dxy    Ryd( 5d)     0.00008
   159    F    4  dxz    Ryd( 3d)     0.00576
   160    F    4  dxz    Ryd( 4d)     0.00051
   161    F    4  dxz    Ryd( 5d)     0.00007
   162    F    4  dyz    Ryd( 3d)     0.00925
   163    F    4  dyz    Ryd( 4d)     0.00050
   164    F    4  dyz    Ryd( 5d)     0.00009
   165    F    4  dx2y2  Ryd( 3d)     0.00721
   166    F    4  dx2y2  Ryd( 4d)     0.00054
   167    F    4  dx2y2  Ryd( 5d)     0.00012
   168    F    4  dz2    Ryd( 3d)     0.00615
   169    F    4  dz2    Ryd( 4d)     0.00048
   170    F    4  dz2    Ryd( 5d)     0.00008
   171    F    4  f(0)   Ryd( 4f)     0.00051
   172    F    4  f(0)   Ryd( 5f)     0.00009
   173    F    4  f(C1)  Ryd( 4f)     0.00044
   174    F    4  f(C1)  Ryd( 5f)     0.00007
   175    F    4  f(S1)  Ryd( 4f)     0.00056
   176    F    4  f(S1)  Ryd( 5f)     0.00010
   177    F    4  f(C2)  Ryd( 4f)     0.00062
   178    F    4  f(C2)  Ryd( 5f)     0.00010
   179    F    4  f(S2)  Ryd( 4f)     0.00052
   180    F    4  f(S2)  Ryd( 5f)     0.00009
   181    F    4  f(C3)  Ryd( 4f)     0.00049
   182    F    4  f(C3)  Ryd( 5f)     0.00008
   183    F    4  f(S3)  Ryd( 4f)     0.00051
   184    F    4  f(S3)  Ryd( 5f)     0.00009


 Summary of Natural Population Analysis:                  
                                                          
                                       Natural Population 
                Natural  -----------------------------------------------
    Atom  No    Charge         Core      Valence    Rydberg      Total
 -----------------------------------------------------------------------
      O    1   -0.51834      1.99950     6.42330    0.09554     8.51834
      C    2    1.13554      1.99936     2.77736    0.08774     4.86446
      F    3   -0.30860      1.99980     7.22727    0.08153     9.30860
      F    4   -0.30860      1.99980     7.22727    0.08153     9.30860
 =======================================================================
   * Total *   -0.00000      7.99846    23.65520    0.34634    32.00000

                                 Natural Population      
 --------------------------------------------------------
   Core                       7.99846 ( 99.9808% of   8)
   Valence                   23.65520 ( 98.5633% of  24)
   Natural Minimal Basis     31.65366 ( 98.9177% of  32)
   Natural Rydberg Basis      0.34634 (  1.0823% of  32)
 --------------------------------------------------------

    Atom  No          Natural Electron Configuration
 ----------------------------------------------------------------------------
      O    1      [core]2S( 1.72)2p( 4.71)3S( 0.01)3p( 0.03)3d( 0.05)
      C    2      [core]2S( 0.69)2p( 2.08)3S( 0.01)3p( 0.04)3d( 0.03)
      F    3      [core]2S( 1.85)2p( 5.38)3S( 0.01)3p( 0.03)3d( 0.04)
      F    4      [core]2S( 1.85)2p( 5.38)3S( 0.01)3p( 0.03)3d( 0.04)


 NBO analysis skipped by request.
 Unable to Open any file for archive entry.
 1\1\GINC-TRAPISTA\SP\RQCISD-FC\Aug-CC-pVTZ\C1F2O1\WAGNER\03-Sep-2022\0
 \\# qcisd/aug-cc-pvtz nosymm density=current pop=(chelpg,hirshfeld,npa
 ,dipole)\\f2co-wavefunction\\0,1\O,0,0.,0.,0.689927\C,0,0.,0.,-0.49221
 6\F,0,0.,-1.058878,-1.264305\F,0,0.,1.058878,-1.264305\\Version=EM64L-
 G16RevC.01\HF=-311.7400671\MP2=-312.6372037\MP3=-312.6242319\MP4D=-312
 .640016\MP4DQ=-312.6238512\MP4SDQ=-312.635639\QCISD=-312.6351209\RMSD=
 8.464e-09\Dipole=0.,0.,-0.4249352\Quadrupole=1.3289634,-0.4419188,-0.8
 870446,0.,0.,0.\PG=C02V [C2(C1O1),SGV(F2)]\\@
 The archive entry for this job was punched.


 WHAT THE SLIME CONTAINS, THE GLOWING REVEALS
 BY THE FLAME'S BRIGHT HUE WHEN YOU IGNITE IT.
   --  LEONARD THURNEYSSER, 1531-1596
 DESCRIBING HIS FLAME PHOTOLYSIS ANALYTIC METHOD
 Job cpu time:       0 days  5 hours 49 minutes 49.3 seconds.
 Elapsed time:       0 days  0 hours 22 minutes  8.5 seconds.
 File lengths (MBytes):  RWF=  21297 Int=      0 D2E=      0 Chk=      4 Scr=      1
 Normal termination of Gaussian 16 at Sat Sep  3 01:01:43 2022.
