 Entering Gaussian System, Link 0=/home/wagner/chemistry/gaussian/g16/g16
 Input=GAUSSIAN.com
 Output=GAUSSIAN.log
 Initial command:
 /home/wagner/chemistry/gaussian/g16/l1.exe "/home/wagner/chemistry/gaussian/work/Gau-2986.inp" -scrdir="/home/wagner/chemistry/gaussian/work/"
 Entering Link 1 = /home/wagner/chemistry/gaussian/g16/l1.exe PID=      2988.
  
 Copyright (c) 1988-2019, Gaussian, Inc.  All Rights Reserved.
  
 This is part of the Gaussian(R) 16 program.  It is based on
 the Gaussian(R) 09 system (copyright 2009, Gaussian, Inc.),
 the Gaussian(R) 03 system (copyright 2003, Gaussian, Inc.),
 the Gaussian(R) 98 system (copyright 1998, Gaussian, Inc.),
 the Gaussian(R) 94 system (copyright 1995, Gaussian, Inc.),
 the Gaussian 92(TM) system (copyright 1992, Gaussian, Inc.),
 the Gaussian 90(TM) system (copyright 1990, Gaussian, Inc.),
 the Gaussian 88(TM) system (copyright 1988, Gaussian, Inc.),
 the Gaussian 86(TM) system (copyright 1986, Carnegie Mellon
 University), and the Gaussian 82(TM) system (copyright 1983,
 Carnegie Mellon University). Gaussian is a federally registered
 trademark of Gaussian, Inc.
  
 This software contains proprietary and confidential information,
 including trade secrets, belonging to Gaussian, Inc.
  
 This software is provided under written license and may be
 used, copied, transmitted, or stored only in accord with that
 written license.
  
 The following legend is applicable only to US Government
 contracts under FAR:
  
                    RESTRICTED RIGHTS LEGEND
  
 Use, reproduction and disclosure by the US Government is
 subject to restrictions as set forth in subparagraphs (a)
 and (c) of the Commercial Computer Software - Restricted
 Rights clause in FAR 52.227-19.
  
 Gaussian, Inc.
 340 Quinnipiac St., Bldg. 40, Wallingford CT 06492
  
  
 ---------------------------------------------------------------
 Warning -- This program may not be used in any manner that
 competes with the business of Gaussian, Inc. or will provide
 assistance to any competitor of Gaussian, Inc.  The licensee
 of this program is prohibited from giving any competitor of
 Gaussian, Inc. access to this program.  By using this program,
 the user acknowledges that Gaussian, Inc. is engaged in the
 business of creating and licensing software in the field of
 computational chemistry and represents and warrants to the
 licensee that it is not a competitor of Gaussian, Inc. and that
 it will not use this program in any manner prohibited above.
 ---------------------------------------------------------------
  

 Cite this work as:
 Gaussian 16, Revision C.01,
 M. J. Frisch, G. W. Trucks, H. B. Schlegel, G. E. Scuseria, 
 M. A. Robb, J. R. Cheeseman, G. Scalmani, V. Barone, 
 G. A. Petersson, H. Nakatsuji, X. Li, M. Caricato, A. V. Marenich, 
 J. Bloino, B. G. Janesko, R. Gomperts, B. Mennucci, H. P. Hratchian, 
 J. V. Ortiz, A. F. Izmaylov, J. L. Sonnenberg, D. Williams-Young, 
 F. Ding, F. Lipparini, F. Egidi, J. Goings, B. Peng, A. Petrone, 
 T. Henderson, D. Ranasinghe, V. G. Zakrzewski, J. Gao, N. Rega, 
 G. Zheng, W. Liang, M. Hada, M. Ehara, K. Toyota, R. Fukuda, 
 J. Hasegawa, M. Ishida, T. Nakajima, Y. Honda, O. Kitao, H. Nakai, 
 T. Vreven, K. Throssell, J. A. Montgomery, Jr., J. E. Peralta, 
 F. Ogliaro, M. J. Bearpark, J. J. Heyd, E. N. Brothers, K. N. Kudin, 
 V. N. Staroverov, T. A. Keith, R. Kobayashi, J. Normand, 
 K. Raghavachari, A. P. Rendell, J. C. Burant, S. S. Iyengar, 
 J. Tomasi, M. Cossi, J. M. Millam, M. Klene, C. Adamo, R. Cammi, 
 J. W. Ochterski, R. L. Martin, K. Morokuma, O. Farkas, 
 J. B. Foresman, and D. J. Fox, Gaussian, Inc., Wallingford CT, 2019.
 
 ******************************************
 Gaussian 16:  EM64L-G16RevC.01  3-Jul-2019
                 3-Sep-2022 
 ******************************************
 %nproc=16
 Will use up to   16 processors via shared memory.
 %mem=16GB
 ----------------------------------------------------------------------
 # qcisd/aug-cc-pvtz nosymm density=current pop=(chelpg,hirshfeld,npa,d
 ipole)
 ----------------------------------------------------------------------
 1/30=1,38=1,172=1/1;
 2/12=2,15=1,17=6,18=5,40=1/2;
 3/5=16,6=1,7=10,11=9,25=1,30=1,71=1/1,2,3;
 4//1;
 5/5=2,38=5/2;
 8/6=4,9=120000,10=1/1,4;
 9/5=8,15=1/13;
 11/28=-7,31=1,32=3,42=3/11;
 10/5=6,13=10,31=1/2;
 6/7=2,8=2,9=2,10=2,15=24,20=3,22=-1,40=-1,79=1/1,2,7;
 99/5=1,9=1/99;
 -----------------
 f2co-wavefunction
 -----------------
 Symbolic Z-matrix:
 Charge =  0 Multiplicity = 1
 O                     0.        0.        0.67993 
 C                     0.        0.       -0.48222 
 F                     0.       -1.05888  -1.26431 
 F                     0.        1.05888  -1.26431 
 
                          Input orientation:                          
 ---------------------------------------------------------------------
 Center     Atomic      Atomic             Coordinates (Angstroms)
 Number     Number       Type             X           Y           Z
 ---------------------------------------------------------------------
      1          8           0        0.000000    0.000000    0.679927
      2          6           0        0.000000    0.000000   -0.482216
      3          9           0        0.000000   -1.058878   -1.264305
      4          9           0        0.000000    1.058878   -1.264305
 ---------------------------------------------------------------------
                    Distance matrix (angstroms):
                    1          2          3          4
     1  O    0.000000
     2  C    1.162143   0.000000
     3  F    2.213879   1.316391   0.000000
     4  F    2.213879   1.316391   2.117756   0.000000
 Symmetry turned off by external request.
 Stoichiometry    CF2O
 Framework group  C2V[C2(CO),SGV(F2)]
 Deg. of freedom     3
 Full point group                 C2V     NOp   4
 Rotational constants (GHZ):          11.8625554          11.7620413           5.9060422
 Standard basis: Aug-CC-pVTZ (5D, 7F)
   184 basis functions,   288 primitive gaussians,   220 cartesian basis functions
    16 alpha electrons       16 beta electrons
       nuclear repulsion energy       119.9315172725 Hartrees.
 NAtoms=    4 NActive=    4 NUniq=    4 SFac= 1.00D+00 NAtFMM=   60 NAOKFM=F Big=F
 Integral buffers will be    131072 words long.
 Raffenetti 1 integral format.
 Two-electron integral symmetry is turned off.
 One-electron integrals computed using PRISM.
 NBasis=   184 RedAO= T EigKep=  3.45D-04  NBF=   184
 NBsUse=   184 1.00D-06 EigRej= -1.00D+00 NBFU=   184
 ExpMin= 3.57D-02 ExpMax= 1.95D+04 ExpMxC= 6.65D+02 IAcc=3 IRadAn=         5 AccDes= 0.00D+00
 Harris functional with IExCor=  205 and IRadAn=       5 diagonalized for initial guess.
 HarFok:  IExCor=  205 AccDes= 0.00D+00 IRadAn=         5 IDoV= 1 UseB2=F ITyADJ=14
 ICtDFT=  3500011 ScaDFX=  1.000000  1.000000  1.000000  1.000000
 FoFCou: FMM=F IPFlag=           0 FMFlag=      100000 FMFlg1=           0
         NFxFlg=           0 DoJE=T BraDBF=F KetDBF=T FulRan=T
         wScrn=  0.000000 ICntrl=       500 IOpCl=  0 I1Cent=   200000004 NGrid=           0
         NMat0=    1 NMatS0=      1 NMatT0=    0 NMatD0=    1 NMtDS0=    0 NMtDT0=    0
 Symmetry not used in FoFCou.
 Keep R1 ints in memory in canonical form, NReq=152781309.
 Requested convergence on RMS density matrix=1.00D-08 within 128 cycles.
 Requested convergence on MAX density matrix=1.00D-06.
 Requested convergence on             energy=1.00D-06.
 No special actions if energy rises.
 SCF Done:  E(RHF) =  -311.741263836     A.U. after   11 cycles
            NFock= 11  Conv=0.82D-08     -V/T= 2.0014
 ExpMin= 3.57D-02 ExpMax= 1.95D+04 ExpMxC= 6.65D+02 IAcc=3 IRadAn=         5 AccDes= 0.00D+00
 HarFok:  IExCor=  205 AccDes= 0.00D+00 IRadAn=         5 IDoV=-2 UseB2=F ITyADJ=14
 ICtDFT= 12500011 ScaDFX=  1.000000  1.000000  1.000000  1.000000
 Range of M.O.s used for correlation:     5   184
 NBasis=   184 NAE=    16 NBE=    16 NFC=     4 NFV=     0
 NROrb=    180 NOA=    12 NOB=    12 NVA=   168 NVB=   168

 **** Warning!!: The largest alpha MO coefficient is  0.15546861D+02

 Semi-Direct transformation.
 ModeAB=           2 MOrb=            12 LenV=    2146514619
 LASXX=     33405819 LTotXX=    33405819 LenRXX=    33405819
 LTotAB=    33954012 MaxLAS=    52509600 LenRXY=    52509600
 NonZer=    66811638 LenScr=   100987392 LnRSAI=           0
 LnScr1=           0 LExtra=           0 Total=    186902811
 MaxDsk=          -1 SrtSym=           F ITran=            4
 JobTyp=0 Pass  1:  I=   1 to  12.
 (rs|ai) integrals will be sorted in core.
 Spin components of T(2) and E(2):
     alpha-alpha T2 =       0.2652281354D-01 E2=     -0.1190498922D+00
     alpha-beta  T2 =       0.1368844832D+00 E2=     -0.6574825009D+00
     beta-beta   T2 =       0.2652281354D-01 E2=     -0.1190498922D+00
 ANorm=    0.1090839177D+01
 E2 =    -0.8955822853D+00 EUMP2 =    -0.31263684612113D+03
 Keep R2 and R3 ints in memory in canonical form, NReq=297638821.
 CIDS: In Core Option IDoMem=           1.
 Iterations=  50 Convergence= 0.100D-07
 Produce multiple copies of IABC intergrals
 Iteration Nr.   1
 **********************
 DD1Dir will call FoFMem   1 times, MxPair=       156
 NAB=    78 NAA=     0 NBB=     0.
 MP4(R+Q)=  0.16021074D-01
 E3=        0.12350090D-01        EUMP3=      -0.31262449603D+03
 E4(DQ)=    0.47639422D-03        UMP4(DQ)=   -0.31262401964D+03
 E4(SDQ)=  -0.11068689D-01        UMP4(SDQ)=  -0.31263556472D+03
 DE(Corr)= -0.86721112     E(Corr)=     -312.60847496    
 NORM(A)=   0.10857713D+01
 Iteration Nr.   2
 **********************
 DD1Dir will call FoFMem   1 times, MxPair=       156
 NAB=    78 NAA=     0 NBB=     0.
 DE(Corr)= -0.89295863     E(CORR)=     -312.63422247     Delta=-2.57D-02
 NORM(A)=   0.10930269D+01
 Iteration Nr.   3
 **********************
 DD1Dir will call FoFMem   1 times, MxPair=       156
 NAB=    78 NAA=     0 NBB=     0.
 DE(Corr)= -0.89122921     E(CORR)=     -312.63249304     Delta= 1.73D-03
 NORM(A)=   0.10952293D+01
 Iteration Nr.   4
 **********************
 DD1Dir will call FoFMem   1 times, MxPair=       156
 NAB=    78 NAA=     0 NBB=     0.
 DE(Corr)= -0.89351273     E(CORR)=     -312.63477657     Delta=-2.28D-03
 NORM(A)=   0.10960202D+01
 Iteration Nr.   5
 **********************
 DD1Dir will call FoFMem   1 times, MxPair=       156
 NAB=    78 NAA=     0 NBB=     0.
 DE(Corr)= -0.89377507     E(CORR)=     -312.63503891     Delta=-2.62D-04
 NORM(A)=   0.10961997D+01
 Iteration Nr.   6
 **********************
 DD1Dir will call FoFMem   1 times, MxPair=       156
 NAB=    78 NAA=     0 NBB=     0.
 DE(Corr)= -0.89380153     E(CORR)=     -312.63506536     Delta=-2.65D-05
 NORM(A)=   0.10962132D+01
 Iteration Nr.   7
 **********************
 DD1Dir will call FoFMem   1 times, MxPair=       156
 NAB=    78 NAA=     0 NBB=     0.
 DE(Corr)= -0.89380323     E(CORR)=     -312.63506707     Delta=-1.71D-06
 NORM(A)=   0.10962129D+01
 Iteration Nr.   8
 **********************
 DD1Dir will call FoFMem   1 times, MxPair=       156
 NAB=    78 NAA=     0 NBB=     0.
 DE(Corr)= -0.89380226     E(CORR)=     -312.63506609     Delta= 9.74D-07
 NORM(A)=   0.10962133D+01
 Iteration Nr.   9
 **********************
 DD1Dir will call FoFMem   1 times, MxPair=       156
 NAB=    78 NAA=     0 NBB=     0.
 DE(Corr)= -0.89380261     E(CORR)=     -312.63506645     Delta=-3.57D-07
 NORM(A)=   0.10962133D+01
 Iteration Nr.  10
 **********************
 DD1Dir will call FoFMem   1 times, MxPair=       156
 NAB=    78 NAA=     0 NBB=     0.
 DE(Corr)= -0.89380253     E(CORR)=     -312.63506637     Delta= 8.34D-08
 NORM(A)=   0.10962135D+01
 Iteration Nr.  11
 **********************
 DD1Dir will call FoFMem   1 times, MxPair=       156
 NAB=    78 NAA=     0 NBB=     0.
 DE(Corr)= -0.89380305     E(CORR)=     -312.63506689     Delta=-5.22D-07
 NORM(A)=   0.10962139D+01
 Iteration Nr.  12
 **********************
 DD1Dir will call FoFMem   1 times, MxPair=       156
 NAB=    78 NAA=     0 NBB=     0.
 DE(Corr)= -0.89380311     E(CORR)=     -312.63506695     Delta=-5.69D-08
 NORM(A)=   0.10962141D+01
 Iteration Nr.  13
 **********************
 DD1Dir will call FoFMem   1 times, MxPair=       156
 NAB=    78 NAA=     0 NBB=     0.
 DE(Corr)= -0.89380322     E(CORR)=     -312.63506706     Delta=-1.15D-07
 NORM(A)=   0.10962142D+01
 Iteration Nr.  14
 **********************
 DD1Dir will call FoFMem   1 times, MxPair=       156
 NAB=    78 NAA=     0 NBB=     0.
 DE(Corr)= -0.89380324     E(CORR)=     -312.63506708     Delta=-1.86D-08
 NORM(A)=   0.10962143D+01
 Iteration Nr.  15
 **********************
 DD1Dir will call FoFMem   1 times, MxPair=       156
 NAB=    78 NAA=     0 NBB=     0.
 DE(Corr)= -0.89380326     E(CORR)=     -312.63506709     Delta=-1.24D-08
 NORM(A)=   0.10962143D+01
 Iteration Nr.  16
 **********************
 DD1Dir will call FoFMem   1 times, MxPair=       156
 NAB=    78 NAA=     0 NBB=     0.
 DE(Corr)= -0.89380326     E(CORR)=     -312.63506709     Delta=-3.90D-09
 NORM(A)=   0.10962143D+01
 Wavefunction amplitudes converged. E(Corr)=     -312.63506709    
 Largest amplitude= 5.48D-02

 Z-amplitude iterations

 Iteration Nr.   1
 **********************
 DD1Dir will call FoFMem   1 times, MxPair=       156
 NAB=    78 NAA=     0 NBB=     0.
 DE(Z)= -0.87455741     E(Z)=     -312.61582124     Delta= 1.92D-02
 NORM(A)=   0.10962103D+01
 Iteration Nr.   2
 **********************
 DD1Dir will call FoFMem   1 times, MxPair=       156
 NAB=    78 NAA=     0 NBB=     0.
 DE(Z)= -0.87455738     E(Z)=     -312.61582122     Delta= 2.21D-08
 NORM(A)=   0.10962158D+01
 Iteration Nr.   3
 **********************
 DD1Dir will call FoFMem   1 times, MxPair=       156
 NAB=    78 NAA=     0 NBB=     0.
 DE(Z)= -0.87455743     E(Z)=     -312.61582126     Delta=-4.25D-08
 NORM(A)=   0.10962152D+01
 Iteration Nr.   4
 **********************
 DD1Dir will call FoFMem   1 times, MxPair=       156
 NAB=    78 NAA=     0 NBB=     0.
 DE(Z)= -0.87455741     E(Z)=     -312.61582125     Delta= 1.11D-08
 NORM(A)=   0.10962169D+01
 Iteration Nr.   5
 **********************
 DD1Dir will call FoFMem   1 times, MxPair=       156
 NAB=    78 NAA=     0 NBB=     0.
 DE(Z)= -0.87455741     E(Z)=     -312.61582125     Delta= 4.74D-09
 NORM(A)=   0.10918229D+01
 Iteration Nr.   6
 **********************
 DD1Dir will call FoFMem   1 times, MxPair=       156
 NAB=    78 NAA=     0 NBB=     0.
 DE(Z)= -0.87451224     E(Z)=     -312.61577608     Delta= 4.52D-05
 NORM(A)=   0.10918123D+01
 Iteration Nr.   7
 **********************
 DD1Dir will call FoFMem   1 times, MxPair=       156
 NAB=    78 NAA=     0 NBB=     0.
 DE(Z)= -0.87449378     E(Z)=     -312.61575762     Delta= 1.85D-05
 NORM(A)=   0.10918050D+01
 Iteration Nr.   8
 **********************
 DD1Dir will call FoFMem   1 times, MxPair=       156
 NAB=    78 NAA=     0 NBB=     0.
 DE(Z)= -0.87449576     E(Z)=     -312.61575960     Delta=-1.98D-06
 NORM(A)=   0.10918041D+01
 Iteration Nr.   9
 **********************
 DD1Dir will call FoFMem   1 times, MxPair=       156
 NAB=    78 NAA=     0 NBB=     0.
 DE(Z)= -0.87449343     E(Z)=     -312.61575727     Delta= 2.33D-06
 NORM(A)=   0.10918041D+01
 Iteration Nr.  10
 **********************
 DD1Dir will call FoFMem   1 times, MxPair=       156
 NAB=    78 NAA=     0 NBB=     0.
 DE(Z)= -0.87449401     E(Z)=     -312.61575784     Delta=-5.75D-07
 NORM(A)=   0.10918043D+01
 Iteration Nr.  11
 **********************
 DD1Dir will call FoFMem   1 times, MxPair=       156
 NAB=    78 NAA=     0 NBB=     0.
 DE(Z)= -0.87449410     E(Z)=     -312.61575794     Delta=-9.34D-08
 NORM(A)=   0.10918043D+01
 Iteration Nr.  12
 **********************
 DD1Dir will call FoFMem   1 times, MxPair=       156
 NAB=    78 NAA=     0 NBB=     0.
 DE(Z)= -0.87449407     E(Z)=     -312.61575790     Delta= 3.41D-08
 NORM(A)=   0.10918044D+01
 Iteration Nr.  13
 **********************
 DD1Dir will call FoFMem   1 times, MxPair=       156
 NAB=    78 NAA=     0 NBB=     0.
 DE(Z)= -0.87449410     E(Z)=     -312.61575794     Delta=-3.16D-08
 NORM(A)=   0.10918044D+01
 Iteration Nr.  14
 **********************
 DD1Dir will call FoFMem   1 times, MxPair=       156
 NAB=    78 NAA=     0 NBB=     0.
 DE(Z)= -0.87449408     E(Z)=     -312.61575792     Delta= 1.46D-08
 NORM(A)=   0.10918044D+01
 Iteration Nr.  15
 **********************
 DD1Dir will call FoFMem   1 times, MxPair=       156
 NAB=    78 NAA=     0 NBB=     0.
 DE(Z)= -0.87449409     E(Z)=     -312.61575792     Delta=-2.94D-09
 NORM(A)=   0.10918044D+01
 Z-amplitudes converged.
 Discarding MO integrals.
          Differentiating once with respect to electric field.
                with respect to dipole field.
          Electric field/nuclear overlap derivatives assumed to be zero.
 Keep R1 ints in memory in canonical form, NReq=152784219.
          There are     1 degrees of freedom in the 1st order CPHF.  IDoFFX=0 NUNeed=     1.
 LinEq1:  Iter=  0 NonCon=     1 RMS=3.06D-03 Max=8.36D-02 NDo=     1
 AX will form     1 AO Fock derivatives at one time.
 LinEq1:  Iter=  1 NonCon=     1 RMS=7.54D-04 Max=1.11D-02 NDo=     1
 LinEq1:  Iter=  2 NonCon=     1 RMS=2.23D-04 Max=3.32D-03 NDo=     1
 LinEq1:  Iter=  3 NonCon=     1 RMS=9.82D-05 Max=1.63D-03 NDo=     1
 LinEq1:  Iter=  4 NonCon=     1 RMS=2.24D-05 Max=3.85D-04 NDo=     1
 LinEq1:  Iter=  5 NonCon=     1 RMS=1.10D-05 Max=3.32D-04 NDo=     1
 LinEq1:  Iter=  6 NonCon=     1 RMS=3.00D-06 Max=5.50D-05 NDo=     1
 LinEq1:  Iter=  7 NonCon=     1 RMS=5.97D-07 Max=8.94D-06 NDo=     1
 LinEq1:  Iter=  8 NonCon=     1 RMS=9.58D-08 Max=1.10D-06 NDo=     1
 LinEq1:  Iter=  9 NonCon=     1 RMS=1.30D-08 Max=1.77D-07 NDo=     1
 LinEq1:  Iter= 10 NonCon=     1 RMS=1.78D-09 Max=2.10D-08 NDo=     1
 LinEq1:  Iter= 11 NonCon=     1 RMS=3.66D-10 Max=5.10D-09 NDo=     1
 LinEq1:  Iter= 12 NonCon=     0 RMS=5.15D-11 Max=4.78D-10 NDo=     1
 Linear equations converged to 1.000D-10 1.000D-09 after    12 iterations.
 End of Minotr F.D. properties file   721 does not exist.
 End of Minotr F.D. properties file   722 does not exist.
 End of Minotr F.D. properties file   788 does not exist.

 **********************************************************************

            Population analysis using the CC Density.

 **********************************************************************

 Alpha  occ. eigenvalues --  -26.39048 -26.39045 -20.62275 -11.53268  -1.75916
 Alpha  occ. eigenvalues --   -1.68200  -1.48734  -0.95511  -0.86312  -0.81564
 Alpha  occ. eigenvalues --   -0.80457  -0.72465  -0.70852  -0.70227  -0.58211
 Alpha  occ. eigenvalues --   -0.56189
 Alpha virt. eigenvalues --    0.05535   0.07197   0.07802   0.07899   0.15464
 Alpha virt. eigenvalues --    0.17067   0.17172   0.19370   0.20031   0.21672
 Alpha virt. eigenvalues --    0.24744   0.24803   0.26184   0.26424   0.28533
 Alpha virt. eigenvalues --    0.31096   0.34945   0.36138   0.38793   0.41770
 Alpha virt. eigenvalues --    0.44201   0.48298   0.50029   0.52344   0.53397
 Alpha virt. eigenvalues --    0.62948   0.66587   0.69257   0.72927   0.78529
 Alpha virt. eigenvalues --    0.81100   0.81674   0.84648   0.91279   0.93271
 Alpha virt. eigenvalues --    0.96293   0.97214   1.03289   1.04420   1.06956
 Alpha virt. eigenvalues --    1.07424   1.10342   1.10475   1.10540   1.14343
 Alpha virt. eigenvalues --    1.14554   1.19219   1.21548   1.24014   1.26943
 Alpha virt. eigenvalues --    1.28433   1.29907   1.37475   1.40898   1.49825
 Alpha virt. eigenvalues --    1.51446   1.52584   1.55934   1.65736   1.68110
 Alpha virt. eigenvalues --    1.70027   1.75627   1.78158   1.79729   2.03656
 Alpha virt. eigenvalues --    2.22666   2.27598   2.28625   2.34016   2.35429
 Alpha virt. eigenvalues --    2.41329   2.49139   2.55708   2.59687   2.61548
 Alpha virt. eigenvalues --    2.67307   2.70937   2.72710   2.73909   2.77231
 Alpha virt. eigenvalues --    2.80266   2.81978   2.83054   2.88535   2.92149
 Alpha virt. eigenvalues --    2.94422   2.94492   2.94882   3.05666   3.08291
 Alpha virt. eigenvalues --    3.09827   3.10306   3.13154   3.20845   3.23251
 Alpha virt. eigenvalues --    3.31442   3.36605   3.39104   3.46288   3.52831
 Alpha virt. eigenvalues --    3.55766   3.59710   3.63722   3.78965   3.80609
 Alpha virt. eigenvalues --    3.94875   3.99655   4.02213   4.03633   4.07971
 Alpha virt. eigenvalues --    4.21635   4.22279   4.40497   4.41262   4.53275
 Alpha virt. eigenvalues --    4.59017   4.75558   4.77209   4.83475   5.28235
 Alpha virt. eigenvalues --    5.35785   5.45879   5.47345   5.56066   5.75167
 Alpha virt. eigenvalues --    6.10700   6.56836   6.58171   6.68968   6.89375
 Alpha virt. eigenvalues --    7.11952   7.15134   7.18887   7.22035   7.23077
 Alpha virt. eigenvalues --    7.40469   7.49887   7.60956   7.70598   7.70655
 Alpha virt. eigenvalues --    8.78611   8.80176   8.85166   8.87139   9.00390
 Alpha virt. eigenvalues --    9.02799   9.11640   9.12968   9.19878   9.26105
 Alpha virt. eigenvalues --    9.27031   9.30433   9.33540   9.33629   9.33929
 Alpha virt. eigenvalues --    9.35528   9.37254   9.56164   9.61112   9.62959
 Alpha virt. eigenvalues --    9.66415   9.75765   9.87782   9.95473  13.34221
 Alpha virt. eigenvalues --   15.07908  16.32709  17.40358
          Condensed to atoms (all electrons):
               1          2          3          4
     1  O    7.933397   0.504813  -0.079750  -0.079750
     2  C    0.504813   4.514476   0.183738   0.183738
     3  F   -0.079750   0.183738   9.112761  -0.049487
     4  F   -0.079750   0.183738  -0.049487   9.112761
 Mulliken charges:
               1
     1  O   -0.278711
     2  C    0.613235
     3  F   -0.167262
     4  F   -0.167262
 Sum of Mulliken charges =  -0.00000
 Mulliken charges with hydrogens summed into heavy atoms:
               1
     1  O   -0.278711
     2  C    0.613235
     3  F   -0.167262
     4  F   -0.167262
 Electronic spatial extent (au):  <R**2>=            239.2809
 Charge=             -0.0000 electrons
 Dipole moment (field-independent basis, Debye):
    X=             -0.0000    Y=             -0.0000    Z=             -0.9249  Tot=              0.9249
 Quadrupole moment (field-independent basis, Debye-Ang):
   XX=            -18.8886   YY=            -21.3538   ZZ=            -21.9949
   XY=             -0.0000   XZ=             -0.0000   YZ=              0.0000
 Traceless Quadrupole moment (field-independent basis, Debye-Ang):
   XX=              1.8572   YY=             -0.6081   ZZ=             -1.2491
   XY=             -0.0000   XZ=             -0.0000   YZ=              0.0000
 Octapole moment (field-independent basis, Debye-Ang**2):
  XXX=             -0.0000  YYY=              0.0000  ZZZ=             34.3289  XYY=              0.0000
  XXY=              0.0000  XXZ=             10.3649  XZZ=              0.0000  YZZ=             -0.0000
  YYZ=             12.0798  XYZ=              0.0000
 Hexadecapole moment (field-independent basis, Debye-Ang**3):
 XXXX=            -13.4412 YYYY=            -80.1502 ZZZZ=           -132.3163 XXXY=             -0.0000
 XXXZ=              0.0000 YYYX=             -0.0000 YYYZ=             -0.0000 ZZZX=             -0.0000
 ZZZY=              0.0000 XXYY=            -15.6614 XXZZ=            -23.5554 YYZZ=            -36.1812
 XXYZ=             -0.0000 YYXZ=             -0.0000 ZZXY=             -0.0000
 N-N= 1.199315172725D+02 E-N=-9.819418284461D+02  KE= 3.124014157670D+02
 There are a total of       93060 grid points.
 ElSum from          density=       32.0000005045
 ElSum from atomic densities=       32.0000001765

 Hirshfeld populations at iteration   1 (CX, CA, CB, DipXYZ):
               1          2          3          4          5          6
     1  O    0.000003   4.105785   4.105785   0.000000   0.000000  -0.049454
     2  C    0.000000   2.818680   2.818680   0.000000   0.000000  -0.151775
     3  F    0.000001   4.537768   4.537768   0.000000   0.038838   0.039359
     4  F    0.000001   4.537768   4.537768  -0.000000  -0.038838   0.039359
       Tot   0.000006  16.000000  16.000000   0.000000   0.000000  -0.122512

 Dip from Atomic Chgs              0.000000  -0.000000  -0.241364
         Total Dipole              0.000000   0.000000  -0.363876

 Hirshfeld charges, spin densities, dipoles, and CM5 charges using IRadAn=      5:
              Q-H        S-H        Dx         Dy         Dz        Q-CM5   
     1  O   -0.211570   0.000000   0.000000   0.000000  -0.049454  -0.255798
     2  C    0.362640   0.000000   0.000000   0.000000  -0.151775   0.443532
     3  F   -0.075535   0.000000   0.000000   0.038838   0.039359  -0.093867
     4  F   -0.075535   0.000000  -0.000000  -0.038838   0.039359  -0.093867
       Tot  -0.000001   0.000000   0.000000   0.000000  -0.122512  -0.000001
 Hirshfeld charges with hydrogens summed into heavy atoms:
              Q-H       Q-CM5   
     1  O   -0.211570  -0.255798
     2  C    0.362640   0.443532
     3  F   -0.075535  -0.093867
     4  F   -0.075535  -0.093867
 
 EQQ= 0.000000000000E+00 EQD= 0.000000000000E+00 EDD=-0.119982798299E-03
 EQQ+QD+DD=-0.119982798299E-03
 
 Breneman (CHELPG) radii used.
 Generate Potential Derived Charges using the Breneman model, NDens= 1.
 Grid spacing= 0.300 Box extension= 2.800
 NStep X,Y,Z=   20     27     27   Total possible points=       14580
 Number of Points to Fit=    4710

 **********************************************************************

            Electrostatic Properties Using The CC Density.

 **********************************************************************

       Atomic Center    1 is at   0.000000  0.000000  0.679927
       Atomic Center    2 is at   0.000000  0.000000 -0.482216
       Atomic Center    3 is at   0.000000 -1.058878 -1.264305
       Atomic Center    4 is at   0.000000  1.058878 -1.264305
    4710 points will be used for fitting atomic charges
 Fitting point charges to electrostatic potential
 The dipole moment will be constrained to the correct value
 Charges from ESP fit, RMS=   0.00227 RRMS=   0.18168:
 ESP charges:
               1
     1  O   -0.461177
     2  C    0.900256
     3  F   -0.219539
     4  F   -0.219539
 Sum of ESP charges =   0.00000
 ESP charges with hydrogens summed into heavy atoms:
               1
     1  O   -0.461177
     2  C    0.900256
     3  F   -0.219539
     4  F   -0.219539
 Charge=   0.00000 Dipole=     0.0000     0.0000    -0.9249 Tot=     0.9249
 -----------------------------------------------------------------

              Electrostatic Properties (Atomic Units)

 -----------------------------------------------------------------
    Center     Electric         -------- Electric Field --------
               Potential          X             Y             Z
 -----------------------------------------------------------------
    1 Atom    -22.288105
    2 Atom    -14.478895
    3 Atom    -26.494475
    4 Atom    -26.494475
 -----------------------------------------------------------------
 ******************************Gaussian NBO Version 3.1******************************
             N A T U R A L   A T O M I C   O R B I T A L   A N D
          N A T U R A L   B O N D   O R B I T A L   A N A L Y S I S
 ******************************Gaussian NBO Version 3.1******************************
       /RESON  / : Allow strongly delocalized NBO set

 Analyzing the QCI/CC density

 Job title: f2co-wavefunction                                               

 Storage needed:    102424 in NPA (2147483536 available)
 GSVD:  LWork=          64 too small for GESVD, short by       66368 words or       66368 for optimal perf.


 NATURAL POPULATIONS:  Natural atomic orbital occupancies 
                                                          
   NAO  Atom  No  lang   Type(AO)    Occupancy
 --------------------------------------------
     1    O    1  S      Cor( 1S)     1.99947
     2    O    1  S      Val( 2S)     1.70667
     3    O    1  S      Ryd( 3S)     0.00635
     4    O    1  S      Ryd( 4S)     0.00038
     5    O    1  S      Ryd( 5S)     0.00019
     6    O    1  px     Val( 2p)     1.41726
     7    O    1  px     Ryd( 3p)     0.00784
     8    O    1  px     Ryd( 4p)     0.00054
     9    O    1  px     Ryd( 5p)     0.00009
    10    O    1  py     Val( 2p)     1.76610
    11    O    1  py     Ryd( 3p)     0.01114
    12    O    1  py     Ryd( 4p)     0.00066
    13    O    1  py     Ryd( 5p)     0.00010
    14    O    1  pz     Val( 2p)     1.52382
    15    O    1  pz     Ryd( 3p)     0.00679
    16    O    1  pz     Ryd( 4p)     0.00043
    17    O    1  pz     Ryd( 5p)     0.00006
    18    O    1  dxy    Ryd( 3d)     0.00565
    19    O    1  dxy    Ryd( 4d)     0.00044
    20    O    1  dxy    Ryd( 5d)     0.00006
    21    O    1  dxz    Ryd( 3d)     0.01195
    22    O    1  dxz    Ryd( 4d)     0.00038
    23    O    1  dxz    Ryd( 5d)     0.00011
    24    O    1  dyz    Ryd( 3d)     0.01137
    25    O    1  dyz    Ryd( 4d)     0.00042
    26    O    1  dyz    Ryd( 5d)     0.00007
    27    O    1  dx2y2  Ryd( 3d)     0.00563
    28    O    1  dx2y2  Ryd( 4d)     0.00046
    29    O    1  dx2y2  Ryd( 5d)     0.00008
    30    O    1  dz2    Ryd( 3d)     0.02024
    31    O    1  dz2    Ryd( 4d)     0.00046
    32    O    1  dz2    Ryd( 5d)     0.00014
    33    O    1  f(0)   Ryd( 4f)     0.00092
    34    O    1  f(0)   Ryd( 5f)     0.00009
    35    O    1  f(C1)  Ryd( 4f)     0.00053
    36    O    1  f(C1)  Ryd( 5f)     0.00010
    37    O    1  f(S1)  Ryd( 4f)     0.00057
    38    O    1  f(S1)  Ryd( 5f)     0.00010
    39    O    1  f(C2)  Ryd( 4f)     0.00049
    40    O    1  f(C2)  Ryd( 5f)     0.00008
    41    O    1  f(S2)  Ryd( 4f)     0.00049
    42    O    1  f(S2)  Ryd( 5f)     0.00008
    43    O    1  f(C3)  Ryd( 4f)     0.00047
    44    O    1  f(C3)  Ryd( 5f)     0.00006
    45    O    1  f(S3)  Ryd( 4f)     0.00047
    46    O    1  f(S3)  Ryd( 5f)     0.00006

    47    C    2  S      Cor( 1S)     1.99928
    48    C    2  S      Val( 2S)     0.68613
    49    C    2  S      Ryd( 3S)     0.00550
    50    C    2  S      Ryd( 4S)     0.00011
    51    C    2  S      Ryd( 5S)     0.00009
    52    C    2  px     Val( 2p)     0.72798
    53    C    2  px     Ryd( 3p)     0.00471
    54    C    2  px     Ryd( 4p)     0.00048
    55    C    2  px     Ryd( 5p)     0.00013
    56    C    2  py     Val( 2p)     0.65307
    57    C    2  py     Ryd( 3p)     0.01295
    58    C    2  py     Ryd( 4p)     0.00030
    59    C    2  py     Ryd( 5p)     0.00020
    60    C    2  pz     Val( 2p)     0.70902
    61    C    2  pz     Ryd( 3p)     0.02330
    62    C    2  pz     Ryd( 4p)     0.00027
    63    C    2  pz     Ryd( 5p)     0.00016
    64    C    2  dxy    Ryd( 3d)     0.00617
    65    C    2  dxy    Ryd( 4d)     0.00020
    66    C    2  dxy    Ryd( 5d)     0.00016
    67    C    2  dxz    Ryd( 3d)     0.00832
    68    C    2  dxz    Ryd( 4d)     0.00026
    69    C    2  dxz    Ryd( 5d)     0.00019
    70    C    2  dyz    Ryd( 3d)     0.00998
    71    C    2  dyz    Ryd( 5d)     0.00020
    72    C    2  dyz    Ryd( 4d)     0.00025
    73    C    2  dx2y2  Ryd( 3d)     0.00398
    74    C    2  dx2y2  Ryd( 4d)     0.00039
    75    C    2  dx2y2  Ryd( 5d)     0.00012
    76    C    2  dz2    Ryd( 3d)     0.00474
    77    C    2  dz2    Ryd( 4d)     0.00031
    78    C    2  dz2    Ryd( 5d)     0.00015
    79    C    2  f(0)   Ryd( 4f)     0.00040
    80    C    2  f(0)   Ryd( 5f)     0.00016
    81    C    2  f(C1)  Ryd( 4f)     0.00033
    82    C    2  f(C1)  Ryd( 5f)     0.00020
    83    C    2  f(S1)  Ryd( 4f)     0.00050
    84    C    2  f(S1)  Ryd( 5f)     0.00015
    85    C    2  f(C2)  Ryd( 4f)     0.00043
    86    C    2  f(C2)  Ryd( 5f)     0.00013
    87    C    2  f(S2)  Ryd( 4f)     0.00051
    88    C    2  f(S2)  Ryd( 5f)     0.00013
    89    C    2  f(C3)  Ryd( 4f)     0.00036
    90    C    2  f(C3)  Ryd( 5f)     0.00022
    91    C    2  f(S3)  Ryd( 4f)     0.00032
    92    C    2  f(S3)  Ryd( 5f)     0.00016

    93    F    3  S      Cor( 1S)     1.99981
    94    F    3  S      Val( 2S)     1.84852
    95    F    3  S      Ryd( 3S)     0.00621
    96    F    3  S      Ryd( 4S)     0.00025
    97    F    3  S      Ryd( 5S)     0.00018
    98    F    3  px     Val( 2p)     1.88072
    99    F    3  px     Ryd( 3p)     0.01190
   100    F    3  px     Ryd( 4p)     0.00067
   101    F    3  px     Ryd( 5p)     0.00010
   102    F    3  py     Val( 2p)     1.69549
   103    F    3  py     Ryd( 3p)     0.00857
   104    F    3  py     Ryd( 4p)     0.00058
   105    F    3  py     Ryd( 5p)     0.00009
   106    F    3  pz     Val( 2p)     1.80745
   107    F    3  pz     Ryd( 3p)     0.00997
   108    F    3  pz     Ryd( 4p)     0.00062
   109    F    3  pz     Ryd( 5p)     0.00010
   110    F    3  dxy    Ryd( 3d)     0.00688
   111    F    3  dxy    Ryd( 4d)     0.00052
   112    F    3  dxy    Ryd( 5d)     0.00008
   113    F    3  dxz    Ryd( 3d)     0.00577
   114    F    3  dxz    Ryd( 4d)     0.00051
   115    F    3  dxz    Ryd( 5d)     0.00007
   116    F    3  dyz    Ryd( 3d)     0.00913
   117    F    3  dyz    Ryd( 4d)     0.00050
   118    F    3  dyz    Ryd( 5d)     0.00009
   119    F    3  dx2y2  Ryd( 3d)     0.00711
   120    F    3  dx2y2  Ryd( 4d)     0.00055
   121    F    3  dx2y2  Ryd( 5d)     0.00012
   122    F    3  dz2    Ryd( 3d)     0.00613
   123    F    3  dz2    Ryd( 4d)     0.00048
   124    F    3  dz2    Ryd( 5d)     0.00008
   125    F    3  f(0)   Ryd( 4f)     0.00051
   126    F    3  f(0)   Ryd( 5f)     0.00009
   127    F    3  f(C1)  Ryd( 4f)     0.00044
   128    F    3  f(C1)  Ryd( 5f)     0.00007
   129    F    3  f(S1)  Ryd( 4f)     0.00056
   130    F    3  f(S1)  Ryd( 5f)     0.00010
   131    F    3  f(C2)  Ryd( 4f)     0.00062
   132    F    3  f(C2)  Ryd( 5f)     0.00010
   133    F    3  f(S2)  Ryd( 4f)     0.00052
   134    F    3  f(S2)  Ryd( 5f)     0.00009
   135    F    3  f(C3)  Ryd( 4f)     0.00049
   136    F    3  f(C3)  Ryd( 5f)     0.00008
   137    F    3  f(S3)  Ryd( 4f)     0.00051
   138    F    3  f(S3)  Ryd( 5f)     0.00009

   139    F    4  S      Cor( 1S)     1.99981
   140    F    4  S      Val( 2S)     1.84852
   141    F    4  S      Ryd( 3S)     0.00621
   142    F    4  S      Ryd( 4S)     0.00025
   143    F    4  S      Ryd( 5S)     0.00018
   144    F    4  px     Val( 2p)     1.88072
   145    F    4  px     Ryd( 3p)     0.01190
   146    F    4  px     Ryd( 4p)     0.00067
   147    F    4  px     Ryd( 5p)     0.00010
   148    F    4  py     Val( 2p)     1.69549
   149    F    4  py     Ryd( 3p)     0.00857
   150    F    4  py     Ryd( 4p)     0.00058
   151    F    4  py     Ryd( 5p)     0.00009
   152    F    4  pz     Val( 2p)     1.80745
   153    F    4  pz     Ryd( 3p)     0.00997
   154    F    4  pz     Ryd( 4p)     0.00062
   155    F    4  pz     Ryd( 5p)     0.00010
   156    F    4  dxy    Ryd( 3d)     0.00688
   157    F    4  dxy    Ryd( 4d)     0.00052
   158    F    4  dxy    Ryd( 5d)     0.00008
   159    F    4  dxz    Ryd( 3d)     0.00577
   160    F    4  dxz    Ryd( 4d)     0.00051
   161    F    4  dxz    Ryd( 5d)     0.00007
   162    F    4  dyz    Ryd( 3d)     0.00913
   163    F    4  dyz    Ryd( 4d)     0.00050
   164    F    4  dyz    Ryd( 5d)     0.00009
   165    F    4  dx2y2  Ryd( 3d)     0.00711
   166    F    4  dx2y2  Ryd( 4d)     0.00055
   167    F    4  dx2y2  Ryd( 5d)     0.00012
   168    F    4  dz2    Ryd( 3d)     0.00613
   169    F    4  dz2    Ryd( 4d)     0.00048
   170    F    4  dz2    Ryd( 5d)     0.00008
   171    F    4  f(0)   Ryd( 4f)     0.00051
   172    F    4  f(0)   Ryd( 5f)     0.00009
   173    F    4  f(C1)  Ryd( 4f)     0.00044
   174    F    4  f(C1)  Ryd( 5f)     0.00007
   175    F    4  f(S1)  Ryd( 4f)     0.00056
   176    F    4  f(S1)  Ryd( 5f)     0.00010
   177    F    4  f(C2)  Ryd( 4f)     0.00062
   178    F    4  f(C2)  Ryd( 5f)     0.00010
   179    F    4  f(S2)  Ryd( 4f)     0.00052
   180    F    4  f(S2)  Ryd( 5f)     0.00009
   181    F    4  f(C3)  Ryd( 4f)     0.00049
   182    F    4  f(C3)  Ryd( 5f)     0.00008
   183    F    4  f(S3)  Ryd( 4f)     0.00051
   184    F    4  f(S3)  Ryd( 5f)     0.00009


 Summary of Natural Population Analysis:                  
                                                          
                                       Natural Population 
                Natural  -----------------------------------------------
    Atom  No    Charge         Core      Valence    Rydberg      Total
 -----------------------------------------------------------------------
      O    1   -0.50984      1.99947     6.41384    0.09654     8.50984
      C    2    1.13689      1.99928     2.77620    0.08763     4.86311
      F    3   -0.31352      1.99981     7.23218    0.08154     9.31352
      F    4   -0.31352      1.99981     7.23218    0.08154     9.31352
 =======================================================================
   * Total *   -0.00000      7.99836    23.65440    0.34724    32.00000

                                 Natural Population      
 --------------------------------------------------------
   Core                       7.99836 ( 99.9795% of   8)
   Valence                   23.65440 ( 98.5600% of  24)
   Natural Minimal Basis     31.65276 ( 98.9149% of  32)
   Natural Rydberg Basis      0.34724 (  1.0851% of  32)
 --------------------------------------------------------

    Atom  No          Natural Electron Configuration
 ----------------------------------------------------------------------------
      O    1      [core]2S( 1.71)2p( 4.71)3S( 0.01)3p( 0.03)3d( 0.05)
      C    2      [core]2S( 0.69)2p( 2.09)3S( 0.01)3p( 0.04)3d( 0.03)
      F    3      [core]2S( 1.85)2p( 5.38)3S( 0.01)3p( 0.03)3d( 0.04)
      F    4      [core]2S( 1.85)2p( 5.38)3S( 0.01)3p( 0.03)3d( 0.04)


 NBO analysis skipped by request.
 Unable to Open any file for archive entry.
 1\1\GINC-TRAPISTA\SP\RQCISD-FC\Aug-CC-pVTZ\C1F2O1\WAGNER\03-Sep-2022\0
 \\# qcisd/aug-cc-pvtz nosymm density=current pop=(chelpg,hirshfeld,npa
 ,dipole)\\f2co-wavefunction\\0,1\O,0,0.,0.,0.679927\C,0,0.,0.,-0.48221
 6\F,0,0.,-1.058878,-1.264305\F,0,0.,1.058878,-1.264305\\Version=EM64L-
 G16RevC.01\HF=-311.7412638\MP2=-312.6368461\MP3=-312.624496\MP4D=-312.
 6400407\MP4DQ=-312.6240196\MP4SDQ=-312.6355647\QCISD=-312.6350671\RMSD
 =8.233e-09\Dipole=0.,0.,-0.3638768\Quadrupole=1.3807593,-0.4520814,-0.
 9286778,0.,0.,0.\PG=C02V [C2(C1O1),SGV(F2)]\\@
 The archive entry for this job was punched.


 OUR LITTLE SYSTEMS HAVE THEIR DAY,    
   THEY HAVE THEIR DAY AND CEASE TO BE.
   THEY ARE BUT BROKEN LIGHTS OF THEE, 
 AND THOU, OH LORD, ART MORE THAN THEY.
          -------------------          
 LET KNOWLEDGE GROW FROM MORE TO MORE, 
   BUT MORE OF REVERENCE IN US DWELL.  
   THAT MIND AND SOUL, ACCORDING WELL, 
 MAY MAKE ONE MUSIC AS BEFORE.....     
          -------------------          
                    LORD TENNYSON      
 Job cpu time:       0 days  6 hours 19 minutes  5.3 seconds.
 Elapsed time:       0 days  0 hours 24 minutes  0.6 seconds.
 File lengths (MBytes):  RWF=  21297 Int=      0 D2E=      0 Chk=      4 Scr=      1
 Normal termination of Gaussian 16 at Sat Sep  3 03:21:01 2022.
