 Entering Gaussian System, Link 0=/home/wagner/chemistry/gaussian/g16/g16
 Input=GAUSSIAN.com
 Output=GAUSSIAN.log
 Initial command:
 /home/wagner/chemistry/gaussian/g16/l1.exe "/home/wagner/chemistry/gaussian/work/Gau-10817.inp" -scrdir="/home/wagner/chemistry/gaussian/work/"
 Entering Link 1 = /home/wagner/chemistry/gaussian/g16/l1.exe PID=     10819.
  
 Copyright (c) 1988-2019, Gaussian, Inc.  All Rights Reserved.
  
 This is part of the Gaussian(R) 16 program.  It is based on
 the Gaussian(R) 09 system (copyright 2009, Gaussian, Inc.),
 the Gaussian(R) 03 system (copyright 2003, Gaussian, Inc.),
 the Gaussian(R) 98 system (copyright 1998, Gaussian, Inc.),
 the Gaussian(R) 94 system (copyright 1995, Gaussian, Inc.),
 the Gaussian 92(TM) system (copyright 1992, Gaussian, Inc.),
 the Gaussian 90(TM) system (copyright 1990, Gaussian, Inc.),
 the Gaussian 88(TM) system (copyright 1988, Gaussian, Inc.),
 the Gaussian 86(TM) system (copyright 1986, Carnegie Mellon
 University), and the Gaussian 82(TM) system (copyright 1983,
 Carnegie Mellon University). Gaussian is a federally registered
 trademark of Gaussian, Inc.
  
 This software contains proprietary and confidential information,
 including trade secrets, belonging to Gaussian, Inc.
  
 This software is provided under written license and may be
 used, copied, transmitted, or stored only in accord with that
 written license.
  
 The following legend is applicable only to US Government
 contracts under FAR:
  
                    RESTRICTED RIGHTS LEGEND
  
 Use, reproduction and disclosure by the US Government is
 subject to restrictions as set forth in subparagraphs (a)
 and (c) of the Commercial Computer Software - Restricted
 Rights clause in FAR 52.227-19.
  
 Gaussian, Inc.
 340 Quinnipiac St., Bldg. 40, Wallingford CT 06492
  
  
 ---------------------------------------------------------------
 Warning -- This program may not be used in any manner that
 competes with the business of Gaussian, Inc. or will provide
 assistance to any competitor of Gaussian, Inc.  The licensee
 of this program is prohibited from giving any competitor of
 Gaussian, Inc. access to this program.  By using this program,
 the user acknowledges that Gaussian, Inc. is engaged in the
 business of creating and licensing software in the field of
 computational chemistry and represents and warrants to the
 licensee that it is not a competitor of Gaussian, Inc. and that
 it will not use this program in any manner prohibited above.
 ---------------------------------------------------------------
  

 Cite this work as:
 Gaussian 16, Revision C.01,
 M. J. Frisch, G. W. Trucks, H. B. Schlegel, G. E. Scuseria, 
 M. A. Robb, J. R. Cheeseman, G. Scalmani, V. Barone, 
 G. A. Petersson, H. Nakatsuji, X. Li, M. Caricato, A. V. Marenich, 
 J. Bloino, B. G. Janesko, R. Gomperts, B. Mennucci, H. P. Hratchian, 
 J. V. Ortiz, A. F. Izmaylov, J. L. Sonnenberg, D. Williams-Young, 
 F. Ding, F. Lipparini, F. Egidi, J. Goings, B. Peng, A. Petrone, 
 T. Henderson, D. Ranasinghe, V. G. Zakrzewski, J. Gao, N. Rega, 
 G. Zheng, W. Liang, M. Hada, M. Ehara, K. Toyota, R. Fukuda, 
 J. Hasegawa, M. Ishida, T. Nakajima, Y. Honda, O. Kitao, H. Nakai, 
 T. Vreven, K. Throssell, J. A. Montgomery, Jr., J. E. Peralta, 
 F. Ogliaro, M. J. Bearpark, J. J. Heyd, E. N. Brothers, K. N. Kudin, 
 V. N. Staroverov, T. A. Keith, R. Kobayashi, J. Normand, 
 K. Raghavachari, A. P. Rendell, J. C. Burant, S. S. Iyengar, 
 J. Tomasi, M. Cossi, J. M. Millam, M. Klene, C. Adamo, R. Cammi, 
 J. W. Ochterski, R. L. Martin, K. Morokuma, O. Farkas, 
 J. B. Foresman, and D. J. Fox, Gaussian, Inc., Wallingford CT, 2019.
 
 ******************************************
 Gaussian 16:  EM64L-G16RevC.01  3-Jul-2019
                 3-Sep-2022 
 ******************************************
 %nproc=16
 Will use up to   16 processors via shared memory.
 %mem=16GB
 ----------------------------------------------------------------------
 # qcisd/aug-cc-pvtz nosymm density=current pop=(chelpg,hirshfeld,npa,d
 ipole)
 ----------------------------------------------------------------------
 1/30=1,38=1,172=1/1;
 2/12=2,15=1,17=6,18=5,40=1/2;
 3/5=16,6=1,7=10,11=9,25=1,30=1,71=1/1,2,3;
 4//1;
 5/5=2,38=5/2;
 8/6=4,9=120000,10=1/1,4;
 9/5=8,15=1/13;
 11/28=-7,31=1,32=3,42=3/11;
 10/5=6,13=10,31=1/2;
 6/7=2,8=2,9=2,10=2,15=24,20=3,22=-1,40=-1,79=1/1,2,7;
 99/5=1,9=1/99;
 -----------------
 f2co-wavefunction
 -----------------
 Symbolic Z-matrix:
 Charge =  0 Multiplicity = 1
 O                     0.        0.        0.67993 
 C                     0.        0.       -0.49222 
 F                     0.       -1.05888  -1.26431 
 F                     0.        1.06888  -1.26431 
 
                          Input orientation:                          
 ---------------------------------------------------------------------
 Center     Atomic      Atomic             Coordinates (Angstroms)
 Number     Number       Type             X           Y           Z
 ---------------------------------------------------------------------
      1          8           0        0.000000    0.000000    0.679927
      2          6           0        0.000000    0.000000   -0.492216
      3          9           0        0.000000   -1.058878   -1.264305
      4          9           0        0.000000    1.068878   -1.264305
 ---------------------------------------------------------------------
                    Distance matrix (angstroms):
                    1          2          3          4
     1  O    0.000000
     2  C    1.172143   0.000000
     3  F    2.213879   1.310475   0.000000
     4  F    2.218679   1.318568   2.127756   0.000000
 Symmetry turned off by external request.
 Stoichiometry    CF2O
 Framework group  CS[SG(CF2O)]
 Deg. of freedom     5
 Full point group                 CS      NOp   2
 Rotational constants (GHZ):          11.7957214          11.7285166           5.8810115
 Standard basis: Aug-CC-pVTZ (5D, 7F)
   184 basis functions,   288 primitive gaussians,   220 cartesian basis functions
    16 alpha electrons       16 beta electrons
       nuclear repulsion energy       119.6748589887 Hartrees.
 NAtoms=    4 NActive=    4 NUniq=    4 SFac= 1.00D+00 NAtFMM=   60 NAOKFM=F Big=F
 Integral buffers will be    131072 words long.
 Raffenetti 1 integral format.
 Two-electron integral symmetry is turned off.
 One-electron integrals computed using PRISM.
 NBasis=   184 RedAO= T EigKep=  3.50D-04  NBF=   184
 NBsUse=   184 1.00D-06 EigRej= -1.00D+00 NBFU=   184
 ExpMin= 3.57D-02 ExpMax= 1.95D+04 ExpMxC= 6.65D+02 IAcc=3 IRadAn=         5 AccDes= 0.00D+00
 Harris functional with IExCor=  205 and IRadAn=       5 diagonalized for initial guess.
 HarFok:  IExCor=  205 AccDes= 0.00D+00 IRadAn=         5 IDoV= 1 UseB2=F ITyADJ=14
 ICtDFT=  3500011 ScaDFX=  1.000000  1.000000  1.000000  1.000000
 FoFCou: FMM=F IPFlag=           0 FMFlag=      100000 FMFlg1=           0
         NFxFlg=           0 DoJE=T BraDBF=F KetDBF=T FulRan=T
         wScrn=  0.000000 ICntrl=       500 IOpCl=  0 I1Cent=   200000004 NGrid=           0
         NMat0=    1 NMatS0=      1 NMatT0=    0 NMatD0=    1 NMtDS0=    0 NMtDT0=    0
 Symmetry not used in FoFCou.
 Keep R1 ints in memory in canonical form, NReq=152781251.
 Requested convergence on RMS density matrix=1.00D-08 within 128 cycles.
 Requested convergence on MAX density matrix=1.00D-06.
 Requested convergence on             energy=1.00D-06.
 No special actions if energy rises.
 SCF Done:  E(RHF) =  -311.740691320     A.U. after   12 cycles
            NFock= 12  Conv=0.35D-08     -V/T= 2.0015
 ExpMin= 3.57D-02 ExpMax= 1.95D+04 ExpMxC= 6.65D+02 IAcc=3 IRadAn=         5 AccDes= 0.00D+00
 HarFok:  IExCor=  205 AccDes= 0.00D+00 IRadAn=         5 IDoV=-2 UseB2=F ITyADJ=14
 ICtDFT= 12500011 ScaDFX=  1.000000  1.000000  1.000000  1.000000
 Range of M.O.s used for correlation:     5   184
 NBasis=   184 NAE=    16 NBE=    16 NFC=     4 NFV=     0
 NROrb=    180 NOA=    12 NOB=    12 NVA=   168 NVB=   168

 **** Warning!!: The largest alpha MO coefficient is  0.15425794D+02

 Semi-Direct transformation.
 ModeAB=           2 MOrb=            12 LenV=    2146514723
 LASXX=     33405819 LTotXX=    33405819 LenRXX=    33405819
 LTotAB=    33954012 MaxLAS=    52509600 LenRXY=    52509600
 NonZer=    66811638 LenScr=   100987392 LnRSAI=           0
 LnScr1=           0 LExtra=           0 Total=    186902811
 MaxDsk=          -1 SrtSym=           F ITran=            4
 JobTyp=0 Pass  1:  I=   1 to  12.
 (rs|ai) integrals will be sorted in core.
 Spin components of T(2) and E(2):
     alpha-alpha T2 =       0.2663498488D-01 E2=     -0.1191691297D+00
     alpha-beta  T2 =       0.1374905133D+00 E2=     -0.6581397328D+00
     beta-beta   T2 =       0.2663498488D-01 E2=     -0.1191691297D+00
 ANorm=    0.1091219723D+01
 E2 =    -0.8964779921D+00 EUMP2 =    -0.31263716931180D+03
 Keep R2 and R3 ints in memory in canonical form, NReq=297638763.
 CIDS: In Core Option IDoMem=           1.
 Iterations=  50 Convergence= 0.100D-07
 Produce multiple copies of IABC intergrals
 Iteration Nr.   1
 **********************
 DD1Dir will call FoFMem   1 times, MxPair=       156
 NAB=    78 NAA=     0 NBB=     0.
 MP4(R+Q)=  0.16106123D-01
 E3=        0.12681242D-01        EUMP3=      -0.31262448807D+03
 E4(DQ)=    0.42381810D-03        UMP4(DQ)=   -0.31262406425D+03
 E4(SDQ)=  -0.11254432D-01        UMP4(SDQ)=  -0.31263574250D+03
 DE(Corr)= -0.86769063     E(Corr)=     -312.60838195    
 NORM(A)=   0.10860634D+01
 Iteration Nr.   2
 **********************
 DD1Dir will call FoFMem   1 times, MxPair=       156
 NAB=    78 NAA=     0 NBB=     0.
 DE(Corr)= -0.89370605     E(CORR)=     -312.63439737     Delta=-2.60D-02
 NORM(A)=   0.10934077D+01
 Iteration Nr.   3
 **********************
 DD1Dir will call FoFMem   1 times, MxPair=       156
 NAB=    78 NAA=     0 NBB=     0.
 DE(Corr)= -0.89192085     E(CORR)=     -312.63261217     Delta= 1.79D-03
 NORM(A)=   0.10956619D+01
 Iteration Nr.   4
 **********************
 DD1Dir will call FoFMem   1 times, MxPair=       156
 NAB=    78 NAA=     0 NBB=     0.
 DE(Corr)= -0.89424355     E(CORR)=     -312.63493487     Delta=-2.32D-03
 NORM(A)=   0.10964775D+01
 Iteration Nr.   5
 **********************
 DD1Dir will call FoFMem   1 times, MxPair=       156
 NAB=    78 NAA=     0 NBB=     0.
 DE(Corr)= -0.89451266     E(CORR)=     -312.63520398     Delta=-2.69D-04
 NORM(A)=   0.10966629D+01
 Iteration Nr.   6
 **********************
 DD1Dir will call FoFMem   1 times, MxPair=       156
 NAB=    78 NAA=     0 NBB=     0.
 DE(Corr)= -0.89453966     E(CORR)=     -312.63523098     Delta=-2.70D-05
 NORM(A)=   0.10966766D+01
 Iteration Nr.   7
 **********************
 DD1Dir will call FoFMem   1 times, MxPair=       156
 NAB=    78 NAA=     0 NBB=     0.
 DE(Corr)= -0.89454135     E(CORR)=     -312.63523267     Delta=-1.69D-06
 NORM(A)=   0.10966764D+01
 Iteration Nr.   8
 **********************
 DD1Dir will call FoFMem   1 times, MxPair=       156
 NAB=    78 NAA=     0 NBB=     0.
 DE(Corr)= -0.89454035     E(CORR)=     -312.63523167     Delta= 1.01D-06
 NORM(A)=   0.10966769D+01
 Iteration Nr.   9
 **********************
 DD1Dir will call FoFMem   1 times, MxPair=       156
 NAB=    78 NAA=     0 NBB=     0.
 DE(Corr)= -0.89454074     E(CORR)=     -312.63523205     Delta=-3.89D-07
 NORM(A)=   0.10966768D+01
 Iteration Nr.  10
 **********************
 DD1Dir will call FoFMem   1 times, MxPair=       156
 NAB=    78 NAA=     0 NBB=     0.
 DE(Corr)= -0.89454063     E(CORR)=     -312.63523195     Delta= 1.01D-07
 NORM(A)=   0.10966770D+01
 Iteration Nr.  11
 **********************
 DD1Dir will call FoFMem   1 times, MxPair=       156
 NAB=    78 NAA=     0 NBB=     0.
 DE(Corr)= -0.89454113     E(CORR)=     -312.63523245     Delta=-4.97D-07
 NORM(A)=   0.10966774D+01
 Iteration Nr.  12
 **********************
 DD1Dir will call FoFMem   1 times, MxPair=       156
 NAB=    78 NAA=     0 NBB=     0.
 DE(Corr)= -0.89454117     E(CORR)=     -312.63523249     Delta=-4.06D-08
 NORM(A)=   0.10966775D+01
 Iteration Nr.  13
 **********************
 DD1Dir will call FoFMem   1 times, MxPair=       156
 NAB=    78 NAA=     0 NBB=     0.
 DE(Corr)= -0.89454128     E(CORR)=     -312.63523260     Delta=-1.04D-07
 NORM(A)=   0.10966776D+01
 Iteration Nr.  14
 **********************
 DD1Dir will call FoFMem   1 times, MxPair=       156
 NAB=    78 NAA=     0 NBB=     0.
 DE(Corr)= -0.89454129     E(CORR)=     -312.63523261     Delta=-1.77D-08
 NORM(A)=   0.10966777D+01
 Iteration Nr.  15
 **********************
 DD1Dir will call FoFMem   1 times, MxPair=       156
 NAB=    78 NAA=     0 NBB=     0.
 DE(Corr)= -0.89454130     E(CORR)=     -312.63523262     Delta=-1.04D-08
 NORM(A)=   0.10966777D+01
 Iteration Nr.  16
 **********************
 DD1Dir will call FoFMem   1 times, MxPair=       156
 NAB=    78 NAA=     0 NBB=     0.
 DE(Corr)= -0.89454131     E(CORR)=     -312.63523263     Delta=-4.31D-09
 NORM(A)=   0.10966777D+01
 Wavefunction amplitudes converged. E(Corr)=     -312.63523263    
 Largest amplitude= 5.86D-02

 Z-amplitude iterations

 Iteration Nr.   1
 **********************
 DD1Dir will call FoFMem   1 times, MxPair=       156
 NAB=    78 NAA=     0 NBB=     0.
 DE(Z)= -0.87516293     E(Z)=     -312.61585425     Delta= 1.94D-02
 NORM(A)=   0.10966661D+01
 Iteration Nr.   2
 **********************
 DD1Dir will call FoFMem   1 times, MxPair=       156
 NAB=    78 NAA=     0 NBB=     0.
 DE(Z)= -0.87516290     E(Z)=     -312.61585422     Delta= 3.33D-08
 NORM(A)=   0.10967009D+01
 Iteration Nr.   3
 **********************
 DD1Dir will call FoFMem   1 times, MxPair=       156
 NAB=    78 NAA=     0 NBB=     0.
 DE(Z)= -0.87516319     E(Z)=     -312.61585451     Delta=-2.89D-07
 NORM(A)=   0.10966524D+01
 Iteration Nr.   4
 **********************
 DD1Dir will call FoFMem   1 times, MxPair=       156
 NAB=    78 NAA=     0 NBB=     0.
 DE(Z)= -0.87516274     E(Z)=     -312.61585406     Delta= 4.48D-07
 NORM(A)=   0.10966990D+01
 Iteration Nr.   5
 **********************
 DD1Dir will call FoFMem   1 times, MxPair=       156
 NAB=    78 NAA=     0 NBB=     0.
 DE(Z)= -0.87516321     E(Z)=     -312.61585453     Delta=-4.68D-07
 NORM(A)=   0.10922065D+01
 Iteration Nr.   6
 **********************
 DD1Dir will call FoFMem   1 times, MxPair=       156
 NAB=    78 NAA=     0 NBB=     0.
 DE(Z)= -0.87510980     E(Z)=     -312.61580112     Delta= 5.34D-05
 NORM(A)=   0.10922069D+01
 Iteration Nr.   7
 **********************
 DD1Dir will call FoFMem   1 times, MxPair=       156
 NAB=    78 NAA=     0 NBB=     0.
 DE(Z)= -0.87510780     E(Z)=     -312.61579912     Delta= 2.00D-06
 NORM(A)=   0.10922068D+01
 Iteration Nr.   8
 **********************
 DD1Dir will call FoFMem   1 times, MxPair=       156
 NAB=    78 NAA=     0 NBB=     0.
 DE(Z)= -0.87510841     E(Z)=     -312.61579973     Delta=-6.09D-07
 NORM(A)=   0.10922070D+01
 Iteration Nr.   9
 **********************
 DD1Dir will call FoFMem   1 times, MxPair=       156
 NAB=    78 NAA=     0 NBB=     0.
 DE(Z)= -0.87510812     E(Z)=     -312.61579944     Delta= 2.82D-07
 NORM(A)=   0.10922071D+01
 Iteration Nr.  10
 **********************
 DD1Dir will call FoFMem   1 times, MxPair=       156
 NAB=    78 NAA=     0 NBB=     0.
 DE(Z)= -0.87510817     E(Z)=     -312.61579949     Delta=-5.05D-08
 NORM(A)=   0.10922072D+01
 Iteration Nr.  11
 **********************
 DD1Dir will call FoFMem   1 times, MxPair=       156
 NAB=    78 NAA=     0 NBB=     0.
 DE(Z)= -0.87510819     E(Z)=     -312.61579951     Delta=-1.49D-08
 NORM(A)=   0.10922072D+01
 Iteration Nr.  12
 **********************
 DD1Dir will call FoFMem   1 times, MxPair=       156
 NAB=    78 NAA=     0 NBB=     0.
 DE(Z)= -0.87510818     E(Z)=     -312.61579950     Delta= 7.52D-09
 NORM(A)=   0.10922072D+01
 Z-amplitudes converged.
 Discarding MO integrals.
          Differentiating once with respect to electric field.
                with respect to dipole field.
          Electric field/nuclear overlap derivatives assumed to be zero.
 Keep R1 ints in memory in canonical form, NReq=152784190.
          There are     1 degrees of freedom in the 1st order CPHF.  IDoFFX=0 NUNeed=     1.
 LinEq1:  Iter=  0 NonCon=     1 RMS=3.08D-03 Max=8.50D-02 NDo=     1
 AX will form     1 AO Fock derivatives at one time.
 LinEq1:  Iter=  1 NonCon=     1 RMS=7.61D-04 Max=1.12D-02 NDo=     1
 LinEq1:  Iter=  2 NonCon=     1 RMS=2.26D-04 Max=3.41D-03 NDo=     1
 LinEq1:  Iter=  3 NonCon=     1 RMS=1.00D-04 Max=1.59D-03 NDo=     1
 LinEq1:  Iter=  4 NonCon=     1 RMS=2.30D-05 Max=3.77D-04 NDo=     1
 LinEq1:  Iter=  5 NonCon=     1 RMS=1.11D-05 Max=3.12D-04 NDo=     1
 LinEq1:  Iter=  6 NonCon=     1 RMS=2.72D-06 Max=5.03D-05 NDo=     1
 LinEq1:  Iter=  7 NonCon=     1 RMS=5.58D-07 Max=1.03D-05 NDo=     1
 LinEq1:  Iter=  8 NonCon=     1 RMS=9.99D-08 Max=1.21D-06 NDo=     1
 LinEq1:  Iter=  9 NonCon=     1 RMS=2.42D-08 Max=3.36D-07 NDo=     1
 LinEq1:  Iter= 10 NonCon=     1 RMS=1.02D-08 Max=1.15D-07 NDo=     1
 LinEq1:  Iter= 11 NonCon=     1 RMS=1.50D-09 Max=1.89D-08 NDo=     1
 LinEq1:  Iter= 12 NonCon=     1 RMS=3.02D-10 Max=3.69D-09 NDo=     1
 LinEq1:  Iter= 13 NonCon=     0 RMS=4.71D-11 Max=4.38D-10 NDo=     1
 Linear equations converged to 1.000D-10 1.000D-09 after    13 iterations.
 End of Minotr F.D. properties file   721 does not exist.
 End of Minotr F.D. properties file   722 does not exist.
 End of Minotr F.D. properties file   788 does not exist.

 **********************************************************************

            Population analysis using the CC Density.

 **********************************************************************

 Alpha  occ. eigenvalues --  -26.39451 -26.39162 -20.62124 -11.53480  -1.76108
 Alpha  occ. eigenvalues --   -1.68534  -1.47895  -0.95712  -0.86484  -0.81675
 Alpha  occ. eigenvalues --   -0.80526  -0.72713  -0.70576  -0.70538  -0.57724
 Alpha  occ. eigenvalues --   -0.55885
 Alpha virt. eigenvalues --    0.05512   0.07199   0.07802   0.07905   0.15216
 Alpha virt. eigenvalues --    0.17092   0.17195   0.19373   0.19965   0.21585
 Alpha virt. eigenvalues --    0.24746   0.24886   0.26180   0.26411   0.28498
 Alpha virt. eigenvalues --    0.31115   0.34799   0.36093   0.38931   0.41615
 Alpha virt. eigenvalues --    0.44107   0.48481   0.49988   0.52321   0.53464
 Alpha virt. eigenvalues --    0.62818   0.66648   0.69313   0.72107   0.78678
 Alpha virt. eigenvalues --    0.81146   0.81739   0.84686   0.91201   0.93361
 Alpha virt. eigenvalues --    0.96379   0.97289   1.02960   1.04424   1.06903
 Alpha virt. eigenvalues --    1.07565   1.09863   1.10286   1.10702   1.14090
 Alpha virt. eigenvalues --    1.14363   1.18964   1.21759   1.24121   1.26929
 Alpha virt. eigenvalues --    1.28072   1.29989   1.36876   1.40816   1.50586
 Alpha virt. eigenvalues --    1.51493   1.52627   1.55749   1.65627   1.67506
 Alpha virt. eigenvalues --    1.68951   1.75715   1.78262   1.79713   2.03829
 Alpha virt. eigenvalues --    2.22537   2.27683   2.28118   2.33454   2.35695
 Alpha virt. eigenvalues --    2.41141   2.48919   2.54660   2.59631   2.61590
 Alpha virt. eigenvalues --    2.67000   2.70360   2.73147   2.73599   2.77091
 Alpha virt. eigenvalues --    2.80286   2.81698   2.83488   2.88444   2.92378
 Alpha virt. eigenvalues --    2.94220   2.94290   2.94635   3.06264   3.07877
 Alpha virt. eigenvalues --    3.10211   3.10264   3.12423   3.20042   3.23162
 Alpha virt. eigenvalues --    3.31631   3.35843   3.38940   3.45803   3.52717
 Alpha virt. eigenvalues --    3.55787   3.59419   3.63344   3.78174   3.81180
 Alpha virt. eigenvalues --    3.94596   3.99570   4.02135   4.03225   4.07221
 Alpha virt. eigenvalues --    4.20920   4.21149   4.39302   4.41338   4.52972
 Alpha virt. eigenvalues --    4.59439   4.75163   4.77003   4.83255   5.26227
 Alpha virt. eigenvalues --    5.33683   5.45321   5.46635   5.55955   5.72298
 Alpha virt. eigenvalues --    6.11440   6.56924   6.58256   6.68598   6.88860
 Alpha virt. eigenvalues --    7.10465   7.13175   7.18734   7.21148   7.22785
 Alpha virt. eigenvalues --    7.39393   7.50194   7.60176   7.69382   7.69895
 Alpha virt. eigenvalues --    8.78877   8.80269   8.84927   8.86725   9.00157
 Alpha virt. eigenvalues --    9.02274   9.12016   9.12889   9.19468   9.25817
 Alpha virt. eigenvalues --    9.26882   9.30424   9.32926   9.33318   9.33699
 Alpha virt. eigenvalues --    9.34315   9.37045   9.55948   9.60910   9.62626
 Alpha virt. eigenvalues --    9.66092   9.75486   9.87366   9.95518  13.33671
 Alpha virt. eigenvalues --   15.01739  16.14392  17.33647
          Condensed to atoms (all electrons):
               1          2          3          4
     1  O    7.943285   0.500129  -0.079724  -0.077979
     2  C    0.500129   4.518289   0.185095   0.183994
     3  F   -0.079724   0.185095   9.100696  -0.046613
     4  F   -0.077979   0.183994  -0.046613   9.107928
 Mulliken charges:
               1
     1  O   -0.285711
     2  C    0.612494
     3  F   -0.159454
     4  F   -0.167330
 Sum of Mulliken charges =  -0.00000
 Mulliken charges with hydrogens summed into heavy atoms:
               1
     1  O   -0.285711
     2  C    0.612494
     3  F   -0.159454
     4  F   -0.167330
 Electronic spatial extent (au):  <R**2>=            240.1373
 Charge=             -0.0000 electrons
 Dipole moment (field-independent basis, Debye):
    X=             -0.0000    Y=             -0.0360    Z=             -1.0136  Tot=              1.0143
 Quadrupole moment (field-independent basis, Debye-Ang):
   XX=            -18.9142   YY=            -21.3396   ZZ=            -21.9347
   XY=             -0.0000   XZ=              0.0000   YZ=              0.0450
 Traceless Quadrupole moment (field-independent basis, Debye-Ang):
   XX=              1.8153   YY=             -0.6101   ZZ=             -1.2052
   XY=             -0.0000   XZ=              0.0000   YZ=              0.0450
 Octapole moment (field-independent basis, Debye-Ang**2):
  XXX=             -0.0000  YYY=             -0.2350  ZZZ=             34.3437  XYY=             -0.0000
  XXY=             -0.0678  XXZ=             10.3686  XZZ=             -0.0000  YZZ=             -0.1175
  YYZ=             12.0454  XYZ=              0.0000
 Hexadecapole moment (field-independent basis, Debye-Ang**3):
 XXXX=            -13.4943 YYYY=            -80.5759 ZZZZ=           -132.5183 XXXY=             -0.0000
 XXXZ=              0.0000 YYYX=             -0.0000 YYYZ=              0.2815 ZZZX=              0.0000
 ZZZY=              0.3102 XXYY=            -15.7573 XXZZ=            -23.5872 YYZZ=            -36.2895
 XXYZ=              0.0852 YYXZ=              0.0000 ZZXY=             -0.0000
 N-N= 1.196748589887D+02 E-N=-9.813840779865D+02  KE= 3.123598913917D+02
 There are a total of       93060 grid points.
 ElSum from          density=       32.0000004909
 ElSum from atomic densities=       32.0000001526

 Hirshfeld populations at iteration   1 (CX, CA, CB, DipXYZ):
               1          2          3          4          5          6
     1  O    0.000004   4.108295   4.108295   0.000000   0.000073  -0.051906
     2  C    0.000000   2.819041   2.819041   0.000000  -0.000942  -0.156674
     3  F    0.000001   4.535025   4.535025   0.000000   0.036763   0.038409
     4  F    0.000001   4.537639   4.537639   0.000000  -0.038174   0.039089
       Tot   0.000006  16.000000  16.000000   0.000000  -0.002280  -0.131082

 Dip from Atomic Chgs              0.000000  -0.011883  -0.267710
         Total Dipole              0.000000  -0.014163  -0.398792

 Hirshfeld charges, spin densities, dipoles, and CM5 charges using IRadAn=      5:
              Q-H        S-H        Dx         Dy         Dz        Q-CM5   
     1  O   -0.216589   0.000000   0.000000   0.000073  -0.051906  -0.259794
     2  C    0.361918   0.000000   0.000000  -0.000942  -0.156674   0.441992
     3  F   -0.070051   0.000000   0.000000   0.036763   0.038409  -0.088676
     4  F   -0.075279   0.000000   0.000000  -0.038174   0.039089  -0.093522
       Tot  -0.000000   0.000000   0.000000  -0.002280  -0.131082  -0.000000
 Hirshfeld charges with hydrogens summed into heavy atoms:
              Q-H       Q-CM5   
     1  O   -0.216589  -0.259794
     2  C    0.361918   0.441992
     3  F   -0.070051  -0.088676
     4  F   -0.075279  -0.093522
 
 EQQ= 0.000000000000E+00 EQD= 0.000000000000E+00 EDD=-0.970026856128E-04
 EQQ+QD+DD=-0.970026856128E-04
 
 Breneman (CHELPG) radii used.
 Generate Potential Derived Charges using the Breneman model, NDens= 1.
 Grid spacing= 0.300 Box extension= 2.800
 NStep X,Y,Z=   20     27     27   Total possible points=       14580
 Number of Points to Fit=    4714

 **********************************************************************

            Electrostatic Properties Using The CC Density.

 **********************************************************************

       Atomic Center    1 is at   0.000000  0.000000  0.679927
       Atomic Center    2 is at   0.000000  0.000000 -0.492216
       Atomic Center    3 is at   0.000000 -1.058878 -1.264305
       Atomic Center    4 is at   0.000000  1.068878 -1.264305
    4714 points will be used for fitting atomic charges
 Fitting point charges to electrostatic potential
 The dipole moment will be constrained to the correct value
 Charges from ESP fit, RMS=   0.00229 RRMS=   0.17865:
 ESP charges:
               1
     1  O   -0.463823
     2  C    0.894648
     3  F   -0.212903
     4  F   -0.217923
 Sum of ESP charges =   0.00000
 ESP charges with hydrogens summed into heavy atoms:
               1
     1  O   -0.463823
     2  C    0.894648
     3  F   -0.212903
     4  F   -0.217923
 Charge=   0.00000 Dipole=     0.0000    -0.0360    -1.0136 Tot=     1.0143
 -----------------------------------------------------------------

              Electrostatic Properties (Atomic Units)

 -----------------------------------------------------------------
    Center     Electric         -------- Electric Field --------
               Potential          X             Y             Z
 -----------------------------------------------------------------
    1 Atom    -22.289375
    2 Atom    -14.476665
    3 Atom    -26.490788
    4 Atom    -26.493582
 -----------------------------------------------------------------
 ******************************Gaussian NBO Version 3.1******************************
             N A T U R A L   A T O M I C   O R B I T A L   A N D
          N A T U R A L   B O N D   O R B I T A L   A N A L Y S I S
 ******************************Gaussian NBO Version 3.1******************************
       /RESON  / : Allow strongly delocalized NBO set

 Analyzing the QCI/CC density

 Job title: f2co-wavefunction                                               

 Storage needed:    102424 in NPA (2147483536 available)
 GSVD:  LWork=          64 too small for GESVD, short by       66368 words or       66368 for optimal perf.


 NATURAL POPULATIONS:  Natural atomic orbital occupancies 
                                                          
   NAO  Atom  No  lang   Type(AO)    Occupancy
 --------------------------------------------
     1    O    1  S      Cor( 1S)     1.99949
     2    O    1  S      Val( 2S)     1.71251
     3    O    1  S      Ryd( 3S)     0.00637
     4    O    1  S      Ryd( 4S)     0.00037
     5    O    1  S      Ryd( 5S)     0.00019
     6    O    1  px     Val( 2p)     1.41906
     7    O    1  px     Ryd( 3p)     0.00795
     8    O    1  px     Ryd( 4p)     0.00054
     9    O    1  px     Ryd( 5p)     0.00009
    10    O    1  py     Val( 2p)     1.77280
    11    O    1  py     Ryd( 3p)     0.01129
    12    O    1  py     Ryd( 4p)     0.00066
    13    O    1  py     Ryd( 5p)     0.00010
    14    O    1  pz     Val( 2p)     1.51446
    15    O    1  pz     Ryd( 3p)     0.00682
    16    O    1  pz     Ryd( 4p)     0.00042
    17    O    1  pz     Ryd( 5p)     0.00006
    18    O    1  dxy    Ryd( 3d)     0.00566
    19    O    1  dxy    Ryd( 4d)     0.00045
    20    O    1  dxy    Ryd( 5d)     0.00006
    21    O    1  dxz    Ryd( 3d)     0.01180
    22    O    1  dxz    Ryd( 4d)     0.00038
    23    O    1  dxz    Ryd( 5d)     0.00011
    24    O    1  dyz    Ryd( 3d)     0.01121
    25    O    1  dyz    Ryd( 4d)     0.00043
    26    O    1  dyz    Ryd( 5d)     0.00008
    27    O    1  dx2y2  Ryd( 3d)     0.00564
    28    O    1  dx2y2  Ryd( 4d)     0.00046
    29    O    1  dx2y2  Ryd( 5d)     0.00008
    30    O    1  dz2    Ryd( 3d)     0.01975
    31    O    1  dz2    Ryd( 4d)     0.00047
    32    O    1  dz2    Ryd( 5d)     0.00014
    33    O    1  f(0)   Ryd( 4f)     0.00092
    34    O    1  f(0)   Ryd( 5f)     0.00009
    35    O    1  f(C1)  Ryd( 4f)     0.00052
    36    O    1  f(C1)  Ryd( 5f)     0.00010
    37    O    1  f(S1)  Ryd( 4f)     0.00057
    38    O    1  f(S1)  Ryd( 5f)     0.00010
    39    O    1  f(C2)  Ryd( 4f)     0.00049
    40    O    1  f(C2)  Ryd( 5f)     0.00008
    41    O    1  f(S2)  Ryd( 4f)     0.00049
    42    O    1  f(S2)  Ryd( 5f)     0.00008
    43    O    1  f(C3)  Ryd( 4f)     0.00047
    44    O    1  f(C3)  Ryd( 5f)     0.00006
    45    O    1  f(S3)  Ryd( 4f)     0.00047
    46    O    1  f(S3)  Ryd( 5f)     0.00006

    47    C    2  S      Cor( 1S)     1.99932
    48    C    2  S      Val( 2S)     0.69010
    49    C    2  S      Ryd( 3S)     0.00540
    50    C    2  S      Ryd( 4S)     0.00011
    51    C    2  S      Ryd( 5S)     0.00009
    52    C    2  px     Val( 2p)     0.72793
    53    C    2  px     Ryd( 3p)     0.00471
    54    C    2  px     Ryd( 4p)     0.00049
    55    C    2  px     Ryd( 5p)     0.00013
    56    C    2  py     Val( 2p)     0.65004
    57    C    2  py     Ryd( 3p)     0.01321
    58    C    2  py     Ryd( 4p)     0.00030
    59    C    2  py     Ryd( 5p)     0.00021
    60    C    2  pz     Val( 2p)     0.70888
    61    C    2  pz     Ryd( 3p)     0.02297
    62    C    2  pz     Ryd( 4p)     0.00028
    63    C    2  pz     Ryd( 5p)     0.00016
    64    C    2  dxy    Ryd( 3d)     0.00618
    65    C    2  dxy    Ryd( 4d)     0.00021
    66    C    2  dxy    Ryd( 5d)     0.00017
    67    C    2  dxz    Ryd( 3d)     0.00836
    68    C    2  dxz    Ryd( 4d)     0.00026
    69    C    2  dxz    Ryd( 5d)     0.00019
    70    C    2  dyz    Ryd( 3d)     0.00997
    71    C    2  dyz    Ryd( 5d)     0.00020
    72    C    2  dyz    Ryd( 4d)     0.00025
    73    C    2  dx2y2  Ryd( 3d)     0.00400
    74    C    2  dx2y2  Ryd( 4d)     0.00039
    75    C    2  dx2y2  Ryd( 5d)     0.00011
    76    C    2  dz2    Ryd( 3d)     0.00480
    77    C    2  dz2    Ryd( 4d)     0.00030
    78    C    2  dz2    Ryd( 5d)     0.00016
    79    C    2  f(0)   Ryd( 4f)     0.00039
    80    C    2  f(0)   Ryd( 5f)     0.00016
    81    C    2  f(C1)  Ryd( 4f)     0.00034
    82    C    2  f(C1)  Ryd( 5f)     0.00020
    83    C    2  f(S1)  Ryd( 4f)     0.00051
    84    C    2  f(S1)  Ryd( 5f)     0.00015
    85    C    2  f(C2)  Ryd( 4f)     0.00042
    86    C    2  f(C2)  Ryd( 5f)     0.00013
    87    C    2  f(S2)  Ryd( 4f)     0.00051
    88    C    2  f(S2)  Ryd( 5f)     0.00013
    89    C    2  f(C3)  Ryd( 4f)     0.00036
    90    C    2  f(C3)  Ryd( 5f)     0.00023
    91    C    2  f(S3)  Ryd( 4f)     0.00032
    92    C    2  f(S3)  Ryd( 5f)     0.00016

    93    F    3  S      Cor( 1S)     1.99980
    94    F    3  S      Val( 2S)     1.84594
    95    F    3  S      Ryd( 3S)     0.00616
    96    F    3  S      Ryd( 4S)     0.00026
    97    F    3  S      Ryd( 5S)     0.00019
    98    F    3  px     Val( 2p)     1.87876
    99    F    3  px     Ryd( 3p)     0.01181
   100    F    3  px     Ryd( 4p)     0.00066
   101    F    3  px     Ryd( 5p)     0.00010
   102    F    3  py     Val( 2p)     1.69225
   103    F    3  py     Ryd( 3p)     0.00844
   104    F    3  py     Ryd( 4p)     0.00058
   105    F    3  py     Ryd( 5p)     0.00009
   106    F    3  pz     Val( 2p)     1.81039
   107    F    3  pz     Ryd( 3p)     0.00995
   108    F    3  pz     Ryd( 4p)     0.00062
   109    F    3  pz     Ryd( 5p)     0.00010
   110    F    3  dxy    Ryd( 3d)     0.00695
   111    F    3  dxy    Ryd( 4d)     0.00052
   112    F    3  dxy    Ryd( 5d)     0.00008
   113    F    3  dxz    Ryd( 3d)     0.00576
   114    F    3  dxz    Ryd( 4d)     0.00051
   115    F    3  dxz    Ryd( 5d)     0.00007
   116    F    3  dyz    Ryd( 3d)     0.00923
   117    F    3  dyz    Ryd( 4d)     0.00050
   118    F    3  dyz    Ryd( 5d)     0.00009
   119    F    3  dx2y2  Ryd( 3d)     0.00721
   120    F    3  dx2y2  Ryd( 4d)     0.00054
   121    F    3  dx2y2  Ryd( 5d)     0.00012
   122    F    3  dz2    Ryd( 3d)     0.00615
   123    F    3  dz2    Ryd( 4d)     0.00048
   124    F    3  dz2    Ryd( 5d)     0.00008
   125    F    3  f(0)   Ryd( 4f)     0.00051
   126    F    3  f(0)   Ryd( 5f)     0.00009
   127    F    3  f(C1)  Ryd( 4f)     0.00044
   128    F    3  f(C1)  Ryd( 5f)     0.00007
   129    F    3  f(S1)  Ryd( 4f)     0.00056
   130    F    3  f(S1)  Ryd( 5f)     0.00010
   131    F    3  f(C2)  Ryd( 4f)     0.00062
   132    F    3  f(C2)  Ryd( 5f)     0.00010
   133    F    3  f(S2)  Ryd( 4f)     0.00052
   134    F    3  f(S2)  Ryd( 5f)     0.00009
   135    F    3  f(C3)  Ryd( 4f)     0.00049
   136    F    3  f(C3)  Ryd( 5f)     0.00008
   137    F    3  f(S3)  Ryd( 4f)     0.00051
   138    F    3  f(S3)  Ryd( 5f)     0.00009

   139    F    4  S      Cor( 1S)     1.99981
   140    F    4  S      Val( 2S)     1.84919
   141    F    4  S      Ryd( 3S)     0.00619
   142    F    4  S      Ryd( 4S)     0.00025
   143    F    4  S      Ryd( 5S)     0.00018
   144    F    4  px     Val( 2p)     1.88093
   145    F    4  px     Ryd( 3p)     0.01190
   146    F    4  px     Ryd( 4p)     0.00067
   147    F    4  px     Ryd( 5p)     0.00011
   148    F    4  py     Val( 2p)     1.68990
   149    F    4  py     Ryd( 3p)     0.00848
   150    F    4  py     Ryd( 4p)     0.00058
   151    F    4  py     Ryd( 5p)     0.00009
   152    F    4  pz     Val( 2p)     1.81179
   153    F    4  pz     Ryd( 3p)     0.01004
   154    F    4  pz     Ryd( 4p)     0.00063
   155    F    4  pz     Ryd( 5p)     0.00010
   156    F    4  dxy    Ryd( 3d)     0.00691
   157    F    4  dxy    Ryd( 4d)     0.00052
   158    F    4  dxy    Ryd( 5d)     0.00008
   159    F    4  dxz    Ryd( 3d)     0.00572
   160    F    4  dxz    Ryd( 4d)     0.00051
   161    F    4  dxz    Ryd( 5d)     0.00007
   162    F    4  dyz    Ryd( 3d)     0.00907
   163    F    4  dyz    Ryd( 4d)     0.00050
   164    F    4  dyz    Ryd( 5d)     0.00009
   165    F    4  dx2y2  Ryd( 3d)     0.00716
   166    F    4  dx2y2  Ryd( 4d)     0.00055
   167    F    4  dx2y2  Ryd( 5d)     0.00012
   168    F    4  dz2    Ryd( 3d)     0.00610
   169    F    4  dz2    Ryd( 4d)     0.00048
   170    F    4  dz2    Ryd( 5d)     0.00008
   171    F    4  f(0)   Ryd( 4f)     0.00051
   172    F    4  f(0)   Ryd( 5f)     0.00009
   173    F    4  f(C1)  Ryd( 4f)     0.00044
   174    F    4  f(C1)  Ryd( 5f)     0.00007
   175    F    4  f(S1)  Ryd( 4f)     0.00056
   176    F    4  f(S1)  Ryd( 5f)     0.00010
   177    F    4  f(C2)  Ryd( 4f)     0.00062
   178    F    4  f(C2)  Ryd( 5f)     0.00010
   179    F    4  f(S2)  Ryd( 4f)     0.00052
   180    F    4  f(S2)  Ryd( 5f)     0.00009
   181    F    4  f(C3)  Ryd( 4f)     0.00049
   182    F    4  f(C3)  Ryd( 5f)     0.00008
   183    F    4  f(S3)  Ryd( 4f)     0.00051
   184    F    4  f(S3)  Ryd( 5f)     0.00009


 Summary of Natural Population Analysis:                  
                                                          
                                       Natural Population 
                Natural  -----------------------------------------------
    Atom  No    Charge         Core      Valence    Rydberg      Total
 -----------------------------------------------------------------------
      O    1   -0.51440      1.99949     6.41883    0.09608     8.51440
      C    2    1.13611      1.99932     2.77694    0.08763     4.86389
      F    3   -0.30864      1.99980     7.22733    0.08150     9.30864
      F    4   -0.31308      1.99981     7.23181    0.08146     9.31308
 =======================================================================
   * Total *    0.00000      7.99841    23.65492    0.34667    32.00000

                                 Natural Population      
 --------------------------------------------------------
   Core                       7.99841 ( 99.9801% of   8)
   Valence                   23.65492 ( 98.5621% of  24)
   Natural Minimal Basis     31.65333 ( 98.9166% of  32)
   Natural Rydberg Basis      0.34667 (  1.0834% of  32)
 --------------------------------------------------------

    Atom  No          Natural Electron Configuration
 ----------------------------------------------------------------------------
      O    1      [core]2S( 1.71)2p( 4.71)3S( 0.01)3p( 0.03)3d( 0.05)
      C    2      [core]2S( 0.69)2p( 2.09)3S( 0.01)3p( 0.04)3d( 0.03)
      F    3      [core]2S( 1.85)2p( 5.38)3S( 0.01)3p( 0.03)3d( 0.04)
      F    4      [core]2S( 1.85)2p( 5.38)3S( 0.01)3p( 0.03)3d( 0.03)


 NBO analysis skipped by request.
 Unable to Open any file for archive entry.
 1\1\GINC-TRAPISTA\SP\RQCISD-FC\Aug-CC-pVTZ\C1F2O1\WAGNER\03-Sep-2022\0
 \\# qcisd/aug-cc-pvtz nosymm density=current pop=(chelpg,hirshfeld,npa
 ,dipole)\\f2co-wavefunction\\0,1\O,0,0.,0.,0.679927\C,0,0.,0.,-0.49221
 6\F,0,0.,-1.058878,-1.264305\F,0,0.,1.068878,-1.264305\\Version=EM64L-
 G16RevC.01\HF=-311.7406913\MP2=-312.6371693\MP3=-312.6244881\MP4D=-312
 .6401704\MP4DQ=-312.6240643\MP4SDQ=-312.6357425\QCISD=-312.6352326\RMS
 D=3.494e-09\Dipole=0.,-0.0141631,-0.3987921\Quadrupole=1.349634,-0.453
 596,-0.896038,0.,0.,0.0334471\PG=CS [SG(C1F2O1)]\\@
 The archive entry for this job was punched.


 Human beings, who are almost unique in having the
 ability to learn from the experience of others, are
 also remarkable for their apparent disinclination to do so.
                               -- Douglas Adams,
                                Last Chance to See
 Job cpu time:       0 days  6 hours 17 minutes 27.7 seconds.
 Elapsed time:       0 days  0 hours 23 minutes 55.7 seconds.
 File lengths (MBytes):  RWF=  21297 Int=      0 D2E=      0 Chk=      4 Scr=      1
 Normal termination of Gaussian 16 at Sat Sep  3 07:18:30 2022.
