 Entering Gaussian System, Link 0=/home/wagner/chemistry/gaussian/g16/g16
 Input=GAUSSIAN.com
 Output=GAUSSIAN.log
 Initial command:
 /home/wagner/chemistry/gaussian/g16/l1.exe "/home/wagner/chemistry/gaussian/work/Gau-7032.inp" -scrdir="/home/wagner/chemistry/gaussian/work/"
 Entering Link 1 = /home/wagner/chemistry/gaussian/g16/l1.exe PID=      7034.
  
 Copyright (c) 1988-2019, Gaussian, Inc.  All Rights Reserved.
  
 This is part of the Gaussian(R) 16 program.  It is based on
 the Gaussian(R) 09 system (copyright 2009, Gaussian, Inc.),
 the Gaussian(R) 03 system (copyright 2003, Gaussian, Inc.),
 the Gaussian(R) 98 system (copyright 1998, Gaussian, Inc.),
 the Gaussian(R) 94 system (copyright 1995, Gaussian, Inc.),
 the Gaussian 92(TM) system (copyright 1992, Gaussian, Inc.),
 the Gaussian 90(TM) system (copyright 1990, Gaussian, Inc.),
 the Gaussian 88(TM) system (copyright 1988, Gaussian, Inc.),
 the Gaussian 86(TM) system (copyright 1986, Carnegie Mellon
 University), and the Gaussian 82(TM) system (copyright 1983,
 Carnegie Mellon University). Gaussian is a federally registered
 trademark of Gaussian, Inc.
  
 This software contains proprietary and confidential information,
 including trade secrets, belonging to Gaussian, Inc.
  
 This software is provided under written license and may be
 used, copied, transmitted, or stored only in accord with that
 written license.
  
 The following legend is applicable only to US Government
 contracts under FAR:
  
                    RESTRICTED RIGHTS LEGEND
  
 Use, reproduction and disclosure by the US Government is
 subject to restrictions as set forth in subparagraphs (a)
 and (c) of the Commercial Computer Software - Restricted
 Rights clause in FAR 52.227-19.
  
 Gaussian, Inc.
 340 Quinnipiac St., Bldg. 40, Wallingford CT 06492
  
  
 ---------------------------------------------------------------
 Warning -- This program may not be used in any manner that
 competes with the business of Gaussian, Inc. or will provide
 assistance to any competitor of Gaussian, Inc.  The licensee
 of this program is prohibited from giving any competitor of
 Gaussian, Inc. access to this program.  By using this program,
 the user acknowledges that Gaussian, Inc. is engaged in the
 business of creating and licensing software in the field of
 computational chemistry and represents and warrants to the
 licensee that it is not a competitor of Gaussian, Inc. and that
 it will not use this program in any manner prohibited above.
 ---------------------------------------------------------------
  

 Cite this work as:
 Gaussian 16, Revision C.01,
 M. J. Frisch, G. W. Trucks, H. B. Schlegel, G. E. Scuseria, 
 M. A. Robb, J. R. Cheeseman, G. Scalmani, V. Barone, 
 G. A. Petersson, H. Nakatsuji, X. Li, M. Caricato, A. V. Marenich, 
 J. Bloino, B. G. Janesko, R. Gomperts, B. Mennucci, H. P. Hratchian, 
 J. V. Ortiz, A. F. Izmaylov, J. L. Sonnenberg, D. Williams-Young, 
 F. Ding, F. Lipparini, F. Egidi, J. Goings, B. Peng, A. Petrone, 
 T. Henderson, D. Ranasinghe, V. G. Zakrzewski, J. Gao, N. Rega, 
 G. Zheng, W. Liang, M. Hada, M. Ehara, K. Toyota, R. Fukuda, 
 J. Hasegawa, M. Ishida, T. Nakajima, Y. Honda, O. Kitao, H. Nakai, 
 T. Vreven, K. Throssell, J. A. Montgomery, Jr., J. E. Peralta, 
 F. Ogliaro, M. J. Bearpark, J. J. Heyd, E. N. Brothers, K. N. Kudin, 
 V. N. Staroverov, T. A. Keith, R. Kobayashi, J. Normand, 
 K. Raghavachari, A. P. Rendell, J. C. Burant, S. S. Iyengar, 
 J. Tomasi, M. Cossi, J. M. Millam, M. Klene, C. Adamo, R. Cammi, 
 J. W. Ochterski, R. L. Martin, K. Morokuma, O. Farkas, 
 J. B. Foresman, and D. J. Fox, Gaussian, Inc., Wallingford CT, 2019.
 
 ******************************************
 Gaussian 16:  EM64L-G16RevC.01  3-Jul-2019
                 3-Sep-2022 
 ******************************************
 %nproc=16
 Will use up to   16 processors via shared memory.
 %mem=16GB
 ----------------------------------------------------------------------
 # qcisd/aug-cc-pvtz nosymm density=current pop=(chelpg,hirshfeld,npa,d
 ipole)
 ----------------------------------------------------------------------
 1/30=1,38=1,172=1/1;
 2/12=2,15=1,17=6,18=5,40=1/2;
 3/5=16,6=1,7=10,11=9,25=1,30=1,71=1/1,2,3;
 4//1;
 5/5=2,38=5/2;
 8/6=4,9=120000,10=1/1,4;
 9/5=8,15=1/13;
 11/28=-7,31=1,32=3,42=3/11;
 10/5=6,13=10,31=1/2;
 6/7=2,8=2,9=2,10=2,15=24,20=3,22=-1,40=-1,79=1/1,2,7;
 99/5=1,9=1/99;
 -----------------
 f2co-wavefunction
 -----------------
 Symbolic Z-matrix:
 Charge =  0 Multiplicity = 1
 O                     0.        0.        0.67993 
 C                     0.        0.       -0.49222 
 F                     0.       -1.05888  -1.27431 
 F                     0.        1.05888  -1.26431 
 
                          Input orientation:                          
 ---------------------------------------------------------------------
 Center     Atomic      Atomic             Coordinates (Angstroms)
 Number     Number       Type             X           Y           Z
 ---------------------------------------------------------------------
      1          8           0        0.000000    0.000000    0.679927
      2          6           0        0.000000    0.000000   -0.492216
      3          9           0        0.000000   -1.058878   -1.274305
      4          9           0        0.000000    1.058878   -1.264305
 ---------------------------------------------------------------------
                    Distance matrix (angstroms):
                    1          2          3          4
     1  O    0.000000
     2  C    1.172143   0.000000
     3  F    2.222666   1.316391   0.000000
     4  F    2.213879   1.310475   2.117780   0.000000
 Symmetry turned off by external request.
 Stoichiometry    CF2O
 Framework group  CS[SG(CF2O)]
 Deg. of freedom     5
 Full point group                 CS      NOp   2
 Rotational constants (GHZ):          11.8806627          11.6915129           5.8926645
 Standard basis: Aug-CC-pVTZ (5D, 7F)
   184 basis functions,   288 primitive gaussians,   220 cartesian basis functions
    16 alpha electrons       16 beta electrons
       nuclear repulsion energy       119.7747902093 Hartrees.
 NAtoms=    4 NActive=    4 NUniq=    4 SFac= 1.00D+00 NAtFMM=   60 NAOKFM=F Big=F
 Integral buffers will be    131072 words long.
 Raffenetti 1 integral format.
 Two-electron integral symmetry is turned off.
 One-electron integrals computed using PRISM.
 NBasis=   184 RedAO= T EigKep=  3.49D-04  NBF=   184
 NBsUse=   184 1.00D-06 EigRej= -1.00D+00 NBFU=   184
 ExpMin= 3.57D-02 ExpMax= 1.95D+04 ExpMxC= 6.65D+02 IAcc=3 IRadAn=         5 AccDes= 0.00D+00
 Harris functional with IExCor=  205 and IRadAn=       5 diagonalized for initial guess.
 HarFok:  IExCor=  205 AccDes= 0.00D+00 IRadAn=         5 IDoV= 1 UseB2=F ITyADJ=14
 ICtDFT=  3500011 ScaDFX=  1.000000  1.000000  1.000000  1.000000
 FoFCou: FMM=F IPFlag=           0 FMFlag=      100000 FMFlg1=           0
         NFxFlg=           0 DoJE=T BraDBF=F KetDBF=T FulRan=T
         wScrn=  0.000000 ICntrl=       500 IOpCl=  0 I1Cent=   200000004 NGrid=           0
         NMat0=    1 NMatS0=      1 NMatT0=    0 NMatD0=    1 NMtDS0=    0 NMtDT0=    0
 Symmetry not used in FoFCou.
 Keep R1 ints in memory in canonical form, NReq=152781309.
 Requested convergence on RMS density matrix=1.00D-08 within 128 cycles.
 Requested convergence on MAX density matrix=1.00D-06.
 Requested convergence on             energy=1.00D-06.
 No special actions if energy rises.
 SCF Done:  E(RHF) =  -311.740823219     A.U. after   12 cycles
            NFock= 12  Conv=0.33D-08     -V/T= 2.0015
 ExpMin= 3.57D-02 ExpMax= 1.95D+04 ExpMxC= 6.65D+02 IAcc=3 IRadAn=         5 AccDes= 0.00D+00
 HarFok:  IExCor=  205 AccDes= 0.00D+00 IRadAn=         5 IDoV=-2 UseB2=F ITyADJ=14
 ICtDFT= 12500011 ScaDFX=  1.000000  1.000000  1.000000  1.000000
 Range of M.O.s used for correlation:     5   184
 NBasis=   184 NAE=    16 NBE=    16 NFC=     4 NFV=     0
 NROrb=    180 NOA=    12 NOB=    12 NVA=   168 NVB=   168

 **** Warning!!: The largest alpha MO coefficient is  0.15533565D+02

 Semi-Direct transformation.
 ModeAB=           2 MOrb=            12 LenV=    2146514633
 LASXX=     33405819 LTotXX=    33405819 LenRXX=    33405819
 LTotAB=    33954012 MaxLAS=    52509600 LenRXY=    52509600
 NonZer=    66811638 LenScr=   100987392 LnRSAI=           0
 LnScr1=           0 LExtra=           0 Total=    186902811
 MaxDsk=          -1 SrtSym=           F ITran=            4
 JobTyp=0 Pass  1:  I=   1 to  12.
 (rs|ai) integrals will be sorted in core.
 Spin components of T(2) and E(2):
     alpha-alpha T2 =       0.2662303200D-01 E2=     -0.1191632068D+00
     alpha-beta  T2 =       0.1373951647D+00 E2=     -0.6580360626D+00
     beta-beta   T2 =       0.2662303200D-01 E2=     -0.1191632068D+00
 ANorm=    0.1091165079D+01
 E2 =    -0.8963624761D+00 EUMP2 =    -0.31263718569513D+03
 Keep R2 and R3 ints in memory in canonical form, NReq=297638821.
 CIDS: In Core Option IDoMem=           1.
 Iterations=  50 Convergence= 0.100D-07
 Produce multiple copies of IABC intergrals
 Iteration Nr.   1
 **********************
 DD1Dir will call FoFMem   1 times, MxPair=       156
 NAB=    78 NAA=     0 NBB=     0.
 MP4(R+Q)=  0.16092643D-01
 E3=        0.12659510D-01        EUMP3=      -0.31262452619D+03
 E4(DQ)=    0.42904001D-03        UMP4(DQ)=   -0.31262409715D+03
 E4(SDQ)=  -0.11236129D-01        UMP4(SDQ)=  -0.31263576231D+03
 DE(Corr)= -0.86761032     E(Corr)=     -312.60843354    
 NORM(A)=   0.10860110D+01
 Iteration Nr.   2
 **********************
 DD1Dir will call FoFMem   1 times, MxPair=       156
 NAB=    78 NAA=     0 NBB=     0.
 DE(Corr)= -0.89359824     E(CORR)=     -312.63442146     Delta=-2.60D-02
 NORM(A)=   0.10933439D+01
 Iteration Nr.   3
 **********************
 DD1Dir will call FoFMem   1 times, MxPair=       156
 NAB=    78 NAA=     0 NBB=     0.
 DE(Corr)= -0.89181551     E(CORR)=     -312.63263872     Delta= 1.78D-03
 NORM(A)=   0.10955931D+01
 Iteration Nr.   4
 **********************
 DD1Dir will call FoFMem   1 times, MxPair=       156
 NAB=    78 NAA=     0 NBB=     0.
 DE(Corr)= -0.89413421     E(CORR)=     -312.63495742     Delta=-2.32D-03
 NORM(A)=   0.10964068D+01
 Iteration Nr.   5
 **********************
 DD1Dir will call FoFMem   1 times, MxPair=       156
 NAB=    78 NAA=     0 NBB=     0.
 DE(Corr)= -0.89440266     E(CORR)=     -312.63522588     Delta=-2.68D-04
 NORM(A)=   0.10965916D+01
 Iteration Nr.   6
 **********************
 DD1Dir will call FoFMem   1 times, MxPair=       156
 NAB=    78 NAA=     0 NBB=     0.
 DE(Corr)= -0.89442956     E(CORR)=     -312.63525277     Delta=-2.69D-05
 NORM(A)=   0.10966052D+01
 Iteration Nr.   7
 **********************
 DD1Dir will call FoFMem   1 times, MxPair=       156
 NAB=    78 NAA=     0 NBB=     0.
 DE(Corr)= -0.89443124     E(CORR)=     -312.63525445     Delta=-1.68D-06
 NORM(A)=   0.10966050D+01
 Iteration Nr.   8
 **********************
 DD1Dir will call FoFMem   1 times, MxPair=       156
 NAB=    78 NAA=     0 NBB=     0.
 DE(Corr)= -0.89443021     E(CORR)=     -312.63525343     Delta= 1.02D-06
 NORM(A)=   0.10966054D+01
 Iteration Nr.   9
 **********************
 DD1Dir will call FoFMem   1 times, MxPair=       156
 NAB=    78 NAA=     0 NBB=     0.
 DE(Corr)= -0.89443062     E(CORR)=     -312.63525384     Delta=-4.08D-07
 NORM(A)=   0.10966054D+01
 Iteration Nr.  10
 **********************
 DD1Dir will call FoFMem   1 times, MxPair=       156
 NAB=    78 NAA=     0 NBB=     0.
 DE(Corr)= -0.89443051     E(CORR)=     -312.63525373     Delta= 1.11D-07
 NORM(A)=   0.10966056D+01
 Iteration Nr.  11
 **********************
 DD1Dir will call FoFMem   1 times, MxPair=       156
 NAB=    78 NAA=     0 NBB=     0.
 DE(Corr)= -0.89443101     E(CORR)=     -312.63525423     Delta=-4.96D-07
 NORM(A)=   0.10966059D+01
 Iteration Nr.  12
 **********************
 DD1Dir will call FoFMem   1 times, MxPair=       156
 NAB=    78 NAA=     0 NBB=     0.
 DE(Corr)= -0.89443104     E(CORR)=     -312.63525426     Delta=-3.57D-08
 NORM(A)=   0.10966061D+01
 Iteration Nr.  13
 **********************
 DD1Dir will call FoFMem   1 times, MxPair=       156
 NAB=    78 NAA=     0 NBB=     0.
 DE(Corr)= -0.89443115     E(CORR)=     -312.63525436     Delta=-1.02D-07
 NORM(A)=   0.10966062D+01
 Iteration Nr.  14
 **********************
 DD1Dir will call FoFMem   1 times, MxPair=       156
 NAB=    78 NAA=     0 NBB=     0.
 DE(Corr)= -0.89443116     E(CORR)=     -312.63525438     Delta=-1.74D-08
 NORM(A)=   0.10966063D+01
 Iteration Nr.  15
 **********************
 DD1Dir will call FoFMem   1 times, MxPair=       156
 NAB=    78 NAA=     0 NBB=     0.
 DE(Corr)= -0.89443117     E(CORR)=     -312.63525439     Delta=-9.69D-09
 NORM(A)=   0.10966063D+01
 Wavefunction amplitudes converged. E(Corr)=     -312.63525439    
 Largest amplitude= 5.83D-02

 Z-amplitude iterations

 Iteration Nr.   1
 **********************
 DD1Dir will call FoFMem   1 times, MxPair=       156
 NAB=    78 NAA=     0 NBB=     0.
 DE(Z)= -0.87507483     E(Z)=     -312.61589805     Delta= 1.94D-02
 NORM(A)=   0.10966500D+01
 Iteration Nr.   2
 **********************
 DD1Dir will call FoFMem   1 times, MxPair=       156
 NAB=    78 NAA=     0 NBB=     0.
 DE(Z)= -0.87507496     E(Z)=     -312.61589818     Delta=-1.31D-07
 NORM(A)=   0.10966296D+01
 Iteration Nr.   3
 **********************
 DD1Dir will call FoFMem   1 times, MxPair=       156
 NAB=    78 NAA=     0 NBB=     0.
 DE(Z)= -0.87507509     E(Z)=     -312.61589831     Delta=-1.29D-07
 NORM(A)=   0.10966689D+01
 Iteration Nr.   4
 **********************
 DD1Dir will call FoFMem   1 times, MxPair=       156
 NAB=    78 NAA=     0 NBB=     0.
 DE(Z)= -0.87507531     E(Z)=     -312.61589853     Delta=-2.26D-07
 NORM(A)=   0.10967463D+01
 Iteration Nr.   5
 **********************
 DD1Dir will call FoFMem   1 times, MxPair=       156
 NAB=    78 NAA=     0 NBB=     0.
 DE(Z)= -0.87507666     E(Z)=     -312.61589988     Delta=-1.35D-06
 NORM(A)=   0.10921446D+01
 Iteration Nr.   6
 **********************
 DD1Dir will call FoFMem   1 times, MxPair=       156
 NAB=    78 NAA=     0 NBB=     0.
 DE(Z)= -0.87502075     E(Z)=     -312.61584397     Delta= 5.59D-05
 NORM(A)=   0.10921453D+01
 Iteration Nr.   7
 **********************
 DD1Dir will call FoFMem   1 times, MxPair=       156
 NAB=    78 NAA=     0 NBB=     0.
 DE(Z)= -0.87501956     E(Z)=     -312.61584278     Delta= 1.19D-06
 NORM(A)=   0.10921450D+01
 Iteration Nr.   8
 **********************
 DD1Dir will call FoFMem   1 times, MxPair=       156
 NAB=    78 NAA=     0 NBB=     0.
 DE(Z)= -0.87501994     E(Z)=     -312.61584316     Delta=-3.83D-07
 NORM(A)=   0.10921448D+01
 Iteration Nr.   9
 **********************
 DD1Dir will call FoFMem   1 times, MxPair=       156
 NAB=    78 NAA=     0 NBB=     0.
 DE(Z)= -0.87501962     E(Z)=     -312.61584284     Delta= 3.21D-07
 NORM(A)=   0.10921448D+01
 Iteration Nr.  10
 **********************
 DD1Dir will call FoFMem   1 times, MxPair=       156
 NAB=    78 NAA=     0 NBB=     0.
 DE(Z)= -0.87501955     E(Z)=     -312.61584277     Delta= 6.88D-08
 NORM(A)=   0.10921449D+01
 Iteration Nr.  11
 **********************
 DD1Dir will call FoFMem   1 times, MxPair=       156
 NAB=    78 NAA=     0 NBB=     0.
 DE(Z)= -0.87501960     E(Z)=     -312.61584282     Delta=-4.55D-08
 NORM(A)=   0.10921449D+01
 Iteration Nr.  12
 **********************
 DD1Dir will call FoFMem   1 times, MxPair=       156
 NAB=    78 NAA=     0 NBB=     0.
 DE(Z)= -0.87501959     E(Z)=     -312.61584280     Delta= 1.19D-08
 NORM(A)=   0.10921449D+01
 Iteration Nr.  13
 **********************
 DD1Dir will call FoFMem   1 times, MxPair=       156
 NAB=    78 NAA=     0 NBB=     0.
 DE(Z)= -0.87501960     E(Z)=     -312.61584282     Delta=-1.14D-08
 NORM(A)=   0.10921449D+01
 Iteration Nr.  14
 **********************
 DD1Dir will call FoFMem   1 times, MxPair=       156
 NAB=    78 NAA=     0 NBB=     0.
 DE(Z)= -0.87501960     E(Z)=     -312.61584282     Delta=-1.30D-10
 NORM(A)=   0.10921449D+01
 Z-amplitudes converged.
 Discarding MO integrals.
          Differentiating once with respect to electric field.
                with respect to dipole field.
          Electric field/nuclear overlap derivatives assumed to be zero.
 Keep R1 ints in memory in canonical form, NReq=152784248.
          There are     1 degrees of freedom in the 1st order CPHF.  IDoFFX=0 NUNeed=     1.
 LinEq1:  Iter=  0 NonCon=     1 RMS=3.08D-03 Max=8.49D-02 NDo=     1
 AX will form     1 AO Fock derivatives at one time.
 LinEq1:  Iter=  1 NonCon=     1 RMS=7.59D-04 Max=1.11D-02 NDo=     1
 LinEq1:  Iter=  2 NonCon=     1 RMS=2.26D-04 Max=3.40D-03 NDo=     1
 LinEq1:  Iter=  3 NonCon=     1 RMS=9.98D-05 Max=1.59D-03 NDo=     1
 LinEq1:  Iter=  4 NonCon=     1 RMS=2.30D-05 Max=3.78D-04 NDo=     1
 LinEq1:  Iter=  5 NonCon=     1 RMS=1.11D-05 Max=3.10D-04 NDo=     1
 LinEq1:  Iter=  6 NonCon=     1 RMS=2.71D-06 Max=5.01D-05 NDo=     1
 LinEq1:  Iter=  7 NonCon=     1 RMS=5.55D-07 Max=1.03D-05 NDo=     1
 LinEq1:  Iter=  8 NonCon=     1 RMS=9.80D-08 Max=1.21D-06 NDo=     1
 LinEq1:  Iter=  9 NonCon=     1 RMS=2.06D-08 Max=2.71D-07 NDo=     1
 LinEq1:  Iter= 10 NonCon=     1 RMS=9.32D-09 Max=1.16D-07 NDo=     1
 LinEq1:  Iter= 11 NonCon=     1 RMS=1.43D-09 Max=1.90D-08 NDo=     1
 LinEq1:  Iter= 12 NonCon=     1 RMS=2.81D-10 Max=3.42D-09 NDo=     1
 LinEq1:  Iter= 13 NonCon=     0 RMS=4.53D-11 Max=4.24D-10 NDo=     1
 Linear equations converged to 1.000D-10 1.000D-09 after    13 iterations.
 End of Minotr F.D. properties file   721 does not exist.
 End of Minotr F.D. properties file   722 does not exist.
 End of Minotr F.D. properties file   788 does not exist.

 **********************************************************************

            Population analysis using the CC Density.

 **********************************************************************

 Alpha  occ. eigenvalues --  -26.39326 -26.39209 -20.62162 -11.53471  -1.76202
 Alpha  occ. eigenvalues --   -1.68496  -1.47931  -0.95764  -0.86460  -0.81712
 Alpha  occ. eigenvalues --   -0.80583  -0.72669  -0.70591  -0.70476  -0.57754
 Alpha  occ. eigenvalues --   -0.55925
 Alpha virt. eigenvalues --    0.05517   0.07199   0.07797   0.07907   0.15251
 Alpha virt. eigenvalues --    0.17090   0.17190   0.19349   0.19988   0.21612
 Alpha virt. eigenvalues --    0.24763   0.24846   0.26174   0.26398   0.28497
 Alpha virt. eigenvalues --    0.31116   0.34848   0.36127   0.38863   0.41683
 Alpha virt. eigenvalues --    0.44260   0.48450   0.50008   0.52356   0.53342
 Alpha virt. eigenvalues --    0.62892   0.66633   0.69285   0.72284   0.78621
 Alpha virt. eigenvalues --    0.81145   0.81633   0.84697   0.91194   0.93271
 Alpha virt. eigenvalues --    0.96234   0.97222   1.03197   1.04392   1.06904
 Alpha virt. eigenvalues --    1.07390   1.10182   1.10384   1.10618   1.14114
 Alpha virt. eigenvalues --    1.14339   1.18931   1.21575   1.24114   1.26940
 Alpha virt. eigenvalues --    1.28211   1.29859   1.37189   1.40917   1.50042
 Alpha virt. eigenvalues --    1.51461   1.52540   1.55815   1.65657   1.67582
 Alpha virt. eigenvalues --    1.69649   1.75862   1.78291   1.79630   2.03519
 Alpha virt. eigenvalues --    2.22492   2.27689   2.28172   2.33459   2.35515
 Alpha virt. eigenvalues --    2.41235   2.48808   2.55253   2.59371   2.61662
 Alpha virt. eigenvalues --    2.66993   2.70415   2.73164   2.73731   2.77061
 Alpha virt. eigenvalues --    2.80271   2.81877   2.83525   2.88484   2.92112
 Alpha virt. eigenvalues --    2.94287   2.94351   2.94732   3.05818   3.08212
 Alpha virt. eigenvalues --    3.10020   3.10273   3.12647   3.20469   3.23095
 Alpha virt. eigenvalues --    3.31427   3.36399   3.38812   3.46186   3.52506
 Alpha virt. eigenvalues --    3.55821   3.59824   3.63347   3.78772   3.80678
 Alpha virt. eigenvalues --    3.94446   3.99816   4.01826   4.03067   4.07487
 Alpha virt. eigenvalues --    4.20885   4.21683   4.39833   4.41267   4.53091
 Alpha virt. eigenvalues --    4.59520   4.75193   4.76826   4.82798   5.26335
 Alpha virt. eigenvalues --    5.34289   5.45769   5.46753   5.56217   5.74282
 Alpha virt. eigenvalues --    6.10892   6.56886   6.58212   6.68648   6.88954
 Alpha virt. eigenvalues --    7.10572   7.13457   7.18684   7.21119   7.23297
 Alpha virt. eigenvalues --    7.39205   7.50215   7.60476   7.69571   7.69879
 Alpha virt. eigenvalues --    8.78559   8.80076   8.85000   8.86952   9.00223
 Alpha virt. eigenvalues --    9.02623   9.11605   9.12923   9.19563   9.25914
 Alpha virt. eigenvalues --    9.26911   9.30237   9.33261   9.33402   9.33778
 Alpha virt. eigenvalues --    9.35251   9.37089   9.56054   9.61094   9.62740
 Alpha virt. eigenvalues --    9.66015   9.75559   9.87573   9.95517  13.33271
 Alpha virt. eigenvalues --   15.06580  16.15932  17.33703
          Condensed to atoms (all electrons):
               1          2          3          4
     1  O    7.942885   0.500260  -0.078121  -0.079852
     2  C    0.500260   4.518815   0.184109   0.184998
     3  F   -0.078121   0.184109   9.108795  -0.048946
     4  F   -0.079852   0.184998  -0.048946   9.104612
 Mulliken charges:
               1
     1  O   -0.285171
     2  C    0.611819
     3  F   -0.165836
     4  F   -0.160812
 Sum of Mulliken charges =  -0.00000
 Mulliken charges with hydrogens summed into heavy atoms:
               1
     1  O   -0.285171
     2  C    0.611819
     3  F   -0.165836
     4  F   -0.160812
 Electronic spatial extent (au):  <R**2>=            240.2717
 Charge=             -0.0000 electrons
 Dipole moment (field-independent basis, Debye):
    X=             -0.0000    Y=              0.0172    Z=             -1.0027  Tot=              1.0029
 Quadrupole moment (field-independent basis, Debye-Ang):
   XX=            -18.9116   YY=            -21.3350   ZZ=            -21.9452
   XY=             -0.0000   XZ=              0.0000   YZ=             -0.0217
 Traceless Quadrupole moment (field-independent basis, Debye-Ang):
   XX=              1.8190   YY=             -0.6044   ZZ=             -1.2146
   XY=             -0.0000   XZ=              0.0000   YZ=             -0.0217
 Octapole moment (field-independent basis, Debye-Ang**2):
  XXX=             -0.0000  YYY=              0.0491  ZZZ=             34.4990  XYY=             -0.0000
  XXY=              0.0139  XXZ=             10.4132  XZZ=             -0.0000  YZZ=              0.0442
  YYZ=             12.0953  XYZ=              0.0000
 Hexadecapole moment (field-independent basis, Debye-Ang**3):
 XXXX=            -13.4902 YYYY=            -80.0181 ZZZZ=           -133.2095 XXXY=             -0.0000
 XXXZ=              0.0000 YYYX=             -0.0000 YYYZ=             -0.2009 ZZZX=              0.0000
 ZZZY=             -0.2152 XXYY=            -15.6542 XXZZ=            -23.7032 YYZZ=            -36.3019
 XXYZ=             -0.0644 YYXZ=              0.0000 ZZXY=             -0.0000
 N-N= 1.197747902093D+02 E-N=-9.815882435033D+02  KE= 3.123668527101D+02
 There are a total of       93060 grid points.
 ElSum from          density=       32.0000004826
 ElSum from atomic densities=       32.0000001600

 Hirshfeld populations at iteration   1 (CX, CA, CB, DipXYZ):
               1          2          3          4          5          6
     1  O    0.000004   4.108095   4.108095   0.000000   0.000648  -0.051778
     2  C    0.000000   2.819041   2.819041   0.000000  -0.000290  -0.154828
     3  F    0.000001   4.537152   4.537152   0.000000   0.038107   0.038654
     4  F    0.000001   4.535712   4.535712  -0.000000  -0.037447   0.038297
       Tot   0.000006  16.000000  16.000000   0.000000   0.001019  -0.129655

 Dip from Atomic Chgs              0.000000   0.005762  -0.264842
         Total Dipole              0.000000   0.006780  -0.394497

 Hirshfeld charges, spin densities, dipoles, and CM5 charges using IRadAn=      5:
              Q-H        S-H        Dx         Dy         Dz        Q-CM5   
     1  O   -0.216190   0.000000   0.000000   0.000648  -0.051778  -0.259380
     2  C    0.361917   0.000000   0.000000  -0.000290  -0.154828   0.442097
     3  F   -0.074303   0.000000   0.000000   0.038107   0.038654  -0.092669
     4  F   -0.071424   0.000000  -0.000000  -0.037447   0.038297  -0.090049
       Tot  -0.000000   0.000000   0.000000   0.001019  -0.129655  -0.000000
 Hirshfeld charges with hydrogens summed into heavy atoms:
              Q-H       Q-CM5   
     1  O   -0.216190  -0.259380
     2  C    0.361917   0.442097
     3  F   -0.074303  -0.092669
     4  F   -0.071424  -0.090049
 
 EQQ= 0.000000000000E+00 EQD= 0.000000000000E+00 EDD=-0.948052501700E-04
 EQQ+QD+DD=-0.948052501700E-04
 
 Breneman (CHELPG) radii used.
 Generate Potential Derived Charges using the Breneman model, NDens= 1.
 Grid spacing= 0.300 Box extension= 2.800
 NStep X,Y,Z=   20     27     27   Total possible points=       14580
 Number of Points to Fit=    4706

 **********************************************************************

            Electrostatic Properties Using The CC Density.

 **********************************************************************

       Atomic Center    1 is at   0.000000  0.000000  0.679927
       Atomic Center    2 is at   0.000000  0.000000 -0.492216
       Atomic Center    3 is at   0.000000 -1.058878 -1.274305
       Atomic Center    4 is at   0.000000  1.058878 -1.264305
    4706 points will be used for fitting atomic charges
 Fitting point charges to electrostatic potential
 The dipole moment will be constrained to the correct value
 Charges from ESP fit, RMS=   0.00230 RRMS=   0.17991:
 ESP charges:
               1
     1  O   -0.463540
     2  C    0.894070
     3  F   -0.216959
     4  F   -0.213570
 Sum of ESP charges =   0.00000
 ESP charges with hydrogens summed into heavy atoms:
               1
     1  O   -0.463540
     2  C    0.894070
     3  F   -0.216959
     4  F   -0.213570
 Charge=   0.00000 Dipole=     0.0000     0.0172    -1.0027 Tot=     1.0029
 -----------------------------------------------------------------

              Electrostatic Properties (Atomic Units)

 -----------------------------------------------------------------
    Center     Electric         -------- Electric Field --------
               Potential          X             Y             Z
 -----------------------------------------------------------------
    1 Atom    -22.288985
    2 Atom    -14.476795
    3 Atom    -26.493150
    4 Atom    -26.491959
 -----------------------------------------------------------------
 ******************************Gaussian NBO Version 3.1******************************
             N A T U R A L   A T O M I C   O R B I T A L   A N D
          N A T U R A L   B O N D   O R B I T A L   A N A L Y S I S
 ******************************Gaussian NBO Version 3.1******************************
       /RESON  / : Allow strongly delocalized NBO set

 Analyzing the QCI/CC density

 Job title: f2co-wavefunction                                               

 Storage needed:    102424 in NPA (2147483536 available)
 GSVD:  LWork=          64 too small for GESVD, short by       66368 words or       66368 for optimal perf.


 NATURAL POPULATIONS:  Natural atomic orbital occupancies 
                                                          
   NAO  Atom  No  lang   Type(AO)    Occupancy
 --------------------------------------------
     1    O    1  S      Cor( 1S)     1.99949
     2    O    1  S      Val( 2S)     1.71240
     3    O    1  S      Ryd( 3S)     0.00636
     4    O    1  S      Ryd( 4S)     0.00037
     5    O    1  S      Ryd( 5S)     0.00019
     6    O    1  px     Val( 2p)     1.42019
     7    O    1  px     Ryd( 3p)     0.00797
     8    O    1  px     Ryd( 4p)     0.00054
     9    O    1  px     Ryd( 5p)     0.00009
    10    O    1  py     Val( 2p)     1.77198
    11    O    1  py     Ryd( 3p)     0.01127
    12    O    1  py     Ryd( 4p)     0.00066
    13    O    1  py     Ryd( 5p)     0.00010
    14    O    1  pz     Val( 2p)     1.51402
    15    O    1  pz     Ryd( 3p)     0.00682
    16    O    1  pz     Ryd( 4p)     0.00042
    17    O    1  pz     Ryd( 5p)     0.00006
    18    O    1  dxy    Ryd( 3d)     0.00565
    19    O    1  dxy    Ryd( 4d)     0.00045
    20    O    1  dxy    Ryd( 5d)     0.00006
    21    O    1  dxz    Ryd( 3d)     0.01180
    22    O    1  dxz    Ryd( 4d)     0.00038
    23    O    1  dxz    Ryd( 5d)     0.00011
    24    O    1  dyz    Ryd( 3d)     0.01121
    25    O    1  dyz    Ryd( 4d)     0.00043
    26    O    1  dyz    Ryd( 5d)     0.00008
    27    O    1  dx2y2  Ryd( 3d)     0.00563
    28    O    1  dx2y2  Ryd( 4d)     0.00046
    29    O    1  dx2y2  Ryd( 5d)     0.00008
    30    O    1  dz2    Ryd( 3d)     0.01973
    31    O    1  dz2    Ryd( 4d)     0.00047
    32    O    1  dz2    Ryd( 5d)     0.00014
    33    O    1  f(0)   Ryd( 4f)     0.00092
    34    O    1  f(0)   Ryd( 5f)     0.00009
    35    O    1  f(C1)  Ryd( 4f)     0.00052
    36    O    1  f(C1)  Ryd( 5f)     0.00010
    37    O    1  f(S1)  Ryd( 4f)     0.00057
    38    O    1  f(S1)  Ryd( 5f)     0.00010
    39    O    1  f(C2)  Ryd( 4f)     0.00049
    40    O    1  f(C2)  Ryd( 5f)     0.00008
    41    O    1  f(S2)  Ryd( 4f)     0.00049
    42    O    1  f(S2)  Ryd( 5f)     0.00008
    43    O    1  f(C3)  Ryd( 4f)     0.00047
    44    O    1  f(C3)  Ryd( 5f)     0.00006
    45    O    1  f(S3)  Ryd( 4f)     0.00047
    46    O    1  f(S3)  Ryd( 5f)     0.00006

    47    C    2  S      Cor( 1S)     1.99932
    48    C    2  S      Val( 2S)     0.68969
    49    C    2  S      Ryd( 3S)     0.00540
    50    C    2  S      Ryd( 4S)     0.00011
    51    C    2  S      Ryd( 5S)     0.00009
    52    C    2  px     Val( 2p)     0.72753
    53    C    2  px     Ryd( 3p)     0.00470
    54    C    2  px     Ryd( 4p)     0.00049
    55    C    2  px     Ryd( 5p)     0.00013
    56    C    2  py     Val( 2p)     0.65022
    57    C    2  py     Ryd( 3p)     0.01322
    58    C    2  py     Ryd( 4p)     0.00030
    59    C    2  py     Ryd( 5p)     0.00021
    60    C    2  pz     Val( 2p)     0.70939
    61    C    2  pz     Ryd( 3p)     0.02300
    62    C    2  pz     Ryd( 4p)     0.00028
    63    C    2  pz     Ryd( 5p)     0.00016
    64    C    2  dxy    Ryd( 3d)     0.00618
    65    C    2  dxy    Ryd( 4d)     0.00021
    66    C    2  dxy    Ryd( 5d)     0.00017
    67    C    2  dxz    Ryd( 3d)     0.00839
    68    C    2  dxz    Ryd( 4d)     0.00026
    69    C    2  dxz    Ryd( 5d)     0.00019
    70    C    2  dyz    Ryd( 3d)     0.00997
    71    C    2  dyz    Ryd( 5d)     0.00020
    72    C    2  dyz    Ryd( 4d)     0.00025
    73    C    2  dx2y2  Ryd( 3d)     0.00399
    74    C    2  dx2y2  Ryd( 4d)     0.00039
    75    C    2  dx2y2  Ryd( 5d)     0.00012
    76    C    2  dz2    Ryd( 3d)     0.00482
    77    C    2  dz2    Ryd( 4d)     0.00030
    78    C    2  dz2    Ryd( 5d)     0.00016
    79    C    2  f(0)   Ryd( 4f)     0.00040
    80    C    2  f(0)   Ryd( 5f)     0.00016
    81    C    2  f(C1)  Ryd( 4f)     0.00034
    82    C    2  f(C1)  Ryd( 5f)     0.00020
    83    C    2  f(S1)  Ryd( 4f)     0.00051
    84    C    2  f(S1)  Ryd( 5f)     0.00015
    85    C    2  f(C2)  Ryd( 4f)     0.00042
    86    C    2  f(C2)  Ryd( 5f)     0.00013
    87    C    2  f(S2)  Ryd( 4f)     0.00051
    88    C    2  f(S2)  Ryd( 5f)     0.00013
    89    C    2  f(C3)  Ryd( 4f)     0.00036
    90    C    2  f(C3)  Ryd( 5f)     0.00022
    91    C    2  f(S3)  Ryd( 4f)     0.00032
    92    C    2  f(S3)  Ryd( 5f)     0.00016

    93    F    3  S      Cor( 1S)     1.99981
    94    F    3  S      Val( 2S)     1.84833
    95    F    3  S      Ryd( 3S)     0.00619
    96    F    3  S      Ryd( 4S)     0.00025
    97    F    3  S      Ryd( 5S)     0.00018
    98    F    3  px     Val( 2p)     1.88024
    99    F    3  px     Ryd( 3p)     0.01188
   100    F    3  px     Ryd( 4p)     0.00067
   101    F    3  px     Ryd( 5p)     0.00011
   102    F    3  py     Val( 2p)     1.69562
   103    F    3  py     Ryd( 3p)     0.00855
   104    F    3  py     Ryd( 4p)     0.00058
   105    F    3  py     Ryd( 5p)     0.00009
   106    F    3  pz     Val( 2p)     1.80673
   107    F    3  pz     Ryd( 3p)     0.00995
   108    F    3  pz     Ryd( 4p)     0.00062
   109    F    3  pz     Ryd( 5p)     0.00010
   110    F    3  dxy    Ryd( 3d)     0.00690
   111    F    3  dxy    Ryd( 4d)     0.00052
   112    F    3  dxy    Ryd( 5d)     0.00008
   113    F    3  dxz    Ryd( 3d)     0.00576
   114    F    3  dxz    Ryd( 4d)     0.00051
   115    F    3  dxz    Ryd( 5d)     0.00007
   116    F    3  dyz    Ryd( 3d)     0.00915
   117    F    3  dyz    Ryd( 4d)     0.00050
   118    F    3  dyz    Ryd( 5d)     0.00009
   119    F    3  dx2y2  Ryd( 3d)     0.00712
   120    F    3  dx2y2  Ryd( 4d)     0.00055
   121    F    3  dx2y2  Ryd( 5d)     0.00012
   122    F    3  dz2    Ryd( 3d)     0.00613
   123    F    3  dz2    Ryd( 4d)     0.00048
   124    F    3  dz2    Ryd( 5d)     0.00008
   125    F    3  f(0)   Ryd( 4f)     0.00051
   126    F    3  f(0)   Ryd( 5f)     0.00009
   127    F    3  f(C1)  Ryd( 4f)     0.00044
   128    F    3  f(C1)  Ryd( 5f)     0.00007
   129    F    3  f(S1)  Ryd( 4f)     0.00056
   130    F    3  f(S1)  Ryd( 5f)     0.00010
   131    F    3  f(C2)  Ryd( 4f)     0.00062
   132    F    3  f(C2)  Ryd( 5f)     0.00010
   133    F    3  f(S2)  Ryd( 4f)     0.00052
   134    F    3  f(S2)  Ryd( 5f)     0.00009
   135    F    3  f(C3)  Ryd( 4f)     0.00049
   136    F    3  f(C3)  Ryd( 5f)     0.00008
   137    F    3  f(S3)  Ryd( 4f)     0.00051
   138    F    3  f(S3)  Ryd( 5f)     0.00009

   139    F    4  S      Cor( 1S)     1.99980
   140    F    4  S      Val( 2S)     1.84607
   141    F    4  S      Ryd( 3S)     0.00618
   142    F    4  S      Ryd( 4S)     0.00026
   143    F    4  S      Ryd( 5S)     0.00019
   144    F    4  px     Val( 2p)     1.87866
   145    F    4  px     Ryd( 3p)     0.01182
   146    F    4  px     Ryd( 4p)     0.00066
   147    F    4  px     Ryd( 5p)     0.00010
   148    F    4  py     Val( 2p)     1.69380
   149    F    4  py     Ryd( 3p)     0.00847
   150    F    4  py     Ryd( 4p)     0.00058
   151    F    4  py     Ryd( 5p)     0.00009
   152    F    4  pz     Val( 2p)     1.80995
   153    F    4  pz     Ryd( 3p)     0.00995
   154    F    4  pz     Ryd( 4p)     0.00062
   155    F    4  pz     Ryd( 5p)     0.00010
   156    F    4  dxy    Ryd( 3d)     0.00695
   157    F    4  dxy    Ryd( 4d)     0.00052
   158    F    4  dxy    Ryd( 5d)     0.00008
   159    F    4  dxz    Ryd( 3d)     0.00576
   160    F    4  dxz    Ryd( 4d)     0.00051
   161    F    4  dxz    Ryd( 5d)     0.00007
   162    F    4  dyz    Ryd( 3d)     0.00923
   163    F    4  dyz    Ryd( 4d)     0.00050
   164    F    4  dyz    Ryd( 5d)     0.00009
   165    F    4  dx2y2  Ryd( 3d)     0.00721
   166    F    4  dx2y2  Ryd( 4d)     0.00054
   167    F    4  dx2y2  Ryd( 5d)     0.00012
   168    F    4  dz2    Ryd( 3d)     0.00615
   169    F    4  dz2    Ryd( 4d)     0.00048
   170    F    4  dz2    Ryd( 5d)     0.00008
   171    F    4  f(0)   Ryd( 4f)     0.00051
   172    F    4  f(0)   Ryd( 5f)     0.00009
   173    F    4  f(C1)  Ryd( 4f)     0.00044
   174    F    4  f(C1)  Ryd( 5f)     0.00007
   175    F    4  f(S1)  Ryd( 4f)     0.00056
   176    F    4  f(S1)  Ryd( 5f)     0.00010
   177    F    4  f(C2)  Ryd( 4f)     0.00062
   178    F    4  f(C2)  Ryd( 5f)     0.00010
   179    F    4  f(S2)  Ryd( 4f)     0.00052
   180    F    4  f(S2)  Ryd( 5f)     0.00009
   181    F    4  f(C3)  Ryd( 4f)     0.00049
   182    F    4  f(C3)  Ryd( 5f)     0.00008
   183    F    4  f(S3)  Ryd( 4f)     0.00051
   184    F    4  f(S3)  Ryd( 5f)     0.00009


 Summary of Natural Population Analysis:                  
                                                          
                                       Natural Population 
                Natural  -----------------------------------------------
    Atom  No    Charge         Core      Valence    Rydberg      Total
 -----------------------------------------------------------------------
      O    1   -0.51411      1.99949     6.41859    0.09603     8.51411
      C    2    1.13618      1.99932     2.77682    0.08768     4.86382
      F    3   -0.31221      1.99981     7.23092    0.08149     9.31221
      F    4   -0.30986      1.99980     7.22848    0.08157     9.30986
 =======================================================================
   * Total *   -0.00000      7.99841    23.65481    0.34678    32.00000

                                 Natural Population      
 --------------------------------------------------------
   Core                       7.99841 ( 99.9802% of   8)
   Valence                   23.65481 ( 98.5617% of  24)
   Natural Minimal Basis     31.65322 ( 98.9163% of  32)
   Natural Rydberg Basis      0.34678 (  1.0837% of  32)
 --------------------------------------------------------

    Atom  No          Natural Electron Configuration
 ----------------------------------------------------------------------------
      O    1      [core]2S( 1.71)2p( 4.71)3S( 0.01)3p( 0.03)3d( 0.05)
      C    2      [core]2S( 0.69)2p( 2.09)3S( 0.01)3p( 0.04)3d( 0.03)
      F    3      [core]2S( 1.85)2p( 5.38)3S( 0.01)3p( 0.03)3d( 0.04)
      F    4      [core]2S( 1.85)2p( 5.38)3S( 0.01)3p( 0.03)3d( 0.04)


 NBO analysis skipped by request.
 Unable to Open any file for archive entry.
 1\1\GINC-TRAPISTA\SP\RQCISD-FC\Aug-CC-pVTZ\C1F2O1\WAGNER\03-Sep-2022\0
 \\# qcisd/aug-cc-pvtz nosymm density=current pop=(chelpg,hirshfeld,npa
 ,dipole)\\f2co-wavefunction\\0,1\O,0,0.,0.,0.679927\C,0,0.,0.,-0.49221
 6\F,0,0.,-1.058878,-1.274305\F,0,0.,1.058878,-1.264305\\Version=EM64L-
 G16RevC.01\HF=-311.7408232\MP2=-312.6371857\MP3=-312.6245262\MP4D=-312
 .6401898\MP4DQ=-312.6240971\MP4SDQ=-312.6357623\QCISD=-312.6352544\RMS
 D=3.253e-09\Dipole=0.,0.0067802,-0.3944974\Quadrupole=1.3523799,-0.449
 3401,-0.9030398,0.,0.,-0.0161278\PG=CS [SG(C1F2O1)]\\@
 The archive entry for this job was punched.


 ...THE PHYSICISTS HAVE MADE THEIR UNIVERSE, AND IF YOU DO NOT LIKE
 IT, YOU MUST MAKE YOUR OWN.
                               -- E. R. HARRISON IN "COSMOLOGY" (1980)
 Job cpu time:       0 days  6 hours 12 minutes  1.5 seconds.
 Elapsed time:       0 days  0 hours 23 minutes 33.6 seconds.
 File lengths (MBytes):  RWF=  21297 Int=      0 D2E=      0 Chk=      4 Scr=      1
 Normal termination of Gaussian 16 at Sat Sep  3 06:06:43 2022.
