 Entering Gaussian System, Link 0=/home/wagner/chemistry/gaussian/g16/g16
 Input=GAUSSIAN.com
 Output=GAUSSIAN.log
 Initial command:
 /home/wagner/chemistry/gaussian/g16/l1.exe "/home/wagner/chemistry/gaussian/work/Gau-81404.inp" -scrdir="/home/wagner/chemistry/gaussian/work/"
 Entering Link 1 = /home/wagner/chemistry/gaussian/g16/l1.exe PID=     81406.
  
 Copyright (c) 1988-2019, Gaussian, Inc.  All Rights Reserved.
  
 This is part of the Gaussian(R) 16 program.  It is based on
 the Gaussian(R) 09 system (copyright 2009, Gaussian, Inc.),
 the Gaussian(R) 03 system (copyright 2003, Gaussian, Inc.),
 the Gaussian(R) 98 system (copyright 1998, Gaussian, Inc.),
 the Gaussian(R) 94 system (copyright 1995, Gaussian, Inc.),
 the Gaussian 92(TM) system (copyright 1992, Gaussian, Inc.),
 the Gaussian 90(TM) system (copyright 1990, Gaussian, Inc.),
 the Gaussian 88(TM) system (copyright 1988, Gaussian, Inc.),
 the Gaussian 86(TM) system (copyright 1986, Carnegie Mellon
 University), and the Gaussian 82(TM) system (copyright 1983,
 Carnegie Mellon University). Gaussian is a federally registered
 trademark of Gaussian, Inc.
  
 This software contains proprietary and confidential information,
 including trade secrets, belonging to Gaussian, Inc.
  
 This software is provided under written license and may be
 used, copied, transmitted, or stored only in accord with that
 written license.
  
 The following legend is applicable only to US Government
 contracts under FAR:
  
                    RESTRICTED RIGHTS LEGEND
  
 Use, reproduction and disclosure by the US Government is
 subject to restrictions as set forth in subparagraphs (a)
 and (c) of the Commercial Computer Software - Restricted
 Rights clause in FAR 52.227-19.
  
 Gaussian, Inc.
 340 Quinnipiac St., Bldg. 40, Wallingford CT 06492
  
  
 ---------------------------------------------------------------
 Warning -- This program may not be used in any manner that
 competes with the business of Gaussian, Inc. or will provide
 assistance to any competitor of Gaussian, Inc.  The licensee
 of this program is prohibited from giving any competitor of
 Gaussian, Inc. access to this program.  By using this program,
 the user acknowledges that Gaussian, Inc. is engaged in the
 business of creating and licensing software in the field of
 computational chemistry and represents and warrants to the
 licensee that it is not a competitor of Gaussian, Inc. and that
 it will not use this program in any manner prohibited above.
 ---------------------------------------------------------------
  

 Cite this work as:
 Gaussian 16, Revision C.01,
 M. J. Frisch, G. W. Trucks, H. B. Schlegel, G. E. Scuseria, 
 M. A. Robb, J. R. Cheeseman, G. Scalmani, V. Barone, 
 G. A. Petersson, H. Nakatsuji, X. Li, M. Caricato, A. V. Marenich, 
 J. Bloino, B. G. Janesko, R. Gomperts, B. Mennucci, H. P. Hratchian, 
 J. V. Ortiz, A. F. Izmaylov, J. L. Sonnenberg, D. Williams-Young, 
 F. Ding, F. Lipparini, F. Egidi, J. Goings, B. Peng, A. Petrone, 
 T. Henderson, D. Ranasinghe, V. G. Zakrzewski, J. Gao, N. Rega, 
 G. Zheng, W. Liang, M. Hada, M. Ehara, K. Toyota, R. Fukuda, 
 J. Hasegawa, M. Ishida, T. Nakajima, Y. Honda, O. Kitao, H. Nakai, 
 T. Vreven, K. Throssell, J. A. Montgomery, Jr., J. E. Peralta, 
 F. Ogliaro, M. J. Bearpark, J. J. Heyd, E. N. Brothers, K. N. Kudin, 
 V. N. Staroverov, T. A. Keith, R. Kobayashi, J. Normand, 
 K. Raghavachari, A. P. Rendell, J. C. Burant, S. S. Iyengar, 
 J. Tomasi, M. Cossi, J. M. Millam, M. Klene, C. Adamo, R. Cammi, 
 J. W. Ochterski, R. L. Martin, K. Morokuma, O. Farkas, 
 J. B. Foresman, and D. J. Fox, Gaussian, Inc., Wallingford CT, 2019.
 
 ******************************************
 Gaussian 16:  EM64L-G16RevC.01  3-Jul-2019
                 3-Sep-2022 
 ******************************************
 %nproc=16
 Will use up to   16 processors via shared memory.
 %mem=16GB
 ----------------------------------------------------------------------
 # qcisd/aug-cc-pvtz nosymm density=current pop=(chelpg,hirshfeld,npa,d
 ipole)
 ----------------------------------------------------------------------
 1/30=1,38=1,172=1/1;
 2/12=2,15=1,17=6,18=5,40=1/2;
 3/5=16,6=1,7=10,11=9,25=1,30=1,71=1/1,2,3;
 4//1;
 5/5=2,38=5/2;
 8/6=4,9=120000,10=1/1,4;
 9/5=8,15=1/13;
 11/28=-7,31=1,32=3,42=3/11;
 10/5=6,13=10,31=1/2;
 6/7=2,8=2,9=2,10=2,15=24,20=3,22=-1,40=-1,79=1/1,2,7;
 99/5=1,9=1/99;
 -----------------
 f2co-wavefunction
 -----------------
 Symbolic Z-matrix:
 Charge =  0 Multiplicity = 1
 O                     0.        0.        0.66993 
 C                     0.        0.       -0.49222 
 F                     0.       -1.05888  -1.26431 
 F                     0.        1.05888  -1.26431 
 
                          Input orientation:                          
 ---------------------------------------------------------------------
 Center     Atomic      Atomic             Coordinates (Angstroms)
 Number     Number       Type             X           Y           Z
 ---------------------------------------------------------------------
      1          8           0        0.000000    0.000000    0.669927
      2          6           0        0.000000    0.000000   -0.492216
      3          9           0        0.000000   -1.058878   -1.264305
      4          9           0        0.000000    1.058878   -1.264305
 ---------------------------------------------------------------------
                    Distance matrix (angstroms):
                    1          2          3          4
     1  O    0.000000
     2  C    1.162143   0.000000
     3  F    2.205102   1.310475   0.000000
     4  F    2.205102   1.310475   2.117756   0.000000
 Symmetry turned off by external request.
 Stoichiometry    CF2O
 Framework group  C2V[C2(CO),SGV(F2)]
 Deg. of freedom     3
 Full point group                 C2V     NOp   4
 Rotational constants (GHZ):          11.8906068          11.8625554           5.9382822
 Standard basis: Aug-CC-pVTZ (5D, 7F)
   184 basis functions,   288 primitive gaussians,   220 cartesian basis functions
    16 alpha electrons       16 beta electrons
       nuclear repulsion energy       120.2645247847 Hartrees.
 NAtoms=    4 NActive=    4 NUniq=    4 SFac= 1.00D+00 NAtFMM=   60 NAOKFM=F Big=F
 Integral buffers will be    131072 words long.
 Raffenetti 1 integral format.
 Two-electron integral symmetry is turned off.
 One-electron integrals computed using PRISM.
 NBasis=   184 RedAO= T EigKep=  3.45D-04  NBF=   184
 NBsUse=   184 1.00D-06 EigRej= -1.00D+00 NBFU=   184
 ExpMin= 3.57D-02 ExpMax= 1.95D+04 ExpMxC= 6.65D+02 IAcc=3 IRadAn=         5 AccDes= 0.00D+00
 Harris functional with IExCor=  205 and IRadAn=       5 diagonalized for initial guess.
 HarFok:  IExCor=  205 AccDes= 0.00D+00 IRadAn=         5 IDoV= 1 UseB2=F ITyADJ=14
 ICtDFT=  3500011 ScaDFX=  1.000000  1.000000  1.000000  1.000000
 FoFCou: FMM=F IPFlag=           0 FMFlag=      100000 FMFlg1=           0
         NFxFlg=           0 DoJE=T BraDBF=F KetDBF=T FulRan=T
         wScrn=  0.000000 ICntrl=       500 IOpCl=  0 I1Cent=   200000004 NGrid=           0
         NMat0=    1 NMatS0=      1 NMatT0=    0 NMatD0=    1 NMtDS0=    0 NMtDT0=    0
 Symmetry not used in FoFCou.
 Keep R1 ints in memory in canonical form, NReq=152781483.
 Requested convergence on RMS density matrix=1.00D-08 within 128 cycles.
 Requested convergence on MAX density matrix=1.00D-06.
 Requested convergence on             energy=1.00D-06.
 No special actions if energy rises.
 SCF Done:  E(RHF) =  -311.742050738     A.U. after   11 cycles
            NFock= 11  Conv=0.81D-08     -V/T= 2.0013
 ExpMin= 3.57D-02 ExpMax= 1.95D+04 ExpMxC= 6.65D+02 IAcc=3 IRadAn=         5 AccDes= 0.00D+00
 HarFok:  IExCor=  205 AccDes= 0.00D+00 IRadAn=         5 IDoV=-2 UseB2=F ITyADJ=14
 ICtDFT= 12500011 ScaDFX=  1.000000  1.000000  1.000000  1.000000
 Range of M.O.s used for correlation:     5   184
 NBasis=   184 NAE=    16 NBE=    16 NFC=     4 NFV=     0
 NROrb=    180 NOA=    12 NOB=    12 NVA=   168 NVB=   168

 **** Warning!!: The largest alpha MO coefficient is  0.15577757D+02

 Semi-Direct transformation.
 ModeAB=           2 MOrb=            12 LenV=    2146514527
 LASXX=     33405819 LTotXX=    33405819 LenRXX=    33405819
 LTotAB=    33954012 MaxLAS=    52509600 LenRXY=    52509600
 NonZer=    66811638 LenScr=   100987392 LnRSAI=           0
 LnScr1=           0 LExtra=           0 Total=    186902811
 MaxDsk=          -1 SrtSym=           F ITran=            4
 JobTyp=0 Pass  1:  I=   1 to  12.
 (rs|ai) integrals will be sorted in core.
 Spin components of T(2) and E(2):
     alpha-alpha T2 =       0.2642478695D-01 E2=     -0.1189420999D+00
     alpha-beta  T2 =       0.1363505486D+00 E2=     -0.6567876669D+00
     beta-beta   T2 =       0.2642478695D-01 E2=     -0.1189420999D+00
 ANorm=    0.1090504527D+01
 E2 =    -0.8946718668D+00 EUMP2 =    -0.31263672260486D+03
 Keep R2 and R3 ints in memory in canonical form, NReq=297638995.
 CIDS: In Core Option IDoMem=           1.
 Iterations=  50 Convergence= 0.100D-07
 Produce multiple copies of IABC intergrals
 Iteration Nr.   1
 **********************
 DD1Dir will call FoFMem   1 times, MxPair=       156
 NAB=    78 NAA=     0 NBB=     0.
 MP4(R+Q)=  0.15950144D-01
 E3=        0.12033671D-01        EUMP3=      -0.31262468893D+03
 E4(DQ)=    0.53107338D-03        UMP4(DQ)=   -0.31262415786D+03
 E4(SDQ)=  -0.10892255D-01        UMP4(SDQ)=  -0.31263558119D+03
 DE(Corr)= -0.86668805     E(Corr)=     -312.60873879    
 NORM(A)=   0.10855028D+01
 Iteration Nr.   2
 **********************
 DD1Dir will call FoFMem   1 times, MxPair=       156
 NAB=    78 NAA=     0 NBB=     0.
 DE(Corr)= -0.89219878     E(CORR)=     -312.63424951     Delta=-2.55D-02
 NORM(A)=   0.10926928D+01
 Iteration Nr.   3
 **********************
 DD1Dir will call FoFMem   1 times, MxPair=       156
 NAB=    78 NAA=     0 NBB=     0.
 DE(Corr)= -0.89051740     E(CORR)=     -312.63256813     Delta= 1.68D-03
 NORM(A)=   0.10948606D+01
 Iteration Nr.   4
 **********************
 DD1Dir will call FoFMem   1 times, MxPair=       156
 NAB=    78 NAA=     0 NBB=     0.
 DE(Corr)= -0.89276966     E(CORR)=     -312.63482040     Delta=-2.25D-03
 NORM(A)=   0.10956371D+01
 Iteration Nr.   5
 **********************
 DD1Dir will call FoFMem   1 times, MxPair=       156
 NAB=    78 NAA=     0 NBB=     0.
 DE(Corr)= -0.89302684     E(CORR)=     -312.63507758     Delta=-2.57D-04
 NORM(A)=   0.10958121D+01
 Iteration Nr.   6
 **********************
 DD1Dir will call FoFMem   1 times, MxPair=       156
 NAB=    78 NAA=     0 NBB=     0.
 DE(Corr)= -0.89305251     E(CORR)=     -312.63510325     Delta=-2.57D-05
 NORM(A)=   0.10958250D+01
 Iteration Nr.   7
 **********************
 DD1Dir will call FoFMem   1 times, MxPair=       156
 NAB=    78 NAA=     0 NBB=     0.
 DE(Corr)= -0.89305410     E(CORR)=     -312.63510484     Delta=-1.59D-06
 NORM(A)=   0.10958247D+01
 Iteration Nr.   8
 **********************
 DD1Dir will call FoFMem   1 times, MxPair=       156
 NAB=    78 NAA=     0 NBB=     0.
 DE(Corr)= -0.89305314     E(CORR)=     -312.63510388     Delta= 9.59D-07
 NORM(A)=   0.10958251D+01
 Iteration Nr.   9
 **********************
 DD1Dir will call FoFMem   1 times, MxPair=       156
 NAB=    78 NAA=     0 NBB=     0.
 DE(Corr)= -0.89305348     E(CORR)=     -312.63510422     Delta=-3.40D-07
 NORM(A)=   0.10958251D+01
 Iteration Nr.  10
 **********************
 DD1Dir will call FoFMem   1 times, MxPair=       156
 NAB=    78 NAA=     0 NBB=     0.
 DE(Corr)= -0.89305341     E(CORR)=     -312.63510415     Delta= 7.10D-08
 NORM(A)=   0.10958253D+01
 Iteration Nr.  11
 **********************
 DD1Dir will call FoFMem   1 times, MxPair=       156
 NAB=    78 NAA=     0 NBB=     0.
 DE(Corr)= -0.89305389     E(CORR)=     -312.63510462     Delta=-4.79D-07
 NORM(A)=   0.10958256D+01
 Iteration Nr.  12
 **********************
 DD1Dir will call FoFMem   1 times, MxPair=       156
 NAB=    78 NAA=     0 NBB=     0.
 DE(Corr)= -0.89305394     E(CORR)=     -312.63510468     Delta=-5.16D-08
 NORM(A)=   0.10958258D+01
 Iteration Nr.  13
 **********************
 DD1Dir will call FoFMem   1 times, MxPair=       156
 NAB=    78 NAA=     0 NBB=     0.
 DE(Corr)= -0.89305404     E(CORR)=     -312.63510478     Delta=-1.04D-07
 NORM(A)=   0.10958259D+01
 Iteration Nr.  14
 **********************
 DD1Dir will call FoFMem   1 times, MxPair=       156
 NAB=    78 NAA=     0 NBB=     0.
 DE(Corr)= -0.89305406     E(CORR)=     -312.63510480     Delta=-1.71D-08
 NORM(A)=   0.10958260D+01
 Iteration Nr.  15
 **********************
 DD1Dir will call FoFMem   1 times, MxPair=       156
 NAB=    78 NAA=     0 NBB=     0.
 DE(Corr)= -0.89305407     E(CORR)=     -312.63510481     Delta=-1.08D-08
 NORM(A)=   0.10958260D+01
 Iteration Nr.  16
 **********************
 DD1Dir will call FoFMem   1 times, MxPair=       156
 NAB=    78 NAA=     0 NBB=     0.
 DE(Corr)= -0.89305407     E(CORR)=     -312.63510481     Delta=-3.98D-09
 NORM(A)=   0.10958260D+01
 Wavefunction amplitudes converged. E(Corr)=     -312.63510481    
 Largest amplitude= 5.36D-02

 Z-amplitude iterations

 Iteration Nr.   1
 **********************
 DD1Dir will call FoFMem   1 times, MxPair=       156
 NAB=    78 NAA=     0 NBB=     0.
 DE(Z)= -0.87391381     E(Z)=     -312.61596455     Delta= 1.91D-02
 NORM(A)=   0.10958217D+01
 Iteration Nr.   2
 **********************
 DD1Dir will call FoFMem   1 times, MxPair=       156
 NAB=    78 NAA=     0 NBB=     0.
 DE(Z)= -0.87391379     E(Z)=     -312.61596452     Delta= 2.77D-08
 NORM(A)=   0.10958266D+01
 Iteration Nr.   3
 **********************
 DD1Dir will call FoFMem   1 times, MxPair=       156
 NAB=    78 NAA=     0 NBB=     0.
 DE(Z)= -0.87391382     E(Z)=     -312.61596456     Delta=-3.72D-08
 NORM(A)=   0.10958252D+01
 Iteration Nr.   4
 **********************
 DD1Dir will call FoFMem   1 times, MxPair=       156
 NAB=    78 NAA=     0 NBB=     0.
 DE(Z)= -0.87391380     E(Z)=     -312.61596454     Delta= 1.93D-08
 NORM(A)=   0.10958280D+01
 Iteration Nr.   5
 **********************
 DD1Dir will call FoFMem   1 times, MxPair=       156
 NAB=    78 NAA=     0 NBB=     0.
 DE(Z)= -0.87391384     E(Z)=     -312.61596458     Delta=-3.41D-08
 NORM(A)=   0.10915102D+01
 Iteration Nr.   6
 **********************
 DD1Dir will call FoFMem   1 times, MxPair=       156
 NAB=    78 NAA=     0 NBB=     0.
 DE(Z)= -0.87396687     E(Z)=     -312.61601761     Delta=-5.30D-05
 NORM(A)=   0.10914709D+01
 Iteration Nr.   7
 **********************
 DD1Dir will call FoFMem   1 times, MxPair=       156
 NAB=    78 NAA=     0 NBB=     0.
 DE(Z)= -0.87385565     E(Z)=     -312.61590638     Delta= 1.11D-04
 NORM(A)=   0.10914518D+01
 Iteration Nr.   8
 **********************
 DD1Dir will call FoFMem   1 times, MxPair=       156
 NAB=    78 NAA=     0 NBB=     0.
 DE(Z)= -0.87384616     E(Z)=     -312.61589689     Delta= 9.49D-06
 NORM(A)=   0.10914541D+01
 Iteration Nr.   9
 **********************
 DD1Dir will call FoFMem   1 times, MxPair=       156
 NAB=    78 NAA=     0 NBB=     0.
 DE(Z)= -0.87384642     E(Z)=     -312.61589716     Delta=-2.63D-07
 NORM(A)=   0.10914546D+01
 Iteration Nr.  10
 **********************
 DD1Dir will call FoFMem   1 times, MxPair=       156
 NAB=    78 NAA=     0 NBB=     0.
 DE(Z)= -0.87384738     E(Z)=     -312.61589812     Delta=-9.60D-07
 NORM(A)=   0.10914549D+01
 Iteration Nr.  11
 **********************
 DD1Dir will call FoFMem   1 times, MxPair=       156
 NAB=    78 NAA=     0 NBB=     0.
 DE(Z)= -0.87384728     E(Z)=     -312.61589802     Delta= 9.86D-08
 NORM(A)=   0.10914550D+01
 Iteration Nr.  12
 **********************
 DD1Dir will call FoFMem   1 times, MxPair=       156
 NAB=    78 NAA=     0 NBB=     0.
 DE(Z)= -0.87384730     E(Z)=     -312.61589804     Delta=-1.77D-08
 NORM(A)=   0.10914550D+01
 Iteration Nr.  13
 **********************
 DD1Dir will call FoFMem   1 times, MxPair=       156
 NAB=    78 NAA=     0 NBB=     0.
 DE(Z)= -0.87384733     E(Z)=     -312.61589806     Delta=-2.64D-08
 NORM(A)=   0.10914550D+01
 Iteration Nr.  14
 **********************
 DD1Dir will call FoFMem   1 times, MxPair=       156
 NAB=    78 NAA=     0 NBB=     0.
 DE(Z)= -0.87384732     E(Z)=     -312.61589805     Delta= 8.54D-09
 NORM(A)=   0.10914550D+01
 Z-amplitudes converged.
 Discarding MO integrals.
          Differentiating once with respect to electric field.
                with respect to dipole field.
          Electric field/nuclear overlap derivatives assumed to be zero.
 Keep R1 ints in memory in canonical form, NReq=152784335.
          There are     1 degrees of freedom in the 1st order CPHF.  IDoFFX=0 NUNeed=     1.
 LinEq1:  Iter=  0 NonCon=     1 RMS=3.05D-03 Max=8.25D-02 NDo=     1
 AX will form     1 AO Fock derivatives at one time.
 LinEq1:  Iter=  1 NonCon=     1 RMS=7.45D-04 Max=1.09D-02 NDo=     1
 LinEq1:  Iter=  2 NonCon=     1 RMS=2.19D-04 Max=3.26D-03 NDo=     1
 LinEq1:  Iter=  3 NonCon=     1 RMS=9.60D-05 Max=1.60D-03 NDo=     1
 LinEq1:  Iter=  4 NonCon=     1 RMS=2.18D-05 Max=3.75D-04 NDo=     1
 LinEq1:  Iter=  5 NonCon=     1 RMS=1.06D-05 Max=3.11D-04 NDo=     1
 LinEq1:  Iter=  6 NonCon=     1 RMS=2.82D-06 Max=5.16D-05 NDo=     1
 LinEq1:  Iter=  7 NonCon=     1 RMS=5.68D-07 Max=9.04D-06 NDo=     1
 LinEq1:  Iter=  8 NonCon=     1 RMS=9.36D-08 Max=1.12D-06 NDo=     1
 LinEq1:  Iter=  9 NonCon=     1 RMS=1.28D-08 Max=1.70D-07 NDo=     1
 LinEq1:  Iter= 10 NonCon=     1 RMS=1.84D-09 Max=2.08D-08 NDo=     1
 LinEq1:  Iter= 11 NonCon=     1 RMS=3.79D-10 Max=5.49D-09 NDo=     1
 LinEq1:  Iter= 12 NonCon=     0 RMS=5.10D-11 Max=4.57D-10 NDo=     1
 Linear equations converged to 1.000D-10 1.000D-09 after    12 iterations.
 End of Minotr F.D. properties file   721 does not exist.
 End of Minotr F.D. properties file   722 does not exist.
 End of Minotr F.D. properties file   788 does not exist.

 **********************************************************************

            Population analysis using the CC Density.

 **********************************************************************

 Alpha  occ. eigenvalues --  -26.39149 -26.39146 -20.61991 -11.53109  -1.76276
 Alpha  occ. eigenvalues --   -1.68543  -1.48537  -0.95700  -0.86631  -0.81810
 Alpha  occ. eigenvalues --   -0.80552  -0.72639  -0.70709  -0.70453  -0.58005
 Alpha  occ. eigenvalues --   -0.56002
 Alpha virt. eigenvalues --    0.05535   0.07190   0.07797   0.07900   0.15626
 Alpha virt. eigenvalues --    0.17083   0.17186   0.19451   0.19998   0.21608
 Alpha virt. eigenvalues --    0.24845   0.24848   0.26163   0.26427   0.28513
 Alpha virt. eigenvalues --    0.31163   0.34942   0.36152   0.38922   0.41692
 Alpha virt. eigenvalues --    0.44620   0.48632   0.50011   0.52363   0.53883
 Alpha virt. eigenvalues --    0.62944   0.66606   0.69265   0.72970   0.78614
 Alpha virt. eigenvalues --    0.81144   0.81880   0.84809   0.91313   0.93450
 Alpha virt. eigenvalues --    0.96504   0.97362   1.03017   1.04493   1.06947
 Alpha virt. eigenvalues --    1.07551   1.10149   1.10403   1.10771   1.14464
 Alpha virt. eigenvalues --    1.14509   1.19250   1.21874   1.24223   1.26887
 Alpha virt. eigenvalues --    1.28235   1.29934   1.37280   1.40978   1.50203
 Alpha virt. eigenvalues --    1.51800   1.52597   1.56071   1.65724   1.68199
 Alpha virt. eigenvalues --    1.69258   1.75676   1.78380   1.79880   2.04425
 Alpha virt. eigenvalues --    2.22866   2.27736   2.28807   2.34215   2.35725
 Alpha virt. eigenvalues --    2.41377   2.49376   2.55299   2.60072   2.62149
 Alpha virt. eigenvalues --    2.67558   2.71331   2.72789   2.73800   2.77569
 Alpha virt. eigenvalues --    2.80151   2.81878   2.83073   2.88505   2.92629
 Alpha virt. eigenvalues --    2.94450   2.94820   2.94830   3.06234   3.08220
 Alpha virt. eigenvalues --    3.10256   3.10344   3.12347   3.20604   3.23508
 Alpha virt. eigenvalues --    3.31684   3.36309   3.39750   3.46370   3.53010
 Alpha virt. eigenvalues --    3.56218   3.60156   3.63877   3.79285   3.81604
 Alpha virt. eigenvalues --    3.96043   4.00850   4.02340   4.04390   4.08250
 Alpha virt. eigenvalues --    4.21188   4.22746   4.41547   4.41582   4.53467
 Alpha virt. eigenvalues --    4.60239   4.75983   4.77991   4.84792   5.28752
 Alpha virt. eigenvalues --    5.35127   5.46371   5.47958   5.57138   5.75020
 Alpha virt. eigenvalues --    6.12941   6.57048   6.58403   6.69500   6.89519
 Alpha virt. eigenvalues --    7.11729   7.15269   7.19219   7.22301   7.25154
 Alpha virt. eigenvalues --    7.40779   7.50128   7.61296   7.70738   7.70983
 Alpha virt. eigenvalues --    8.78843   8.80295   8.85137   8.86999   9.00479
 Alpha virt. eigenvalues --    9.02829   9.11930   9.13267   9.19584   9.26062
 Alpha virt. eigenvalues --    9.27047   9.30536   9.33277   9.33545   9.34017
 Alpha virt. eigenvalues --    9.35225   9.37301   9.56375   9.61665   9.62984
 Alpha virt. eigenvalues --    9.67429   9.75937   9.87933   9.96160  13.40831
 Alpha virt. eigenvalues --   15.06656  16.38127  17.44290
          Condensed to atoms (all electrons):
               1          2          3          4
     1  O    7.941448   0.504272  -0.081158  -0.081158
     2  C    0.504272   4.515981   0.184868   0.184868
     3  F   -0.081158   0.184868   9.108172  -0.048579
     4  F   -0.081158   0.184868  -0.048579   9.108172
 Mulliken charges:
               1
     1  O   -0.283405
     2  C    0.610011
     3  F   -0.163303
     4  F   -0.163303
 Sum of Mulliken charges =  -0.00000
 Mulliken charges with hydrogens summed into heavy atoms:
               1
     1  O   -0.283405
     2  C    0.610011
     3  F   -0.163303
     4  F   -0.163303
 Electronic spatial extent (au):  <R**2>=            239.0134
 Charge=             -0.0000 electrons
 Dipole moment (field-independent basis, Debye):
    X=             -0.0000    Y=             -0.0000    Z=             -0.9860  Tot=              0.9860
 Quadrupole moment (field-independent basis, Debye-Ang):
   XX=            -18.8752   YY=            -21.3179   ZZ=            -21.9223
   XY=              0.0000   XZ=              0.0000   YZ=             -0.0000
 Traceless Quadrupole moment (field-independent basis, Debye-Ang):
   XX=              1.8299   YY=             -0.6128   ZZ=             -1.2171
   XY=              0.0000   XZ=              0.0000   YZ=             -0.0000
 Octapole moment (field-independent basis, Debye-Ang**2):
  XXX=             -0.0000  YYY=             -0.0000  ZZZ=             34.5336  XYY=             -0.0000
  XXY=             -0.0000  XXZ=             10.4221  XZZ=             -0.0000  YZZ=              0.0000
  YYZ=             12.1303  XYZ=             -0.0000
 Hexadecapole moment (field-independent basis, Debye-Ang**3):
 XXXX=            -13.4249 YYYY=            -79.9747 ZZZZ=           -132.0665 XXXY=             -0.0000
 XXXZ=              0.0000 YYYX=              0.0000 YYYZ=             -0.0000 ZZZX=              0.0000
 ZZZY=             -0.0000 XXYY=            -15.6356 XXZZ=            -23.4930 YYZZ=            -36.1274
 XXYZ=              0.0000 YYXZ=              0.0000 ZZXY=              0.0000
 N-N= 1.202645247847D+02 E-N=-9.826177011147D+02  KE= 3.124308104020D+02
 There are a total of       93060 grid points.
 ElSum from          density=       32.0000005169
 ElSum from atomic densities=       32.0000001595

 Hirshfeld populations at iteration   1 (CX, CA, CB, DipXYZ):
               1          2          3          4          5          6
     1  O    0.000003   4.107789   4.107789   0.000000  -0.000000  -0.051640
     2  C    0.000000   2.819352   2.819352   0.000000  -0.000000  -0.154622
     3  F    0.000001   4.536430   4.536430   0.000000   0.038505   0.039589
     4  F    0.000001   4.536430   4.536430  -0.000000  -0.038505   0.039589
       Tot   0.000006  16.000000  16.000000   0.000000  -0.000000  -0.127084

 Dip from Atomic Chgs              0.000000  -0.000000  -0.260826
         Total Dipole              0.000000  -0.000000  -0.387910

 Hirshfeld charges, spin densities, dipoles, and CM5 charges using IRadAn=      5:
              Q-H        S-H        Dx         Dy         Dz        Q-CM5   
     1  O   -0.215577   0.000000   0.000000  -0.000000  -0.051640  -0.259873
     2  C    0.361295   0.000000   0.000000  -0.000000  -0.154622   0.442773
     3  F   -0.072859   0.000000   0.000000   0.038505   0.039589  -0.091450
     4  F   -0.072859   0.000000  -0.000000  -0.038505   0.039589  -0.091450
       Tot  -0.000001   0.000000   0.000000  -0.000000  -0.127084  -0.000001
 Hirshfeld charges with hydrogens summed into heavy atoms:
              Q-H       Q-CM5   
     1  O   -0.215577  -0.259873
     2  C    0.361295   0.442773
     3  F   -0.072859  -0.091450
     4  F   -0.072859  -0.091450
 
 EQQ= 0.000000000000E+00 EQD= 0.000000000000E+00 EDD=-0.107454214181E-03
 EQQ+QD+DD=-0.107454214181E-03
 
 Breneman (CHELPG) radii used.
 Generate Potential Derived Charges using the Breneman model, NDens= 1.
 Grid spacing= 0.300 Box extension= 2.800
 NStep X,Y,Z=   20     27     27   Total possible points=       14580
 Number of Points to Fit=    4698

 **********************************************************************

            Electrostatic Properties Using The CC Density.

 **********************************************************************

       Atomic Center    1 is at   0.000000  0.000000  0.669927
       Atomic Center    2 is at   0.000000  0.000000 -0.492216
       Atomic Center    3 is at   0.000000 -1.058878 -1.264305
       Atomic Center    4 is at   0.000000  1.058878 -1.264305
    4698 points will be used for fitting atomic charges
 Fitting point charges to electrostatic potential
 The dipole moment will be constrained to the correct value
 Charges from ESP fit, RMS=   0.00225 RRMS=   0.17675:
 ESP charges:
               1
     1  O   -0.467748
     2  C    0.905931
     3  F   -0.219091
     4  F   -0.219091
 Sum of ESP charges =   0.00000
 ESP charges with hydrogens summed into heavy atoms:
               1
     1  O   -0.467748
     2  C    0.905931
     3  F   -0.219091
     4  F   -0.219091
 Charge=   0.00000 Dipole=     0.0000    -0.0000    -0.9860 Tot=     0.9860
 -----------------------------------------------------------------

              Electrostatic Properties (Atomic Units)

 -----------------------------------------------------------------
    Center     Electric         -------- Electric Field --------
               Potential          X             Y             Z
 -----------------------------------------------------------------
    1 Atom    -22.290721
    2 Atom    -14.480254
    3 Atom    -26.493407
    4 Atom    -26.493407
 -----------------------------------------------------------------
 ******************************Gaussian NBO Version 3.1******************************
             N A T U R A L   A T O M I C   O R B I T A L   A N D
          N A T U R A L   B O N D   O R B I T A L   A N A L Y S I S
 ******************************Gaussian NBO Version 3.1******************************
       /RESON  / : Allow strongly delocalized NBO set

 Analyzing the QCI/CC density

 Job title: f2co-wavefunction                                               

 Storage needed:    102424 in NPA (2147483536 available)
 GSVD:  LWork=          64 too small for GESVD, short by       66368 words or       66368 for optimal perf.


 NATURAL POPULATIONS:  Natural atomic orbital occupancies 
                                                          
   NAO  Atom  No  lang   Type(AO)    Occupancy
 --------------------------------------------
     1    O    1  S      Cor( 1S)     1.99947
     2    O    1  S      Val( 2S)     1.70667
     3    O    1  S      Ryd( 3S)     0.00638
     4    O    1  S      Ryd( 4S)     0.00038
     5    O    1  S      Ryd( 5S)     0.00019
     6    O    1  px     Val( 2p)     1.41793
     7    O    1  px     Ryd( 3p)     0.00787
     8    O    1  px     Ryd( 4p)     0.00054
     9    O    1  px     Ryd( 5p)     0.00009
    10    O    1  py     Val( 2p)     1.76939
    11    O    1  py     Ryd( 3p)     0.01120
    12    O    1  py     Ryd( 4p)     0.00066
    13    O    1  py     Ryd( 5p)     0.00010
    14    O    1  pz     Val( 2p)     1.52297
    15    O    1  pz     Ryd( 3p)     0.00682
    16    O    1  pz     Ryd( 4p)     0.00043
    17    O    1  pz     Ryd( 5p)     0.00006
    18    O    1  dxy    Ryd( 3d)     0.00566
    19    O    1  dxy    Ryd( 4d)     0.00044
    20    O    1  dxy    Ryd( 5d)     0.00006
    21    O    1  dxz    Ryd( 3d)     0.01193
    22    O    1  dxz    Ryd( 4d)     0.00038
    23    O    1  dxz    Ryd( 5d)     0.00011
    24    O    1  dyz    Ryd( 3d)     0.01130
    25    O    1  dyz    Ryd( 4d)     0.00043
    26    O    1  dyz    Ryd( 5d)     0.00007
    27    O    1  dx2y2  Ryd( 3d)     0.00564
    28    O    1  dx2y2  Ryd( 4d)     0.00046
    29    O    1  dx2y2  Ryd( 5d)     0.00008
    30    O    1  dz2    Ryd( 3d)     0.02021
    31    O    1  dz2    Ryd( 4d)     0.00046
    32    O    1  dz2    Ryd( 5d)     0.00014
    33    O    1  f(0)   Ryd( 4f)     0.00092
    34    O    1  f(0)   Ryd( 5f)     0.00009
    35    O    1  f(C1)  Ryd( 4f)     0.00053
    36    O    1  f(C1)  Ryd( 5f)     0.00010
    37    O    1  f(S1)  Ryd( 4f)     0.00057
    38    O    1  f(S1)  Ryd( 5f)     0.00010
    39    O    1  f(C2)  Ryd( 4f)     0.00049
    40    O    1  f(C2)  Ryd( 5f)     0.00008
    41    O    1  f(S2)  Ryd( 4f)     0.00049
    42    O    1  f(S2)  Ryd( 5f)     0.00008
    43    O    1  f(C3)  Ryd( 4f)     0.00047
    44    O    1  f(C3)  Ryd( 5f)     0.00006
    45    O    1  f(S3)  Ryd( 4f)     0.00047
    46    O    1  f(S3)  Ryd( 5f)     0.00006

    47    C    2  S      Cor( 1S)     1.99928
    48    C    2  S      Val( 2S)     0.68396
    49    C    2  S      Ryd( 3S)     0.00549
    50    C    2  S      Ryd( 4S)     0.00011
    51    C    2  S      Ryd( 5S)     0.00009
    52    C    2  px     Val( 2p)     0.72947
    53    C    2  px     Ryd( 3p)     0.00470
    54    C    2  px     Ryd( 4p)     0.00049
    55    C    2  px     Ryd( 5p)     0.00013
    56    C    2  py     Val( 2p)     0.65340
    57    C    2  py     Ryd( 3p)     0.01321
    58    C    2  py     Ryd( 4p)     0.00030
    59    C    2  py     Ryd( 5p)     0.00020
    60    C    2  pz     Val( 2p)     0.71076
    61    C    2  pz     Ryd( 3p)     0.02333
    62    C    2  pz     Ryd( 4p)     0.00028
    63    C    2  pz     Ryd( 5p)     0.00016
    64    C    2  dxy    Ryd( 3d)     0.00622
    65    C    2  dxy    Ryd( 4d)     0.00021
    66    C    2  dxy    Ryd( 5d)     0.00017
    67    C    2  dxz    Ryd( 3d)     0.00838
    68    C    2  dxz    Ryd( 4d)     0.00026
    69    C    2  dxz    Ryd( 5d)     0.00019
    70    C    2  dyz    Ryd( 3d)     0.00994
    71    C    2  dyz    Ryd( 5d)     0.00020
    72    C    2  dyz    Ryd( 4d)     0.00025
    73    C    2  dx2y2  Ryd( 3d)     0.00398
    74    C    2  dx2y2  Ryd( 4d)     0.00039
    75    C    2  dx2y2  Ryd( 5d)     0.00012
    76    C    2  dz2    Ryd( 3d)     0.00476
    77    C    2  dz2    Ryd( 4d)     0.00030
    78    C    2  dz2    Ryd( 5d)     0.00016
    79    C    2  f(0)   Ryd( 4f)     0.00039
    80    C    2  f(0)   Ryd( 5f)     0.00016
    81    C    2  f(C1)  Ryd( 4f)     0.00033
    82    C    2  f(C1)  Ryd( 5f)     0.00020
    83    C    2  f(S1)  Ryd( 4f)     0.00050
    84    C    2  f(S1)  Ryd( 5f)     0.00015
    85    C    2  f(C2)  Ryd( 4f)     0.00042
    86    C    2  f(C2)  Ryd( 5f)     0.00013
    87    C    2  f(S2)  Ryd( 4f)     0.00051
    88    C    2  f(S2)  Ryd( 5f)     0.00013
    89    C    2  f(C3)  Ryd( 4f)     0.00036
    90    C    2  f(C3)  Ryd( 5f)     0.00022
    91    C    2  f(S3)  Ryd( 4f)     0.00032
    92    C    2  f(S3)  Ryd( 5f)     0.00016

    93    F    3  S      Cor( 1S)     1.99980
    94    F    3  S      Val( 2S)     1.84622
    95    F    3  S      Ryd( 3S)     0.00619
    96    F    3  S      Ryd( 4S)     0.00026
    97    F    3  S      Ryd( 5S)     0.00018
    98    F    3  px     Val( 2p)     1.87958
    99    F    3  px     Ryd( 3p)     0.01184
   100    F    3  px     Ryd( 4p)     0.00066
   101    F    3  px     Ryd( 5p)     0.00010
   102    F    3  py     Val( 2p)     1.69325
   103    F    3  py     Ryd( 3p)     0.00848
   104    F    3  py     Ryd( 4p)     0.00058
   105    F    3  py     Ryd( 5p)     0.00009
   106    F    3  pz     Val( 2p)     1.81066
   107    F    3  pz     Ryd( 3p)     0.00997
   108    F    3  pz     Ryd( 4p)     0.00062
   109    F    3  pz     Ryd( 5p)     0.00010
   110    F    3  dxy    Ryd( 3d)     0.00693
   111    F    3  dxy    Ryd( 4d)     0.00052
   112    F    3  dxy    Ryd( 5d)     0.00008
   113    F    3  dxz    Ryd( 3d)     0.00576
   114    F    3  dxz    Ryd( 4d)     0.00051
   115    F    3  dxz    Ryd( 5d)     0.00007
   116    F    3  dyz    Ryd( 3d)     0.00920
   117    F    3  dyz    Ryd( 4d)     0.00050
   118    F    3  dyz    Ryd( 5d)     0.00009
   119    F    3  dx2y2  Ryd( 3d)     0.00719
   120    F    3  dx2y2  Ryd( 4d)     0.00054
   121    F    3  dx2y2  Ryd( 5d)     0.00012
   122    F    3  dz2    Ryd( 3d)     0.00613
   123    F    3  dz2    Ryd( 4d)     0.00048
   124    F    3  dz2    Ryd( 5d)     0.00008
   125    F    3  f(0)   Ryd( 4f)     0.00051
   126    F    3  f(0)   Ryd( 5f)     0.00009
   127    F    3  f(C1)  Ryd( 4f)     0.00044
   128    F    3  f(C1)  Ryd( 5f)     0.00007
   129    F    3  f(S1)  Ryd( 4f)     0.00056
   130    F    3  f(S1)  Ryd( 5f)     0.00010
   131    F    3  f(C2)  Ryd( 4f)     0.00062
   132    F    3  f(C2)  Ryd( 5f)     0.00010
   133    F    3  f(S2)  Ryd( 4f)     0.00052
   134    F    3  f(S2)  Ryd( 5f)     0.00009
   135    F    3  f(C3)  Ryd( 4f)     0.00049
   136    F    3  f(C3)  Ryd( 5f)     0.00008
   137    F    3  f(S3)  Ryd( 4f)     0.00051
   138    F    3  f(S3)  Ryd( 5f)     0.00009

   139    F    4  S      Cor( 1S)     1.99980
   140    F    4  S      Val( 2S)     1.84622
   141    F    4  S      Ryd( 3S)     0.00619
   142    F    4  S      Ryd( 4S)     0.00026
   143    F    4  S      Ryd( 5S)     0.00018
   144    F    4  px     Val( 2p)     1.87958
   145    F    4  px     Ryd( 3p)     0.01184
   146    F    4  px     Ryd( 4p)     0.00066
   147    F    4  px     Ryd( 5p)     0.00010
   148    F    4  py     Val( 2p)     1.69325
   149    F    4  py     Ryd( 3p)     0.00848
   150    F    4  py     Ryd( 4p)     0.00058
   151    F    4  py     Ryd( 5p)     0.00009
   152    F    4  pz     Val( 2p)     1.81066
   153    F    4  pz     Ryd( 3p)     0.00997
   154    F    4  pz     Ryd( 4p)     0.00062
   155    F    4  pz     Ryd( 5p)     0.00010
   156    F    4  dxy    Ryd( 3d)     0.00693
   157    F    4  dxy    Ryd( 4d)     0.00052
   158    F    4  dxy    Ryd( 5d)     0.00008
   159    F    4  dxz    Ryd( 3d)     0.00576
   160    F    4  dxz    Ryd( 4d)     0.00051
   161    F    4  dxz    Ryd( 5d)     0.00007
   162    F    4  dyz    Ryd( 3d)     0.00920
   163    F    4  dyz    Ryd( 4d)     0.00050
   164    F    4  dyz    Ryd( 5d)     0.00009
   165    F    4  dx2y2  Ryd( 3d)     0.00719
   166    F    4  dx2y2  Ryd( 4d)     0.00054
   167    F    4  dx2y2  Ryd( 5d)     0.00012
   168    F    4  dz2    Ryd( 3d)     0.00613
   169    F    4  dz2    Ryd( 4d)     0.00048
   170    F    4  dz2    Ryd( 5d)     0.00008
   171    F    4  f(0)   Ryd( 4f)     0.00051
   172    F    4  f(0)   Ryd( 5f)     0.00009
   173    F    4  f(C1)  Ryd( 4f)     0.00044
   174    F    4  f(C1)  Ryd( 5f)     0.00007
   175    F    4  f(S1)  Ryd( 4f)     0.00056
   176    F    4  f(S1)  Ryd( 5f)     0.00010
   177    F    4  f(C2)  Ryd( 4f)     0.00062
   178    F    4  f(C2)  Ryd( 5f)     0.00010
   179    F    4  f(S2)  Ryd( 4f)     0.00052
   180    F    4  f(S2)  Ryd( 5f)     0.00009
   181    F    4  f(C3)  Ryd( 4f)     0.00049
   182    F    4  f(C3)  Ryd( 5f)     0.00008
   183    F    4  f(S3)  Ryd( 4f)     0.00051
   184    F    4  f(S3)  Ryd( 5f)     0.00009


 Summary of Natural Population Analysis:                  
                                                          
                                       Natural Population 
                Natural  -----------------------------------------------
    Atom  No    Charge         Core      Valence    Rydberg      Total
 -----------------------------------------------------------------------
      O    1   -0.51303      1.99947     6.41697    0.09659     8.51303
      C    2    1.13514      1.99928     2.77759    0.08799     4.86486
      F    3   -0.31106      1.99980     7.22971    0.08155     9.31106
      F    4   -0.31106      1.99980     7.22971    0.08155     9.31106
 =======================================================================
   * Total *    0.00000      7.99836    23.65397    0.34767    32.00000

                                 Natural Population      
 --------------------------------------------------------
   Core                       7.99836 ( 99.9794% of   8)
   Valence                   23.65397 ( 98.5582% of  24)
   Natural Minimal Basis     31.65233 ( 98.9135% of  32)
   Natural Rydberg Basis      0.34767 (  1.0865% of  32)
 --------------------------------------------------------

    Atom  No          Natural Electron Configuration
 ----------------------------------------------------------------------------
      O    1      [core]2S( 1.71)2p( 4.71)3S( 0.01)3p( 0.03)3d( 0.05)
      C    2      [core]2S( 0.68)2p( 2.09)3S( 0.01)3p( 0.04)3d( 0.03)
      F    3      [core]2S( 1.85)2p( 5.38)3S( 0.01)3p( 0.03)3d( 0.04)
      F    4      [core]2S( 1.85)2p( 5.38)3S( 0.01)3p( 0.03)3d( 0.04)


 NBO analysis skipped by request.
 Unable to Open any file for archive entry.
 1\1\GINC-TRAPISTA\SP\RQCISD-FC\Aug-CC-pVTZ\C1F2O1\WAGNER\03-Sep-2022\0
 \\# qcisd/aug-cc-pvtz nosymm density=current pop=(chelpg,hirshfeld,npa
 ,dipole)\\f2co-wavefunction\\0,1\O,0,0.,0.,0.669927\C,0,0.,0.,-0.49221
 6\F,0,0.,-1.058878,-1.264305\F,0,0.,1.058878,-1.264305\\Version=EM64L-
 G16RevC.01\HF=-311.7420507\MP2=-312.6367226\MP3=-312.6246889\MP4D=-312
 .640108\MP4DQ=-312.6241579\MP4SDQ=-312.6355812\QCISD=-312.6351048\RMSD
 =8.118e-09\Dipole=0.,0.,-0.3879108\Quadrupole=1.3604879,-0.4555705,-0.
 9049173,0.,0.,0.\PG=C02V [C2(C1O1),SGV(F2)]\\@
 The archive entry for this job was punched.


 MY DESCRIPTION OF EXPERIENCE IS NOT WHAT HAPPENS
 TO A MAN.  EXPERIENCE IS WHAT A MAN DOES WITH WHAT
 HAPPENS TO HIM.
                         - CHUCK KNOX, SEATTLE SEAHAWKS, 1985
 Job cpu time:       0 days  6 hours  1 minutes 53.8 seconds.
 Elapsed time:       0 days  0 hours 22 minutes 52.8 seconds.
 File lengths (MBytes):  RWF=  21297 Int=      0 D2E=      0 Chk=      4 Scr=      1
 Normal termination of Gaussian 16 at Sat Sep  3 01:24:43 2022.
