 Entering Gaussian System, Link 0=/home/wagner/chemistry/gaussian/g16/g16
 Input=GAUSSIAN.com
 Output=GAUSSIAN.log
 Initial command:
 /home/wagner/chemistry/gaussian/g16/l1.exe "/home/wagner/chemistry/gaussian/work/Gau-1571.inp" -scrdir="/home/wagner/chemistry/gaussian/work/"
 Entering Link 1 = /home/wagner/chemistry/gaussian/g16/l1.exe PID=      1573.
  
 Copyright (c) 1988-2019, Gaussian, Inc.  All Rights Reserved.
  
 This is part of the Gaussian(R) 16 program.  It is based on
 the Gaussian(R) 09 system (copyright 2009, Gaussian, Inc.),
 the Gaussian(R) 03 system (copyright 2003, Gaussian, Inc.),
 the Gaussian(R) 98 system (copyright 1998, Gaussian, Inc.),
 the Gaussian(R) 94 system (copyright 1995, Gaussian, Inc.),
 the Gaussian 92(TM) system (copyright 1992, Gaussian, Inc.),
 the Gaussian 90(TM) system (copyright 1990, Gaussian, Inc.),
 the Gaussian 88(TM) system (copyright 1988, Gaussian, Inc.),
 the Gaussian 86(TM) system (copyright 1986, Carnegie Mellon
 University), and the Gaussian 82(TM) system (copyright 1983,
 Carnegie Mellon University). Gaussian is a federally registered
 trademark of Gaussian, Inc.
  
 This software contains proprietary and confidential information,
 including trade secrets, belonging to Gaussian, Inc.
  
 This software is provided under written license and may be
 used, copied, transmitted, or stored only in accord with that
 written license.
  
 The following legend is applicable only to US Government
 contracts under FAR:
  
                    RESTRICTED RIGHTS LEGEND
  
 Use, reproduction and disclosure by the US Government is
 subject to restrictions as set forth in subparagraphs (a)
 and (c) of the Commercial Computer Software - Restricted
 Rights clause in FAR 52.227-19.
  
 Gaussian, Inc.
 340 Quinnipiac St., Bldg. 40, Wallingford CT 06492
  
  
 ---------------------------------------------------------------
 Warning -- This program may not be used in any manner that
 competes with the business of Gaussian, Inc. or will provide
 assistance to any competitor of Gaussian, Inc.  The licensee
 of this program is prohibited from giving any competitor of
 Gaussian, Inc. access to this program.  By using this program,
 the user acknowledges that Gaussian, Inc. is engaged in the
 business of creating and licensing software in the field of
 computational chemistry and represents and warrants to the
 licensee that it is not a competitor of Gaussian, Inc. and that
 it will not use this program in any manner prohibited above.
 ---------------------------------------------------------------
  

 Cite this work as:
 Gaussian 16, Revision C.01,
 M. J. Frisch, G. W. Trucks, H. B. Schlegel, G. E. Scuseria, 
 M. A. Robb, J. R. Cheeseman, G. Scalmani, V. Barone, 
 G. A. Petersson, H. Nakatsuji, X. Li, M. Caricato, A. V. Marenich, 
 J. Bloino, B. G. Janesko, R. Gomperts, B. Mennucci, H. P. Hratchian, 
 J. V. Ortiz, A. F. Izmaylov, J. L. Sonnenberg, D. Williams-Young, 
 F. Ding, F. Lipparini, F. Egidi, J. Goings, B. Peng, A. Petrone, 
 T. Henderson, D. Ranasinghe, V. G. Zakrzewski, J. Gao, N. Rega, 
 G. Zheng, W. Liang, M. Hada, M. Ehara, K. Toyota, R. Fukuda, 
 J. Hasegawa, M. Ishida, T. Nakajima, Y. Honda, O. Kitao, H. Nakai, 
 T. Vreven, K. Throssell, J. A. Montgomery, Jr., J. E. Peralta, 
 F. Ogliaro, M. J. Bearpark, J. J. Heyd, E. N. Brothers, K. N. Kudin, 
 V. N. Staroverov, T. A. Keith, R. Kobayashi, J. Normand, 
 K. Raghavachari, A. P. Rendell, J. C. Burant, S. S. Iyengar, 
 J. Tomasi, M. Cossi, J. M. Millam, M. Klene, C. Adamo, R. Cammi, 
 J. W. Ochterski, R. L. Martin, K. Morokuma, O. Farkas, 
 J. B. Foresman, and D. J. Fox, Gaussian, Inc., Wallingford CT, 2019.
 
 ******************************************
 Gaussian 16:  EM64L-G16RevC.01  3-Jul-2019
                 3-Sep-2022 
 ******************************************
 %nproc=16
 Will use up to   16 processors via shared memory.
 %mem=16GB
 ----------------------------------------------------------------------
 # qcisd/aug-cc-pvtz nosymm density=current pop=(chelpg,hirshfeld,npa,d
 ipole)
 ----------------------------------------------------------------------
 1/30=1,38=1,172=1/1;
 2/12=2,15=1,17=6,18=5,40=1/2;
 3/5=16,6=1,7=10,11=9,25=1,30=1,71=1/1,2,3;
 4//1;
 5/5=2,38=5/2;
 8/6=4,9=120000,10=1/1,4;
 9/5=8,15=1/13;
 11/28=-7,31=1,32=3,42=3/11;
 10/5=6,13=10,31=1/2;
 6/7=2,8=2,9=2,10=2,15=24,20=3,22=-1,40=-1,79=1/1,2,7;
 99/5=1,9=1/99;
 -----------------
 f2co-wavefunction
 -----------------
 Symbolic Z-matrix:
 Charge =  0 Multiplicity = 1
 O                     0.        0.        0.67993 
 C                     0.        0.01     -0.49222 
 F                     0.       -1.05888  -1.26431 
 F                     0.        1.05888  -1.26431 
 
                          Input orientation:                          
 ---------------------------------------------------------------------
 Center     Atomic      Atomic             Coordinates (Angstroms)
 Number     Number       Type             X           Y           Z
 ---------------------------------------------------------------------
      1          8           0        0.000000    0.000000    0.679927
      2          6           0        0.000000    0.010000   -0.492216
      3          9           0        0.000000   -1.058878   -1.264305
      4          9           0        0.000000    1.058878   -1.264305
 ---------------------------------------------------------------------
                    Distance matrix (angstroms):
                    1          2          3          4
     1  O    0.000000
     2  C    1.172186   0.000000
     3  F    2.213879   1.318568   0.000000
     4  F    2.213879   1.302408   2.117756   0.000000
 Symmetry turned off by external request.
 Stoichiometry    CF2O
 Framework group  CS[SG(CF2O)]
 Deg. of freedom     5
 Full point group                 CS      NOp   2
 Rotational constants (GHZ):          11.8625999          11.7725485           5.9087013
 Standard basis: Aug-CC-pVTZ (5D, 7F)
   184 basis functions,   288 primitive gaussians,   220 cartesian basis functions
    16 alpha electrons       16 beta electrons
       nuclear repulsion energy       119.9414869193 Hartrees.
 NAtoms=    4 NActive=    4 NUniq=    4 SFac= 1.00D+00 NAtFMM=   60 NAOKFM=F Big=F
 Integral buffers will be    131072 words long.
 Raffenetti 1 integral format.
 Two-electron integral symmetry is turned off.
 One-electron integrals computed using PRISM.
 NBasis=   184 RedAO= T EigKep=  3.49D-04  NBF=   184
 NBsUse=   184 1.00D-06 EigRej= -1.00D+00 NBFU=   184
 ExpMin= 3.57D-02 ExpMax= 1.95D+04 ExpMxC= 6.65D+02 IAcc=3 IRadAn=         5 AccDes= 0.00D+00
 Harris functional with IExCor=  205 and IRadAn=       5 diagonalized for initial guess.
 HarFok:  IExCor=  205 AccDes= 0.00D+00 IRadAn=         5 IDoV= 1 UseB2=F ITyADJ=14
 ICtDFT=  3500011 ScaDFX=  1.000000  1.000000  1.000000  1.000000
 FoFCou: FMM=F IPFlag=           0 FMFlag=      100000 FMFlg1=           0
         NFxFlg=           0 DoJE=T BraDBF=F KetDBF=T FulRan=T
         wScrn=  0.000000 ICntrl=       500 IOpCl=  0 I1Cent=   200000004 NGrid=           0
         NMat0=    1 NMatS0=      1 NMatT0=    0 NMatD0=    1 NMtDS0=    0 NMtDT0=    0
 Symmetry not used in FoFCou.
 Keep R1 ints in memory in canonical form, NReq=152781338.
 Requested convergence on RMS density matrix=1.00D-08 within 128 cycles.
 Requested convergence on MAX density matrix=1.00D-06.
 Requested convergence on             energy=1.00D-06.
 No special actions if energy rises.
 SCF Done:  E(RHF) =  -311.741129011     A.U. after   12 cycles
            NFock= 12  Conv=0.36D-08     -V/T= 2.0014
 ExpMin= 3.57D-02 ExpMax= 1.95D+04 ExpMxC= 6.65D+02 IAcc=3 IRadAn=         5 AccDes= 0.00D+00
 HarFok:  IExCor=  205 AccDes= 0.00D+00 IRadAn=         5 IDoV=-2 UseB2=F ITyADJ=14
 ICtDFT= 12500011 ScaDFX=  1.000000  1.000000  1.000000  1.000000
 Range of M.O.s used for correlation:     5   184
 NBasis=   184 NAE=    16 NBE=    16 NFC=     4 NFV=     0
 NROrb=    180 NOA=    12 NOB=    12 NVA=   168 NVB=   168

 **** Warning!!: The largest alpha MO coefficient is  0.15536915D+02

 Semi-Direct transformation.
 ModeAB=           2 MOrb=            12 LenV=    2146514619
 LASXX=     33405819 LTotXX=    33405819 LenRXX=    33405819
 LTotAB=    33954012 MaxLAS=    52509600 LenRXY=    52509600
 NonZer=    66811638 LenScr=   100987392 LnRSAI=           0
 LnScr1=           0 LExtra=           0 Total=    186902811
 MaxDsk=          -1 SrtSym=           F ITran=            4
 JobTyp=0 Pass  1:  I=   1 to  12.
 (rs|ai) integrals will be sorted in core.
 Spin components of T(2) and E(2):
     alpha-alpha T2 =       0.2657478037D-01 E2=     -0.1191107612D+00
     alpha-beta  T2 =       0.1371320128D+00 E2=     -0.6576933774D+00
     beta-beta   T2 =       0.2657478037D-01 E2=     -0.1191107612D+00
 ANorm=    0.1091000263D+01
 E2 =    -0.8959148998D+00 EUMP2 =    -0.31263704391090D+03
 Keep R2 and R3 ints in memory in canonical form, NReq=297638850.
 CIDS: In Core Option IDoMem=           1.
 Iterations=  50 Convergence= 0.100D-07
 Produce multiple copies of IABC intergrals
 Iteration Nr.   1
 **********************
 DD1Dir will call FoFMem   1 times, MxPair=       156
 NAB=    78 NAA=     0 NBB=     0.
 MP4(R+Q)=  0.16058104D-01
 E3=        0.12505437D-01        EUMP3=      -0.31262453847D+03
 E4(DQ)=    0.45682844D-03        UMP4(DQ)=   -0.31262408165D+03
 E4(SDQ)=  -0.11148336D-01        UMP4(SDQ)=  -0.31263568681D+03
 DE(Corr)= -0.86735136     E(Corr)=     -312.60848037    
 NORM(A)=   0.10858780D+01
 Iteration Nr.   2
 **********************
 DD1Dir will call FoFMem   1 times, MxPair=       156
 NAB=    78 NAA=     0 NBB=     0.
 DE(Corr)= -0.89322257     E(CORR)=     -312.63435158     Delta=-2.59D-02
 NORM(A)=   0.10931786D+01
 Iteration Nr.   3
 **********************
 DD1Dir will call FoFMem   1 times, MxPair=       156
 NAB=    78 NAA=     0 NBB=     0.
 DE(Corr)= -0.89146340     E(CORR)=     -312.63259241     Delta= 1.76D-03
 NORM(A)=   0.10954107D+01
 Iteration Nr.   4
 **********************
 DD1Dir will call FoFMem   1 times, MxPair=       156
 NAB=    78 NAA=     0 NBB=     0.
 DE(Corr)= -0.89376660     E(CORR)=     -312.63489561     Delta=-2.30D-03
 NORM(A)=   0.10962173D+01
 Iteration Nr.   5
 **********************
 DD1Dir will call FoFMem   1 times, MxPair=       156
 NAB=    78 NAA=     0 NBB=     0.
 DE(Corr)= -0.89403250     E(CORR)=     -312.63516151     Delta=-2.66D-04
 NORM(A)=   0.10963999D+01
 Iteration Nr.   6
 **********************
 DD1Dir will call FoFMem   1 times, MxPair=       156
 NAB=    78 NAA=     0 NBB=     0.
 DE(Corr)= -0.89405901     E(CORR)=     -312.63518802     Delta=-2.65D-05
 NORM(A)=   0.10964132D+01
 Iteration Nr.   7
 **********************
 DD1Dir will call FoFMem   1 times, MxPair=       156
 NAB=    78 NAA=     0 NBB=     0.
 DE(Corr)= -0.89406064     E(CORR)=     -312.63518965     Delta=-1.63D-06
 NORM(A)=   0.10964130D+01
 Iteration Nr.   8
 **********************
 DD1Dir will call FoFMem   1 times, MxPair=       156
 NAB=    78 NAA=     0 NBB=     0.
 DE(Corr)= -0.89405963     E(CORR)=     -312.63518864     Delta= 1.01D-06
 NORM(A)=   0.10964135D+01
 Iteration Nr.   9
 **********************
 DD1Dir will call FoFMem   1 times, MxPair=       156
 NAB=    78 NAA=     0 NBB=     0.
 DE(Corr)= -0.89406002     E(CORR)=     -312.63518903     Delta=-3.88D-07
 NORM(A)=   0.10964135D+01
 Iteration Nr.  10
 **********************
 DD1Dir will call FoFMem   1 times, MxPair=       156
 NAB=    78 NAA=     0 NBB=     0.
 DE(Corr)= -0.89405992     E(CORR)=     -312.63518893     Delta= 9.60D-08
 NORM(A)=   0.10964137D+01
 Iteration Nr.  11
 **********************
 DD1Dir will call FoFMem   1 times, MxPair=       156
 NAB=    78 NAA=     0 NBB=     0.
 DE(Corr)= -0.89406039     E(CORR)=     -312.63518940     Delta=-4.72D-07
 NORM(A)=   0.10964140D+01
 Iteration Nr.  12
 **********************
 DD1Dir will call FoFMem   1 times, MxPair=       156
 NAB=    78 NAA=     0 NBB=     0.
 DE(Corr)= -0.89406043     E(CORR)=     -312.63518944     Delta=-3.70D-08
 NORM(A)=   0.10964142D+01
 Iteration Nr.  13
 **********************
 DD1Dir will call FoFMem   1 times, MxPair=       156
 NAB=    78 NAA=     0 NBB=     0.
 DE(Corr)= -0.89406053     E(CORR)=     -312.63518954     Delta=-9.75D-08
 NORM(A)=   0.10964143D+01
 Iteration Nr.  14
 **********************
 DD1Dir will call FoFMem   1 times, MxPair=       156
 NAB=    78 NAA=     0 NBB=     0.
 DE(Corr)= -0.89406054     E(CORR)=     -312.63518955     Delta=-1.64D-08
 NORM(A)=   0.10964143D+01
 Iteration Nr.  15
 **********************
 DD1Dir will call FoFMem   1 times, MxPair=       156
 NAB=    78 NAA=     0 NBB=     0.
 DE(Corr)= -0.89406055     E(CORR)=     -312.63518956     Delta=-9.19D-09
 NORM(A)=   0.10964143D+01
 Wavefunction amplitudes converged. E(Corr)=     -312.63518956    
 Largest amplitude= 5.78D-02

 Z-amplitude iterations

 Iteration Nr.   1
 **********************
 DD1Dir will call FoFMem   1 times, MxPair=       156
 NAB=    78 NAA=     0 NBB=     0.
 DE(Z)= -0.87475610     E(Z)=     -312.61588511     Delta= 1.93D-02
 NORM(A)=   0.10964429D+01
 Iteration Nr.   2
 **********************
 DD1Dir will call FoFMem   1 times, MxPair=       156
 NAB=    78 NAA=     0 NBB=     0.
 DE(Z)= -0.87475620     E(Z)=     -312.61588521     Delta=-9.78D-08
 NORM(A)=   0.10964260D+01
 Iteration Nr.   3
 **********************
 DD1Dir will call FoFMem   1 times, MxPair=       156
 NAB=    78 NAA=     0 NBB=     0.
 DE(Z)= -0.87475624     E(Z)=     -312.61588525     Delta=-3.71D-08
 NORM(A)=   0.10964523D+01
 Iteration Nr.   4
 **********************
 DD1Dir will call FoFMem   1 times, MxPair=       156
 NAB=    78 NAA=     0 NBB=     0.
 DE(Z)= -0.87475641     E(Z)=     -312.61588542     Delta=-1.74D-07
 NORM(A)=   0.10964699D+01
 Iteration Nr.   5
 **********************
 DD1Dir will call FoFMem   1 times, MxPair=       156
 NAB=    78 NAA=     0 NBB=     0.
 DE(Z)= -0.87475685     E(Z)=     -312.61588586     Delta=-4.39D-07
 NORM(A)=   0.10919718D+01
 Iteration Nr.   6
 **********************
 DD1Dir will call FoFMem   1 times, MxPair=       156
 NAB=    78 NAA=     0 NBB=     0.
 DE(Z)= -0.87470058     E(Z)=     -312.61582959     Delta= 5.63D-05
 NORM(A)=   0.10919723D+01
 Iteration Nr.   7
 **********************
 DD1Dir will call FoFMem   1 times, MxPair=       156
 NAB=    78 NAA=     0 NBB=     0.
 DE(Z)= -0.87469947     E(Z)=     -312.61582848     Delta= 1.11D-06
 NORM(A)=   0.10919720D+01
 Iteration Nr.   8
 **********************
 DD1Dir will call FoFMem   1 times, MxPair=       156
 NAB=    78 NAA=     0 NBB=     0.
 DE(Z)= -0.87469969     E(Z)=     -312.61582870     Delta=-2.16D-07
 NORM(A)=   0.10919720D+01
 Iteration Nr.   9
 **********************
 DD1Dir will call FoFMem   1 times, MxPair=       156
 NAB=    78 NAA=     0 NBB=     0.
 DE(Z)= -0.87469938     E(Z)=     -312.61582839     Delta= 3.09D-07
 NORM(A)=   0.10919721D+01
 Iteration Nr.  10
 **********************
 DD1Dir will call FoFMem   1 times, MxPair=       156
 NAB=    78 NAA=     0 NBB=     0.
 DE(Z)= -0.87469938     E(Z)=     -312.61582839     Delta=-6.07D-09
 NORM(A)=   0.10919721D+01
 Z-amplitudes converged.
 Discarding MO integrals.
          Differentiating once with respect to electric field.
                with respect to dipole field.
          Electric field/nuclear overlap derivatives assumed to be zero.
 Keep R1 ints in memory in canonical form, NReq=152784306.
          There are     1 degrees of freedom in the 1st order CPHF.  IDoFFX=0 NUNeed=     1.
 LinEq1:  Iter=  0 NonCon=     1 RMS=3.07D-03 Max=8.43D-02 NDo=     1
 AX will form     1 AO Fock derivatives at one time.
 LinEq1:  Iter=  1 NonCon=     1 RMS=7.55D-04 Max=1.10D-02 NDo=     1
 LinEq1:  Iter=  2 NonCon=     1 RMS=2.24D-04 Max=3.36D-03 NDo=     1
 LinEq1:  Iter=  3 NonCon=     1 RMS=9.88D-05 Max=1.57D-03 NDo=     1
 LinEq1:  Iter=  4 NonCon=     1 RMS=2.27D-05 Max=3.70D-04 NDo=     1
 LinEq1:  Iter=  5 NonCon=     1 RMS=1.09D-05 Max=2.98D-04 NDo=     1
 LinEq1:  Iter=  6 NonCon=     1 RMS=2.62D-06 Max=4.73D-05 NDo=     1
 LinEq1:  Iter=  7 NonCon=     1 RMS=5.36D-07 Max=1.03D-05 NDo=     1
 LinEq1:  Iter=  8 NonCon=     1 RMS=1.05D-07 Max=1.23D-06 NDo=     1
 LinEq1:  Iter=  9 NonCon=     1 RMS=3.73D-08 Max=5.20D-07 NDo=     1
 LinEq1:  Iter= 10 NonCon=     1 RMS=1.11D-08 Max=1.33D-07 NDo=     1
 LinEq1:  Iter= 11 NonCon=     1 RMS=1.47D-09 Max=1.72D-08 NDo=     1
 LinEq1:  Iter= 12 NonCon=     1 RMS=2.96D-10 Max=3.40D-09 NDo=     1
 LinEq1:  Iter= 13 NonCon=     0 RMS=4.81D-11 Max=4.28D-10 NDo=     1
 Linear equations converged to 1.000D-10 1.000D-09 after    13 iterations.
 End of Minotr F.D. properties file   721 does not exist.
 End of Minotr F.D. properties file   722 does not exist.
 End of Minotr F.D. properties file   788 does not exist.

 **********************************************************************

            Population analysis using the CC Density.

 **********************************************************************

 Alpha  occ. eigenvalues --  -26.39694 -26.38943 -20.62021 -11.53394  -1.76434
 Alpha  occ. eigenvalues --   -1.68624  -1.47830  -0.95880  -0.86620  -0.81860
 Alpha  occ. eigenvalues --   -0.80638  -0.72736  -0.70578  -0.70509  -0.57649
 Alpha  occ. eigenvalues --   -0.55828
 Alpha virt. eigenvalues --    0.05515   0.07195   0.07795   0.07908   0.15335
 Alpha virt. eigenvalues --    0.17094   0.17200   0.19383   0.19973   0.21583
 Alpha virt. eigenvalues --    0.24809   0.24871   0.26163   0.26397   0.28490
 Alpha virt. eigenvalues --    0.31148   0.34833   0.36147   0.38917   0.41655
 Alpha virt. eigenvalues --    0.44455   0.48634   0.49996   0.52354   0.53572
 Alpha virt. eigenvalues --    0.62911   0.66643   0.69283   0.72312   0.78653
 Alpha virt. eigenvalues --    0.81168   0.81720   0.84792   0.91212   0.93345
 Alpha virt. eigenvalues --    0.96355   0.97292   1.03053   1.04414   1.06915
 Alpha virt. eigenvalues --    1.07413   1.10107   1.10336   1.10764   1.14088
 Alpha virt. eigenvalues --    1.14407   1.18953   1.21741   1.24207   1.26906
 Alpha virt. eigenvalues --    1.28093   1.29887   1.37107   1.40965   1.50212
 Alpha virt. eigenvalues --    1.51636   1.52547   1.55895   1.65649   1.67632
 Alpha virt. eigenvalues --    1.69264   1.75815   1.78183   1.79999   2.03878
 Alpha virt. eigenvalues --    2.22588   2.27756   2.28150   2.33568   2.35724
 Alpha virt. eigenvalues --    2.41260   2.48908   2.55110   2.59537   2.61996
 Alpha virt. eigenvalues --    2.67063   2.70668   2.73199   2.73669   2.77246
 Alpha virt. eigenvalues --    2.80228   2.81819   2.83537   2.88469   2.92358
 Alpha virt. eigenvalues --    2.94146   2.94344   2.95041   3.06078   3.08171
 Alpha virt. eigenvalues --    3.10193   3.10320   3.12183   3.20256   3.23368
 Alpha virt. eigenvalues --    3.31547   3.36246   3.39130   3.46212   3.52600
 Alpha virt. eigenvalues --    3.56033   3.60030   3.63436   3.78891   3.81202
 Alpha virt. eigenvalues --    3.95022   4.00392   4.01922   4.03416   4.07668
 Alpha virt. eigenvalues --    4.20612   4.21895   4.40401   4.41377   4.53168
 Alpha virt. eigenvalues --    4.60136   4.75390   4.77298   4.83477   5.26574
 Alpha virt. eigenvalues --    5.33952   5.45875   5.47087   5.57011   5.74191
 Alpha virt. eigenvalues --    6.12057   6.56987   6.58315   6.68899   6.89026
 Alpha virt. eigenvalues --    7.10404   7.13530   7.18859   7.21266   7.24339
 Alpha virt. eigenvalues --    7.39373   7.50340   7.60627   7.69708   7.69948
 Alpha virt. eigenvalues --    8.78670   8.80128   8.84993   8.86881   9.00267
 Alpha virt. eigenvalues --    9.02632   9.11750   9.13073   9.19408   9.25896
 Alpha virt. eigenvalues --    9.26921   9.30285   9.33101   9.33359   9.33834
 Alpha virt. eigenvalues --    9.35118   9.37136   9.56115   9.61410   9.62740
 Alpha virt. eigenvalues --    9.66530   9.75627   9.87641   9.95846  13.36925
 Alpha virt. eigenvalues --   15.06060  16.18678  17.35773
          Condensed to atoms (all electrons):
               1          2          3          4
     1  O    7.947078   0.499938  -0.078350  -0.081053
     2  C    0.499938   4.519603   0.184124   0.186238
     3  F   -0.078350   0.184124   9.112653  -0.048510
     4  F   -0.081053   0.186238  -0.048510   9.095890
 Mulliken charges:
               1
     1  O   -0.287614
     2  C    0.610096
     3  F   -0.169917
     4  F   -0.152565
 Sum of Mulliken charges =  -0.00000
 Mulliken charges with hydrogens summed into heavy atoms:
               1
     1  O   -0.287614
     2  C    0.610096
     3  F   -0.169917
     4  F   -0.152565
 Electronic spatial extent (au):  <R**2>=            239.4195
 Charge=             -0.0000 electrons
 Dipole moment (field-independent basis, Debye):
    X=             -0.0000    Y=              0.0971    Z=             -1.0333  Tot=              1.0378
 Quadrupole moment (field-independent basis, Debye-Ang):
   XX=            -18.9051   YY=            -21.3165   ZZ=            -21.9186
   XY=             -0.0000   XZ=             -0.0000   YZ=             -0.1114
 Traceless Quadrupole moment (field-independent basis, Debye-Ang):
   XX=              1.8083   YY=             -0.6031   ZZ=             -1.2052
   XY=             -0.0000   XZ=             -0.0000   YZ=             -0.1114
 Octapole moment (field-independent basis, Debye-Ang**2):
  XXX=             -0.0000  YYY=              0.0114  ZZZ=             34.2715  XYY=             -0.0000
  XXY=              0.0016  XXZ=             10.3472  XZZ=             -0.0000  YZZ=              0.0958
  YYZ=             12.0137  XYZ=              0.0000
 Hexadecapole moment (field-independent basis, Debye-Ang**3):
 XXXX=            -13.4828 YYYY=            -79.9332 ZZZZ=           -132.3940 XXXY=              0.0000
 XXXZ=              0.0000 YYYX=              0.0000 YYYZ=             -0.1185 ZZZX=              0.0000
 ZZZY=             -0.2381 XXYY=            -15.6417 XXZZ=            -23.5678 YYZZ=            -36.1546
 XXYZ=             -0.0389 YYXZ=             -0.0000 ZZXY=             -0.0000
 N-N= 1.199414869193D+02 E-N=-9.819263709636D+02  KE= 3.123818261186D+02
 There are a total of       93060 grid points.
 ElSum from          density=       32.0000004905
 ElSum from atomic densities=       32.0000001479

 Hirshfeld populations at iteration   1 (CX, CA, CB, DipXYZ):
               1          2          3          4          5          6
     1  O    0.000004   4.109097   4.109097   0.000000  -0.000991  -0.052879
     2  C    0.000000   2.819363   2.819363   0.000000   0.005002  -0.156248
     3  F    0.000001   4.538820   4.538820   0.000000   0.039065   0.039723
     4  F    0.000001   4.532720   4.532720  -0.000000  -0.036116   0.037424
       Tot   0.000006  16.000000  16.000000   0.000000   0.006959  -0.131979

 Dip from Atomic Chgs              0.000000   0.031240  -0.274551
         Total Dipole              0.000000   0.038199  -0.406530

 Hirshfeld charges, spin densities, dipoles, and CM5 charges using IRadAn=      5:
              Q-H        S-H        Dx         Dy         Dz        Q-CM5   
     1  O   -0.218195   0.000000   0.000000  -0.000991  -0.052879  -0.261414
     2  C    0.361273   0.000000   0.000000   0.005002  -0.156248   0.441749
     3  F   -0.077640   0.000000   0.000000   0.039065   0.039723  -0.095865
     4  F   -0.065439   0.000000  -0.000000  -0.036116   0.037424  -0.084471
       Tot  -0.000000   0.000000   0.000000   0.006959  -0.131979  -0.000000
 Hirshfeld charges with hydrogens summed into heavy atoms:
              Q-H       Q-CM5   
     1  O   -0.218195  -0.261414
     2  C    0.361273   0.441749
     3  F   -0.077640  -0.095865
     4  F   -0.065439  -0.084471
 
 EQQ= 0.000000000000E+00 EQD= 0.000000000000E+00 EDD=-0.877600686087E-04
 EQQ+QD+DD=-0.877600686087E-04
 
 Breneman (CHELPG) radii used.
 Generate Potential Derived Charges using the Breneman model, NDens= 1.
 Grid spacing= 0.300 Box extension= 2.800
 NStep X,Y,Z=   20     27     27   Total possible points=       14580
 Number of Points to Fit=    4710

 **********************************************************************

            Electrostatic Properties Using The CC Density.

 **********************************************************************

       Atomic Center    1 is at   0.000000  0.000000  0.679927
       Atomic Center    2 is at   0.000000  0.010000 -0.492216
       Atomic Center    3 is at   0.000000 -1.058878 -1.264305
       Atomic Center    4 is at   0.000000  1.058878 -1.264305
    4710 points will be used for fitting atomic charges
 Fitting point charges to electrostatic potential
 The dipole moment will be constrained to the correct value
 Charges from ESP fit, RMS=   0.00229 RRMS=   0.17718:
 ESP charges:
               1
     1  O   -0.466828
     2  C    0.896911
     3  F   -0.220352
     4  F   -0.209732
 Sum of ESP charges =   0.00000
 ESP charges with hydrogens summed into heavy atoms:
               1
     1  O   -0.466828
     2  C    0.896911
     3  F   -0.220352
     4  F   -0.209732
 Charge=   0.00000 Dipole=     0.0000     0.0971    -1.0333 Tot=     1.0378
 -----------------------------------------------------------------

              Electrostatic Properties (Atomic Units)

 -----------------------------------------------------------------
    Center     Electric         -------- Electric Field --------
               Potential          X             Y             Z
 -----------------------------------------------------------------
    1 Atom    -22.290280
    2 Atom    -14.477465
    3 Atom    -26.495597
    4 Atom    -26.488440
 -----------------------------------------------------------------
 ******************************Gaussian NBO Version 3.1******************************
             N A T U R A L   A T O M I C   O R B I T A L   A N D
          N A T U R A L   B O N D   O R B I T A L   A N A L Y S I S
 ******************************Gaussian NBO Version 3.1******************************
       /RESON  / : Allow strongly delocalized NBO set

 Analyzing the QCI/CC density

 Job title: f2co-wavefunction                                               

 Storage needed:    102424 in NPA (2147483536 available)
 GSVD:  LWork=          64 too small for GESVD, short by       66368 words or       66368 for optimal perf.


 NATURAL POPULATIONS:  Natural atomic orbital occupancies 
                                                          
   NAO  Atom  No  lang   Type(AO)    Occupancy
 --------------------------------------------
     1    O    1  S      Cor( 1S)     1.99949
     2    O    1  S      Val( 2S)     1.71243
     3    O    1  S      Ryd( 3S)     0.00637
     4    O    1  S      Ryd( 4S)     0.00037
     5    O    1  S      Ryd( 5S)     0.00019
     6    O    1  px     Val( 2p)     1.42060
     7    O    1  px     Ryd( 3p)     0.00798
     8    O    1  px     Ryd( 4p)     0.00054
     9    O    1  px     Ryd( 5p)     0.00009
    10    O    1  py     Val( 2p)     1.77354
    11    O    1  py     Ryd( 3p)     0.01130
    12    O    1  py     Ryd( 4p)     0.00066
    13    O    1  py     Ryd( 5p)     0.00010
    14    O    1  pz     Val( 2p)     1.51359
    15    O    1  pz     Ryd( 3p)     0.00683
    16    O    1  pz     Ryd( 4p)     0.00042
    17    O    1  pz     Ryd( 5p)     0.00006
    18    O    1  dxy    Ryd( 3d)     0.00566
    19    O    1  dxy    Ryd( 4d)     0.00045
    20    O    1  dxy    Ryd( 5d)     0.00006
    21    O    1  dxz    Ryd( 3d)     0.01179
    22    O    1  dxz    Ryd( 4d)     0.00038
    23    O    1  dxz    Ryd( 5d)     0.00011
    24    O    1  dyz    Ryd( 3d)     0.01118
    25    O    1  dyz    Ryd( 4d)     0.00043
    26    O    1  dyz    Ryd( 5d)     0.00008
    27    O    1  dx2y2  Ryd( 3d)     0.00564
    28    O    1  dx2y2  Ryd( 4d)     0.00046
    29    O    1  dx2y2  Ryd( 5d)     0.00008
    30    O    1  dz2    Ryd( 3d)     0.01971
    31    O    1  dz2    Ryd( 4d)     0.00047
    32    O    1  dz2    Ryd( 5d)     0.00014
    33    O    1  f(0)   Ryd( 4f)     0.00092
    34    O    1  f(0)   Ryd( 5f)     0.00009
    35    O    1  f(C1)  Ryd( 4f)     0.00052
    36    O    1  f(C1)  Ryd( 5f)     0.00010
    37    O    1  f(S1)  Ryd( 4f)     0.00057
    38    O    1  f(S1)  Ryd( 5f)     0.00010
    39    O    1  f(C2)  Ryd( 4f)     0.00049
    40    O    1  f(C2)  Ryd( 5f)     0.00008
    41    O    1  f(S2)  Ryd( 4f)     0.00049
    42    O    1  f(S2)  Ryd( 5f)     0.00008
    43    O    1  f(C3)  Ryd( 4f)     0.00047
    44    O    1  f(C3)  Ryd( 5f)     0.00006
    45    O    1  f(S3)  Ryd( 4f)     0.00047
    46    O    1  f(S3)  Ryd( 5f)     0.00006

    47    C    2  S      Cor( 1S)     1.99932
    48    C    2  S      Val( 2S)     0.68854
    49    C    2  S      Ryd( 3S)     0.00539
    50    C    2  S      Ryd( 4S)     0.00011
    51    C    2  S      Ryd( 5S)     0.00009
    52    C    2  px     Val( 2p)     0.72825
    53    C    2  px     Ryd( 3p)     0.00470
    54    C    2  px     Ryd( 4p)     0.00049
    55    C    2  px     Ryd( 5p)     0.00013
    56    C    2  py     Val( 2p)     0.65039
    57    C    2  py     Ryd( 3p)     0.01336
    58    C    2  py     Ryd( 4p)     0.00030
    59    C    2  py     Ryd( 5p)     0.00021
    60    C    2  pz     Val( 2p)     0.71027
    61    C    2  pz     Ryd( 3p)     0.02301
    62    C    2  pz     Ryd( 4p)     0.00028
    63    C    2  pz     Ryd( 5p)     0.00016
    64    C    2  dxy    Ryd( 3d)     0.00621
    65    C    2  dxy    Ryd( 4d)     0.00021
    66    C    2  dxy    Ryd( 5d)     0.00017
    67    C    2  dxz    Ryd( 3d)     0.00842
    68    C    2  dxz    Ryd( 4d)     0.00026
    69    C    2  dxz    Ryd( 5d)     0.00019
    70    C    2  dyz    Ryd( 3d)     0.00994
    71    C    2  dyz    Ryd( 5d)     0.00020
    72    C    2  dyz    Ryd( 4d)     0.00025
    73    C    2  dx2y2  Ryd( 3d)     0.00400
    74    C    2  dx2y2  Ryd( 4d)     0.00039
    75    C    2  dx2y2  Ryd( 5d)     0.00012
    76    C    2  dz2    Ryd( 3d)     0.00483
    77    C    2  dz2    Ryd( 4d)     0.00030
    78    C    2  dz2    Ryd( 5d)     0.00016
    79    C    2  f(0)   Ryd( 4f)     0.00040
    80    C    2  f(0)   Ryd( 5f)     0.00016
    81    C    2  f(C1)  Ryd( 4f)     0.00034
    82    C    2  f(C1)  Ryd( 5f)     0.00020
    83    C    2  f(S1)  Ryd( 4f)     0.00050
    84    C    2  f(S1)  Ryd( 5f)     0.00015
    85    C    2  f(C2)  Ryd( 4f)     0.00042
    86    C    2  f(C2)  Ryd( 5f)     0.00013
    87    C    2  f(S2)  Ryd( 4f)     0.00051
    88    C    2  f(S2)  Ryd( 5f)     0.00013
    89    C    2  f(C3)  Ryd( 4f)     0.00036
    90    C    2  f(C3)  Ryd( 5f)     0.00023
    91    C    2  f(S3)  Ryd( 4f)     0.00032
    92    C    2  f(S3)  Ryd( 5f)     0.00016

    93    F    3  S      Cor( 1S)     1.99981
    94    F    3  S      Val( 2S)     1.84942
    95    F    3  S      Ryd( 3S)     0.00622
    96    F    3  S      Ryd( 4S)     0.00025
    97    F    3  S      Ryd( 5S)     0.00018
    98    F    3  px     Val( 2p)     1.88107
    99    F    3  px     Ryd( 3p)     0.01193
   100    F    3  px     Ryd( 4p)     0.00067
   101    F    3  px     Ryd( 5p)     0.00011
   102    F    3  py     Val( 2p)     1.69106
   103    F    3  py     Ryd( 3p)     0.00851
   104    F    3  py     Ryd( 4p)     0.00058
   105    F    3  py     Ryd( 5p)     0.00009
   106    F    3  pz     Val( 2p)     1.81221
   107    F    3  pz     Ryd( 3p)     0.01007
   108    F    3  pz     Ryd( 4p)     0.00063
   109    F    3  pz     Ryd( 5p)     0.00010
   110    F    3  dxy    Ryd( 3d)     0.00692
   111    F    3  dxy    Ryd( 4d)     0.00052
   112    F    3  dxy    Ryd( 5d)     0.00008
   113    F    3  dxz    Ryd( 3d)     0.00572
   114    F    3  dxz    Ryd( 4d)     0.00051
   115    F    3  dxz    Ryd( 5d)     0.00007
   116    F    3  dyz    Ryd( 3d)     0.00907
   117    F    3  dyz    Ryd( 4d)     0.00051
   118    F    3  dyz    Ryd( 5d)     0.00009
   119    F    3  dx2y2  Ryd( 3d)     0.00715
   120    F    3  dx2y2  Ryd( 4d)     0.00055
   121    F    3  dx2y2  Ryd( 5d)     0.00012
   122    F    3  dz2    Ryd( 3d)     0.00608
   123    F    3  dz2    Ryd( 4d)     0.00048
   124    F    3  dz2    Ryd( 5d)     0.00008
   125    F    3  f(0)   Ryd( 4f)     0.00051
   126    F    3  f(0)   Ryd( 5f)     0.00009
   127    F    3  f(C1)  Ryd( 4f)     0.00044
   128    F    3  f(C1)  Ryd( 5f)     0.00007
   129    F    3  f(S1)  Ryd( 4f)     0.00056
   130    F    3  f(S1)  Ryd( 5f)     0.00010
   131    F    3  f(C2)  Ryd( 4f)     0.00062
   132    F    3  f(C2)  Ryd( 5f)     0.00010
   133    F    3  f(S2)  Ryd( 4f)     0.00052
   134    F    3  f(S2)  Ryd( 5f)     0.00009
   135    F    3  f(C3)  Ryd( 4f)     0.00049
   136    F    3  f(C3)  Ryd( 5f)     0.00008
   137    F    3  f(S3)  Ryd( 4f)     0.00051
   138    F    3  f(S3)  Ryd( 5f)     0.00009

   139    F    4  S      Cor( 1S)     1.99980
   140    F    4  S      Val( 2S)     1.84265
   141    F    4  S      Ryd( 3S)     0.00613
   142    F    4  S      Ryd( 4S)     0.00026
   143    F    4  S      Ryd( 5S)     0.00019
   144    F    4  px     Val( 2p)     1.87664
   145    F    4  px     Ryd( 3p)     0.01171
   146    F    4  px     Ryd( 4p)     0.00066
   147    F    4  px     Ryd( 5p)     0.00010
   148    F    4  py     Val( 2p)     1.69621
   149    F    4  py     Ryd( 3p)     0.00842
   150    F    4  py     Ryd( 4p)     0.00057
   151    F    4  py     Ryd( 5p)     0.00009
   152    F    4  pz     Val( 2p)     1.80770
   153    F    4  pz     Ryd( 3p)     0.00983
   154    F    4  pz     Ryd( 4p)     0.00062
   155    F    4  pz     Ryd( 5p)     0.00010
   156    F    4  dxy    Ryd( 3d)     0.00698
   157    F    4  dxy    Ryd( 4d)     0.00051
   158    F    4  dxy    Ryd( 5d)     0.00008
   159    F    4  dxz    Ryd( 3d)     0.00580
   160    F    4  dxz    Ryd( 4d)     0.00051
   161    F    4  dxz    Ryd( 5d)     0.00007
   162    F    4  dyz    Ryd( 3d)     0.00939
   163    F    4  dyz    Ryd( 4d)     0.00050
   164    F    4  dyz    Ryd( 5d)     0.00009
   165    F    4  dx2y2  Ryd( 3d)     0.00725
   166    F    4  dx2y2  Ryd( 4d)     0.00054
   167    F    4  dx2y2  Ryd( 5d)     0.00012
   168    F    4  dz2    Ryd( 3d)     0.00619
   169    F    4  dz2    Ryd( 4d)     0.00047
   170    F    4  dz2    Ryd( 5d)     0.00008
   171    F    4  f(0)   Ryd( 4f)     0.00051
   172    F    4  f(0)   Ryd( 5f)     0.00008
   173    F    4  f(C1)  Ryd( 4f)     0.00044
   174    F    4  f(C1)  Ryd( 5f)     0.00007
   175    F    4  f(S1)  Ryd( 4f)     0.00057
   176    F    4  f(S1)  Ryd( 5f)     0.00010
   177    F    4  f(C2)  Ryd( 4f)     0.00063
   178    F    4  f(C2)  Ryd( 5f)     0.00010
   179    F    4  f(S2)  Ryd( 4f)     0.00052
   180    F    4  f(S2)  Ryd( 5f)     0.00009
   181    F    4  f(C3)  Ryd( 4f)     0.00049
   182    F    4  f(C3)  Ryd( 5f)     0.00008
   183    F    4  f(S3)  Ryd( 4f)     0.00051
   184    F    4  f(S3)  Ryd( 5f)     0.00009


 Summary of Natural Population Analysis:                  
                                                          
                                       Natural Population 
                Natural  -----------------------------------------------
    Atom  No    Charge         Core      Valence    Rydberg      Total
 -----------------------------------------------------------------------
      O    1   -0.51571      1.99949     6.42016    0.09606     8.51571
      C    2    1.13536      1.99932     2.77745    0.08787     4.86464
      F    3   -0.31511      1.99981     7.23376    0.08154     9.31511
      F    4   -0.30454      1.99980     7.22320    0.08154     9.30454
 =======================================================================
   * Total *    0.00000      7.99841    23.65457    0.34702    32.00000

                                 Natural Population      
 --------------------------------------------------------
   Core                       7.99841 ( 99.9801% of   8)
   Valence                   23.65457 ( 98.5607% of  24)
   Natural Minimal Basis     31.65298 ( 98.9156% of  32)
   Natural Rydberg Basis      0.34702 (  1.0844% of  32)
 --------------------------------------------------------

    Atom  No          Natural Electron Configuration
 ----------------------------------------------------------------------------
      O    1      [core]2S( 1.71)2p( 4.71)3S( 0.01)3p( 0.03)3d( 0.05)
      C    2      [core]2S( 0.69)2p( 2.09)3S( 0.01)3p( 0.04)3d( 0.03)
      F    3      [core]2S( 1.85)2p( 5.38)3S( 0.01)3p( 0.03)3d( 0.03)
      F    4      [core]2S( 1.84)2p( 5.38)3S( 0.01)3p( 0.03)3d( 0.04)


 NBO analysis skipped by request.
 Unable to Open any file for archive entry.
 1\1\GINC-TRAPISTA\SP\RQCISD-FC\Aug-CC-pVTZ\C1F2O1\WAGNER\03-Sep-2022\0
 \\# qcisd/aug-cc-pvtz nosymm density=current pop=(chelpg,hirshfeld,npa
 ,dipole)\\f2co-wavefunction\\0,1\O,0,0.,0.,0.679927\C,0,0.,0.01,-0.492
 216\F,0,0.,-1.058878,-1.264305\F,0,0.,1.058878,-1.264305\\Version=EM64
 L-G16RevC.01\HF=-311.741129\MP2=-312.6370439\MP3=-312.6245385\MP4D=-31
 2.6401397\MP4DQ=-312.6240816\MP4SDQ=-312.6356868\QCISD=-312.6351896\RM
 SD=3.605e-09\Dipole=0.,0.0381992,-0.4065303\Quadrupole=1.3444394,-0.44
 83769,-0.8960625,0.,0.,-0.0828424\PG=CS [SG(C1F2O1)]\\@
 The archive entry for this job was punched.


 Happiness is a conscious choice, not an automatic response.
 -- Mildred Barthel
 Job cpu time:       0 days  5 hours 54 minutes  3.0 seconds.
 Elapsed time:       0 days  0 hours 22 minutes 24.1 seconds.
 File lengths (MBytes):  RWF=  21297 Int=      0 D2E=      0 Chk=      4 Scr=      1
 Normal termination of Gaussian 16 at Sat Sep  3 02:33:17 2022.
