 Entering Gaussian System, Link 0=/home/wagner/chemistry/gaussian/g16/g16
 Input=GAUSSIAN.com
 Output=GAUSSIAN.log
 Initial command:
 /home/wagner/chemistry/gaussian/g16/l1.exe "/home/wagner/chemistry/gaussian/work/Gau-11790.inp" -scrdir="/home/wagner/chemistry/gaussian/work/"
 Entering Link 1 = /home/wagner/chemistry/gaussian/g16/l1.exe PID=     11792.
  
 Copyright (c) 1988-2019, Gaussian, Inc.  All Rights Reserved.
  
 This is part of the Gaussian(R) 16 program.  It is based on
 the Gaussian(R) 09 system (copyright 2009, Gaussian, Inc.),
 the Gaussian(R) 03 system (copyright 2003, Gaussian, Inc.),
 the Gaussian(R) 98 system (copyright 1998, Gaussian, Inc.),
 the Gaussian(R) 94 system (copyright 1995, Gaussian, Inc.),
 the Gaussian 92(TM) system (copyright 1992, Gaussian, Inc.),
 the Gaussian 90(TM) system (copyright 1990, Gaussian, Inc.),
 the Gaussian 88(TM) system (copyright 1988, Gaussian, Inc.),
 the Gaussian 86(TM) system (copyright 1986, Carnegie Mellon
 University), and the Gaussian 82(TM) system (copyright 1983,
 Carnegie Mellon University). Gaussian is a federally registered
 trademark of Gaussian, Inc.
  
 This software contains proprietary and confidential information,
 including trade secrets, belonging to Gaussian, Inc.
  
 This software is provided under written license and may be
 used, copied, transmitted, or stored only in accord with that
 written license.
  
 The following legend is applicable only to US Government
 contracts under FAR:
  
                    RESTRICTED RIGHTS LEGEND
  
 Use, reproduction and disclosure by the US Government is
 subject to restrictions as set forth in subparagraphs (a)
 and (c) of the Commercial Computer Software - Restricted
 Rights clause in FAR 52.227-19.
  
 Gaussian, Inc.
 340 Quinnipiac St., Bldg. 40, Wallingford CT 06492
  
  
 ---------------------------------------------------------------
 Warning -- This program may not be used in any manner that
 competes with the business of Gaussian, Inc. or will provide
 assistance to any competitor of Gaussian, Inc.  The licensee
 of this program is prohibited from giving any competitor of
 Gaussian, Inc. access to this program.  By using this program,
 the user acknowledges that Gaussian, Inc. is engaged in the
 business of creating and licensing software in the field of
 computational chemistry and represents and warrants to the
 licensee that it is not a competitor of Gaussian, Inc. and that
 it will not use this program in any manner prohibited above.
 ---------------------------------------------------------------
  

 Cite this work as:
 Gaussian 16, Revision C.01,
 M. J. Frisch, G. W. Trucks, H. B. Schlegel, G. E. Scuseria, 
 M. A. Robb, J. R. Cheeseman, G. Scalmani, V. Barone, 
 G. A. Petersson, H. Nakatsuji, X. Li, M. Caricato, A. V. Marenich, 
 J. Bloino, B. G. Janesko, R. Gomperts, B. Mennucci, H. P. Hratchian, 
 J. V. Ortiz, A. F. Izmaylov, J. L. Sonnenberg, D. Williams-Young, 
 F. Ding, F. Lipparini, F. Egidi, J. Goings, B. Peng, A. Petrone, 
 T. Henderson, D. Ranasinghe, V. G. Zakrzewski, J. Gao, N. Rega, 
 G. Zheng, W. Liang, M. Hada, M. Ehara, K. Toyota, R. Fukuda, 
 J. Hasegawa, M. Ishida, T. Nakajima, Y. Honda, O. Kitao, H. Nakai, 
 T. Vreven, K. Throssell, J. A. Montgomery, Jr., J. E. Peralta, 
 F. Ogliaro, M. J. Bearpark, J. J. Heyd, E. N. Brothers, K. N. Kudin, 
 V. N. Staroverov, T. A. Keith, R. Kobayashi, J. Normand, 
 K. Raghavachari, A. P. Rendell, J. C. Burant, S. S. Iyengar, 
 J. Tomasi, M. Cossi, J. M. Millam, M. Klene, C. Adamo, R. Cammi, 
 J. W. Ochterski, R. L. Martin, K. Morokuma, O. Farkas, 
 J. B. Foresman, and D. J. Fox, Gaussian, Inc., Wallingford CT, 2019.
 
 ******************************************
 Gaussian 16:  EM64L-G16RevC.01  3-Jul-2019
                 3-Sep-2022 
 ******************************************
 %nproc=16
 Will use up to   16 processors via shared memory.
 %mem=16GB
 ----------------------------------------------------------------------
 # qcisd/aug-cc-pvtz nosymm density=current pop=(chelpg,hirshfeld,npa,d
 ipole)
 ----------------------------------------------------------------------
 1/30=1,38=1,172=1/1;
 2/12=2,15=1,17=6,18=5,40=1/2;
 3/5=16,6=1,7=10,11=9,25=1,30=1,71=1/1,2,3;
 4//1;
 5/5=2,38=5/2;
 8/6=4,9=120000,10=1/1,4;
 9/5=8,15=1/13;
 11/28=-7,31=1,32=3,42=3/11;
 10/5=6,13=10,31=1/2;
 6/7=2,8=2,9=2,10=2,15=24,20=3,22=-1,40=-1,79=1/1,2,7;
 99/5=1,9=1/99;
 -----------------
 f2co-wavefunction
 -----------------
 Symbolic Z-matrix:
 Charge =  0 Multiplicity = 1
 O                     0.        0.        0.67993 
 C                     0.        0.       -0.49222 
 F                     0.       -1.05888  -1.26431 
 F                     0.        1.05888  -1.25431 
 
                          Input orientation:                          
 ---------------------------------------------------------------------
 Center     Atomic      Atomic             Coordinates (Angstroms)
 Number     Number       Type             X           Y           Z
 ---------------------------------------------------------------------
      1          8           0        0.000000    0.000000    0.679927
      2          6           0        0.000000    0.000000   -0.492216
      3          9           0        0.000000   -1.058878   -1.264305
      4          9           0        0.000000    1.058878   -1.254305
 ---------------------------------------------------------------------
                    Distance matrix (angstroms):
                    1          2          3          4
     1  O    0.000000
     2  C    1.172143   0.000000
     3  F    2.213879   1.310475   0.000000
     4  F    2.205102   1.304608   2.117780   0.000000
 Symmetry turned off by external request.
 Stoichiometry    CF2O
 Framework group  CS[SG(CF2O)]
 Deg. of freedom     5
 Full point group                 CS      NOp   2
 Rotational constants (GHZ):          11.9072098          11.7924426           5.9247742
 Standard basis: Aug-CC-pVTZ (5D, 7F)
   184 basis functions,   288 primitive gaussians,   220 cartesian basis functions
    16 alpha electrons       16 beta electrons
       nuclear repulsion energy       120.1073888817 Hartrees.
 NAtoms=    4 NActive=    4 NUniq=    4 SFac= 1.00D+00 NAtFMM=   60 NAOKFM=F Big=F
 Integral buffers will be    131072 words long.
 Raffenetti 1 integral format.
 Two-electron integral symmetry is turned off.
 One-electron integrals computed using PRISM.
 NBasis=   184 RedAO= T EigKep=  3.49D-04  NBF=   184
 NBsUse=   184 1.00D-06 EigRej= -1.00D+00 NBFU=   184
 ExpMin= 3.57D-02 ExpMax= 1.95D+04 ExpMxC= 6.65D+02 IAcc=3 IRadAn=         5 AccDes= 0.00D+00
 Harris functional with IExCor=  205 and IRadAn=       5 diagonalized for initial guess.
 HarFok:  IExCor=  205 AccDes= 0.00D+00 IRadAn=         5 IDoV= 1 UseB2=F ITyADJ=14
 ICtDFT=  3500011 ScaDFX=  1.000000  1.000000  1.000000  1.000000
 FoFCou: FMM=F IPFlag=           0 FMFlag=      100000 FMFlg1=           0
         NFxFlg=           0 DoJE=T BraDBF=F KetDBF=T FulRan=T
         wScrn=  0.000000 ICntrl=       500 IOpCl=  0 I1Cent=   200000004 NGrid=           0
         NMat0=    1 NMatS0=      1 NMatT0=    0 NMatD0=    1 NMtDS0=    0 NMtDT0=    0
 Symmetry not used in FoFCou.
 Keep R1 ints in memory in canonical form, NReq=152781425.
 Requested convergence on RMS density matrix=1.00D-08 within 128 cycles.
 Requested convergence on MAX density matrix=1.00D-06.
 Requested convergence on             energy=1.00D-06.
 No special actions if energy rises.
 SCF Done:  E(RHF) =  -311.741573726     A.U. after   12 cycles
            NFock= 12  Conv=0.32D-08     -V/T= 2.0014
 ExpMin= 3.57D-02 ExpMax= 1.95D+04 ExpMxC= 6.65D+02 IAcc=3 IRadAn=         5 AccDes= 0.00D+00
 HarFok:  IExCor=  205 AccDes= 0.00D+00 IRadAn=         5 IDoV=-2 UseB2=F ITyADJ=14
 ICtDFT= 12500011 ScaDFX=  1.000000  1.000000  1.000000  1.000000
 Range of M.O.s used for correlation:     5   184
 NBasis=   184 NAE=    16 NBE=    16 NFC=     4 NFV=     0
 NROrb=    180 NOA=    12 NOB=    12 NVA=   168 NVB=   168

 **** Warning!!: The largest alpha MO coefficient is  0.15562826D+02

 Semi-Direct transformation.
 ModeAB=           2 MOrb=            12 LenV=    2146514573
 LASXX=     33405819 LTotXX=    33405819 LenRXX=    33405819
 LTotAB=    33954012 MaxLAS=    52509600 LenRXY=    52509600
 NonZer=    66811638 LenScr=   100987392 LnRSAI=           0
 LnScr1=           0 LExtra=           0 Total=    186902811
 MaxDsk=          -1 SrtSym=           F ITran=            4
 JobTyp=0 Pass  1:  I=   1 to  12.
 (rs|ai) integrals will be sorted in core.
 Spin components of T(2) and E(2):
     alpha-alpha T2 =       0.2652459044D-01 E2=     -0.1190550867D+00
     alpha-beta  T2 =       0.1368604526D+00 E2=     -0.6573409232D+00
     beta-beta   T2 =       0.2652459044D-01 E2=     -0.1190550867D+00
 ANorm=    0.1090829791D+01
 E2 =    -0.8954510966D+00 EUMP2 =    -0.31263702482307D+03
 Keep R2 and R3 ints in memory in canonical form, NReq=297638937.
 CIDS: In Core Option IDoMem=           1.
 Iterations=  50 Convergence= 0.100D-07
 Produce multiple copies of IABC intergrals
 Iteration Nr.   1
 **********************
 DD1Dir will call FoFMem   1 times, MxPair=       156
 NAB=    78 NAA=     0 NBB=     0.
 MP4(R+Q)=  0.16021981D-01
 E3=        0.12341190D-01        EUMP3=      -0.31262468363D+03
 E4(DQ)=    0.48518476D-03        UMP4(DQ)=   -0.31262419845D+03
 E4(SDQ)=  -0.11056917D-01        UMP4(SDQ)=  -0.31263574055D+03
 DE(Corr)= -0.86708793     E(Corr)=     -312.60866165    
 NORM(A)=   0.10857421D+01
 Iteration Nr.   2
 **********************
 DD1Dir will call FoFMem   1 times, MxPair=       156
 NAB=    78 NAA=     0 NBB=     0.
 DE(Corr)= -0.89283675     E(CORR)=     -312.63441048     Delta=-2.57D-02
 NORM(A)=   0.10930092D+01
 Iteration Nr.   3
 **********************
 DD1Dir will call FoFMem   1 times, MxPair=       156
 NAB=    78 NAA=     0 NBB=     0.
 DE(Corr)= -0.89110292     E(CORR)=     -312.63267664     Delta= 1.73D-03
 NORM(A)=   0.10952233D+01
 Iteration Nr.   4
 **********************
 DD1Dir will call FoFMem   1 times, MxPair=       156
 NAB=    78 NAA=     0 NBB=     0.
 DE(Corr)= -0.89338993     E(CORR)=     -312.63496366     Delta=-2.29D-03
 NORM(A)=   0.10960225D+01
 Iteration Nr.   5
 **********************
 DD1Dir will call FoFMem   1 times, MxPair=       156
 NAB=    78 NAA=     0 NBB=     0.
 DE(Corr)= -0.89365316     E(CORR)=     -312.63522688     Delta=-2.63D-04
 NORM(A)=   0.10962027D+01
 Iteration Nr.   6
 **********************
 DD1Dir will call FoFMem   1 times, MxPair=       156
 NAB=    78 NAA=     0 NBB=     0.
 DE(Corr)= -0.89367927     E(CORR)=     -312.63525300     Delta=-2.61D-05
 NORM(A)=   0.10962157D+01
 Iteration Nr.   7
 **********************
 DD1Dir will call FoFMem   1 times, MxPair=       156
 NAB=    78 NAA=     0 NBB=     0.
 DE(Corr)= -0.89368084     E(CORR)=     -312.63525456     Delta=-1.57D-06
 NORM(A)=   0.10962156D+01
 Iteration Nr.   8
 **********************
 DD1Dir will call FoFMem   1 times, MxPair=       156
 NAB=    78 NAA=     0 NBB=     0.
 DE(Corr)= -0.89367983     E(CORR)=     -312.63525356     Delta= 1.01D-06
 NORM(A)=   0.10962160D+01
 Iteration Nr.   9
 **********************
 DD1Dir will call FoFMem   1 times, MxPair=       156
 NAB=    78 NAA=     0 NBB=     0.
 DE(Corr)= -0.89368022     E(CORR)=     -312.63525395     Delta=-3.88D-07
 NORM(A)=   0.10962161D+01
 Iteration Nr.  10
 **********************
 DD1Dir will call FoFMem   1 times, MxPair=       156
 NAB=    78 NAA=     0 NBB=     0.
 DE(Corr)= -0.89368013     E(CORR)=     -312.63525386     Delta= 9.05D-08
 NORM(A)=   0.10962162D+01
 Iteration Nr.  11
 **********************
 DD1Dir will call FoFMem   1 times, MxPair=       156
 NAB=    78 NAA=     0 NBB=     0.
 DE(Corr)= -0.89368058     E(CORR)=     -312.63525430     Delta=-4.49D-07
 NORM(A)=   0.10962165D+01
 Iteration Nr.  12
 **********************
 DD1Dir will call FoFMem   1 times, MxPair=       156
 NAB=    78 NAA=     0 NBB=     0.
 DE(Corr)= -0.89368061     E(CORR)=     -312.63525434     Delta=-3.27D-08
 NORM(A)=   0.10962167D+01
 Iteration Nr.  13
 **********************
 DD1Dir will call FoFMem   1 times, MxPair=       156
 NAB=    78 NAA=     0 NBB=     0.
 DE(Corr)= -0.89368070     E(CORR)=     -312.63525443     Delta=-9.09D-08
 NORM(A)=   0.10962168D+01
 Iteration Nr.  14
 **********************
 DD1Dir will call FoFMem   1 times, MxPair=       156
 NAB=    78 NAA=     0 NBB=     0.
 DE(Corr)= -0.89368072     E(CORR)=     -312.63525444     Delta=-1.52D-08
 NORM(A)=   0.10962168D+01
 Iteration Nr.  15
 **********************
 DD1Dir will call FoFMem   1 times, MxPair=       156
 NAB=    78 NAA=     0 NBB=     0.
 DE(Corr)= -0.89368072     E(CORR)=     -312.63525445     Delta=-8.10D-09
 NORM(A)=   0.10962168D+01
 Wavefunction amplitudes converged. E(Corr)=     -312.63525445    
 Largest amplitude= 5.72D-02

 Z-amplitude iterations

 Iteration Nr.   1
 **********************
 DD1Dir will call FoFMem   1 times, MxPair=       156
 NAB=    78 NAA=     0 NBB=     0.
 DE(Z)= -0.87442995     E(Z)=     -312.61600368     Delta= 1.93D-02
 NORM(A)=   0.10962536D+01
 Iteration Nr.   2
 **********************
 DD1Dir will call FoFMem   1 times, MxPair=       156
 NAB=    78 NAA=     0 NBB=     0.
 DE(Z)= -0.87443009     E(Z)=     -312.61600382     Delta=-1.43D-07
 NORM(A)=   0.10962373D+01
 Iteration Nr.   3
 **********************
 DD1Dir will call FoFMem   1 times, MxPair=       156
 NAB=    78 NAA=     0 NBB=     0.
 DE(Z)= -0.87443020     E(Z)=     -312.61600392     Delta=-1.01D-07
 NORM(A)=   0.10963044D+01
 Iteration Nr.   4
 **********************
 DD1Dir will call FoFMem   1 times, MxPair=       156
 NAB=    78 NAA=     0 NBB=     0.
 DE(Z)= -0.87443071     E(Z)=     -312.61600443     Delta=-5.10D-07
 NORM(A)=   0.10964793D+01
 Iteration Nr.   5
 **********************
 DD1Dir will call FoFMem   1 times, MxPair=       156
 NAB=    78 NAA=     0 NBB=     0.
 DE(Z)= -0.87443359     E(Z)=     -312.61600732     Delta=-2.88D-06
 NORM(A)=   0.10917942D+01
 Iteration Nr.   6
 **********************
 DD1Dir will call FoFMem   1 times, MxPair=       156
 NAB=    78 NAA=     0 NBB=     0.
 DE(Z)= -0.87437267     E(Z)=     -312.61594639     Delta= 6.09D-05
 NORM(A)=   0.10917944D+01
 Iteration Nr.   7
 **********************
 DD1Dir will call FoFMem   1 times, MxPair=       156
 NAB=    78 NAA=     0 NBB=     0.
 DE(Z)= -0.87437121     E(Z)=     -312.61594493     Delta= 1.46D-06
 NORM(A)=   0.10917942D+01
 Iteration Nr.   8
 **********************
 DD1Dir will call FoFMem   1 times, MxPair=       156
 NAB=    78 NAA=     0 NBB=     0.
 DE(Z)= -0.87437157     E(Z)=     -312.61594530     Delta=-3.62D-07
 NORM(A)=   0.10917943D+01
 Iteration Nr.   9
 **********************
 DD1Dir will call FoFMem   1 times, MxPair=       156
 NAB=    78 NAA=     0 NBB=     0.
 DE(Z)= -0.87437150     E(Z)=     -312.61594522     Delta= 7.32D-08
 NORM(A)=   0.10917944D+01
 Iteration Nr.  10
 **********************
 DD1Dir will call FoFMem   1 times, MxPair=       156
 NAB=    78 NAA=     0 NBB=     0.
 DE(Z)= -0.87437152     E(Z)=     -312.61594524     Delta=-1.95D-08
 NORM(A)=   0.10917944D+01
 Iteration Nr.  11
 **********************
 DD1Dir will call FoFMem   1 times, MxPair=       156
 NAB=    78 NAA=     0 NBB=     0.
 DE(Z)= -0.87437156     E(Z)=     -312.61594529     Delta=-4.43D-08
 NORM(A)=   0.10917944D+01
 Iteration Nr.  12
 **********************
 DD1Dir will call FoFMem   1 times, MxPair=       156
 NAB=    78 NAA=     0 NBB=     0.
 DE(Z)= -0.87437155     E(Z)=     -312.61594528     Delta= 6.62D-09
 NORM(A)=   0.10917945D+01
 Z-amplitudes converged.
 Discarding MO integrals.
          Differentiating once with respect to electric field.
                with respect to dipole field.
          Electric field/nuclear overlap derivatives assumed to be zero.
 Keep R1 ints in memory in canonical form, NReq=152784364.
          There are     1 degrees of freedom in the 1st order CPHF.  IDoFFX=0 NUNeed=     1.
 LinEq1:  Iter=  0 NonCon=     1 RMS=3.06D-03 Max=8.40D-02 NDo=     1
 AX will form     1 AO Fock derivatives at one time.
 LinEq1:  Iter=  1 NonCon=     1 RMS=7.51D-04 Max=1.10D-02 NDo=     1
 LinEq1:  Iter=  2 NonCon=     1 RMS=2.22D-04 Max=3.34D-03 NDo=     1
 LinEq1:  Iter=  3 NonCon=     1 RMS=9.77D-05 Max=1.55D-03 NDo=     1
 LinEq1:  Iter=  4 NonCon=     1 RMS=2.25D-05 Max=3.66D-04 NDo=     1
 LinEq1:  Iter=  5 NonCon=     1 RMS=1.07D-05 Max=2.86D-04 NDo=     1
 LinEq1:  Iter=  6 NonCon=     1 RMS=2.52D-06 Max=4.46D-05 NDo=     1
 LinEq1:  Iter=  7 NonCon=     1 RMS=5.12D-07 Max=1.01D-05 NDo=     1
 LinEq1:  Iter=  8 NonCon=     1 RMS=9.46D-08 Max=1.23D-06 NDo=     1
 LinEq1:  Iter=  9 NonCon=     1 RMS=1.99D-08 Max=2.59D-07 NDo=     1
 LinEq1:  Iter= 10 NonCon=     1 RMS=8.97D-09 Max=1.12D-07 NDo=     1
 LinEq1:  Iter= 11 NonCon=     1 RMS=1.43D-09 Max=1.85D-08 NDo=     1
 LinEq1:  Iter= 12 NonCon=     1 RMS=2.93D-10 Max=3.73D-09 NDo=     1
 LinEq1:  Iter= 13 NonCon=     0 RMS=4.51D-11 Max=4.14D-10 NDo=     1
 Linear equations converged to 1.000D-10 1.000D-09 after    13 iterations.
 End of Minotr F.D. properties file   721 does not exist.
 End of Minotr F.D. properties file   722 does not exist.
 End of Minotr F.D. properties file   788 does not exist.

 **********************************************************************

            Population analysis using the CC Density.

 **********************************************************************

 Alpha  occ. eigenvalues --  -26.39427 -26.39312 -20.61878 -11.53313  -1.76563
 Alpha  occ. eigenvalues --   -1.68841  -1.47735  -0.95953  -0.86782  -0.81960
 Alpha  occ. eigenvalues --   -0.80686  -0.72844  -0.70703  -0.70440  -0.57547
 Alpha  occ. eigenvalues --   -0.55737
 Alpha virt. eigenvalues --    0.05516   0.07191   0.07791   0.07909   0.15418
 Alpha virt. eigenvalues --    0.17106   0.17203   0.19425   0.19955   0.21548
 Alpha virt. eigenvalues --    0.24865   0.24889   0.26153   0.26401   0.28477
 Alpha virt. eigenvalues --    0.31181   0.34847   0.36139   0.38992   0.41604
 Alpha virt. eigenvalues --    0.44679   0.48784   0.49991   0.52371   0.53832
 Alpha virt. eigenvalues --    0.62891   0.66653   0.69293   0.72324   0.78704
 Alpha virt. eigenvalues --    0.81186   0.81842   0.84856   0.91230   0.93450
 Alpha virt. eigenvalues --    0.96446   0.97365   1.02924   1.04469   1.06895
 Alpha virt. eigenvalues --    1.07514   1.09997   1.10304   1.10851   1.14093
 Alpha virt. eigenvalues --    1.14450   1.18950   1.21910   1.24321   1.26883
 Alpha virt. eigenvalues --    1.28008   1.29891   1.36997   1.40996   1.50413
 Alpha virt. eigenvalues --    1.51813   1.52551   1.55956   1.65648   1.67667
 Alpha virt. eigenvalues --    1.68853   1.75924   1.78508   1.79777   2.04307
 Alpha virt. eigenvalues --    2.22690   2.27829   2.28334   2.33627   2.35830
 Alpha virt. eigenvalues --    2.41279   2.49037   2.54849   2.59766   2.62281
 Alpha virt. eigenvalues --    2.67240   2.70822   2.73223   2.73624   2.77403
 Alpha virt. eigenvalues --    2.80164   2.81769   2.83537   2.88446   2.92599
 Alpha virt. eigenvalues --    2.94310   2.94552   2.94809   3.06375   3.08145
 Alpha virt. eigenvalues --    3.10301   3.10450   3.11838   3.20272   3.23345
 Alpha virt. eigenvalues --    3.31662   3.36103   3.39456   3.46268   3.52689
 Alpha virt. eigenvalues --    3.56267   3.60269   3.63510   3.79089   3.81672
 Alpha virt. eigenvalues --    3.95610   4.00982   4.01930   4.03693   4.07895
 Alpha virt. eigenvalues --    4.20969   4.21635   4.40916   4.41538   4.53293
 Alpha virt. eigenvalues --    4.60693   4.75588   4.77706   4.84153   5.26798
 Alpha virt. eigenvalues --    5.33623   5.46336   5.47357   5.57295   5.74116
 Alpha virt. eigenvalues --    6.13171   6.57095   6.58442   6.69161   6.89097
 Alpha virt. eigenvalues --    7.10348   7.13597   7.19016   7.21416   7.25365
 Alpha virt. eigenvalues --    7.39518   7.50455   7.60843   7.69868   7.70030
 Alpha virt. eigenvalues --    8.78792   8.80197   8.84975   8.86805   9.00308
 Alpha virt. eigenvalues --    9.02660   9.11895   9.13222   9.19267   9.25871
 Alpha virt. eigenvalues --    9.26909   9.30352   9.32966   9.33318   9.33864
 Alpha virt. eigenvalues --    9.34964   9.37138   9.56266   9.61643   9.62804
 Alpha virt. eigenvalues --    9.67000   9.75746   9.87715   9.96199  13.39920
 Alpha virt. eigenvalues --   15.05325  16.21264  17.37803
          Condensed to atoms (all electrons):
               1          2          3          4
     1  O    7.950867   0.499776  -0.079480  -0.081225
     2  C    0.499776   4.520305   0.185274   0.186184
     3  F   -0.079480   0.185274   9.104071  -0.048081
     4  F   -0.081225   0.186184  -0.048081   9.099861
 Mulliken charges:
               1
     1  O   -0.289938
     2  C    0.608460
     3  F   -0.161784
     4  F   -0.156738
 Sum of Mulliken charges =  -0.00000
 Mulliken charges with hydrogens summed into heavy atoms:
               1
     1  O   -0.289938
     2  C    0.608460
     3  F   -0.161784
     4  F   -0.156738
 Electronic spatial extent (au):  <R**2>=            238.5703
 Charge=             -0.0000 electrons
 Dipole moment (field-independent basis, Debye):
    X=              0.0000    Y=              0.0172    Z=             -1.0639  Tot=              1.0640
 Quadrupole moment (field-independent basis, Debye-Ang):
   XX=            -18.8983   YY=            -21.2989   ZZ=            -21.8923
   XY=             -0.0000   XZ=              0.0000   YZ=             -0.0212
 Traceless Quadrupole moment (field-independent basis, Debye-Ang):
   XX=              1.7982   YY=             -0.6024   ZZ=             -1.1958
   XY=             -0.0000   XZ=              0.0000   YZ=             -0.0212
 Octapole moment (field-independent basis, Debye-Ang**2):
  XXX=              0.0000  YYY=              0.0487  ZZZ=             34.0451  XYY=              0.0000
  XXY=              0.0139  XXZ=             10.2815  XZZ=              0.0000  YZZ=              0.0432
  YYZ=             11.9328  XYZ=             -0.0000
 Hexadecapole moment (field-independent basis, Debye-Ang**3):
 XXXX=            -13.4745 YYYY=            -79.8432 ZZZZ=           -131.5855 XXXY=              0.0000
 XXXZ=              0.0000 YYYX=             -0.0000 YYYZ=             -0.1991 ZZZX=              0.0000
 ZZZY=             -0.2131 XXYY=            -15.6285 XXZZ=            -23.4335 YYZZ=            -36.0074
 XXYZ=             -0.0641 YYXZ=             -0.0000 ZZXY=              0.0000
 N-N= 1.201073888817D+02 E-N=-9.822631835137D+02  KE= 3.123963705523D+02
 There are a total of       93060 grid points.
 ElSum from          density=       32.0000004970
 ElSum from atomic densities=       32.0000001428

 Hirshfeld populations at iteration   1 (CX, CA, CB, DipXYZ):
               1          2          3          4          5          6
     1  O    0.000004   4.110106   4.110106   0.000000   0.000664  -0.053983
     2  C    0.000000   2.819703   2.819703   0.000000  -0.000276  -0.157700
     3  F    0.000001   4.535806   4.535806   0.000000   0.037767   0.038873
     4  F    0.000001   4.534385   4.534385   0.000000  -0.037095   0.038495
       Tot   0.000006  16.000000  16.000000   0.000000   0.001060  -0.134315

 Dip from Atomic Chgs              0.000000   0.005689  -0.284253
         Total Dipole              0.000000   0.006749  -0.418568

 Hirshfeld charges, spin densities, dipoles, and CM5 charges using IRadAn=      5:
              Q-H        S-H        Dx         Dy         Dz        Q-CM5   
     1  O   -0.220213   0.000000   0.000000   0.000664  -0.053983  -0.263470
     2  C    0.360595   0.000000   0.000000  -0.000276  -0.157700   0.441363
     3  F   -0.071613   0.000000   0.000000   0.037767   0.038873  -0.090238
     4  F   -0.068770   0.000000   0.000000  -0.037095   0.038495  -0.087656
       Tot  -0.000000   0.000000   0.000000   0.001060  -0.134315  -0.000000
 Hirshfeld charges with hydrogens summed into heavy atoms:
              Q-H       Q-CM5   
     1  O   -0.220213  -0.263470
     2  C    0.360595   0.441363
     3  F   -0.071613  -0.090238
     4  F   -0.068770  -0.087656
 
 EQQ= 0.000000000000E+00 EQD= 0.000000000000E+00 EDD=-0.813428492185E-04
 EQQ+QD+DD=-0.813428492185E-04
 
 Breneman (CHELPG) radii used.
 Generate Potential Derived Charges using the Breneman model, NDens= 1.
 Grid spacing= 0.300 Box extension= 2.800
 NStep X,Y,Z=   20     27     27   Total possible points=       14580
 Number of Points to Fit=    4704

 **********************************************************************

            Electrostatic Properties Using The CC Density.

 **********************************************************************

       Atomic Center    1 is at   0.000000  0.000000  0.679927
       Atomic Center    2 is at   0.000000  0.000000 -0.492216
       Atomic Center    3 is at   0.000000 -1.058878 -1.264305
       Atomic Center    4 is at   0.000000  1.058878 -1.254305
    4704 points will be used for fitting atomic charges
 Fitting point charges to electrostatic potential
 The dipole moment will be constrained to the correct value
 Charges from ESP fit, RMS=   0.00228 RRMS=   0.17483:
 ESP charges:
               1
     1  O   -0.470117
     2  C    0.899702
     3  F   -0.216479
     4  F   -0.213106
 Sum of ESP charges =  -0.00000
 ESP charges with hydrogens summed into heavy atoms:
               1
     1  O   -0.470117
     2  C    0.899702
     3  F   -0.216479
     4  F   -0.213106
 Charge=  -0.00000 Dipole=     0.0000     0.0172    -1.0639 Tot=     1.0640
 -----------------------------------------------------------------

              Electrostatic Properties (Atomic Units)

 -----------------------------------------------------------------
    Center     Electric         -------- Electric Field --------
               Potential          X             Y             Z
 -----------------------------------------------------------------
    1 Atom    -22.291596
    2 Atom    -14.478153
    3 Atom    -26.492066
    4 Atom    -26.490899
 -----------------------------------------------------------------
 ******************************Gaussian NBO Version 3.1******************************
             N A T U R A L   A T O M I C   O R B I T A L   A N D
          N A T U R A L   B O N D   O R B I T A L   A N A L Y S I S
 ******************************Gaussian NBO Version 3.1******************************
       /RESON  / : Allow strongly delocalized NBO set

 Analyzing the QCI/CC density

 Job title: f2co-wavefunction                                               

 Storage needed:    102424 in NPA (2147483536 available)
 GSVD:  LWork=          64 too small for GESVD, short by       66368 words or       66368 for optimal perf.


 NATURAL POPULATIONS:  Natural atomic orbital occupancies 
                                                          
   NAO  Atom  No  lang   Type(AO)    Occupancy
 --------------------------------------------
     1    O    1  S      Cor( 1S)     1.99949
     2    O    1  S      Val( 2S)     1.71242
     3    O    1  S      Ryd( 3S)     0.00639
     4    O    1  S      Ryd( 4S)     0.00037
     5    O    1  S      Ryd( 5S)     0.00019
     6    O    1  px     Val( 2p)     1.42091
     7    O    1  px     Ryd( 3p)     0.00800
     8    O    1  px     Ryd( 4p)     0.00054
     9    O    1  px     Ryd( 5p)     0.00009
    10    O    1  py     Val( 2p)     1.77523
    11    O    1  py     Ryd( 3p)     0.01133
    12    O    1  py     Ryd( 4p)     0.00067
    13    O    1  py     Ryd( 5p)     0.00010
    14    O    1  pz     Val( 2p)     1.51321
    15    O    1  pz     Ryd( 3p)     0.00684
    16    O    1  pz     Ryd( 4p)     0.00042
    17    O    1  pz     Ryd( 5p)     0.00006
    18    O    1  dxy    Ryd( 3d)     0.00566
    19    O    1  dxy    Ryd( 4d)     0.00045
    20    O    1  dxy    Ryd( 5d)     0.00006
    21    O    1  dxz    Ryd( 3d)     0.01178
    22    O    1  dxz    Ryd( 4d)     0.00038
    23    O    1  dxz    Ryd( 5d)     0.00011
    24    O    1  dyz    Ryd( 3d)     0.01114
    25    O    1  dyz    Ryd( 4d)     0.00043
    26    O    1  dyz    Ryd( 5d)     0.00008
    27    O    1  dx2y2  Ryd( 3d)     0.00564
    28    O    1  dx2y2  Ryd( 4d)     0.00046
    29    O    1  dx2y2  Ryd( 5d)     0.00008
    30    O    1  dz2    Ryd( 3d)     0.01970
    31    O    1  dz2    Ryd( 4d)     0.00047
    32    O    1  dz2    Ryd( 5d)     0.00014
    33    O    1  f(0)   Ryd( 4f)     0.00092
    34    O    1  f(0)   Ryd( 5f)     0.00009
    35    O    1  f(C1)  Ryd( 4f)     0.00052
    36    O    1  f(C1)  Ryd( 5f)     0.00010
    37    O    1  f(S1)  Ryd( 4f)     0.00057
    38    O    1  f(S1)  Ryd( 5f)     0.00010
    39    O    1  f(C2)  Ryd( 4f)     0.00049
    40    O    1  f(C2)  Ryd( 5f)     0.00008
    41    O    1  f(S2)  Ryd( 4f)     0.00049
    42    O    1  f(S2)  Ryd( 5f)     0.00008
    43    O    1  f(C3)  Ryd( 4f)     0.00047
    44    O    1  f(C3)  Ryd( 5f)     0.00006
    45    O    1  f(S3)  Ryd( 4f)     0.00047
    46    O    1  f(S3)  Ryd( 5f)     0.00006

    47    C    2  S      Cor( 1S)     1.99932
    48    C    2  S      Val( 2S)     0.68747
    49    C    2  S      Ryd( 3S)     0.00538
    50    C    2  S      Ryd( 4S)     0.00012
    51    C    2  S      Ryd( 5S)     0.00008
    52    C    2  px     Val( 2p)     0.72899
    53    C    2  px     Ryd( 3p)     0.00470
    54    C    2  px     Ryd( 4p)     0.00050
    55    C    2  px     Ryd( 5p)     0.00013
    56    C    2  py     Val( 2p)     0.65056
    57    C    2  py     Ryd( 3p)     0.01349
    58    C    2  py     Ryd( 4p)     0.00030
    59    C    2  py     Ryd( 5p)     0.00020
    60    C    2  pz     Val( 2p)     0.71114
    61    C    2  pz     Ryd( 3p)     0.02302
    62    C    2  pz     Ryd( 4p)     0.00028
    63    C    2  pz     Ryd( 5p)     0.00016
    64    C    2  dxy    Ryd( 3d)     0.00624
    65    C    2  dxy    Ryd( 4d)     0.00021
    66    C    2  dxy    Ryd( 5d)     0.00017
    67    C    2  dxz    Ryd( 3d)     0.00845
    68    C    2  dxz    Ryd( 4d)     0.00026
    69    C    2  dxz    Ryd( 5d)     0.00019
    70    C    2  dyz    Ryd( 3d)     0.00992
    71    C    2  dyz    Ryd( 5d)     0.00020
    72    C    2  dyz    Ryd( 4d)     0.00025
    73    C    2  dx2y2  Ryd( 3d)     0.00400
    74    C    2  dx2y2  Ryd( 4d)     0.00039
    75    C    2  dx2y2  Ryd( 5d)     0.00012
    76    C    2  dz2    Ryd( 3d)     0.00484
    77    C    2  dz2    Ryd( 4d)     0.00030
    78    C    2  dz2    Ryd( 5d)     0.00016
    79    C    2  f(0)   Ryd( 4f)     0.00039
    80    C    2  f(0)   Ryd( 5f)     0.00016
    81    C    2  f(C1)  Ryd( 4f)     0.00034
    82    C    2  f(C1)  Ryd( 5f)     0.00020
    83    C    2  f(S1)  Ryd( 4f)     0.00050
    84    C    2  f(S1)  Ryd( 5f)     0.00015
    85    C    2  f(C2)  Ryd( 4f)     0.00042
    86    C    2  f(C2)  Ryd( 5f)     0.00013
    87    C    2  f(S2)  Ryd( 4f)     0.00051
    88    C    2  f(S2)  Ryd( 5f)     0.00013
    89    C    2  f(C3)  Ryd( 4f)     0.00036
    90    C    2  f(C3)  Ryd( 5f)     0.00023
    91    C    2  f(S3)  Ryd( 4f)     0.00032
    92    C    2  f(S3)  Ryd( 5f)     0.00016

    93    F    3  S      Cor( 1S)     1.99980
    94    F    3  S      Val( 2S)     1.84603
    95    F    3  S      Ryd( 3S)     0.00617
    96    F    3  S      Ryd( 4S)     0.00026
    97    F    3  S      Ryd( 5S)     0.00019
    98    F    3  px     Val( 2p)     1.87909
    99    F    3  px     Ryd( 3p)     0.01182
   100    F    3  px     Ryd( 4p)     0.00066
   101    F    3  px     Ryd( 5p)     0.00011
   102    F    3  py     Val( 2p)     1.69337
   103    F    3  py     Ryd( 3p)     0.00846
   104    F    3  py     Ryd( 4p)     0.00058
   105    F    3  py     Ryd( 5p)     0.00009
   106    F    3  pz     Val( 2p)     1.80994
   107    F    3  pz     Ryd( 3p)     0.00995
   108    F    3  pz     Ryd( 4p)     0.00062
   109    F    3  pz     Ryd( 5p)     0.00010
   110    F    3  dxy    Ryd( 3d)     0.00694
   111    F    3  dxy    Ryd( 4d)     0.00052
   112    F    3  dxy    Ryd( 5d)     0.00008
   113    F    3  dxz    Ryd( 3d)     0.00575
   114    F    3  dxz    Ryd( 4d)     0.00051
   115    F    3  dxz    Ryd( 5d)     0.00007
   116    F    3  dyz    Ryd( 3d)     0.00922
   117    F    3  dyz    Ryd( 4d)     0.00050
   118    F    3  dyz    Ryd( 5d)     0.00009
   119    F    3  dx2y2  Ryd( 3d)     0.00720
   120    F    3  dx2y2  Ryd( 4d)     0.00054
   121    F    3  dx2y2  Ryd( 5d)     0.00012
   122    F    3  dz2    Ryd( 3d)     0.00613
   123    F    3  dz2    Ryd( 4d)     0.00048
   124    F    3  dz2    Ryd( 5d)     0.00008
   125    F    3  f(0)   Ryd( 4f)     0.00051
   126    F    3  f(0)   Ryd( 5f)     0.00009
   127    F    3  f(C1)  Ryd( 4f)     0.00044
   128    F    3  f(C1)  Ryd( 5f)     0.00007
   129    F    3  f(S1)  Ryd( 4f)     0.00056
   130    F    3  f(S1)  Ryd( 5f)     0.00010
   131    F    3  f(C2)  Ryd( 4f)     0.00062
   132    F    3  f(C2)  Ryd( 5f)     0.00010
   133    F    3  f(S2)  Ryd( 4f)     0.00052
   134    F    3  f(S2)  Ryd( 5f)     0.00009
   135    F    3  f(C3)  Ryd( 4f)     0.00049
   136    F    3  f(C3)  Ryd( 5f)     0.00008
   137    F    3  f(S3)  Ryd( 4f)     0.00051
   138    F    3  f(S3)  Ryd( 5f)     0.00009

   139    F    4  S      Cor( 1S)     1.99980
   140    F    4  S      Val( 2S)     1.84376
   141    F    4  S      Ryd( 3S)     0.00616
   142    F    4  S      Ryd( 4S)     0.00026
   143    F    4  S      Ryd( 5S)     0.00019
   144    F    4  px     Val( 2p)     1.87751
   145    F    4  px     Ryd( 3p)     0.01176
   146    F    4  px     Ryd( 4p)     0.00066
   147    F    4  px     Ryd( 5p)     0.00010
   148    F    4  py     Val( 2p)     1.69161
   149    F    4  py     Ryd( 3p)     0.00838
   150    F    4  py     Ryd( 4p)     0.00057
   151    F    4  py     Ryd( 5p)     0.00009
   152    F    4  pz     Val( 2p)     1.81313
   153    F    4  pz     Ryd( 3p)     0.00995
   154    F    4  pz     Ryd( 4p)     0.00062
   155    F    4  pz     Ryd( 5p)     0.00010
   156    F    4  dxy    Ryd( 3d)     0.00700
   157    F    4  dxy    Ryd( 4d)     0.00052
   158    F    4  dxy    Ryd( 5d)     0.00008
   159    F    4  dxz    Ryd( 3d)     0.00575
   160    F    4  dxz    Ryd( 4d)     0.00051
   161    F    4  dxz    Ryd( 5d)     0.00007
   162    F    4  dyz    Ryd( 3d)     0.00930
   163    F    4  dyz    Ryd( 4d)     0.00050
   164    F    4  dyz    Ryd( 5d)     0.00009
   165    F    4  dx2y2  Ryd( 3d)     0.00729
   166    F    4  dx2y2  Ryd( 4d)     0.00054
   167    F    4  dx2y2  Ryd( 5d)     0.00012
   168    F    4  dz2    Ryd( 3d)     0.00615
   169    F    4  dz2    Ryd( 4d)     0.00047
   170    F    4  dz2    Ryd( 5d)     0.00008
   171    F    4  f(0)   Ryd( 4f)     0.00051
   172    F    4  f(0)   Ryd( 5f)     0.00009
   173    F    4  f(C1)  Ryd( 4f)     0.00044
   174    F    4  f(C1)  Ryd( 5f)     0.00007
   175    F    4  f(S1)  Ryd( 4f)     0.00056
   176    F    4  f(S1)  Ryd( 5f)     0.00010
   177    F    4  f(C2)  Ryd( 4f)     0.00063
   178    F    4  f(C2)  Ryd( 5f)     0.00010
   179    F    4  f(S2)  Ryd( 4f)     0.00052
   180    F    4  f(S2)  Ryd( 5f)     0.00009
   181    F    4  f(C3)  Ryd( 4f)     0.00049
   182    F    4  f(C3)  Ryd( 5f)     0.00008
   183    F    4  f(S3)  Ryd( 4f)     0.00051
   184    F    4  f(S3)  Ryd( 5f)     0.00009


 Summary of Natural Population Analysis:                  
                                                          
                                       Natural Population 
                Natural  -----------------------------------------------
    Atom  No    Charge         Core      Valence    Rydberg      Total
 -----------------------------------------------------------------------
      O    1   -0.51735      1.99949     6.42177    0.09609     8.51735
      C    2    1.13448      1.99932     2.77815    0.08805     4.86552
      F    3   -0.30973      1.99980     7.22843    0.08150     9.30973
      F    4   -0.30739      1.99980     7.22601    0.08159     9.30739
 =======================================================================
   * Total *   -0.00000      7.99841    23.65436    0.34723    32.00000

                                 Natural Population      
 --------------------------------------------------------
   Core                       7.99841 ( 99.9801% of   8)
   Valence                   23.65436 ( 98.5598% of  24)
   Natural Minimal Basis     31.65277 ( 98.9149% of  32)
   Natural Rydberg Basis      0.34723 (  1.0851% of  32)
 --------------------------------------------------------

    Atom  No          Natural Electron Configuration
 ----------------------------------------------------------------------------
      O    1      [core]2S( 1.71)2p( 4.71)3S( 0.01)3p( 0.03)3d( 0.05)
      C    2      [core]2S( 0.69)2p( 2.09)3S( 0.01)3p( 0.04)3d( 0.03)
      F    3      [core]2S( 1.85)2p( 5.38)3S( 0.01)3p( 0.03)3d( 0.04)
      F    4      [core]2S( 1.84)2p( 5.38)3S( 0.01)3p( 0.03)3d( 0.04)


 NBO analysis skipped by request.
 Unable to Open any file for archive entry.
 1\1\GINC-TRAPISTA\SP\RQCISD-FC\Aug-CC-pVTZ\C1F2O1\WAGNER\03-Sep-2022\0
 \\# qcisd/aug-cc-pvtz nosymm density=current pop=(chelpg,hirshfeld,npa
 ,dipole)\\f2co-wavefunction\\0,1\O,0,0.,0.,0.679927\C,0,0.,0.,-0.49221
 6\F,0,0.,-1.058878,-1.264305\F,0,0.,1.058878,-1.254305\\Version=EM64L-
 G16RevC.01\HF=-311.7415737\MP2=-312.6370248\MP3=-312.6246836\MP4D=-312
 .6402204\MP4DQ=-312.6241984\MP4SDQ=-312.6357406\QCISD=-312.6352545\RMS
 D=3.167e-09\Dipole=0.,0.0067486,-0.4185689\Quadrupole=1.3369255,-0.447
 8691,-0.8890564,0.,0.,-0.0157501\PG=CS [SG(C1F2O1)]\\@
 The archive entry for this job was punched.


 Standing in the middle of the road is very dangerous;
 you get knocked down by the traffic from both sides.
                                -- Margaret Thatcher
 Job cpu time:       0 days  6 hours 26 minutes 35.6 seconds.
 Elapsed time:       0 days  0 hours 24 minutes 32.4 seconds.
 File lengths (MBytes):  RWF=  21297 Int=      0 D2E=      0 Chk=      4 Scr=      1
 Normal termination of Gaussian 16 at Sat Sep  3 08:06:45 2022.
