 Entering Gaussian System, Link 0=/home/wagner/chemistry/gaussian/g16/g16
 Input=GAUSSIAN.com
 Output=GAUSSIAN.log
 Initial command:
 /home/wagner/chemistry/gaussian/g16/l1.exe "/home/wagner/chemistry/gaussian/work/Gau-8119.inp" -scrdir="/home/wagner/chemistry/gaussian/work/"
 Entering Link 1 = /home/wagner/chemistry/gaussian/g16/l1.exe PID=      8121.
  
 Copyright (c) 1988-2019, Gaussian, Inc.  All Rights Reserved.
  
 This is part of the Gaussian(R) 16 program.  It is based on
 the Gaussian(R) 09 system (copyright 2009, Gaussian, Inc.),
 the Gaussian(R) 03 system (copyright 2003, Gaussian, Inc.),
 the Gaussian(R) 98 system (copyright 1998, Gaussian, Inc.),
 the Gaussian(R) 94 system (copyright 1995, Gaussian, Inc.),
 the Gaussian 92(TM) system (copyright 1992, Gaussian, Inc.),
 the Gaussian 90(TM) system (copyright 1990, Gaussian, Inc.),
 the Gaussian 88(TM) system (copyright 1988, Gaussian, Inc.),
 the Gaussian 86(TM) system (copyright 1986, Carnegie Mellon
 University), and the Gaussian 82(TM) system (copyright 1983,
 Carnegie Mellon University). Gaussian is a federally registered
 trademark of Gaussian, Inc.
  
 This software contains proprietary and confidential information,
 including trade secrets, belonging to Gaussian, Inc.
  
 This software is provided under written license and may be
 used, copied, transmitted, or stored only in accord with that
 written license.
  
 The following legend is applicable only to US Government
 contracts under FAR:
  
                    RESTRICTED RIGHTS LEGEND
  
 Use, reproduction and disclosure by the US Government is
 subject to restrictions as set forth in subparagraphs (a)
 and (c) of the Commercial Computer Software - Restricted
 Rights clause in FAR 52.227-19.
  
 Gaussian, Inc.
 340 Quinnipiac St., Bldg. 40, Wallingford CT 06492
  
  
 ---------------------------------------------------------------
 Warning -- This program may not be used in any manner that
 competes with the business of Gaussian, Inc. or will provide
 assistance to any competitor of Gaussian, Inc.  The licensee
 of this program is prohibited from giving any competitor of
 Gaussian, Inc. access to this program.  By using this program,
 the user acknowledges that Gaussian, Inc. is engaged in the
 business of creating and licensing software in the field of
 computational chemistry and represents and warrants to the
 licensee that it is not a competitor of Gaussian, Inc. and that
 it will not use this program in any manner prohibited above.
 ---------------------------------------------------------------
  

 Cite this work as:
 Gaussian 16, Revision C.01,
 M. J. Frisch, G. W. Trucks, H. B. Schlegel, G. E. Scuseria, 
 M. A. Robb, J. R. Cheeseman, G. Scalmani, V. Barone, 
 G. A. Petersson, H. Nakatsuji, X. Li, M. Caricato, A. V. Marenich, 
 J. Bloino, B. G. Janesko, R. Gomperts, B. Mennucci, H. P. Hratchian, 
 J. V. Ortiz, A. F. Izmaylov, J. L. Sonnenberg, D. Williams-Young, 
 F. Ding, F. Lipparini, F. Egidi, J. Goings, B. Peng, A. Petrone, 
 T. Henderson, D. Ranasinghe, V. G. Zakrzewski, J. Gao, N. Rega, 
 G. Zheng, W. Liang, M. Hada, M. Ehara, K. Toyota, R. Fukuda, 
 J. Hasegawa, M. Ishida, T. Nakajima, Y. Honda, O. Kitao, H. Nakai, 
 T. Vreven, K. Throssell, J. A. Montgomery, Jr., J. E. Peralta, 
 F. Ogliaro, M. J. Bearpark, J. J. Heyd, E. N. Brothers, K. N. Kudin, 
 V. N. Staroverov, T. A. Keith, R. Kobayashi, J. Normand, 
 K. Raghavachari, A. P. Rendell, J. C. Burant, S. S. Iyengar, 
 J. Tomasi, M. Cossi, J. M. Millam, M. Klene, C. Adamo, R. Cammi, 
 J. W. Ochterski, R. L. Martin, K. Morokuma, O. Farkas, 
 J. B. Foresman, and D. J. Fox, Gaussian, Inc., Wallingford CT, 2019.
 
 ******************************************
 Gaussian 16:  EM64L-G16RevC.01  3-Jul-2019
                 3-Sep-2022 
 ******************************************
 %nproc=16
 Will use up to   16 processors via shared memory.
 %mem=16GB
 ----------------------------------------------------------------------
 # qcisd/aug-cc-pvtz nosymm density=current pop=(chelpg,hirshfeld,npa,d
 ipole)
 ----------------------------------------------------------------------
 1/30=1,38=1,172=1/1;
 2/12=2,15=1,17=6,18=5,40=1/2;
 3/5=16,6=1,7=10,11=9,25=1,30=1,71=1/1,2,3;
 4//1;
 5/5=2,38=5/2;
 8/6=4,9=120000,10=1/1,4;
 9/5=8,15=1/13;
 11/28=-7,31=1,32=3,42=3/11;
 10/5=6,13=10,31=1/2;
 6/7=2,8=2,9=2,10=2,15=24,20=3,22=-1,40=-1,79=1/1,2,7;
 99/5=1,9=1/99;
 -----------------
 f2co-wavefunction
 -----------------
 Symbolic Z-matrix:
 Charge =  0 Multiplicity = 1
 O                     0.        0.        0.67993 
 C                     0.        0.       -0.49222 
 F                     0.       -1.05888  -1.26431 
 F                    -0.01      1.05888  -1.26431 
 
                          Input orientation:                          
 ---------------------------------------------------------------------
 Center     Atomic      Atomic             Coordinates (Angstroms)
 Number     Number       Type             X           Y           Z
 ---------------------------------------------------------------------
      1          8           0        0.000000    0.000000    0.679927
      2          6           0        0.000000    0.000000   -0.492216
      3          9           0        0.000000   -1.058878   -1.264305
      4          9           0       -0.010000    1.058878   -1.264305
 ---------------------------------------------------------------------
                    Distance matrix (angstroms):
                    1          2          3          4
     1  O    0.000000
     2  C    1.172143   0.000000
     3  F    2.213879   1.310475   0.000000
     4  F    2.213902   1.310513   2.117780   0.000000
 Symmetry turned off by external request.
 Stoichiometry    CF2O
 Framework group  C1[X(CF2O)]
 Deg. of freedom     6
 Full point group                 C1      NOp   1
 Rotational constants (GHZ):          11.8622665          11.7727508           5.9086818
 Standard basis: Aug-CC-pVTZ (5D, 7F)
   184 basis functions,   288 primitive gaussians,   220 cartesian basis functions
    16 alpha electrons       16 beta electrons
       nuclear repulsion energy       119.9400222781 Hartrees.
 NAtoms=    4 NActive=    4 NUniq=    4 SFac= 1.00D+00 NAtFMM=   60 NAOKFM=F Big=F
 Integral buffers will be    131072 words long.
 Raffenetti 1 integral format.
 Two-electron integral symmetry is turned off.
 One-electron integrals computed using PRISM.
 NBasis=   184 RedAO= T EigKep=  3.49D-04  NBF=   184
 NBsUse=   184 1.00D-06 EigRej= -1.00D+00 NBFU=   184
 ExpMin= 3.57D-02 ExpMax= 1.95D+04 ExpMxC= 6.65D+02 IAcc=3 IRadAn=         5 AccDes= 0.00D+00
 Harris functional with IExCor=  205 and IRadAn=       5 diagonalized for initial guess.
 HarFok:  IExCor=  205 AccDes= 0.00D+00 IRadAn=         5 IDoV= 1 UseB2=F ITyADJ=14
 ICtDFT=  3500011 ScaDFX=  1.000000  1.000000  1.000000  1.000000
 FoFCou: FMM=F IPFlag=           0 FMFlag=      100000 FMFlg1=           0
         NFxFlg=           0 DoJE=T BraDBF=F KetDBF=T FulRan=T
         wScrn=  0.000000 ICntrl=       500 IOpCl=  0 I1Cent=   200000004 NGrid=           0
         NMat0=    1 NMatS0=      1 NMatT0=    0 NMatD0=    1 NMtDS0=    0 NMtDT0=    0
 Symmetry not used in FoFCou.
 Keep R1 ints in memory in canonical form, NReq=152781367.
 Requested convergence on RMS density matrix=1.00D-08 within 128 cycles.
 Requested convergence on MAX density matrix=1.00D-06.
 Requested convergence on             energy=1.00D-06.
 No special actions if energy rises.
 SCF Done:  E(RHF) =  -311.741233150     A.U. after   11 cycles
            NFock= 11  Conv=0.83D-08     -V/T= 2.0014
 ExpMin= 3.57D-02 ExpMax= 1.95D+04 ExpMxC= 6.65D+02 IAcc=3 IRadAn=         5 AccDes= 0.00D+00
 HarFok:  IExCor=  205 AccDes= 0.00D+00 IRadAn=         5 IDoV=-2 UseB2=F ITyADJ=14
 ICtDFT= 12500011 ScaDFX=  1.000000  1.000000  1.000000  1.000000
 Range of M.O.s used for correlation:     5   184
 NBasis=   184 NAE=    16 NBE=    16 NFC=     4 NFV=     0
 NROrb=    180 NOA=    12 NOB=    12 NVA=   168 NVB=   168

 **** Warning!!: The largest alpha MO coefficient is  0.15539602D+02

 Semi-Direct transformation.
 ModeAB=           2 MOrb=            12 LenV=    2146514619
 LASXX=     33405819 LTotXX=    33405819 LenRXX=    33405819
 LTotAB=    33954012 MaxLAS=    52509600 LenRXY=    52509600
 NonZer=    66811638 LenScr=   100987392 LnRSAI=           0
 LnScr1=           0 LExtra=           0 Total=    186902811
 MaxDsk=          -1 SrtSym=           F ITran=            4
 JobTyp=0 Pass  1:  I=   1 to  12.
 (rs|ai) integrals will be sorted in core.
 Spin components of T(2) and E(2):
     alpha-alpha T2 =       0.2657385230D-01 E2=     -0.1191091343D+00
     alpha-beta  T2 =       0.1371279027D+00 E2=     -0.6576889015D+00
     beta-beta   T2 =       0.2657385230D-01 E2=     -0.1191091343D+00
 ANorm=    0.1090997529D+01
 E2 =    -0.8959071702D+00 EUMP2 =    -0.31263714032032D+03
 Keep R2 and R3 ints in memory in canonical form, NReq=297638879.
 CIDS: In Core Option IDoMem=           1.
 Iterations=  50 Convergence= 0.100D-07
 Produce multiple copies of IABC intergrals
 Iteration Nr.   1
 **********************
 DD1Dir will call FoFMem   1 times, MxPair=       156
 NAB=    78 NAA=     0 NBB=     0.
 MP4(R+Q)=  0.16057202D-01
 E3=        0.12500204D-01        EUMP3=      -0.31262464012D+03
 E4(DQ)=    0.45706159D-03        UMP4(DQ)=   -0.31262418305D+03
 E4(SDQ)=  -0.11146484D-01        UMP4(SDQ)=  -0.31263578660D+03
 DE(Corr)= -0.86734976     E(Corr)=     -312.60858291    
 NORM(A)=   0.10858768D+01
 Iteration Nr.   2
 **********************
 DD1Dir will call FoFMem   1 times, MxPair=       156
 NAB=    78 NAA=     0 NBB=     0.
 DE(Corr)= -0.89321795     E(CORR)=     -312.63445110     Delta=-2.59D-02
 NORM(A)=   0.10931767D+01
 Iteration Nr.   3
 **********************
 DD1Dir will call FoFMem   1 times, MxPair=       156
 NAB=    78 NAA=     0 NBB=     0.
 DE(Corr)= -0.89145980     E(CORR)=     -312.63269295     Delta= 1.76D-03
 NORM(A)=   0.10954082D+01
 Iteration Nr.   4
 **********************
 DD1Dir will call FoFMem   1 times, MxPair=       156
 NAB=    78 NAA=     0 NBB=     0.
 DE(Corr)= -0.89376261     E(CORR)=     -312.63499576     Delta=-2.30D-03
 NORM(A)=   0.10962146D+01
 Iteration Nr.   5
 **********************
 DD1Dir will call FoFMem   1 times, MxPair=       156
 NAB=    78 NAA=     0 NBB=     0.
 DE(Corr)= -0.89402844     E(CORR)=     -312.63526159     Delta=-2.66D-04
 NORM(A)=   0.10963971D+01
 Iteration Nr.   6
 **********************
 DD1Dir will call FoFMem   1 times, MxPair=       156
 NAB=    78 NAA=     0 NBB=     0.
 DE(Corr)= -0.89405493     E(CORR)=     -312.63528808     Delta=-2.65D-05
 NORM(A)=   0.10964104D+01
 Iteration Nr.   7
 **********************
 DD1Dir will call FoFMem   1 times, MxPair=       156
 NAB=    78 NAA=     0 NBB=     0.
 DE(Corr)= -0.89405655     E(CORR)=     -312.63528970     Delta=-1.62D-06
 NORM(A)=   0.10964102D+01
 Iteration Nr.   8
 **********************
 DD1Dir will call FoFMem   1 times, MxPair=       156
 NAB=    78 NAA=     0 NBB=     0.
 DE(Corr)= -0.89405554     E(CORR)=     -312.63528869     Delta= 1.01D-06
 NORM(A)=   0.10964107D+01
 Iteration Nr.   9
 **********************
 DD1Dir will call FoFMem   1 times, MxPair=       156
 NAB=    78 NAA=     0 NBB=     0.
 DE(Corr)= -0.89405594     E(CORR)=     -312.63528909     Delta=-3.99D-07
 NORM(A)=   0.10964107D+01
 Iteration Nr.  10
 **********************
 DD1Dir will call FoFMem   1 times, MxPair=       156
 NAB=    78 NAA=     0 NBB=     0.
 DE(Corr)= -0.89405584     E(CORR)=     -312.63528899     Delta= 1.00D-07
 NORM(A)=   0.10964108D+01
 Iteration Nr.  11
 **********************
 DD1Dir will call FoFMem   1 times, MxPair=       156
 NAB=    78 NAA=     0 NBB=     0.
 DE(Corr)= -0.89405631     E(CORR)=     -312.63528946     Delta=-4.71D-07
 NORM(A)=   0.10964112D+01
 Iteration Nr.  12
 **********************
 DD1Dir will call FoFMem   1 times, MxPair=       156
 NAB=    78 NAA=     0 NBB=     0.
 DE(Corr)= -0.89405634     E(CORR)=     -312.63528949     Delta=-3.38D-08
 NORM(A)=   0.10964113D+01
 Iteration Nr.  13
 **********************
 DD1Dir will call FoFMem   1 times, MxPair=       156
 NAB=    78 NAA=     0 NBB=     0.
 DE(Corr)= -0.89405644     E(CORR)=     -312.63528959     Delta=-9.61D-08
 NORM(A)=   0.10964114D+01
 Iteration Nr.  14
 **********************
 DD1Dir will call FoFMem   1 times, MxPair=       156
 NAB=    78 NAA=     0 NBB=     0.
 DE(Corr)= -0.89405645     E(CORR)=     -312.63528961     Delta=-1.59D-08
 NORM(A)=   0.10964114D+01
 Iteration Nr.  15
 **********************
 DD1Dir will call FoFMem   1 times, MxPair=       156
 NAB=    78 NAA=     0 NBB=     0.
 DE(Corr)= -0.89405646     E(CORR)=     -312.63528961     Delta=-9.07D-09
 NORM(A)=   0.10964115D+01
 Wavefunction amplitudes converged. E(Corr)=     -312.63528961    
 Largest amplitude= 5.78D-02

 Z-amplitude iterations

 Iteration Nr.   1
 **********************
 DD1Dir will call FoFMem   1 times, MxPair=       156
 NAB=    78 NAA=     0 NBB=     0.
 DE(Z)= -0.87475307     E(Z)=     -312.61598622     Delta= 1.93D-02
 NORM(A)=   0.10964219D+01
 Iteration Nr.   2
 **********************
 DD1Dir will call FoFMem   1 times, MxPair=       156
 NAB=    78 NAA=     0 NBB=     0.
 DE(Z)= -0.87475310     E(Z)=     -312.61598625     Delta=-3.60D-08
 NORM(A)=   0.10964154D+01
 Iteration Nr.   3
 **********************
 DD1Dir will call FoFMem   1 times, MxPair=       156
 NAB=    78 NAA=     0 NBB=     0.
 DE(Z)= -0.87475311     E(Z)=     -312.61598626     Delta=-1.02D-08
 NORM(A)=   0.10964141D+01
 Iteration Nr.   4
 **********************
 DD1Dir will call FoFMem   1 times, MxPair=       156
 NAB=    78 NAA=     0 NBB=     0.
 DE(Z)= -0.87475307     E(Z)=     -312.61598622     Delta= 4.47D-08
 NORM(A)=   0.10964129D+01
 Iteration Nr.   5
 **********************
 DD1Dir will call FoFMem   1 times, MxPair=       156
 NAB=    78 NAA=     0 NBB=     0.
 DE(Z)= -0.87475300     E(Z)=     -312.61598615     Delta= 6.49D-08
 NORM(A)=   0.10925002D+01
 Iteration Nr.   6
 **********************
 DD1Dir will call FoFMem   1 times, MxPair=       156
 NAB=    78 NAA=     0 NBB=     0.
 DE(Z)= -0.87511672     E(Z)=     -312.61634987     Delta=-3.64D-04
 NORM(A)=   0.10920121D+01
 Iteration Nr.   7
 **********************
 DD1Dir will call FoFMem   1 times, MxPair=       156
 NAB=    78 NAA=     0 NBB=     0.
 DE(Z)= -0.87479479     E(Z)=     -312.61602794     Delta= 3.22D-04
 NORM(A)=   0.10919635D+01
 Iteration Nr.   8
 **********************
 DD1Dir will call FoFMem   1 times, MxPair=       156
 NAB=    78 NAA=     0 NBB=     0.
 DE(Z)= -0.87466072     E(Z)=     -312.61589387     Delta= 1.34D-04
 NORM(A)=   0.10919702D+01
 Iteration Nr.   9
 **********************
 DD1Dir will call FoFMem   1 times, MxPair=       156
 NAB=    78 NAA=     0 NBB=     0.
 DE(Z)= -0.87469891     E(Z)=     -312.61593206     Delta=-3.82D-05
 NORM(A)=   0.10919701D+01
 Iteration Nr.  10
 **********************
 DD1Dir will call FoFMem   1 times, MxPair=       156
 NAB=    78 NAA=     0 NBB=     0.
 DE(Z)= -0.87469622     E(Z)=     -312.61592937     Delta= 2.70D-06
 NORM(A)=   0.10919701D+01
 Iteration Nr.  11
 **********************
 DD1Dir will call FoFMem   1 times, MxPair=       156
 NAB=    78 NAA=     0 NBB=     0.
 DE(Z)= -0.87469627     E(Z)=     -312.61592942     Delta=-5.66D-08
 NORM(A)=   0.10919699D+01
 Iteration Nr.  12
 **********************
 DD1Dir will call FoFMem   1 times, MxPair=       156
 NAB=    78 NAA=     0 NBB=     0.
 DE(Z)= -0.87469633     E(Z)=     -312.61592948     Delta=-6.07D-08
 NORM(A)=   0.10919698D+01
 Iteration Nr.  13
 **********************
 DD1Dir will call FoFMem   1 times, MxPair=       156
 NAB=    78 NAA=     0 NBB=     0.
 DE(Z)= -0.87469626     E(Z)=     -312.61592941     Delta= 7.37D-08
 NORM(A)=   0.10919697D+01
 Iteration Nr.  14
 **********************
 DD1Dir will call FoFMem   1 times, MxPair=       156
 NAB=    78 NAA=     0 NBB=     0.
 DE(Z)= -0.87469625     E(Z)=     -312.61592940     Delta= 1.03D-08
 NORM(A)=   0.10919697D+01
 Iteration Nr.  15
 **********************
 DD1Dir will call FoFMem   1 times, MxPair=       156
 NAB=    78 NAA=     0 NBB=     0.
 DE(Z)= -0.87469623     E(Z)=     -312.61592938     Delta= 2.56D-08
 NORM(A)=   0.10919697D+01
 Iteration Nr.  16
 **********************
 DD1Dir will call FoFMem   1 times, MxPair=       156
 NAB=    78 NAA=     0 NBB=     0.
 DE(Z)= -0.87469623     E(Z)=     -312.61592938     Delta=-3.33D-09
 NORM(A)=   0.10919697D+01
 Z-amplitudes converged.
 Discarding MO integrals.
          Differentiating once with respect to electric field.
                with respect to dipole field.
          Electric field/nuclear overlap derivatives assumed to be zero.
 Keep R1 ints in memory in canonical form, NReq=152784277.
          There are     1 degrees of freedom in the 1st order CPHF.  IDoFFX=0 NUNeed=     1.
 LinEq1:  Iter=  0 NonCon=     1 RMS=3.07D-03 Max=8.45D-02 NDo=     1
 AX will form     1 AO Fock derivatives at one time.
 LinEq1:  Iter=  1 NonCon=     1 RMS=7.55D-04 Max=1.11D-02 NDo=     1
 LinEq1:  Iter=  2 NonCon=     1 RMS=2.24D-04 Max=3.37D-03 NDo=     1
 LinEq1:  Iter=  3 NonCon=     1 RMS=9.87D-05 Max=1.57D-03 NDo=     1
 LinEq1:  Iter=  4 NonCon=     1 RMS=2.27D-05 Max=3.72D-04 NDo=     1
 LinEq1:  Iter=  5 NonCon=     1 RMS=1.09D-05 Max=2.98D-04 NDo=     1
 LinEq1:  Iter=  6 NonCon=     1 RMS=2.61D-06 Max=4.75D-05 NDo=     1
 LinEq1:  Iter=  7 NonCon=     1 RMS=5.33D-07 Max=1.03D-05 NDo=     1
 LinEq1:  Iter=  8 NonCon=     1 RMS=9.45D-08 Max=1.21D-06 NDo=     1
 LinEq1:  Iter=  9 NonCon=     1 RMS=1.30D-08 Max=1.78D-07 NDo=     1
 LinEq1:  Iter= 10 NonCon=     1 RMS=1.88D-09 Max=2.12D-08 NDo=     1
 LinEq1:  Iter= 11 NonCon=     1 RMS=3.99D-10 Max=5.83D-09 NDo=     1
 LinEq1:  Iter= 12 NonCon=     0 RMS=7.22D-11 Max=8.59D-10 NDo=     1
 Linear equations converged to 1.000D-10 1.000D-09 after    12 iterations.
 End of Minotr F.D. properties file   721 does not exist.
 End of Minotr F.D. properties file   722 does not exist.
 End of Minotr F.D. properties file   788 does not exist.

 **********************************************************************

            Population analysis using the CC Density.

 **********************************************************************

 Alpha  occ. eigenvalues --  -26.39320 -26.39317 -20.62021 -11.53392  -1.76376
 Alpha  occ. eigenvalues --   -1.68671  -1.47833  -0.95856  -0.86620  -0.81834
 Alpha  occ. eigenvalues --   -0.80634  -0.72757  -0.70589  -0.70517  -0.57651
 Alpha  occ. eigenvalues --   -0.55832
 Alpha virt. eigenvalues --    0.05517   0.07195   0.07794   0.07908   0.15332
 Alpha virt. eigenvalues --    0.17099   0.17197   0.19384   0.19975   0.21580
 Alpha virt. eigenvalues --    0.24816   0.24867   0.26163   0.26401   0.28488
 Alpha virt. eigenvalues --    0.31149   0.34848   0.36132   0.38928   0.41644
 Alpha virt. eigenvalues --    0.44481   0.48613   0.50000   0.52365   0.53573
 Alpha virt. eigenvalues --    0.62891   0.66643   0.69288   0.72303   0.78663
 Alpha virt. eigenvalues --    0.81167   0.81739   0.84772   0.91211   0.93361
 Alpha virt. eigenvalues --    0.96340   0.97293   1.03061   1.04429   1.06895
 Alpha virt. eigenvalues --    1.07458   1.10102   1.10331   1.10733   1.14123
 Alpha virt. eigenvalues --    1.14376   1.18942   1.21739   1.24218   1.26906
 Alpha virt. eigenvalues --    1.28127   1.29868   1.37093   1.40955   1.50226
 Alpha virt. eigenvalues --    1.51637   1.52547   1.55884   1.65650   1.67624
 Alpha virt. eigenvalues --    1.69268   1.75896   1.78390   1.79703   2.03905
 Alpha virt. eigenvalues --    2.22589   2.27706   2.28316   2.33547   2.35663
 Alpha virt. eigenvalues --    2.41258   2.48923   2.55046   2.59586   2.61950
 Alpha virt. eigenvalues --    2.67125   2.70614   2.73194   2.73677   2.77219
 Alpha virt. eigenvalues --    2.80216   2.81826   2.83531   2.88477   2.92357
 Alpha virt. eigenvalues --    2.94305   2.94540   2.94663   3.06097   3.08179
 Alpha virt. eigenvalues --    3.10227   3.10283   3.12260   3.20377   3.23210
 Alpha virt. eigenvalues --    3.31542   3.36253   3.39133   3.46227   3.52591
 Alpha virt. eigenvalues --    3.56043   3.60053   3.63429   3.78937   3.81176
 Alpha virt. eigenvalues --    3.95029   4.00417   4.01868   4.03418   4.07660
 Alpha virt. eigenvalues --    4.21235   4.21331   4.40366   4.41410   4.53192
 Alpha virt. eigenvalues --    4.60125   4.75386   4.77279   4.83434   5.26570
 Alpha virt. eigenvalues --    5.33932   5.46045   5.47040   5.56739   5.74207
 Alpha virt. eigenvalues --    6.12020   6.56990   6.58328   6.68905   6.89024
 Alpha virt. eigenvalues --    7.10470   7.13528   7.18849   7.21293   7.24328
 Alpha virt. eigenvalues --    7.39356   7.50334   7.60649   7.69726   7.69939
 Alpha virt. eigenvalues --    8.78675   8.80136   8.84984   8.86882   9.00266
 Alpha virt. eigenvalues --    9.02642   9.11751   9.13076   9.19417   9.25893
 Alpha virt. eigenvalues --    9.26912   9.30295   9.33124   9.33361   9.33821
 Alpha virt. eigenvalues --    9.35105   9.37106   9.56162   9.61365   9.62767
 Alpha virt. eigenvalues --    9.66521   9.75637   9.87650   9.95854  13.36501
 Alpha virt. eigenvalues --   15.05947  16.18563  17.35734
          Condensed to atoms (all electrons):
               1          2          3          4
     1  O    7.946820   0.500016  -0.079666  -0.079658
     2  C    0.500016   4.519559   0.185124   0.185118
     3  F   -0.079666   0.185124   9.104368  -0.048510
     4  F   -0.079658   0.185118  -0.048510   9.104403
 Mulliken charges:
               1
     1  O   -0.287513
     2  C    0.610182
     3  F   -0.161316
     4  F   -0.161354
 Sum of Mulliken charges =  -0.00000
 Mulliken charges with hydrogens summed into heavy atoms:
               1
     1  O   -0.287513
     2  C    0.610182
     3  F   -0.161316
     4  F   -0.161354
 Electronic spatial extent (au):  <R**2>=            239.4210
 Charge=             -0.0000 electrons
 Dipole moment (field-independent basis, Debye):
    X=              0.0061    Y=             -0.0001    Z=             -1.0332  Tot=              1.0332
 Quadrupole moment (field-independent basis, Debye-Ang):
   XX=            -18.9050   YY=            -21.3171   ZZ=            -21.9185
   XY=              0.0114   XZ=             -0.0126   YZ=              0.0002
 Traceless Quadrupole moment (field-independent basis, Debye-Ang):
   XX=              1.8085   YY=             -0.6035   ZZ=             -1.2050
   XY=              0.0114   XZ=             -0.0126   YZ=              0.0002
 Octapole moment (field-independent basis, Debye-Ang**2):
  XXX=              0.1403  YYY=             -0.0004  ZZZ=             34.2718  XYY=              0.0494
  XXY=             -0.0001  XXZ=             10.3475  XZZ=              0.0569  YZZ=             -0.0003
  YYZ=             12.0140  XYZ=             -0.0079
 Hexadecapole moment (field-independent basis, Debye-Ang**3):
 XXXX=            -13.4853 YYYY=            -79.9310 ZZZZ=           -132.3933 XXXY=              0.1579
 XXXZ=             -0.1872 YYYX=              0.1559 YYYZ=              0.0005 ZZZX=             -0.1950
 ZZZY=              0.0005 XXYY=            -15.6418 XXZZ=            -23.5682 YYZZ=            -36.1538
 XXYZ=              0.0001 YYXZ=             -0.0593 ZZXY=              0.0594
 N-N= 1.199400222781D+02 E-N=-9.819235117576D+02  KE= 3.123813863614D+02
 There are a total of       93060 grid points.
 ElSum from          density=       32.0000004928
 ElSum from atomic densities=       32.0000001503

 Hirshfeld populations at iteration   1 (CX, CA, CB, DipXYZ):
               1          2          3          4          5          6
     1  O    0.000004   4.109093   4.109093  -0.000622  -0.000003  -0.052868
     2  C    0.000000   2.819373   2.819373   0.001767   0.000004  -0.156255
     3  F    0.000001   4.535761   4.535761  -0.000229   0.037608   0.038584
     4  F    0.000001   4.535773   4.535773   0.000127  -0.037615   0.038587
       Tot   0.000006  16.000000  16.000000   0.001043  -0.000006  -0.131952

 Dip from Atomic Chgs              0.001352  -0.000049  -0.274547
         Total Dipole              0.002395  -0.000056  -0.406499

 Hirshfeld charges, spin densities, dipoles, and CM5 charges using IRadAn=      5:
              Q-H        S-H        Dx         Dy         Dz        Q-CM5   
     1  O   -0.218186   0.000000  -0.000622  -0.000003  -0.052868  -0.261409
     2  C    0.361253   0.000000   0.001767   0.000004  -0.156255   0.441725
     3  F   -0.071522   0.000000  -0.000229   0.037608   0.038584  -0.090147
     4  F   -0.071546   0.000000   0.000127  -0.037615   0.038587  -0.090170
       Tot  -0.000000   0.000000   0.001043  -0.000006  -0.131952  -0.000000
 Hirshfeld charges with hydrogens summed into heavy atoms:
              Q-H       Q-CM5   
     1  O   -0.218186  -0.261409
     2  C    0.361253   0.441725
     3  F   -0.071522  -0.090147
     4  F   -0.071546  -0.090170
 
 EQQ= 0.000000000000E+00 EQD= 0.000000000000E+00 EDD=-0.884761332671E-04
 EQQ+QD+DD=-0.884761332671E-04
 
 Breneman (CHELPG) radii used.
 Generate Potential Derived Charges using the Breneman model, NDens= 1.
 Grid spacing= 0.300 Box extension= 2.800
 NStep X,Y,Z=   20     27     27   Total possible points=       14580
 Number of Points to Fit=    4716

 **********************************************************************

            Electrostatic Properties Using The CC Density.

 **********************************************************************

       Atomic Center    1 is at   0.000000  0.000000  0.679927
       Atomic Center    2 is at   0.000000  0.000000 -0.492216
       Atomic Center    3 is at   0.000000 -1.058878 -1.264305
       Atomic Center    4 is at  -0.010000  1.058878 -1.264305
    4716 points will be used for fitting atomic charges
 Fitting point charges to electrostatic potential
 The dipole moment will be constrained to the correct value
 Charges from ESP fit, RMS=   0.00408 RRMS=   0.31588:
 ESP charges:
               1
     1  O   -0.350468
     2  C    0.603920
     3  F   -0.126712
     4  F   -0.126740
 Sum of ESP charges =   0.00000
 ESP charges with hydrogens summed into heavy atoms:
               1
     1  O   -0.350468
     2  C    0.603920
     3  F   -0.126712
     4  F   -0.126740
 Charge=   0.00000 Dipole=     0.0061    -0.0001    -1.0332 Tot=     1.0332
 -----------------------------------------------------------------

              Electrostatic Properties (Atomic Units)

 -----------------------------------------------------------------
    Center     Electric         -------- Electric Field --------
               Potential          X             Y             Z
 -----------------------------------------------------------------
    1 Atom    -22.290281
    2 Atom    -14.477469
    3 Atom    -26.492015
    4 Atom    -26.492028
 -----------------------------------------------------------------
 ******************************Gaussian NBO Version 3.1******************************
             N A T U R A L   A T O M I C   O R B I T A L   A N D
          N A T U R A L   B O N D   O R B I T A L   A N A L Y S I S
 ******************************Gaussian NBO Version 3.1******************************
       /RESON  / : Allow strongly delocalized NBO set

 Analyzing the QCI/CC density

 Job title: f2co-wavefunction                                               

 Storage needed:    102424 in NPA (2147483536 available)
 GSVD:  LWork=          64 too small for GESVD, short by       66368 words or       66368 for optimal perf.


 NATURAL POPULATIONS:  Natural atomic orbital occupancies 
                                                          
   NAO  Atom  No  lang   Type(AO)    Occupancy
 --------------------------------------------
     1    O    1  S      Cor( 1S)     1.99949
     2    O    1  S      Val( 2S)     1.71240
     3    O    1  S      Ryd( 3S)     0.00637
     4    O    1  S      Ryd( 4S)     0.00037
     5    O    1  S      Ryd( 5S)     0.00019
     6    O    1  px     Val( 2p)     1.42054
     7    O    1  px     Ryd( 3p)     0.00798
     8    O    1  px     Ryd( 4p)     0.00054
     9    O    1  px     Ryd( 5p)     0.00009
    10    O    1  py     Val( 2p)     1.77359
    11    O    1  py     Ryd( 3p)     0.01130
    12    O    1  py     Ryd( 4p)     0.00066
    13    O    1  py     Ryd( 5p)     0.00010
    14    O    1  pz     Val( 2p)     1.51362
    15    O    1  pz     Ryd( 3p)     0.00683
    16    O    1  pz     Ryd( 4p)     0.00042
    17    O    1  pz     Ryd( 5p)     0.00006
    18    O    1  dxy    Ryd( 3d)     0.00566
    19    O    1  dxy    Ryd( 4d)     0.00045
    20    O    1  dxy    Ryd( 5d)     0.00006
    21    O    1  dxz    Ryd( 3d)     0.01179
    22    O    1  dxz    Ryd( 4d)     0.00038
    23    O    1  dxz    Ryd( 5d)     0.00011
    24    O    1  dyz    Ryd( 3d)     0.01118
    25    O    1  dyz    Ryd( 4d)     0.00043
    26    O    1  dyz    Ryd( 5d)     0.00008
    27    O    1  dx2y2  Ryd( 3d)     0.00564
    28    O    1  dx2y2  Ryd( 4d)     0.00046
    29    O    1  dx2y2  Ryd( 5d)     0.00008
    30    O    1  dz2    Ryd( 3d)     0.01971
    31    O    1  dz2    Ryd( 4d)     0.00047
    32    O    1  dz2    Ryd( 5d)     0.00014
    33    O    1  f(0)   Ryd( 4f)     0.00092
    34    O    1  f(0)   Ryd( 5f)     0.00009
    35    O    1  f(C1)  Ryd( 4f)     0.00052
    36    O    1  f(C1)  Ryd( 5f)     0.00010
    37    O    1  f(S1)  Ryd( 4f)     0.00057
    38    O    1  f(S1)  Ryd( 5f)     0.00010
    39    O    1  f(C2)  Ryd( 4f)     0.00049
    40    O    1  f(C2)  Ryd( 5f)     0.00008
    41    O    1  f(S2)  Ryd( 4f)     0.00049
    42    O    1  f(S2)  Ryd( 5f)     0.00008
    43    O    1  f(C3)  Ryd( 4f)     0.00047
    44    O    1  f(C3)  Ryd( 5f)     0.00006
    45    O    1  f(S3)  Ryd( 4f)     0.00047
    46    O    1  f(S3)  Ryd( 5f)     0.00006

    47    C    2  S      Cor( 1S)     1.99932
    48    C    2  S      Val( 2S)     0.68858
    49    C    2  S      Ryd( 3S)     0.00539
    50    C    2  S      Ryd( 4S)     0.00011
    51    C    2  S      Ryd( 5S)     0.00009
    52    C    2  px     Val( 2p)     0.72826
    53    C    2  px     Ryd( 3p)     0.00470
    54    C    2  px     Ryd( 4p)     0.00049
    55    C    2  px     Ryd( 5p)     0.00013
    56    C    2  py     Val( 2p)     0.65039
    57    C    2  py     Ryd( 3p)     0.01336
    58    C    2  py     Ryd( 4p)     0.00030
    59    C    2  py     Ryd( 5p)     0.00021
    60    C    2  pz     Val( 2p)     0.71026
    61    C    2  pz     Ryd( 3p)     0.02301
    62    C    2  pz     Ryd( 4p)     0.00028
    63    C    2  pz     Ryd( 5p)     0.00016
    64    C    2  dxy    Ryd( 3d)     0.00621
    65    C    2  dxy    Ryd( 4d)     0.00021
    66    C    2  dxy    Ryd( 5d)     0.00017
    67    C    2  dxz    Ryd( 3d)     0.00842
    68    C    2  dxz    Ryd( 4d)     0.00026
    69    C    2  dxz    Ryd( 5d)     0.00019
    70    C    2  dyz    Ryd( 3d)     0.00994
    71    C    2  dyz    Ryd( 5d)     0.00020
    72    C    2  dyz    Ryd( 4d)     0.00025
    73    C    2  dx2y2  Ryd( 3d)     0.00400
    74    C    2  dx2y2  Ryd( 4d)     0.00039
    75    C    2  dx2y2  Ryd( 5d)     0.00012
    76    C    2  dz2    Ryd( 3d)     0.00483
    77    C    2  dz2    Ryd( 4d)     0.00030
    78    C    2  dz2    Ryd( 5d)     0.00016
    79    C    2  f(0)   Ryd( 4f)     0.00040
    80    C    2  f(0)   Ryd( 5f)     0.00016
    81    C    2  f(C1)  Ryd( 4f)     0.00034
    82    C    2  f(C1)  Ryd( 5f)     0.00020
    83    C    2  f(S1)  Ryd( 4f)     0.00050
    84    C    2  f(S1)  Ryd( 5f)     0.00015
    85    C    2  f(C2)  Ryd( 4f)     0.00042
    86    C    2  f(C2)  Ryd( 5f)     0.00013
    87    C    2  f(S2)  Ryd( 4f)     0.00051
    88    C    2  f(S2)  Ryd( 5f)     0.00013
    89    C    2  f(C3)  Ryd( 4f)     0.00036
    90    C    2  f(C3)  Ryd( 5f)     0.00023
    91    C    2  f(S3)  Ryd( 4f)     0.00032
    92    C    2  f(S3)  Ryd( 5f)     0.00016

    93    F    3  S      Cor( 1S)     1.99980
    94    F    3  S      Val( 2S)     1.84605
    95    F    3  S      Ryd( 3S)     0.00617
    96    F    3  S      Ryd( 4S)     0.00026
    97    F    3  S      Ryd( 5S)     0.00019
    98    F    3  px     Val( 2p)     1.87888
    99    F    3  px     Ryd( 3p)     0.01182
   100    F    3  px     Ryd( 4p)     0.00066
   101    F    3  px     Ryd( 5p)     0.00010
   102    F    3  py     Val( 2p)     1.69359
   103    F    3  py     Ryd( 3p)     0.00846
   104    F    3  py     Ryd( 4p)     0.00058
   105    F    3  py     Ryd( 5p)     0.00009
   106    F    3  pz     Val( 2p)     1.80994
   107    F    3  pz     Ryd( 3p)     0.00995
   108    F    3  pz     Ryd( 4p)     0.00062
   109    F    3  pz     Ryd( 5p)     0.00010
   110    F    3  dxy    Ryd( 3d)     0.00695
   111    F    3  dxy    Ryd( 4d)     0.00052
   112    F    3  dxy    Ryd( 5d)     0.00008
   113    F    3  dxz    Ryd( 3d)     0.00576
   114    F    3  dxz    Ryd( 4d)     0.00051
   115    F    3  dxz    Ryd( 5d)     0.00007
   116    F    3  dyz    Ryd( 3d)     0.00922
   117    F    3  dyz    Ryd( 4d)     0.00050
   118    F    3  dyz    Ryd( 5d)     0.00009
   119    F    3  dx2y2  Ryd( 3d)     0.00720
   120    F    3  dx2y2  Ryd( 4d)     0.00054
   121    F    3  dx2y2  Ryd( 5d)     0.00012
   122    F    3  dz2    Ryd( 3d)     0.00614
   123    F    3  dz2    Ryd( 4d)     0.00048
   124    F    3  dz2    Ryd( 5d)     0.00008
   125    F    3  f(0)   Ryd( 4f)     0.00051
   126    F    3  f(0)   Ryd( 5f)     0.00009
   127    F    3  f(C1)  Ryd( 4f)     0.00044
   128    F    3  f(C1)  Ryd( 5f)     0.00007
   129    F    3  f(S1)  Ryd( 4f)     0.00056
   130    F    3  f(S1)  Ryd( 5f)     0.00010
   131    F    3  f(C2)  Ryd( 4f)     0.00062
   132    F    3  f(C2)  Ryd( 5f)     0.00010
   133    F    3  f(S2)  Ryd( 4f)     0.00052
   134    F    3  f(S2)  Ryd( 5f)     0.00009
   135    F    3  f(C3)  Ryd( 4f)     0.00049
   136    F    3  f(C3)  Ryd( 5f)     0.00008
   137    F    3  f(S3)  Ryd( 4f)     0.00051
   138    F    3  f(S3)  Ryd( 5f)     0.00009

   139    F    4  S      Cor( 1S)     1.99980
   140    F    4  S      Val( 2S)     1.84607
   141    F    4  S      Ryd( 3S)     0.00617
   142    F    4  S      Ryd( 4S)     0.00026
   143    F    4  S      Ryd( 5S)     0.00019
   144    F    4  px     Val( 2p)     1.87886
   145    F    4  px     Ryd( 3p)     0.01182
   146    F    4  px     Ryd( 4p)     0.00066
   147    F    4  px     Ryd( 5p)     0.00010
   148    F    4  py     Val( 2p)     1.69360
   149    F    4  py     Ryd( 3p)     0.00846
   150    F    4  py     Ryd( 4p)     0.00058
   151    F    4  py     Ryd( 5p)     0.00009
   152    F    4  pz     Val( 2p)     1.80995
   153    F    4  pz     Ryd( 3p)     0.00995
   154    F    4  pz     Ryd( 4p)     0.00062
   155    F    4  pz     Ryd( 5p)     0.00010
   156    F    4  dxy    Ryd( 3d)     0.00695
   157    F    4  dxy    Ryd( 4d)     0.00052
   158    F    4  dxy    Ryd( 5d)     0.00008
   159    F    4  dxz    Ryd( 3d)     0.00576
   160    F    4  dxz    Ryd( 4d)     0.00051
   161    F    4  dxz    Ryd( 5d)     0.00007
   162    F    4  dyz    Ryd( 3d)     0.00922
   163    F    4  dyz    Ryd( 4d)     0.00050
   164    F    4  dyz    Ryd( 5d)     0.00009
   165    F    4  dx2y2  Ryd( 3d)     0.00720
   166    F    4  dx2y2  Ryd( 4d)     0.00054
   167    F    4  dx2y2  Ryd( 5d)     0.00012
   168    F    4  dz2    Ryd( 3d)     0.00614
   169    F    4  dz2    Ryd( 4d)     0.00048
   170    F    4  dz2    Ryd( 5d)     0.00008
   171    F    4  f(0)   Ryd( 4f)     0.00051
   172    F    4  f(0)   Ryd( 5f)     0.00009
   173    F    4  f(C1)  Ryd( 4f)     0.00044
   174    F    4  f(C1)  Ryd( 5f)     0.00007
   175    F    4  f(S1)  Ryd( 4f)     0.00056
   176    F    4  f(S1)  Ryd( 5f)     0.00010
   177    F    4  f(C2)  Ryd( 4f)     0.00062
   178    F    4  f(C2)  Ryd( 5f)     0.00010
   179    F    4  f(S2)  Ryd( 4f)     0.00052
   180    F    4  f(S2)  Ryd( 5f)     0.00009
   181    F    4  f(C3)  Ryd( 4f)     0.00049
   182    F    4  f(C3)  Ryd( 5f)     0.00008
   183    F    4  f(S3)  Ryd( 4f)     0.00051
   184    F    4  f(S3)  Ryd( 5f)     0.00009


 Summary of Natural Population Analysis:                  
                                                          
                                       Natural Population 
                Natural  -----------------------------------------------
    Atom  No    Charge         Core      Valence    Rydberg      Total
 -----------------------------------------------------------------------
      O    1   -0.51571      1.99949     6.42016    0.09606     8.51571
      C    2    1.13533      1.99932     2.77749    0.08786     4.86467
      F    3   -0.30980      1.99980     7.22846    0.08154     9.30980
      F    4   -0.30982      1.99980     7.22848    0.08154     9.30982
 =======================================================================
   * Total *   -0.00000      7.99841    23.65459    0.34700    32.00000

                                 Natural Population      
 --------------------------------------------------------
   Core                       7.99841 ( 99.9801% of   8)
   Valence                   23.65459 ( 98.5608% of  24)
   Natural Minimal Basis     31.65300 ( 98.9156% of  32)
   Natural Rydberg Basis      0.34700 (  1.0844% of  32)
 --------------------------------------------------------

    Atom  No          Natural Electron Configuration
 ----------------------------------------------------------------------------
      O    1      [core]2S( 1.71)2p( 4.71)3S( 0.01)3p( 0.03)3d( 0.05)
      C    2      [core]2S( 0.69)2p( 2.09)3S( 0.01)3p( 0.04)3d( 0.03)
      F    3      [core]2S( 1.85)2p( 5.38)3S( 0.01)3p( 0.03)3d( 0.04)
      F    4      [core]2S( 1.85)2p( 5.38)3S( 0.01)3p( 0.03)3d( 0.04)


 NBO analysis skipped by request.
 Unable to Open any file for archive entry.
 1\1\GINC-TRAPISTA\SP\RQCISD-FC\Aug-CC-pVTZ\C1F2O1\WAGNER\03-Sep-2022\0
 \\# qcisd/aug-cc-pvtz nosymm density=current pop=(chelpg,hirshfeld,npa
 ,dipole)\\f2co-wavefunction\\0,1\O,0,0.,0.,0.679927\C,0,0.,0.,-0.49221
 6\F,0,0.,-1.058878,-1.264305\F,0,-0.01,1.058878,-1.264305\\Version=EM6
 4L-G16RevC.01\HF=-311.7412332\MP2=-312.6371403\MP3=-312.6246401\MP4D=-
 312.6402403\MP4DQ=-312.6241831\MP4SDQ=-312.6357866\QCISD=-312.6352896\
 RMSD=8.282e-09\Dipole=0.002395,-0.0000555,-0.4064991\Quadrupole=1.3445
 722,-0.4486948,-0.8958774,0.0084685,-0.0093715,0.0001138\PG=C01 [X(C1F
 2O1)]\\@
 The archive entry for this job was punched.


 HEAVEN'S NET CASTS WIDE.
 THOUGH ITS MESHES ARE COARSE, NOTHING SLIPS THROUGH.

                                          -- LAO-TSU
 Job cpu time:       0 days  6 hours 21 minutes 55.7 seconds.
 Elapsed time:       0 days  0 hours 24 minutes  9.9 seconds.
 File lengths (MBytes):  RWF=  21297 Int=      0 D2E=      0 Chk=      4 Scr=      1
 Normal termination of Gaussian 16 at Sat Sep  3 06:54:28 2022.
