 Entering Gaussian System, Link 0=/home/bruns/programas/chemistry/gaussian/g09/g09
 Input=./br2co/br2co-opt.com
 Output=./br2co/br2co-opt.log
 Initial command:
 /home/bruns/programas/chemistry/gaussian/g09/l1.exe /home/bruns/programas/chemistry/gaussian/work/Gau-79351.inp -scrdir=/home/bruns/programas/chemistry/gaussian/work/
 Entering Link 1 = /home/bruns/programas/chemistry/gaussian/g09/l1.exe PID=     79353.
  
 Copyright (c) 1988,1990,1992,1993,1995,1998,2003,2009,2010,
            Gaussian, Inc.  All Rights Reserved.
  
 This is part of the Gaussian(R) 09 program.  It is based on
 the Gaussian(R) 03 system (copyright 2003, Gaussian, Inc.),
 the Gaussian(R) 98 system (copyright 1998, Gaussian, Inc.),
 the Gaussian(R) 94 system (copyright 1995, Gaussian, Inc.),
 the Gaussian 92(TM) system (copyright 1992, Gaussian, Inc.),
 the Gaussian 90(TM) system (copyright 1990, Gaussian, Inc.),
 the Gaussian 88(TM) system (copyright 1988, Gaussian, Inc.),
 the Gaussian 86(TM) system (copyright 1986, Carnegie Mellon
 University), and the Gaussian 82(TM) system (copyright 1983,
 Carnegie Mellon University). Gaussian is a federally registered
 trademark of Gaussian, Inc.
  
 This software contains proprietary and confidential information,
 including trade secrets, belonging to Gaussian, Inc.
  
 This software is provided under written license and may be
 used, copied, transmitted, or stored only in accord with that
 written license.
  
 The following legend is applicable only to US Government
 contracts under FAR:
  
                    RESTRICTED RIGHTS LEGEND
  
 Use, reproduction and disclosure by the US Government is
 subject to restrictions as set forth in subparagraphs (a)
 and (c) of the Commercial Computer Software - Restricted
 Rights clause in FAR 52.227-19.
  
 Gaussian, Inc.
 340 Quinnipiac St., Bldg. 40, Wallingford CT 06492
  
  
 ---------------------------------------------------------------
 Warning -- This program may not be used in any manner that
 competes with the business of Gaussian, Inc. or will provide
 assistance to any competitor of Gaussian, Inc.  The licensee
 of this program is prohibited from giving any competitor of
 Gaussian, Inc. access to this program.  By using this program,
 the user acknowledges that Gaussian, Inc. is engaged in the
 business of creating and licensing software in the field of
 computational chemistry and represents and warrants to the
 licensee that it is not a competitor of Gaussian, Inc. and that
 it will not use this program in any manner prohibited above.
 ---------------------------------------------------------------
  

 Cite this work as:
 Gaussian 09, Revision B.01,
 M. J. Frisch, G. W. Trucks, H. B. Schlegel, G. E. Scuseria, 
 M. A. Robb, J. R. Cheeseman, G. Scalmani, V. Barone, B. Mennucci, 
 G. A. Petersson, H. Nakatsuji, M. Caricato, X. Li, H. P. Hratchian, 
 A. F. Izmaylov, J. Bloino, G. Zheng, J. L. Sonnenberg, M. Hada, 
 M. Ehara, K. Toyota, R. Fukuda, J. Hasegawa, M. Ishida, T. Nakajima, 
 Y. Honda, O. Kitao, H. Nakai, T. Vreven, J. A. Montgomery, Jr., 
 J. E. Peralta, F. Ogliaro, M. Bearpark, J. J. Heyd, E. Brothers, 
 K. N. Kudin, V. N. Staroverov, T. Keith, R. Kobayashi, J. Normand, 
 K. Raghavachari, A. Rendell, J. C. Burant, S. S. Iyengar, J. Tomasi, 
 M. Cossi, N. Rega, J. M. Millam, M. Klene, J. E. Knox, J. B. Cross, 
 V. Bakken, C. Adamo, J. Jaramillo, R. Gomperts, R. E. Stratmann, 
 O. Yazyev, A. J. Austin, R. Cammi, C. Pomelli, J. W. Ochterski, 
 R. L. Martin, K. Morokuma, V. G. Zakrzewski, G. A. Voth, 
 P. Salvador, J. J. Dannenberg, S. Dapprich, A. D. Daniels, 
 O. Farkas, J. B. Foresman, J. V. Ortiz, J. Cioslowski, 
 and D. J. Fox, Gaussian, Inc., Wallingford CT, 2010.
 
 ******************************************
 Gaussian 09:  EM64L-G09RevB.01 12-Aug-2010
                18-Nov-2021 
 ******************************************
 %nproc=8
 Will use up to    8 processors via shared memory.
 %mem=8GB
 --------------------------------------------
 #opt qcisd/aug-cc-pvtz density=current nosym
 --------------------------------------------
 1/18=20,19=15,38=1/1,3;
 2/9=110,12=2,15=1,17=6,18=5,40=1/2;
 3/5=16,6=1,7=10,11=9,16=1,25=1,30=1,71=1/1,2,3;
 4//1;
 5/5=2,38=5/2;
 8/6=4,9=120000,10=1/1,4;
 9/5=8,15=1/13;
 11/28=-7,29=200,31=1,42=3/11;
 10/5=6,31=1/2;
 6/7=2,8=2,9=2,10=2,22=-1/1;
 7/12=7,30=1/1,2,3,16;
 1/18=20,19=15/3(2);
 2/9=110,15=1/2;
 99//99;
 2/9=110,15=1/2;
 3/5=16,6=1,7=10,11=9,16=1,25=1,30=1,71=1/1,2,3;
 4/5=5,16=3/1;
 5/5=2,38=5/2;
 8/6=4,9=120000,10=1/1,4;
 9/5=8,15=1/13;
 11/28=-7,29=200,31=1,42=3/11;
 10/5=6,31=1/2;
 7/12=7,30=1/1,2,3,16;
 1/18=20,19=15/3(-9);
 2/9=110,15=1/2;
 6/7=2,8=2,9=2,10=2,22=-1/1;
 99//99;
 -----
 br2co
 -----
 Symbolic Z-matrix:
 Charge =  0 Multiplicity = 1
 C                     0.        0.       -0.56233 
 Br                    0.       -1.65411  -1.51733 
 Br                    0.        1.65411  -1.51733 
 O                     0.        0.        0.69608 
 

 GradGradGradGradGradGradGradGradGradGradGradGradGradGradGradGradGradGrad
 Berny optimization.
 Initialization pass.
                           ----------------------------
                           !    Initial Parameters    !
                           ! (Angstroms and Degrees)  !
 --------------------------                            --------------------------
 ! Name  Definition              Value          Derivative Info.                !
 --------------------------------------------------------------------------------
 ! R1    R(1,2)                  1.91           estimate D2E/DX2                !
 ! R2    R(1,3)                  1.91           estimate D2E/DX2                !
 ! R3    R(1,4)                  1.2584         estimate D2E/DX2                !
 ! A1    A(2,1,3)              120.0            estimate D2E/DX2                !
 ! A2    A(2,1,4)              120.0            estimate D2E/DX2                !
 ! A3    A(3,1,4)              120.0            estimate D2E/DX2                !
 ! D1    D(2,1,4,3)            180.0            estimate D2E/DX2                !
 --------------------------------------------------------------------------------
 Trust Radius=3.00D-01 FncErr=1.00D-07 GrdErr=1.00D-07
 Number of steps in this run=     20 maximum allowed number of steps=    100.
 GradGradGradGradGradGradGradGradGradGradGradGradGradGradGradGradGradGrad

                          Input orientation:                          
 ---------------------------------------------------------------------
 Center     Atomic      Atomic             Coordinates (Angstroms)
 Number     Number       Type             X           Y           Z
 ---------------------------------------------------------------------
      1          6           0        0.000000    0.000000   -0.562325
      2         35           0        0.000000   -1.654109   -1.517325
      3         35           0        0.000000    1.654109   -1.517325
      4          8           0        0.000000    0.000000    0.696075
 ---------------------------------------------------------------------
                    Distance matrix (angstroms):
                    1          2          3          4
     1  C    0.000000
     2  Br   1.910000   0.000000
     3  Br   1.910000   3.308217   0.000000
     4  O    1.258400   2.763189   2.763189   0.000000
 Symmetry turned off by external request.
 Stoichiometry    CBr2O
 Framework group  C2V[C2(CO),SGV(Br2)]
 Deg. of freedom     3
 Full point group                 C2V     NOp   4
 Rotational constants (GHZ):      6.5220598      1.1702571      0.9922221
 Standard basis: Aug-CC-pVTZ (5D, 7F)
 Integral buffers will be    131072 words long.
 Raffenetti 1 integral format.
 Two-electron integral symmetry is turned off.
   210 basis functions,   578 primitive gaussians,   248 cartesian basis functions
    42 alpha electrons       42 beta electrons
       nuclear repulsion energy       439.7427823423 Hartrees.
 NAtoms=    4 NActive=    4 NUniq=    4 SFac= 1.00D+00 NAtFMM=   50 NAOKFM=F Big=F
 One-electron integrals computed using PRISM.
 NBasis=   210 RedAO= T  NBF=   210
 NBsUse=   210 1.00D-06 NBFU=   210
 Harris functional with IExCor=  205 diagonalized for initial guess.
 ExpMin= 3.51D-02 ExpMax= 1.06D+07 ExpMxC= 1.21D+04 IAcc=3 IRadAn=         0 AccDes= 0.00D+00
 HarFok:  IExCor=  205 AccDes= 0.00D+00 IRadAn=         0 IDoV= 1
 ScaDFX=  1.000000  1.000000  1.000000  1.000000
 FoFCou: FMM=F IPFlag=           0 FMFlag=      100000 FMFlg1=           0
         NFxFlg=           0 DoJE=T BraDBF=F KetDBF=T FulRan=T
         Omega=  0.000000  0.000000  1.000000  0.000000  0.000000 ICntrl=     500 IOpCl=  0
         NMat0=    1 NMatS0=    1 NMatT0=    0 NMatD0=    1 NMtDS0=    0 NMtDT0=    0
         I1Cent=           4 NGrid=           0.
 Symmetry not used in FoFCou.
 Requested convergence on RMS density matrix=1.00D-08 within 128 cycles.
 Requested convergence on MAX density matrix=1.00D-06.
 Requested convergence on             energy=1.00D-06.
 No special actions if energy rises.
 Keep R1 ints in memory in canonical form, NReq=484604278.
 SCF Done:  E(RHF) =  -5257.66630888     A.U. after   13 cycles
             Convg  =    0.5547D-08             -V/T =  2.0001
 ExpMin= 3.51D-02 ExpMax= 1.06D+07 ExpMxC= 1.21D+04 IAcc=3 IRadAn=         5 AccDes= 0.00D+00
 HarFok:  IExCor=  205 AccDes= 0.00D+00 IRadAn=         5 IDoV=-2
 ScaDFX=  1.000000  1.000000  1.000000  1.000000
 DSYEVD returned Info=          89 IAlg= 4 N=    59 NDim=    59 NE2=    18196533 trying DSYEV.
 Range of M.O.s used for correlation:    21   210
 NBasis=   210 NAE=    42 NBE=    42 NFC=    20 NFV=     0
 NROrb=    190 NOA=    22 NOB=    22 NVA=   168 NVB=   168

 **** Warning!!: The largest alpha MO coefficient is  0.26758677D+02

 Semi-Direct transformation.
 ModeAB=           2 MOrb=            22 LenV=    1072498079
 LASXX=     69628944 LTotXX=    69628944 LenRXX=    69628944
 LTotAB=    70719517 MaxLAS=   129061680 LenRXY=   129061680
 NonZer=   139257888 LenScr=   209707008 LnRSAI=           0
 LnScr1=           0 LExtra=           0 Total=    408397632
 MaxDsk=          -1 SrtSym=           F ITran=            4
 JobTyp=0 Pass  1:  I=   1 to  22.
 (rs|ai) integrals will be sorted in core.
 Spin components of T(2) and E(2):
     alpha-alpha T2 =       0.3957630685D-01 E2=     -0.1243486289D+00
     alpha-beta  T2 =       0.1995492809D+00 E2=     -0.6245716149D+00
     beta-beta   T2 =       0.3957630685D-01 E2=     -0.1243486289D+00
 ANorm=    0.1130797017D+01
 E2 =    -0.8732688728D+00 EUMP2 =    -0.52585395777539D+04
 R2 and R3 integrals will be kept in memory, NReq=   961077252.
 Iterations=  50 Convergence= 0.100D-07
 Iteration Nr.   1
 **********************
 DD1Dir will call FoFMem   1 times, MxPair=       506
 NAB=   253 NAA=     0 NBB=     0.
 MP4(R+Q)=  0.22335178D-01
 E3=        0.42018186D-02        EUMP3=      -0.52585353759D+04
 E4(DQ)=   -0.10817186D-02        UMP4(DQ)=   -0.52585364577D+04
 E4(SDQ)=  -0.14732712D-01        UMP4(SDQ)=  -0.52585501086D+04
 DE(Corr)= -0.84673188     E(Corr)=     -5258.5130408    
 NORM(A)=   0.11279985D+01
 Iteration Nr.   2
 **********************
 DD1Dir will call FoFMem   1 times, MxPair=       506
 NAB=   253 NAA=     0 NBB=     0.
 DE(Corr)= -0.88029813     E(CORR)=     -5258.5466070     Delta=-3.36D-02
 NORM(A)=   0.11395021D+01
 Iteration Nr.   3
 **********************
 DD1Dir will call FoFMem   1 times, MxPair=       506
 NAB=   253 NAA=     0 NBB=     0.
 DE(Corr)= -0.87716694     E(CORR)=     -5258.5434758     Delta= 3.13D-03
 NORM(A)=   0.11430566D+01
 Iteration Nr.   4
 **********************
 DD1Dir will call FoFMem   1 times, MxPair=       506
 NAB=   253 NAA=     0 NBB=     0.
 DE(Corr)= -0.88027358     E(CORR)=     -5258.5465825     Delta=-3.11D-03
 NORM(A)=   0.11448569D+01
 Iteration Nr.   5
 **********************
 DD1Dir will call FoFMem   1 times, MxPair=       506
 NAB=   253 NAA=     0 NBB=     0.
 DE(Corr)= -0.88079922     E(CORR)=     -5258.5471081     Delta=-5.26D-04
 NORM(A)=   0.11455989D+01
 Iteration Nr.   6
 **********************
 DD1Dir will call FoFMem   1 times, MxPair=       506
 NAB=   253 NAA=     0 NBB=     0.
 DE(Corr)= -0.88089044     E(CORR)=     -5258.5471993     Delta=-9.12D-05
 NORM(A)=   0.11457640D+01
 Iteration Nr.   7
 **********************
 DD1Dir will call FoFMem   1 times, MxPair=       506
 NAB=   253 NAA=     0 NBB=     0.
 DE(Corr)= -0.88091139     E(CORR)=     -5258.5472203     Delta=-2.09D-05
 NORM(A)=   0.11457683D+01
 Iteration Nr.   8
 **********************
 DD1Dir will call FoFMem   1 times, MxPair=       506
 NAB=   253 NAA=     0 NBB=     0.
 DE(Corr)= -0.88091732     E(CORR)=     -5258.5472262     Delta=-5.93D-06
 NORM(A)=   0.11457892D+01
 Iteration Nr.   9
 **********************
 DD1Dir will call FoFMem   1 times, MxPair=       506
 NAB=   253 NAA=     0 NBB=     0.
 DE(Corr)= -0.88091060     E(CORR)=     -5258.5472195     Delta= 6.72D-06
 NORM(A)=   0.11457857D+01
 Iteration Nr.  10
 **********************
 DD1Dir will call FoFMem   1 times, MxPair=       506
 NAB=   253 NAA=     0 NBB=     0.
 DE(Corr)= -0.88091470     E(CORR)=     -5258.5472236     Delta=-4.10D-06
 NORM(A)=   0.11457894D+01
 Iteration Nr.  11
 **********************
 DD1Dir will call FoFMem   1 times, MxPair=       506
 NAB=   253 NAA=     0 NBB=     0.
 DE(Corr)= -0.88091484     E(CORR)=     -5258.5472237     Delta=-1.44D-07
 NORM(A)=   0.11457922D+01
 Iteration Nr.  12
 **********************
 DD1Dir will call FoFMem   1 times, MxPair=       506
 NAB=   253 NAA=     0 NBB=     0.
 DE(Corr)= -0.88091601     E(CORR)=     -5258.5472249     Delta=-1.17D-06
 NORM(A)=   0.11457941D+01
 Iteration Nr.  13
 **********************
 DD1Dir will call FoFMem   1 times, MxPair=       506
 NAB=   253 NAA=     0 NBB=     0.
 DE(Corr)= -0.88091657     E(CORR)=     -5258.5472254     Delta=-5.56D-07
 NORM(A)=   0.11457955D+01
 Iteration Nr.  14
 **********************
 DD1Dir will call FoFMem   1 times, MxPair=       506
 NAB=   253 NAA=     0 NBB=     0.
 DE(Corr)= -0.88091689     E(CORR)=     -5258.5472258     Delta=-3.20D-07
 NORM(A)=   0.11457961D+01
 Iteration Nr.  15
 **********************
 DD1Dir will call FoFMem   1 times, MxPair=       506
 NAB=   253 NAA=     0 NBB=     0.
 DE(Corr)= -0.88091700     E(CORR)=     -5258.5472259     Delta=-1.10D-07
 NORM(A)=   0.11457964D+01
 Iteration Nr.  16
 **********************
 DD1Dir will call FoFMem   1 times, MxPair=       506
 NAB=   253 NAA=     0 NBB=     0.
 DE(Corr)= -0.88091705     E(CORR)=     -5258.5472259     Delta=-5.29D-08
 NORM(A)=   0.11457965D+01
 Iteration Nr.  17
 **********************
 DD1Dir will call FoFMem   1 times, MxPair=       506
 NAB=   253 NAA=     0 NBB=     0.
 DE(Corr)= -0.88091706     E(CORR)=     -5258.5472259     Delta=-8.80D-09
 NORM(A)=   0.11457965D+01
 Iteration Nr.  18
 **********************
 DD1Dir will call FoFMem   1 times, MxPair=       506
 NAB=   253 NAA=     0 NBB=     0.
 DE(Corr)= -0.88091705     E(CORR)=     -5258.5472259     Delta= 9.09D-09
 NORM(A)=   0.11457965D+01
 Iteration Nr.  19
 **********************
 DD1Dir will call FoFMem   1 times, MxPair=       506
 NAB=   253 NAA=     0 NBB=     0.
 DE(Corr)= -0.88091705     E(CORR)=     -5258.5472259     Delta=-4.32D-09
 NORM(A)=   0.11457965D+01
 Iteration Nr.  20
 **********************
 DD1Dir will call FoFMem   1 times, MxPair=       506
 NAB=   253 NAA=     0 NBB=     0.
 DE(Corr)= -0.88091705     E(CORR)=     -5258.5472259     Delta=-8.67D-10
 NORM(A)=   0.11457966D+01
 Iteration Nr.  21
 **********************
 DD1Dir will call FoFMem   1 times, MxPair=       506
 NAB=   253 NAA=     0 NBB=     0.
 DE(Corr)= -0.88091706     E(CORR)=     -5258.5472259     Delta=-2.52D-09
 NORM(A)=   0.11457966D+01
 Iteration Nr.  22
 **********************
 DD1Dir will call FoFMem   1 times, MxPair=       506
 NAB=   253 NAA=     0 NBB=     0.
 DE(Corr)= -0.88091706     E(CORR)=     -5258.5472259     Delta=-8.06D-10
 NORM(A)=   0.11457966D+01
 Largest amplitude= 6.42D-02

 Z-AMPLITUDE ITERATIONS

 Iteration Nr.   1
 **********************
 DD1Dir will call FoFMem   1 times, MxPair=       506
 NAB=   253 NAA=     0 NBB=     0.
 DE(Z)  -0.85200821D+00          E(Z)=    -0.52585183171D+04
 NORM(A)=   0.11458990D+01
 Iteration Nr.   2
 **********************
 DD1Dir will call FoFMem   1 times, MxPair=       506
 NAB=   253 NAA=     0 NBB=     0.
 DE(Z)  -0.85200700D+00          E(Z)=    -0.52585183159D+04
 NORM(A)=   0.11459903D+01
 Iteration Nr.   3
 **********************
 DD1Dir will call FoFMem   1 times, MxPair=       506
 NAB=   253 NAA=     0 NBB=     0.
 DE(Z)  -0.85200613D+00          E(Z)=    -0.52585183150D+04
 NORM(A)=   0.11462019D+01
 Iteration Nr.   4
 **********************
 DD1Dir will call FoFMem   1 times, MxPair=       506
 NAB=   253 NAA=     0 NBB=     0.
 DE(Z)  -0.85200323D+00          E(Z)=    -0.52585183121D+04
 NORM(A)=   0.11465962D+01
 Iteration Nr.   5
 **********************
 DD1Dir will call FoFMem   1 times, MxPair=       506
 NAB=   253 NAA=     0 NBB=     0.
 DE(Z)  -0.85200165D+00          E(Z)=    -0.52585183105D+04
 NORM(A)=   0.11350950D+01
 Iteration Nr.   6
 **********************
 DD1Dir will call FoFMem   1 times, MxPair=       506
 NAB=   253 NAA=     0 NBB=     0.
 DE(Z)  -0.85211562D+00          E(Z)=    -0.52585184245D+04
 NORM(A)=   0.11350995D+01
 Iteration Nr.   7
 **********************
 DD1Dir will call FoFMem   1 times, MxPair=       506
 NAB=   253 NAA=     0 NBB=     0.
 DE(Z)  -0.85211171D+00          E(Z)=    -0.52585184206D+04
 NORM(A)=   0.11351023D+01
 Iteration Nr.   8
 **********************
 DD1Dir will call FoFMem   1 times, MxPair=       506
 NAB=   253 NAA=     0 NBB=     0.
 DE(Z)  -0.85211306D+00          E(Z)=    -0.52585184219D+04
 NORM(A)=   0.11351035D+01
 Iteration Nr.   9
 **********************
 DD1Dir will call FoFMem   1 times, MxPair=       506
 NAB=   253 NAA=     0 NBB=     0.
 DE(Z)  -0.85211216D+00          E(Z)=    -0.52585184210D+04
 NORM(A)=   0.11351044D+01
 Iteration Nr.  10
 **********************
 DD1Dir will call FoFMem   1 times, MxPair=       506
 NAB=   253 NAA=     0 NBB=     0.
 DE(Z)  -0.85211183D+00          E(Z)=    -0.52585184207D+04
 NORM(A)=   0.11351048D+01
 Iteration Nr.  11
 **********************
 DD1Dir will call FoFMem   1 times, MxPair=       506
 NAB=   253 NAA=     0 NBB=     0.
 DE(Z)  -0.85211210D+00          E(Z)=    -0.52585184210D+04
 NORM(A)=   0.11351051D+01
 Iteration Nr.  12
 **********************
 DD1Dir will call FoFMem   1 times, MxPair=       506
 NAB=   253 NAA=     0 NBB=     0.
 DE(Z)  -0.85211208D+00          E(Z)=    -0.52585184210D+04
 NORM(A)=   0.11351053D+01
 Iteration Nr.  13
 **********************
 DD1Dir will call FoFMem   1 times, MxPair=       506
 NAB=   253 NAA=     0 NBB=     0.
 DE(Z)  -0.85211213D+00          E(Z)=    -0.52585184210D+04
 NORM(A)=   0.11351053D+01
 Iteration Nr.  14
 **********************
 DD1Dir will call FoFMem   1 times, MxPair=       506
 NAB=   253 NAA=     0 NBB=     0.
 DE(Z)  -0.85211213D+00          E(Z)=    -0.52585184210D+04
 NORM(A)=   0.11351053D+01
 Iteration Nr.  15
 **********************
 DD1Dir will call FoFMem   1 times, MxPair=       506
 NAB=   253 NAA=     0 NBB=     0.
 DE(Z)  -0.85211212D+00          E(Z)=    -0.52585184210D+04
 NORM(A)=   0.11351053D+01
 Iteration Nr.  16
 **********************
 DD1Dir will call FoFMem   1 times, MxPair=       506
 NAB=   253 NAA=     0 NBB=     0.
 DE(Z)  -0.85211212D+00          E(Z)=    -0.52585184210D+04
 NORM(A)=   0.11351053D+01
 Discarding MO integrals.
          IDoAtm=1111
          Differentiating once with respect to electric field.
                with respect to dipole field.
          Differentiating once with respect to nuclear coordinates.
          Keep R1 ints in memory in canonical form, NReq=478620425.
          There are     1 degrees of freedom in the 1st order CPHF.  IDoFFX=0.
 LinEq1:  Iter=  0 NonCon=     1 RMS=2.06D-03 Max=7.62D-02
 AX will form     1 AO Fock derivatives at one time.
 LinEq1:  Iter=  1 NonCon=     1 RMS=7.71D-04 Max=2.28D-02
 LinEq1:  Iter=  2 NonCon=     1 RMS=3.36D-04 Max=1.13D-02
 LinEq1:  Iter=  3 NonCon=     1 RMS=1.18D-04 Max=4.64D-03
 LinEq1:  Iter=  4 NonCon=     1 RMS=6.15D-05 Max=1.42D-03
 LinEq1:  Iter=  5 NonCon=     1 RMS=1.68D-05 Max=5.21D-04
 LinEq1:  Iter=  6 NonCon=     1 RMS=6.53D-06 Max=1.27D-04
 LinEq1:  Iter=  7 NonCon=     1 RMS=1.58D-06 Max=3.60D-05
 LinEq1:  Iter=  8 NonCon=     1 RMS=3.39D-07 Max=6.37D-06
 LinEq1:  Iter=  9 NonCon=     1 RMS=8.94D-08 Max=2.09D-06
 LinEq1:  Iter= 10 NonCon=     1 RMS=1.90D-08 Max=4.27D-07
 LinEq1:  Iter= 11 NonCon=     1 RMS=5.60D-09 Max=1.45D-07
 LinEq1:  Iter= 12 NonCon=     1 RMS=1.10D-09 Max=2.24D-08
 LinEq1:  Iter= 13 NonCon=     1 RMS=1.68D-10 Max=3.74D-09
 LinEq1:  Iter= 14 NonCon=     0 RMS=2.15D-11 Max=4.32D-10
 Linear equations converged to 1.000D-10 1.000D-09 after    14 iterations.
 End of Minotr Frequency-dependent properties file   721 does not exist.
 End of Minotr Frequency-dependent properties file   722 does not exist.

 **********************************************************************

            Population analysis using the QCI/CC density.

 **********************************************************************

 Alpha  occ. eigenvalues -- -490.07470-490.07470 -65.21437 -65.21437 -58.56975
 Alpha  occ. eigenvalues --  -58.56975 -58.56818 -58.56818 -58.56800 -58.56800
 Alpha  occ. eigenvalues --  -20.61857 -11.47301  -9.88720  -9.88719  -7.49921
 Alpha  occ. eigenvalues --   -7.49921  -7.49172  -7.49172  -7.49098  -7.49098
 Alpha  occ. eigenvalues --   -3.24330  -3.24329  -3.23959  -3.23957  -3.23860
 Alpha  occ. eigenvalues --   -3.23859  -3.22909  -3.22909  -3.22907  -3.22906
 Alpha  occ. eigenvalues --   -1.42147  -1.10807  -1.05553  -0.79072  -0.65998
 Alpha  occ. eigenvalues --   -0.65459  -0.59602  -0.47634  -0.46613  -0.45773
 Alpha  occ. eigenvalues --   -0.45562  -0.44020
 Alpha virt. eigenvalues --    0.03412   0.05439   0.06108   0.07044   0.08242
 Alpha virt. eigenvalues --    0.08863   0.10070   0.10141   0.10839   0.12251
 Alpha virt. eigenvalues --    0.13056   0.13074   0.17331   0.19249   0.21384
 Alpha virt. eigenvalues --    0.22046   0.23469   0.24267   0.26208   0.27313
 Alpha virt. eigenvalues --    0.27361   0.27609   0.32520   0.32562   0.34599
 Alpha virt. eigenvalues --    0.36731   0.36815   0.39958   0.41140   0.43216
 Alpha virt. eigenvalues --    0.45602   0.46677   0.46978   0.48931   0.49374
 Alpha virt. eigenvalues --    0.50992   0.55663   0.55947   0.59571   0.61530
 Alpha virt. eigenvalues --    0.62085   0.62788   0.67214   0.69571   0.70009
 Alpha virt. eigenvalues --    0.71845   0.74834   0.75337   0.76498   0.79221
 Alpha virt. eigenvalues --    0.79789   0.80792   0.83040   0.84613   0.88149
 Alpha virt. eigenvalues --    0.89040   0.89435   0.89764   0.90233   0.92781
 Alpha virt. eigenvalues --    0.95178   0.97782   0.98870   1.01245   1.03894
 Alpha virt. eigenvalues --    1.05520   1.08303   1.10353   1.13019   1.13114
 Alpha virt. eigenvalues --    1.13763   1.14672   1.20134   1.27960   1.31908
 Alpha virt. eigenvalues --    1.34159   1.38567   1.41647   1.42375   1.44438
 Alpha virt. eigenvalues --    1.45187   1.45440   1.50214   1.50847   1.55551
 Alpha virt. eigenvalues --    1.62070   1.63612   1.68325   1.74114   1.86288
 Alpha virt. eigenvalues --    1.93236   2.09981   2.15526   2.16194   2.17160
 Alpha virt. eigenvalues --    2.17245   2.22590   2.23862   2.24762   2.26193
 Alpha virt. eigenvalues --    2.26725   2.27115   2.27900   2.29074   2.29250
 Alpha virt. eigenvalues --    2.29283   2.31364   2.31957   2.32298   2.33474
 Alpha virt. eigenvalues --    2.34225   2.36182   2.36599   2.36952   2.37655
 Alpha virt. eigenvalues --    2.38081   2.39368   2.39554   2.45472   2.48083
 Alpha virt. eigenvalues --    2.53284   2.54022   2.55184   2.56351   2.62005
 Alpha virt. eigenvalues --    2.66783   2.73222   2.73482   2.75875   2.83517
 Alpha virt. eigenvalues --    2.93091   3.03995   3.06341   3.09284   3.41228
 Alpha virt. eigenvalues --    3.53251   3.58870   3.60831   3.63647   3.65845
 Alpha virt. eigenvalues --    3.69395   3.84244   3.84924   3.93043   3.94089
 Alpha virt. eigenvalues --    4.05104   4.07580   4.34961   4.37018   4.91574
 Alpha virt. eigenvalues --    4.92898   5.03328   5.15376   5.45632   6.57921
 Alpha virt. eigenvalues --    6.59322   6.83418   6.85525   6.95136   7.11101
 Alpha virt. eigenvalues --    7.12645   7.16030   7.30043   7.49393   7.58097
 Alpha virt. eigenvalues --    7.69038  12.23147  13.93364
          Condensed to atoms (all electrons):
              1          2          3          4
     1  C    5.751845  -0.024160  -0.024160   0.179771
     2  Br  -0.024160  35.015414  -0.088379  -0.041490
     3  Br  -0.024160  -0.088379  35.015414  -0.041490
     4  O    0.179771  -0.041490  -0.041490   8.297143
 Mulliken atomic charges:
              1
     1  C    0.116704
     2  Br   0.138615
     3  Br   0.138615
     4  O   -0.393934
 Sum of Mulliken atomic charges =   0.00000
 Mulliken charges with hydrogens summed into heavy atoms:
              1
     1  C    0.116704
     2  Br   0.138615
     3  Br   0.138615
     4  O   -0.393934
 Sum of Mulliken charges with hydrogens summed into heavy atoms =   0.00000
 Electronic spatial extent (au):  <R**2>=           1382.9571
 Charge=              0.0000 electrons
 Dipole moment (field-independent basis, Debye):
    X=              0.0000    Y=              0.0000    Z=             -1.6930  Tot=              1.6930
 Quadrupole moment (field-independent basis, Debye-Ang):
   XX=            -47.0839   YY=            -43.6776   ZZ=            -47.6164
   XY=              0.0000   XZ=              0.0000   YZ=              0.0000
 Traceless Quadrupole moment (field-independent basis, Debye-Ang):
   XX=             -0.9579   YY=              2.4484   ZZ=             -1.4904
   XY=              0.0000   XZ=              0.0000   YZ=              0.0000
 Octapole moment (field-independent basis, Debye-Ang**2):
  XXX=              0.0000  YYY=              0.0000  ZZZ=            163.1889  XYY=              0.0000
  XXY=              0.0000  XXZ=             55.2316  XZZ=              0.0000  YZZ=              0.0000
  YYZ=             43.2181  XYZ=              0.0000
 Hexadecapole moment (field-independent basis, Debye-Ang**3):
 XXXX=            -53.7548 YYYY=           -595.7647 ZZZZ=           -585.0283 XXXY=              0.0000
 XXXZ=              0.0000 YYYX=              0.0000 YYYZ=              0.0000 ZZZX=              0.0000
 ZZZY=              0.0000 XXYY=           -117.7624 XXZZ=           -107.5795 YYZZ=           -178.7597
 XXYZ=              0.0000 YYXZ=              0.0000 ZZXY=              0.0000
 N-N= 4.397427823423D+02 E-N=-1.345076145851D+04  KE= 5.256906771535D+03
 Calling FoFJK, ICntrl=      2127 FMM=F ISym2X=0 I1Cent= 0 IOpClX= 0 NMat=1 NMatS=1 NMatT=0.
 -------------------------------------------------------------------
 Center     Atomic                   Forces (Hartrees/Bohr)
 Number     Number              X              Y              Z
 -------------------------------------------------------------------
      1        6           0.000000000    0.000000000    0.107019711
      2       35           0.000000000    0.011531414   -0.001563852
      3       35           0.000000000   -0.011531414   -0.001563852
      4        8           0.000000000    0.000000000   -0.103892007
 -------------------------------------------------------------------
 Cartesian Forces:  Max     0.107019711 RMS     0.043318208

 GradGradGradGradGradGradGradGradGradGradGradGradGradGradGradGradGradGrad
 Berny optimization.
 Internal  Forces:  Max     0.103892007 RMS     0.040361380
 Search for a local minimum.
 Step number   1 out of a maximum of   20
 All quantities printed in internal units (Hartrees-Bohrs-Radians)
 Mixed Optimization -- RFO/linear search
 Second derivative matrix not updated -- first step.
 The second derivative matrix:
                          R1        R2        R3        A1        A2
           R1           0.17771
           R2           0.00000   0.17771
           R3           0.00000   0.00000   0.80209
           A1           0.00000   0.00000   0.00000   0.25000
           A2           0.00000   0.00000   0.00000   0.00000   0.25000
           A3           0.00000   0.00000   0.00000   0.00000   0.00000
           D1           0.00000   0.00000   0.00000   0.00000   0.00000
                          A3        D1
           A3           0.25000
           D1           0.00000   0.03565
 ITU=  0
     Eigenvalues ---    0.03565   0.17771   0.17771   0.25000   0.25000
     Eigenvalues ---    0.80209
 RFO step:  Lambda=-1.57308377D-02 EMin= 3.56487685D-02
 Linear search not attempted -- first point.
 Iteration  1 RMS(Cart)=  0.06325142 RMS(Int)=  0.00108717
 Iteration  2 RMS(Cart)=  0.00096517 RMS(Int)=  0.00000027
 Iteration  3 RMS(Cart)=  0.00000041 RMS(Int)=  0.00000000
 Variable       Old X    -DE/DX   Delta X   Delta X   Delta X     New X
                                 (Linear)    (Quad)   (Total)
    R1        3.60938  -0.00920   0.00000  -0.04758  -0.04758   3.56179
    R2        3.60938  -0.00920   0.00000  -0.04758  -0.04758   3.56179
    R3        2.37803  -0.10389   0.00000  -0.12704  -0.12704   2.25100
    A1        2.09440  -0.01713   0.00000  -0.06447  -0.06447   2.02992
    A2        2.09440   0.00857   0.00000   0.03224   0.03224   2.12663
    A3        2.09440   0.00857   0.00000   0.03224   0.03224   2.12663
    D1        3.14159   0.00000   0.00000   0.00000   0.00000   3.14159
         Item               Value     Threshold  Converged?
 Maximum Force            0.103892     0.000450     NO 
 RMS     Force            0.040361     0.000300     NO 
 Maximum Displacement     0.100212     0.001800     NO 
 RMS     Displacement     0.063560     0.001200     NO 
 Predicted change in Energy=-8.077016D-03
 GradGradGradGradGradGradGradGradGradGradGradGradGradGradGradGradGradGrad

                          Input orientation:                          
 ---------------------------------------------------------------------
 Center     Atomic      Atomic             Coordinates (Angstroms)
 Number     Number       Type             X           Y           Z
 ---------------------------------------------------------------------
      1          6           0        0.000000    0.000000   -0.525753
      2         35           0        0.000000   -1.601079   -1.520285
      3         35           0        0.000000    1.601079   -1.520285
      4          8           0        0.000000    0.000000    0.665422
 ---------------------------------------------------------------------
                    Distance matrix (angstroms):
                    1          2          3          4
     1  C    0.000000
     2  Br   1.884820   0.000000
     3  Br   1.884820   3.202158   0.000000
     4  O    1.191176   2.709385   2.709385   0.000000
 Symmetry turned off by external request.
 Stoichiometry    CBr2O
 Framework group  C2V[C2(CO),SGV(Br2)]
 Deg. of freedom     3
 Full point group                 C2V     NOp   4
 Rotational constants (GHZ):      6.6107531      1.2490616      1.0505639
 Standard basis: Aug-CC-pVTZ (5D, 7F)
 Integral buffers will be    131072 words long.
 Raffenetti 1 integral format.
 Two-electron integral symmetry is turned off.
   210 basis functions,   578 primitive gaussians,   248 cartesian basis functions
    42 alpha electrons       42 beta electrons
       nuclear repulsion energy       451.0562548346 Hartrees.
 NAtoms=    4 NActive=    4 NUniq=    4 SFac= 1.00D+00 NAtFMM=   50 NAOKFM=F Big=F
 One-electron integrals computed using PRISM.
 NBasis=   210 RedAO= T  NBF=   210
 NBsUse=   210 1.00D-06 NBFU=   210
 Initial guess read from the read-write file.
 B after Tr=     0.000000    0.000000    0.000000
         Rot=    1.000000    0.000000    0.000000    0.000000 Ang=   0.00 deg.
 Harris functional with IExCor=  205 diagonalized for initial guess.
 ExpMin= 3.51D-02 ExpMax= 1.06D+07 ExpMxC= 1.21D+04 IAcc=3 IRadAn=         0 AccDes= 0.00D+00
 HarFok:  IExCor=  205 AccDes= 0.00D+00 IRadAn=         0 IDoV= 1
 ScaDFX=  1.000000  1.000000  1.000000  1.000000
 FoFCou: FMM=F IPFlag=           0 FMFlag=      100000 FMFlg1=           0
         NFxFlg=           0 DoJE=T BraDBF=F KetDBF=T FulRan=T
         Omega=  0.000000  0.000000  1.000000  0.000000  0.000000 ICntrl=     500 IOpCl=  0
         NMat0=    1 NMatS0=    1 NMatT0=    0 NMatD0=    1 NMtDS0=    0 NMtDT0=    0
         I1Cent=           4 NGrid=           0.
 Symmetry not used in FoFCou.
 Requested convergence on RMS density matrix=1.00D-08 within 128 cycles.
 Requested convergence on MAX density matrix=1.00D-06.
 Requested convergence on             energy=1.00D-06.
 No special actions if energy rises.
 Keep R1 ints in memory in canonical form, NReq=484604278.
 SCF Done:  E(RHF) =  -5257.68266281     A.U. after   11 cycles
             Convg  =    0.4264D-08             -V/T =  2.0000
 ExpMin= 3.51D-02 ExpMax= 1.06D+07 ExpMxC= 1.21D+04 IAcc=3 IRadAn=         5 AccDes= 0.00D+00
 HarFok:  IExCor=  205 AccDes= 0.00D+00 IRadAn=         5 IDoV=-2
 ScaDFX=  1.000000  1.000000  1.000000  1.000000
 DSYEVD returned Info=          89 IAlg= 4 N=    59 NDim=    59 NE2=    18196533 trying DSYEV.
 Range of M.O.s used for correlation:    21   210
 NBasis=   210 NAE=    42 NBE=    42 NFC=    20 NFV=     0
 NROrb=    190 NOA=    22 NOB=    22 NVA=   168 NVB=   168

 **** Warning!!: The largest alpha MO coefficient is  0.28892625D+02

 Semi-Direct transformation.
 ModeAB=           2 MOrb=            22 LenV=    1072496927
 LASXX=     69628944 LTotXX=    69628944 LenRXX=    69628944
 LTotAB=    70719517 MaxLAS=   129061680 LenRXY=   129061680
 NonZer=   139257888 LenScr=   209707008 LnRSAI=           0
 LnScr1=           0 LExtra=           0 Total=    408397632
 MaxDsk=          -1 SrtSym=           F ITran=            4
 JobTyp=0 Pass  1:  I=   1 to  22.
 (rs|ai) integrals will be sorted in core.
 Spin components of T(2) and E(2):
     alpha-alpha T2 =       0.3833671324D-01 E2=     -0.1235361043D+00
     alpha-beta  T2 =       0.1922406213D+00 E2=     -0.6181433149D+00
     beta-beta   T2 =       0.3833671324D-01 E2=     -0.1235361043D+00
 ANorm=    0.1126460851D+01
 E2 =    -0.8652155236D+00 EUMP2 =    -0.52585478783323D+04
 R2 and R3 integrals will be kept in memory, NReq=   961077252.
 Iterations=  50 Convergence= 0.100D-07
 Iteration Nr.   1
 **********************
 DD1Dir will call FoFMem   1 times, MxPair=       506
 NAB=   253 NAA=     0 NBB=     0.
 MP4(R+Q)=  0.21417326D-01
 E3=        0.67320279D-03        EUMP3=      -0.52585472051D+04
 E4(DQ)=    0.95625466D-04        UMP4(DQ)=   -0.52585471095D+04
 E4(SDQ)=  -0.11947696D-01        UMP4(SDQ)=  -0.52585591528D+04
 DE(Corr)= -0.84312500     E(Corr)=     -5258.5257878    
 NORM(A)=   0.11245827D+01
 Iteration Nr.   2
 **********************
 DD1Dir will call FoFMem   1 times, MxPair=       506
 NAB=   253 NAA=     0 NBB=     0.
 DE(Corr)= -0.87322237     E(CORR)=     -5258.5558852     Delta=-3.01D-02
 NORM(A)=   0.11349906D+01
 Iteration Nr.   3
 **********************
 DD1Dir will call FoFMem   1 times, MxPair=       506
 NAB=   253 NAA=     0 NBB=     0.
 DE(Corr)= -0.87105835     E(CORR)=     -5258.5537212     Delta= 2.16D-03
 NORM(A)=   0.11377824D+01
 Iteration Nr.   4
 **********************
 DD1Dir will call FoFMem   1 times, MxPair=       506
 NAB=   253 NAA=     0 NBB=     0.
 DE(Corr)= -0.87361151     E(CORR)=     -5258.5562743     Delta=-2.55D-03
 NORM(A)=   0.11391233D+01
 Iteration Nr.   5
 **********************
 DD1Dir will call FoFMem   1 times, MxPair=       506
 NAB=   253 NAA=     0 NBB=     0.
 DE(Corr)= -0.87399688     E(CORR)=     -5258.5566597     Delta=-3.85D-04
 NORM(A)=   0.11396506D+01
 Iteration Nr.   6
 **********************
 DD1Dir will call FoFMem   1 times, MxPair=       506
 NAB=   253 NAA=     0 NBB=     0.
 DE(Corr)= -0.87406284     E(CORR)=     -5258.5567257     Delta=-6.60D-05
 NORM(A)=   0.11397594D+01
 Iteration Nr.   7
 **********************
 DD1Dir will call FoFMem   1 times, MxPair=       506
 NAB=   253 NAA=     0 NBB=     0.
 DE(Corr)= -0.87407756     E(CORR)=     -5258.5567404     Delta=-1.47D-05
 NORM(A)=   0.11397661D+01
 Iteration Nr.   8
 **********************
 DD1Dir will call FoFMem   1 times, MxPair=       506
 NAB=   253 NAA=     0 NBB=     0.
 DE(Corr)= -0.87407864     E(CORR)=     -5258.5567415     Delta=-1.09D-06
 NORM(A)=   0.11397811D+01
 Iteration Nr.   9
 **********************
 DD1Dir will call FoFMem   1 times, MxPair=       506
 NAB=   253 NAA=     0 NBB=     0.
 DE(Corr)= -0.87407608     E(CORR)=     -5258.5567389     Delta= 2.57D-06
 NORM(A)=   0.11397805D+01
 Iteration Nr.  10
 **********************
 DD1Dir will call FoFMem   1 times, MxPair=       506
 NAB=   253 NAA=     0 NBB=     0.
 DE(Corr)= -0.87407784     E(CORR)=     -5258.5567406     Delta=-1.76D-06
 NORM(A)=   0.11397832D+01
 Iteration Nr.  11
 **********************
 DD1Dir will call FoFMem   1 times, MxPair=       506
 NAB=   253 NAA=     0 NBB=     0.
 DE(Corr)= -0.87407879     E(CORR)=     -5258.5567416     Delta=-9.55D-07
 NORM(A)=   0.11397851D+01
 Iteration Nr.  12
 **********************
 DD1Dir will call FoFMem   1 times, MxPair=       506
 NAB=   253 NAA=     0 NBB=     0.
 DE(Corr)= -0.87407924     E(CORR)=     -5258.5567420     Delta=-4.43D-07
 NORM(A)=   0.11397862D+01
 Iteration Nr.  13
 **********************
 DD1Dir will call FoFMem   1 times, MxPair=       506
 NAB=   253 NAA=     0 NBB=     0.
 DE(Corr)= -0.87407968     E(CORR)=     -5258.5567425     Delta=-4.45D-07
 NORM(A)=   0.11397870D+01
 Iteration Nr.  14
 **********************
 DD1Dir will call FoFMem   1 times, MxPair=       506
 NAB=   253 NAA=     0 NBB=     0.
 DE(Corr)= -0.87407983     E(CORR)=     -5258.5567426     Delta=-1.48D-07
 NORM(A)=   0.11397873D+01
 Iteration Nr.  15
 **********************
 DD1Dir will call FoFMem   1 times, MxPair=       506
 NAB=   253 NAA=     0 NBB=     0.
 DE(Corr)= -0.87407990     E(CORR)=     -5258.5567427     Delta=-6.74D-08
 NORM(A)=   0.11397875D+01
 Iteration Nr.  16
 **********************
 DD1Dir will call FoFMem   1 times, MxPair=       506
 NAB=   253 NAA=     0 NBB=     0.
 DE(Corr)= -0.87407993     E(CORR)=     -5258.5567427     Delta=-3.25D-08
 NORM(A)=   0.11397875D+01
 Iteration Nr.  17
 **********************
 DD1Dir will call FoFMem   1 times, MxPair=       506
 NAB=   253 NAA=     0 NBB=     0.
 DE(Corr)= -0.87407993     E(CORR)=     -5258.5567427     Delta= 3.63D-10
 NORM(A)=   0.11397876D+01
 Iteration Nr.  18
 **********************
 DD1Dir will call FoFMem   1 times, MxPair=       506
 NAB=   253 NAA=     0 NBB=     0.
 DE(Corr)= -0.87407993     E(CORR)=     -5258.5567427     Delta=-1.04D-10
 NORM(A)=   0.11397876D+01
 Iteration Nr.  19
 **********************
 DD1Dir will call FoFMem   1 times, MxPair=       506
 NAB=   253 NAA=     0 NBB=     0.
 DE(Corr)= -0.87407993     E(CORR)=     -5258.5567427     Delta=-1.05D-09
 NORM(A)=   0.11397876D+01
 Iteration Nr.  20
 **********************
 DD1Dir will call FoFMem   1 times, MxPair=       506
 NAB=   253 NAA=     0 NBB=     0.
 DE(Corr)= -0.87407993     E(CORR)=     -5258.5567427     Delta=-2.10D-10
 NORM(A)=   0.11397876D+01
 Largest amplitude= 4.41D-02

 Z-AMPLITUDE ITERATIONS

 Iteration Nr.   1
 **********************
 DD1Dir will call FoFMem   1 times, MxPair=       506
 NAB=   253 NAA=     0 NBB=     0.
 DE(Z)  -0.84695524D+00          E(Z)=    -0.52585296181D+04
 NORM(A)=   0.11405562D+01
 Iteration Nr.   2
 **********************
 DD1Dir will call FoFMem   1 times, MxPair=       506
 NAB=   253 NAA=     0 NBB=     0.
 DE(Z)  -0.84695643D+00          E(Z)=    -0.52585296192D+04
 NORM(A)=   0.11402803D+01
 Iteration Nr.   3
 **********************
 DD1Dir will call FoFMem   1 times, MxPair=       506
 NAB=   253 NAA=     0 NBB=     0.
 DE(Z)  -0.84695573D+00          E(Z)=    -0.52585296185D+04
 NORM(A)=   0.11378112D+01
 Iteration Nr.   4
 **********************
 DD1Dir will call FoFMem   1 times, MxPair=       506
 NAB=   253 NAA=     0 NBB=     0.
 DE(Z)  -0.84695387D+00          E(Z)=    -0.52585296167D+04
 NORM(A)=   0.11420006D+01
 Iteration Nr.   5
 **********************
 DD1Dir will call FoFMem   1 times, MxPair=       506
 NAB=   253 NAA=     0 NBB=     0.
 DE(Z)  -0.84696326D+00          E(Z)=    -0.52585296261D+04
 NORM(A)=   0.11300048D+01
 Iteration Nr.   6
 **********************
 DD1Dir will call FoFMem   1 times, MxPair=       506
 NAB=   253 NAA=     0 NBB=     0.
 DE(Z)  -0.84692934D+00          E(Z)=    -0.52585295922D+04
 NORM(A)=   0.11300059D+01
 Iteration Nr.   7
 **********************
 DD1Dir will call FoFMem   1 times, MxPair=       506
 NAB=   253 NAA=     0 NBB=     0.
 DE(Z)  -0.84692534D+00          E(Z)=    -0.52585295881D+04
 NORM(A)=   0.11300067D+01
 Iteration Nr.   8
 **********************
 DD1Dir will call FoFMem   1 times, MxPair=       506
 NAB=   253 NAA=     0 NBB=     0.
 DE(Z)  -0.84692749D+00          E(Z)=    -0.52585295903D+04
 NORM(A)=   0.11300073D+01
 Iteration Nr.   9
 **********************
 DD1Dir will call FoFMem   1 times, MxPair=       506
 NAB=   253 NAA=     0 NBB=     0.
 DE(Z)  -0.84692704D+00          E(Z)=    -0.52585295898D+04
 NORM(A)=   0.11300077D+01
 Iteration Nr.  10
 **********************
 DD1Dir will call FoFMem   1 times, MxPair=       506
 NAB=   253 NAA=     0 NBB=     0.
 DE(Z)  -0.84692713D+00          E(Z)=    -0.52585295899D+04
 NORM(A)=   0.11300079D+01
 Iteration Nr.  11
 **********************
 DD1Dir will call FoFMem   1 times, MxPair=       506
 NAB=   253 NAA=     0 NBB=     0.
 DE(Z)  -0.84692715D+00          E(Z)=    -0.52585295900D+04
 NORM(A)=   0.11300079D+01
 Iteration Nr.  12
 **********************
 DD1Dir will call FoFMem   1 times, MxPair=       506
 NAB=   253 NAA=     0 NBB=     0.
 DE(Z)  -0.84692715D+00          E(Z)=    -0.52585295900D+04
 NORM(A)=   0.11300080D+01
 Iteration Nr.  13
 **********************
 DD1Dir will call FoFMem   1 times, MxPair=       506
 NAB=   253 NAA=     0 NBB=     0.
 DE(Z)  -0.84692715D+00          E(Z)=    -0.52585295900D+04
 NORM(A)=   0.11300080D+01
 Iteration Nr.  14
 **********************
 DD1Dir will call FoFMem   1 times, MxPair=       506
 NAB=   253 NAA=     0 NBB=     0.
 DE(Z)  -0.84692715D+00          E(Z)=    -0.52585295900D+04
 NORM(A)=   0.11300080D+01
 Discarding MO integrals.
          IDoAtm=1111
          Differentiating once with respect to electric field.
                with respect to dipole field.
          Differentiating once with respect to nuclear coordinates.
          Keep R1 ints in memory in canonical form, NReq=478620425.
          There are     1 degrees of freedom in the 1st order CPHF.  IDoFFX=0.
 LinEq1:  Iter=  0 NonCon=     1 RMS=1.96D-03 Max=5.97D-02
 AX will form     1 AO Fock derivatives at one time.
 LinEq1:  Iter=  1 NonCon=     1 RMS=7.37D-04 Max=2.56D-02
 LinEq1:  Iter=  2 NonCon=     1 RMS=3.09D-04 Max=9.53D-03
 LinEq1:  Iter=  3 NonCon=     1 RMS=1.03D-04 Max=3.18D-03
 LinEq1:  Iter=  4 NonCon=     1 RMS=5.28D-05 Max=1.51D-03
 LinEq1:  Iter=  5 NonCon=     1 RMS=1.64D-05 Max=4.31D-04
 LinEq1:  Iter=  6 NonCon=     1 RMS=6.32D-06 Max=1.33D-04
 LinEq1:  Iter=  7 NonCon=     1 RMS=1.37D-06 Max=2.20D-05
 LinEq1:  Iter=  8 NonCon=     1 RMS=2.72D-07 Max=4.59D-06
 LinEq1:  Iter=  9 NonCon=     1 RMS=6.85D-08 Max=1.17D-06
 LinEq1:  Iter= 10 NonCon=     1 RMS=1.46D-08 Max=2.32D-07
 LinEq1:  Iter= 11 NonCon=     1 RMS=4.12D-09 Max=9.24D-08
 LinEq1:  Iter= 12 NonCon=     1 RMS=7.56D-10 Max=1.73D-08
 LinEq1:  Iter= 13 NonCon=     1 RMS=1.23D-10 Max=2.83D-09
 LinEq1:  Iter= 14 NonCon=     0 RMS=1.73D-11 Max=3.71D-10
 Linear equations converged to 1.000D-10 1.000D-09 after    14 iterations.
 End of Minotr Frequency-dependent properties file   721 does not exist.
 End of Minotr Frequency-dependent properties file   722 does not exist.
 Calling FoFJK, ICntrl=      2127 FMM=F ISym2X=0 I1Cent= 0 IOpClX= 0 NMat=1 NMatS=1 NMatT=0.
 -------------------------------------------------------------------
 Center     Atomic                   Forces (Hartrees/Bohr)
 Number     Number              X              Y              Z
 -------------------------------------------------------------------
      1        6           0.000000000    0.000000000    0.031309060
      2       35           0.000000000   -0.004396840   -0.007346902
      3       35           0.000000000    0.004396840   -0.007346902
      4        8           0.000000000    0.000000000   -0.016615256
 -------------------------------------------------------------------
 Cartesian Forces:  Max     0.031309060 RMS     0.010812579

 GradGradGradGradGradGradGradGradGradGradGradGradGradGradGradGradGradGrad
 Berny optimization.
 Using GEDIIS/GDIIS optimizer.
 Internal  Forces:  Max     0.016615256 RMS     0.008635144
 Search for a local minimum.
 Step number   2 out of a maximum of   20
 All quantities printed in internal units (Hartrees-Bohrs-Radians)
 Mixed Optimization -- RFO/linear search
 Update second derivatives using D2CorX and points    1    2
 DE= -9.52D-03 DEPred=-8.08D-03 R= 1.18D+00
 SS=  1.41D+00  RLast= 1.64D-01 DXNew= 5.0454D-01 4.9205D-01
 Trust test= 1.18D+00 RLast= 1.64D-01 DXMaxT set to 4.92D-01
 The second derivative matrix:
                          R1        R2        R3        A1        A2
           R1           0.19407
           R2           0.01636   0.19407
           R3           0.05288   0.05288   0.69043
           A1           0.00088   0.00088  -0.05651   0.23758
           A2          -0.00044  -0.00044   0.02825   0.00621   0.24689
           A3          -0.00044  -0.00044   0.02825   0.00621  -0.00311
           D1           0.00000   0.00000   0.00000   0.00000   0.00000
                          A3        D1
           A3           0.24689
           D1           0.00000   0.03565
 ITU=  1  0
 Use linear search instead of GDIIS.
     Eigenvalues ---    0.03565   0.17771   0.19401   0.22672   0.25000
     Eigenvalues ---    0.71150
 RFO step:  Lambda=-1.59206530D-03 EMin= 3.56487685D-02
 Quartic linear search produced a step of  0.13399.
 Iteration  1 RMS(Cart)=  0.02946868 RMS(Int)=  0.00048852
 Iteration  2 RMS(Cart)=  0.00075098 RMS(Int)=  0.00000017
 Iteration  3 RMS(Cart)=  0.00000015 RMS(Int)=  0.00000000
 Variable       Old X    -DE/DX   Delta X   Delta X   Delta X     New X
                                 (Linear)    (Quad)   (Total)
    R1        3.56179   0.00761  -0.00638   0.05490   0.04852   3.61032
    R2        3.56179   0.00761  -0.00638   0.05490   0.04852   3.61032
    R3        2.25100  -0.01662  -0.01702  -0.01646  -0.03348   2.21751
    A1        2.02992  -0.00931  -0.00864  -0.03488  -0.04352   1.98640
    A2        2.12663   0.00466   0.00432   0.01744   0.02176   2.14839
    A3        2.12663   0.00466   0.00432   0.01744   0.02176   2.14839
    D1        3.14159   0.00000   0.00000   0.00000   0.00000   3.14159
         Item               Value     Threshold  Converged?
 Maximum Force            0.016615     0.000450     NO 
 RMS     Force            0.008635     0.000300     NO 
 Maximum Displacement     0.054310     0.001800     NO 
 RMS     Displacement     0.029780     0.001200     NO 
 Predicted change in Energy=-9.925477D-04
 GradGradGradGradGradGradGradGradGradGradGradGradGradGradGradGradGradGrad

                          Input orientation:                          
 ---------------------------------------------------------------------
 Center     Atomic      Atomic             Coordinates (Angstroms)
 Number     Number       Type             X           Y           Z
 ---------------------------------------------------------------------
      1          6           0        0.000000    0.000000   -0.497014
      2         35           0        0.000000   -1.600573   -1.540165
      3         35           0        0.000000    1.600573   -1.540165
      4          8           0        0.000000    0.000000    0.676444
 ---------------------------------------------------------------------
                    Distance matrix (angstroms):
                    1          2          3          4
     1  C    0.000000
     2  Br   1.910497   0.000000
     3  Br   1.910497   3.201145   0.000000
     4  O    1.173457   2.734079   2.734079   0.000000
 Symmetry turned off by external request.
 Stoichiometry    CBr2O
 Framework group  C2V[C2(CO),SGV(Br2)]
 Deg. of freedom     3
 Full point group                 C2V     NOp   4
 Rotational constants (GHZ):      6.3760025      1.2498518      1.0450053
 Standard basis: Aug-CC-pVTZ (5D, 7F)
 Integral buffers will be    131072 words long.
 Raffenetti 1 integral format.
 Two-electron integral symmetry is turned off.
   210 basis functions,   578 primitive gaussians,   248 cartesian basis functions
    42 alpha electrons       42 beta electrons
       nuclear repulsion energy       448.8695877547 Hartrees.
 NAtoms=    4 NActive=    4 NUniq=    4 SFac= 1.00D+00 NAtFMM=   50 NAOKFM=F Big=F
 One-electron integrals computed using PRISM.
 NBasis=   210 RedAO= T  NBF=   210
 NBsUse=   210 1.00D-06 NBFU=   210
 Initial guess read from the read-write file.
 B after Tr=     0.000000    0.000000    0.000000
         Rot=    1.000000    0.000000    0.000000    0.000000 Ang=   0.00 deg.
 Harris functional with IExCor=  205 diagonalized for initial guess.
 ExpMin= 3.51D-02 ExpMax= 1.06D+07 ExpMxC= 1.21D+04 IAcc=3 IRadAn=         0 AccDes= 0.00D+00
 HarFok:  IExCor=  205 AccDes= 0.00D+00 IRadAn=         0 IDoV= 1
 ScaDFX=  1.000000  1.000000  1.000000  1.000000
 FoFCou: FMM=F IPFlag=           0 FMFlag=      100000 FMFlg1=           0
         NFxFlg=           0 DoJE=T BraDBF=F KetDBF=T FulRan=T
         Omega=  0.000000  0.000000  1.000000  0.000000  0.000000 ICntrl=     500 IOpCl=  0
         NMat0=    1 NMatS0=    1 NMatT0=    0 NMatD0=    1 NMtDS0=    0 NMtDT0=    0
         I1Cent=           4 NGrid=           0.
 Symmetry not used in FoFCou.
 Requested convergence on RMS density matrix=1.00D-08 within 128 cycles.
 Requested convergence on MAX density matrix=1.00D-06.
 Requested convergence on             energy=1.00D-06.
 No special actions if energy rises.
 Keep R1 ints in memory in canonical form, NReq=484604278.
 SCF Done:  E(RHF) =  -5257.68489757     A.U. after   11 cycles
             Convg  =    0.5305D-08             -V/T =  2.0000
 ExpMin= 3.51D-02 ExpMax= 1.06D+07 ExpMxC= 1.21D+04 IAcc=3 IRadAn=         5 AccDes= 0.00D+00
 HarFok:  IExCor=  205 AccDes= 0.00D+00 IRadAn=         5 IDoV=-2
 ScaDFX=  1.000000  1.000000  1.000000  1.000000
 DSYEVD returned Info=         119 IAlg= 4 N=    59 NDim=    59 NE2=    18196533 trying DSYEV.
 DSYEVD returned Info=          89 IAlg= 4 N=    59 NDim=    59 NE2=    18196533 trying DSYEV.
 Range of M.O.s used for correlation:    21   210
 NBasis=   210 NAE=    42 NBE=    42 NFC=    20 NFV=     0
 NROrb=    190 NOA=    22 NOB=    22 NVA=   168 NVB=   168

 **** Warning!!: The largest alpha MO coefficient is  0.28268951D+02

 Semi-Direct transformation.
 ModeAB=           2 MOrb=            22 LenV=    1072497235
 LASXX=     69628944 LTotXX=    69628944 LenRXX=    69628944
 LTotAB=    70719517 MaxLAS=   129061680 LenRXY=   129061680
 NonZer=   139257888 LenScr=   209707008 LnRSAI=           0
 LnScr1=           0 LExtra=           0 Total=    408397632
 MaxDsk=          -1 SrtSym=           F ITran=            4
 JobTyp=0 Pass  1:  I=   1 to  22.
 (rs|ai) integrals will be sorted in core.
 Spin components of T(2) and E(2):
     alpha-alpha T2 =       0.3824639116D-01 E2=     -0.1232001188D+00
     alpha-beta  T2 =       0.1921425805D+00 E2=     -0.6171363800D+00
     beta-beta   T2 =       0.3824639116D-01 E2=     -0.1232001188D+00
 ANorm=    0.1126337144D+01
 E2 =    -0.8635366176D+00 EUMP2 =    -0.52585484341893D+04
 R2 and R3 integrals will be kept in memory, NReq=   961077252.
 Iterations=  50 Convergence= 0.100D-07
 Iteration Nr.   1
 **********************
 DD1Dir will call FoFMem   1 times, MxPair=       506
 NAB=   253 NAA=     0 NBB=     0.
 MP4(R+Q)=  0.21436099D-01
 E3=       -0.94291279D-04        EUMP3=      -0.52585485285D+04
 E4(DQ)=    0.32373351D-03        UMP4(DQ)=   -0.52585482047D+04
 E4(SDQ)=  -0.11559755D-01        UMP4(SDQ)=  -0.52585600882D+04
 DE(Corr)= -0.84219481     E(Corr)=     -5258.5270924    
 NORM(A)=   0.11246941D+01
 Iteration Nr.   2
 **********************
 DD1Dir will call FoFMem   1 times, MxPair=       506
 NAB=   253 NAA=     0 NBB=     0.
 DE(Corr)= -0.87191742     E(CORR)=     -5258.5568150     Delta=-2.97D-02
 NORM(A)=   0.11350482D+01
 Iteration Nr.   3
 **********************
 DD1Dir will call FoFMem   1 times, MxPair=       506
 NAB=   253 NAA=     0 NBB=     0.
 DE(Corr)= -0.86986450     E(CORR)=     -5258.5547621     Delta= 2.05D-03
 NORM(A)=   0.11377803D+01
 Iteration Nr.   4
 **********************
 DD1Dir will call FoFMem   1 times, MxPair=       506
 NAB=   253 NAA=     0 NBB=     0.
 DE(Corr)= -0.87237006     E(CORR)=     -5258.5572676     Delta=-2.51D-03
 NORM(A)=   0.11390773D+01
 Iteration Nr.   5
 **********************
 DD1Dir will call FoFMem   1 times, MxPair=       506
 NAB=   253 NAA=     0 NBB=     0.
 DE(Corr)= -0.87273935     E(CORR)=     -5258.5576369     Delta=-3.69D-04
 NORM(A)=   0.11395863D+01
 Iteration Nr.   6
 **********************
 DD1Dir will call FoFMem   1 times, MxPair=       506
 NAB=   253 NAA=     0 NBB=     0.
 DE(Corr)= -0.87280297     E(CORR)=     -5258.5577005     Delta=-6.36D-05
 NORM(A)=   0.11396888D+01
 Iteration Nr.   7
 **********************
 DD1Dir will call FoFMem   1 times, MxPair=       506
 NAB=   253 NAA=     0 NBB=     0.
 DE(Corr)= -0.87281711     E(CORR)=     -5258.5577147     Delta=-1.41D-05
 NORM(A)=   0.11396978D+01
 Iteration Nr.   8
 **********************
 DD1Dir will call FoFMem   1 times, MxPair=       506
 NAB=   253 NAA=     0 NBB=     0.
 DE(Corr)= -0.87281729     E(CORR)=     -5258.5577149     Delta=-1.75D-07
 NORM(A)=   0.11397126D+01
 Iteration Nr.   9
 **********************
 DD1Dir will call FoFMem   1 times, MxPair=       506
 NAB=   253 NAA=     0 NBB=     0.
 DE(Corr)= -0.87281551     E(CORR)=     -5258.5577131     Delta= 1.78D-06
 NORM(A)=   0.11397126D+01
 Iteration Nr.  10
 **********************
 DD1Dir will call FoFMem   1 times, MxPair=       506
 NAB=   253 NAA=     0 NBB=     0.
 DE(Corr)= -0.87281686     E(CORR)=     -5258.5577144     Delta=-1.35D-06
 NORM(A)=   0.11397153D+01
 Iteration Nr.  11
 **********************
 DD1Dir will call FoFMem   1 times, MxPair=       506
 NAB=   253 NAA=     0 NBB=     0.
 DE(Corr)= -0.87281800     E(CORR)=     -5258.5577156     Delta=-1.14D-06
 NORM(A)=   0.11397171D+01
 Iteration Nr.  12
 **********************
 DD1Dir will call FoFMem   1 times, MxPair=       506
 NAB=   253 NAA=     0 NBB=     0.
 DE(Corr)= -0.87281831     E(CORR)=     -5258.5577159     Delta=-3.04D-07
 NORM(A)=   0.11397181D+01
 Iteration Nr.  13
 **********************
 DD1Dir will call FoFMem   1 times, MxPair=       506
 NAB=   253 NAA=     0 NBB=     0.
 DE(Corr)= -0.87281877     E(CORR)=     -5258.5577163     Delta=-4.58D-07
 NORM(A)=   0.11397188D+01
 Iteration Nr.  14
 **********************
 DD1Dir will call FoFMem   1 times, MxPair=       506
 NAB=   253 NAA=     0 NBB=     0.
 DE(Corr)= -0.87281887     E(CORR)=     -5258.5577164     Delta=-1.09D-07
 NORM(A)=   0.11397191D+01
 Iteration Nr.  15
 **********************
 DD1Dir will call FoFMem   1 times, MxPair=       506
 NAB=   253 NAA=     0 NBB=     0.
 DE(Corr)= -0.87281894     E(CORR)=     -5258.5577165     Delta=-6.69D-08
 NORM(A)=   0.11397193D+01
 Iteration Nr.  16
 **********************
 DD1Dir will call FoFMem   1 times, MxPair=       506
 NAB=   253 NAA=     0 NBB=     0.
 DE(Corr)= -0.87281897     E(CORR)=     -5258.5577165     Delta=-3.06D-08
 NORM(A)=   0.11397193D+01
 Iteration Nr.  17
 **********************
 DD1Dir will call FoFMem   1 times, MxPair=       506
 NAB=   253 NAA=     0 NBB=     0.
 DE(Corr)= -0.87281897     E(CORR)=     -5258.5577165     Delta= 3.32D-09
 NORM(A)=   0.11397193D+01
 Iteration Nr.  18
 **********************
 DD1Dir will call FoFMem   1 times, MxPair=       506
 NAB=   253 NAA=     0 NBB=     0.
 DE(Corr)= -0.87281897     E(CORR)=     -5258.5577165     Delta=-9.26D-10
 NORM(A)=   0.11397193D+01
 Iteration Nr.  19
 **********************
 DD1Dir will call FoFMem   1 times, MxPair=       506
 NAB=   253 NAA=     0 NBB=     0.
 DE(Corr)= -0.87281897     E(CORR)=     -5258.5577165     Delta=-5.71D-09
 NORM(A)=   0.11397193D+01
 Iteration Nr.  20
 **********************
 DD1Dir will call FoFMem   1 times, MxPair=       506
 NAB=   253 NAA=     0 NBB=     0.
 DE(Corr)= -0.87281897     E(CORR)=     -5258.5577165     Delta= 5.03D-10
 NORM(A)=   0.11397193D+01
 Iteration Nr.  21
 **********************
 DD1Dir will call FoFMem   1 times, MxPair=       506
 NAB=   253 NAA=     0 NBB=     0.
 DE(Corr)= -0.87281897     E(CORR)=     -5258.5577165     Delta=-3.50D-10
 NORM(A)=   0.11397193D+01
 Iteration Nr.  22
 **********************
 DD1Dir will call FoFMem   1 times, MxPair=       506
 NAB=   253 NAA=     0 NBB=     0.
 DE(Corr)= -0.87281897     E(CORR)=     -5258.5577165     Delta= 5.76D-10
 NORM(A)=   0.11397193D+01
 Largest amplitude= 4.08D-02

 Z-AMPLITUDE ITERATIONS

 Iteration Nr.   1
 **********************
 DD1Dir will call FoFMem   1 times, MxPair=       506
 NAB=   253 NAA=     0 NBB=     0.
 DE(Z)  -0.84571595D+00          E(Z)=    -0.52585306135D+04
 NORM(A)=   0.11413225D+01
 Iteration Nr.   2
 **********************
 DD1Dir will call FoFMem   1 times, MxPair=       506
 NAB=   253 NAA=     0 NBB=     0.
 DE(Z)  -0.84571968D+00          E(Z)=    -0.52585306173D+04
 NORM(A)=   0.11401436D+01
 Iteration Nr.   3
 **********************
 DD1Dir will call FoFMem   1 times, MxPair=       506
 NAB=   253 NAA=     0 NBB=     0.
 DE(Z)  -0.84571677D+00          E(Z)=    -0.52585306143D+04
 NORM(A)=   0.11419906D+01
 Iteration Nr.   4
 **********************
 DD1Dir will call FoFMem   1 times, MxPair=       506
 NAB=   253 NAA=     0 NBB=     0.
 DE(Z)  -0.84571986D+00          E(Z)=    -0.52585306174D+04
 NORM(A)=   0.11416676D+01
 Iteration Nr.   5
 **********************
 DD1Dir will call FoFMem   1 times, MxPair=       506
 NAB=   253 NAA=     0 NBB=     0.
 DE(Z)  -0.84572477D+00          E(Z)=    -0.52585306223D+04
 NORM(A)=   0.11299002D+01
 Iteration Nr.   6
 **********************
 DD1Dir will call FoFMem   1 times, MxPair=       506
 NAB=   253 NAA=     0 NBB=     0.
 DE(Z)  -0.84567992D+00          E(Z)=    -0.52585305775D+04
 NORM(A)=   0.11299008D+01
 Iteration Nr.   7
 **********************
 DD1Dir will call FoFMem   1 times, MxPair=       506
 NAB=   253 NAA=     0 NBB=     0.
 DE(Z)  -0.84567786D+00          E(Z)=    -0.52585305754D+04
 NORM(A)=   0.11299013D+01
 Iteration Nr.   8
 **********************
 DD1Dir will call FoFMem   1 times, MxPair=       506
 NAB=   253 NAA=     0 NBB=     0.
 DE(Z)  -0.84567820D+00          E(Z)=    -0.52585305758D+04
 NORM(A)=   0.11299013D+01
 Iteration Nr.   9
 **********************
 DD1Dir will call FoFMem   1 times, MxPair=       506
 NAB=   253 NAA=     0 NBB=     0.
 DE(Z)  -0.84567782D+00          E(Z)=    -0.52585305754D+04
 NORM(A)=   0.11299015D+01
 Iteration Nr.  10
 **********************
 DD1Dir will call FoFMem   1 times, MxPair=       506
 NAB=   253 NAA=     0 NBB=     0.
 DE(Z)  -0.84567787D+00          E(Z)=    -0.52585305754D+04
 NORM(A)=   0.11299016D+01
 Iteration Nr.  11
 **********************
 DD1Dir will call FoFMem   1 times, MxPair=       506
 NAB=   253 NAA=     0 NBB=     0.
 DE(Z)  -0.84567788D+00          E(Z)=    -0.52585305755D+04
 NORM(A)=   0.11299016D+01
 Iteration Nr.  12
 **********************
 DD1Dir will call FoFMem   1 times, MxPair=       506
 NAB=   253 NAA=     0 NBB=     0.
 DE(Z)  -0.84567789D+00          E(Z)=    -0.52585305755D+04
 NORM(A)=   0.11299017D+01
 Iteration Nr.  13
 **********************
 DD1Dir will call FoFMem   1 times, MxPair=       506
 NAB=   253 NAA=     0 NBB=     0.
 DE(Z)  -0.84567789D+00          E(Z)=    -0.52585305755D+04
 NORM(A)=   0.11299017D+01
 Iteration Nr.  14
 **********************
 DD1Dir will call FoFMem   1 times, MxPair=       506
 NAB=   253 NAA=     0 NBB=     0.
 DE(Z)  -0.84567789D+00          E(Z)=    -0.52585305755D+04
 NORM(A)=   0.11299017D+01
 Discarding MO integrals.
          IDoAtm=1111
          Differentiating once with respect to electric field.
                with respect to dipole field.
          Differentiating once with respect to nuclear coordinates.
          Keep R1 ints in memory in canonical form, NReq=478620425.
          There are     1 degrees of freedom in the 1st order CPHF.  IDoFFX=0.
 LinEq1:  Iter=  0 NonCon=     1 RMS=1.95D-03 Max=5.48D-02
 AX will form     1 AO Fock derivatives at one time.
 LinEq1:  Iter=  1 NonCon=     1 RMS=7.38D-04 Max=2.61D-02
 LinEq1:  Iter=  2 NonCon=     1 RMS=3.08D-04 Max=9.12D-03
 LinEq1:  Iter=  3 NonCon=     1 RMS=1.02D-04 Max=2.87D-03
 LinEq1:  Iter=  4 NonCon=     1 RMS=5.27D-05 Max=1.61D-03
 LinEq1:  Iter=  5 NonCon=     1 RMS=1.63D-05 Max=4.55D-04
 LinEq1:  Iter=  6 NonCon=     1 RMS=6.24D-06 Max=1.27D-04
 LinEq1:  Iter=  7 NonCon=     1 RMS=1.33D-06 Max=2.10D-05
 LinEq1:  Iter=  8 NonCon=     1 RMS=2.64D-07 Max=4.21D-06
 LinEq1:  Iter=  9 NonCon=     1 RMS=6.38D-08 Max=1.18D-06
 LinEq1:  Iter= 10 NonCon=     1 RMS=1.36D-08 Max=2.07D-07
 LinEq1:  Iter= 11 NonCon=     1 RMS=3.84D-09 Max=9.46D-08
 LinEq1:  Iter= 12 NonCon=     1 RMS=7.08D-10 Max=1.59D-08
 LinEq1:  Iter= 13 NonCon=     1 RMS=1.19D-10 Max=2.64D-09
 LinEq1:  Iter= 14 NonCon=     0 RMS=1.83D-11 Max=4.23D-10
 Linear equations converged to 1.000D-10 1.000D-09 after    14 iterations.
 End of Minotr Frequency-dependent properties file   721 does not exist.
 End of Minotr Frequency-dependent properties file   722 does not exist.
 Calling FoFJK, ICntrl=      2127 FMM=F ISym2X=0 I1Cent= 0 IOpClX= 0 NMat=1 NMatS=1 NMatT=0.
 -------------------------------------------------------------------
 Center     Atomic                   Forces (Hartrees/Bohr)
 Number     Number              X              Y              Z
 -------------------------------------------------------------------
      1        6          -0.000000001    0.000000000   -0.003445610
      2       35           0.000000000    0.000373007   -0.001327011
      3       35           0.000000000   -0.000373007   -0.001327011
      4        8           0.000000001    0.000000000    0.006099632
 -------------------------------------------------------------------
 Cartesian Forces:  Max     0.006099632 RMS     0.002099165

 GradGradGradGradGradGradGradGradGradGradGradGradGradGradGradGradGradGrad
 Berny optimization.
 Using GEDIIS/GDIIS optimizer.
 Internal  Forces:  Max     0.006099632 RMS     0.002740716
 Search for a local minimum.
 Step number   3 out of a maximum of   20
 All quantities printed in internal units (Hartrees-Bohrs-Radians)
 Mixed Optimization -- RFO/linear search
 Update second derivatives using D2CorX and points    1    2    3
 DE= -9.74D-04 DEPred=-9.93D-04 R= 9.81D-01
 SS=  1.41D+00  RLast= 9.31D-02 DXNew= 8.2753D-01 2.7935D-01
 Trust test= 9.81D-01 RLast= 9.31D-02 DXMaxT set to 4.92D-01
 The second derivative matrix:
                          R1        R2        R3        A1        A2
           R1           0.18514
           R2           0.00743   0.18514
           R3           0.04153   0.04153   0.90319
           A1           0.01155   0.01155  -0.05355   0.22209
           A2          -0.00577  -0.00577   0.02677   0.01396   0.24302
           A3          -0.00577  -0.00577   0.02677   0.01396  -0.00698
           D1           0.00000   0.00000   0.00000   0.00000   0.00000
                          A3        D1
           A3           0.24302
           D1           0.00000   0.03565
 ITU=  1  1  0
 Use linear search instead of GDIIS.
     Eigenvalues ---    0.03565   0.16882   0.17771   0.22130   0.25000
     Eigenvalues ---    0.91377
 RFO step:  Lambda=-1.00083182D-04 EMin= 3.56487685D-02
 Quartic linear search produced a step of  0.02272.
 Iteration  1 RMS(Cart)=  0.01155705 RMS(Int)=  0.00004778
 Iteration  2 RMS(Cart)=  0.00004962 RMS(Int)=  0.00000000
 Iteration  3 RMS(Cart)=  0.00000000 RMS(Int)=  0.00000000
 Variable       Old X    -DE/DX   Delta X   Delta X   Delta X     New X
                                 (Linear)    (Quad)   (Total)
    R1        3.61032   0.00041   0.00110   0.00116   0.00226   3.61258
    R2        3.61032   0.00041   0.00110   0.00116   0.00226   3.61258
    R3        2.21751   0.00610  -0.00076   0.00605   0.00529   2.22281
    A1        1.98640  -0.00317  -0.00099  -0.01310  -0.01409   1.97231
    A2        2.14839   0.00158   0.00049   0.00655   0.00705   2.15544
    A3        2.14839   0.00158   0.00049   0.00655   0.00705   2.15544
    D1        3.14159   0.00000   0.00000   0.00000   0.00000   3.14159
         Item               Value     Threshold  Converged?
 Maximum Force            0.006100     0.000450     NO 
 RMS     Force            0.002741     0.000300     NO 
 Maximum Displacement     0.015223     0.001800     NO 
 RMS     Displacement     0.011579     0.001200     NO 
 Predicted change in Energy=-5.055533D-05
 GradGradGradGradGradGradGradGradGradGradGradGradGradGradGradGradGradGrad

                          Input orientation:                          
 ---------------------------------------------------------------------
 Center     Atomic      Atomic             Coordinates (Angstroms)
 Number     Number       Type             X           Y           Z
 ---------------------------------------------------------------------
      1          6           0        0.000000    0.000000   -0.491759
      2         35           0        0.000000   -1.594181   -1.546820
      3         35           0        0.000000    1.594181   -1.546820
      4          8           0        0.000000    0.000000    0.684500
 ---------------------------------------------------------------------
                    Distance matrix (angstroms):
                    1          2          3          4
     1  C    0.000000
     2  Br   1.911693   0.000000
     3  Br   1.911693   3.188362   0.000000
     4  O    1.176258   2.742299   2.742299   0.000000
 Symmetry turned off by external request.
 Stoichiometry    CBr2O
 Framework group  CS[SG(CO),X(Br2)]
 Deg. of freedom     4
 Full point group                 CS      NOp   2
 Rotational constants (GHZ):      6.2847835      1.2598938      1.0495028
 Standard basis: Aug-CC-pVTZ (5D, 7F)
 Integral buffers will be    131072 words long.
 Raffenetti 1 integral format.
 Two-electron integral symmetry is turned off.
   210 basis functions,   578 primitive gaussians,   248 cartesian basis functions
    42 alpha electrons       42 beta electrons
       nuclear repulsion energy       449.2322760683 Hartrees.
 NAtoms=    4 NActive=    4 NUniq=    4 SFac= 1.00D+00 NAtFMM=   50 NAOKFM=F Big=F
 One-electron integrals computed using PRISM.
 NBasis=   210 RedAO= T  NBF=   210
 NBsUse=   210 1.00D-06 NBFU=   210
 Initial guess read from the read-write file.
 B after Tr=     0.000000    0.000000    0.000000
         Rot=    1.000000    0.000000    0.000000    0.000000 Ang=   0.00 deg.
 Requested convergence on RMS density matrix=1.00D-08 within 128 cycles.
 Requested convergence on MAX density matrix=1.00D-06.
 Requested convergence on             energy=1.00D-06.
 No special actions if energy rises.
 Keep R1 ints in memory in canonical form, NReq=484604278.
 SCF Done:  E(RHF) =  -5257.68454943     A.U. after    9 cycles
             Convg  =    0.5084D-08             -V/T =  2.0000
 ExpMin= 3.51D-02 ExpMax= 1.06D+07 ExpMxC= 1.21D+04 IAcc=3 IRadAn=         5 AccDes= 0.00D+00
 HarFok:  IExCor=  205 AccDes= 0.00D+00 IRadAn=         5 IDoV=-2
 ScaDFX=  1.000000  1.000000  1.000000  1.000000
 DSYEVD returned Info=          93 IAlg= 4 N=    46 NDim=    46 NE2=    18196533 trying DSYEV.
 Range of M.O.s used for correlation:    21   210
 NBasis=   210 NAE=    42 NBE=    42 NFC=    20 NFV=     0
 NROrb=    190 NOA=    22 NOB=    22 NVA=   168 NVB=   168

 **** Warning!!: The largest alpha MO coefficient is  0.28109622D+02

 Semi-Direct transformation.
 ModeAB=           2 MOrb=            22 LenV=    1072497277
 LASXX=     69628944 LTotXX=    69628944 LenRXX=    69628944
 LTotAB=    70719517 MaxLAS=   129061680 LenRXY=   129061680
 NonZer=   139257888 LenScr=   209707008 LnRSAI=           0
 LnScr1=           0 LExtra=           0 Total=    408397632
 MaxDsk=          -1 SrtSym=           F ITran=            4
 JobTyp=0 Pass  1:  I=   1 to  22.
 (rs|ai) integrals will be sorted in core.
 Spin components of T(2) and E(2):
     alpha-alpha T2 =       0.3832195619D-01 E2=     -0.1232778955D+00
     alpha-beta  T2 =       0.1924923008D+00 E2=     -0.6175052671D+00
     beta-beta   T2 =       0.3832195619D-01 E2=     -0.1232778955D+00
 ANorm=    0.1126559458D+01
 E2 =    -0.8640610581D+00 EUMP2 =    -0.52585486104864D+04
 R2 and R3 integrals will be kept in memory, NReq=   961077252.
 Iterations=  50 Convergence= 0.100D-07
 Iteration Nr.   1
 **********************
 DD1Dir will call FoFMem   1 times, MxPair=       506
 NAB=   253 NAA=     0 NBB=     0.
 MP4(R+Q)=  0.21479117D-01
 E3=        0.13939085D-03        EUMP3=      -0.52585484711D+04
 E4(DQ)=    0.26940676D-03        UMP4(DQ)=   -0.52585482017D+04
 E4(SDQ)=  -0.11697351D-01        UMP4(SDQ)=  -0.52585601684D+04
 DE(Corr)= -0.84244255     E(Corr)=     -5258.5269920    
 NORM(A)=   0.11248481D+01
 Iteration Nr.   2
 **********************
 DD1Dir will call FoFMem   1 times, MxPair=       506
 NAB=   253 NAA=     0 NBB=     0.
 DE(Corr)= -0.87233834     E(CORR)=     -5258.5568878     Delta=-2.99D-02
 NORM(A)=   0.11352476D+01
 Iteration Nr.   3
 **********************
 DD1Dir will call FoFMem   1 times, MxPair=       506
 NAB=   253 NAA=     0 NBB=     0.
 DE(Corr)= -0.87023436     E(CORR)=     -5258.5547838     Delta= 2.10D-03
 NORM(A)=   0.11380094D+01
 Iteration Nr.   4
 **********************
 DD1Dir will call FoFMem   1 times, MxPair=       506
 NAB=   253 NAA=     0 NBB=     0.
 DE(Corr)= -0.87276467     E(CORR)=     -5258.5573141     Delta=-2.53D-03
 NORM(A)=   0.11393221D+01
 Iteration Nr.   5
 **********************
 DD1Dir will call FoFMem   1 times, MxPair=       506
 NAB=   253 NAA=     0 NBB=     0.
 DE(Corr)= -0.87313909     E(CORR)=     -5258.5576885     Delta=-3.74D-04
 NORM(A)=   0.11398370D+01
 Iteration Nr.   6
 **********************
 DD1Dir will call FoFMem   1 times, MxPair=       506
 NAB=   253 NAA=     0 NBB=     0.
 DE(Corr)= -0.87320336     E(CORR)=     -5258.5577528     Delta=-6.43D-05
 NORM(A)=   0.11399410D+01
 Iteration Nr.   7
 **********************
 DD1Dir will call FoFMem   1 times, MxPair=       506
 NAB=   253 NAA=     0 NBB=     0.
 DE(Corr)= -0.87321766     E(CORR)=     -5258.5577671     Delta=-1.43D-05
 NORM(A)=   0.11399498D+01
 Iteration Nr.   8
 **********************
 DD1Dir will call FoFMem   1 times, MxPair=       506
 NAB=   253 NAA=     0 NBB=     0.
 DE(Corr)= -0.87321800     E(CORR)=     -5258.5577674     Delta=-3.34D-07
 NORM(A)=   0.11399649D+01
 Iteration Nr.   9
 **********************
 DD1Dir will call FoFMem   1 times, MxPair=       506
 NAB=   253 NAA=     0 NBB=     0.
 DE(Corr)= -0.87321607     E(CORR)=     -5258.5577655     Delta= 1.92D-06
 NORM(A)=   0.11399648D+01
 Iteration Nr.  10
 **********************
 DD1Dir will call FoFMem   1 times, MxPair=       506
 NAB=   253 NAA=     0 NBB=     0.
 DE(Corr)= -0.87321748     E(CORR)=     -5258.5577669     Delta=-1.41D-06
 NORM(A)=   0.11399676D+01
 Iteration Nr.  11
 **********************
 DD1Dir will call FoFMem   1 times, MxPair=       506
 NAB=   253 NAA=     0 NBB=     0.
 DE(Corr)= -0.87321861     E(CORR)=     -5258.5577680     Delta=-1.13D-06
 NORM(A)=   0.11399694D+01
 Iteration Nr.  12
 **********************
 DD1Dir will call FoFMem   1 times, MxPair=       506
 NAB=   253 NAA=     0 NBB=     0.
 DE(Corr)= -0.87321893     E(CORR)=     -5258.5577684     Delta=-3.16D-07
 NORM(A)=   0.11399704D+01
 Iteration Nr.  13
 **********************
 DD1Dir will call FoFMem   1 times, MxPair=       506
 NAB=   253 NAA=     0 NBB=     0.
 DE(Corr)= -0.87321940     E(CORR)=     -5258.5577688     Delta=-4.67D-07
 NORM(A)=   0.11399711D+01
 Iteration Nr.  14
 **********************
 DD1Dir will call FoFMem   1 times, MxPair=       506
 NAB=   253 NAA=     0 NBB=     0.
 DE(Corr)= -0.87321951     E(CORR)=     -5258.5577689     Delta=-1.09D-07
 NORM(A)=   0.11399714D+01
 Iteration Nr.  15
 **********************
 DD1Dir will call FoFMem   1 times, MxPair=       506
 NAB=   253 NAA=     0 NBB=     0.
 DE(Corr)= -0.87321957     E(CORR)=     -5258.5577690     Delta=-6.94D-08
 NORM(A)=   0.11399716D+01
 Iteration Nr.  16
 **********************
 DD1Dir will call FoFMem   1 times, MxPair=       506
 NAB=   253 NAA=     0 NBB=     0.
 DE(Corr)= -0.87321961     E(CORR)=     -5258.5577690     Delta=-3.06D-08
 NORM(A)=   0.11399716D+01
 Iteration Nr.  17
 **********************
 DD1Dir will call FoFMem   1 times, MxPair=       506
 NAB=   253 NAA=     0 NBB=     0.
 DE(Corr)= -0.87321960     E(CORR)=     -5258.5577690     Delta= 2.91D-09
 NORM(A)=   0.11399716D+01
 Iteration Nr.  18
 **********************
 DD1Dir will call FoFMem   1 times, MxPair=       506
 NAB=   253 NAA=     0 NBB=     0.
 DE(Corr)= -0.87321960     E(CORR)=     -5258.5577690     Delta=-1.08D-09
 NORM(A)=   0.11399717D+01
 Iteration Nr.  19
 **********************
 DD1Dir will call FoFMem   1 times, MxPair=       506
 NAB=   253 NAA=     0 NBB=     0.
 DE(Corr)= -0.87321961     E(CORR)=     -5258.5577690     Delta=-5.23D-09
 NORM(A)=   0.11399717D+01
 Iteration Nr.  20
 **********************
 DD1Dir will call FoFMem   1 times, MxPair=       506
 NAB=   253 NAA=     0 NBB=     0.
 DE(Corr)= -0.87321960     E(CORR)=     -5258.5577690     Delta= 4.22D-09
 NORM(A)=   0.11399724D+01
 Iteration Nr.  21
 **********************
 DD1Dir will call FoFMem   1 times, MxPair=       506
 NAB=   253 NAA=     0 NBB=     0.
 DE(Corr)= -0.87321974     E(CORR)=     -5258.5577692     Delta=-1.40D-07
 NORM(A)=   0.11399716D+01
 Iteration Nr.  22
 **********************
 DD1Dir will call FoFMem   1 times, MxPair=       506
 NAB=   253 NAA=     0 NBB=     0.
 DE(Corr)= -0.87321961     E(CORR)=     -5258.5577690     Delta= 1.38D-07
 NORM(A)=   0.11399716D+01
 Iteration Nr.  23
 **********************
 DD1Dir will call FoFMem   1 times, MxPair=       506
 NAB=   253 NAA=     0 NBB=     0.
 DE(Corr)= -0.87321961     E(CORR)=     -5258.5577690     Delta= 3.01D-10
 NORM(A)=   0.11399716D+01
 Largest amplitude= 4.23D-02

 Z-AMPLITUDE ITERATIONS

 Iteration Nr.   1
 **********************
 DD1Dir will call FoFMem   1 times, MxPair=       506
 NAB=   253 NAA=     0 NBB=     0.
 DE(Z)  -0.84604527D+00          E(Z)=    -0.52585305947D+04
 NORM(A)=   0.11399279D+01
 Iteration Nr.   2
 **********************
 DD1Dir will call FoFMem   1 times, MxPair=       506
 NAB=   253 NAA=     0 NBB=     0.
 DE(Z)  -0.84604520D+00          E(Z)=    -0.52585305946D+04
 NORM(A)=   0.11399640D+01
 Iteration Nr.   3
 **********************
 DD1Dir will call FoFMem   1 times, MxPair=       506
 NAB=   253 NAA=     0 NBB=     0.
 DE(Z)  -0.84604526D+00          E(Z)=    -0.52585305947D+04
 NORM(A)=   0.11399623D+01
 Iteration Nr.   4
 **********************
 DD1Dir will call FoFMem   1 times, MxPair=       506
 NAB=   253 NAA=     0 NBB=     0.
 DE(Z)  -0.84604526D+00          E(Z)=    -0.52585305947D+04
 NORM(A)=   0.11399635D+01
 Iteration Nr.   5
 **********************
 DD1Dir will call FoFMem   1 times, MxPair=       506
 NAB=   253 NAA=     0 NBB=     0.
 DE(Z)  -0.84604524D+00          E(Z)=    -0.52585305947D+04
 NORM(A)=   0.11301282D+01
 Iteration Nr.   6
 **********************
 DD1Dir will call FoFMem   1 times, MxPair=       506
 NAB=   253 NAA=     0 NBB=     0.
 DE(Z)  -0.84601695D+00          E(Z)=    -0.52585305664D+04
 NORM(A)=   0.11301202D+01
 Iteration Nr.   7
 **********************
 DD1Dir will call FoFMem   1 times, MxPair=       506
 NAB=   253 NAA=     0 NBB=     0.
 DE(Z)  -0.84601230D+00          E(Z)=    -0.52585305617D+04
 NORM(A)=   0.11301179D+01
 Iteration Nr.   8
 **********************
 DD1Dir will call FoFMem   1 times, MxPair=       506
 NAB=   253 NAA=     0 NBB=     0.
 DE(Z)  -0.84601367D+00          E(Z)=    -0.52585305631D+04
 NORM(A)=   0.11301185D+01
 Iteration Nr.   9
 **********************
 DD1Dir will call FoFMem   1 times, MxPair=       506
 NAB=   253 NAA=     0 NBB=     0.
 DE(Z)  -0.84601259D+00          E(Z)=    -0.52585305620D+04
 NORM(A)=   0.11301192D+01
 Iteration Nr.  10
 **********************
 DD1Dir will call FoFMem   1 times, MxPair=       506
 NAB=   253 NAA=     0 NBB=     0.
 DE(Z)  -0.84601312D+00          E(Z)=    -0.52585305625D+04
 NORM(A)=   0.11301193D+01
 Iteration Nr.  11
 **********************
 DD1Dir will call FoFMem   1 times, MxPair=       506
 NAB=   253 NAA=     0 NBB=     0.
 DE(Z)  -0.84601313D+00          E(Z)=    -0.52585305626D+04
 NORM(A)=   0.11301194D+01
 Iteration Nr.  12
 **********************
 DD1Dir will call FoFMem   1 times, MxPair=       506
 NAB=   253 NAA=     0 NBB=     0.
 DE(Z)  -0.84601311D+00          E(Z)=    -0.52585305625D+04
 NORM(A)=   0.11301194D+01
 Iteration Nr.  13
 **********************
 DD1Dir will call FoFMem   1 times, MxPair=       506
 NAB=   253 NAA=     0 NBB=     0.
 DE(Z)  -0.84601312D+00          E(Z)=    -0.52585305625D+04
 NORM(A)=   0.11301194D+01
 Iteration Nr.  14
 **********************
 DD1Dir will call FoFMem   1 times, MxPair=       506
 NAB=   253 NAA=     0 NBB=     0.
 DE(Z)  -0.84601312D+00          E(Z)=    -0.52585305625D+04
 NORM(A)=   0.11301194D+01
 Discarding MO integrals.
          IDoAtm=1111
          Differentiating once with respect to electric field.
                with respect to dipole field.
          Differentiating once with respect to nuclear coordinates.
          Keep R1 ints in memory in canonical form, NReq=478620425.
          There are     1 degrees of freedom in the 1st order CPHF.  IDoFFX=0.
 LinEq1:  Iter=  0 NonCon=     1 RMS=1.95D-03 Max=5.61D-02
 AX will form     1 AO Fock derivatives at one time.
 LinEq1:  Iter=  1 NonCon=     1 RMS=7.40D-04 Max=2.61D-02
 LinEq1:  Iter=  2 NonCon=     1 RMS=3.09D-04 Max=9.34D-03
 LinEq1:  Iter=  3 NonCon=     1 RMS=1.03D-04 Max=2.97D-03
 LinEq1:  Iter=  4 NonCon=     1 RMS=5.33D-05 Max=1.64D-03
 LinEq1:  Iter=  5 NonCon=     1 RMS=1.64D-05 Max=4.65D-04
 LinEq1:  Iter=  6 NonCon=     1 RMS=6.29D-06 Max=1.31D-04
 LinEq1:  Iter=  7 NonCon=     1 RMS=1.35D-06 Max=2.12D-05
 LinEq1:  Iter=  8 NonCon=     1 RMS=2.69D-07 Max=4.30D-06
 LinEq1:  Iter=  9 NonCon=     1 RMS=6.50D-08 Max=1.21D-06
 LinEq1:  Iter= 10 NonCon=     1 RMS=1.39D-08 Max=2.08D-07
 LinEq1:  Iter= 11 NonCon=     1 RMS=3.90D-09 Max=9.55D-08
 LinEq1:  Iter= 12 NonCon=     1 RMS=7.18D-10 Max=1.62D-08
 LinEq1:  Iter= 13 NonCon=     1 RMS=1.20D-10 Max=2.63D-09
 LinEq1:  Iter= 14 NonCon=     0 RMS=1.85D-11 Max=4.29D-10
 Linear equations converged to 1.000D-10 1.000D-09 after    14 iterations.
 End of Minotr Frequency-dependent properties file   721 does not exist.
 End of Minotr Frequency-dependent properties file   722 does not exist.
 Calling FoFJK, ICntrl=      2127 FMM=F ISym2X=0 I1Cent= 0 IOpClX= 0 NMat=1 NMatS=1 NMatT=0.
 -------------------------------------------------------------------
 Center     Atomic                   Forces (Hartrees/Bohr)
 Number     Number              X              Y              Z
 -------------------------------------------------------------------
      1        6           0.000000003    0.000000000    0.000078950
      2       35          -0.000000001    0.000015318   -0.000068661
      3       35          -0.000000001   -0.000015318   -0.000068661
      4        8          -0.000000001    0.000000000    0.000058372
 -------------------------------------------------------------------
 Cartesian Forces:  Max     0.000078950 RMS     0.000040351

 GradGradGradGradGradGradGradGradGradGradGradGradGradGradGradGradGradGrad
 Berny optimization.
 Using GEDIIS/GDIIS optimizer.
 Internal  Forces:  Max     0.000158258 RMS     0.000077678
 Search for a local minimum.
 Step number   4 out of a maximum of   20
 All quantities printed in internal units (Hartrees-Bohrs-Radians)
 Mixed Optimization -- En-DIIS/RFO-DIIS
 Update second derivatives using D2CorX and points    1    2    3    4
 DE= -5.25D-05 DEPred=-5.06D-05 R= 1.04D+00
 SS=  1.41D+00  RLast= 1.83D-02 DXNew= 8.2753D-01 5.4993D-02
 Trust test= 1.04D+00 RLast= 1.83D-02 DXMaxT set to 4.92D-01
 The second derivative matrix:
                          R1        R2        R3        A1        A2
           R1           0.18649
           R2           0.00878   0.18649
           R3           0.03944   0.03944   0.89267
           A1           0.01245   0.01245  -0.05387   0.21482
           A2          -0.00622  -0.00622   0.02693   0.01759   0.24120
           A3          -0.00622  -0.00622   0.02693   0.01759  -0.00880
           D1           0.00000   0.00000   0.00000   0.00000   0.00000
                          A3        D1
           A3           0.24120
           D1           0.00000   0.03565
 ITU=  1  1  1  0
 Use linear search instead of GDIIS.
     Eigenvalues ---    0.03565   0.16451   0.17771   0.21773   0.25000
     Eigenvalues ---    0.90293
 RFO step:  Lambda=-6.14301608D-08 EMin= 3.56487685D-02
 Quartic linear search produced a step of  0.03854.
 Iteration  1 RMS(Cart)=  0.00062094 RMS(Int)=  0.00000017
 Iteration  2 RMS(Cart)=  0.00000019 RMS(Int)=  0.00000000
 Variable       Old X    -DE/DX   Delta X   Delta X   Delta X     New X
                                 (Linear)    (Quad)   (Total)
    R1        3.61258   0.00003   0.00009   0.00013   0.00021   3.61279
    R2        3.61258   0.00003   0.00009   0.00013   0.00021   3.61279
    R3        2.22281   0.00006   0.00020  -0.00023  -0.00003   2.22278
    A1        1.97231  -0.00016  -0.00054  -0.00029  -0.00083   1.97148
    A2        2.15544   0.00008   0.00027   0.00015   0.00042   2.15585
    A3        2.15544   0.00008   0.00027   0.00015   0.00042   2.15585
    D1        3.14159   0.00000   0.00000   0.00000   0.00000  -3.14159
         Item               Value     Threshold  Converged?
 Maximum Force            0.000158     0.000450     YES
 RMS     Force            0.000078     0.000300     YES
 Maximum Displacement     0.000694     0.001800     YES
 RMS     Displacement     0.000621     0.001200     YES
 Predicted change in Energy=-1.039437D-07
 Optimization completed.
    -- Stationary point found.
                           ----------------------------
                           !   Optimized Parameters   !
                           ! (Angstroms and Degrees)  !
 --------------------------                            --------------------------
 ! Name  Definition              Value          Derivative Info.                !
 --------------------------------------------------------------------------------
 ! R1    R(1,2)                  1.9117         -DE/DX =    0.0                 !
 ! R2    R(1,3)                  1.9117         -DE/DX =    0.0                 !
 ! R3    R(1,4)                  1.1763         -DE/DX =    0.0001              !
 ! A1    A(2,1,3)              113.0052         -DE/DX =   -0.0002              !
 ! A2    A(2,1,4)              123.4974         -DE/DX =    0.0001              !
 ! A3    A(3,1,4)              123.4974         -DE/DX =    0.0001              !
 ! D1    D(2,1,4,3)           -180.0            -DE/DX =    0.0                 !
 --------------------------------------------------------------------------------
 GradGradGradGradGradGradGradGradGradGradGradGradGradGradGradGradGradGrad

                          Input orientation:                          
 ---------------------------------------------------------------------
 Center     Atomic      Atomic             Coordinates (Angstroms)
 Number     Number       Type             X           Y           Z
 ---------------------------------------------------------------------
      1          6           0        0.000000    0.000000   -0.491759
      2         35           0        0.000000   -1.594181   -1.546820
      3         35           0        0.000000    1.594181   -1.546820
      4          8           0        0.000000    0.000000    0.684500
 ---------------------------------------------------------------------
                    Distance matrix (angstroms):
                    1          2          3          4
     1  C    0.000000
     2  Br   1.911693   0.000000
     3  Br   1.911693   3.188362   0.000000
     4  O    1.176258   2.742299   2.742299   0.000000
 Symmetry turned off by external request.
 Stoichiometry    CBr2O
 Framework group  CS[SG(CO),X(Br2)]
 Deg. of freedom     4
 Full point group                 CS      NOp   2
 Rotational constants (GHZ):      6.2847835      1.2598938      1.0495028

 **********************************************************************

            Population analysis using the QCI/CC density.

 **********************************************************************

 Alpha  occ. eigenvalues -- -490.06638-490.06638 -65.20633 -65.20633 -58.56165
 Alpha  occ. eigenvalues --  -58.56165 -58.56015 -58.56015 -58.55998 -58.55998
 Alpha  occ. eigenvalues --  -20.62832 -11.46325  -9.87940  -9.87940  -7.49128
 Alpha  occ. eigenvalues --   -7.49127  -7.48407  -7.48406  -7.48336  -7.48335
 Alpha  occ. eigenvalues --   -3.23522  -3.23522  -3.23165  -3.23163  -3.23069
 Alpha  occ. eigenvalues --   -3.23068  -3.22160  -3.22159  -3.22158  -3.22157
 Alpha  occ. eigenvalues --   -1.48400  -1.10818  -1.04780  -0.79379  -0.68342
 Alpha  occ. eigenvalues --   -0.67614  -0.63062  -0.47901  -0.46167  -0.45791
 Alpha  occ. eigenvalues --   -0.45104  -0.43156
 Alpha virt. eigenvalues --    0.03790   0.05638   0.07006   0.07544   0.08199
 Alpha virt. eigenvalues --    0.09328   0.09994   0.10256   0.10940   0.11868
 Alpha virt. eigenvalues --    0.13017   0.13181   0.17481   0.19374   0.21889
 Alpha virt. eigenvalues --    0.22373   0.23248   0.24159   0.25848   0.26652
 Alpha virt. eigenvalues --    0.27523   0.28944   0.31893   0.32940   0.35605
 Alpha virt. eigenvalues --    0.36769   0.37009   0.39727   0.41344   0.43786
 Alpha virt. eigenvalues --    0.44682   0.46414   0.46631   0.49568   0.49657
 Alpha virt. eigenvalues --    0.52593   0.55724   0.56293   0.58706   0.60139
 Alpha virt. eigenvalues --    0.60836   0.63136   0.69493   0.70121   0.71486
 Alpha virt. eigenvalues --    0.71870   0.74565   0.75884   0.77553   0.78530
 Alpha virt. eigenvalues --    0.79396   0.82306   0.83576   0.85027   0.88440
 Alpha virt. eigenvalues --    0.88445   0.89892   0.90088   0.91468   0.93823
 Alpha virt. eigenvalues --    0.94754   0.98082   1.00453   1.01613   1.02914
 Alpha virt. eigenvalues --    1.05487   1.06676   1.11242   1.13075   1.13256
 Alpha virt. eigenvalues --    1.17145   1.17717   1.18749   1.30605   1.34477
 Alpha virt. eigenvalues --    1.36374   1.36482   1.40584   1.43883   1.44824
 Alpha virt. eigenvalues --    1.44904   1.45490   1.51424   1.52388   1.53186
 Alpha virt. eigenvalues --    1.62942   1.63526   1.70602   1.74583   1.79848
 Alpha virt. eigenvalues --    1.95199   2.10714   2.16504   2.17062   2.17669
 Alpha virt. eigenvalues --    2.19031   2.23324   2.24531   2.25295   2.26799
 Alpha virt. eigenvalues --    2.27143   2.27411   2.28645   2.28996   2.29667
 Alpha virt. eigenvalues --    2.30141   2.32566   2.32677   2.32726   2.34003
 Alpha virt. eigenvalues --    2.35709   2.36366   2.37244   2.37820   2.38003
 Alpha virt. eigenvalues --    2.39338   2.39351   2.40508   2.46608   2.48752
 Alpha virt. eigenvalues --    2.53272   2.55810   2.58675   2.59593   2.67063
 Alpha virt. eigenvalues --    2.70573   2.72925   2.76501   2.78580   2.88194
 Alpha virt. eigenvalues --    2.93453   2.97603   3.01162   3.09869   3.48933
 Alpha virt. eigenvalues --    3.58149   3.59193   3.59765   3.61823   3.67588
 Alpha virt. eigenvalues --    3.73504   3.83762   3.86413   3.89895   3.96058
 Alpha virt. eigenvalues --    4.12141   4.13799   4.48764   4.50080   5.01190
 Alpha virt. eigenvalues --    5.12634   5.14791   5.33907   5.47829   6.57477
 Alpha virt. eigenvalues --    6.58685   6.86255   6.88078   7.04534   7.16242
 Alpha virt. eigenvalues --    7.16985   7.22100   7.37320   7.49969   7.67774
 Alpha virt. eigenvalues --    7.68204  13.54925  15.29195
          Condensed to atoms (all electrons):
              1          2          3          4
     1  C    5.559214   0.025735   0.025735   0.239658
     2  Br   0.025735  35.045295  -0.118496  -0.056261
     3  Br   0.025735  -0.118496  35.045295  -0.056261
     4  O    0.239658  -0.056261  -0.056261   8.229976
 Mulliken atomic charges:
              1
     1  C    0.149657
     2  Br   0.103727
     3  Br   0.103727
     4  O   -0.357111
 Sum of Mulliken atomic charges =   0.00000
 Mulliken charges with hydrogens summed into heavy atoms:
              1
     1  C    0.149657
     2  Br   0.103727
     3  Br   0.103727
     4  O   -0.357111
 Sum of Mulliken charges with hydrogens summed into heavy atoms =   0.00000
 Electronic spatial extent (au):  <R**2>=           1355.6166
 Charge=              0.0000 electrons
 Dipole moment (field-independent basis, Debye):
    X=              0.0000    Y=              0.0000    Z=             -1.2404  Tot=              1.2404
 Quadrupole moment (field-independent basis, Debye-Ang):
   XX=            -46.9633   YY=            -44.9357   ZZ=            -47.5252
   XY=              0.0000   XZ=              0.0000   YZ=              0.0000
 Traceless Quadrupole moment (field-independent basis, Debye-Ang):
   XX=             -0.4886   YY=              1.5391   ZZ=             -1.0505
   XY=              0.0000   XZ=              0.0000   YZ=              0.0000
 Octapole moment (field-independent basis, Debye-Ang**2):
  XXX=              0.0000  YYY=              0.0000  ZZZ=            164.8162  XYY=              0.0000
  XXY=              0.0000  XXZ=             56.3135  XZZ=              0.0000  YZZ=              0.0000
  YYZ=             45.7170  XYZ=              0.0000
 Hexadecapole moment (field-independent basis, Debye-Ang**3):
 XXXX=            -53.6974 YYYY=           -570.9348 ZZZZ=           -597.1025 XXXY=              0.0000
 XXXZ=              0.0000 YYYX=              0.0000 YYYZ=              0.0000 ZZZX=              0.0000
 ZZZY=              0.0000 XXYY=           -111.3604 XXZZ=           -110.4163 YYZZ=           -175.0971
 XXYZ=              0.0000 YYXZ=              0.0000 ZZXY=              0.0000
 N-N= 4.492322760683D+02 E-N=-1.347022208329D+04  KE= 5.257230210303D+03
 1\1\GINC-TRAPISTA\FOpt\RQCISD-FC\Aug-CC-pVTZ\C1Br2O1\BRUNS\18-Nov-2021
 \0\\#opt qcisd/aug-cc-pvtz density=current nosym\\br2co\\0,1\C,-0.0000
 00009,0.0000000001,-0.4917585928\Br,0.0000000022,-1.5941811505,-1.5468
 204776\Br,0.0000000022,1.5941811497,-1.5468204766\O,0.0000000047,0.000
 0000007,0.6844995469\\Version=EM64L-G09RevB.01\HF=-5257.6845494\MP2=-5
 258.5486105\MP3=-5258.5484711\MP4D=-5258.5696808\MP4DQ=-5258.5482017\M
 P4SDQ=-5258.5601684\QCISD=-5258.557769\RMSD=5.084e-09\RMSF=4.035e-05\D
 ipole=0.,0.,-0.4880077\Quadrupole=-0.3632389,1.1442603,-0.7810214,0.,0
 .,0.\PG=CS [SG(C1O1),X(Br2)]\\@


 MOM AND DAD WENT TO ALPHA CENTAURI AND ALL
 I GOT WAS THIS DUMB T-SHIRT.
 Job cpu time:  0 days 22 hours 41 minutes  9.4 seconds.
 File lengths (MBytes):  RWF=  23799 Int=      0 D2E=      0 Chk=      5 Scr=      1
 Normal termination of Gaussian 09 at Thu Nov 18 08:48:19 2021.
