 Entering Gaussian System, Link 0=/home/bruns/programas/chemistry/gaussian/g09/g09
 Input=./cl2co/cl2co-opt.com
 Output=./cl2co/cl2co-opt.log
 Initial command:
 /home/bruns/programas/chemistry/gaussian/g09/l1.exe /home/bruns/programas/chemistry/gaussian/work/Gau-18868.inp -scrdir=/home/bruns/programas/chemistry/gaussian/work/
 Entering Link 1 = /home/bruns/programas/chemistry/gaussian/g09/l1.exe PID=     18870.
  
 Copyright (c) 1988,1990,1992,1993,1995,1998,2003,2009,2010,
            Gaussian, Inc.  All Rights Reserved.
  
 This is part of the Gaussian(R) 09 program.  It is based on
 the Gaussian(R) 03 system (copyright 2003, Gaussian, Inc.),
 the Gaussian(R) 98 system (copyright 1998, Gaussian, Inc.),
 the Gaussian(R) 94 system (copyright 1995, Gaussian, Inc.),
 the Gaussian 92(TM) system (copyright 1992, Gaussian, Inc.),
 the Gaussian 90(TM) system (copyright 1990, Gaussian, Inc.),
 the Gaussian 88(TM) system (copyright 1988, Gaussian, Inc.),
 the Gaussian 86(TM) system (copyright 1986, Carnegie Mellon
 University), and the Gaussian 82(TM) system (copyright 1983,
 Carnegie Mellon University). Gaussian is a federally registered
 trademark of Gaussian, Inc.
  
 This software contains proprietary and confidential information,
 including trade secrets, belonging to Gaussian, Inc.
  
 This software is provided under written license and may be
 used, copied, transmitted, or stored only in accord with that
 written license.
  
 The following legend is applicable only to US Government
 contracts under FAR:
  
                    RESTRICTED RIGHTS LEGEND
  
 Use, reproduction and disclosure by the US Government is
 subject to restrictions as set forth in subparagraphs (a)
 and (c) of the Commercial Computer Software - Restricted
 Rights clause in FAR 52.227-19.
  
 Gaussian, Inc.
 340 Quinnipiac St., Bldg. 40, Wallingford CT 06492
  
  
 ---------------------------------------------------------------
 Warning -- This program may not be used in any manner that
 competes with the business of Gaussian, Inc. or will provide
 assistance to any competitor of Gaussian, Inc.  The licensee
 of this program is prohibited from giving any competitor of
 Gaussian, Inc. access to this program.  By using this program,
 the user acknowledges that Gaussian, Inc. is engaged in the
 business of creating and licensing software in the field of
 computational chemistry and represents and warrants to the
 licensee that it is not a competitor of Gaussian, Inc. and that
 it will not use this program in any manner prohibited above.
 ---------------------------------------------------------------
  

 Cite this work as:
 Gaussian 09, Revision B.01,
 M. J. Frisch, G. W. Trucks, H. B. Schlegel, G. E. Scuseria, 
 M. A. Robb, J. R. Cheeseman, G. Scalmani, V. Barone, B. Mennucci, 
 G. A. Petersson, H. Nakatsuji, M. Caricato, X. Li, H. P. Hratchian, 
 A. F. Izmaylov, J. Bloino, G. Zheng, J. L. Sonnenberg, M. Hada, 
 M. Ehara, K. Toyota, R. Fukuda, J. Hasegawa, M. Ishida, T. Nakajima, 
 Y. Honda, O. Kitao, H. Nakai, T. Vreven, J. A. Montgomery, Jr., 
 J. E. Peralta, F. Ogliaro, M. Bearpark, J. J. Heyd, E. Brothers, 
 K. N. Kudin, V. N. Staroverov, T. Keith, R. Kobayashi, J. Normand, 
 K. Raghavachari, A. Rendell, J. C. Burant, S. S. Iyengar, J. Tomasi, 
 M. Cossi, N. Rega, J. M. Millam, M. Klene, J. E. Knox, J. B. Cross, 
 V. Bakken, C. Adamo, J. Jaramillo, R. Gomperts, R. E. Stratmann, 
 O. Yazyev, A. J. Austin, R. Cammi, C. Pomelli, J. W. Ochterski, 
 R. L. Martin, K. Morokuma, V. G. Zakrzewski, G. A. Voth, 
 P. Salvador, J. J. Dannenberg, S. Dapprich, A. D. Daniels, 
 O. Farkas, J. B. Foresman, J. V. Ortiz, J. Cioslowski, 
 and D. J. Fox, Gaussian, Inc., Wallingford CT, 2010.
 
 ******************************************
 Gaussian 09:  EM64L-G09RevB.01 12-Aug-2010
                17-Nov-2021 
 ******************************************
 %nproc=8
 Will use up to    8 processors via shared memory.
 %mem=8GB
 --------------------------------------------
 #opt qcisd/aug-cc-pvtz density=current nosym
 --------------------------------------------
 1/18=20,19=15,38=1/1,3;
 2/9=110,12=2,15=1,17=6,18=5,40=1/2;
 3/5=16,6=1,7=10,11=9,16=1,25=1,30=1,71=1/1,2,3;
 4//1;
 5/5=2,38=5/2;
 8/6=4,9=120000,10=1/1,4;
 9/5=8,15=1/13;
 11/28=-7,29=200,31=1,42=3/11;
 10/5=6,31=1/2;
 6/7=2,8=2,9=2,10=2,22=-1/1;
 7/12=7,30=1/1,2,3,16;
 1/18=20,19=15/3(2);
 2/9=110,15=1/2;
 99//99;
 2/9=110,15=1/2;
 3/5=16,6=1,7=10,11=9,16=1,25=1,30=1,71=1/1,2,3;
 4/5=5,16=3/1;
 5/5=2,38=5/2;
 8/6=4,9=120000,10=1/1,4;
 9/5=8,15=1/13;
 11/28=-7,29=200,31=1,42=3/11;
 10/5=6,31=1/2;
 7/12=7,30=1/1,2,3,16;
 1/18=20,19=15/3(-9);
 2/9=110,15=1/2;
 6/7=2,8=2,9=2,10=2,22=-1/1;
 99//99;
 -----
 cl2co
 -----
 Symbolic Z-matrix:
 Charge =  0 Multiplicity = 1
 O                     0.        0.        0.69608 
 C                     0.        0.       -0.56233 
 Cl                    0.       -1.5242   -1.44233 
 Cl                    0.        1.5242   -1.44233 
 

 GradGradGradGradGradGradGradGradGradGradGradGradGradGradGradGradGradGrad
 Berny optimization.
 Initialization pass.
                           ----------------------------
                           !    Initial Parameters    !
                           ! (Angstroms and Degrees)  !
 --------------------------                            --------------------------
 ! Name  Definition              Value          Derivative Info.                !
 --------------------------------------------------------------------------------
 ! R1    R(1,2)                  1.2584         estimate D2E/DX2                !
 ! R2    R(2,3)                  1.76           estimate D2E/DX2                !
 ! R3    R(2,4)                  1.76           estimate D2E/DX2                !
 ! A1    A(1,2,3)              120.0            estimate D2E/DX2                !
 ! A2    A(1,2,4)              120.0            estimate D2E/DX2                !
 ! A3    A(3,2,4)              120.0            estimate D2E/DX2                !
 ! D1    D(1,2,4,3)            180.0            estimate D2E/DX2                !
 --------------------------------------------------------------------------------
 Trust Radius=3.00D-01 FncErr=1.00D-07 GrdErr=1.00D-07
 Number of steps in this run=     20 maximum allowed number of steps=    100.
 GradGradGradGradGradGradGradGradGradGradGradGradGradGradGradGradGradGrad

                          Input orientation:                          
 ---------------------------------------------------------------------
 Center     Atomic      Atomic             Coordinates (Angstroms)
 Number     Number       Type             X           Y           Z
 ---------------------------------------------------------------------
      1          8           0        0.000000    0.000000    0.696075
      2          6           0        0.000000    0.000000   -0.562325
      3         17           0        0.000000   -1.524205   -1.442325
      4         17           0        0.000000    1.524205   -1.442325
 ---------------------------------------------------------------------
                    Distance matrix (angstroms):
                    1          2          3          4
     1  O    0.000000
     2  C    1.258400   0.000000
     3  Cl   2.626015   1.760000   0.000000
     4  Cl   2.626015   1.760000   3.048409   0.000000
 Symmetry turned off by external request.
 Stoichiometry    CCl2O
 Framework group  C2V[C2(CO),SGV(Cl2)]
 Deg. of freedom     3
 Full point group                 C2V     NOp   4
 Rotational constants (GHZ):      8.1548406      3.1104213      2.2516112
 Standard basis: Aug-CC-pVTZ (5D, 7F)
 Integral buffers will be    131072 words long.
 Raffenetti 1 integral format.
 Two-electron integral symmetry is turned off.
   192 basis functions,   372 primitive gaussians,   228 cartesian basis functions
    24 alpha electrons       24 beta electrons
       nuclear repulsion energy       186.5007297221 Hartrees.
 NAtoms=    4 NActive=    4 NUniq=    4 SFac= 1.00D+00 NAtFMM=   50 NAOKFM=F Big=F
 One-electron integrals computed using PRISM.
 NBasis=   192 RedAO= T  NBF=   192
 NBsUse=   192 1.00D-06 NBFU=   192
 Harris functional with IExCor=  205 diagonalized for initial guess.
 ExpMin= 3.57D-02 ExpMax= 4.56D+05 ExpMxC= 1.44D+03 IAcc=3 IRadAn=         0 AccDes= 0.00D+00
 HarFok:  IExCor=  205 AccDes= 0.00D+00 IRadAn=         0 IDoV= 1
 ScaDFX=  1.000000  1.000000  1.000000  1.000000
 FoFCou: FMM=F IPFlag=           0 FMFlag=      100000 FMFlg1=           0
         NFxFlg=           0 DoJE=T BraDBF=F KetDBF=T FulRan=T
         Omega=  0.000000  0.000000  1.000000  0.000000  0.000000 ICntrl=     500 IOpCl=  0
         NMat0=    1 NMatS0=    1 NMatT0=    0 NMatD0=    1 NMtDS0=    0 NMtDT0=    0
         I1Cent=           4 NGrid=           0.
 Symmetry not used in FoFCou.
 Requested convergence on RMS density matrix=1.00D-08 within 128 cycles.
 Requested convergence on MAX density matrix=1.00D-06.
 Requested convergence on             energy=1.00D-06.
 No special actions if energy rises.
 Keep R1 ints in memory in canonical form, NReq=346956363.
 SCF Done:  E(RHF) =  -1031.78279701     A.U. after   12 cycles
             Convg  =    0.8186D-08             -V/T =  2.0007
 ExpMin= 3.57D-02 ExpMax= 4.56D+05 ExpMxC= 1.44D+03 IAcc=3 IRadAn=         5 AccDes= 0.00D+00
 HarFok:  IExCor=  205 AccDes= 0.00D+00 IRadAn=         5 IDoV=-2
 ScaDFX=  1.000000  1.000000  1.000000  1.000000
 Range of M.O.s used for correlation:    13   192
 NBasis=   192 NAE=    24 NBE=    24 NFC=    12 NFV=     0
 NROrb=    180 NOA=    12 NOB=    12 NVA=   168 NVB=   168

 **** Warning!!: The largest alpha MO coefficient is  0.25605242D+02

 Semi-Direct transformation.
 ModeAB=           2 MOrb=            12 LenV=    1072715695
 LASXX=     33405819 LTotXX=    33405819 LenRXX=    33405819
 LTotAB=    33954012 MaxLAS=    56388960 LenRXY=    56388960
 NonZer=    66811638 LenScr=   100987392 LnRSAI=           0
 LnScr1=           0 LExtra=           0 Total=    190782171
 MaxDsk=          -1 SrtSym=           F ITran=            4
 JobTyp=0 Pass  1:  I=   1 to  12.
 (rs|ai) integrals will be sorted in core.
 Spin components of T(2) and E(2):
     alpha-alpha T2 =       0.3654740898D-01 E2=     -0.1028385035D+00
     alpha-beta  T2 =       0.1912046319D+00 E2=     -0.5832310991D+00
     beta-beta   T2 =       0.3654740898D-01 E2=     -0.1028385035D+00
 ANorm=    0.1124410712D+01
 E2 =    -0.7889081060D+00 EUMP2 =    -0.10325717051165D+04
 R2 and R3 integrals will be kept in memory, NReq=   687553722.
 Iterations=  50 Convergence= 0.100D-07
 Iteration Nr.   1
 **********************
 DD1Dir will call FoFMem   1 times, MxPair=       156
 NAB=    78 NAA=     0 NBB=     0.
 MP4(R+Q)=  0.23542530D-01
 E3=       -0.15252506D-01        EUMP3=      -0.10325869576D+04
 E4(DQ)=    0.17061118D-02        UMP4(DQ)=   -0.10325852515D+04
 E4(SDQ)=  -0.89672813D-02        UMP4(SDQ)=  -0.10325959249D+04
 DE(Corr)= -0.78061808     E(Corr)=     -1032.5634151    
 NORM(A)=   0.11249808D+01
 Iteration Nr.   2
 **********************
 DD1Dir will call FoFMem   1 times, MxPair=       156
 NAB=    78 NAA=     0 NBB=     0.
 DE(Corr)= -0.81004523     E(CORR)=     -1032.5928422     Delta=-2.94D-02
 NORM(A)=   0.11355320D+01
 Iteration Nr.   3
 **********************
 DD1Dir will call FoFMem   1 times, MxPair=       156
 NAB=    78 NAA=     0 NBB=     0.
 DE(Corr)= -0.80743769     E(CORR)=     -1032.5902347     Delta= 2.61D-03
 NORM(A)=   0.11389679D+01
 Iteration Nr.   4
 **********************
 DD1Dir will call FoFMem   1 times, MxPair=       156
 NAB=    78 NAA=     0 NBB=     0.
 DE(Corr)= -0.81044696     E(CORR)=     -1032.5932440     Delta=-3.01D-03
 NORM(A)=   0.11404131D+01
 Iteration Nr.   5
 **********************
 DD1Dir will call FoFMem   1 times, MxPair=       156
 NAB=    78 NAA=     0 NBB=     0.
 DE(Corr)= -0.81090187     E(CORR)=     -1032.5936989     Delta=-4.55D-04
 NORM(A)=   0.11410240D+01
 Iteration Nr.   6
 **********************
 DD1Dir will call FoFMem   1 times, MxPair=       156
 NAB=    78 NAA=     0 NBB=     0.
 DE(Corr)= -0.81097956     E(CORR)=     -1032.5937766     Delta=-7.77D-05
 NORM(A)=   0.11411458D+01
 Iteration Nr.   7
 **********************
 DD1Dir will call FoFMem   1 times, MxPair=       156
 NAB=    78 NAA=     0 NBB=     0.
 DE(Corr)= -0.81099407     E(CORR)=     -1032.5937911     Delta=-1.45D-05
 NORM(A)=   0.11411439D+01
 Iteration Nr.   8
 **********************
 DD1Dir will call FoFMem   1 times, MxPair=       156
 NAB=    78 NAA=     0 NBB=     0.
 DE(Corr)= -0.81099726     E(CORR)=     -1032.5937943     Delta=-3.19D-06
 NORM(A)=   0.11411555D+01
 Iteration Nr.   9
 **********************
 DD1Dir will call FoFMem   1 times, MxPair=       156
 NAB=    78 NAA=     0 NBB=     0.
 DE(Corr)= -0.81099232     E(CORR)=     -1032.5937893     Delta= 4.94D-06
 NORM(A)=   0.11411525D+01
 Iteration Nr.  10
 **********************
 DD1Dir will call FoFMem   1 times, MxPair=       156
 NAB=    78 NAA=     0 NBB=     0.
 DE(Corr)= -0.81099559     E(CORR)=     -1032.5937926     Delta=-3.27D-06
 NORM(A)=   0.11411546D+01
 Iteration Nr.  11
 **********************
 DD1Dir will call FoFMem   1 times, MxPair=       156
 NAB=    78 NAA=     0 NBB=     0.
 DE(Corr)= -0.81099553     E(CORR)=     -1032.5937925     Delta= 5.54D-08
 NORM(A)=   0.11411562D+01
 Iteration Nr.  12
 **********************
 DD1Dir will call FoFMem   1 times, MxPair=       156
 NAB=    78 NAA=     0 NBB=     0.
 DE(Corr)= -0.81099645     E(CORR)=     -1032.5937935     Delta=-9.10D-07
 NORM(A)=   0.11411573D+01
 Iteration Nr.  13
 **********************
 DD1Dir will call FoFMem   1 times, MxPair=       156
 NAB=    78 NAA=     0 NBB=     0.
 DE(Corr)= -0.81099681     E(CORR)=     -1032.5937938     Delta=-3.69D-07
 NORM(A)=   0.11411581D+01
 Iteration Nr.  14
 **********************
 DD1Dir will call FoFMem   1 times, MxPair=       156
 NAB=    78 NAA=     0 NBB=     0.
 DE(Corr)= -0.81099699     E(CORR)=     -1032.5937940     Delta=-1.78D-07
 NORM(A)=   0.11411585D+01
 Iteration Nr.  15
 **********************
 DD1Dir will call FoFMem   1 times, MxPair=       156
 NAB=    78 NAA=     0 NBB=     0.
 DE(Corr)= -0.81099708     E(CORR)=     -1032.5937941     Delta=-8.42D-08
 NORM(A)=   0.11411586D+01
 Iteration Nr.  16
 **********************
 DD1Dir will call FoFMem   1 times, MxPair=       156
 NAB=    78 NAA=     0 NBB=     0.
 DE(Corr)= -0.81099709     E(CORR)=     -1032.5937941     Delta=-1.76D-08
 NORM(A)=   0.11411587D+01
 Iteration Nr.  17
 **********************
 DD1Dir will call FoFMem   1 times, MxPair=       156
 NAB=    78 NAA=     0 NBB=     0.
 DE(Corr)= -0.81099710     E(CORR)=     -1032.5937941     Delta=-8.67D-09
 NORM(A)=   0.11411587D+01
 Iteration Nr.  18
 **********************
 DD1Dir will call FoFMem   1 times, MxPair=       156
 NAB=    78 NAA=     0 NBB=     0.
 DE(Corr)= -0.81099710     E(CORR)=     -1032.5937941     Delta= 7.08D-09
 NORM(A)=   0.11411587D+01
 Iteration Nr.  19
 **********************
 DD1Dir will call FoFMem   1 times, MxPair=       156
 NAB=    78 NAA=     0 NBB=     0.
 DE(Corr)= -0.81099710     E(CORR)=     -1032.5937941     Delta=-3.18D-09
 NORM(A)=   0.11411587D+01
 Iteration Nr.  20
 **********************
 DD1Dir will call FoFMem   1 times, MxPair=       156
 NAB=    78 NAA=     0 NBB=     0.
 DE(Corr)= -0.81099710     E(CORR)=     -1032.5937941     Delta= 8.98D-10
 NORM(A)=   0.11411587D+01
 Largest amplitude= 5.79D-02

 Z-AMPLITUDE ITERATIONS

 Iteration Nr.   1
 **********************
 DD1Dir will call FoFMem   1 times, MxPair=       156
 NAB=    78 NAA=     0 NBB=     0.
 DE(Z)  -0.78104782D+00          E(Z)=    -0.10325638448D+04
 NORM(A)=   0.11411565D+01
 Iteration Nr.   2
 **********************
 DD1Dir will call FoFMem   1 times, MxPair=       156
 NAB=    78 NAA=     0 NBB=     0.
 DE(Z)  -0.78104779D+00          E(Z)=    -0.10325638448D+04
 NORM(A)=   0.11411584D+01
 Iteration Nr.   3
 **********************
 DD1Dir will call FoFMem   1 times, MxPair=       156
 NAB=    78 NAA=     0 NBB=     0.
 DE(Z)  -0.78104782D+00          E(Z)=    -0.10325638448D+04
 NORM(A)=   0.11411584D+01
 Iteration Nr.   4
 **********************
 DD1Dir will call FoFMem   1 times, MxPair=       156
 NAB=    78 NAA=     0 NBB=     0.
 DE(Z)  -0.78104782D+00          E(Z)=    -0.10325638448D+04
 NORM(A)=   0.11411584D+01
 Iteration Nr.   5
 **********************
 DD1Dir will call FoFMem   1 times, MxPair=       156
 NAB=    78 NAA=     0 NBB=     0.
 DE(Z)  -0.78104782D+00          E(Z)=    -0.10325638448D+04
 NORM(A)=   0.11306503D+01
 Iteration Nr.   6
 **********************
 DD1Dir will call FoFMem   1 times, MxPair=       156
 NAB=    78 NAA=     0 NBB=     0.
 DE(Z)  -0.78089184D+00          E(Z)=    -0.10325636888D+04
 NORM(A)=   0.11305809D+01
 Iteration Nr.   7
 **********************
 DD1Dir will call FoFMem   1 times, MxPair=       156
 NAB=    78 NAA=     0 NBB=     0.
 DE(Z)  -0.78087933D+00          E(Z)=    -0.10325636763D+04
 NORM(A)=   0.11305483D+01
 Iteration Nr.   8
 **********************
 DD1Dir will call FoFMem   1 times, MxPair=       156
 NAB=    78 NAA=     0 NBB=     0.
 DE(Z)  -0.78086418D+00          E(Z)=    -0.10325636612D+04
 NORM(A)=   0.11305249D+01
 Iteration Nr.   9
 **********************
 DD1Dir will call FoFMem   1 times, MxPair=       156
 NAB=    78 NAA=     0 NBB=     0.
 DE(Z)  -0.78086763D+00          E(Z)=    -0.10325636646D+04
 NORM(A)=   0.11305280D+01
 Iteration Nr.  10
 **********************
 DD1Dir will call FoFMem   1 times, MxPair=       156
 NAB=    78 NAA=     0 NBB=     0.
 DE(Z)  -0.78086726D+00          E(Z)=    -0.10325636643D+04
 NORM(A)=   0.11305297D+01
 Iteration Nr.  11
 **********************
 DD1Dir will call FoFMem   1 times, MxPair=       156
 NAB=    78 NAA=     0 NBB=     0.
 DE(Z)  -0.78086724D+00          E(Z)=    -0.10325636643D+04
 NORM(A)=   0.11305309D+01
 Iteration Nr.  12
 **********************
 DD1Dir will call FoFMem   1 times, MxPair=       156
 NAB=    78 NAA=     0 NBB=     0.
 DE(Z)  -0.78086816D+00          E(Z)=    -0.10325636652D+04
 NORM(A)=   0.11305320D+01
 Iteration Nr.  13
 **********************
 DD1Dir will call FoFMem   1 times, MxPair=       156
 NAB=    78 NAA=     0 NBB=     0.
 DE(Z)  -0.78086769D+00          E(Z)=    -0.10325636647D+04
 NORM(A)=   0.11305322D+01
 Iteration Nr.  14
 **********************
 DD1Dir will call FoFMem   1 times, MxPair=       156
 NAB=    78 NAA=     0 NBB=     0.
 DE(Z)  -0.78086804D+00          E(Z)=    -0.10325636650D+04
 NORM(A)=   0.11305323D+01
 Iteration Nr.  15
 **********************
 DD1Dir will call FoFMem   1 times, MxPair=       156
 NAB=    78 NAA=     0 NBB=     0.
 DE(Z)  -0.78086796D+00          E(Z)=    -0.10325636650D+04
 NORM(A)=   0.11305323D+01
 Iteration Nr.  16
 **********************
 DD1Dir will call FoFMem   1 times, MxPair=       156
 NAB=    78 NAA=     0 NBB=     0.
 DE(Z)  -0.78086797D+00          E(Z)=    -0.10325636650D+04
 NORM(A)=   0.11305323D+01
 Iteration Nr.  17
 **********************
 DD1Dir will call FoFMem   1 times, MxPair=       156
 NAB=    78 NAA=     0 NBB=     0.
 DE(Z)  -0.78086798D+00          E(Z)=    -0.10325636650D+04
 NORM(A)=   0.11305323D+01
 Iteration Nr.  18
 **********************
 DD1Dir will call FoFMem   1 times, MxPair=       156
 NAB=    78 NAA=     0 NBB=     0.
 DE(Z)  -0.78086797D+00          E(Z)=    -0.10325636650D+04
 NORM(A)=   0.11305323D+01
 Iteration Nr.  19
 **********************
 DD1Dir will call FoFMem   1 times, MxPair=       156
 NAB=    78 NAA=     0 NBB=     0.
 DE(Z)  -0.78086797D+00          E(Z)=    -0.10325636650D+04
 NORM(A)=   0.11305323D+01
 Discarding MO integrals.
          IDoAtm=1111
          Differentiating once with respect to electric field.
                with respect to dipole field.
          Differentiating once with respect to nuclear coordinates.
          Keep R1 ints in memory in canonical form, NReq=342715892.
          There are     1 degrees of freedom in the 1st order CPHF.  IDoFFX=0.
 LinEq1:  Iter=  0 NonCon=     1 RMS=2.50D-03 Max=8.17D-02
 AX will form     1 AO Fock derivatives at one time.
 LinEq1:  Iter=  1 NonCon=     1 RMS=8.75D-04 Max=1.67D-02
 LinEq1:  Iter=  2 NonCon=     1 RMS=3.43D-04 Max=8.08D-03
 LinEq1:  Iter=  3 NonCon=     1 RMS=1.47D-04 Max=4.81D-03
 LinEq1:  Iter=  4 NonCon=     1 RMS=6.27D-05 Max=1.04D-03
 LinEq1:  Iter=  5 NonCon=     1 RMS=1.52D-05 Max=3.56D-04
 LinEq1:  Iter=  6 NonCon=     1 RMS=3.78D-06 Max=6.68D-05
 LinEq1:  Iter=  7 NonCon=     1 RMS=1.02D-06 Max=1.46D-05
 LinEq1:  Iter=  8 NonCon=     1 RMS=2.49D-07 Max=4.60D-06
 LinEq1:  Iter=  9 NonCon=     1 RMS=5.99D-08 Max=1.27D-06
 LinEq1:  Iter= 10 NonCon=     1 RMS=1.60D-08 Max=3.38D-07
 LinEq1:  Iter= 11 NonCon=     1 RMS=3.52D-09 Max=5.49D-08
 LinEq1:  Iter= 12 NonCon=     1 RMS=7.62D-10 Max=1.60D-08
 LinEq1:  Iter= 13 NonCon=     1 RMS=1.25D-10 Max=2.04D-09
 LinEq1:  Iter= 14 NonCon=     0 RMS=1.69D-11 Max=2.56D-10
 Linear equations converged to 1.000D-10 1.000D-09 after    14 iterations.
 End of Minotr Frequency-dependent properties file   721 does not exist.
 End of Minotr Frequency-dependent properties file   722 does not exist.

 **********************************************************************

            Population analysis using the QCI/CC density.

 **********************************************************************

 Alpha  occ. eigenvalues -- -104.90133-104.90132 -20.61777 -11.49014 -10.62448
 Alpha  occ. eigenvalues --  -10.62447  -8.09124  -8.09124  -8.08912  -8.08911
 Alpha  occ. eigenvalues --   -8.08893  -8.08893  -1.42813  -1.19501  -1.14800
 Alpha  occ. eigenvalues --   -0.81465  -0.69094  -0.67709  -0.62173  -0.52594
 Alpha  occ. eigenvalues --   -0.50969  -0.50561  -0.48678  -0.48001
 Alpha virt. eigenvalues --    0.04489   0.06444   0.06947   0.08316   0.08781
 Alpha virt. eigenvalues --    0.09129   0.11491   0.12603   0.12710   0.13606
 Alpha virt. eigenvalues --    0.14897   0.15586   0.21722   0.22179   0.23721
 Alpha virt. eigenvalues --    0.24038   0.24898   0.25692   0.27985   0.30232
 Alpha virt. eigenvalues --    0.31108   0.31868   0.35721   0.38908   0.42296
 Alpha virt. eigenvalues --    0.43838   0.43896   0.45815   0.47040   0.48541
 Alpha virt. eigenvalues --    0.50689   0.51110   0.51471   0.52303   0.54269
 Alpha virt. eigenvalues --    0.59658   0.65063   0.67808   0.70188   0.70284
 Alpha virt. eigenvalues --    0.72069   0.73747   0.75951   0.79849   0.81077
 Alpha virt. eigenvalues --    0.83038   0.83211   0.84755   0.87236   0.88345
 Alpha virt. eigenvalues --    0.88510   0.90339   0.92511   0.92695   0.95533
 Alpha virt. eigenvalues --    0.95861   0.96651   1.03840   1.04509   1.05173
 Alpha virt. eigenvalues --    1.07143   1.12129   1.14400   1.15575   1.16335
 Alpha virt. eigenvalues --    1.19501   1.24272   1.25059   1.25959   1.29504
 Alpha virt. eigenvalues --    1.35487   1.36196   1.40127   1.41116   1.47696
 Alpha virt. eigenvalues --    1.49007   1.49695   1.54435   1.57633   1.62097
 Alpha virt. eigenvalues --    1.62503   1.66532   1.67119   1.73169   1.80120
 Alpha virt. eigenvalues --    1.81387   1.84021   1.84683   1.86941   1.97195
 Alpha virt. eigenvalues --    2.05906   2.23957   2.26686   2.32860   2.34596
 Alpha virt. eigenvalues --    2.37742   2.42612   2.45184   2.45668   2.46853
 Alpha virt. eigenvalues --    2.50981   2.55404   2.56450   2.57205   2.59701
 Alpha virt. eigenvalues --    2.61051   2.61758   2.64347   2.68022   2.74846
 Alpha virt. eigenvalues --    2.75744   2.78093   2.83056   2.87726   2.88975
 Alpha virt. eigenvalues --    2.92027   2.94537   2.96687   2.99356   3.00921
 Alpha virt. eigenvalues --    3.02753   3.03998   3.04712   3.07072   3.10511
 Alpha virt. eigenvalues --    3.11684   3.11949   3.14222   3.18589   3.19907
 Alpha virt. eigenvalues --    3.21310   3.27812   3.35714   3.53106   3.60846
 Alpha virt. eigenvalues --    3.62145   3.68228   3.69208   3.78575   3.83507
 Alpha virt. eigenvalues --    3.85031   3.95463   4.00238   4.06959   4.11192
 Alpha virt. eigenvalues --    4.35983   4.38267   4.55417   4.66152   4.92589
 Alpha virt. eigenvalues --    5.26207   5.57557   6.54848   6.57946   6.83781
 Alpha virt. eigenvalues --    6.84065   6.95160   7.05654   7.10499   7.12768
 Alpha virt. eigenvalues --    7.13738   7.16928   7.39870   7.49497   7.63873
 Alpha virt. eigenvalues --    7.67173  12.08132  14.31081
          Condensed to atoms (all electrons):
              1          2          3          4
     1  O    8.107968   0.383485  -0.065321  -0.065321
     2  C    0.383485   5.040763   0.117929   0.117929
     3  Cl  -0.065321   0.117929  17.008878  -0.071944
     4  Cl  -0.065321   0.117929  -0.071944  17.008878
 Mulliken atomic charges:
              1
     1  O   -0.360811
     2  C    0.339894
     3  Cl   0.010458
     4  Cl   0.010458
 Sum of Mulliken atomic charges =   0.00000
 Mulliken charges with hydrogens summed into heavy atoms:
              1
     1  O   -0.360811
     2  C    0.339894
     3  Cl   0.010458
     4  Cl   0.010458
 Sum of Mulliken charges with hydrogens summed into heavy atoms =   0.00000
 Electronic spatial extent (au):  <R**2>=            633.4627
 Charge=              0.0000 electrons
 Dipole moment (field-independent basis, Debye):
    X=              0.0000    Y=              0.0000    Z=             -1.6365  Tot=              1.6365
 Quadrupole moment (field-independent basis, Debye-Ang):
   XX=            -35.2927   YY=            -33.5031   ZZ=            -36.3711
   XY=              0.0000   XZ=              0.0000   YZ=              0.0000
 Traceless Quadrupole moment (field-independent basis, Debye-Ang):
   XX=             -0.2370   YY=              1.5525   ZZ=             -1.3155
   XY=              0.0000   XZ=              0.0000   YZ=              0.0000
 Octapole moment (field-independent basis, Debye-Ang**2):
  XXX=              0.0000  YYY=              0.0000  ZZZ=            105.6320  XYY=              0.0000
  XXY=              0.0000  XXZ=             35.4827  XZZ=              0.0000  YZZ=              0.0000
  YYZ=             27.9948  XYZ=              0.0000
 Hexadecapole moment (field-independent basis, Debye-Ang**3):
 XXXX=            -37.4690 YYYY=           -351.4827 ZZZZ=           -377.8877 XXXY=              0.0000
 XXXZ=              0.0000 YYYX=              0.0000 YYYZ=              0.0000 ZZZX=              0.0000
 ZZZY=              0.0000 XXYY=            -70.6997 XXZZ=            -69.6823 YYZZ=           -110.6909
 XXYZ=              0.0000 YYXZ=              0.0000 ZZXY=              0.0000
 N-N= 1.865007297221D+02 E-N=-2.826880762098D+03  KE= 1.032043442427D+03
 Calling FoFJK, ICntrl=      2127 FMM=F ISym2X=0 I1Cent= 0 IOpClX= 0 NMat=1 NMatS=1 NMatT=0.
 -------------------------------------------------------------------
 Center     Atomic                   Forces (Hartrees/Bohr)
 Number     Number              X              Y              Z
 -------------------------------------------------------------------
      1        8           0.000000000    0.000000000   -0.104150467
      2        6           0.000000000    0.000000000    0.105107306
      3       17           0.000000000    0.020241847   -0.000478419
      4       17           0.000000000   -0.020241847   -0.000478419
 -------------------------------------------------------------------
 Cartesian Forces:  Max     0.105107306 RMS     0.043507459

 GradGradGradGradGradGradGradGradGradGradGradGradGradGradGradGradGradGrad
 Berny optimization.
 Internal  Forces:  Max     0.104150467 RMS     0.041856497
 Search for a local minimum.
 Step number   1 out of a maximum of   20
 All quantities printed in internal units (Hartrees-Bohrs-Radians)
 Mixed Optimization -- RFO/linear search
 Second derivative matrix not updated -- first step.
 The second derivative matrix:
                          R1        R2        R3        A1        A2
           R1           0.80209
           R2           0.00000   0.29539
           R3           0.00000   0.00000   0.29539
           A1           0.00000   0.00000   0.00000   0.25000
           A2           0.00000   0.00000   0.00000   0.00000   0.25000
           A3           0.00000   0.00000   0.00000   0.00000   0.00000
           D1           0.00000   0.00000   0.00000   0.00000   0.00000
                          A3        D1
           A3           0.25000
           D1           0.00000   0.00238
 ITU=  0
     Eigenvalues ---    0.00238   0.25000   0.25000   0.29539   0.29539
     Eigenvalues ---    0.80209
 RFO step:  Lambda=-1.81829595D-02 EMin= 2.37799003D-03
 Linear search not attempted -- first point.
 Iteration  1 RMS(Cart)=  0.07380345 RMS(Int)=  0.00183377
 Iteration  2 RMS(Cart)=  0.00159208 RMS(Int)=  0.00000077
 Iteration  3 RMS(Cart)=  0.00000116 RMS(Int)=  0.00000000
 Iteration  4 RMS(Cart)=  0.00000000 RMS(Int)=  0.00000000
 Variable       Old X    -DE/DX   Delta X   Delta X   Delta X     New X
                                 (Linear)    (Quad)   (Total)
    R1        2.37803  -0.10415   0.00000  -0.12697  -0.12697   2.25106
    R2        3.32592  -0.01729   0.00000  -0.05514  -0.05514   3.27078
    R3        3.32592  -0.01729   0.00000  -0.05514  -0.05514   3.27078
    A1        2.09440   0.01168   0.00000   0.04355   0.04355   2.13795
    A2        2.09440   0.01168   0.00000   0.04355   0.04355   2.13795
    A3        2.09440  -0.02336   0.00000  -0.08710  -0.08710   2.00729
    D1        3.14159   0.00000   0.00000   0.00000   0.00000   3.14159
         Item               Value     Threshold  Converged?
 Maximum Force            0.104150     0.000450     NO 
 RMS     Force            0.041856     0.000300     NO 
 Maximum Displacement     0.121640     0.001800     NO 
 RMS     Displacement     0.074255     0.001200     NO 
 Predicted change in Energy=-9.396799D-03
 GradGradGradGradGradGradGradGradGradGradGradGradGradGradGradGradGradGrad

                          Input orientation:                          
 ---------------------------------------------------------------------
 Center     Atomic      Atomic             Coordinates (Angstroms)
 Number     Number       Type             X           Y           Z
 ---------------------------------------------------------------------
      1          8           0        0.000000    0.000000    0.670608
      2          6           0        0.000000    0.000000   -0.520602
      3         17           0        0.000000   -1.459835   -1.450453
      4         17           0        0.000000    1.459835   -1.450453
 ---------------------------------------------------------------------
                    Distance matrix (angstroms):
                    1          2          3          4
     1  O    0.000000
     2  C    1.191210   0.000000
     3  Cl   2.574882   1.730821   0.000000
     4  Cl   2.574882   1.730821   2.919671   0.000000
 Symmetry turned off by external request.
 Stoichiometry    CCl2O
 Framework group  C2V[C2(CO),SGV(Cl2)]
 Deg. of freedom     3
 Full point group                 C2V     NOp   4
 Rotational constants (GHZ):      8.2068942      3.3907677      2.3994209
 Standard basis: Aug-CC-pVTZ (5D, 7F)
 Integral buffers will be    131072 words long.
 Raffenetti 1 integral format.
 Two-electron integral symmetry is turned off.
   192 basis functions,   372 primitive gaussians,   228 cartesian basis functions
    24 alpha electrons       24 beta electrons
       nuclear repulsion energy       191.9738540674 Hartrees.
 NAtoms=    4 NActive=    4 NUniq=    4 SFac= 1.00D+00 NAtFMM=   50 NAOKFM=F Big=F
 One-electron integrals computed using PRISM.
 NBasis=   192 RedAO= T  NBF=   192
 NBsUse=   192 1.00D-06 NBFU=   192
 Initial guess read from the read-write file.
 B after Tr=     0.000000    0.000000    0.000000
         Rot=    1.000000    0.000000    0.000000    0.000000 Ang=   0.00 deg.
 Harris functional with IExCor=  205 diagonalized for initial guess.
 ExpMin= 3.57D-02 ExpMax= 4.56D+05 ExpMxC= 1.44D+03 IAcc=3 IRadAn=         0 AccDes= 0.00D+00
 HarFok:  IExCor=  205 AccDes= 0.00D+00 IRadAn=         0 IDoV= 1
 ScaDFX=  1.000000  1.000000  1.000000  1.000000
 FoFCou: FMM=F IPFlag=           0 FMFlag=      100000 FMFlg1=           0
         NFxFlg=           0 DoJE=T BraDBF=F KetDBF=T FulRan=T
         Omega=  0.000000  0.000000  1.000000  0.000000  0.000000 ICntrl=     500 IOpCl=  0
         NMat0=    1 NMatS0=    1 NMatT0=    0 NMatD0=    1 NMtDS0=    0 NMtDT0=    0
         I1Cent=           4 NGrid=           0.
 Symmetry not used in FoFCou.
 Requested convergence on RMS density matrix=1.00D-08 within 128 cycles.
 Requested convergence on MAX density matrix=1.00D-06.
 Requested convergence on             energy=1.00D-06.
 No special actions if energy rises.
 Keep R1 ints in memory in canonical form, NReq=346956363.
 SCF Done:  E(RHF) =  -1031.80142271     A.U. after   11 cycles
             Convg  =    0.4669D-08             -V/T =  2.0003
 ExpMin= 3.57D-02 ExpMax= 4.56D+05 ExpMxC= 1.44D+03 IAcc=3 IRadAn=         5 AccDes= 0.00D+00
 HarFok:  IExCor=  205 AccDes= 0.00D+00 IRadAn=         5 IDoV=-2
 ScaDFX=  1.000000  1.000000  1.000000  1.000000
 DSYEVD returned Info=          93 IAlg= 4 N=    46 NDim=    46 NE2=    21472416 trying DSYEV.
 Range of M.O.s used for correlation:    13   192
 NBasis=   192 NAE=    24 NBE=    24 NFC=    12 NFV=     0
 NROrb=    180 NOA=    12 NOB=    12 NVA=   168 NVB=   168

 **** Warning!!: The largest alpha MO coefficient is  0.30774120D+02

 Semi-Direct transformation.
 ModeAB=           2 MOrb=            12 LenV=    1072714351
 LASXX=     33405819 LTotXX=    33405819 LenRXX=    33405819
 LTotAB=    33954012 MaxLAS=    56388960 LenRXY=    56388960
 NonZer=    66811638 LenScr=   100987392 LnRSAI=           0
 LnScr1=           0 LExtra=           0 Total=    190782171
 MaxDsk=          -1 SrtSym=           F ITran=            4
 JobTyp=0 Pass  1:  I=   1 to  12.
 (rs|ai) integrals will be sorted in core.
 Spin components of T(2) and E(2):
     alpha-alpha T2 =       0.3529033392D-01 E2=     -0.1019397608D+00
     alpha-beta  T2 =       0.1836409541D+00 E2=     -0.5763141847D+00
     beta-beta   T2 =       0.3529033392D-01 E2=     -0.1019397608D+00
 ANorm=    0.1119920364D+01
 E2 =    -0.7801937063D+00 EUMP2 =    -0.10325816164141D+04
 R2 and R3 integrals will be kept in memory, NReq=   687553722.
 Iterations=  50 Convergence= 0.100D-07
 Iteration Nr.   1
 **********************
 DD1Dir will call FoFMem   1 times, MxPair=       156
 NAB=    78 NAA=     0 NBB=     0.
 MP4(R+Q)=  0.22540934D-01
 E3=       -0.18683978D-01        EUMP3=      -0.10326003004D+04
 E4(DQ)=    0.27289471D-02        UMP4(DQ)=   -0.10325975714D+04
 E4(SDQ)=  -0.63445055D-02        UMP4(SDQ)=  -0.10326066449D+04
 DE(Corr)= -0.77633675     E(Corr)=     -1032.5777595    
 NORM(A)=   0.11213856D+01
 Iteration Nr.   2
 **********************
 DD1Dir will call FoFMem   1 times, MxPair=       156
 NAB=    78 NAA=     0 NBB=     0.
 DE(Corr)= -0.80229015     E(CORR)=     -1032.6037129     Delta=-2.60D-02
 NORM(A)=   0.11308120D+01
 Iteration Nr.   3
 **********************
 DD1Dir will call FoFMem   1 times, MxPair=       156
 NAB=    78 NAA=     0 NBB=     0.
 DE(Corr)= -0.80062142     E(CORR)=     -1032.6020441     Delta= 1.67D-03
 NORM(A)=   0.11334671D+01
 Iteration Nr.   4
 **********************
 DD1Dir will call FoFMem   1 times, MxPair=       156
 NAB=    78 NAA=     0 NBB=     0.
 DE(Corr)= -0.80308550     E(CORR)=     -1032.6045082     Delta=-2.46D-03
 NORM(A)=   0.11345093D+01
 Iteration Nr.   5
 **********************
 DD1Dir will call FoFMem   1 times, MxPair=       156
 NAB=    78 NAA=     0 NBB=     0.
 DE(Corr)= -0.80341341     E(CORR)=     -1032.6048361     Delta=-3.28D-04
 NORM(A)=   0.11349154D+01
 Iteration Nr.   6
 **********************
 DD1Dir will call FoFMem   1 times, MxPair=       156
 NAB=    78 NAA=     0 NBB=     0.
 DE(Corr)= -0.80346605     E(CORR)=     -1032.6048888     Delta=-5.26D-05
 NORM(A)=   0.11349903D+01
 Iteration Nr.   7
 **********************
 DD1Dir will call FoFMem   1 times, MxPair=       156
 NAB=    78 NAA=     0 NBB=     0.
 DE(Corr)= -0.80347554     E(CORR)=     -1032.6048982     Delta=-9.50D-06
 NORM(A)=   0.11349904D+01
 Iteration Nr.   8
 **********************
 DD1Dir will call FoFMem   1 times, MxPair=       156
 NAB=    78 NAA=     0 NBB=     0.
 DE(Corr)= -0.80347552     E(CORR)=     -1032.6048982     Delta= 2.01D-08
 NORM(A)=   0.11349984D+01
 Iteration Nr.   9
 **********************
 DD1Dir will call FoFMem   1 times, MxPair=       156
 NAB=    78 NAA=     0 NBB=     0.
 DE(Corr)= -0.80347384     E(CORR)=     -1032.6048965     Delta= 1.68D-06
 NORM(A)=   0.11349976D+01
 Iteration Nr.  10
 **********************
 DD1Dir will call FoFMem   1 times, MxPair=       156
 NAB=    78 NAA=     0 NBB=     0.
 DE(Corr)= -0.80347525     E(CORR)=     -1032.6048980     Delta=-1.41D-06
 NORM(A)=   0.11349992D+01
 Iteration Nr.  11
 **********************
 DD1Dir will call FoFMem   1 times, MxPair=       156
 NAB=    78 NAA=     0 NBB=     0.
 DE(Corr)= -0.80347592     E(CORR)=     -1032.6048986     Delta=-6.77D-07
 NORM(A)=   0.11350004D+01
 Iteration Nr.  12
 **********************
 DD1Dir will call FoFMem   1 times, MxPair=       156
 NAB=    78 NAA=     0 NBB=     0.
 DE(Corr)= -0.80347626     E(CORR)=     -1032.6048990     Delta=-3.31D-07
 NORM(A)=   0.11350011D+01
 Iteration Nr.  13
 **********************
 DD1Dir will call FoFMem   1 times, MxPair=       156
 NAB=    78 NAA=     0 NBB=     0.
 DE(Corr)= -0.80347657     E(CORR)=     -1032.6048993     Delta=-3.14D-07
 NORM(A)=   0.11350015D+01
 Iteration Nr.  14
 **********************
 DD1Dir will call FoFMem   1 times, MxPair=       156
 NAB=    78 NAA=     0 NBB=     0.
 DE(Corr)= -0.80347665     E(CORR)=     -1032.6048994     Delta=-8.18D-08
 NORM(A)=   0.11350017D+01
 Iteration Nr.  15
 **********************
 DD1Dir will call FoFMem   1 times, MxPair=       156
 NAB=    78 NAA=     0 NBB=     0.
 DE(Corr)= -0.80347670     E(CORR)=     -1032.6048994     Delta=-4.87D-08
 NORM(A)=   0.11350018D+01
 Iteration Nr.  16
 **********************
 DD1Dir will call FoFMem   1 times, MxPair=       156
 NAB=    78 NAA=     0 NBB=     0.
 DE(Corr)= -0.80347671     E(CORR)=     -1032.6048994     Delta=-1.52D-08
 NORM(A)=   0.11350018D+01
 Iteration Nr.  17
 **********************
 DD1Dir will call FoFMem   1 times, MxPair=       156
 NAB=    78 NAA=     0 NBB=     0.
 DE(Corr)= -0.80347672     E(CORR)=     -1032.6048994     Delta=-4.50D-10
 NORM(A)=   0.11350018D+01
 Iteration Nr.  18
 **********************
 DD1Dir will call FoFMem   1 times, MxPair=       156
 NAB=    78 NAA=     0 NBB=     0.
 DE(Corr)= -0.80347671     E(CORR)=     -1032.6048994     Delta= 3.63D-10
 NORM(A)=   0.11350018D+01
 Iteration Nr.  19
 **********************
 DD1Dir will call FoFMem   1 times, MxPair=       156
 NAB=    78 NAA=     0 NBB=     0.
 DE(Corr)= -0.80347671     E(CORR)=     -1032.6048994     Delta= 3.76D-11
 NORM(A)=   0.11350018D+01
 Largest amplitude= 3.44D-02

 Z-AMPLITUDE ITERATIONS

 Iteration Nr.   1
 **********************
 DD1Dir will call FoFMem   1 times, MxPair=       156
 NAB=    78 NAA=     0 NBB=     0.
 DE(Z)  -0.77537187D+00          E(Z)=    -0.10325767946D+04
 NORM(A)=   0.11349636D+01
 Iteration Nr.   2
 **********************
 DD1Dir will call FoFMem   1 times, MxPair=       156
 NAB=    78 NAA=     0 NBB=     0.
 DE(Z)  -0.77537064D+00          E(Z)=    -0.10325767934D+04
 NORM(A)=   0.11349798D+01
 Iteration Nr.   3
 **********************
 DD1Dir will call FoFMem   1 times, MxPair=       156
 NAB=    78 NAA=     0 NBB=     0.
 DE(Z)  -0.77537123D+00          E(Z)=    -0.10325767939D+04
 NORM(A)=   0.11349681D+01
 Iteration Nr.   4
 **********************
 DD1Dir will call FoFMem   1 times, MxPair=       156
 NAB=    78 NAA=     0 NBB=     0.
 DE(Z)  -0.77537084D+00          E(Z)=    -0.10325767936D+04
 NORM(A)=   0.11349760D+01
 Iteration Nr.   5
 **********************
 DD1Dir will call FoFMem   1 times, MxPair=       156
 NAB=    78 NAA=     0 NBB=     0.
 DE(Z)  -0.77537106D+00          E(Z)=    -0.10325767938D+04
 NORM(A)=   0.11253155D+01
 Iteration Nr.   6
 **********************
 DD1Dir will call FoFMem   1 times, MxPair=       156
 NAB=    78 NAA=     0 NBB=     0.
 DE(Z)  -0.77506473D+00          E(Z)=    -0.10325764874D+04
 NORM(A)=   0.11253170D+01
 Iteration Nr.   7
 **********************
 DD1Dir will call FoFMem   1 times, MxPair=       156
 NAB=    78 NAA=     0 NBB=     0.
 DE(Z)  -0.77506450D+00          E(Z)=    -0.10325764872D+04
 NORM(A)=   0.11253180D+01
 Iteration Nr.   8
 **********************
 DD1Dir will call FoFMem   1 times, MxPair=       156
 NAB=    78 NAA=     0 NBB=     0.
 DE(Z)  -0.77506419D+00          E(Z)=    -0.10325764869D+04
 NORM(A)=   0.11253184D+01
 Iteration Nr.   9
 **********************
 DD1Dir will call FoFMem   1 times, MxPair=       156
 NAB=    78 NAA=     0 NBB=     0.
 DE(Z)  -0.77506463D+00          E(Z)=    -0.10325764873D+04
 NORM(A)=   0.11253188D+01
 Iteration Nr.  10
 **********************
 DD1Dir will call FoFMem   1 times, MxPair=       156
 NAB=    78 NAA=     0 NBB=     0.
 DE(Z)  -0.77506441D+00          E(Z)=    -0.10325764871D+04
 NORM(A)=   0.11253190D+01
 Iteration Nr.  11
 **********************
 DD1Dir will call FoFMem   1 times, MxPair=       156
 NAB=    78 NAA=     0 NBB=     0.
 DE(Z)  -0.77506453D+00          E(Z)=    -0.10325764872D+04
 NORM(A)=   0.11253190D+01
 Iteration Nr.  12
 **********************
 DD1Dir will call FoFMem   1 times, MxPair=       156
 NAB=    78 NAA=     0 NBB=     0.
 DE(Z)  -0.77506452D+00          E(Z)=    -0.10325764872D+04
 NORM(A)=   0.11253190D+01
 Iteration Nr.  13
 **********************
 DD1Dir will call FoFMem   1 times, MxPair=       156
 NAB=    78 NAA=     0 NBB=     0.
 DE(Z)  -0.77506452D+00          E(Z)=    -0.10325764872D+04
 NORM(A)=   0.11253190D+01
 Iteration Nr.  14
 **********************
 DD1Dir will call FoFMem   1 times, MxPair=       156
 NAB=    78 NAA=     0 NBB=     0.
 DE(Z)  -0.77506452D+00          E(Z)=    -0.10325764872D+04
 NORM(A)=   0.11253190D+01
 Discarding MO integrals.
          IDoAtm=1111
          Differentiating once with respect to electric field.
                with respect to dipole field.
          Differentiating once with respect to nuclear coordinates.
          Keep R1 ints in memory in canonical form, NReq=342715892.
          There are     1 degrees of freedom in the 1st order CPHF.  IDoFFX=0.
 LinEq1:  Iter=  0 NonCon=     1 RMS=2.35D-03 Max=5.89D-02
 AX will form     1 AO Fock derivatives at one time.
 LinEq1:  Iter=  1 NonCon=     1 RMS=8.28D-04 Max=1.73D-02
 LinEq1:  Iter=  2 NonCon=     1 RMS=3.11D-04 Max=4.78D-03
 LinEq1:  Iter=  3 NonCon=     1 RMS=1.28D-04 Max=3.27D-03
 LinEq1:  Iter=  4 NonCon=     1 RMS=5.13D-05 Max=1.07D-03
 LinEq1:  Iter=  5 NonCon=     1 RMS=1.60D-05 Max=3.22D-04
 LinEq1:  Iter=  6 NonCon=     1 RMS=4.12D-06 Max=6.38D-05
 LinEq1:  Iter=  7 NonCon=     1 RMS=9.88D-07 Max=1.16D-05
 LinEq1:  Iter=  8 NonCon=     1 RMS=2.12D-07 Max=3.24D-06
 LinEq1:  Iter=  9 NonCon=     1 RMS=4.84D-08 Max=7.42D-07
 LinEq1:  Iter= 10 NonCon=     1 RMS=1.24D-08 Max=2.42D-07
 LinEq1:  Iter= 11 NonCon=     1 RMS=2.58D-09 Max=4.13D-08
 LinEq1:  Iter= 12 NonCon=     1 RMS=4.90D-10 Max=1.17D-08
 LinEq1:  Iter= 13 NonCon=     1 RMS=8.24D-11 Max=1.37D-09
 LinEq1:  Iter= 14 NonCon=     0 RMS=1.14D-11 Max=1.37D-10
 Linear equations converged to 1.000D-10 1.000D-09 after    14 iterations.
 End of Minotr Frequency-dependent properties file   721 does not exist.
 End of Minotr Frequency-dependent properties file   722 does not exist.
 Calling FoFJK, ICntrl=      2127 FMM=F ISym2X=0 I1Cent= 0 IOpClX= 0 NMat=1 NMatS=1 NMatT=0.
 -------------------------------------------------------------------
 Center     Atomic                   Forces (Hartrees/Bohr)
 Number     Number              X              Y              Z
 -------------------------------------------------------------------
      1        8           0.000000000    0.000000000   -0.016264553
      2        6           0.000000000    0.000000000    0.028364013
      3       17           0.000000000   -0.001095141   -0.006049730
      4       17           0.000000000    0.001095141   -0.006049730
 -------------------------------------------------------------------
 Cartesian Forces:  Max     0.028364013 RMS     0.009766653

 GradGradGradGradGradGradGradGradGradGradGradGradGradGradGradGradGradGrad
 Berny optimization.
 Using GEDIIS/GDIIS optimizer.
 Internal  Forces:  Max     0.016264553 RMS     0.007970599
 Search for a local minimum.
 Step number   2 out of a maximum of   20
 All quantities printed in internal units (Hartrees-Bohrs-Radians)
 Mixed Optimization -- RFO/linear search
 Update second derivatives using D2CorX and points    1    2
 DE= -1.11D-02 DEPred=-9.40D-03 R= 1.18D+00
 SS=  1.41D+00  RLast= 1.83D-01 DXNew= 5.0454D-01 5.4977D-01
 Trust test= 1.18D+00 RLast= 1.83D-01 DXMaxT set to 5.05D-01
 The second derivative matrix:
                          R1        R2        R3        A1        A2
           R1           0.71695
           R2           0.02896   0.31042
           R3           0.02896   0.01503   0.31042
           A1           0.02426   0.00061   0.00061   0.24624
           A2           0.02426   0.00061   0.00061  -0.00376   0.24624
           A3          -0.04852  -0.00121  -0.00121   0.00752   0.00752
           D1           0.00000   0.00000   0.00000   0.00000   0.00000
                          A3        D1
           A3           0.23496
           D1           0.00000   0.00238
 ITU=  1  0
 Use linear search instead of GDIIS.
     Eigenvalues ---    0.00238   0.22026   0.25000   0.29539   0.32137
     Eigenvalues ---    0.72822
 RFO step:  Lambda=-7.07960525D-04 EMin= 2.37799003D-03
 Quartic linear search produced a step of  0.14901.
 Iteration  1 RMS(Cart)=  0.02427335 RMS(Int)=  0.00037935
 Iteration  2 RMS(Cart)=  0.00045791 RMS(Int)=  0.00000004
 Iteration  3 RMS(Cart)=  0.00000005 RMS(Int)=  0.00000000
 Variable       Old X    -DE/DX   Delta X   Delta X   Delta X     New X
                                 (Linear)    (Quad)   (Total)
    R1        2.25106  -0.01626  -0.01892  -0.00617  -0.02509   2.22597
    R2        3.27078   0.00417  -0.00822   0.02607   0.01786   3.28864
    R3        3.27078   0.00417  -0.00822   0.02607   0.01786   3.28864
    A1        2.13795   0.00492   0.00649   0.01420   0.02069   2.15863
    A2        2.13795   0.00492   0.00649   0.01420   0.02069   2.15863
    A3        2.00729  -0.00984  -0.01298  -0.02839  -0.04137   1.96592
    D1        3.14159   0.00000   0.00000   0.00000   0.00000   3.14159
         Item               Value     Threshold  Converged?
 Maximum Force            0.016265     0.000450     NO 
 RMS     Force            0.007971     0.000300     NO 
 Maximum Displacement     0.039568     0.001800     NO 
 RMS     Displacement     0.024524     0.001200     NO 
 Predicted change in Energy=-6.454031D-04
 GradGradGradGradGradGradGradGradGradGradGradGradGradGradGradGradGradGrad

                          Input orientation:                          
 ---------------------------------------------------------------------
 Center     Atomic      Atomic             Coordinates (Angstroms)
 Number     Number       Type             X           Y           Z
 ---------------------------------------------------------------------
      1          8           0        0.000000    0.000000    0.678267
      2          6           0        0.000000    0.000000   -0.499664
      3         17           0        0.000000   -1.448153   -1.464752
      4         17           0        0.000000    1.448153   -1.464752
 ---------------------------------------------------------------------
                    Distance matrix (angstroms):
                    1          2          3          4
     1  O    0.000000
     2  C    1.177931   0.000000
     3  Cl   2.586441   1.740271   0.000000
     4  Cl   2.586441   1.740271   2.896307   0.000000
 Symmetry turned off by external request.
 Stoichiometry    CCl2O
 Framework group  C2V[C2(CO),SGV(Cl2)]
 Deg. of freedom     3
 Full point group                 C2V     NOp   4
 Rotational constants (GHZ):      8.0015792      3.4456935      2.4085204
 Standard basis: Aug-CC-pVTZ (5D, 7F)
 Integral buffers will be    131072 words long.
 Raffenetti 1 integral format.
 Two-electron integral symmetry is turned off.
   192 basis functions,   372 primitive gaussians,   228 cartesian basis functions
    24 alpha electrons       24 beta electrons
       nuclear repulsion energy       192.0482579367 Hartrees.
 NAtoms=    4 NActive=    4 NUniq=    4 SFac= 1.00D+00 NAtFMM=   50 NAOKFM=F Big=F
 One-electron integrals computed using PRISM.
 NBasis=   192 RedAO= T  NBF=   192
 NBsUse=   192 1.00D-06 NBFU=   192
 Initial guess read from the read-write file.
 B after Tr=     0.000000    0.000000    0.000000
         Rot=    1.000000    0.000000    0.000000    0.000000 Ang=   0.00 deg.
 Harris functional with IExCor=  205 diagonalized for initial guess.
 ExpMin= 3.57D-02 ExpMax= 4.56D+05 ExpMxC= 1.44D+03 IAcc=3 IRadAn=         0 AccDes= 0.00D+00
 HarFok:  IExCor=  205 AccDes= 0.00D+00 IRadAn=         0 IDoV= 1
 ScaDFX=  1.000000  1.000000  1.000000  1.000000
 FoFCou: FMM=F IPFlag=           0 FMFlag=      100000 FMFlg1=           0
         NFxFlg=           0 DoJE=T BraDBF=F KetDBF=T FulRan=T
         Omega=  0.000000  0.000000  1.000000  0.000000  0.000000 ICntrl=     500 IOpCl=  0
         NMat0=    1 NMatS0=    1 NMatT0=    0 NMatD0=    1 NMtDS0=    0 NMtDT0=    0
         I1Cent=           4 NGrid=           0.
 Symmetry not used in FoFCou.
 Requested convergence on RMS density matrix=1.00D-08 within 128 cycles.
 Requested convergence on MAX density matrix=1.00D-06.
 Requested convergence on             energy=1.00D-06.
 No special actions if energy rises.
 Keep R1 ints in memory in canonical form, NReq=346956363.
 SCF Done:  E(RHF) =  -1031.80292261     A.U. after   10 cycles
             Convg  =    0.4230D-08             -V/T =  2.0003
 ExpMin= 3.57D-02 ExpMax= 4.56D+05 ExpMxC= 1.44D+03 IAcc=3 IRadAn=         5 AccDes= 0.00D+00
 HarFok:  IExCor=  205 AccDes= 0.00D+00 IRadAn=         5 IDoV=-2
 ScaDFX=  1.000000  1.000000  1.000000  1.000000
 DSYEVD returned Info=         101 IAlg= 4 N=    50 NDim=    50 NE2=    21472416 trying DSYEV.
 Range of M.O.s used for correlation:    13   192
 NBasis=   192 NAE=    24 NBE=    24 NFC=    12 NFV=     0
 NROrb=    180 NOA=    12 NOB=    12 NVA=   168 NVB=   168

 **** Warning!!: The largest alpha MO coefficient is  0.29056896D+02

 Semi-Direct transformation.
 ModeAB=           2 MOrb=            12 LenV=    1072714309
 LASXX=     33405819 LTotXX=    33405819 LenRXX=    33405819
 LTotAB=    33954012 MaxLAS=    56388960 LenRXY=    56388960
 NonZer=    66811638 LenScr=   100987392 LnRSAI=           0
 LnScr1=           0 LExtra=           0 Total=    190782171
 MaxDsk=          -1 SrtSym=           F ITran=            4
 JobTyp=0 Pass  1:  I=   1 to  12.
 (rs|ai) integrals will be sorted in core.
 Spin components of T(2) and E(2):
     alpha-alpha T2 =       0.3518936168D-01 E2=     -0.1017888930D+00
     alpha-beta  T2 =       0.1831236640D+00 E2=     -0.5755883408D+00
     beta-beta   T2 =       0.3518936168D-01 E2=     -0.1017888930D+00
 ANorm=    0.1119599208D+01
 E2 =    -0.7791661269D+00 EUMP2 =    -0.10325820887377D+04
 R2 and R3 integrals will be kept in memory, NReq=   687553722.
 Iterations=  50 Convergence= 0.100D-07
 Iteration Nr.   1
 **********************
 DD1Dir will call FoFMem   1 times, MxPair=       156
 NAB=    78 NAA=     0 NBB=     0.
 MP4(R+Q)=  0.22480345D-01
 E3=       -0.19132143D-01        EUMP3=      -0.10326012209D+04
 E4(DQ)=    0.28685274D-02        UMP4(DQ)=   -0.10325983524D+04
 E4(SDQ)=  -0.60631208D-02        UMP4(SDQ)=  -0.10326072840D+04
 DE(Corr)= -0.77581792     E(Corr)=     -1032.5787405    
 NORM(A)=   0.11211982D+01
 Iteration Nr.   2
 **********************
 DD1Dir will call FoFMem   1 times, MxPair=       156
 NAB=    78 NAA=     0 NBB=     0.
 DE(Corr)= -0.80143280     E(CORR)=     -1032.6043554     Delta=-2.56D-02
 NORM(A)=   0.11305253D+01
 Iteration Nr.   3
 **********************
 DD1Dir will call FoFMem   1 times, MxPair=       156
 NAB=    78 NAA=     0 NBB=     0.
 DE(Corr)= -0.79985472     E(CORR)=     -1032.6027773     Delta= 1.58D-03
 NORM(A)=   0.11331098D+01
 Iteration Nr.   4
 **********************
 DD1Dir will call FoFMem   1 times, MxPair=       156
 NAB=    78 NAA=     0 NBB=     0.
 DE(Corr)= -0.80226922     E(CORR)=     -1032.6051918     Delta=-2.41D-03
 NORM(A)=   0.11341136D+01
 Iteration Nr.   5
 **********************
 DD1Dir will call FoFMem   1 times, MxPair=       156
 NAB=    78 NAA=     0 NBB=     0.
 DE(Corr)= -0.80258414     E(CORR)=     -1032.6055068     Delta=-3.15D-04
 NORM(A)=   0.11345007D+01
 Iteration Nr.   6
 **********************
 DD1Dir will call FoFMem   1 times, MxPair=       156
 NAB=    78 NAA=     0 NBB=     0.
 DE(Corr)= -0.80263439     E(CORR)=     -1032.6055570     Delta=-5.03D-05
 NORM(A)=   0.11345711D+01
 Iteration Nr.   7
 **********************
 DD1Dir will call FoFMem   1 times, MxPair=       156
 NAB=    78 NAA=     0 NBB=     0.
 DE(Corr)= -0.80264344     E(CORR)=     -1032.6055661     Delta=-9.05D-06
 NORM(A)=   0.11345722D+01
 Iteration Nr.   8
 **********************
 DD1Dir will call FoFMem   1 times, MxPair=       156
 NAB=    78 NAA=     0 NBB=     0.
 DE(Corr)= -0.80264301     E(CORR)=     -1032.6055656     Delta= 4.30D-07
 NORM(A)=   0.11345801D+01
 Iteration Nr.   9
 **********************
 DD1Dir will call FoFMem   1 times, MxPair=       156
 NAB=    78 NAA=     0 NBB=     0.
 DE(Corr)= -0.80264177     E(CORR)=     -1032.6055644     Delta= 1.25D-06
 NORM(A)=   0.11345797D+01
 Iteration Nr.  10
 **********************
 DD1Dir will call FoFMem   1 times, MxPair=       156
 NAB=    78 NAA=     0 NBB=     0.
 DE(Corr)= -0.80264295     E(CORR)=     -1032.6055656     Delta=-1.18D-06
 NORM(A)=   0.11345813D+01
 Iteration Nr.  11
 **********************
 DD1Dir will call FoFMem   1 times, MxPair=       156
 NAB=    78 NAA=     0 NBB=     0.
 DE(Corr)= -0.80264375     E(CORR)=     -1032.6055664     Delta=-8.03D-07
 NORM(A)=   0.11345824D+01
 Iteration Nr.  12
 **********************
 DD1Dir will call FoFMem   1 times, MxPair=       156
 NAB=    78 NAA=     0 NBB=     0.
 DE(Corr)= -0.80264400     E(CORR)=     -1032.6055666     Delta=-2.52D-07
 NORM(A)=   0.11345831D+01
 Iteration Nr.  13
 **********************
 DD1Dir will call FoFMem   1 times, MxPair=       156
 NAB=    78 NAA=     0 NBB=     0.
 DE(Corr)= -0.80264432     E(CORR)=     -1032.6055669     Delta=-3.17D-07
 NORM(A)=   0.11345835D+01
 Iteration Nr.  14
 **********************
 DD1Dir will call FoFMem   1 times, MxPair=       156
 NAB=    78 NAA=     0 NBB=     0.
 DE(Corr)= -0.80264439     E(CORR)=     -1032.6055670     Delta=-6.72D-08
 NORM(A)=   0.11345837D+01
 Iteration Nr.  15
 **********************
 DD1Dir will call FoFMem   1 times, MxPair=       156
 NAB=    78 NAA=     0 NBB=     0.
 DE(Corr)= -0.80264443     E(CORR)=     -1032.6055670     Delta=-4.60D-08
 NORM(A)=   0.11345838D+01
 Iteration Nr.  16
 **********************
 DD1Dir will call FoFMem   1 times, MxPair=       156
 NAB=    78 NAA=     0 NBB=     0.
 DE(Corr)= -0.80264445     E(CORR)=     -1032.6055671     Delta=-1.61D-08
 NORM(A)=   0.11345838D+01
 Iteration Nr.  17
 **********************
 DD1Dir will call FoFMem   1 times, MxPair=       156
 NAB=    78 NAA=     0 NBB=     0.
 DE(Corr)= -0.80264445     E(CORR)=     -1032.6055671     Delta= 1.34D-09
 NORM(A)=   0.11345838D+01
 Iteration Nr.  18
 **********************
 DD1Dir will call FoFMem   1 times, MxPair=       156
 NAB=    78 NAA=     0 NBB=     0.
 DE(Corr)= -0.80264445     E(CORR)=     -1032.6055671     Delta=-1.03D-09
 NORM(A)=   0.11345838D+01
 Iteration Nr.  19
 **********************
 DD1Dir will call FoFMem   1 times, MxPair=       156
 NAB=    78 NAA=     0 NBB=     0.
 DE(Corr)= -0.80264445     E(CORR)=     -1032.6055671     Delta= 3.45D-10
 NORM(A)=   0.11345838D+01
 Largest amplitude= 3.41D-02

 Z-AMPLITUDE ITERATIONS

 Iteration Nr.   1
 **********************
 DD1Dir will call FoFMem   1 times, MxPair=       156
 NAB=    78 NAA=     0 NBB=     0.
 DE(Z)  -0.77467020D+00          E(Z)=    -0.10325775928D+04
 NORM(A)=   0.11345809D+01
 Iteration Nr.   2
 **********************
 DD1Dir will call FoFMem   1 times, MxPair=       156
 NAB=    78 NAA=     0 NBB=     0.
 DE(Z)  -0.77467010D+00          E(Z)=    -0.10325775927D+04
 NORM(A)=   0.11345841D+01
 Iteration Nr.   3
 **********************
 DD1Dir will call FoFMem   1 times, MxPair=       156
 NAB=    78 NAA=     0 NBB=     0.
 DE(Z)  -0.77467020D+00          E(Z)=    -0.10325775928D+04
 NORM(A)=   0.11345809D+01
 Iteration Nr.   4
 **********************
 DD1Dir will call FoFMem   1 times, MxPair=       156
 NAB=    78 NAA=     0 NBB=     0.
 DE(Z)  -0.77467011D+00          E(Z)=    -0.10325775927D+04
 NORM(A)=   0.11345649D+01
 Iteration Nr.   5
 **********************
 DD1Dir will call FoFMem   1 times, MxPair=       156
 NAB=    78 NAA=     0 NBB=     0.
 DE(Z)  -0.77466960D+00          E(Z)=    -0.10325775922D+04
 NORM(A)=   0.11249621D+01
 Iteration Nr.   6
 **********************
 DD1Dir will call FoFMem   1 times, MxPair=       156
 NAB=    78 NAA=     0 NBB=     0.
 DE(Z)  -0.77434929D+00          E(Z)=    -0.10325772719D+04
 NORM(A)=   0.11249502D+01
 Iteration Nr.   7
 **********************
 DD1Dir will call FoFMem   1 times, MxPair=       156
 NAB=    78 NAA=     0 NBB=     0.
 DE(Z)  -0.77434955D+00          E(Z)=    -0.10325772722D+04
 NORM(A)=   0.11249510D+01
 Iteration Nr.   8
 **********************
 DD1Dir will call FoFMem   1 times, MxPair=       156
 NAB=    78 NAA=     0 NBB=     0.
 DE(Z)  -0.77434934D+00          E(Z)=    -0.10325772720D+04
 NORM(A)=   0.11249515D+01
 Iteration Nr.   9
 **********************
 DD1Dir will call FoFMem   1 times, MxPair=       156
 NAB=    78 NAA=     0 NBB=     0.
 DE(Z)  -0.77434954D+00          E(Z)=    -0.10325772722D+04
 NORM(A)=   0.11249519D+01
 Iteration Nr.  10
 **********************
 DD1Dir will call FoFMem   1 times, MxPair=       156
 NAB=    78 NAA=     0 NBB=     0.
 DE(Z)  -0.77434981D+00          E(Z)=    -0.10325772724D+04
 NORM(A)=   0.11249522D+01
 Iteration Nr.  11
 **********************
 DD1Dir will call FoFMem   1 times, MxPair=       156
 NAB=    78 NAA=     0 NBB=     0.
 DE(Z)  -0.77434968D+00          E(Z)=    -0.10325772723D+04
 NORM(A)=   0.11249522D+01
 Iteration Nr.  12
 **********************
 DD1Dir will call FoFMem   1 times, MxPair=       156
 NAB=    78 NAA=     0 NBB=     0.
 DE(Z)  -0.77434978D+00          E(Z)=    -0.10325772724D+04
 NORM(A)=   0.11249523D+01
 Iteration Nr.  13
 **********************
 DD1Dir will call FoFMem   1 times, MxPair=       156
 NAB=    78 NAA=     0 NBB=     0.
 DE(Z)  -0.77434975D+00          E(Z)=    -0.10325772724D+04
 NORM(A)=   0.11249523D+01
 Iteration Nr.  14
 **********************
 DD1Dir will call FoFMem   1 times, MxPair=       156
 NAB=    78 NAA=     0 NBB=     0.
 DE(Z)  -0.77434975D+00          E(Z)=    -0.10325772724D+04
 NORM(A)=   0.11249523D+01
 Iteration Nr.  15
 **********************
 DD1Dir will call FoFMem   1 times, MxPair=       156
 NAB=    78 NAA=     0 NBB=     0.
 DE(Z)  -0.77434975D+00          E(Z)=    -0.10325772724D+04
 NORM(A)=   0.11249523D+01
 Discarding MO integrals.
          IDoAtm=1111
          Differentiating once with respect to electric field.
                with respect to dipole field.
          Differentiating once with respect to nuclear coordinates.
          Keep R1 ints in memory in canonical form, NReq=342715892.
          There are     1 degrees of freedom in the 1st order CPHF.  IDoFFX=0.
 LinEq1:  Iter=  0 NonCon=     1 RMS=2.34D-03 Max=5.71D-02
 AX will form     1 AO Fock derivatives at one time.
 LinEq1:  Iter=  1 NonCon=     1 RMS=8.27D-04 Max=1.86D-02
 LinEq1:  Iter=  2 NonCon=     1 RMS=3.09D-04 Max=5.68D-03
 LinEq1:  Iter=  3 NonCon=     1 RMS=1.27D-04 Max=3.33D-03
 LinEq1:  Iter=  4 NonCon=     1 RMS=5.06D-05 Max=1.19D-03
 LinEq1:  Iter=  5 NonCon=     1 RMS=1.63D-05 Max=3.66D-04
 LinEq1:  Iter=  6 NonCon=     1 RMS=4.13D-06 Max=5.54D-05
 LinEq1:  Iter=  7 NonCon=     1 RMS=9.80D-07 Max=1.14D-05
 LinEq1:  Iter=  8 NonCon=     1 RMS=2.08D-07 Max=3.14D-06
 LinEq1:  Iter=  9 NonCon=     1 RMS=4.71D-08 Max=8.07D-07
 LinEq1:  Iter= 10 NonCon=     1 RMS=1.20D-08 Max=2.26D-07
 LinEq1:  Iter= 11 NonCon=     1 RMS=2.50D-09 Max=3.84D-08
 LinEq1:  Iter= 12 NonCon=     1 RMS=4.59D-10 Max=1.14D-08
 LinEq1:  Iter= 13 NonCon=     1 RMS=7.75D-11 Max=1.18D-09
 LinEq1:  Iter= 14 NonCon=     0 RMS=1.10D-11 Max=1.25D-10
 Linear equations converged to 1.000D-10 1.000D-09 after    14 iterations.
 End of Minotr Frequency-dependent properties file   721 does not exist.
 End of Minotr Frequency-dependent properties file   722 does not exist.
 Calling FoFJK, ICntrl=      2127 FMM=F ISym2X=0 I1Cent= 0 IOpClX= 0 NMat=1 NMatS=1 NMatT=0.
 -------------------------------------------------------------------
 Center     Atomic                   Forces (Hartrees/Bohr)
 Number     Number              X              Y              Z
 -------------------------------------------------------------------
      1        8           0.000000000    0.000000000    0.001789070
      2        6           0.000000000    0.000000000    0.002164481
      3       17           0.000000000   -0.001348082   -0.001976776
      4       17           0.000000000    0.001348082   -0.001976776
 -------------------------------------------------------------------
 Cartesian Forces:  Max     0.002164481 RMS     0.001269373

 GradGradGradGradGradGradGradGradGradGradGradGradGradGradGradGradGradGrad
 Berny optimization.
 Using GEDIIS/GDIIS optimizer.
 Internal  Forces:  Max     0.002218041 RMS     0.001640827
 Search for a local minimum.
 Step number   3 out of a maximum of   20
 All quantities printed in internal units (Hartrees-Bohrs-Radians)
 Mixed Optimization -- RFO/linear search
 Update second derivatives using D2CorX and points    1    2    3
 DE= -6.68D-04 DEPred=-6.45D-04 R= 1.03D+00
 SS=  1.41D+00  RLast= 6.19D-02 DXNew= 8.4853D-01 1.8578D-01
 Trust test= 1.03D+00 RLast= 6.19D-02 DXMaxT set to 5.05D-01
 The second derivative matrix:
                          R1        R2        R3        A1        A2
           R1           0.87234
           R2           0.07512   0.29640
           R3           0.07512   0.00100   0.29640
           A1           0.00930  -0.01185  -0.01185   0.24535
           A2           0.00930  -0.01185  -0.01185  -0.00465   0.24535
           A3          -0.01860   0.02369   0.02369   0.00930   0.00930
           D1           0.00000   0.00000   0.00000   0.00000   0.00000
                          A3        D1
           A3           0.23140
           D1           0.00000   0.00238
 ITU=  1  1  0
 Use linear search instead of GDIIS.
     Eigenvalues ---    0.00238   0.19742   0.25000   0.29539   0.30273
     Eigenvalues ---    0.89169
 RFO step:  Lambda=-4.51799172D-05 EMin= 2.37799003D-03
 Quartic linear search produced a step of  0.14910.
 Iteration  1 RMS(Cart)=  0.00731632 RMS(Int)=  0.00002568
 Iteration  2 RMS(Cart)=  0.00003650 RMS(Int)=  0.00000000
 Iteration  3 RMS(Cart)=  0.00000000 RMS(Int)=  0.00000000
 Variable       Old X    -DE/DX   Delta X   Delta X   Delta X     New X
                                 (Linear)    (Quad)   (Total)
    R1        2.22597   0.00179  -0.00374   0.00403   0.00029   2.22626
    R2        3.28864   0.00222   0.00266   0.00587   0.00854   3.29717
    R3        3.28864   0.00222   0.00266   0.00587   0.00854   3.29717
    A1        2.15863   0.00098   0.00308   0.00211   0.00519   2.16382
    A2        2.15863   0.00098   0.00308   0.00211   0.00519   2.16382
    A3        1.96592  -0.00197  -0.00617  -0.00421  -0.01038   1.95554
    D1        3.14159   0.00000   0.00000   0.00000   0.00000  -3.14159
         Item               Value     Threshold  Converged?
 Maximum Force            0.002218     0.000450     NO 
 RMS     Force            0.001641     0.000300     NO 
 Maximum Displacement     0.009695     0.001800     NO 
 RMS     Displacement     0.007335     0.001200     NO 
 Predicted change in Energy=-3.520582D-05
 GradGradGradGradGradGradGradGradGradGradGradGradGradGradGradGradGradGrad

                          Input orientation:                          
 ---------------------------------------------------------------------
 Center     Atomic      Atomic             Coordinates (Angstroms)
 Number     Number       Type             X           Y           Z
 ---------------------------------------------------------------------
      1          8           0        0.000000    0.000000    0.683397
      2          6           0        0.000000    0.000000   -0.494687
      3         17           0        0.000000   -1.446870   -1.469805
      4         17           0        0.000000    1.446870   -1.469805
 ---------------------------------------------------------------------
                    Distance matrix (angstroms):
                    1          2          3          4
     1  O    0.000000
     2  C    1.178084   0.000000
     3  Cl   2.594169   1.744789   0.000000
     4  Cl   2.594169   1.744789   2.893740   0.000000
 Symmetry turned off by external request.
 Stoichiometry    CCl2O
 Framework group  CS[SG(CO),X(Cl2)]
 Deg. of freedom     4
 Full point group                 CS      NOp   2
 Rotational constants (GHZ):      7.9179334      3.4518094      2.4038536
 Standard basis: Aug-CC-pVTZ (5D, 7F)
 Integral buffers will be    131072 words long.
 Raffenetti 1 integral format.
 Two-electron integral symmetry is turned off.
   192 basis functions,   372 primitive gaussians,   228 cartesian basis functions
    24 alpha electrons       24 beta electrons
       nuclear repulsion energy       191.7658914073 Hartrees.
 NAtoms=    4 NActive=    4 NUniq=    4 SFac= 1.00D+00 NAtFMM=   50 NAOKFM=F Big=F
 One-electron integrals computed using PRISM.
 NBasis=   192 RedAO= T  NBF=   192
 NBsUse=   192 1.00D-06 NBFU=   192
 Initial guess read from the read-write file.
 B after Tr=     0.000000    0.000000    0.000000
         Rot=    1.000000    0.000000    0.000000    0.000000 Ang=   0.00 deg.
 Requested convergence on RMS density matrix=1.00D-08 within 128 cycles.
 Requested convergence on MAX density matrix=1.00D-06.
 Requested convergence on             energy=1.00D-06.
 No special actions if energy rises.
 Keep R1 ints in memory in canonical form, NReq=346956363.
 SCF Done:  E(RHF) =  -1031.80274330     A.U. after    9 cycles
             Convg  =    0.3222D-08             -V/T =  2.0003
 ExpMin= 3.57D-02 ExpMax= 4.56D+05 ExpMxC= 1.44D+03 IAcc=3 IRadAn=         5 AccDes= 0.00D+00
 HarFok:  IExCor=  205 AccDes= 0.00D+00 IRadAn=         5 IDoV=-2
 ScaDFX=  1.000000  1.000000  1.000000  1.000000
 Range of M.O.s used for correlation:    13   192
 NBasis=   192 NAE=    24 NBE=    24 NFC=    12 NFV=     0
 NROrb=    180 NOA=    12 NOB=    12 NVA=   168 NVB=   168

 **** Warning!!: The largest alpha MO coefficient is  0.28796549D+02

 Semi-Direct transformation.
 ModeAB=           2 MOrb=            12 LenV=    1072714337
 LASXX=     33405819 LTotXX=    33405819 LenRXX=    33405819
 LTotAB=    33954012 MaxLAS=    56388960 LenRXY=    56388960
 NonZer=    66811638 LenScr=   100987392 LnRSAI=           0
 LnScr1=           0 LExtra=           0 Total=    190782171
 MaxDsk=          -1 SrtSym=           F ITran=            4
 JobTyp=0 Pass  1:  I=   1 to  12.
 (rs|ai) integrals will be sorted in core.
 Spin components of T(2) and E(2):
     alpha-alpha T2 =       0.3523604489D-01 E2=     -0.1018047048D+00
     alpha-beta  T2 =       0.1834140055D+00 E2=     -0.5757993596D+00
     beta-beta   T2 =       0.3523604489D-01 E2=     -0.1018047048D+00
 ANorm=    0.1119770555D+01
 E2 =    -0.7794087693D+00 EUMP2 =    -0.10325821520663D+04
 R2 and R3 integrals will be kept in memory, NReq=   687553722.
 Iterations=  50 Convergence= 0.100D-07
 Iteration Nr.   1
 **********************
 DD1Dir will call FoFMem   1 times, MxPair=       156
 NAB=    78 NAA=     0 NBB=     0.
 MP4(R+Q)=  0.22520356D-01
 E3=       -0.19054764D-01        EUMP3=      -0.10326012068D+04
 E4(DQ)=    0.28541671D-02        UMP4(DQ)=   -0.10325983527D+04
 E4(SDQ)=  -0.61276411D-02        UMP4(SDQ)=  -0.10326073345D+04
 DE(Corr)= -0.77594318     E(Corr)=     -1032.5786865    
 NORM(A)=   0.11213533D+01
 Iteration Nr.   2
 **********************
 DD1Dir will call FoFMem   1 times, MxPair=       156
 NAB=    78 NAA=     0 NBB=     0.
 DE(Corr)= -0.80165602     E(CORR)=     -1032.6043993     Delta=-2.57D-02
 NORM(A)=   0.11307139D+01
 Iteration Nr.   3
 **********************
 DD1Dir will call FoFMem   1 times, MxPair=       156
 NAB=    78 NAA=     0 NBB=     0.
 DE(Corr)= -0.80005216     E(CORR)=     -1032.6027955     Delta= 1.60D-03
 NORM(A)=   0.11333178D+01
 Iteration Nr.   4
 **********************
 DD1Dir will call FoFMem   1 times, MxPair=       156
 NAB=    78 NAA=     0 NBB=     0.
 DE(Corr)= -0.80248202     E(CORR)=     -1032.6052253     Delta=-2.43D-03
 NORM(A)=   0.11343292D+01
 Iteration Nr.   5
 **********************
 DD1Dir will call FoFMem   1 times, MxPair=       156
 NAB=    78 NAA=     0 NBB=     0.
 DE(Corr)= -0.80279931     E(CORR)=     -1032.6055426     Delta=-3.17D-04
 NORM(A)=   0.11347196D+01
 Iteration Nr.   6
 **********************
 DD1Dir will call FoFMem   1 times, MxPair=       156
 NAB=    78 NAA=     0 NBB=     0.
 DE(Corr)= -0.80284997     E(CORR)=     -1032.6055933     Delta=-5.07D-05
 NORM(A)=   0.11347908D+01
 Iteration Nr.   7
 **********************
 DD1Dir will call FoFMem   1 times, MxPair=       156
 NAB=    78 NAA=     0 NBB=     0.
 DE(Corr)= -0.80285912     E(CORR)=     -1032.6056024     Delta=-9.15D-06
 NORM(A)=   0.11347920D+01
 Iteration Nr.   8
 **********************
 DD1Dir will call FoFMem   1 times, MxPair=       156
 NAB=    78 NAA=     0 NBB=     0.
 DE(Corr)= -0.80285870     E(CORR)=     -1032.6056020     Delta= 4.16D-07
 NORM(A)=   0.11348000D+01
 Iteration Nr.   9
 **********************
 DD1Dir will call FoFMem   1 times, MxPair=       156
 NAB=    78 NAA=     0 NBB=     0.
 DE(Corr)= -0.80285744     E(CORR)=     -1032.6056007     Delta= 1.26D-06
 NORM(A)=   0.11347996D+01
 Iteration Nr.  10
 **********************
 DD1Dir will call FoFMem   1 times, MxPair=       156
 NAB=    78 NAA=     0 NBB=     0.
 DE(Corr)= -0.80285863     E(CORR)=     -1032.6056019     Delta=-1.19D-06
 NORM(A)=   0.11348012D+01
 Iteration Nr.  11
 **********************
 DD1Dir will call FoFMem   1 times, MxPair=       156
 NAB=    78 NAA=     0 NBB=     0.
 DE(Corr)= -0.80285945     E(CORR)=     -1032.6056027     Delta=-8.18D-07
 NORM(A)=   0.11348024D+01
 Iteration Nr.  12
 **********************
 DD1Dir will call FoFMem   1 times, MxPair=       156
 NAB=    78 NAA=     0 NBB=     0.
 DE(Corr)= -0.80285970     E(CORR)=     -1032.6056030     Delta=-2.48D-07
 NORM(A)=   0.11348030D+01
 Iteration Nr.  13
 **********************
 DD1Dir will call FoFMem   1 times, MxPair=       156
 NAB=    78 NAA=     0 NBB=     0.
 DE(Corr)= -0.80286002     E(CORR)=     -1032.6056033     Delta=-3.25D-07
 NORM(A)=   0.11348035D+01
 Iteration Nr.  14
 **********************
 DD1Dir will call FoFMem   1 times, MxPair=       156
 NAB=    78 NAA=     0 NBB=     0.
 DE(Corr)= -0.80286009     E(CORR)=     -1032.6056034     Delta=-6.50D-08
 NORM(A)=   0.11348037D+01
 Iteration Nr.  15
 **********************
 DD1Dir will call FoFMem   1 times, MxPair=       156
 NAB=    78 NAA=     0 NBB=     0.
 DE(Corr)= -0.80286013     E(CORR)=     -1032.6056034     Delta=-4.77D-08
 NORM(A)=   0.11348037D+01
 Iteration Nr.  16
 **********************
 DD1Dir will call FoFMem   1 times, MxPair=       156
 NAB=    78 NAA=     0 NBB=     0.
 DE(Corr)= -0.80286015     E(CORR)=     -1032.6056034     Delta=-1.61D-08
 NORM(A)=   0.11348038D+01
 Iteration Nr.  17
 **********************
 DD1Dir will call FoFMem   1 times, MxPair=       156
 NAB=    78 NAA=     0 NBB=     0.
 DE(Corr)= -0.80286015     E(CORR)=     -1032.6056034     Delta= 1.24D-09
 NORM(A)=   0.11348038D+01
 Iteration Nr.  18
 **********************
 DD1Dir will call FoFMem   1 times, MxPair=       156
 NAB=    78 NAA=     0 NBB=     0.
 DE(Corr)= -0.80286015     E(CORR)=     -1032.6056034     Delta=-9.80D-10
 NORM(A)=   0.11348038D+01
 Iteration Nr.  19
 **********************
 DD1Dir will call FoFMem   1 times, MxPair=       156
 NAB=    78 NAA=     0 NBB=     0.
 DE(Corr)= -0.80286015     E(CORR)=     -1032.6056034     Delta= 8.57D-10
 NORM(A)=   0.11348038D+01
 Largest amplitude= 3.33D-02

 Z-AMPLITUDE ITERATIONS

 Iteration Nr.   1
 **********************
 DD1Dir will call FoFMem   1 times, MxPair=       156
 NAB=    78 NAA=     0 NBB=     0.
 DE(Z)  -0.77482415D+00          E(Z)=    -0.10325775674D+04
 NORM(A)=   0.11348021D+01
 Iteration Nr.   2
 **********************
 DD1Dir will call FoFMem   1 times, MxPair=       156
 NAB=    78 NAA=     0 NBB=     0.
 DE(Z)  -0.77482409D+00          E(Z)=    -0.10325775674D+04
 NORM(A)=   0.11348037D+01
 Iteration Nr.   3
 **********************
 DD1Dir will call FoFMem   1 times, MxPair=       156
 NAB=    78 NAA=     0 NBB=     0.
 DE(Z)  -0.77482415D+00          E(Z)=    -0.10325775674D+04
 NORM(A)=   0.11348037D+01
 Iteration Nr.   4
 **********************
 DD1Dir will call FoFMem   1 times, MxPair=       156
 NAB=    78 NAA=     0 NBB=     0.
 DE(Z)  -0.77482415D+00          E(Z)=    -0.10325775674D+04
 NORM(A)=   0.11348037D+01
 Iteration Nr.   5
 **********************
 DD1Dir will call FoFMem   1 times, MxPair=       156
 NAB=    78 NAA=     0 NBB=     0.
 DE(Z)  -0.77482415D+00          E(Z)=    -0.10325775674D+04
 NORM(A)=   0.11252226D+01
 Iteration Nr.   6
 **********************
 DD1Dir will call FoFMem   1 times, MxPair=       156
 NAB=    78 NAA=     0 NBB=     0.
 DE(Z)  -0.77453214D+00          E(Z)=    -0.10325772754D+04
 NORM(A)=   0.11251694D+01
 Iteration Nr.   7
 **********************
 DD1Dir will call FoFMem   1 times, MxPair=       156
 NAB=    78 NAA=     0 NBB=     0.
 DE(Z)  -0.77451284D+00          E(Z)=    -0.10325772561D+04
 NORM(A)=   0.11251492D+01
 Iteration Nr.   8
 **********************
 DD1Dir will call FoFMem   1 times, MxPair=       156
 NAB=    78 NAA=     0 NBB=     0.
 DE(Z)  -0.77450563D+00          E(Z)=    -0.10325772489D+04
 NORM(A)=   0.11251356D+01
 Iteration Nr.   9
 **********************
 DD1Dir will call FoFMem   1 times, MxPair=       156
 NAB=    78 NAA=     0 NBB=     0.
 DE(Z)  -0.77450586D+00          E(Z)=    -0.10325772492D+04
 NORM(A)=   0.11251363D+01
 Iteration Nr.  10
 **********************
 DD1Dir will call FoFMem   1 times, MxPair=       156
 NAB=    78 NAA=     0 NBB=     0.
 DE(Z)  -0.77450580D+00          E(Z)=    -0.10325772491D+04
 NORM(A)=   0.11251369D+01
 Iteration Nr.  11
 **********************
 DD1Dir will call FoFMem   1 times, MxPair=       156
 NAB=    78 NAA=     0 NBB=     0.
 DE(Z)  -0.77450578D+00          E(Z)=    -0.10325772491D+04
 NORM(A)=   0.11251371D+01
 Iteration Nr.  12
 **********************
 DD1Dir will call FoFMem   1 times, MxPair=       156
 NAB=    78 NAA=     0 NBB=     0.
 DE(Z)  -0.77450618D+00          E(Z)=    -0.10325772495D+04
 NORM(A)=   0.11251374D+01
 Iteration Nr.  13
 **********************
 DD1Dir will call FoFMem   1 times, MxPair=       156
 NAB=    78 NAA=     0 NBB=     0.
 DE(Z)  -0.77450601D+00          E(Z)=    -0.10325772493D+04
 NORM(A)=   0.11251375D+01
 Iteration Nr.  14
 **********************
 DD1Dir will call FoFMem   1 times, MxPair=       156
 NAB=    78 NAA=     0 NBB=     0.
 DE(Z)  -0.77450612D+00          E(Z)=    -0.10325772494D+04
 NORM(A)=   0.11251376D+01
 Iteration Nr.  15
 **********************
 DD1Dir will call FoFMem   1 times, MxPair=       156
 NAB=    78 NAA=     0 NBB=     0.
 DE(Z)  -0.77450610D+00          E(Z)=    -0.10325772494D+04
 NORM(A)=   0.11251376D+01
 Iteration Nr.  16
 **********************
 DD1Dir will call FoFMem   1 times, MxPair=       156
 NAB=    78 NAA=     0 NBB=     0.
 DE(Z)  -0.77450610D+00          E(Z)=    -0.10325772494D+04
 NORM(A)=   0.11251376D+01
 Iteration Nr.  17
 **********************
 DD1Dir will call FoFMem   1 times, MxPair=       156
 NAB=    78 NAA=     0 NBB=     0.
 DE(Z)  -0.77450611D+00          E(Z)=    -0.10325772494D+04
 NORM(A)=   0.11251376D+01
 Discarding MO integrals.
          IDoAtm=1111
          Differentiating once with respect to electric field.
                with respect to dipole field.
          Differentiating once with respect to nuclear coordinates.
          Keep R1 ints in memory in canonical form, NReq=342715892.
          There are     1 degrees of freedom in the 1st order CPHF.  IDoFFX=0.
 LinEq1:  Iter=  0 NonCon=     1 RMS=2.34D-03 Max=5.60D-02
 AX will form     1 AO Fock derivatives at one time.
 LinEq1:  Iter=  1 NonCon=     1 RMS=8.29D-04 Max=1.86D-02
 LinEq1:  Iter=  2 NonCon=     1 RMS=3.10D-04 Max=5.64D-03
 LinEq1:  Iter=  3 NonCon=     1 RMS=1.28D-04 Max=3.30D-03
 LinEq1:  Iter=  4 NonCon=     1 RMS=5.11D-05 Max=1.23D-03
 LinEq1:  Iter=  5 NonCon=     1 RMS=1.65D-05 Max=3.62D-04
 LinEq1:  Iter=  6 NonCon=     1 RMS=4.17D-06 Max=5.72D-05
 LinEq1:  Iter=  7 NonCon=     1 RMS=9.92D-07 Max=1.16D-05
 LinEq1:  Iter=  8 NonCon=     1 RMS=2.10D-07 Max=3.15D-06
 LinEq1:  Iter=  9 NonCon=     1 RMS=4.75D-08 Max=8.06D-07
 LinEq1:  Iter= 10 NonCon=     1 RMS=1.20D-08 Max=2.23D-07
 LinEq1:  Iter= 11 NonCon=     1 RMS=2.52D-09 Max=3.83D-08
 LinEq1:  Iter= 12 NonCon=     1 RMS=4.62D-10 Max=1.16D-08
 LinEq1:  Iter= 13 NonCon=     1 RMS=7.81D-11 Max=1.20D-09
 LinEq1:  Iter= 14 NonCon=     0 RMS=1.11D-11 Max=1.28D-10
 Linear equations converged to 1.000D-10 1.000D-09 after    14 iterations.
 End of Minotr Frequency-dependent properties file   721 does not exist.
 End of Minotr Frequency-dependent properties file   722 does not exist.
 Calling FoFJK, ICntrl=      2127 FMM=F ISym2X=0 I1Cent= 0 IOpClX= 0 NMat=1 NMatS=1 NMatT=0.
 -------------------------------------------------------------------
 Center     Atomic                   Forces (Hartrees/Bohr)
 Number     Number              X              Y              Z
 -------------------------------------------------------------------
      1        8           0.000000009    0.000000000   -0.000136484
      2        6          -0.000000020    0.000000000    0.000438715
      3       17           0.000000006   -0.000359864   -0.000151116
      4       17           0.000000006    0.000359864   -0.000151116
 -------------------------------------------------------------------
 Cartesian Forces:  Max     0.000438715 RMS     0.000207319

 GradGradGradGradGradGradGradGradGradGradGradGradGradGradGradGradGradGrad
 Berny optimization.
 Using GEDIIS/GDIIS optimizer.
 Internal  Forces:  Max     0.000382872 RMS     0.000224709
 Search for a local minimum.
 Step number   4 out of a maximum of   20
 All quantities printed in internal units (Hartrees-Bohrs-Radians)
 Mixed Optimization -- En-DIIS/RFO-DIIS
 Update second derivatives using D2CorX and points    1    2    3    4
 DE= -3.64D-05 DEPred=-3.52D-05 R= 1.03D+00
 SS=  1.41D+00  RLast= 1.75D-02 DXNew= 8.4853D-01 5.2613D-02
 Trust test= 1.03D+00 RLast= 1.75D-02 DXMaxT set to 5.05D-01
 The second derivative matrix:
                          R1        R2        R3        A1        A2
           R1           0.83230
           R2           0.06203   0.27482
           R3           0.06203  -0.02057   0.27482
           A1           0.02006  -0.01135  -0.01135   0.24862
           A2           0.02006  -0.01135  -0.01135  -0.00138   0.24862
           A3          -0.04012   0.02270   0.02270   0.00276   0.00276
           D1           0.00000   0.00000   0.00000   0.00000   0.00000
                          A3        D1
           A3           0.24449
           D1           0.00000   0.00238
 ITU=  1  1  1  0
 Use linear search instead of GDIIS.
     Eigenvalues ---    0.00238   0.19396   0.25000   0.28596   0.29539
     Eigenvalues ---    0.84836
 RFO step:  Lambda=-1.08933142D-06 EMin= 2.37799003D-03
 Quartic linear search produced a step of  0.06041.
 Iteration  1 RMS(Cart)=  0.00086279 RMS(Int)=  0.00000008
 Iteration  2 RMS(Cart)=  0.00000011 RMS(Int)=  0.00000000
 Variable       Old X    -DE/DX   Delta X   Delta X   Delta X     New X
                                 (Linear)    (Quad)   (Total)
    R1        2.22626  -0.00014   0.00002  -0.00039  -0.00037   2.22588
    R2        3.29717   0.00038   0.00052   0.00104   0.00156   3.29873
    R3        3.29717   0.00038   0.00052   0.00104   0.00156   3.29873
    A1        2.16382  -0.00008   0.00031  -0.00048  -0.00017   2.16366
    A2        2.16382  -0.00008   0.00031  -0.00048  -0.00017   2.16366
    A3        1.95554   0.00017  -0.00063   0.00096   0.00033   1.95587
    D1       -3.14159   0.00000   0.00000  -0.00001  -0.00001   3.14159
         Item               Value     Threshold  Converged?
 Maximum Force            0.000383     0.000450     YES
 RMS     Force            0.000225     0.000300     YES
 Maximum Displacement     0.001595     0.001800     YES
 RMS     Displacement     0.000863     0.001200     YES
 Predicted change in Energy=-6.612914D-07
 Optimization completed.
    -- Stationary point found.
                           ----------------------------
                           !   Optimized Parameters   !
                           ! (Angstroms and Degrees)  !
 --------------------------                            --------------------------
 ! Name  Definition              Value          Derivative Info.                !
 --------------------------------------------------------------------------------
 ! R1    R(1,2)                  1.1781         -DE/DX =   -0.0001              !
 ! R2    R(2,3)                  1.7448         -DE/DX =    0.0004              !
 ! R3    R(2,4)                  1.7448         -DE/DX =    0.0004              !
 ! A1    A(1,2,3)              123.978          -DE/DX =   -0.0001              !
 ! A2    A(1,2,4)              123.978          -DE/DX =   -0.0001              !
 ! A3    A(3,2,4)              112.044          -DE/DX =    0.0002              !
 ! D1    D(1,2,4,3)            180.0            -DE/DX =    0.0                 !
 --------------------------------------------------------------------------------
 GradGradGradGradGradGradGradGradGradGradGradGradGradGradGradGradGradGrad

                          Input orientation:                          
 ---------------------------------------------------------------------
 Center     Atomic      Atomic             Coordinates (Angstroms)
 Number     Number       Type             X           Y           Z
 ---------------------------------------------------------------------
      1          8           0        0.000000    0.000000    0.683397
      2          6           0        0.000000    0.000000   -0.494687
      3         17           0        0.000000   -1.446870   -1.469805
      4         17           0        0.000000    1.446870   -1.469805
 ---------------------------------------------------------------------
                    Distance matrix (angstroms):
                    1          2          3          4
     1  O    0.000000
     2  C    1.178084   0.000000
     3  Cl   2.594169   1.744789   0.000000
     4  Cl   2.594169   1.744789   2.893740   0.000000
 Symmetry turned off by external request.
 Stoichiometry    CCl2O
 Framework group  CS[SG(CO),X(Cl2)]
 Deg. of freedom     4
 Full point group                 CS      NOp   2
 Rotational constants (GHZ):      7.9179334      3.4518094      2.4038536

 **********************************************************************

            Population analysis using the QCI/CC density.

 **********************************************************************

 Alpha  occ. eigenvalues -- -104.89033-104.89033 -20.62385 -11.47629 -10.61474
 Alpha  occ. eigenvalues --  -10.61472  -8.08151  -8.08151  -8.07940  -8.07939
 Alpha  occ. eigenvalues --   -8.07922  -8.07922  -1.48587  -1.20280  -1.14053
 Alpha  occ. eigenvalues --   -0.81223  -0.70798  -0.70168  -0.64881  -0.53115
 Alpha  occ. eigenvalues --   -0.50173  -0.49904  -0.49524  -0.47705
 Alpha virt. eigenvalues --    0.04778   0.06608   0.07970   0.08607   0.09323
 Alpha virt. eigenvalues --    0.09841   0.11377   0.12504   0.12770   0.13446
 Alpha virt. eigenvalues --    0.15700   0.15883   0.22043   0.22150   0.23662
 Alpha virt. eigenvalues --    0.23883   0.25342   0.26288   0.27970   0.30447
 Alpha virt. eigenvalues --    0.30992   0.31677   0.36353   0.39568   0.43819
 Alpha virt. eigenvalues --    0.44186   0.44239   0.45726   0.47057   0.48396
 Alpha virt. eigenvalues --    0.50797   0.51318   0.52026   0.52362   0.54894
 Alpha virt. eigenvalues --    0.62240   0.64192   0.69240   0.69761   0.71380
 Alpha virt. eigenvalues --    0.71521   0.73596   0.75849   0.79498   0.81360
 Alpha virt. eigenvalues --    0.81589   0.83257   0.83438   0.87005   0.88595
 Alpha virt. eigenvalues --    0.89181   0.91502   0.93369   0.93791   0.94581
 Alpha virt. eigenvalues --    0.96135   0.96649   1.04969   1.06031   1.08839
 Alpha virt. eigenvalues --    1.09708   1.12920   1.14907   1.15999   1.17265
 Alpha virt. eigenvalues --    1.21205   1.23080   1.24230   1.26614   1.33639
 Alpha virt. eigenvalues --    1.36867   1.39728   1.42501   1.46424   1.46729
 Alpha virt. eigenvalues --    1.47098   1.47414   1.56246   1.58071   1.61938
 Alpha virt. eigenvalues --    1.67750   1.67910   1.69458   1.72871   1.80558
 Alpha virt. eigenvalues --    1.81215   1.82779   1.83209   1.85410   2.00856
 Alpha virt. eigenvalues --    2.07251   2.25991   2.28709   2.33590   2.34071
 Alpha virt. eigenvalues --    2.39498   2.44564   2.45215   2.49024   2.49373
 Alpha virt. eigenvalues --    2.52314   2.54232   2.57955   2.59039   2.60510
 Alpha virt. eigenvalues --    2.62143   2.63564   2.66306   2.70388   2.77066
 Alpha virt. eigenvalues --    2.77125   2.81476   2.88537   2.88940   2.91392
 Alpha virt. eigenvalues --    2.92383   2.94576   2.97545   2.99222   3.02330
 Alpha virt. eigenvalues --    3.02624   3.05311   3.06444   3.07229   3.07498
 Alpha virt. eigenvalues --    3.10599   3.13219   3.16252   3.20169   3.21643
 Alpha virt. eigenvalues --    3.25051   3.26580   3.51949   3.53044   3.60367
 Alpha virt. eigenvalues --    3.62875   3.64162   3.70175   3.82347   3.84359
 Alpha virt. eigenvalues --    3.95047   3.96224   4.03115   4.15486   4.19403
 Alpha virt. eigenvalues --    4.43897   4.50777   4.63126   4.75981   5.12351
 Alpha virt. eigenvalues --    5.46242   5.62125   6.56387   6.57773   6.86276
 Alpha virt. eigenvalues --    6.86901   7.04933   7.10223   7.18311   7.18778
 Alpha virt. eigenvalues --    7.19754   7.28405   7.50603   7.51977   7.66653
 Alpha virt. eigenvalues --    7.72791  13.31753  15.69636
          Condensed to atoms (all electrons):
              1          2          3          4
     1  O    8.034137   0.435606  -0.074468  -0.074468
     2  C    0.435606   4.966584   0.136374   0.136374
     3  Cl  -0.074468   0.136374  17.040665  -0.100443
     4  Cl  -0.074468   0.136374  -0.100443  17.040665
 Mulliken atomic charges:
              1
     1  O   -0.320807
     2  C    0.325063
     3  Cl  -0.002128
     4  Cl  -0.002128
 Sum of Mulliken atomic charges =   0.00000
 Mulliken charges with hydrogens summed into heavy atoms:
              1
     1  O   -0.320807
     2  C    0.325063
     3  Cl  -0.002128
     4  Cl  -0.002128
 Sum of Mulliken charges with hydrogens summed into heavy atoms =   0.00000
 Electronic spatial extent (au):  <R**2>=            613.6863
 Charge=              0.0000 electrons
 Dipole moment (field-independent basis, Debye):
    X=              0.0000    Y=              0.0000    Z=             -1.2393  Tot=              1.2393
 Quadrupole moment (field-independent basis, Debye-Ang):
   XX=            -35.0849   YY=            -34.3836   ZZ=            -36.2851
   XY=              0.0000   XZ=              0.0000   YZ=              0.0000
 Traceless Quadrupole moment (field-independent basis, Debye-Ang):
   XX=              0.1663   YY=              0.8676   ZZ=             -1.0339
   XY=              0.0000   XZ=              0.0000   YZ=              0.0000
 Octapole moment (field-independent basis, Debye-Ang**2):
  XXX=              0.0000  YYY=              0.0000  ZZZ=            106.2008  XYY=              0.0000
  XXY=              0.0000  XXZ=             36.0667  XZZ=              0.0000  YZZ=              0.0000
  YYZ=             29.7043  XYZ=              0.0000
 Hexadecapole moment (field-independent basis, Debye-Ang**3):
 XXXX=            -37.1314 YYYY=           -329.2937 ZZZZ=           -383.0999 XXXY=              0.0000
 XXXZ=              0.0000 YYYX=              0.0000 YYYZ=              0.0000 ZZZX=              0.0000
 ZZZY=              0.0000 XXYY=            -65.2563 XXZZ=            -71.0858 YYZZ=           -106.8876
 XXYZ=              0.0000 YYXZ=              0.0000 ZZXY=              0.0000
 N-N= 1.917658914073D+02 E-N=-2.837761113049D+03  KE= 1.032422075510D+03
 1\1\GINC-TRAPISTA\FOpt\RQCISD-FC\Aug-CC-pVTZ\C1Cl2O1\BRUNS\17-Nov-2021
 \0\\#opt qcisd/aug-cc-pvtz density=current nosym\\cl2co\\0,1\O,-0.0000
 000269,0.,0.6833971027\C,0.0000000597,0.,-0.4946871795\Cl,-0.000000016
 4,-1.446869972,-1.4698049616\Cl,-0.0000000164,1.446869972,-1.469804961
 6\\Version=EM64L-G09RevB.01\HF=-1031.8027433\MP2=-1032.5821521\MP3=-10
 32.6012068\MP4D=-1032.620873\MP4DQ=-1032.5983527\MP4SDQ=-1032.6073345\
 QCISD=-1032.6056034\RMSD=3.222e-09\RMSF=2.073e-04\Dipole=0.,0.,-0.4875
 662\Quadrupole=0.123623,0.6450428,-0.7686658,0.,0.0000001,0.\PG=CS [SG
 (C1O1),X(Cl2)]\\@


 CONFIDENCE: THAT QUIET ASSURED FEELING YOU HAVE
 JUST BEFORE YOU FALL FLAT ON YOUR FACE.
 Job cpu time:  0 days  9 hours 50 minutes 13.2 seconds.
 File lengths (MBytes):  RWF=  18214 Int=      0 D2E=      0 Chk=      4 Scr=      1
 Normal termination of Gaussian 09 at Wed Nov 17 13:32:09 2021.
