 Entering Gaussian System, Link 0=/home/bruns/programas/chemistry/gaussian/g09/g09
 Input=./cl2co/cl2co-fv.com
 Output=./cl2co/cl2co-fv.log
 Initial command:
 /home/bruns/programas/chemistry/gaussian/g09/l1.exe /home/bruns/programas/chemistry/gaussian/work/Gau-19682.inp -scrdir=/home/bruns/programas/chemistry/gaussian/work/
 Entering Link 1 = /home/bruns/programas/chemistry/gaussian/g09/l1.exe PID=     19684.
  
 Copyright (c) 1988,1990,1992,1993,1995,1998,2003,2009,2010,
            Gaussian, Inc.  All Rights Reserved.
  
 This is part of the Gaussian(R) 09 program.  It is based on
 the Gaussian(R) 03 system (copyright 2003, Gaussian, Inc.),
 the Gaussian(R) 98 system (copyright 1998, Gaussian, Inc.),
 the Gaussian(R) 94 system (copyright 1995, Gaussian, Inc.),
 the Gaussian 92(TM) system (copyright 1992, Gaussian, Inc.),
 the Gaussian 90(TM) system (copyright 1990, Gaussian, Inc.),
 the Gaussian 88(TM) system (copyright 1988, Gaussian, Inc.),
 the Gaussian 86(TM) system (copyright 1986, Carnegie Mellon
 University), and the Gaussian 82(TM) system (copyright 1983,
 Carnegie Mellon University). Gaussian is a federally registered
 trademark of Gaussian, Inc.
  
 This software contains proprietary and confidential information,
 including trade secrets, belonging to Gaussian, Inc.
  
 This software is provided under written license and may be
 used, copied, transmitted, or stored only in accord with that
 written license.
  
 The following legend is applicable only to US Government
 contracts under FAR:
  
                    RESTRICTED RIGHTS LEGEND
  
 Use, reproduction and disclosure by the US Government is
 subject to restrictions as set forth in subparagraphs (a)
 and (c) of the Commercial Computer Software - Restricted
 Rights clause in FAR 52.227-19.
  
 Gaussian, Inc.
 340 Quinnipiac St., Bldg. 40, Wallingford CT 06492
  
  
 ---------------------------------------------------------------
 Warning -- This program may not be used in any manner that
 competes with the business of Gaussian, Inc. or will provide
 assistance to any competitor of Gaussian, Inc.  The licensee
 of this program is prohibited from giving any competitor of
 Gaussian, Inc. access to this program.  By using this program,
 the user acknowledges that Gaussian, Inc. is engaged in the
 business of creating and licensing software in the field of
 computational chemistry and represents and warrants to the
 licensee that it is not a competitor of Gaussian, Inc. and that
 it will not use this program in any manner prohibited above.
 ---------------------------------------------------------------
  

 Cite this work as:
 Gaussian 09, Revision B.01,
 M. J. Frisch, G. W. Trucks, H. B. Schlegel, G. E. Scuseria, 
 M. A. Robb, J. R. Cheeseman, G. Scalmani, V. Barone, B. Mennucci, 
 G. A. Petersson, H. Nakatsuji, M. Caricato, X. Li, H. P. Hratchian, 
 A. F. Izmaylov, J. Bloino, G. Zheng, J. L. Sonnenberg, M. Hada, 
 M. Ehara, K. Toyota, R. Fukuda, J. Hasegawa, M. Ishida, T. Nakajima, 
 Y. Honda, O. Kitao, H. Nakai, T. Vreven, J. A. Montgomery, Jr., 
 J. E. Peralta, F. Ogliaro, M. Bearpark, J. J. Heyd, E. Brothers, 
 K. N. Kudin, V. N. Staroverov, T. Keith, R. Kobayashi, J. Normand, 
 K. Raghavachari, A. Rendell, J. C. Burant, S. S. Iyengar, J. Tomasi, 
 M. Cossi, N. Rega, J. M. Millam, M. Klene, J. E. Knox, J. B. Cross, 
 V. Bakken, C. Adamo, J. Jaramillo, R. Gomperts, R. E. Stratmann, 
 O. Yazyev, A. J. Austin, R. Cammi, C. Pomelli, J. W. Ochterski, 
 R. L. Martin, K. Morokuma, V. G. Zakrzewski, G. A. Voth, 
 P. Salvador, J. J. Dannenberg, S. Dapprich, A. D. Daniels, 
 O. Farkas, J. B. Foresman, J. V. Ortiz, J. Cioslowski, 
 and D. J. Fox, Gaussian, Inc., Wallingford CT, 2010.
 
 ******************************************
 Gaussian 09:  EM64L-G09RevB.01 12-Aug-2010
                17-Nov-2021 
 ******************************************
 %nproc=8
 Will use up to    8 processors via shared memory.
 %mem=8GB
 ----------------------------------------------------------------------
 #freq=noraman qcisd/aug-cc-pvtz density=current iop(7/33=1) nosym form
 check=forcecart
 ----------------------------------------------------------------------
 1/10=4,30=1,38=11/1,3,6;
 2/12=2,15=1,17=6,18=5,40=1/2;
 3/5=16,6=1,7=10,11=9,16=1,25=1,30=1,71=1/1,2,3;
 4/69=2/1;
 5/5=2,38=5,98=1/2;
 8/6=4,9=120000,10=1/1,4;
 9/5=8,15=1/13;
 11/28=-7,29=200,31=1,42=3/11;
 10/5=6,31=1/2;
 6/7=2,8=2,9=2,10=2,22=-1/1;
 7/12=7,30=1,33=1/1,2,3,16;
 1/38=10/6(3);
 7/8=1,25=1,30=1,33=1,44=-1/16;
 1/10=4,30=1,38=10/3;
 99//99;
 3/5=16,6=1,7=10,11=9,16=1,25=1,30=1,71=1/1,2,3;
 4/5=5,16=3,69=2/1;
 5/5=2,38=5,98=1/2;
 8/6=4,9=120000,10=1/1,4;
 9/5=8,15=1/13;
 11/28=-7,29=200,31=1,42=3/11;
 10/5=6,31=1/2;
 6/7=2,8=2,9=2,10=2,22=-1/1;
 7/7=1,12=7,30=1,33=1/1,2,3,16;
 1/38=10/6(-9);
 7/8=1,25=1,30=1,33=1,44=-1/16;
 1/10=4,30=1,38=10/3;
 99//99;
 -----------------
 cl2co-frequencies
 -----------------
 Symbolic Z-matrix:
 Charge =  0 Multiplicity = 1
 O                     0.        0.        0.6834 
 C                     0.        0.       -0.49469 
 Cl                    0.       -1.44687  -1.46981 
 Cl                    0.        1.44687  -1.46981 
 

 GradGradGradGradGradGradGradGradGradGradGradGradGradGradGradGradGradGrad
 Berny optimization.
 Initialization pass.
 Trust Radius=3.00D-01 FncErr=1.00D-07 GrdErr=1.00D-07
 Number of steps in this run=      2 maximum allowed number of steps=      2.
 GradGradGradGradGradGradGradGradGradGradGradGradGradGradGradGradGradGrad

 NDeriv=  12 NFrqRd=  0 LFDDif=       1
 Numerical evaluation of force-constants.
 Nuclear step= 0.001000 Angstroms, electric field step= 0.000333 atomic units, NStep=1.
                          Input orientation:                          
 ---------------------------------------------------------------------
 Center     Atomic      Atomic             Coordinates (Angstroms)
 Number     Number       Type             X           Y           Z
 ---------------------------------------------------------------------
      1          8           0        0.000000    0.000000    0.683397
      2          6           0        0.000000    0.000000   -0.494687
      3         17           0        0.000000   -1.446870   -1.469805
      4         17           0        0.000000    1.446870   -1.469805
 ---------------------------------------------------------------------
                    Distance matrix (angstroms):
                    1          2          3          4
     1  O    0.000000
     2  C    1.178084   0.000000
     3  Cl   2.594169   1.744789   0.000000
     4  Cl   2.594169   1.744789   2.893740   0.000000
 Symmetry turned off by external request.
 Stoichiometry    CCl2O
 Framework group  C2V[C2(CO),SGV(Cl2)]
 Deg. of freedom     3
 Full point group                 C2V     NOp   4
 Rotational constants (GHZ):      7.9179335      3.4518093      2.4038535
 Standard basis: Aug-CC-pVTZ (5D, 7F)
 Integral buffers will be    131072 words long.
 Raffenetti 1 integral format.
 Two-electron integral symmetry is turned off.
   192 basis functions,   372 primitive gaussians,   228 cartesian basis functions
    24 alpha electrons       24 beta electrons
       nuclear repulsion energy       191.7658912154 Hartrees.
 NAtoms=    4 NActive=    4 NUniq=    4 SFac= 1.00D+00 NAtFMM=   50 NAOKFM=F Big=F
 One-electron integrals computed using PRISM.
 NBasis=   192 RedAO= T  NBF=   192
 NBsUse=   192 1.00D-06 NBFU=   192
 Harris functional with IExCor=  205 diagonalized for initial guess.
 ExpMin= 3.57D-02 ExpMax= 4.56D+05 ExpMxC= 1.44D+03 IAcc=3 IRadAn=         0 AccDes= 0.00D+00
 HarFok:  IExCor=  205 AccDes= 0.00D+00 IRadAn=         0 IDoV= 1
 ScaDFX=  1.000000  1.000000  1.000000  1.000000
 FoFCou: FMM=F IPFlag=           0 FMFlag=      100000 FMFlg1=           0
         NFxFlg=           0 DoJE=T BraDBF=F KetDBF=T FulRan=T
         Omega=  0.000000  0.000000  1.000000  0.000000  0.000000 ICntrl=     500 IOpCl=  0
         NMat0=    1 NMatS0=    1 NMatT0=    0 NMatD0=    1 NMtDS0=    0 NMtDT0=    0
         I1Cent=           4 NGrid=           0.
 Symmetry not used in FoFCou.
 Requested convergence on RMS density matrix=1.00D-08 within 128 cycles.
 Requested convergence on MAX density matrix=1.00D-06.
 Requested convergence on             energy=1.00D-06.
 No special actions if energy rises.
 Keep R1 ints in memory in canonical form, NReq=346956363.
 SCF Done:  E(RHF) =  -1031.80274332     A.U. after   12 cycles
             Convg  =    0.4652D-08             -V/T =  2.0003
 ExpMin= 3.57D-02 ExpMax= 4.56D+05 ExpMxC= 1.44D+03 IAcc=3 IRadAn=         5 AccDes= 0.00D+00
 HarFok:  IExCor=  205 AccDes= 0.00D+00 IRadAn=         5 IDoV=-2
 ScaDFX=  1.000000  1.000000  1.000000  1.000000
 DSYEVD returned Info=          93 IAlg= 4 N=    46 NDim=    46 NE2=    21472416 trying DSYEV.
 DSYEVD returned Info=         101 IAlg= 4 N=    50 NDim=    50 NE2=    21472416 trying DSYEV.
 Range of M.O.s used for correlation:    13   192
 NBasis=   192 NAE=    24 NBE=    24 NFC=    12 NFV=     0
 NROrb=    180 NOA=    12 NOB=    12 NVA=   168 NVB=   168

 **** Warning!!: The largest alpha MO coefficient is  0.28796509D+02

 Semi-Direct transformation.
 ModeAB=           2 MOrb=            12 LenV=    1072714337
 LASXX=     33405819 LTotXX=    33405819 LenRXX=    33405819
 LTotAB=    33954012 MaxLAS=    56388960 LenRXY=    56388960
 NonZer=    66811638 LenScr=   100987392 LnRSAI=           0
 LnScr1=           0 LExtra=           0 Total=    190782171
 MaxDsk=          -1 SrtSym=           F ITran=            4
 JobTyp=0 Pass  1:  I=   1 to  12.
 (rs|ai) integrals will be sorted in core.
 Spin components of T(2) and E(2):
     alpha-alpha T2 =       0.3523603775D-01 E2=     -0.1018046942D+00
     alpha-beta  T2 =       0.1834139799D+00 E2=     -0.5757993262D+00
     beta-beta   T2 =       0.3523603775D-01 E2=     -0.1018046942D+00
 ANorm=    0.1119770537D+01
 E2 =    -0.7794087147D+00 EUMP2 =    -0.10325821520352D+04
 R2 and R3 integrals will be kept in memory, NReq=   687553722.
 Iterations=  50 Convergence= 0.100D-07
 Iteration Nr.   1
 **********************
 DD1Dir will call FoFMem   1 times, MxPair=       156
 NAB=    78 NAA=     0 NBB=     0.
 MP4(R+Q)=  0.22520351D-01
 E3=       -0.19054789D-01        EUMP3=      -0.10326012068D+04
 E4(DQ)=    0.28541697D-02        UMP4(DQ)=   -0.10325983527D+04
 E4(SDQ)=  -0.61276309D-02        UMP4(SDQ)=  -0.10326073345D+04
 DE(Corr)= -0.77594315     E(Corr)=     -1032.5786865    
 NORM(A)=   0.11213533D+01
 Iteration Nr.   2
 **********************
 DD1Dir will call FoFMem   1 times, MxPair=       156
 NAB=    78 NAA=     0 NBB=     0.
 DE(Corr)= -0.80165598     E(CORR)=     -1032.6043993     Delta=-2.57D-02
 NORM(A)=   0.11307139D+01
 Iteration Nr.   3
 **********************
 DD1Dir will call FoFMem   1 times, MxPair=       156
 NAB=    78 NAA=     0 NBB=     0.
 DE(Corr)= -0.80005213     E(CORR)=     -1032.6027954     Delta= 1.60D-03
 NORM(A)=   0.11333177D+01
 Iteration Nr.   4
 **********************
 DD1Dir will call FoFMem   1 times, MxPair=       156
 NAB=    78 NAA=     0 NBB=     0.
 DE(Corr)= -0.80248198     E(CORR)=     -1032.6052253     Delta=-2.43D-03
 NORM(A)=   0.11343292D+01
 Iteration Nr.   5
 **********************
 DD1Dir will call FoFMem   1 times, MxPair=       156
 NAB=    78 NAA=     0 NBB=     0.
 DE(Corr)= -0.80279928     E(CORR)=     -1032.6055426     Delta=-3.17D-04
 NORM(A)=   0.11347196D+01
 Iteration Nr.   6
 **********************
 DD1Dir will call FoFMem   1 times, MxPair=       156
 NAB=    78 NAA=     0 NBB=     0.
 DE(Corr)= -0.80284993     E(CORR)=     -1032.6055933     Delta=-5.07D-05
 NORM(A)=   0.11347908D+01
 Iteration Nr.   7
 **********************
 DD1Dir will call FoFMem   1 times, MxPair=       156
 NAB=    78 NAA=     0 NBB=     0.
 DE(Corr)= -0.80285908     E(CORR)=     -1032.6056024     Delta=-9.15D-06
 NORM(A)=   0.11347919D+01
 Iteration Nr.   8
 **********************
 DD1Dir will call FoFMem   1 times, MxPair=       156
 NAB=    78 NAA=     0 NBB=     0.
 DE(Corr)= -0.80285866     E(CORR)=     -1032.6056020     Delta= 4.16D-07
 NORM(A)=   0.11348000D+01
 Iteration Nr.   9
 **********************
 DD1Dir will call FoFMem   1 times, MxPair=       156
 NAB=    78 NAA=     0 NBB=     0.
 DE(Corr)= -0.80285740     E(CORR)=     -1032.6056007     Delta= 1.26D-06
 NORM(A)=   0.11347996D+01
 Iteration Nr.  10
 **********************
 DD1Dir will call FoFMem   1 times, MxPair=       156
 NAB=    78 NAA=     0 NBB=     0.
 DE(Corr)= -0.80285859     E(CORR)=     -1032.6056019     Delta=-1.19D-06
 NORM(A)=   0.11348012D+01
 Iteration Nr.  11
 **********************
 DD1Dir will call FoFMem   1 times, MxPair=       156
 NAB=    78 NAA=     0 NBB=     0.
 DE(Corr)= -0.80285941     E(CORR)=     -1032.6056027     Delta=-8.18D-07
 NORM(A)=   0.11348024D+01
 Iteration Nr.  12
 **********************
 DD1Dir will call FoFMem   1 times, MxPair=       156
 NAB=    78 NAA=     0 NBB=     0.
 DE(Corr)= -0.80285966     E(CORR)=     -1032.6056030     Delta=-2.48D-07
 NORM(A)=   0.11348030D+01
 Iteration Nr.  13
 **********************
 DD1Dir will call FoFMem   1 times, MxPair=       156
 NAB=    78 NAA=     0 NBB=     0.
 DE(Corr)= -0.80285998     E(CORR)=     -1032.6056033     Delta=-3.25D-07
 NORM(A)=   0.11348035D+01
 Iteration Nr.  14
 **********************
 DD1Dir will call FoFMem   1 times, MxPair=       156
 NAB=    78 NAA=     0 NBB=     0.
 DE(Corr)= -0.80286005     E(CORR)=     -1032.6056034     Delta=-6.49D-08
 NORM(A)=   0.11348036D+01
 Iteration Nr.  15
 **********************
 DD1Dir will call FoFMem   1 times, MxPair=       156
 NAB=    78 NAA=     0 NBB=     0.
 DE(Corr)= -0.80286009     E(CORR)=     -1032.6056034     Delta=-4.78D-08
 NORM(A)=   0.11348037D+01
 Iteration Nr.  16
 **********************
 DD1Dir will call FoFMem   1 times, MxPair=       156
 NAB=    78 NAA=     0 NBB=     0.
 DE(Corr)= -0.80286011     E(CORR)=     -1032.6056034     Delta=-1.59D-08
 NORM(A)=   0.11348037D+01
 Iteration Nr.  17
 **********************
 DD1Dir will call FoFMem   1 times, MxPair=       156
 NAB=    78 NAA=     0 NBB=     0.
 DE(Corr)= -0.80286011     E(CORR)=     -1032.6056034     Delta= 1.19D-09
 NORM(A)=   0.11348037D+01
 Iteration Nr.  18
 **********************
 DD1Dir will call FoFMem   1 times, MxPair=       156
 NAB=    78 NAA=     0 NBB=     0.
 DE(Corr)= -0.80286011     E(CORR)=     -1032.6056034     Delta=-9.71D-10
 NORM(A)=   0.11348037D+01
 Iteration Nr.  19
 **********************
 DD1Dir will call FoFMem   1 times, MxPair=       156
 NAB=    78 NAA=     0 NBB=     0.
 DE(Corr)= -0.80286011     E(CORR)=     -1032.6056034     Delta= 5.46D-10
 NORM(A)=   0.11348037D+01
 Largest amplitude= 3.33D-02

 Z-AMPLITUDE ITERATIONS

 Iteration Nr.   1
 **********************
 DD1Dir will call FoFMem   1 times, MxPair=       156
 NAB=    78 NAA=     0 NBB=     0.
 DE(Z)  -0.77482411D+00          E(Z)=    -0.10325775674D+04
 NORM(A)=   0.11347850D+01
 Iteration Nr.   2
 **********************
 DD1Dir will call FoFMem   1 times, MxPair=       156
 NAB=    78 NAA=     0 NBB=     0.
 DE(Z)  -0.77482350D+00          E(Z)=    -0.10325775668D+04
 NORM(A)=   0.11345767D+01
 Iteration Nr.   3
 **********************
 DD1Dir will call FoFMem   1 times, MxPair=       156
 NAB=    78 NAA=     0 NBB=     0.
 DE(Z)  -0.77481732D+00          E(Z)=    -0.10325775606D+04
 NORM(A)=   0.11341858D+01
 Iteration Nr.   4
 **********************
 DD1Dir will call FoFMem   1 times, MxPair=       156
 NAB=    78 NAA=     0 NBB=     0.
 DE(Z)  -0.77480459D+00          E(Z)=    -0.10325775479D+04
 NORM(A)=   0.11347716D+01
 Iteration Nr.   5
 **********************
 DD1Dir will call FoFMem   1 times, MxPair=       156
 NAB=    78 NAA=     0 NBB=     0.
 DE(Z)  -0.77482307D+00          E(Z)=    -0.10325775664D+04
 NORM(A)=   0.11251356D+01
 Iteration Nr.   6
 **********************
 DD1Dir will call FoFMem   1 times, MxPair=       156
 NAB=    78 NAA=     0 NBB=     0.
 DE(Z)  -0.77450615D+00          E(Z)=    -0.10325772495D+04
 NORM(A)=   0.11251360D+01
 Iteration Nr.   7
 **********************
 DD1Dir will call FoFMem   1 times, MxPair=       156
 NAB=    78 NAA=     0 NBB=     0.
 DE(Z)  -0.77450604D+00          E(Z)=    -0.10325772494D+04
 NORM(A)=   0.11251367D+01
 Iteration Nr.   8
 **********************
 DD1Dir will call FoFMem   1 times, MxPair=       156
 NAB=    78 NAA=     0 NBB=     0.
 DE(Z)  -0.77450578D+00          E(Z)=    -0.10325772491D+04
 NORM(A)=   0.11251371D+01
 Iteration Nr.   9
 **********************
 DD1Dir will call FoFMem   1 times, MxPair=       156
 NAB=    78 NAA=     0 NBB=     0.
 DE(Z)  -0.77450613D+00          E(Z)=    -0.10325772494D+04
 NORM(A)=   0.11251374D+01
 Iteration Nr.  10
 **********************
 DD1Dir will call FoFMem   1 times, MxPair=       156
 NAB=    78 NAA=     0 NBB=     0.
 DE(Z)  -0.77450601D+00          E(Z)=    -0.10325772493D+04
 NORM(A)=   0.11251375D+01
 Iteration Nr.  11
 **********************
 DD1Dir will call FoFMem   1 times, MxPair=       156
 NAB=    78 NAA=     0 NBB=     0.
 DE(Z)  -0.77450608D+00          E(Z)=    -0.10325772494D+04
 NORM(A)=   0.11251375D+01
 Iteration Nr.  12
 **********************
 DD1Dir will call FoFMem   1 times, MxPair=       156
 NAB=    78 NAA=     0 NBB=     0.
 DE(Z)  -0.77450606D+00          E(Z)=    -0.10325772494D+04
 NORM(A)=   0.11251376D+01
 Iteration Nr.  13
 **********************
 DD1Dir will call FoFMem   1 times, MxPair=       156
 NAB=    78 NAA=     0 NBB=     0.
 DE(Z)  -0.77450607D+00          E(Z)=    -0.10325772494D+04
 NORM(A)=   0.11251376D+01
 Iteration Nr.  14
 **********************
 DD1Dir will call FoFMem   1 times, MxPair=       156
 NAB=    78 NAA=     0 NBB=     0.
 DE(Z)  -0.77450607D+00          E(Z)=    -0.10325772494D+04
 NORM(A)=   0.11251376D+01
 Discarding MO integrals.
          IDoAtm=1111
          Differentiating once with respect to electric field.
                with respect to dipole field.
          Differentiating once with respect to nuclear coordinates.
          Keep R1 ints in memory in canonical form, NReq=342715892.
          There are     1 degrees of freedom in the 1st order CPHF.  IDoFFX=0.
 LinEq1:  Iter=  0 NonCon=     1 RMS=2.34D-03 Max=5.60D-02
 AX will form     1 AO Fock derivatives at one time.
 LinEq1:  Iter=  1 NonCon=     1 RMS=8.29D-04 Max=1.86D-02
 LinEq1:  Iter=  2 NonCon=     1 RMS=3.10D-04 Max=5.64D-03
 LinEq1:  Iter=  3 NonCon=     1 RMS=1.28D-04 Max=3.30D-03
 LinEq1:  Iter=  4 NonCon=     1 RMS=5.11D-05 Max=1.23D-03
 LinEq1:  Iter=  5 NonCon=     1 RMS=1.65D-05 Max=3.62D-04
 LinEq1:  Iter=  6 NonCon=     1 RMS=4.17D-06 Max=5.72D-05
 LinEq1:  Iter=  7 NonCon=     1 RMS=9.92D-07 Max=1.16D-05
 LinEq1:  Iter=  8 NonCon=     1 RMS=2.10D-07 Max=3.15D-06
 LinEq1:  Iter=  9 NonCon=     1 RMS=4.75D-08 Max=8.06D-07
 LinEq1:  Iter= 10 NonCon=     1 RMS=1.20D-08 Max=2.23D-07
 LinEq1:  Iter= 11 NonCon=     1 RMS=2.52D-09 Max=3.83D-08
 LinEq1:  Iter= 12 NonCon=     1 RMS=4.62D-10 Max=1.16D-08
 LinEq1:  Iter= 13 NonCon=     1 RMS=7.81D-11 Max=1.20D-09
 LinEq1:  Iter= 14 NonCon=     0 RMS=1.11D-11 Max=1.28D-10
 Linear equations converged to 1.000D-10 1.000D-09 after    14 iterations.
 End of Minotr Frequency-dependent properties file   721 does not exist.
 End of Minotr Frequency-dependent properties file   722 does not exist.

 **********************************************************************

            Population analysis using the QCI/CC density.

 **********************************************************************

 Alpha  occ. eigenvalues -- -104.89033-104.89033 -20.62385 -11.47629 -10.61474
 Alpha  occ. eigenvalues --  -10.61472  -8.08151  -8.08151  -8.07940  -8.07939
 Alpha  occ. eigenvalues --   -8.07922  -8.07922  -1.48587  -1.20280  -1.14053
 Alpha  occ. eigenvalues --   -0.81223  -0.70798  -0.70168  -0.64881  -0.53115
 Alpha  occ. eigenvalues --   -0.50173  -0.49904  -0.49524  -0.47705
 Alpha virt. eigenvalues --    0.04778   0.06608   0.07970   0.08607   0.09323
 Alpha virt. eigenvalues --    0.09841   0.11377   0.12504   0.12770   0.13446
 Alpha virt. eigenvalues --    0.15700   0.15883   0.22043   0.22150   0.23662
 Alpha virt. eigenvalues --    0.23883   0.25342   0.26288   0.27970   0.30447
 Alpha virt. eigenvalues --    0.30992   0.31677   0.36353   0.39568   0.43819
 Alpha virt. eigenvalues --    0.44186   0.44239   0.45726   0.47057   0.48396
 Alpha virt. eigenvalues --    0.50797   0.51318   0.52026   0.52362   0.54894
 Alpha virt. eigenvalues --    0.62240   0.64192   0.69240   0.69761   0.71380
 Alpha virt. eigenvalues --    0.71521   0.73596   0.75849   0.79498   0.81360
 Alpha virt. eigenvalues --    0.81589   0.83257   0.83438   0.87005   0.88595
 Alpha virt. eigenvalues --    0.89181   0.91502   0.93369   0.93791   0.94581
 Alpha virt. eigenvalues --    0.96135   0.96649   1.04969   1.06031   1.08839
 Alpha virt. eigenvalues --    1.09708   1.12920   1.14907   1.15999   1.17265
 Alpha virt. eigenvalues --    1.21205   1.23080   1.24230   1.26614   1.33639
 Alpha virt. eigenvalues --    1.36867   1.39728   1.42501   1.46424   1.46729
 Alpha virt. eigenvalues --    1.47098   1.47414   1.56246   1.58071   1.61938
 Alpha virt. eigenvalues --    1.67750   1.67910   1.69458   1.72871   1.80558
 Alpha virt. eigenvalues --    1.81215   1.82779   1.83209   1.85410   2.00856
 Alpha virt. eigenvalues --    2.07251   2.25991   2.28709   2.33590   2.34071
 Alpha virt. eigenvalues --    2.39498   2.44564   2.45215   2.49024   2.49373
 Alpha virt. eigenvalues --    2.52314   2.54232   2.57955   2.59039   2.60510
 Alpha virt. eigenvalues --    2.62143   2.63564   2.66306   2.70388   2.77066
 Alpha virt. eigenvalues --    2.77125   2.81476   2.88537   2.88940   2.91392
 Alpha virt. eigenvalues --    2.92383   2.94576   2.97545   2.99222   3.02330
 Alpha virt. eigenvalues --    3.02624   3.05311   3.06444   3.07229   3.07498
 Alpha virt. eigenvalues --    3.10599   3.13219   3.16252   3.20169   3.21643
 Alpha virt. eigenvalues --    3.25051   3.26580   3.51949   3.53044   3.60367
 Alpha virt. eigenvalues --    3.62875   3.64162   3.70175   3.82347   3.84359
 Alpha virt. eigenvalues --    3.95047   3.96224   4.03115   4.15486   4.19403
 Alpha virt. eigenvalues --    4.43897   4.50777   4.63126   4.75981   5.12351
 Alpha virt. eigenvalues --    5.46242   5.62125   6.56387   6.57773   6.86276
 Alpha virt. eigenvalues --    6.86901   7.04933   7.10223   7.18311   7.18778
 Alpha virt. eigenvalues --    7.19754   7.28405   7.50603   7.51977   7.66653
 Alpha virt. eigenvalues --    7.72791  13.31753  15.69636
          Condensed to atoms (all electrons):
              1          2          3          4
     1  O    8.034136   0.435607  -0.074468  -0.074468
     2  C    0.435607   4.966583   0.136374   0.136374
     3  Cl  -0.074468   0.136374  17.040665  -0.100443
     4  Cl  -0.074468   0.136374  -0.100443  17.040665
 Mulliken atomic charges:
              1
     1  O   -0.320807
     2  C    0.325063
     3  Cl  -0.002128
     4  Cl  -0.002128
 Sum of Mulliken atomic charges =   0.00000
 Mulliken charges with hydrogens summed into heavy atoms:
              1
     1  O   -0.320807
     2  C    0.325063
     3  Cl  -0.002128
     4  Cl  -0.002128
 Sum of Mulliken charges with hydrogens summed into heavy atoms =   0.00000
 Electronic spatial extent (au):  <R**2>=            613.6863
 Charge=              0.0000 electrons
 Dipole moment (field-independent basis, Debye):
    X=              0.0000    Y=              0.0000    Z=             -1.2393  Tot=              1.2393
 Quadrupole moment (field-independent basis, Debye-Ang):
   XX=            -35.0849   YY=            -34.3836   ZZ=            -36.2851
   XY=              0.0000   XZ=              0.0000   YZ=              0.0000
 Traceless Quadrupole moment (field-independent basis, Debye-Ang):
   XX=              0.1663   YY=              0.8676   ZZ=             -1.0339
   XY=              0.0000   XZ=              0.0000   YZ=              0.0000
 Octapole moment (field-independent basis, Debye-Ang**2):
  XXX=              0.0000  YYY=              0.0000  ZZZ=            106.2008  XYY=              0.0000
  XXY=              0.0000  XXZ=             36.0667  XZZ=              0.0000  YZZ=              0.0000
  YYZ=             29.7043  XYZ=              0.0000
 Hexadecapole moment (field-independent basis, Debye-Ang**3):
 XXXX=            -37.1314 YYYY=           -329.2937 ZZZZ=           -383.0999 XXXY=              0.0000
 XXXZ=              0.0000 YYYX=              0.0000 YYYZ=              0.0000 ZZZX=              0.0000
 ZZZY=              0.0000 XXYY=            -65.2563 XXZZ=            -71.0858 YYZZ=           -106.8876
 XXYZ=              0.0000 YYXZ=              0.0000 ZZXY=              0.0000
 N-N= 1.917658912154D+02 E-N=-2.837761113121D+03  KE= 1.032422076273D+03
 Use density number 7.
 DipInt: DoE/N= T T RetVal/Mat= T F Init=T NMatP=  1 IDeriv=0 Min/MaxMlt=  1  1
 Entering OneElI...
 Multipole integrals L=1 to 1 MinM= 0 MaxM= 0.
 Requested accuracy = 0.1000D-12
 PrsmSu:  NPrtUS=   1 ThrOK=F IAlg=1 NPAlg=1 LenDen=           0.
 Prism:   IPart=     0 DynPar=F LinDyn=F Incr=          18.
 PRISM was handed  1073395252 working-precision words and  1811 shell-pairs
 IPart=  0 NShTot=        1811 NBatch=          80 AvBLen=        22.6
 PrSmSu:  NxtVal=             19.
 Entering OneElI...
 Calculate overlap and kinetic energy integrals
    NBasis = 228  MinDer = 1  MaxDer = 1
 Requested accuracy = 0.1000D-12
 PrsmSu:  NPrtUS=   8 ThrOK=T IAlg=1 NPAlg=1 LenDen=           0.
 Prism:   IPart=     0 DynPar=F LinDyn=F Incr=           2.
 PRISM was handed   134098429 working-precision words and  1827 shell-pairs
 PRISM was handed   134098429 working-precision words and  1827 shell-pairs
 PRISM was handed   134098429 working-precision words and  1827 shell-pairs
 PRISM was handed   134098429 working-precision words and  1827 shell-pairs
 PRISM was handed   134098429 working-precision words and  1827 shell-pairs
 PRISM was handed   134098429 working-precision words and  1827 shell-pairs
 PRISM was handed   134098429 working-precision words and  1827 shell-pairs
 PRISM was handed   134098429 working-precision words and  1827 shell-pairs
 IPart=  0 NShTot=         258 NBatch=          78 AvBLen=         3.3
 IPart=  6 NShTot=         209 NBatch=          37 AvBLen=         5.6
 IPart=  7 NShTot=         209 NBatch=          37 AvBLen=         5.6
 IPart=  4 NShTot=         217 NBatch=          41 AvBLen=         5.3
 IPart=  1 NShTot=         255 NBatch=          75 AvBLen=         3.4
 IPart=  3 NShTot=         231 NBatch=          52 AvBLen=         4.4
 IPart=  5 NShTot=         215 NBatch=          39 AvBLen=         5.5
 IPart=  2 NShTot=         233 NBatch=          53 AvBLen=         4.4
 PrSmSu:  NxtVal=             17.
 Entering OneElI...
 Calculate potential energy integrals
    NBasis = 228  MinDer = 1  MaxDer = 1
 Requested accuracy = 0.1000D-12
 PrsmSu:  NPrtUS=   8 ThrOK=T IAlg=1 NPAlg=1 LenDen=           0.
 Prism:   IPart=     0 DynPar=F LinDyn=F Incr=           9.
 PRISM was handed   134113916 working-precision words and  1801 shell-pairs
 PRISM was handed   134113916 working-precision words and  1801 shell-pairs
 PRISM was handed   134113916 working-precision words and  1801 shell-pairs
 PRISM was handed   134113916 working-precision words and  1801 shell-pairs
 PRISM was handed   134113916 working-precision words and  1801 shell-pairs
 PRISM was handed   134113916 working-precision words and  1801 shell-pairs
 PRISM was handed   134113916 working-precision words and  1801 shell-pairs
 PRISM was handed   134113916 working-precision words and  1801 shell-pairs
 IPart=  1 NShTot=        1028 NBatch=         257 AvBLen=         4.0
 IPart=  6 NShTot=         804 NBatch=         201 AvBLen=         4.0
 IPart=  7 NShTot=         800 NBatch=         200 AvBLen=         4.0
 IPart=  4 NShTot=         848 NBatch=         212 AvBLen=         4.0
 IPart=  3 NShTot=         908 NBatch=         227 AvBLen=         4.0
 IPart=  0 NShTot=        1048 NBatch=         262 AvBLen=         4.0
 IPart=  5 NShTot=         844 NBatch=         211 AvBLen=         4.0
 IPart=  2 NShTot=         924 NBatch=         231 AvBLen=         4.0
 PrSmSu:  NxtVal=             73.
 l701 out
 I=    0 X=   0.000000000000D+00 Y=   0.000000000000D+00 Z=  -4.875653942995D-01
 I=    1 X=   0.000000000000D+00 Y=   0.000000000000D+00 Z=   2.573922833720D+01
 I=    2 X=   0.000000000000D+00 Y=   0.000000000000D+00 Z=  -4.748682628331D+00
 I=    3 X=   0.000000000000D+00 Y=  -2.168409339001D+01 Z=  -1.049527285466D+01
 I=    4 X=   0.000000000000D+00 Y=   2.168409339078D+01 Z=  -1.049527285420D+01
 ICntrl=      2127.
 Calling FoFJK, ICntrl=      2127 FMM=F ISym2X=0 I1Cent= 0 IOpClX= 0 NMat=1 NMatS=1 NMatT=0.
 FoFJK:  IHMeth= 1 ICntrl=  2127 DoSepK=F KAlg= 1 I1Cent= 0 FoldK=F
 FoFCou: FMM=F IPFlag=           0 FMFlag=      100000 FMFlg1=         800
         NFxFlg=           0 DoJE=F BraDBF=F KetDBF=F FulRan=T
         Omega=  0.000000  0.000000  1.000000  0.000000  0.000000 ICntrl=    2127 IOpCl=  0
         NMat0=    1 NMatS0=    1 NMatT0=    0 NMatD0=    1 NMtDS0=    0 NMtDT0=    0
         I1Cent=           0 NGrid=           0.
 Symmetry not used in FoFCou.
 FoFCou:  KetSym=F NOpSet=  1 NOpAb=1 NOp=  1.
 FoFCou:  CnvScl= 1.00D+00 Thresh= 1.00D-10
 PrismS was handed  1073472001 working-precision words and  1811 shell-pairs
 FoFCou: LinMIO=F DoNuc=F BraDBF=F KetDBF=F HaveP=T PDBF=F HaveZ=T HaveW=F
         NIJTC =      10 NIJTAt=       0 NIJTCD=       0 NIJTT =      10
         IJTBeg=       1 IJTEnd=      10 KLTBeg=       1 KLTEnd=      10
         IPTBeg=       1 IPTEnd=      10 IPTBCv=       1 IPTECv=      10
         IZTBeg=       1 IZTEnd=      10 IZTBCv=       1 IZTECv=      10
         IWTBeg=      11 IWTEnd=      10 IWTBCv=      11 IWTECv=      10
         INTBeg=       1 INTEnd=       0 IFTBCv=       1 IFTECv=      10
 NCel replicated for PrismC:     1
 CoulSu:  IncDef=  1024 NBBP=        1640766 NTPThr=   100 NPartT=    8 Incr=        1024 LDynOK=F.
 CoulSu:  NPrtUS=   8 ThrOK=T IAlg=1 NPAlg=1 LenDen=           0.
 Enter PrismC: JobTyp=21 DoJE=F Cont=F.
 PrismC:  IPart=     0 DynPar=T LinDyn=F Incr=        1024 UseFst=F UseS4=T.
 PrismC was handed   134120271 working-precision words and  1811 shell-pairs
 Enter PrismC: JobTyp=21 DoJE=F Cont=F.
 Enter PrismC: JobTyp=21 DoJE=F Cont=F.
 Enter PrismC: JobTyp=21 DoJE=F Cont=F.
 PrismC was handed   134120271 working-precision words and  1811 shell-pairs
 PrismC was handed   134120271 working-precision words and  1811 shell-pairs
 Enter PrismC: JobTyp=21 DoJE=F Cont=F.
 PrismC was handed   134120271 working-precision words and  1811 shell-pairs
 PrismC was handed   134120271 working-precision words and  1811 shell-pairs
 Enter PrismC: JobTyp=21 DoJE=F Cont=F.
 Enter PrismC: JobTyp=21 DoJE=F Cont=F.
 PrismC was handed   134120271 working-precision words and  1811 shell-pairs
 PrismC was handed   134120271 working-precision words and  1811 shell-pairs
 Enter PrismC: JobTyp=21 DoJE=F Cont=F.
 PrismC was handed   134120271 working-precision words and  1811 shell-pairs
 IPart=  2 NShTot=      179609 NShNF=      179609 NShFF=           0 NBatch=         882 AvBLen=       203.6
 IPart=  5 NShTot=      174806 NShNF=      174806 NShFF=           0 NBatch=         853 AvBLen=       204.9
 IPart=  3 NShTot=      201052 NShNF=      201052 NShFF=           0 NBatch=         905 AvBLen=       222.2
 IPart=  0 NShTot=      200633 NShNF=      200633 NShFF=           0 NBatch=         939 AvBLen=       213.7
 IPart=  4 NShTot=      192890 NShNF=      192890 NShFF=           0 NBatch=         890 AvBLen=       216.7
 IPart=  7 NShTot=      198826 NShNF=      198826 NShFF=           0 NBatch=         883 AvBLen=       225.2
 IPart=  1 NShTot=      212051 NShNF=      212051 NShFF=           0 NBatch=         933 AvBLen=       227.3
 IPart=  6 NShTot=      187494 NShNF=      187494 NShFF=           0 NBatch=        1058 AvBLen=       177.2
 CoulSu:  NxtVal=        1714177.
 Forces at end of L703
 I=    0 X=   0.000000000000D+00 Y=   0.000000000000D+00 Z=  -4.875653942995D-01
 I=    1 X=   0.000000000000D+00 Y=   0.000000000000D+00 Z=   1.360214145869D-04
 I=    2 X=   0.000000000000D+00 Y=   0.000000000000D+00 Z=  -4.381581143118D-04
 I=    3 X=   0.000000000000D+00 Y=   3.598625748609D-04 Z=   1.510683499113D-04
 I=    4 X=   0.000000000000D+00 Y=  -3.598625751948D-04 Z=   1.510683498935D-04
 FrcOut:
 IF    =    58 IFX   =    70 IFXYZ =    82
 IFFX  =    94 IFFFX =    94 IFLen =    12
 IFFLen=     0 IFFFLn=     0 IEDerv=    94
 LEDerv=   629 IFroze=   727 ICStrt= 74892
 DipInt: DoE/N= T T RetVal/Mat= T F Init=T NMatP=  1 IDeriv=0 Min/MaxMlt=  1  1
 Entering OneElI...
 Multipole integrals L=1 to 1 MinM= 0 MaxM= 0.
 Requested accuracy = 0.1000D-12
 PrsmSu:  NPrtUS=   1 ThrOK=F IAlg=1 NPAlg=1 LenDen=           0.
 Prism:   IPart=     0 DynPar=F LinDyn=F Incr=          18.
 PRISM was handed  1073450912 working-precision words and  1811 shell-pairs
 IPart=  0 NShTot=        1811 NBatch=          80 AvBLen=        22.6
 PrSmSu:  NxtVal=             19.
 Computed dipole moment (without fudge factor):
 X= 0.2969426908043D-14   Y=-0.1776356839400D-12   Z=-0.4875653942995D+00
 Quadrupole    = 1.23623772D-01 6.45040344D-01-7.68664117D-01
                -4.80128815D-15-3.55626228D-15 9.91207116D-13
 -------------------------------------------------------------------
 Center     Atomic                   Forces (Hartrees/Bohr)
 Number     Number              X              Y              Z
 -------------------------------------------------------------------
      1        8           0.000000000    0.000000000   -0.000136021
      2        6           0.000000000    0.000000000    0.000438158
      3       17           0.000000000   -0.000359863   -0.000151068
      4       17           0.000000000    0.000359863   -0.000151068
 -------------------------------------------------------------------
 Cartesian Forces:  Max     0.000438158 RMS     0.000207189
 Z-matrix is all fixed cartesians, so copy forces.
 Final forces over variables, Energy=-1.03260560D+03:
  3.76713626D-14-4.88818687D-14 3.02101076D-14-1.89996015D-14
  1.79650190D-13-5.07140716D-13-3.59862575D-04 3.59862575D-04
 -1.36021415D-04 4.38158114D-04-1.51068350D-04-1.51068350D-04
 NDeriv=  12 NFrqRd=  0 LFDDif=       1
 NDeriv=  12 NFrqRd=  0 LFDDif=       1
 At 1st pt Frequency-dependent properties file   721 does not exist.
 D2Numr ... symmetry will not be used.
 Standard basis: Aug-CC-pVTZ (5D, 7F)
 Integral buffers will be    131072 words long.
 Raffenetti 1 integral format.
 Two-electron integral symmetry is turned off.
   192 basis functions,   372 primitive gaussians,   228 cartesian basis functions
    24 alpha electrons       24 beta electrons
       nuclear repulsion energy       191.7658793255 Hartrees.
 NAtoms=    4 NActive=    4 NUniq=    4 SFac= 1.00D+00 NAtFMM=   50 NAOKFM=F Big=F
 One-electron integrals computed using PRISM.
 NBasis=   192 RedAO= T  NBF=   192
 NBsUse=   192 1.00D-06 NBFU=   192
 Initial guess read from the read-write file.
 B after Tr=     0.000000    0.000000    0.000000
         Rot=    1.000000    0.000000    0.000000    0.000000 Ang=   0.00 deg.
 Requested convergence on RMS density matrix=1.00D-08 within 128 cycles.
 Requested convergence on MAX density matrix=1.00D-06.
 Requested convergence on             energy=1.00D-06.
 No special actions if energy rises.
 Keep R1 ints in memory in canonical form, NReq=346956363.
 SCF Done:  E(RHF) =  -1031.80274322     A.U. after    6 cycles
             Convg  =    0.8561D-08             -V/T =  2.0003
 ExpMin= 3.57D-02 ExpMax= 4.56D+05 ExpMxC= 1.44D+03 IAcc=3 IRadAn=         5 AccDes= 0.00D+00
 HarFok:  IExCor=  205 AccDes= 0.00D+00 IRadAn=         5 IDoV=-2
 ScaDFX=  1.000000  1.000000  1.000000  1.000000
 DSYEVD returned Info=          93 IAlg= 4 N=    46 NDim=    46 NE2=    21472416 trying DSYEV.
 DSYEVD returned Info=         101 IAlg= 4 N=    50 NDim=    50 NE2=    21472416 trying DSYEV.
 Range of M.O.s used for correlation:    13   192
 NBasis=   192 NAE=    24 NBE=    24 NFC=    12 NFV=     0
 NROrb=    180 NOA=    12 NOB=    12 NVA=   168 NVB=   168

 **** Warning!!: The largest alpha MO coefficient is  0.28796352D+02

 Semi-Direct transformation.
 ModeAB=           2 MOrb=            12 LenV=    1072714337
 LASXX=     33405819 LTotXX=    33405819 LenRXX=    33405819
 LTotAB=    33954012 MaxLAS=    56388960 LenRXY=    56388960
 NonZer=    66811638 LenScr=   100987392 LnRSAI=           0
 LnScr1=           0 LExtra=           0 Total=    190782171
 MaxDsk=          -1 SrtSym=           F ITran=            4
 JobTyp=0 Pass  1:  I=   1 to  12.
 (rs|ai) integrals will be sorted in core.
 Spin components of T(2) and E(2):
     alpha-alpha T2 =       0.3523604268D-01 E2=     -0.1018046987D+00
     alpha-beta  T2 =       0.1834140082D+00 E2=     -0.5757993544D+00
     beta-beta   T2 =       0.3523604268D-01 E2=     -0.1018046987D+00
 ANorm=    0.1119770554D+01
 E2 =    -0.7794087517D+00 EUMP2 =    -0.10325821519742D+04
 R2 and R3 integrals will be kept in memory, NReq=   687553722.
 Iterations=  50 Convergence= 0.100D-07
 Iteration Nr.   1
 **********************
 DD1Dir will call FoFMem   1 times, MxPair=       156
 NAB=    78 NAA=     0 NBB=     0.
 MP4(R+Q)=  0.22520355D-01
 E3=       -0.19054773D-01        EUMP3=      -0.10326012067D+04
 E4(DQ)=    0.28541664D-02        UMP4(DQ)=   -0.10325983526D+04
 E4(SDQ)=  -0.61276402D-02        UMP4(SDQ)=  -0.10326073344D+04
 DE(Corr)= -0.77594317     E(Corr)=     -1032.5786864    
 NORM(A)=   0.11213533D+01
 Iteration Nr.   2
 **********************
 DD1Dir will call FoFMem   1 times, MxPair=       156
 NAB=    78 NAA=     0 NBB=     0.
 DE(Corr)= -0.80165601     E(CORR)=     -1032.6043992     Delta=-2.57D-02
 NORM(A)=   0.11307139D+01
 Iteration Nr.   3
 **********************
 DD1Dir will call FoFMem   1 times, MxPair=       156
 NAB=    78 NAA=     0 NBB=     0.
 DE(Corr)= -0.80005215     E(CORR)=     -1032.6027954     Delta= 1.60D-03
 NORM(A)=   0.11333178D+01
 Iteration Nr.   4
 **********************
 DD1Dir will call FoFMem   1 times, MxPair=       156
 NAB=    78 NAA=     0 NBB=     0.
 DE(Corr)= -0.80248201     E(CORR)=     -1032.6052252     Delta=-2.43D-03
 NORM(A)=   0.11343292D+01
 Iteration Nr.   5
 **********************
 DD1Dir will call FoFMem   1 times, MxPair=       156
 NAB=    78 NAA=     0 NBB=     0.
 DE(Corr)= -0.80279931     E(CORR)=     -1032.6055425     Delta=-3.17D-04
 NORM(A)=   0.11347196D+01
 Iteration Nr.   6
 **********************
 DD1Dir will call FoFMem   1 times, MxPair=       156
 NAB=    78 NAA=     0 NBB=     0.
 DE(Corr)= -0.80284996     E(CORR)=     -1032.6055932     Delta=-5.07D-05
 NORM(A)=   0.11347908D+01
 Iteration Nr.   7
 **********************
 DD1Dir will call FoFMem   1 times, MxPair=       156
 NAB=    78 NAA=     0 NBB=     0.
 DE(Corr)= -0.80285911     E(CORR)=     -1032.6056023     Delta=-9.15D-06
 NORM(A)=   0.11347920D+01
 Iteration Nr.   8
 **********************
 DD1Dir will call FoFMem   1 times, MxPair=       156
 NAB=    78 NAA=     0 NBB=     0.
 DE(Corr)= -0.80285869     E(CORR)=     -1032.6056019     Delta= 4.16D-07
 NORM(A)=   0.11348000D+01
 Iteration Nr.   9
 **********************
 DD1Dir will call FoFMem   1 times, MxPair=       156
 NAB=    78 NAA=     0 NBB=     0.
 DE(Corr)= -0.80285743     E(CORR)=     -1032.6056007     Delta= 1.26D-06
 NORM(A)=   0.11347996D+01
 Iteration Nr.  10
 **********************
 DD1Dir will call FoFMem   1 times, MxPair=       156
 NAB=    78 NAA=     0 NBB=     0.
 DE(Corr)= -0.80285862     E(CORR)=     -1032.6056018     Delta=-1.19D-06
 NORM(A)=   0.11348012D+01
 Iteration Nr.  11
 **********************
 DD1Dir will call FoFMem   1 times, MxPair=       156
 NAB=    78 NAA=     0 NBB=     0.
 DE(Corr)= -0.80285944     E(CORR)=     -1032.6056027     Delta=-8.18D-07
 NORM(A)=   0.11348024D+01
 Iteration Nr.  12
 **********************
 DD1Dir will call FoFMem   1 times, MxPair=       156
 NAB=    78 NAA=     0 NBB=     0.
 DE(Corr)= -0.80285969     E(CORR)=     -1032.6056029     Delta=-2.48D-07
 NORM(A)=   0.11348030D+01
 Iteration Nr.  13
 **********************
 DD1Dir will call FoFMem   1 times, MxPair=       156
 NAB=    78 NAA=     0 NBB=     0.
 DE(Corr)= -0.80286001     E(CORR)=     -1032.6056032     Delta=-3.25D-07
 NORM(A)=   0.11348035D+01
 Iteration Nr.  14
 **********************
 DD1Dir will call FoFMem   1 times, MxPair=       156
 NAB=    78 NAA=     0 NBB=     0.
 DE(Corr)= -0.80286008     E(CORR)=     -1032.6056033     Delta=-6.51D-08
 NORM(A)=   0.11348037D+01
 Iteration Nr.  15
 **********************
 DD1Dir will call FoFMem   1 times, MxPair=       156
 NAB=    78 NAA=     0 NBB=     0.
 DE(Corr)= -0.80286012     E(CORR)=     -1032.6056033     Delta=-4.76D-08
 NORM(A)=   0.11348037D+01
 Iteration Nr.  16
 **********************
 DD1Dir will call FoFMem   1 times, MxPair=       156
 NAB=    78 NAA=     0 NBB=     0.
 DE(Corr)= -0.80286014     E(CORR)=     -1032.6056034     Delta=-1.59D-08
 NORM(A)=   0.11348038D+01
 Iteration Nr.  17
 **********************
 DD1Dir will call FoFMem   1 times, MxPair=       156
 NAB=    78 NAA=     0 NBB=     0.
 DE(Corr)= -0.80286014     E(CORR)=     -1032.6056034     Delta= 1.17D-09
 NORM(A)=   0.11348038D+01
 Iteration Nr.  18
 **********************
 DD1Dir will call FoFMem   1 times, MxPair=       156
 NAB=    78 NAA=     0 NBB=     0.
 DE(Corr)= -0.80286014     E(CORR)=     -1032.6056034     Delta=-1.09D-09
 NORM(A)=   0.11348038D+01
 Iteration Nr.  19
 **********************
 DD1Dir will call FoFMem   1 times, MxPair=       156
 NAB=    78 NAA=     0 NBB=     0.
 DE(Corr)= -0.80286014     E(CORR)=     -1032.6056034     Delta= 6.70D-10
 NORM(A)=   0.11348038D+01
 Largest amplitude= 3.33D-02

 Z-AMPLITUDE ITERATIONS

 Iteration Nr.   1
 **********************
 DD1Dir will call FoFMem   1 times, MxPair=       156
 NAB=    78 NAA=     0 NBB=     0.
 DE(Z)  -0.77482414D+00          E(Z)=    -0.10325775674D+04
 NORM(A)=   0.11347620D+01
 Iteration Nr.   2
 **********************
 DD1Dir will call FoFMem   1 times, MxPair=       156
 NAB=    78 NAA=     0 NBB=     0.
 DE(Z)  -0.77482276D+00          E(Z)=    -0.10325775660D+04
 NORM(A)=   0.11347443D+01
 Iteration Nr.   3
 **********************
 DD1Dir will call FoFMem   1 times, MxPair=       156
 NAB=    78 NAA=     0 NBB=     0.
 DE(Z)  -0.77482236D+00          E(Z)=    -0.10325775656D+04
 NORM(A)=   0.11348866D+01
 Iteration Nr.   4
 **********************
 DD1Dir will call FoFMem   1 times, MxPair=       156
 NAB=    78 NAA=     0 NBB=     0.
 DE(Z)  -0.77482675D+00          E(Z)=    -0.10325775700D+04
 NORM(A)=   0.11347549D+01
 Iteration Nr.   5
 **********************
 DD1Dir will call FoFMem   1 times, MxPair=       156
 NAB=    78 NAA=     0 NBB=     0.
 DE(Z)  -0.77482255D+00          E(Z)=    -0.10325775658D+04
 NORM(A)=   0.11251349D+01
 Iteration Nr.   6
 **********************
 DD1Dir will call FoFMem   1 times, MxPair=       156
 NAB=    78 NAA=     0 NBB=     0.
 DE(Z)  -0.77450642D+00          E(Z)=    -0.10325772496D+04
 NORM(A)=   0.11251364D+01
 Iteration Nr.   7
 **********************
 DD1Dir will call FoFMem   1 times, MxPair=       156
 NAB=    78 NAA=     0 NBB=     0.
 DE(Z)  -0.77450590D+00          E(Z)=    -0.10325772491D+04
 NORM(A)=   0.11251366D+01
 Iteration Nr.   8
 **********************
 DD1Dir will call FoFMem   1 times, MxPair=       156
 NAB=    78 NAA=     0 NBB=     0.
 DE(Z)  -0.77450585D+00          E(Z)=    -0.10325772491D+04
 NORM(A)=   0.11251371D+01
 Iteration Nr.   9
 **********************
 DD1Dir will call FoFMem   1 times, MxPair=       156
 NAB=    78 NAA=     0 NBB=     0.
 DE(Z)  -0.77450616D+00          E(Z)=    -0.10325772494D+04
 NORM(A)=   0.11251374D+01
 Iteration Nr.  10
 **********************
 DD1Dir will call FoFMem   1 times, MxPair=       156
 NAB=    78 NAA=     0 NBB=     0.
 DE(Z)  -0.77450601D+00          E(Z)=    -0.10325772492D+04
 NORM(A)=   0.11251375D+01
 Iteration Nr.  11
 **********************
 DD1Dir will call FoFMem   1 times, MxPair=       156
 NAB=    78 NAA=     0 NBB=     0.
 DE(Z)  -0.77450611D+00          E(Z)=    -0.10325772493D+04
 NORM(A)=   0.11251376D+01
 Iteration Nr.  12
 **********************
 DD1Dir will call FoFMem   1 times, MxPair=       156
 NAB=    78 NAA=     0 NBB=     0.
 DE(Z)  -0.77450609D+00          E(Z)=    -0.10325772493D+04
 NORM(A)=   0.11251376D+01
 Iteration Nr.  13
 **********************
 DD1Dir will call FoFMem   1 times, MxPair=       156
 NAB=    78 NAA=     0 NBB=     0.
 DE(Z)  -0.77450609D+00          E(Z)=    -0.10325772493D+04
 NORM(A)=   0.11251376D+01
 Iteration Nr.  14
 **********************
 DD1Dir will call FoFMem   1 times, MxPair=       156
 NAB=    78 NAA=     0 NBB=     0.
 DE(Z)  -0.77450609D+00          E(Z)=    -0.10325772493D+04
 NORM(A)=   0.11251376D+01
 Discarding MO integrals.
          IDoAtm=1111
          Differentiating once with respect to electric field.
                with respect to dipole field.
          Differentiating once with respect to nuclear coordinates.
          Keep R1 ints in memory in canonical form, NReq=342715892.
          There are     1 degrees of freedom in the 1st order CPHF.  IDoFFX=0.
 LinEq1:  Iter=  0 NonCon=     1 RMS=2.34D-03 Max=5.60D-02
 AX will form     1 AO Fock derivatives at one time.
 LinEq1:  Iter=  1 NonCon=     1 RMS=8.29D-04 Max=1.86D-02
 LinEq1:  Iter=  2 NonCon=     1 RMS=3.10D-04 Max=5.64D-03
 LinEq1:  Iter=  3 NonCon=     1 RMS=1.28D-04 Max=3.30D-03
 LinEq1:  Iter=  4 NonCon=     1 RMS=5.11D-05 Max=1.23D-03
 LinEq1:  Iter=  5 NonCon=     1 RMS=1.65D-05 Max=3.62D-04
 LinEq1:  Iter=  6 NonCon=     1 RMS=4.17D-06 Max=5.72D-05
 LinEq1:  Iter=  7 NonCon=     1 RMS=9.92D-07 Max=1.16D-05
 LinEq1:  Iter=  8 NonCon=     1 RMS=2.10D-07 Max=3.15D-06
 LinEq1:  Iter=  9 NonCon=     1 RMS=4.75D-08 Max=8.06D-07
 LinEq1:  Iter= 10 NonCon=     1 RMS=1.20D-08 Max=2.23D-07
 LinEq1:  Iter= 11 NonCon=     1 RMS=2.52D-09 Max=3.83D-08
 LinEq1:  Iter= 12 NonCon=     1 RMS=4.62D-10 Max=1.16D-08
 LinEq1:  Iter= 13 NonCon=     1 RMS=7.81D-11 Max=1.20D-09
 LinEq1:  Iter= 14 NonCon=     0 RMS=1.11D-11 Max=1.28D-10
 Linear equations converged to 1.000D-10 1.000D-09 after    14 iterations.
 End of Minotr Frequency-dependent properties file   721 does not exist.
 End of Minotr Frequency-dependent properties file   722 does not exist.

 **********************************************************************

            Population analysis using the QCI/CC density.

 **********************************************************************

 Alpha  occ. eigenvalues -- -104.89033-104.89033 -20.62385 -11.47629 -10.61474
 Alpha  occ. eigenvalues --  -10.61472  -8.08151  -8.08151  -8.07940  -8.07939
 Alpha  occ. eigenvalues --   -8.07922  -8.07922  -1.48587  -1.20280  -1.14053
 Alpha  occ. eigenvalues --   -0.81223  -0.70798  -0.70168  -0.64881  -0.53115
 Alpha  occ. eigenvalues --   -0.50173  -0.49904  -0.49524  -0.47705
 Alpha virt. eigenvalues --    0.04778   0.06608   0.07970   0.08607   0.09323
 Alpha virt. eigenvalues --    0.09841   0.11377   0.12504   0.12770   0.13446
 Alpha virt. eigenvalues --    0.15700   0.15883   0.22043   0.22150   0.23662
 Alpha virt. eigenvalues --    0.23884   0.25342   0.26288   0.27970   0.30447
 Alpha virt. eigenvalues --    0.30992   0.31677   0.36353   0.39568   0.43819
 Alpha virt. eigenvalues --    0.44186   0.44239   0.45726   0.47057   0.48396
 Alpha virt. eigenvalues --    0.50797   0.51319   0.52026   0.52362   0.54894
 Alpha virt. eigenvalues --    0.62240   0.64192   0.69240   0.69761   0.71380
 Alpha virt. eigenvalues --    0.71521   0.73596   0.75849   0.79498   0.81360
 Alpha virt. eigenvalues --    0.81589   0.83257   0.83438   0.87005   0.88595
 Alpha virt. eigenvalues --    0.89181   0.91502   0.93369   0.93791   0.94581
 Alpha virt. eigenvalues --    0.96135   0.96649   1.04969   1.06031   1.08839
 Alpha virt. eigenvalues --    1.09708   1.12919   1.14907   1.15999   1.17265
 Alpha virt. eigenvalues --    1.21205   1.23080   1.24230   1.26614   1.33639
 Alpha virt. eigenvalues --    1.36867   1.39728   1.42501   1.46424   1.46729
 Alpha virt. eigenvalues --    1.47098   1.47415   1.56246   1.58071   1.61938
 Alpha virt. eigenvalues --    1.67750   1.67910   1.69458   1.72871   1.80558
 Alpha virt. eigenvalues --    1.81215   1.82779   1.83209   1.85410   2.00856
 Alpha virt. eigenvalues --    2.07251   2.25991   2.28709   2.33590   2.34071
 Alpha virt. eigenvalues --    2.39498   2.44564   2.45215   2.49024   2.49373
 Alpha virt. eigenvalues --    2.52314   2.54232   2.57955   2.59039   2.60510
 Alpha virt. eigenvalues --    2.62143   2.63564   2.66306   2.70388   2.77066
 Alpha virt. eigenvalues --    2.77125   2.81476   2.88537   2.88940   2.91392
 Alpha virt. eigenvalues --    2.92383   2.94576   2.97545   2.99222   3.02330
 Alpha virt. eigenvalues --    3.02624   3.05311   3.06444   3.07229   3.07498
 Alpha virt. eigenvalues --    3.10599   3.13219   3.16252   3.20169   3.21643
 Alpha virt. eigenvalues --    3.25051   3.26580   3.51949   3.53044   3.60367
 Alpha virt. eigenvalues --    3.62875   3.64162   3.70175   3.82347   3.84359
 Alpha virt. eigenvalues --    3.95047   3.96224   4.03115   4.15486   4.19403
 Alpha virt. eigenvalues --    4.43897   4.50777   4.63126   4.75981   5.12351
 Alpha virt. eigenvalues --    5.46242   5.62125   6.56387   6.57773   6.86276
 Alpha virt. eigenvalues --    6.86901   7.04933   7.10223   7.18311   7.18777
 Alpha virt. eigenvalues --    7.19755   7.28405   7.50603   7.51976   7.66653
 Alpha virt. eigenvalues --    7.72791  13.31753  15.69636
          Condensed to atoms (all electrons):
              1          2          3          4
     1  O    8.034137   0.435606  -0.074468  -0.074468
     2  C    0.435606   4.966583   0.136374   0.136374
     3  Cl  -0.074468   0.136374  17.040665  -0.100443
     4  Cl  -0.074468   0.136374  -0.100443  17.040665
 Mulliken atomic charges:
              1
     1  O   -0.320808
     2  C    0.325064
     3  Cl  -0.002128
     4  Cl  -0.002128
 Sum of Mulliken atomic charges =   0.00000
 Mulliken charges with hydrogens summed into heavy atoms:
              1
     1  O   -0.320808
     2  C    0.325064
     3  Cl  -0.002128
     4  Cl  -0.002128
 Sum of Mulliken charges with hydrogens summed into heavy atoms =   0.00000
 Electronic spatial extent (au):  <R**2>=            613.6863
 Charge=              0.0000 electrons
 Dipole moment (field-independent basis, Debye):
    X=             -0.0010    Y=              0.0000    Z=             -1.2393  Tot=              1.2393
 Quadrupole moment (field-independent basis, Debye-Ang):
   XX=            -35.0849   YY=            -34.3836   ZZ=            -36.2851
   XY=              0.0000   XZ=             -0.0020   YZ=              0.0000
 Traceless Quadrupole moment (field-independent basis, Debye-Ang):
   XX=              0.1663   YY=              0.8676   ZZ=             -1.0339
   XY=              0.0000   XZ=             -0.0020   YZ=              0.0000
 Octapole moment (field-independent basis, Debye-Ang**2):
  XXX=             -0.0147  YYY=              0.0000  ZZZ=            106.2008  XYY=             -0.0038
  XXY=              0.0000  XXZ=             36.0667  XZZ=             -0.0038  YZZ=              0.0000
  YYZ=             29.7043  XYZ=              0.0000
 Hexadecapole moment (field-independent basis, Debye-Ang**3):
 XXXX=            -37.1314 YYYY=           -329.2938 ZZZZ=           -383.0999 XXXY=              0.0000
 XXXZ=             -0.0123 YYYX=              0.0000 YYYZ=              0.0000 ZZZX=             -0.0166
 ZZZY=              0.0000 XXYY=            -65.2563 XXZZ=            -71.0858 YYZZ=           -106.8876
 XXYZ=              0.0000 YYXZ=             -0.0074 ZZXY=              0.0000
 N-N= 1.917658793255D+02 E-N=-2.837761088248D+03  KE= 1.032422075540D+03
 Use density number 7.
 DipInt: DoE/N= T T RetVal/Mat= T F Init=T NMatP=  1 IDeriv=0 Min/MaxMlt=  1  1
 Entering OneElI...
 Multipole integrals L=1 to 1 MinM= 0 MaxM= 0.
 Requested accuracy = 0.1000D-12
 PrsmSu:  NPrtUS=   1 ThrOK=F IAlg=1 NPAlg=1 LenDen=           0.
 Prism:   IPart=     0 DynPar=F LinDyn=F Incr=          18.
 PRISM was handed  1073395252 working-precision words and  1811 shell-pairs
 IPart=  0 NShTot=        1811 NBatch=          80 AvBLen=        22.6
 PrSmSu:  NxtVal=             19.
 Entering OneElI...
 Calculate overlap and kinetic energy integrals
    NBasis = 228  MinDer = 1  MaxDer = 1
 Requested accuracy = 0.1000D-12
 PrsmSu:  NPrtUS=   8 ThrOK=T IAlg=1 NPAlg=1 LenDen=           0.
 Prism:   IPart=     0 DynPar=F LinDyn=F Incr=           2.
 PRISM was handed   134098429 working-precision words and  1827 shell-pairs
 PRISM was handed   134098429 working-precision words and  1827 shell-pairs
 PRISM was handed   134098429 working-precision words and  1827 shell-pairs
 PRISM was handed   134098429 working-precision words and  1827 shell-pairs
 PRISM was handed   134098429 working-precision words and  1827 shell-pairs
 PRISM was handed   134098429 working-precision words and  1827 shell-pairs
 PRISM was handed   134098429 working-precision words and  1827 shell-pairs
 PRISM was handed   134098429 working-precision words and  1827 shell-pairs
 IPart=  0 NShTot=         258 NBatch=          78 AvBLen=         3.3
 IPart=  7 NShTot=         209 NBatch=          37 AvBLen=         5.6
 IPart=  6 NShTot=         209 NBatch=          37 AvBLen=         5.6
 IPart=  4 NShTot=         217 NBatch=          41 AvBLen=         5.3
 IPart=  5 NShTot=         215 NBatch=          39 AvBLen=         5.5
 IPart=  2 NShTot=         233 NBatch=          53 AvBLen=         4.4
 IPart=  3 NShTot=         231 NBatch=          52 AvBLen=         4.4
 IPart=  1 NShTot=         255 NBatch=          75 AvBLen=         3.4
 PrSmSu:  NxtVal=             17.
 Entering OneElI...
 Calculate potential energy integrals
    NBasis = 228  MinDer = 1  MaxDer = 1
 Requested accuracy = 0.1000D-12
 PrsmSu:  NPrtUS=   8 ThrOK=T IAlg=1 NPAlg=1 LenDen=           0.
 Prism:   IPart=     0 DynPar=F LinDyn=F Incr=           9.
 PRISM was handed   134113916 working-precision words and  1801 shell-pairs
 PRISM was handed   134113916 working-precision words and  1801 shell-pairs
 PRISM was handed   134113916 working-precision words and  1801 shell-pairs
 PRISM was handed   134113916 working-precision words and  1801 shell-pairs
 PRISM was handed   134113916 working-precision words and  1801 shell-pairs
 PRISM was handed   134113916 working-precision words and  1801 shell-pairs
 PRISM was handed   134113916 working-precision words and  1801 shell-pairs
 PRISM was handed   134113916 working-precision words and  1801 shell-pairs
 IPart=  7 NShTot=         800 NBatch=         200 AvBLen=         4.0
 IPart=  6 NShTot=         804 NBatch=         201 AvBLen=         4.0
 IPart=  0 NShTot=        1048 NBatch=         262 AvBLen=         4.0
 IPart=  5 NShTot=         844 NBatch=         211 AvBLen=         4.0
 IPart=  2 NShTot=         924 NBatch=         231 AvBLen=         4.0
 IPart=  4 NShTot=         848 NBatch=         212 AvBLen=         4.0
 IPart=  3 NShTot=         908 NBatch=         227 AvBLen=         4.0
 IPart=  1 NShTot=        1028 NBatch=         257 AvBLen=         4.0
 PrSmSu:  NxtVal=             73.
 l701 out
 I=    0 X=  -4.096580397435D-04 Y=   0.000000000000D+00 Z=  -4.875669053764D-01
 I=    1 X=   1.838381420570D-02 Y=   0.000000000000D+00 Z=   2.573920769404D+01
 I=    2 X=  -1.462792652347D-02 Y=   0.000000000000D+00 Z=  -4.748662681865D+00
 I=    3 X=  -1.877943841372D-03 Y=  -2.168409417428D+01 Z=  -1.049527250615D+01
 I=    4 X=  -1.877943840855D-03 Y=   2.168409417432D+01 Z=  -1.049527250603D+01
 ICntrl=      2127.
 Calling FoFJK, ICntrl=      2127 FMM=F ISym2X=0 I1Cent= 0 IOpClX= 0 NMat=1 NMatS=1 NMatT=0.
 FoFJK:  IHMeth= 1 ICntrl=  2127 DoSepK=F KAlg= 1 I1Cent= 0 FoldK=F
 FoFCou: FMM=F IPFlag=           0 FMFlag=      100000 FMFlg1=         800
         NFxFlg=           0 DoJE=F BraDBF=F KetDBF=F FulRan=T
         Omega=  0.000000  0.000000  1.000000  0.000000  0.000000 ICntrl=    2127 IOpCl=  0
         NMat0=    1 NMatS0=    1 NMatT0=    0 NMatD0=    1 NMtDS0=    0 NMtDT0=    0
         I1Cent=           0 NGrid=           0.
 Symmetry not used in FoFCou.
 FoFCou:  KetSym=F NOpSet=  1 NOpAb=1 NOp=  1.
 FoFCou:  CnvScl= 1.00D+00 Thresh= 1.00D-10
 PrismS was handed  1073472001 working-precision words and  1811 shell-pairs
 FoFCou: LinMIO=F DoNuc=F BraDBF=F KetDBF=F HaveP=T PDBF=F HaveZ=T HaveW=F
         NIJTC =      10 NIJTAt=       0 NIJTCD=       0 NIJTT =      10
         IJTBeg=       1 IJTEnd=      10 KLTBeg=       1 KLTEnd=      10
         IPTBeg=       1 IPTEnd=      10 IPTBCv=       1 IPTECv=      10
         IZTBeg=       1 IZTEnd=      10 IZTBCv=       1 IZTECv=      10
         IWTBeg=      11 IWTEnd=      10 IWTBCv=      11 IWTECv=      10
         INTBeg=       1 INTEnd=       0 IFTBCv=       1 IFTECv=      10
 NCel replicated for PrismC:     1
 CoulSu:  IncDef=  1024 NBBP=        1640766 NTPThr=   100 NPartT=    8 Incr=        1024 LDynOK=F.
 CoulSu:  NPrtUS=   8 ThrOK=T IAlg=1 NPAlg=1 LenDen=           0.
 Enter PrismC: JobTyp=21 DoJE=F Cont=F.
 PrismC:  IPart=     0 DynPar=T LinDyn=F Incr=        1024 UseFst=F UseS4=T.
 PrismC was handed   134120271 working-precision words and  1811 shell-pairs
 Enter PrismC: JobTyp=21 DoJE=F Cont=F.
 Enter PrismC: JobTyp=21 DoJE=F Cont=F.
 PrismC was handed   134120271 working-precision words and  1811 shell-pairs
 PrismC was handed   134120271 working-precision words and  1811 shell-pairs
 Enter PrismC: JobTyp=21 DoJE=F Cont=F.
 Enter PrismC: JobTyp=21 DoJE=F Cont=F.
 Enter PrismC: JobTyp=21 DoJE=F Cont=F.
 PrismC was handed   134120271 working-precision words and  1811 shell-pairs
 PrismC was handed   134120271 working-precision words and  1811 shell-pairs
 PrismC was handed   134120271 working-precision words and  1811 shell-pairs
 Enter PrismC: JobTyp=21 DoJE=F Cont=F.
 Enter PrismC: JobTyp=21 DoJE=F Cont=F.
 PrismC was handed   134120271 working-precision words and  1811 shell-pairs
 PrismC was handed   134120271 working-precision words and  1811 shell-pairs
 IPart=  6 NShTot=      181135 NShNF=      181135 NShFF=           0 NBatch=         971 AvBLen=       186.5
 IPart=  1 NShTot=      215597 NShNF=      215597 NShFF=           0 NBatch=         909 AvBLen=       237.2
 IPart=  3 NShTot=      205736 NShNF=      205736 NShFF=           0 NBatch=         857 AvBLen=       240.1
 IPart=  0 NShTot=      187715 NShNF=      187715 NShFF=           0 NBatch=         882 AvBLen=       212.8
 IPart=  2 NShTot=      191211 NShNF=      191211 NShFF=           0 NBatch=         921 AvBLen=       207.6
 IPart=  5 NShTot=      192127 NShNF=      192127 NShFF=           0 NBatch=        1014 AvBLen=       189.5
 IPart=  4 NShTot=      200377 NShNF=      200377 NShFF=           0 NBatch=         815 AvBLen=       245.9
 IPart=  7 NShTot=      173463 NShNF=      173463 NShFF=           0 NBatch=         958 AvBLen=       181.1
 CoulSu:  NxtVal=        1714177.
 Forces at end of L703
 I=    0 X=  -4.096580397435D-04 Y=   0.000000000000D+00 Z=  -4.875669053764D-01
 I=    1 X=   5.176268674812D-05 Y=   0.000000000000D+00 Z=   1.366216988536D-04
 I=    2 X=  -1.142323999171D-04 Y=   0.000000000000D+00 Z=  -4.386273626462D-04
 I=    3 X=   3.123485658475D-05 Y=   3.597740659735D-04 Z=   1.510028312506D-04
 I=    4 X=   3.123485658422D-05 Y=  -3.597740665064D-04 Z=   1.510028327072D-04
 FrcOut:
 IF    =    58 IFX   =    70 IFXYZ =    82
 IFFX  =    94 IFFFX =    94 IFLen =    12
 IFFLen=     0 IFFFLn=     0 IEDerv=    94
 LEDerv=   629 IFroze=   727 ICStrt= 74892
 DipInt: DoE/N= T T RetVal/Mat= T F Init=T NMatP=  1 IDeriv=0 Min/MaxMlt=  1  1
 Entering OneElI...
 Multipole integrals L=1 to 1 MinM= 0 MaxM= 0.
 Requested accuracy = 0.1000D-12
 PrsmSu:  NPrtUS=   1 ThrOK=F IAlg=1 NPAlg=1 LenDen=           0.
 Prism:   IPart=     0 DynPar=F LinDyn=F Incr=          18.
 PRISM was handed  1073450912 working-precision words and  1811 shell-pairs
 IPart=  0 NShTot=        1811 NBatch=          80 AvBLen=        22.6
 PrSmSu:  NxtVal=             19.
 Computed dipole moment (without fudge factor):
 X=-0.4096580397435D-03   Y= 0.5826450433233D-12   Z=-0.4875669053764D+00
 Quadrupole    = 1.23622962D-01 6.45040584D-01-7.68663546D-01
                 7.59097738D-15-1.52160594D-03-1.08713039D-12
 -------------------------------------------------------------------
 Center     Atomic                   Forces (Hartrees/Bohr)
 Number     Number              X              Y              Z
 -------------------------------------------------------------------
      1        8          -0.000051763    0.000000000   -0.000136622
      2        6           0.000114232    0.000000000    0.000438627
      3       17          -0.000031235   -0.000359774   -0.000151003
      4       17          -0.000031235    0.000359774   -0.000151003
 -------------------------------------------------------------------
 Cartesian Forces:  Max     0.000438627 RMS     0.000210796
 Final forces over variables, Energy=-1.03260560D+03:
  3.76713626D-14-4.88818687D-14 3.02101076D-14-1.89996015D-14
  1.79650190D-13-5.07140716D-13-3.59862575D-04 3.59862575D-04
 -1.36021415D-04 4.38158114D-04-1.51068350D-04-1.51068350D-04
 NDeriv=  12 NFrqRd=  0 LFDDif=       1
 NDeriv=  12 NFrqRd=  0 LFDDif=       1
 Re-enter D2Numr: IAtom=  1 IXYZ=1 IStep= 1.
 Standard basis: Aug-CC-pVTZ (5D, 7F)
 Integral buffers will be    131072 words long.
 Raffenetti 1 integral format.
 Two-electron integral symmetry is turned off.
   192 basis functions,   372 primitive gaussians,   228 cartesian basis functions
    24 alpha electrons       24 beta electrons
       nuclear repulsion energy       191.7658793255 Hartrees.
 NAtoms=    4 NActive=    4 NUniq=    4 SFac= 1.00D+00 NAtFMM=   50 NAOKFM=F Big=F
 One-electron integrals computed using PRISM.
 NBasis=   192 RedAO= T  NBF=   192
 NBsUse=   192 1.00D-06 NBFU=   192
 Initial guess read from the read-write file.
 B after Tr=     0.000000    0.000000    0.000000
         Rot=    1.000000    0.000000    0.000000    0.000000 Ang=   0.00 deg.
 Requested convergence on RMS density matrix=1.00D-08 within 128 cycles.
 Requested convergence on MAX density matrix=1.00D-06.
 Requested convergence on             energy=1.00D-06.
 No special actions if energy rises.
 Keep R1 ints in memory in canonical form, NReq=346956363.
 SCF Done:  E(RHF) =  -1031.80274322     A.U. after    7 cycles
             Convg  =    0.6278D-08             -V/T =  2.0003
 ExpMin= 3.57D-02 ExpMax= 4.56D+05 ExpMxC= 1.44D+03 IAcc=3 IRadAn=         5 AccDes= 0.00D+00
 HarFok:  IExCor=  205 AccDes= 0.00D+00 IRadAn=         5 IDoV=-2
 ScaDFX=  1.000000  1.000000  1.000000  1.000000
 Range of M.O.s used for correlation:    13   192
 NBasis=   192 NAE=    24 NBE=    24 NFC=    12 NFV=     0
 NROrb=    180 NOA=    12 NOB=    12 NVA=   168 NVB=   168

 **** Warning!!: The largest alpha MO coefficient is  0.28796357D+02

 Semi-Direct transformation.
 ModeAB=           2 MOrb=            12 LenV=    1072714337
 LASXX=     33405819 LTotXX=    33405819 LenRXX=    33405819
 LTotAB=    33954012 MaxLAS=    56388960 LenRXY=    56388960
 NonZer=    66811638 LenScr=   100987392 LnRSAI=           0
 LnScr1=           0 LExtra=           0 Total=    190782171
 MaxDsk=          -1 SrtSym=           F ITran=            4
 JobTyp=0 Pass  1:  I=   1 to  12.
 (rs|ai) integrals will be sorted in core.
 Spin components of T(2) and E(2):
     alpha-alpha T2 =       0.3523604626D-01 E2=     -0.1018047032D+00
     alpha-beta  T2 =       0.1834140257D+00 E2=     -0.5757993738D+00
     beta-beta   T2 =       0.3523604626D-01 E2=     -0.1018047032D+00
 ANorm=    0.1119770565D+01
 E2 =    -0.7794087802D+00 EUMP2 =    -0.10325821520027D+04
 R2 and R3 integrals will be kept in memory, NReq=   687553722.
 Iterations=  50 Convergence= 0.100D-07
 Iteration Nr.   1
 **********************
 DD1Dir will call FoFMem   1 times, MxPair=       156
 NAB=    78 NAA=     0 NBB=     0.
 MP4(R+Q)=  0.22520358D-01
 E3=       -0.19054765D-01        EUMP3=      -0.10326012068D+04
 E4(DQ)=    0.28541650D-02        UMP4(DQ)=   -0.10325983526D+04
 E4(SDQ)=  -0.61276447D-02        UMP4(SDQ)=  -0.10326073344D+04
 DE(Corr)= -0.77594319     E(Corr)=     -1032.5786864    
 NORM(A)=   0.11213533D+01
 Iteration Nr.   2
 **********************
 DD1Dir will call FoFMem   1 times, MxPair=       156
 NAB=    78 NAA=     0 NBB=     0.
 DE(Corr)= -0.80165603     E(CORR)=     -1032.6043993     Delta=-2.57D-02
 NORM(A)=   0.11307139D+01
 Iteration Nr.   3
 **********************
 DD1Dir will call FoFMem   1 times, MxPair=       156
 NAB=    78 NAA=     0 NBB=     0.
 DE(Corr)= -0.80005218     E(CORR)=     -1032.6027954     Delta= 1.60D-03
 NORM(A)=   0.11333178D+01
 Iteration Nr.   4
 **********************
 DD1Dir will call FoFMem   1 times, MxPair=       156
 NAB=    78 NAA=     0 NBB=     0.
 DE(Corr)= -0.80248203     E(CORR)=     -1032.6052253     Delta=-2.43D-03
 NORM(A)=   0.11343292D+01
 Iteration Nr.   5
 **********************
 DD1Dir will call FoFMem   1 times, MxPair=       156
 NAB=    78 NAA=     0 NBB=     0.
 DE(Corr)= -0.80279933     E(CORR)=     -1032.6055426     Delta=-3.17D-04
 NORM(A)=   0.11347196D+01
 Iteration Nr.   6
 **********************
 DD1Dir will call FoFMem   1 times, MxPair=       156
 NAB=    78 NAA=     0 NBB=     0.
 DE(Corr)= -0.80284999     E(CORR)=     -1032.6055932     Delta=-5.07D-05
 NORM(A)=   0.11347908D+01
 Iteration Nr.   7
 **********************
 DD1Dir will call FoFMem   1 times, MxPair=       156
 NAB=    78 NAA=     0 NBB=     0.
 DE(Corr)= -0.80285913     E(CORR)=     -1032.6056024     Delta=-9.15D-06
 NORM(A)=   0.11347920D+01
 Iteration Nr.   8
 **********************
 DD1Dir will call FoFMem   1 times, MxPair=       156
 NAB=    78 NAA=     0 NBB=     0.
 DE(Corr)= -0.80285872     E(CORR)=     -1032.6056019     Delta= 4.16D-07
 NORM(A)=   0.11348001D+01
 Iteration Nr.   9
 **********************
 DD1Dir will call FoFMem   1 times, MxPair=       156
 NAB=    78 NAA=     0 NBB=     0.
 DE(Corr)= -0.80285745     E(CORR)=     -1032.6056007     Delta= 1.26D-06
 NORM(A)=   0.11347996D+01
 Iteration Nr.  10
 **********************
 DD1Dir will call FoFMem   1 times, MxPair=       156
 NAB=    78 NAA=     0 NBB=     0.
 DE(Corr)= -0.80285864     E(CORR)=     -1032.6056019     Delta=-1.19D-06
 NORM(A)=   0.11348012D+01
 Iteration Nr.  11
 **********************
 DD1Dir will call FoFMem   1 times, MxPair=       156
 NAB=    78 NAA=     0 NBB=     0.
 DE(Corr)= -0.80285946     E(CORR)=     -1032.6056027     Delta=-8.18D-07
 NORM(A)=   0.11348024D+01
 Iteration Nr.  12
 **********************
 DD1Dir will call FoFMem   1 times, MxPair=       156
 NAB=    78 NAA=     0 NBB=     0.
 DE(Corr)= -0.80285971     E(CORR)=     -1032.6056029     Delta=-2.48D-07
 NORM(A)=   0.11348030D+01
 Iteration Nr.  13
 **********************
 DD1Dir will call FoFMem   1 times, MxPair=       156
 NAB=    78 NAA=     0 NBB=     0.
 DE(Corr)= -0.80286004     E(CORR)=     -1032.6056033     Delta=-3.25D-07
 NORM(A)=   0.11348035D+01
 Iteration Nr.  14
 **********************
 DD1Dir will call FoFMem   1 times, MxPair=       156
 NAB=    78 NAA=     0 NBB=     0.
 DE(Corr)= -0.80286010     E(CORR)=     -1032.6056033     Delta=-6.49D-08
 NORM(A)=   0.11348037D+01
 Iteration Nr.  15
 **********************
 DD1Dir will call FoFMem   1 times, MxPair=       156
 NAB=    78 NAA=     0 NBB=     0.
 DE(Corr)= -0.80286015     E(CORR)=     -1032.6056034     Delta=-4.77D-08
 NORM(A)=   0.11348038D+01
 Iteration Nr.  16
 **********************
 DD1Dir will call FoFMem   1 times, MxPair=       156
 NAB=    78 NAA=     0 NBB=     0.
 DE(Corr)= -0.80286016     E(CORR)=     -1032.6056034     Delta=-1.60D-08
 NORM(A)=   0.11348038D+01
 Iteration Nr.  17
 **********************
 DD1Dir will call FoFMem   1 times, MxPair=       156
 NAB=    78 NAA=     0 NBB=     0.
 DE(Corr)= -0.80286016     E(CORR)=     -1032.6056034     Delta= 1.05D-09
 NORM(A)=   0.11348038D+01
 Iteration Nr.  18
 **********************
 DD1Dir will call FoFMem   1 times, MxPair=       156
 NAB=    78 NAA=     0 NBB=     0.
 DE(Corr)= -0.80286016     E(CORR)=     -1032.6056034     Delta=-7.60D-10
 NORM(A)=   0.11348038D+01
 Iteration Nr.  19
 **********************
 DD1Dir will call FoFMem   1 times, MxPair=       156
 NAB=    78 NAA=     0 NBB=     0.
 DE(Corr)= -0.80286016     E(CORR)=     -1032.6056034     Delta= 7.93D-10
 NORM(A)=   0.11348038D+01
 Largest amplitude= 3.33D-02

 Z-AMPLITUDE ITERATIONS

 Iteration Nr.   1
 **********************
 DD1Dir will call FoFMem   1 times, MxPair=       156
 NAB=    78 NAA=     0 NBB=     0.
 DE(Z)  -0.77482416D+00          E(Z)=    -0.10325775674D+04
 NORM(A)=   0.11348173D+01
 Iteration Nr.   2
 **********************
 DD1Dir will call FoFMem   1 times, MxPair=       156
 NAB=    78 NAA=     0 NBB=     0.
 DE(Z)  -0.77482460D+00          E(Z)=    -0.10325775678D+04
 NORM(A)=   0.11347949D+01
 Iteration Nr.   3
 **********************
 DD1Dir will call FoFMem   1 times, MxPair=       156
 NAB=    78 NAA=     0 NBB=     0.
 DE(Z)  -0.77482389D+00          E(Z)=    -0.10325775671D+04
 NORM(A)=   0.11348004D+01
 Iteration Nr.   4
 **********************
 DD1Dir will call FoFMem   1 times, MxPair=       156
 NAB=    78 NAA=     0 NBB=     0.
 DE(Z)  -0.77482405D+00          E(Z)=    -0.10325775673D+04
 NORM(A)=   0.11347993D+01
 Iteration Nr.   5
 **********************
 DD1Dir will call FoFMem   1 times, MxPair=       156
 NAB=    78 NAA=     0 NBB=     0.
 DE(Z)  -0.77482401D+00          E(Z)=    -0.10325775672D+04
 NORM(A)=   0.11251538D+01
 Iteration Nr.   6
 **********************
 DD1Dir will call FoFMem   1 times, MxPair=       156
 NAB=    78 NAA=     0 NBB=     0.
 DE(Z)  -0.77450743D+00          E(Z)=    -0.10325772507D+04
 NORM(A)=   0.11251378D+01
 Iteration Nr.   7
 **********************
 DD1Dir will call FoFMem   1 times, MxPair=       156
 NAB=    78 NAA=     0 NBB=     0.
 DE(Z)  -0.77450474D+00          E(Z)=    -0.10325772480D+04
 NORM(A)=   0.11251354D+01
 Iteration Nr.   8
 **********************
 DD1Dir will call FoFMem   1 times, MxPair=       156
 NAB=    78 NAA=     0 NBB=     0.
 DE(Z)  -0.77450587D+00          E(Z)=    -0.10325772491D+04
 NORM(A)=   0.11251362D+01
 Iteration Nr.   9
 **********************
 DD1Dir will call FoFMem   1 times, MxPair=       156
 NAB=    78 NAA=     0 NBB=     0.
 DE(Z)  -0.77450564D+00          E(Z)=    -0.10325772489D+04
 NORM(A)=   0.11251370D+01
 Iteration Nr.  10
 **********************
 DD1Dir will call FoFMem   1 times, MxPair=       156
 NAB=    78 NAA=     0 NBB=     0.
 DE(Z)  -0.77450606D+00          E(Z)=    -0.10325772493D+04
 NORM(A)=   0.11251373D+01
 Iteration Nr.  11
 **********************
 DD1Dir will call FoFMem   1 times, MxPair=       156
 NAB=    78 NAA=     0 NBB=     0.
 DE(Z)  -0.77450613D+00          E(Z)=    -0.10325772494D+04
 NORM(A)=   0.11251375D+01
 Iteration Nr.  12
 **********************
 DD1Dir will call FoFMem   1 times, MxPair=       156
 NAB=    78 NAA=     0 NBB=     0.
 DE(Z)  -0.77450608D+00          E(Z)=    -0.10325772493D+04
 NORM(A)=   0.11251376D+01
 Iteration Nr.  13
 **********************
 DD1Dir will call FoFMem   1 times, MxPair=       156
 NAB=    78 NAA=     0 NBB=     0.
 DE(Z)  -0.77450613D+00          E(Z)=    -0.10325772494D+04
 NORM(A)=   0.11251376D+01
 Iteration Nr.  14
 **********************
 DD1Dir will call FoFMem   1 times, MxPair=       156
 NAB=    78 NAA=     0 NBB=     0.
 DE(Z)  -0.77450611D+00          E(Z)=    -0.10325772493D+04
 NORM(A)=   0.11251376D+01
 Iteration Nr.  15
 **********************
 DD1Dir will call FoFMem   1 times, MxPair=       156
 NAB=    78 NAA=     0 NBB=     0.
 DE(Z)  -0.77450611D+00          E(Z)=    -0.10325772493D+04
 NORM(A)=   0.11251376D+01
 Discarding MO integrals.
          IDoAtm=1111
          Differentiating once with respect to electric field.
                with respect to dipole field.
          Differentiating once with respect to nuclear coordinates.
          Keep R1 ints in memory in canonical form, NReq=342715892.
          There are     1 degrees of freedom in the 1st order CPHF.  IDoFFX=0.
 LinEq1:  Iter=  0 NonCon=     1 RMS=2.34D-03 Max=5.60D-02
 AX will form     1 AO Fock derivatives at one time.
 LinEq1:  Iter=  1 NonCon=     1 RMS=8.29D-04 Max=1.86D-02
 LinEq1:  Iter=  2 NonCon=     1 RMS=3.10D-04 Max=5.64D-03
 LinEq1:  Iter=  3 NonCon=     1 RMS=1.28D-04 Max=3.30D-03
 LinEq1:  Iter=  4 NonCon=     1 RMS=5.11D-05 Max=1.23D-03
 LinEq1:  Iter=  5 NonCon=     1 RMS=1.65D-05 Max=3.62D-04
 LinEq1:  Iter=  6 NonCon=     1 RMS=4.17D-06 Max=5.72D-05
 LinEq1:  Iter=  7 NonCon=     1 RMS=9.92D-07 Max=1.16D-05
 LinEq1:  Iter=  8 NonCon=     1 RMS=2.10D-07 Max=3.15D-06
 LinEq1:  Iter=  9 NonCon=     1 RMS=4.75D-08 Max=8.06D-07
 LinEq1:  Iter= 10 NonCon=     1 RMS=1.20D-08 Max=2.23D-07
 LinEq1:  Iter= 11 NonCon=     1 RMS=2.52D-09 Max=3.83D-08
 LinEq1:  Iter= 12 NonCon=     1 RMS=4.62D-10 Max=1.16D-08
 LinEq1:  Iter= 13 NonCon=     1 RMS=7.81D-11 Max=1.20D-09
 LinEq1:  Iter= 14 NonCon=     0 RMS=1.11D-11 Max=1.28D-10
 Linear equations converged to 1.000D-10 1.000D-09 after    14 iterations.
 End of Minotr Frequency-dependent properties file   721 does not exist.
 End of Minotr Frequency-dependent properties file   722 does not exist.

 **********************************************************************

            Population analysis using the QCI/CC density.

 **********************************************************************

 Alpha  occ. eigenvalues -- -104.89033-104.89033 -20.62385 -11.47629 -10.61474
 Alpha  occ. eigenvalues --  -10.61472  -8.08151  -8.08151  -8.07940  -8.07939
 Alpha  occ. eigenvalues --   -8.07922  -8.07922  -1.48587  -1.20280  -1.14053
 Alpha  occ. eigenvalues --   -0.81223  -0.70798  -0.70168  -0.64881  -0.53115
 Alpha  occ. eigenvalues --   -0.50173  -0.49904  -0.49524  -0.47705
 Alpha virt. eigenvalues --    0.04778   0.06608   0.07970   0.08607   0.09323
 Alpha virt. eigenvalues --    0.09841   0.11377   0.12504   0.12770   0.13446
 Alpha virt. eigenvalues --    0.15700   0.15883   0.22043   0.22150   0.23662
 Alpha virt. eigenvalues --    0.23884   0.25342   0.26288   0.27970   0.30447
 Alpha virt. eigenvalues --    0.30992   0.31677   0.36353   0.39568   0.43819
 Alpha virt. eigenvalues --    0.44186   0.44239   0.45726   0.47057   0.48396
 Alpha virt. eigenvalues --    0.50797   0.51319   0.52026   0.52362   0.54894
 Alpha virt. eigenvalues --    0.62240   0.64192   0.69240   0.69761   0.71380
 Alpha virt. eigenvalues --    0.71521   0.73596   0.75849   0.79498   0.81360
 Alpha virt. eigenvalues --    0.81589   0.83257   0.83438   0.87005   0.88595
 Alpha virt. eigenvalues --    0.89181   0.91502   0.93369   0.93791   0.94581
 Alpha virt. eigenvalues --    0.96135   0.96649   1.04969   1.06031   1.08839
 Alpha virt. eigenvalues --    1.09708   1.12919   1.14907   1.15999   1.17265
 Alpha virt. eigenvalues --    1.21205   1.23080   1.24230   1.26614   1.33639
 Alpha virt. eigenvalues --    1.36867   1.39728   1.42501   1.46424   1.46729
 Alpha virt. eigenvalues --    1.47098   1.47415   1.56246   1.58071   1.61938
 Alpha virt. eigenvalues --    1.67750   1.67910   1.69458   1.72871   1.80558
 Alpha virt. eigenvalues --    1.81215   1.82779   1.83209   1.85410   2.00856
 Alpha virt. eigenvalues --    2.07251   2.25991   2.28709   2.33590   2.34071
 Alpha virt. eigenvalues --    2.39498   2.44564   2.45215   2.49024   2.49373
 Alpha virt. eigenvalues --    2.52314   2.54232   2.57955   2.59039   2.60510
 Alpha virt. eigenvalues --    2.62143   2.63564   2.66306   2.70388   2.77066
 Alpha virt. eigenvalues --    2.77125   2.81476   2.88537   2.88940   2.91392
 Alpha virt. eigenvalues --    2.92383   2.94576   2.97545   2.99222   3.02330
 Alpha virt. eigenvalues --    3.02624   3.05311   3.06444   3.07229   3.07498
 Alpha virt. eigenvalues --    3.10599   3.13219   3.16252   3.20169   3.21643
 Alpha virt. eigenvalues --    3.25051   3.26580   3.51949   3.53044   3.60367
 Alpha virt. eigenvalues --    3.62875   3.64162   3.70175   3.82347   3.84359
 Alpha virt. eigenvalues --    3.95047   3.96224   4.03115   4.15486   4.19403
 Alpha virt. eigenvalues --    4.43897   4.50777   4.63126   4.75981   5.12351
 Alpha virt. eigenvalues --    5.46242   5.62125   6.56387   6.57773   6.86276
 Alpha virt. eigenvalues --    6.86901   7.04933   7.10223   7.18311   7.18777
 Alpha virt. eigenvalues --    7.19755   7.28405   7.50603   7.51976   7.66653
 Alpha virt. eigenvalues --    7.72791  13.31753  15.69636
          Condensed to atoms (all electrons):
              1          2          3          4
     1  O    8.034137   0.435606  -0.074468  -0.074468
     2  C    0.435606   4.966584   0.136374   0.136374
     3  Cl  -0.074468   0.136374  17.040665  -0.100443
     4  Cl  -0.074468   0.136374  -0.100443  17.040665
 Mulliken atomic charges:
              1
     1  O   -0.320807
     2  C    0.325063
     3  Cl  -0.002128
     4  Cl  -0.002128
 Sum of Mulliken atomic charges =   0.00000
 Mulliken charges with hydrogens summed into heavy atoms:
              1
     1  O   -0.320807
     2  C    0.325063
     3  Cl  -0.002128
     4  Cl  -0.002128
 Sum of Mulliken charges with hydrogens summed into heavy atoms =   0.00000
 Electronic spatial extent (au):  <R**2>=            613.6863
 Charge=              0.0000 electrons
 Dipole moment (field-independent basis, Debye):
    X=              0.0010    Y=              0.0000    Z=             -1.2393  Tot=              1.2393
 Quadrupole moment (field-independent basis, Debye-Ang):
   XX=            -35.0849   YY=            -34.3836   ZZ=            -36.2851
   XY=              0.0000   XZ=              0.0020   YZ=              0.0000
 Traceless Quadrupole moment (field-independent basis, Debye-Ang):
   XX=              0.1663   YY=              0.8676   ZZ=             -1.0339
   XY=              0.0000   XZ=              0.0020   YZ=              0.0000
 Octapole moment (field-independent basis, Debye-Ang**2):
  XXX=              0.0147  YYY=              0.0000  ZZZ=            106.2008  XYY=              0.0038
  XXY=              0.0000  XXZ=             36.0667  XZZ=              0.0038  YZZ=              0.0000
  YYZ=             29.7043  XYZ=              0.0000
 Hexadecapole moment (field-independent basis, Debye-Ang**3):
 XXXX=            -37.1314 YYYY=           -329.2937 ZZZZ=           -383.0999 XXXY=              0.0000
 XXXZ=              0.0123 YYYX=              0.0000 YYYZ=              0.0000 ZZZX=              0.0166
 ZZZY=              0.0000 XXYY=            -65.2563 XXZZ=            -71.0858 YYZZ=           -106.8876
 XXYZ=              0.0000 YYXZ=              0.0074 ZZXY=              0.0000
 N-N= 1.917658793255D+02 E-N=-2.837761087475D+03  KE= 1.032422074170D+03
 Use density number 7.
 DipInt: DoE/N= T T RetVal/Mat= T F Init=T NMatP=  1 IDeriv=0 Min/MaxMlt=  1  1
 Entering OneElI...
 Multipole integrals L=1 to 1 MinM= 0 MaxM= 0.
 Requested accuracy = 0.1000D-12
 PrsmSu:  NPrtUS=   1 ThrOK=F IAlg=1 NPAlg=1 LenDen=           0.
 Prism:   IPart=     0 DynPar=F LinDyn=F Incr=          18.
 PRISM was handed  1073395252 working-precision words and  1811 shell-pairs
 IPart=  0 NShTot=        1811 NBatch=          80 AvBLen=        22.6
 PrSmSu:  NxtVal=             19.
 Entering OneElI...
 Calculate overlap and kinetic energy integrals
    NBasis = 228  MinDer = 1  MaxDer = 1
 Requested accuracy = 0.1000D-12
[...]
 OrtVCM:  IS=    1 I=    3 IndO=    9 Dot= 8.37D-01 DotN= 8.37D-01 ElMax1= 8.37D-01 ElMax1N= 8.37D-01
 OrtVCM:  Ph=2 NNew=    0 IAdd=    4 IPass= 1 DotMx2= 9.11D-01
 OrtVCM:  Ph=2 NNew=    0 IAdd=    4 IPass= 2 DotMx2= 1.98D-17
 OrtVCM:  IS=    1 I=    4 IndO=    0 Dot= 2.69D-33 DotN= 2.69D-33 ElMax1= 4.84D-17 ElMax1N= 4.84D-17
 OrtVCM:  Ph=2 NNew=    0 IAdd=    5 IPass= 1 DotMx2= 2.50D-01
 OrtVCM:  Ph=2 NNew=    0 IAdd=    5 IPass= 2 DotMx2= 1.18D-16
 OrtVCM:  IS=    1 I=    5 IndO=   10 Dot= 8.00D-01 DotN= 8.00D-01 ElMax1= 8.00D-01 ElMax1N= 8.00D-01
 OrtVCM:  Ph=2 NNew=    0 IAdd=    6 IPass= 1 DotMx2= 1.55D-01
 OrtVCM:  Ph=2 NNew=    0 IAdd=    6 IPass= 2 DotMx2= 2.78D-17
 OrtVCM:  IS=    1 I=    6 IndO=   11 Dot= 8.54D-01 DotN= 8.54D-01 ElMax1= 8.54D-01 ElMax1N= 8.54D-01
 SchOr2:  IPass= 1 Test2A= 1.00D-01 IOff=     0 NDo=     6 NNew=     5
 OrtVCM:  Ph=1 IPass= 1 DotMx1= 7.07D-01
 OrtVCM:  Ph=1 IPass= 2 DotMx1= 1.65D-16
 OrtVCM:  IS=    1 I=    1 IndO=    0 Dot= 5.15D-63 DotN= 5.15D-63 ElMax1= 4.39D-32 ElMax1N= 4.39D-32
 SchOr2:  IPass= 1 Test2A= 1.00D-01 IOff=     6 NDo=     1 NNew=     0
 OrtVCM:  Ph=1 IPass= 1 DotMx1= 5.98D-01
 OrtVCM:  Ph=1 IPass= 2 DotMx1= 1.11D-16
 OrtVCM:  IS=    1 I=    1 IndO=   12 Dot= 5.00D-01 DotN= 5.00D-01 ElMax1= 5.00D-01 ElMax1N= 5.00D-01
 SchOr2:  IPass= 1 Test2A= 1.00D-01 IOff=     7 NDo=     1 NNew=     1
 VibFq2-Diag2:  N=      6 IV=           5 MDV=  1073666040 NE2=   178944339
 Dipole derivatives wrt mode   1:  5.94286D-06 -3.43849D-05 -3.78004D-01
 Vibrational polarizability contributions from mode   1       0.0000000       0.0000000       0.0410014
 Vibrational hyperpolarizability contributions from mode   1       0.0000000       0.0000000       0.0000000
 Dipole derivatives wrt mode   2: -6.39930D-10 -8.08226D-02 -2.34415D-04
 Vibrational polarizability contributions from mode   2       0.0000000       0.0008567       0.0000000
 Vibrational hyperpolarizability contributions from mode   2       0.0000000       0.0000000       0.0000000
 Dipole derivatives wrt mode   3:  4.81282D-04 -5.43341D-04  4.01417D+00
 Vibrational polarizability contributions from mode   3       0.0000000       0.0000000       1.2694486
 Vibrational hyperpolarizability contributions from mode   3       0.0000000       0.0000000       0.0000000
 Dipole derivatives wrt mode   4: -2.36025D+00 -3.65663D-08  4.84923D-04
 Vibrational polarizability contributions from mode   4       0.4240351       0.0000000       0.0000000
 Vibrational hyperpolarizability contributions from mode   4       0.0000000       0.0000000       0.0000000
 Dipole derivatives wrt mode   5:  8.73383D-09  2.10091D+01 -7.42905D-04
 Vibrational polarizability contributions from mode   5       0.0000000      15.2914695       0.0000000
 Vibrational hyperpolarizability contributions from mode   5       0.0000000       0.0000000       0.0000000
 Dipole derivatives wrt mode   6: -6.18476D-06  7.77361D-05  1.78371D+01
 Vibrational polarizability contributions from mode   6       0.0000000       0.0000000       2.4523568
 Vibrational hyperpolarizability contributions from mode   6       0.0000000       0.0000000       0.0000000
 Diagonal vibrational polarizability:
        0.4240351      15.2923263       3.7628069
 NorSel:  MapVib=      1      2      3      4      5      6
 Harmonic frequencies (cm**-1), IR intensities (KM/Mole), Raman scattering
 activities (A**4/AMU), depolarization ratios for plane and unpolarized
 incident light, reduced masses (AMU), force constants (mDyne/A),
 and normal coordinates:
                           1         2         3         4         5
                           A         A         A         A         A
       Frequencies ---   306.2412  452.9753  584.4605  594.5979  881.3506
    Reduced masses ---    27.3361   20.7729   19.6372   12.7643   12.9248
   Force constants ---     1.5105    2.5113    3.9522    2.6589    5.9152
    IR Intensities ---     0.1429    0.0065   16.1136    5.5708  441.3809
 Coord Atom Element:
   1     1     8          0.00000   0.00000  -0.00008   0.31919   0.00000
   2     1     8          0.00000   0.86498   0.00002   0.00000  -0.19139
   3     1     8          0.43162  -0.00001   0.61990   0.00010   0.00002
   1     2     6          0.00000   0.00000   0.00024  -0.93945   0.00000
   2     2     6          0.00000   0.00079  -0.00003   0.00000   0.96409
   3     2     6          0.42239  -0.00001   0.59165   0.00010   0.00001
   1     3    17          0.00000   0.00000  -0.00002   0.08819   0.00000
   2     3    17          0.53697  -0.19795  -0.27137  -0.00004  -0.12166
   3     3    17         -0.17119  -0.29448  -0.24329  -0.00004  -0.04635
   1     4    17          0.00000   0.00000  -0.00002   0.08819   0.00000
   2     4    17         -0.53697  -0.19796   0.27137   0.00004  -0.12165
   3     4    17         -0.17119   0.29449  -0.24329  -0.00004   0.04634
                           6
                           A
       Frequencies ---  1868.5243
    Reduced masses ---    13.3874
   Force constants ---    27.5387
    IR Intensities ---   318.1618
 Coord Atom Element:
   1     1     8          0.00000
   2     1     8          0.00000
   3     1     8         -0.58912
   1     2     6          0.00000
   2     2     6          0.00000
   3     2     6          0.80802
   1     3    17          0.00000
   2     3    17         -0.00201
   3     3    17         -0.00391
   1     4    17          0.00000
   2     4    17          0.00200
   3     4    17         -0.00391
 Harmonic frequencies (cm**-1), IR intensities (KM/Mole), Raman scattering
 activities (A**4/AMU), depolarization ratios for plane and unpolarized
 incident light, reduced masses (AMU), force constants (mDyne/A),
 and normal coordinates:
                     1                      2                      3
                     A                      A                      A
 Frequencies --   306.2412               452.9753               584.4605
 Red. masses --    27.3361                20.7729                19.6372
 Frc consts  --     1.5105                 2.5113                 3.9522
 IR Inten    --     0.1429                 0.0065                16.1136
  Atom  AN      X      Y      Z        X      Y      Z        X      Y      Z
     1   8     0.00   0.00   0.43     0.00   0.86   0.00     0.00   0.00   0.62
     2   6     0.00   0.00   0.42     0.00   0.00   0.00     0.00   0.00   0.59
     3  17     0.00   0.54  -0.17     0.00  -0.20  -0.29     0.00  -0.27  -0.24
     4  17     0.00  -0.54  -0.17     0.00  -0.20   0.29     0.00   0.27  -0.24
                     4                      5                      6
                     A                      A                      A
 Frequencies --   594.5979               881.3506              1868.5243
 Red. masses --    12.7643                12.9248                13.3874
 Frc consts  --     2.6589                 5.9152                27.5387
 IR Inten    --     5.5708               441.3809               318.1618
  Atom  AN      X      Y      Z        X      Y      Z        X      Y      Z
     1   8     0.32   0.00   0.00     0.00  -0.19   0.00     0.00   0.00  -0.59
     2   6    -0.94   0.00   0.00     0.00   0.96   0.00     0.00   0.00   0.81
     3  17     0.09   0.00   0.00     0.00  -0.12  -0.05     0.00   0.00   0.00
     4  17     0.09   0.00   0.00     0.00  -0.12   0.05     0.00   0.00   0.00

 -------------------
 - Thermochemistry -
 -------------------
 Temperature   298.150 Kelvin.  Pressure   1.00000 Atm.
 Atom     1 has atomic number  8 and mass  15.99491
 Atom     2 has atomic number  6 and mass  12.00000
 Atom     3 has atomic number 17 and mass  34.96885
 Atom     4 has atomic number 17 and mass  34.96885
 Molecular mass:    97.93262 amu.
 Principal axes and moments of inertia in atomic units:
                           1         2         3
     Eigenvalues --   227.93084 522.83920 750.77004
           X            0.00000   0.00000   1.00000
           Y            1.00000   0.00000   0.00000
           Z            0.00000   1.00000   0.00000
 This molecule is an asymmetric top.
 Rotational symmetry number  2.
 Rotational temperatures (Kelvin)      0.38000     0.16566     0.11537
 Rotational constants (GHZ):           7.91793     3.45181     2.40385
 Zero-point vibrational energy      28041.4 (Joules/Mol)
                                    6.70205 (Kcal/Mol)
 Warning -- explicit consideration of   4 degrees of freedom as
           vibrations may cause significant error
 Vibrational temperatures:    440.61   651.73   840.91   855.49  1268.07
          (Kelvin)           2688.39
 
 Zero-point correction=                           0.010680 (Hartree/Particle)
 Thermal correction to Energy=                    0.014577
 Thermal correction to Enthalpy=                  0.015521
 Thermal correction to Gibbs Free Energy=        -0.016565
 Sum of electronic and zero-point Energies=          -1032.594923
 Sum of electronic and thermal Energies=             -1032.591026
 Sum of electronic and thermal Enthalpies=           -1032.590082
 Sum of electronic and thermal Free Energies=        -1032.622169
 
                     E (Thermal)             CV                S
                      KCal/Mol        Cal/Mol-Kelvin    Cal/Mol-Kelvin
 Total                    9.147             11.632             67.532
 Electronic               0.000              0.000              0.000
 Translational            0.889              2.981             39.656
 Rotational               0.889              2.981             24.618
 Vibrational              7.370              5.670              3.258
 Vibration     1          0.697              1.662              1.383
 Vibration     2          0.812              1.354              0.787
 Vibration     3          0.941              1.065              0.477
 Vibration     4          0.952              1.043              0.459
                       Q            Log10(Q)             Ln(Q)
 Total Bot       0.416314D+08          7.619421         17.544364
 Total V=0       0.340447D+13         12.532049         28.856109
 Vib (Bot)       0.204136D-04         -4.690081        -10.799311
 Vib (Bot)    1  0.618805D+00         -0.208446         -0.479965
 Vib (Bot)    2  0.377664D+00         -0.422894         -0.973750
 Vib (Bot)    3  0.259557D+00         -0.585767         -1.348779
 Vib (Bot)    4  0.252522D+00         -0.597701         -1.376258
 Vib (V=0)       0.166935D+01          0.222547          0.512434
 Vib (V=0)    1  0.129556D+01          0.112458          0.258945
 Vib (V=0)    2  0.112660D+01          0.051771          0.119206
 Vib (V=0)    3  0.106336D+01          0.026679          0.061430
 Vib (V=0)    4  0.106015D+01          0.025367          0.058410
 Electronic      0.100000D+01          0.000000          0.000000
 Translational   0.380931D+08          7.580846         17.455544
 Rotational      0.535372D+05          4.728655         10.888132
 -------------------------------------------------------------------
 Center     Atomic                   Forces (Hartrees/Bohr)
 Number     Number              X              Y              Z
 -------------------------------------------------------------------
      1        8           0.000000000    0.000000000   -0.000136021
      2        6           0.000000000    0.000000000    0.000438158
      3       17           0.000000000   -0.000359863   -0.000151068
      4       17           0.000000000    0.000359863   -0.000151068
 -------------------------------------------------------------------
 Cartesian Forces:  Max     0.000438158 RMS     0.000207189
 Z-matrix is all fixed cartesians, so copy forces.
 Force constants in Cartesian coordinates: 
                1             2             3             4             5 
      1  0.273935D-01
      2  0.000000D+00  0.928868D-01
      3 -0.637746D-05  0.000000D+00  0.947241D+00
      4 -0.604575D-01  0.000000D+00  0.000000D+00  0.133149D+00
      5  0.000000D+00 -0.805209D-01  0.000000D+00  0.000000D+00  0.304404D+00
      6  0.219761D-04  0.174849D-05 -0.850851D+00  0.409069D-05  0.696747D-05
      7  0.165202D-01  0.000000D+00 -0.374306D-05 -0.363568D-01  0.000000D+00
      8 -0.621835D-05 -0.618347D-02 -0.385879D-01 -0.144664D-05 -0.111945D+00
      9 -0.779933D-05 -0.419639D-01 -0.481956D-01 -0.166535D-05 -0.427327D-01
     10  0.165202D-01  0.000000D+00 -0.405351D-05 -0.363568D-01  0.000000D+00
     11  0.621868D-05 -0.618233D-02  0.385866D-01  0.144622D-05 -0.111939D+00
     12 -0.779920D-05  0.419625D-01 -0.481965D-01 -0.166502D-05  0.427258D-01
                6             7             8             9            10 
      6  0.964428D+00
      7  0.197297D-05  0.986833D-02
      8 -0.387017D-01  0.128296D-05  0.164169D+00
      9 -0.567593D-01  0.000000D+00  0.809978D-01  0.980343D-01
     10  0.242959D-05  0.999096D-02  0.117352D-05  0.000000D+00  0.986833D-02
     11  0.387036D-01 -0.130430D-05 -0.460435D-01  0.369150D-02 -0.115227D-05
     12 -0.567576D-01  0.000000D+00 -0.369229D-02  0.689145D-02  0.000000D+00
               11            12 
     11  0.164170D+00
     12 -0.809977D-01  0.980336D-01
 Final forces over variables, Energy=-1.03260560D+03:
  3.76713626D-14-4.88818687D-14 3.02101076D-14-1.89996015D-14
  1.79650190D-13-5.07140716D-13-3.59862575D-04 3.59862575D-04
 -1.36021415D-04 4.38158114D-04-1.51068350D-04-1.51068350D-04

 GradGradGradGradGradGradGradGradGradGradGradGradGradGradGradGradGradGrad
 Berny optimization.
 Search for a local minimum.
 Step number   1 out of a maximum of    2
 All quantities printed in internal units (Hartrees-Bohrs-Radians)
 Second derivative matrix not updated -- analytic derivatives used.
 The second derivative matrix:
                          X1        Y1        Z1        X2        Y2
           X1           0.02739
           Y1           0.00000   0.09289
           Z1          -0.00001   0.00000   0.94724
           X2          -0.06046   0.00000   0.00000   0.13315
           Y2           0.00000  -0.08052   0.00000   0.00000   0.30440
           Z2           0.00002   0.00000  -0.85085   0.00000   0.00001
           X3           0.01652   0.00000   0.00000  -0.03636   0.00000
           Y3          -0.00001  -0.00618  -0.03859   0.00000  -0.11195
           Z3          -0.00001  -0.04196  -0.04820   0.00000  -0.04273
           X4           0.01652   0.00000   0.00000  -0.03636   0.00000
           Y4           0.00001  -0.00618   0.03859   0.00000  -0.11194
           Z4          -0.00001   0.04196  -0.04820   0.00000   0.04273
                          Z2        X3        Y3        Z3        X4
           Z2           0.96443
           X3           0.00000   0.00987
           Y3          -0.03870   0.00000   0.16417
           Z3          -0.05676   0.00000   0.08100   0.09803
           X4           0.00000   0.00999   0.00000   0.00000   0.00987
           Y4           0.03870   0.00000  -0.04604   0.00369   0.00000
           Z4          -0.05676   0.00000  -0.00369   0.00689   0.00000
                          Y4        Z4
           Y4           0.16417
           Z4          -0.08100   0.09803
 ITU=  0
     Eigenvalues ---    0.09832   0.17404   0.17709   0.31210   0.41541
     Eigenvalues ---    1.80386
 Angle between quadratic step and forces=  37.10 degrees.
 Linear search not attempted -- first point.
 TrRot=  0.000000  0.000000 -0.000029  0.000000  0.000000  0.000000
 Variable       Old X    -DE/DX   Delta X   Delta X   Delta X     New X
                                 (Linear)    (Quad)   (Total)
    X1        0.00000   0.00000   0.00000   0.00000   0.00000   0.00000
    Y1        0.00000   0.00000   0.00000   0.00000   0.00000   0.00000
    Z1        1.29143  -0.00014   0.00000  -0.00001  -0.00004   1.29139
    X2        0.00000   0.00000   0.00000   0.00000   0.00000   0.00000
    Y2        0.00000   0.00000   0.00000   0.00000   0.00000   0.00000
    Z2       -0.93482   0.00044   0.00000   0.00030   0.00027  -0.93455
    X3        0.00000   0.00000   0.00000   0.00000   0.00000   0.00000
    Y3       -2.73419  -0.00036   0.00000  -0.00163  -0.00163  -2.73582
    Z3       -2.77753  -0.00015   0.00000  -0.00008  -0.00011  -2.77764
    X4        0.00000   0.00000   0.00000   0.00000   0.00000   0.00000
    Y4        2.73419   0.00036   0.00000   0.00163   0.00163   2.73582
    Z4       -2.77753  -0.00015   0.00000  -0.00008  -0.00011  -2.77764
         Item               Value     Threshold  Converged?
 Maximum Force            0.000438     0.000450     YES
 RMS     Force            0.000207     0.000300     YES
 Maximum Displacement     0.001628     0.001800     YES
 RMS     Displacement     0.000671     0.001200     YES
 Predicted change in Energy=-6.655551D-07
 Optimization completed.
    -- Stationary point found.
 GradGradGradGradGradGradGradGradGradGradGradGradGradGradGradGradGradGrad


 Test job not archived.
 1\1\GINC-TRAPISTA\Freq\RQCISD-FC\Aug-CC-pVTZ\C1Cl2O1\BRUNS\17-Nov-2021
 \0\\#freq=noraman qcisd/aug-cc-pvtz density=current iop(7/33=1) nosym 
 formcheck=forcecart\\cl2co-frequencies\\0,1\O,0.,0.,0.683397\C,0.,0.,-
 0.494687\Cl,0.,-1.44687,-1.469805\Cl,0.,1.44687,-1.469805\\Version=EM6
 4L-G09RevB.01\HF=-1031.8027433\MP2=-1032.582152\MP3=-1032.6012068\MP4D
 =-1032.620873\MP4DQ=-1032.5983527\MP4SDQ=-1032.6073345\QCISD=-1032.605
 6034\RMSD=4.652e-09\RMSF=2.072e-04\ZeroPoint=0.0106804\Thermal=0.01457
 73\Dipole=0.,0.,-0.4875654\DipoleDeriv=-0.2168432,0.,-0.0002648,0.,-0.
 6137531,-0.000026,0.,0.,-1.1995716,0.2140466,0.,-0.0000564,0.,2.157909
 9,-0.0001002,0.,0.,1.7081723,0.0012847,0.,-0.0000016,0.,-0.771987,-0.3
 29751,0.,-0.3595178,-0.2542656,0.0012847,0.,-0.0000115,0.,-0.7719873,0
 .3297276,0.,0.3595178,-0.2542878\Quadrupole=0.1236238,0.6450403,-0.768
 6641,0.,0.,0.\QuadrupoleDeriv=0.0002369,-0.0003172,0.0000803,0.,-0.805
 0308,0.,0.0000162,-0.0000217,0.0000054,0.,0.,1.3650258,-1.5068099,1.16
 48775,0.3419324,0.,0.,0.,0.0000569,-0.0000649,0.000008,0.,0.5597901,0.
 ,0.0001815,-0.0001839,0.0000023,0.,0.,-6.3364662,2.0417544,-2.3368829,
 0.2951285,0.,0.,0.,-0.0001644,0.0001201,0.0000444,-0.0956478,-0.120918
 9,-0.000001,0.0135272,-0.4600364,0.4465092,0.,0.,2.2417511,-0.104862,0
 .7485208,-0.6436589,0.,0.,0.6131693,-0.0001708,0.0001278,0.0000431,0.0
 956478,-0.1209189,0.000001,-0.0135584,0.4600603,-0.4465019,0.,0.,2.241
 7524,-0.1048936,0.7485453,-0.6436517,0.,0.,-0.6131693\PG=C02V [C2(C1O1
 ),SGV(Cl2)]\NImag=0\\0.02739348,0.,0.09288683,-0.00000638,-0.00000031,
 0.94724148,-0.06045753,0.,-0.00000076,0.13314934,0.,-0.08052094,-0.000
 00007,0.,0.30440351,0.00002198,0.00000175,-0.85085123,0.00000409,0.000
 00697,0.96442829,0.01652023,0.,-0.00000374,-0.03635681,0.00000002,0.00
 000197,0.00986833,-0.00000622,-0.00618347,-0.03858787,-0.00000145,-0.1
 1194537,-0.03870166,0.00000128,0.16416940,-0.00000780,-0.04196394,-0.0
 4819560,-0.00000167,-0.04273268,-0.05675925,0.00000088,0.08099785,0.09
 803426,0.01652023,0.,-0.00000405,-0.03635681,-0.00000002,0.00000243,0.
 00999096,0.00000117,0.00000082,0.00986833,0.00000622,-0.00618233,0.038
 58662,0.00000145,-0.11193940,0.03870360,-0.00000130,-0.04604352,0.0036
 9150,-0.00000115,0.16417032,-0.00000780,0.04196249,-0.04819652,-0.0000
 0167,0.04272579,-0.05675763,0.00000089,-0.00369229,0.00689145,0.000000
 81,-0.08099774,0.09803356\\0.,0.,0.00013602,0.,0.,-0.00043816,0.,0.000
 35986,0.00015107,0.,-0.00035986,0.00015107\\\@


 CHARLIE BROWN -- WHICH DO YOU THINK LASTS LONGER IN LIFE, THE GOOD THINGS 
                  OR THE BAD THINGS?
 LINUS --         GOOD THINGS LAST EIGHT SECONDS ..
                  BAD THINGS LAST THREE WEEKS
 CHARLIE BROWN -- WHAT ABOUT IN BETWEEN?
 SNOOPY --        IN BETWEEN YOU SHOULD TAKE A NAP ...
 Job cpu time:  2 days 10 hours 31 minutes 35.7 seconds.
 File lengths (MBytes):  RWF=  18183 Int=      0 D2E=      0 Chk=     43 Scr=      1
 Normal termination of Gaussian 09 at Wed Nov 17 20:54:10 2021.
