 Entering Gaussian System, Link 0=/home/wagner/chemistry/gaussian/g16/g16
 Input=GAUSSIAN.com
 Output=GAUSSIAN.log
 Initial command:
 /home/wagner/chemistry/gaussian/g16/l1.exe "/home/wagner/chemistry/gaussian/work/Gau-68871.inp" -scrdir="/home/wagner/chemistry/gaussian/work/"
 Entering Link 1 = /home/wagner/chemistry/gaussian/g16/l1.exe PID=     68873.
  
 Copyright (c) 1988-2019, Gaussian, Inc.  All Rights Reserved.
  
 This is part of the Gaussian(R) 16 program.  It is based on
 the Gaussian(R) 09 system (copyright 2009, Gaussian, Inc.),
 the Gaussian(R) 03 system (copyright 2003, Gaussian, Inc.),
 the Gaussian(R) 98 system (copyright 1998, Gaussian, Inc.),
 the Gaussian(R) 94 system (copyright 1995, Gaussian, Inc.),
 the Gaussian 92(TM) system (copyright 1992, Gaussian, Inc.),
 the Gaussian 90(TM) system (copyright 1990, Gaussian, Inc.),
 the Gaussian 88(TM) system (copyright 1988, Gaussian, Inc.),
 the Gaussian 86(TM) system (copyright 1986, Carnegie Mellon
 University), and the Gaussian 82(TM) system (copyright 1983,
 Carnegie Mellon University). Gaussian is a federally registered
 trademark of Gaussian, Inc.
  
 This software contains proprietary and confidential information,
 including trade secrets, belonging to Gaussian, Inc.
  
 This software is provided under written license and may be
 used, copied, transmitted, or stored only in accord with that
 written license.
  
 The following legend is applicable only to US Government
 contracts under FAR:
  
                    RESTRICTED RIGHTS LEGEND
  
 Use, reproduction and disclosure by the US Government is
 subject to restrictions as set forth in subparagraphs (a)
 and (c) of the Commercial Computer Software - Restricted
 Rights clause in FAR 52.227-19.
  
 Gaussian, Inc.
 340 Quinnipiac St., Bldg. 40, Wallingford CT 06492
  
  
 ---------------------------------------------------------------
 Warning -- This program may not be used in any manner that
 competes with the business of Gaussian, Inc. or will provide
 assistance to any competitor of Gaussian, Inc.  The licensee
 of this program is prohibited from giving any competitor of
 Gaussian, Inc. access to this program.  By using this program,
 the user acknowledges that Gaussian, Inc. is engaged in the
 business of creating and licensing software in the field of
 computational chemistry and represents and warrants to the
 licensee that it is not a competitor of Gaussian, Inc. and that
 it will not use this program in any manner prohibited above.
 ---------------------------------------------------------------
  

 Cite this work as:
 Gaussian 16, Revision C.01,
 M. J. Frisch, G. W. Trucks, H. B. Schlegel, G. E. Scuseria, 
 M. A. Robb, J. R. Cheeseman, G. Scalmani, V. Barone, 
 G. A. Petersson, H. Nakatsuji, X. Li, M. Caricato, A. V. Marenich, 
 J. Bloino, B. G. Janesko, R. Gomperts, B. Mennucci, H. P. Hratchian, 
 J. V. Ortiz, A. F. Izmaylov, J. L. Sonnenberg, D. Williams-Young, 
 F. Ding, F. Lipparini, F. Egidi, J. Goings, B. Peng, A. Petrone, 
 T. Henderson, D. Ranasinghe, V. G. Zakrzewski, J. Gao, N. Rega, 
 G. Zheng, W. Liang, M. Hada, M. Ehara, K. Toyota, R. Fukuda, 
 J. Hasegawa, M. Ishida, T. Nakajima, Y. Honda, O. Kitao, H. Nakai, 
 T. Vreven, K. Throssell, J. A. Montgomery, Jr., J. E. Peralta, 
 F. Ogliaro, M. J. Bearpark, J. J. Heyd, E. N. Brothers, K. N. Kudin, 
 V. N. Staroverov, T. A. Keith, R. Kobayashi, J. Normand, 
 K. Raghavachari, A. P. Rendell, J. C. Burant, S. S. Iyengar, 
 J. Tomasi, M. Cossi, J. M. Millam, M. Klene, C. Adamo, R. Cammi, 
 J. W. Ochterski, R. L. Martin, K. Morokuma, O. Farkas, 
 J. B. Foresman, and D. J. Fox, Gaussian, Inc., Wallingford CT, 2019.
 
 ******************************************
 Gaussian 16:  EM64L-G16RevC.01  3-Jul-2019
                 2-Sep-2022 
 ******************************************
 %nproc=16
 Will use up to   16 processors via shared memory.
 %mem=16GB
 ----------------------------------------------------------------------
 # qcisd/aug-cc-pvtz nosymm density=current pop=(chelpg,hirshfeld,npa,d
 ipole)
 ----------------------------------------------------------------------
 1/30=1,38=1,172=1/1;
 2/12=2,15=1,17=6,18=5,40=1/2;
 3/5=16,6=1,7=10,11=9,25=1,30=1,71=1/1,2,3;
 4//1;
 5/5=2,38=5/2;
 8/6=4,9=120000,10=1/1,4;
 9/5=8,15=1/13;
 11/28=-7,31=1,32=3,42=3/11;
 10/5=6,13=10,31=1/2;
 6/7=2,8=2,9=2,10=2,15=24,20=3,22=-1,40=-1,79=1/1,2,7;
 99/5=1,9=1/99;
 -----------------
 h2co-wavefunction
 -----------------
 Symbolic Z-matrix:
 Charge =  0 Multiplicity = 1
 O                     0.        0.        0.67925 
 C                     0.        0.       -0.52691 
 H                     0.        0.93661  -1.10662 
 H                     0.       -0.94661  -1.10662 
 
                          Input orientation:                          
 ---------------------------------------------------------------------
 Center     Atomic      Atomic             Coordinates (Angstroms)
 Number     Number       Type             X           Y           Z
 ---------------------------------------------------------------------
      1          8           0        0.000000    0.000000    0.679252
      2          6           0        0.000000    0.000000   -0.526911
      3          1           0        0.000000    0.936614   -1.106620
      4          1           0        0.000000   -0.946614   -1.106620
 ---------------------------------------------------------------------
                    Distance matrix (angstroms):
                    1          2          3          4
     1  O    0.000000
     2  C    1.206163   0.000000
     3  H    2.016577   1.101503   0.000000
     4  H    2.021241   1.110018   1.883228   0.000000
 Symmetry turned off by external request.
 Stoichiometry    CH2O
 Framework group  CS[SG(CH2O)]
 Deg. of freedom     5
 Full point group                 CS      NOp   2
 Rotational constants (GHZ):         282.7794903          38.8698446          34.1726024
 Standard basis: Aug-CC-pVTZ (5D, 7F)
   138 basis functions,   198 primitive gaussians,   160 cartesian basis functions
     8 alpha electrons        8 beta electrons
       nuclear repulsion energy        31.2765539685 Hartrees.
 NAtoms=    4 NActive=    4 NUniq=    4 SFac= 1.00D+00 NAtFMM=   60 NAOKFM=F Big=F
 Integral buffers will be    131072 words long.
 Raffenetti 1 integral format.
 Two-electron integral symmetry is turned off.
 One-electron integrals computed using PRISM.
 NBasis=   138 RedAO= T EigKep=  8.63D-05  NBF=   138
 NBsUse=   138 1.00D-06 EigRej= -1.00D+00 NBFU=   138
 ExpMin= 2.53D-02 ExpMax= 1.53D+04 ExpMxC= 5.22D+02 IAcc=3 IRadAn=         5 AccDes= 0.00D+00
 Harris functional with IExCor=  205 and IRadAn=       5 diagonalized for initial guess.
 HarFok:  IExCor=  205 AccDes= 0.00D+00 IRadAn=         5 IDoV= 1 UseB2=F ITyADJ=14
 ICtDFT=  3500011 ScaDFX=  1.000000  1.000000  1.000000  1.000000
 FoFCou: FMM=F IPFlag=           0 FMFlag=      100000 FMFlg1=           0
         NFxFlg=           0 DoJE=T BraDBF=F KetDBF=T FulRan=T
         wScrn=  0.000000 ICntrl=       500 IOpCl=  0 I1Cent=   200000004 NGrid=           0
         NMat0=    1 NMatS0=      1 NMatT0=    0 NMatD0=    1 NMtDS0=    0 NMtDT0=    0
 Symmetry not used in FoFCou.
 Keep R1 ints in memory in canonical form, NReq=53861992.
 Requested convergence on RMS density matrix=1.00D-08 within 128 cycles.
 Requested convergence on MAX density matrix=1.00D-06.
 Requested convergence on             energy=1.00D-06.
 No special actions if energy rises.
 SCF Done:  E(RHF) =  -113.913661883     A.U. after   11 cycles
            NFock= 11  Conv=0.29D-08     -V/T= 2.0019
 ExpMin= 2.53D-02 ExpMax= 1.53D+04 ExpMxC= 5.22D+02 IAcc=3 IRadAn=         5 AccDes= 0.00D+00
 HarFok:  IExCor=  205 AccDes= 0.00D+00 IRadAn=         5 IDoV=-2 UseB2=F ITyADJ=14
 ICtDFT= 12500011 ScaDFX=  1.000000  1.000000  1.000000  1.000000
 Range of M.O.s used for correlation:     3   138
 NBasis=   138 NAE=     8 NBE=     8 NFC=     2 NFV=     0
 NROrb=    136 NOA=     6 NOB=     6 NVA=   130 NVB=   130

 **** Warning!!: The largest alpha MO coefficient is  0.33616534D+02

 Semi-Direct transformation.
 ModeAB=           2 MOrb=             6 LenV=    2146847475
 LASXX=      7286295 LTotXX=     7286295 LenRXX=     7286295
 LTotAB=     7445736 MaxLAS=    10510080 LenRXY=    10510080
 NonZer=    14572590 LenScr=    22628352 LnRSAI=           0
 LnScr1=           0 LExtra=           0 Total=     40424727
 MaxDsk=          -1 SrtSym=           F ITran=            4
 JobTyp=0 Pass  1:  I=   1 to   6.
 (rs|ai) integrals will be sorted in core.
 Spin components of T(2) and E(2):
     alpha-alpha T2 =       0.1377502880D-01 E2=     -0.4805446049D-01
     alpha-beta  T2 =       0.8518658444D-01 E2=     -0.3065213459D+00
     beta-beta   T2 =       0.1377502880D-01 E2=     -0.4805446049D-01
 ANorm=    0.1054863329D+01
 E2 =    -0.4026302668D+00 EUMP2 =    -0.11431629214981D+03
 Keep R2 and R3 ints in memory in canonical form, NReq=99865420.
 CIDS: In Core Option IDoMem=           1.
 Iterations=  50 Convergence= 0.100D-07
 Produce multiple copies of IABC intergrals
 Iteration Nr.   1
 **********************
 DD1Dir will call FoFMem   1 times, MxPair=        42
 NAB=    21 NAA=     0 NBB=     0.
 MP4(R+Q)=  0.88833885D-02
 E3=       -0.40004864D-02        EUMP3=      -0.11432029264D+03
 E4(DQ)=   -0.13625128D-02        UMP4(DQ)=   -0.11432165515D+03
 E4(SDQ)=  -0.66369419D-02        UMP4(SDQ)=  -0.11432692958D+03
 DE(Corr)= -0.39774736     E(Corr)=     -114.31140925    
 NORM(A)=   0.10555688D+01
 Iteration Nr.   2
 **********************
 DD1Dir will call FoFMem   1 times, MxPair=        42
 NAB=    21 NAA=     0 NBB=     0.
 DE(Corr)= -0.41172088     E(CORR)=     -114.32538276     Delta=-1.40D-02
 NORM(A)=   0.10616414D+01
 Iteration Nr.   3
 **********************
 DD1Dir will call FoFMem   1 times, MxPair=        42
 NAB=    21 NAA=     0 NBB=     0.
 DE(Corr)= -0.41164743     E(CORR)=     -114.32530932     Delta= 7.34D-05
 NORM(A)=   0.10635342D+01
 Iteration Nr.   4
 **********************
 DD1Dir will call FoFMem   1 times, MxPair=        42
 NAB=    21 NAA=     0 NBB=     0.
 DE(Corr)= -0.41305902     E(CORR)=     -114.32672091     Delta=-1.41D-03
 NORM(A)=   0.10642149D+01
 Iteration Nr.   5
 **********************
 DD1Dir will call FoFMem   1 times, MxPair=        42
 NAB=    21 NAA=     0 NBB=     0.
 DE(Corr)= -0.41324708     E(CORR)=     -114.32690897     Delta=-1.88D-04
 NORM(A)=   0.10644303D+01
 Iteration Nr.   6
 **********************
 DD1Dir will call FoFMem   1 times, MxPair=        42
 NAB=    21 NAA=     0 NBB=     0.
 DE(Corr)= -0.41327311     E(CORR)=     -114.32693499     Delta=-2.60D-05
 NORM(A)=   0.10644558D+01
 Iteration Nr.   7
 **********************
 DD1Dir will call FoFMem   1 times, MxPair=        42
 NAB=    21 NAA=     0 NBB=     0.
 DE(Corr)= -0.41327433     E(CORR)=     -114.32693622     Delta=-1.23D-06
 NORM(A)=   0.10644569D+01
 Iteration Nr.   8
 **********************
 DD1Dir will call FoFMem   1 times, MxPair=        42
 NAB=    21 NAA=     0 NBB=     0.
 DE(Corr)= -0.41327347     E(CORR)=     -114.32693535     Delta= 8.67D-07
 NORM(A)=   0.10644597D+01
 Iteration Nr.   9
 **********************
 DD1Dir will call FoFMem   1 times, MxPair=        42
 NAB=    21 NAA=     0 NBB=     0.
 DE(Corr)= -0.41327234     E(CORR)=     -114.32693422     Delta= 1.13D-06
 NORM(A)=   0.10644600D+01
 Iteration Nr.  10
 **********************
 DD1Dir will call FoFMem   1 times, MxPair=        42
 NAB=    21 NAA=     0 NBB=     0.
 DE(Corr)= -0.41327297     E(CORR)=     -114.32693485     Delta=-6.24D-07
 NORM(A)=   0.10644606D+01
 Iteration Nr.  11
 **********************
 DD1Dir will call FoFMem   1 times, MxPair=        42
 NAB=    21 NAA=     0 NBB=     0.
 DE(Corr)= -0.41327310     E(CORR)=     -114.32693498     Delta=-1.31D-07
 NORM(A)=   0.10644610D+01
 Iteration Nr.  12
 **********************
 DD1Dir will call FoFMem   1 times, MxPair=        42
 NAB=    21 NAA=     0 NBB=     0.
 DE(Corr)= -0.41327325     E(CORR)=     -114.32693513     Delta=-1.56D-07
 NORM(A)=   0.10644612D+01
 Iteration Nr.  13
 **********************
 DD1Dir will call FoFMem   1 times, MxPair=        42
 NAB=    21 NAA=     0 NBB=     0.
 DE(Corr)= -0.41327331     E(CORR)=     -114.32693520     Delta=-6.10D-08
 NORM(A)=   0.10644613D+01
 Iteration Nr.  14
 **********************
 DD1Dir will call FoFMem   1 times, MxPair=        42
 NAB=    21 NAA=     0 NBB=     0.
 DE(Corr)= -0.41327334     E(CORR)=     -114.32693523     Delta=-3.16D-08
 NORM(A)=   0.10644613D+01
 Iteration Nr.  15
 **********************
 DD1Dir will call FoFMem   1 times, MxPair=        42
 NAB=    21 NAA=     0 NBB=     0.
 DE(Corr)= -0.41327335     E(CORR)=     -114.32693523     Delta=-4.85D-09
 NORM(A)=   0.10644613D+01
 Wavefunction amplitudes converged. E(Corr)=     -114.32693523    
 Largest amplitude= 6.44D-02

 Z-amplitude iterations

 Iteration Nr.   1
 **********************
 DD1Dir will call FoFMem   1 times, MxPair=        42
 NAB=    21 NAA=     0 NBB=     0.
 DE(Z)= -0.40122050     E(Z)=     -114.31488239     Delta= 1.21D-02
 NORM(A)=   0.10644608D+01
 Iteration Nr.   2
 **********************
 DD1Dir will call FoFMem   1 times, MxPair=        42
 NAB=    21 NAA=     0 NBB=     0.
 DE(Z)= -0.40122047     E(Z)=     -114.31488235     Delta= 3.16D-08
 NORM(A)=   0.10644608D+01
 Iteration Nr.   3
 **********************
 DD1Dir will call FoFMem   1 times, MxPair=        42
 NAB=    21 NAA=     0 NBB=     0.
 DE(Z)= -0.40122048     E(Z)=     -114.31488236     Delta=-5.09D-09
 NORM(A)=   0.10644620D+01
 Iteration Nr.   4
 **********************
 DD1Dir will call FoFMem   1 times, MxPair=        42
 NAB=    21 NAA=     0 NBB=     0.
 DE(Z)= -0.40122054     E(Z)=     -114.31488242     Delta=-6.10D-08
 NORM(A)=   0.10644570D+01
 Iteration Nr.   5
 **********************
 DD1Dir will call FoFMem   1 times, MxPair=        42
 NAB=    21 NAA=     0 NBB=     0.
 DE(Z)= -0.40122028     E(Z)=     -114.31488217     Delta= 2.53D-07
 NORM(A)=   0.10603793D+01
 Iteration Nr.   6
 **********************
 DD1Dir will call FoFMem   1 times, MxPair=        42
 NAB=    21 NAA=     0 NBB=     0.
 DE(Z)= -0.40100626     E(Z)=     -114.31466814     Delta= 2.14D-04
 NORM(A)=   0.10603700D+01
 Iteration Nr.   7
 **********************
 DD1Dir will call FoFMem   1 times, MxPair=        42
 NAB=    21 NAA=     0 NBB=     0.
 DE(Z)= -0.40100570     E(Z)=     -114.31466758     Delta= 5.63D-07
 NORM(A)=   0.10603678D+01
 Iteration Nr.   8
 **********************
 DD1Dir will call FoFMem   1 times, MxPair=        42
 NAB=    21 NAA=     0 NBB=     0.
 DE(Z)= -0.40100506     E(Z)=     -114.31466694     Delta= 6.42D-07
 NORM(A)=   0.10603675D+01
 Iteration Nr.   9
 **********************
 DD1Dir will call FoFMem   1 times, MxPair=        42
 NAB=    21 NAA=     0 NBB=     0.
 DE(Z)= -0.40100519     E(Z)=     -114.31466707     Delta=-1.30D-07
 NORM(A)=   0.10603676D+01
 Iteration Nr.  10
 **********************
 DD1Dir will call FoFMem   1 times, MxPair=        42
 NAB=    21 NAA=     0 NBB=     0.
 DE(Z)= -0.40100515     E(Z)=     -114.31466703     Delta= 3.65D-08
 NORM(A)=   0.10603677D+01
 Iteration Nr.  11
 **********************
 DD1Dir will call FoFMem   1 times, MxPair=        42
 NAB=    21 NAA=     0 NBB=     0.
 DE(Z)= -0.40100515     E(Z)=     -114.31466703     Delta= 2.26D-09
 NORM(A)=   0.10603677D+01
 Z-amplitudes converged.
 Discarding MO integrals.
          Differentiating once with respect to electric field.
                with respect to dipole field.
          Electric field/nuclear overlap derivatives assumed to be zero.
 Keep R1 ints in memory in canonical form, NReq=53863287.
          There are     1 degrees of freedom in the 1st order CPHF.  IDoFFX=0 NUNeed=     1.
 LinEq1:  Iter=  0 NonCon=     1 RMS=3.55D-03 Max=5.56D-02 NDo=     1
 AX will form     1 AO Fock derivatives at one time.
 LinEq1:  Iter=  1 NonCon=     1 RMS=8.99D-04 Max=8.59D-03 NDo=     1
 LinEq1:  Iter=  2 NonCon=     1 RMS=2.36D-04 Max=3.43D-03 NDo=     1
 LinEq1:  Iter=  3 NonCon=     1 RMS=1.16D-04 Max=1.21D-03 NDo=     1
 LinEq1:  Iter=  4 NonCon=     1 RMS=4.44D-05 Max=5.29D-04 NDo=     1
 LinEq1:  Iter=  5 NonCon=     1 RMS=9.22D-06 Max=8.75D-05 NDo=     1
 LinEq1:  Iter=  6 NonCon=     1 RMS=1.51D-06 Max=1.75D-05 NDo=     1
 LinEq1:  Iter=  7 NonCon=     1 RMS=2.29D-07 Max=1.67D-06 NDo=     1
 LinEq1:  Iter=  8 NonCon=     1 RMS=2.63D-08 Max=2.08D-07 NDo=     1
 LinEq1:  Iter=  9 NonCon=     1 RMS=3.15D-09 Max=2.52D-08 NDo=     1
 LinEq1:  Iter= 10 NonCon=     1 RMS=2.96D-10 Max=2.33D-09 NDo=     1
 LinEq1:  Iter= 11 NonCon=     0 RMS=2.71D-11 Max=2.39D-10 NDo=     1
 Linear equations converged to 1.000D-10 1.000D-09 after    11 iterations.
 End of Minotr F.D. properties file   721 does not exist.
 End of Minotr F.D. properties file   722 does not exist.
 End of Minotr F.D. properties file   788 does not exist.

 **********************************************************************

            Population analysis using the CC Density.

 **********************************************************************

 Alpha  occ. eigenvalues --  -20.57900 -11.34333  -1.40680  -0.86977  -0.69465
 Alpha  occ. eigenvalues --   -0.65212  -0.53730  -0.44347
 Alpha virt. eigenvalues --    0.02629   0.04168   0.06242   0.07646   0.12936
 Alpha virt. eigenvalues --    0.13298   0.13351   0.17414   0.19816   0.21173
 Alpha virt. eigenvalues --    0.21646   0.25391   0.25608   0.28114   0.32060
 Alpha virt. eigenvalues --    0.33767   0.33998   0.35911   0.38710   0.38992
 Alpha virt. eigenvalues --    0.39600   0.41871   0.48119   0.49848   0.56104
 Alpha virt. eigenvalues --    0.56662   0.66826   0.67665   0.72325   0.76325
 Alpha virt. eigenvalues --    0.82014   0.83451   0.84180   0.85729   0.87621
 Alpha virt. eigenvalues --    0.88066   0.92737   0.93417   0.93956   0.98040
 Alpha virt. eigenvalues --    1.00194   1.02031   1.02272   1.03773   1.06852
 Alpha virt. eigenvalues --    1.08212   1.09504   1.10129   1.25734   1.26468
 Alpha virt. eigenvalues --    1.30515   1.36913   1.38909   1.45776   1.47479
 Alpha virt. eigenvalues --    1.51292   1.57030   1.59852   1.62395   1.70630
 Alpha virt. eigenvalues --    1.72966   1.83474   1.96002   2.00519   2.02820
 Alpha virt. eigenvalues --    2.08875   2.17980   2.28704   2.32083   2.34072
 Alpha virt. eigenvalues --    2.34385   2.48914   2.49746   2.56110   2.60599
 Alpha virt. eigenvalues --    2.71535   2.78263   2.81172   2.92105   2.93203
 Alpha virt. eigenvalues --    3.06404   3.07532   3.14378   3.18792   3.40999
 Alpha virt. eigenvalues --    3.44502   3.52836   3.56110   3.62707   3.65819
 Alpha virt. eigenvalues --    3.70199   3.88951   3.94870   4.05427   4.11632
 Alpha virt. eigenvalues --    4.15957   4.16405   4.21580   4.24549   4.35671
 Alpha virt. eigenvalues --    4.57835   4.64506   4.68227   4.76591   5.02535
 Alpha virt. eigenvalues --    5.04874   5.10223   5.15741   5.23554   5.26681
 Alpha virt. eigenvalues --    5.31589   5.37433   5.87597   6.13293   6.23697
 Alpha virt. eigenvalues --    6.49519   6.59818   6.61758   6.91470   6.94806
 Alpha virt. eigenvalues --    7.08983   7.19056   7.20488   7.41331   7.52502
 Alpha virt. eigenvalues --    7.67780   7.72499   7.76876  14.95889  16.30740
          Condensed to atoms (all electrons):
               1          2          3          4
     1  O    8.190458   0.349785  -0.062910  -0.061643
     2  C    0.349785   5.708418   0.206427   0.212752
     3  H   -0.062910   0.206427   0.434204  -0.029718
     4  H   -0.061643   0.212752  -0.029718   0.437534
 Mulliken charges:
               1
     1  O   -0.415691
     2  C   -0.477382
     3  H    0.451998
     4  H    0.441075
 Sum of Mulliken charges =  -0.00000
 Mulliken charges with hydrogens summed into heavy atoms:
               1
     1  O   -0.415691
     2  C    0.415691
 Electronic spatial extent (au):  <R**2>=             60.7142
 Charge=             -0.0000 electrons
 Dipole moment (field-independent basis, Debye):
    X=              0.0000    Y=              0.0076    Z=             -2.4355  Tot=              2.4355
 Quadrupole moment (field-independent basis, Debye-Ang):
   XX=            -11.7481   YY=            -11.6149   ZZ=            -12.2878
   XY=             -0.0000   XZ=              0.0000   YZ=             -0.0129
 Traceless Quadrupole moment (field-independent basis, Debye-Ang):
   XX=              0.1355   YY=              0.2687   ZZ=             -0.4042
   XY=             -0.0000   XZ=              0.0000   YZ=             -0.0129
 Octapole moment (field-independent basis, Debye-Ang**2):
  XXX=              0.0000  YYY=              0.0391  ZZZ=              0.3584  XYY=             -0.0000
  XXY=              0.0198  XXZ=              0.5937  XZZ=              0.0000  YZZ=              0.0312
  YYZ=             -0.7058  XYZ=              0.0000
 Hexadecapole moment (field-independent basis, Debye-Ang**3):
 XXXX=            -10.5346 YYYY=            -18.3379 ZZZZ=            -46.3403 XXXY=             -0.0000
 XXXZ=              0.0000 YYYX=             -0.0000 YYYZ=             -0.0531 ZZZX=              0.0000
 ZZZY=             -0.0833 XXYY=             -5.1809 XXZZ=             -9.4122 YYZZ=            -10.4720
 XXYZ=             -0.0247 YYXZ=              0.0000 ZZXY=             -0.0000
 N-N= 3.127655396848D+01 E-N=-3.312968864975D+02  KE= 1.142201999476D+02
 There are a total of       93160 grid points.
 ElSum from          density=       15.9999998947
 ElSum from atomic densities=       15.9999998069

 Hirshfeld populations at iteration   1 (CX, CA, CB, DipXYZ):
               1          2          3          4          5          6
     1  O    0.000003   4.110948   4.110948   0.000000  -0.000169  -0.109094
     2  C    0.000000   2.933352   2.933352   0.000000   0.001746  -0.096042
     3  H    0.000001   0.477615   0.477615   0.000000   0.114050  -0.075946
     4  H    0.000001   0.478085   0.478085  -0.000000  -0.113471  -0.074284
       Tot   0.000004   8.000000   8.000000   0.000000   0.002156  -0.355366

 Dip from Atomic Chgs              0.000000   0.000833  -0.602834
         Total Dipole              0.000000   0.002989  -0.958200

 Hirshfeld charges, spin densities, dipoles, and CM5 charges using IRadAn=      5:
              Q-H        S-H        Dx         Dy         Dz        Q-CM5   
     1  O   -0.221896   0.000000   0.000000  -0.000169  -0.109094  -0.283109
     2  C    0.133296   0.000000   0.000000   0.001746  -0.096042   0.078267
     3  H    0.044770   0.000000   0.000000   0.114050  -0.075946   0.103445
     4  H    0.043831   0.000000  -0.000000  -0.113471  -0.074284   0.101397
       Tot   0.000000   0.000000   0.000000   0.002156  -0.355366   0.000000
 Hirshfeld charges with hydrogens summed into heavy atoms:
              Q-H       Q-CM5   
     1  O   -0.221896  -0.283109
     2  C    0.221897   0.283109
 
 EQQ= 0.000000000000E+00 EQD= 0.000000000000E+00 EDD= 0.260030759453E-02
 EQQ+QD+DD= 0.260030759453E-02
 
 Breneman (CHELPG) radii used.
 Generate Potential Derived Charges using the Breneman model, NDens= 1.
 Grid spacing= 0.300 Box extension= 2.800
 NStep X,Y,Z=   20     26     26   Total possible points=       13520
 Number of Points to Fit=    4906

 **********************************************************************

            Electrostatic Properties Using The CC Density.

 **********************************************************************

       Atomic Center    1 is at   0.000000  0.000000  0.679252
       Atomic Center    2 is at   0.000000  0.000000 -0.526911
       Atomic Center    3 is at   0.000000  0.936614 -1.106620
       Atomic Center    4 is at   0.000000 -0.946614 -1.106620
    4906 points will be used for fitting atomic charges
 Fitting point charges to electrostatic potential
 The dipole moment will be constrained to the correct value
 Charges from ESP fit, RMS=   0.00234 RRMS=   0.12068:
 ESP charges:
               1
     1  O   -0.425263
     2  C    0.435403
     3  H   -0.004257
     4  H   -0.005883
 Sum of ESP charges =   0.00000
 ESP charges with hydrogens summed into heavy atoms:
               1
     1  O   -0.425263
     2  C    0.425263
 Charge=   0.00000 Dipole=     0.0000     0.0076    -2.4355 Tot=     2.4355
 -----------------------------------------------------------------

              Electrostatic Properties (Atomic Units)

 -----------------------------------------------------------------
    Center     Electric         -------- Electric Field --------
               Potential          X             Y             Z
 -----------------------------------------------------------------
    1 Atom    -22.326086
    2 Atom    -14.663237
    3 Atom     -1.077822
    4 Atom     -1.077827
 -----------------------------------------------------------------
 ******************************Gaussian NBO Version 3.1******************************
             N A T U R A L   A T O M I C   O R B I T A L   A N D
          N A T U R A L   B O N D   O R B I T A L   A N A L Y S I S
 ******************************Gaussian NBO Version 3.1******************************
       /RESON  / : Allow strongly delocalized NBO set

 Analyzing the QCI/CC density

 Job title: h2co-wavefunction                                               

 Storage needed:     57804 in NPA (2147483536 available)
 GSVD:  LWork=       -1756 too small for GESVD, short by       42456 words or       42456 for optimal perf.


 NATURAL POPULATIONS:  Natural atomic orbital occupancies 
                                                          
   NAO  Atom  No  lang   Type(AO)    Occupancy
 --------------------------------------------
     1    O    1  S      Cor( 1S)     1.99960
     2    O    1  S      Val( 2S)     1.70288
     3    O    1  S      Ryd( 3S)     0.01027
     4    O    1  S      Ryd( 4S)     0.00089
     5    O    1  S      Ryd( 5S)     0.00020
     6    O    1  px     Val( 2p)     1.28886
     7    O    1  px     Ryd( 3p)     0.00662
     8    O    1  px     Ryd( 4p)     0.00052
     9    O    1  px     Ryd( 5p)     0.00004
    10    O    1  py     Val( 2p)     1.85333
    11    O    1  py     Ryd( 3p)     0.01603
    12    O    1  py     Ryd( 4p)     0.00080
    13    O    1  py     Ryd( 5p)     0.00008
    14    O    1  pz     Val( 2p)     1.54293
    15    O    1  pz     Ryd( 3p)     0.00670
    16    O    1  pz     Ryd( 4p)     0.00047
    17    O    1  pz     Ryd( 5p)     0.00013
    18    O    1  dxy    Ryd( 3d)     0.00566
    19    O    1  dxy    Ryd( 4d)     0.00046
    20    O    1  dxy    Ryd( 5d)     0.00007
    21    O    1  dxz    Ryd( 3d)     0.00976
    22    O    1  dxz    Ryd( 4d)     0.00033
    23    O    1  dxz    Ryd( 5d)     0.00009
    24    O    1  dyz    Ryd( 3d)     0.00931
    25    O    1  dyz    Ryd( 4d)     0.00045
    26    O    1  dyz    Ryd( 5d)     0.00018
    27    O    1  dx2y2  Ryd( 3d)     0.00554
    28    O    1  dx2y2  Ryd( 4d)     0.00046
    29    O    1  dx2y2  Ryd( 5d)     0.00006
    30    O    1  dz2    Ryd( 3d)     0.01871
    31    O    1  dz2    Ryd( 4d)     0.00039
    32    O    1  dz2    Ryd( 5d)     0.00009
    33    O    1  f(0)   Ryd( 4f)     0.00086
    34    O    1  f(0)   Ryd( 5f)     0.00010
    35    O    1  f(C1)  Ryd( 4f)     0.00051
    36    O    1  f(C1)  Ryd( 5f)     0.00009
    37    O    1  f(S1)  Ryd( 4f)     0.00060
    38    O    1  f(S1)  Ryd( 5f)     0.00014
    39    O    1  f(C2)  Ryd( 4f)     0.00049
    40    O    1  f(C2)  Ryd( 5f)     0.00009
    41    O    1  f(S2)  Ryd( 4f)     0.00050
    42    O    1  f(S2)  Ryd( 5f)     0.00008
    43    O    1  f(C3)  Ryd( 4f)     0.00049
    44    O    1  f(C3)  Ryd( 5f)     0.00006
    45    O    1  f(S3)  Ryd( 4f)     0.00049
    46    O    1  f(S3)  Ryd( 5f)     0.00006

    47    C    2  S      Cor( 1S)     1.99949
    48    C    2  S      Val( 2S)     1.03024
    49    C    2  S      Ryd( 3S)     0.01391
    50    C    2  S      Ryd( 4S)     0.00021
    51    C    2  S      Ryd( 5S)     0.00010
    52    C    2  px     Val( 2p)     0.68925
    53    C    2  px     Ryd( 3p)     0.00354
    54    C    2  px     Ryd( 4p)     0.00018
    55    C    2  px     Ryd( 5p)     0.00008
    56    C    2  py     Val( 2p)     1.07177
    57    C    2  py     Ryd( 3p)     0.00447
    58    C    2  py     Ryd( 4p)     0.00037
    59    C    2  py     Ryd( 5p)     0.00006
    60    C    2  pz     Val( 2p)     0.83699
    61    C    2  pz     Ryd( 3p)     0.01283
    62    C    2  pz     Ryd( 4p)     0.00015
    63    C    2  pz     Ryd( 5p)     0.00010
    64    C    2  dxy    Ryd( 3d)     0.00488
    65    C    2  dxy    Ryd( 5d)     0.00012
    66    C    2  dxy    Ryd( 4d)     0.00013
    67    C    2  dxz    Ryd( 3d)     0.00491
    68    C    2  dxz    Ryd( 4d)     0.00022
    69    C    2  dxz    Ryd( 5d)     0.00015
    70    C    2  dyz    Ryd( 3d)     0.01178
    71    C    2  dyz    Ryd( 4d)     0.00046
    72    C    2  dyz    Ryd( 5d)     0.00036
    73    C    2  dx2y2  Ryd( 3d)     0.00482
    74    C    2  dx2y2  Ryd( 4d)     0.00017
    75    C    2  dx2y2  Ryd( 5d)     0.00006
    76    C    2  dz2    Ryd( 3d)     0.00492
    77    C    2  dz2    Ryd( 4d)     0.00031
    78    C    2  dz2    Ryd( 5d)     0.00010
    79    C    2  f(0)   Ryd( 4f)     0.00041
    80    C    2  f(0)   Ryd( 5f)     0.00010
    81    C    2  f(C1)  Ryd( 4f)     0.00032
    82    C    2  f(C1)  Ryd( 5f)     0.00009
    83    C    2  f(S1)  Ryd( 4f)     0.00049
    84    C    2  f(S1)  Ryd( 5f)     0.00009
    85    C    2  f(C2)  Ryd( 4f)     0.00052
    86    C    2  f(C2)  Ryd( 5f)     0.00011
    87    C    2  f(S2)  Ryd( 4f)     0.00046
    88    C    2  f(S2)  Ryd( 5f)     0.00010
    89    C    2  f(C3)  Ryd( 4f)     0.00038
    90    C    2  f(C3)  Ryd( 5f)     0.00014
    91    C    2  f(S3)  Ryd( 4f)     0.00047
    92    C    2  f(S3)  Ryd( 5f)     0.00011

    93    H    3  S      Val( 1S)     0.89595
    94    H    3  S      Ryd( 2S)     0.00287
    95    H    3  S      Ryd( 3S)     0.00009
    96    H    3  S      Ryd( 4S)     0.00005
    97    H    3  px     Ryd( 2p)     0.00129
    98    H    3  px     Ryd( 3p)     0.00035
    99    H    3  px     Ryd( 4p)     0.00007
   100    H    3  py     Ryd( 2p)     0.00141
   101    H    3  py     Ryd( 3p)     0.00042
   102    H    3  py     Ryd( 4p)     0.00011
   103    H    3  pz     Ryd( 2p)     0.00166
   104    H    3  pz     Ryd( 3p)     0.00040
   105    H    3  pz     Ryd( 4p)     0.00010
   106    H    3  dxy    Ryd( 3d)     0.00007
   107    H    3  dxy    Ryd( 4d)     0.00007
   108    H    3  dxz    Ryd( 3d)     0.00007
   109    H    3  dxz    Ryd( 4d)     0.00005
   110    H    3  dyz    Ryd( 3d)     0.00020
   111    H    3  dyz    Ryd( 4d)     0.00006
   112    H    3  dx2y2  Ryd( 3d)     0.00024
   113    H    3  dx2y2  Ryd( 4d)     0.00007
   114    H    3  dz2    Ryd( 3d)     0.00007
   115    H    3  dz2    Ryd( 4d)     0.00004

   116    H    4  S      Val( 1S)     0.89704
   117    H    4  S      Ryd( 2S)     0.00285
   118    H    4  S      Ryd( 3S)     0.00009
   119    H    4  S      Ryd( 4S)     0.00005
   120    H    4  px     Ryd( 2p)     0.00130
   121    H    4  px     Ryd( 3p)     0.00035
   122    H    4  px     Ryd( 4p)     0.00007
   123    H    4  py     Ryd( 2p)     0.00141
   124    H    4  py     Ryd( 3p)     0.00041
   125    H    4  py     Ryd( 4p)     0.00011
   126    H    4  pz     Ryd( 2p)     0.00168
   127    H    4  pz     Ryd( 3p)     0.00040
   128    H    4  pz     Ryd( 4p)     0.00010
   129    H    4  dxy    Ryd( 3d)     0.00007
   130    H    4  dxy    Ryd( 4d)     0.00007
   131    H    4  dxz    Ryd( 3d)     0.00007
   132    H    4  dxz    Ryd( 4d)     0.00004
   133    H    4  dyz    Ryd( 3d)     0.00020
   134    H    4  dyz    Ryd( 4d)     0.00006
   135    H    4  dx2y2  Ryd( 3d)     0.00025
   136    H    4  dx2y2  Ryd( 4d)     0.00007
   137    H    4  dz2    Ryd( 3d)     0.00007
   138    H    4  dz2    Ryd( 4d)     0.00004


 Summary of Natural Population Analysis:                  
                                                          
                                       Natural Population 
                Natural  -----------------------------------------------
    Atom  No    Charge         Core      Valence    Rydberg      Total
 -----------------------------------------------------------------------
      O    1   -0.48650      1.99960     6.38800    0.09890     8.48650
      C    2    0.29904      1.99949     3.62825    0.07322     5.70096
      H    3    0.09427      0.00000     0.89595    0.00977     0.90573
      H    4    0.09319      0.00000     0.89704    0.00977     0.90681
 =======================================================================
   * Total *    0.00000      3.99909    11.80925    0.19166    16.00000

                                 Natural Population      
 --------------------------------------------------------
   Core                       3.99909 ( 99.9773% of   4)
   Valence                   11.80925 ( 98.4104% of  12)
   Natural Minimal Basis     15.80834 ( 98.8021% of  16)
   Natural Rydberg Basis      0.19166 (  1.1979% of  16)
 --------------------------------------------------------

    Atom  No          Natural Electron Configuration
 ----------------------------------------------------------------------------
      O    1      [core]2S( 1.70)2p( 4.69)3S( 0.01)3p( 0.03)3d( 0.05)
      C    2      [core]2S( 1.03)2p( 2.60)3S( 0.01)3p( 0.02)3d( 0.03)
      H    3            1S( 0.90)
      H    4            1S( 0.90)


 NBO analysis skipped by request.
 Unable to Open any file for archive entry.
 1\1\GINC-TRAPISTA\SP\RQCISD-FC\Aug-CC-pVTZ\C1H2O1\WAGNER\02-Sep-2022\0
 \\# qcisd/aug-cc-pvtz nosymm density=current pop=(chelpg,hirshfeld,npa
 ,dipole)\\h2co-wavefunction\\0,1\O,0,0.,0.,0.679252\C,0,0.,0.,-0.52691
 1\H,0,0.,0.936614,-1.10662\H,0,0.,-0.946614,-1.10662\\Version=EM64L-G1
 6RevC.01\HF=-113.9136619\MP2=-114.3162921\MP3=-114.3202926\MP4D=-114.3
 305385\MP4DQ=-114.3216551\MP4SDQ=-114.3269296\QCISD=-114.3269352\RMSD=
 2.940e-09\Dipole=0.,0.0029893,-0.9582002\Quadrupole=0.1007563,0.199738
 8,-0.3004951,0.,0.,-0.0096274\PG=CS [SG(C1H2O1)]\\@
 The archive entry for this job was punched.


 THERE'S A SUCKER BORN EVERY MINUTE

              -- PHINEAS TAYLOR (P.T.) BARNUM
 Job cpu time:       0 days  1 hours 31 minutes 11.6 seconds.
 Elapsed time:       0 days  0 hours  5 minutes 46.8 seconds.
 File lengths (MBytes):  RWF=   6915 Int=      0 D2E=      0 Chk=      3 Scr=      1
 Normal termination of Gaussian 16 at Fri Sep  2 20:01:26 2022.
