 Entering Gaussian System, Link 0=/home/wagner/chemistry/gaussian/g16/g16
 Input=GAUSSIAN.com
 Output=GAUSSIAN.log
 Initial command:
 /home/wagner/chemistry/gaussian/g16/l1.exe "/home/wagner/chemistry/gaussian/work/Gau-65204.inp" -scrdir="/home/wagner/chemistry/gaussian/work/"
 Entering Link 1 = /home/wagner/chemistry/gaussian/g16/l1.exe PID=     65206.
  
 Copyright (c) 1988-2019, Gaussian, Inc.  All Rights Reserved.
  
 This is part of the Gaussian(R) 16 program.  It is based on
 the Gaussian(R) 09 system (copyright 2009, Gaussian, Inc.),
 the Gaussian(R) 03 system (copyright 2003, Gaussian, Inc.),
 the Gaussian(R) 98 system (copyright 1998, Gaussian, Inc.),
 the Gaussian(R) 94 system (copyright 1995, Gaussian, Inc.),
 the Gaussian 92(TM) system (copyright 1992, Gaussian, Inc.),
 the Gaussian 90(TM) system (copyright 1990, Gaussian, Inc.),
 the Gaussian 88(TM) system (copyright 1988, Gaussian, Inc.),
 the Gaussian 86(TM) system (copyright 1986, Carnegie Mellon
 University), and the Gaussian 82(TM) system (copyright 1983,
 Carnegie Mellon University). Gaussian is a federally registered
 trademark of Gaussian, Inc.
  
 This software contains proprietary and confidential information,
 including trade secrets, belonging to Gaussian, Inc.
  
 This software is provided under written license and may be
 used, copied, transmitted, or stored only in accord with that
 written license.
  
 The following legend is applicable only to US Government
 contracts under FAR:
  
                    RESTRICTED RIGHTS LEGEND
  
 Use, reproduction and disclosure by the US Government is
 subject to restrictions as set forth in subparagraphs (a)
 and (c) of the Commercial Computer Software - Restricted
 Rights clause in FAR 52.227-19.
  
 Gaussian, Inc.
 340 Quinnipiac St., Bldg. 40, Wallingford CT 06492
  
  
 ---------------------------------------------------------------
 Warning -- This program may not be used in any manner that
 competes with the business of Gaussian, Inc. or will provide
 assistance to any competitor of Gaussian, Inc.  The licensee
 of this program is prohibited from giving any competitor of
 Gaussian, Inc. access to this program.  By using this program,
 the user acknowledges that Gaussian, Inc. is engaged in the
 business of creating and licensing software in the field of
 computational chemistry and represents and warrants to the
 licensee that it is not a competitor of Gaussian, Inc. and that
 it will not use this program in any manner prohibited above.
 ---------------------------------------------------------------
  

 Cite this work as:
 Gaussian 16, Revision C.01,
 M. J. Frisch, G. W. Trucks, H. B. Schlegel, G. E. Scuseria, 
 M. A. Robb, J. R. Cheeseman, G. Scalmani, V. Barone, 
 G. A. Petersson, H. Nakatsuji, X. Li, M. Caricato, A. V. Marenich, 
 J. Bloino, B. G. Janesko, R. Gomperts, B. Mennucci, H. P. Hratchian, 
 J. V. Ortiz, A. F. Izmaylov, J. L. Sonnenberg, D. Williams-Young, 
 F. Ding, F. Lipparini, F. Egidi, J. Goings, B. Peng, A. Petrone, 
 T. Henderson, D. Ranasinghe, V. G. Zakrzewski, J. Gao, N. Rega, 
 G. Zheng, W. Liang, M. Hada, M. Ehara, K. Toyota, R. Fukuda, 
 J. Hasegawa, M. Ishida, T. Nakajima, Y. Honda, O. Kitao, H. Nakai, 
 T. Vreven, K. Throssell, J. A. Montgomery, Jr., J. E. Peralta, 
 F. Ogliaro, M. J. Bearpark, J. J. Heyd, E. N. Brothers, K. N. Kudin, 
 V. N. Staroverov, T. A. Keith, R. Kobayashi, J. Normand, 
 K. Raghavachari, A. P. Rendell, J. C. Burant, S. S. Iyengar, 
 J. Tomasi, M. Cossi, J. M. Millam, M. Klene, C. Adamo, R. Cammi, 
 J. W. Ochterski, R. L. Martin, K. Morokuma, O. Farkas, 
 J. B. Foresman, and D. J. Fox, Gaussian, Inc., Wallingford CT, 2019.
 
 ******************************************
 Gaussian 16:  EM64L-G16RevC.01  3-Jul-2019
                 2-Sep-2022 
 ******************************************
 %nproc=16
 Will use up to   16 processors via shared memory.
 %mem=16GB
 ----------------------------------------------------------------------
 # qcisd/aug-cc-pvtz nosymm density=current pop=(chelpg,hirshfeld,npa,d
 ipole)
 ----------------------------------------------------------------------
 1/30=1,38=1,172=1/1;
 2/12=2,15=1,17=6,18=5,40=1/2;
 3/5=16,6=1,7=10,11=9,25=1,30=1,71=1/1,2,3;
 4//1;
 5/5=2,38=5/2;
 8/6=4,9=120000,10=1/1,4;
 9/5=8,15=1/13;
 11/28=-7,31=1,32=3,42=3/11;
 10/5=6,13=10,31=1/2;
 6/7=2,8=2,9=2,10=2,15=24,20=3,22=-1,40=-1,79=1/1,2,7;
 99/5=1,9=1/99;
 -----------------
 h2co-wavefunction
 -----------------
 Symbolic Z-matrix:
 Charge =  0 Multiplicity = 1
 O                     0.        0.        0.67925 
 C                     0.        0.       -0.51691 
 H                     0.        0.93661  -1.10662 
 H                     0.       -0.93661  -1.10662 
 
                          Input orientation:                          
 ---------------------------------------------------------------------
 Center     Atomic      Atomic             Coordinates (Angstroms)
 Number     Number       Type             X           Y           Z
 ---------------------------------------------------------------------
      1          8           0        0.000000    0.000000    0.679252
      2          6           0        0.000000    0.000000   -0.516911
      3          1           0        0.000000    0.936614   -1.106620
      4          1           0        0.000000   -0.936614   -1.106620
 ---------------------------------------------------------------------
                    Distance matrix (angstroms):
                    1          2          3          4
     1  O    0.000000
     2  C    1.196163   0.000000
     3  H    2.016577   1.106798   0.000000
     4  H    2.016577   1.106798   1.873228   0.000000
 Symmetry turned off by external request.
 Stoichiometry    CH2O
 Framework group  C2V[C2(CO),SGV(H2)]
 Deg. of freedom     3
 Full point group                 C2V     NOp   4
 Rotational constants (GHZ):         285.8122051          39.3058770          34.5539052
 Standard basis: Aug-CC-pVTZ (5D, 7F)
   138 basis functions,   198 primitive gaussians,   160 cartesian basis functions
     8 alpha electrons        8 beta electrons
       nuclear repulsion energy        31.4534823293 Hartrees.
 NAtoms=    4 NActive=    4 NUniq=    4 SFac= 1.00D+00 NAtFMM=   60 NAOKFM=F Big=F
 Integral buffers will be    131072 words long.
 Raffenetti 1 integral format.
 Two-electron integral symmetry is turned off.
 One-electron integrals computed using PRISM.
 NBasis=   138 RedAO= T EigKep=  8.47D-05  NBF=   138
 NBsUse=   138 1.00D-06 EigRej= -1.00D+00 NBFU=   138
 ExpMin= 2.53D-02 ExpMax= 1.53D+04 ExpMxC= 5.22D+02 IAcc=3 IRadAn=         5 AccDes= 0.00D+00
 Harris functional with IExCor=  205 and IRadAn=       5 diagonalized for initial guess.
 HarFok:  IExCor=  205 AccDes= 0.00D+00 IRadAn=         5 IDoV= 1 UseB2=F ITyADJ=14
 ICtDFT=  3500011 ScaDFX=  1.000000  1.000000  1.000000  1.000000
 FoFCou: FMM=F IPFlag=           0 FMFlag=      100000 FMFlg1=           0
         NFxFlg=           0 DoJE=T BraDBF=F KetDBF=T FulRan=T
         wScrn=  0.000000 ICntrl=       500 IOpCl=  0 I1Cent=   200000004 NGrid=           0
         NMat0=    1 NMatS0=      1 NMatT0=    0 NMatD0=    1 NMtDS0=    0 NMtDT0=    0
 Symmetry not used in FoFCou.
 Keep R1 ints in memory in canonical form, NReq=53861992.
 Requested convergence on RMS density matrix=1.00D-08 within 128 cycles.
 Requested convergence on MAX density matrix=1.00D-06.
 Requested convergence on             energy=1.00D-06.
 No special actions if energy rises.
 SCF Done:  E(RHF) =  -113.914437173     A.U. after   11 cycles
            NFock= 11  Conv=0.27D-08     -V/T= 2.0016
 ExpMin= 2.53D-02 ExpMax= 1.53D+04 ExpMxC= 5.22D+02 IAcc=3 IRadAn=         5 AccDes= 0.00D+00
 HarFok:  IExCor=  205 AccDes= 0.00D+00 IRadAn=         5 IDoV=-2 UseB2=F ITyADJ=14
 ICtDFT= 12500011 ScaDFX=  1.000000  1.000000  1.000000  1.000000
 Range of M.O.s used for correlation:     3   138
 NBasis=   138 NAE=     8 NBE=     8 NFC=     2 NFV=     0
 NROrb=    136 NOA=     6 NOB=     6 NVA=   130 NVB=   130

 **** Warning!!: The largest alpha MO coefficient is  0.33303832D+02

 Semi-Direct transformation.
 ModeAB=           2 MOrb=             6 LenV=    2146847475
 LASXX=      7286295 LTotXX=     7286295 LenRXX=     7286295
 LTotAB=     7445736 MaxLAS=    10510080 LenRXY=    10510080
 NonZer=    14572590 LenScr=    22628352 LnRSAI=           0
 LnScr1=           0 LExtra=           0 Total=     40424727
 MaxDsk=          -1 SrtSym=           F ITran=            4
 JobTyp=0 Pass  1:  I=   1 to   6.
 (rs|ai) integrals will be sorted in core.
 Spin components of T(2) and E(2):
     alpha-alpha T2 =       0.1364128323D-01 E2=     -0.4791197727D-01
     alpha-beta  T2 =       0.8442051138D-01 E2=     -0.3057125250D+00
     beta-beta   T2 =       0.1364128323D-01 E2=     -0.4791197727D-01
 ANorm=    0.1054373310D+01
 E2 =    -0.4015364795D+00 EUMP2 =    -0.11431597365284D+03
 Keep R2 and R3 ints in memory in canonical form, NReq=99865420.
 CIDS: In Core Option IDoMem=           1.
 Iterations=  50 Convergence= 0.100D-07
 Produce multiple copies of IABC intergrals
 Iteration Nr.   1
 **********************
 DD1Dir will call FoFMem   1 times, MxPair=        42
 NAB=    21 NAA=     0 NBB=     0.
 MP4(R+Q)=  0.87890089D-02
 E3=       -0.43837184D-02        EUMP3=      -0.11432035737D+03
 E4(DQ)=   -0.12848405D-02        UMP4(DQ)=   -0.11432164221D+03
 E4(SDQ)=  -0.64264396D-02        UMP4(SDQ)=  -0.11432678381D+03
 DE(Corr)= -0.39713119     E(Corr)=     -114.31156836    
 NORM(A)=   0.10551952D+01
 Iteration Nr.   2
 **********************
 DD1Dir will call FoFMem   1 times, MxPair=        42
 NAB=    21 NAA=     0 NBB=     0.
 DE(Corr)= -0.41082159     E(CORR)=     -114.32525877     Delta=-1.37D-02
 NORM(A)=   0.10611348D+01
 Iteration Nr.   3
 **********************
 DD1Dir will call FoFMem   1 times, MxPair=        42
 NAB=    21 NAA=     0 NBB=     0.
 DE(Corr)= -0.41079324     E(CORR)=     -114.32523042     Delta= 2.84D-05
 NORM(A)=   0.10629473D+01
 Iteration Nr.   4
 **********************
 DD1Dir will call FoFMem   1 times, MxPair=        42
 NAB=    21 NAA=     0 NBB=     0.
 DE(Corr)= -0.41216134     E(CORR)=     -114.32659851     Delta=-1.37D-03
 NORM(A)=   0.10635893D+01
 Iteration Nr.   5
 **********************
 DD1Dir will call FoFMem   1 times, MxPair=        42
 NAB=    21 NAA=     0 NBB=     0.
 DE(Corr)= -0.41234002     E(CORR)=     -114.32677719     Delta=-1.79D-04
 NORM(A)=   0.10637886D+01
 Iteration Nr.   6
 **********************
 DD1Dir will call FoFMem   1 times, MxPair=        42
 NAB=    21 NAA=     0 NBB=     0.
 DE(Corr)= -0.41236448     E(CORR)=     -114.32680165     Delta=-2.45D-05
 NORM(A)=   0.10638121D+01
 Iteration Nr.   7
 **********************
 DD1Dir will call FoFMem   1 times, MxPair=        42
 NAB=    21 NAA=     0 NBB=     0.
 DE(Corr)= -0.41236563     E(CORR)=     -114.32680280     Delta=-1.15D-06
 NORM(A)=   0.10638131D+01
 Iteration Nr.   8
 **********************
 DD1Dir will call FoFMem   1 times, MxPair=        42
 NAB=    21 NAA=     0 NBB=     0.
 DE(Corr)= -0.41236481     E(CORR)=     -114.32680198     Delta= 8.22D-07
 NORM(A)=   0.10638156D+01
 Iteration Nr.   9
 **********************
 DD1Dir will call FoFMem   1 times, MxPair=        42
 NAB=    21 NAA=     0 NBB=     0.
 DE(Corr)= -0.41236378     E(CORR)=     -114.32680095     Delta= 1.03D-06
 NORM(A)=   0.10638160D+01
 Iteration Nr.  10
 **********************
 DD1Dir will call FoFMem   1 times, MxPair=        42
 NAB=    21 NAA=     0 NBB=     0.
 DE(Corr)= -0.41236436     E(CORR)=     -114.32680153     Delta=-5.81D-07
 NORM(A)=   0.10638165D+01
 Iteration Nr.  11
 **********************
 DD1Dir will call FoFMem   1 times, MxPair=        42
 NAB=    21 NAA=     0 NBB=     0.
 DE(Corr)= -0.41236448     E(CORR)=     -114.32680166     Delta=-1.25D-07
 NORM(A)=   0.10638168D+01
 Iteration Nr.  12
 **********************
 DD1Dir will call FoFMem   1 times, MxPair=        42
 NAB=    21 NAA=     0 NBB=     0.
 DE(Corr)= -0.41236463     E(CORR)=     -114.32680180     Delta=-1.45D-07
 NORM(A)=   0.10638170D+01
 Iteration Nr.  13
 **********************
 DD1Dir will call FoFMem   1 times, MxPair=        42
 NAB=    21 NAA=     0 NBB=     0.
 DE(Corr)= -0.41236469     E(CORR)=     -114.32680186     Delta=-5.58D-08
 NORM(A)=   0.10638171D+01
 Iteration Nr.  14
 **********************
 DD1Dir will call FoFMem   1 times, MxPair=        42
 NAB=    21 NAA=     0 NBB=     0.
 DE(Corr)= -0.41236471     E(CORR)=     -114.32680189     Delta=-2.91D-08
 NORM(A)=   0.10638171D+01
 Iteration Nr.  15
 **********************
 DD1Dir will call FoFMem   1 times, MxPair=        42
 NAB=    21 NAA=     0 NBB=     0.
 DE(Corr)= -0.41236472     E(CORR)=     -114.32680189     Delta=-4.45D-09
 NORM(A)=   0.10638172D+01
 Wavefunction amplitudes converged. E(Corr)=     -114.32680189    
 Largest amplitude= 6.36D-02

 Z-amplitude iterations

 Iteration Nr.   1
 **********************
 DD1Dir will call FoFMem   1 times, MxPair=        42
 NAB=    21 NAA=     0 NBB=     0.
 DE(Z)= -0.40049083     E(Z)=     -114.31492801     Delta= 1.19D-02
 NORM(A)=   0.10638167D+01
 Iteration Nr.   2
 **********************
 DD1Dir will call FoFMem   1 times, MxPair=        42
 NAB=    21 NAA=     0 NBB=     0.
 DE(Z)= -0.40049080     E(Z)=     -114.31492798     Delta= 3.09D-08
 NORM(A)=   0.10638127D+01
 Iteration Nr.   3
 **********************
 DD1Dir will call FoFMem   1 times, MxPair=        42
 NAB=    21 NAA=     0 NBB=     0.
 DE(Z)= -0.40049060     E(Z)=     -114.31492777     Delta= 2.03D-07
 NORM(A)=   0.10638153D+01
 Iteration Nr.   4
 **********************
 DD1Dir will call FoFMem   1 times, MxPair=        42
 NAB=    21 NAA=     0 NBB=     0.
 DE(Z)= -0.40049073     E(Z)=     -114.31492791     Delta=-1.31D-07
 NORM(A)=   0.10638151D+01
 Iteration Nr.   5
 **********************
 DD1Dir will call FoFMem   1 times, MxPair=        42
 NAB=    21 NAA=     0 NBB=     0.
 DE(Z)= -0.40049072     E(Z)=     -114.31492789     Delta= 1.13D-08
 NORM(A)=   0.10598220D+01
 Iteration Nr.   6
 **********************
 DD1Dir will call FoFMem   1 times, MxPair=        42
 NAB=    21 NAA=     0 NBB=     0.
 DE(Z)= -0.40026426     E(Z)=     -114.31470144     Delta= 2.26D-04
 NORM(A)=   0.10598230D+01
 Iteration Nr.   7
 **********************
 DD1Dir will call FoFMem   1 times, MxPair=        42
 NAB=    21 NAA=     0 NBB=     0.
 DE(Z)= -0.40026376     E(Z)=     -114.31470093     Delta= 5.09D-07
 NORM(A)=   0.10598226D+01
 Iteration Nr.   8
 **********************
 DD1Dir will call FoFMem   1 times, MxPair=        42
 NAB=    21 NAA=     0 NBB=     0.
 DE(Z)= -0.40026372     E(Z)=     -114.31470089     Delta= 3.48D-08
 NORM(A)=   0.10598226D+01
 Iteration Nr.   9
 **********************
 DD1Dir will call FoFMem   1 times, MxPair=        42
 NAB=    21 NAA=     0 NBB=     0.
 DE(Z)= -0.40026371     E(Z)=     -114.31470088     Delta= 1.38D-08
 NORM(A)=   0.10598226D+01
 Iteration Nr.  10
 **********************
 DD1Dir will call FoFMem   1 times, MxPair=        42
 NAB=    21 NAA=     0 NBB=     0.
 DE(Z)= -0.40026365     E(Z)=     -114.31470082     Delta= 5.57D-08
 NORM(A)=   0.10598226D+01
 Iteration Nr.  11
 **********************
 DD1Dir will call FoFMem   1 times, MxPair=        42
 NAB=    21 NAA=     0 NBB=     0.
 DE(Z)= -0.40026368     E(Z)=     -114.31470085     Delta=-2.73D-08
 NORM(A)=   0.10598226D+01
 Iteration Nr.  12
 **********************
 DD1Dir will call FoFMem   1 times, MxPair=        42
 NAB=    21 NAA=     0 NBB=     0.
 DE(Z)= -0.40026368     E(Z)=     -114.31470085     Delta= 1.84D-09
 NORM(A)=   0.10598226D+01
 Z-amplitudes converged.
 Discarding MO integrals.
          Differentiating once with respect to electric field.
                with respect to dipole field.
          Electric field/nuclear overlap derivatives assumed to be zero.
 Keep R1 ints in memory in canonical form, NReq=53863345.
          There are     1 degrees of freedom in the 1st order CPHF.  IDoFFX=0 NUNeed=     1.
 LinEq1:  Iter=  0 NonCon=     1 RMS=3.51D-03 Max=5.48D-02 NDo=     1
 AX will form     1 AO Fock derivatives at one time.
 LinEq1:  Iter=  1 NonCon=     1 RMS=8.87D-04 Max=8.56D-03 NDo=     1
 LinEq1:  Iter=  2 NonCon=     1 RMS=2.30D-04 Max=3.28D-03 NDo=     1
 LinEq1:  Iter=  3 NonCon=     1 RMS=1.12D-04 Max=1.17D-03 NDo=     1
 LinEq1:  Iter=  4 NonCon=     1 RMS=4.15D-05 Max=5.03D-04 NDo=     1
 LinEq1:  Iter=  5 NonCon=     1 RMS=8.65D-06 Max=8.08D-05 NDo=     1
 LinEq1:  Iter=  6 NonCon=     1 RMS=1.44D-06 Max=1.68D-05 NDo=     1
 LinEq1:  Iter=  7 NonCon=     1 RMS=2.16D-07 Max=1.59D-06 NDo=     1
 LinEq1:  Iter=  8 NonCon=     1 RMS=2.47D-08 Max=1.94D-07 NDo=     1
 LinEq1:  Iter=  9 NonCon=     1 RMS=2.97D-09 Max=2.38D-08 NDo=     1
 LinEq1:  Iter= 10 NonCon=     1 RMS=2.77D-10 Max=2.21D-09 NDo=     1
 LinEq1:  Iter= 11 NonCon=     0 RMS=2.52D-11 Max=2.29D-10 NDo=     1
 Linear equations converged to 1.000D-10 1.000D-09 after    11 iterations.
 End of Minotr F.D. properties file   721 does not exist.
 End of Minotr F.D. properties file   722 does not exist.
 End of Minotr F.D. properties file   788 does not exist.

 **********************************************************************

            Population analysis using the CC Density.

 **********************************************************************

 Alpha  occ. eigenvalues --  -20.57887 -11.34178  -1.41352  -0.86861  -0.69519
 Alpha  occ. eigenvalues --   -0.65574  -0.54191  -0.44189
 Alpha virt. eigenvalues --    0.02640   0.04191   0.06292   0.07640   0.13106
 Alpha virt. eigenvalues --    0.13306   0.13314   0.17427   0.19894   0.21126
 Alpha virt. eigenvalues --    0.21728   0.25463   0.25632   0.28065   0.32071
 Alpha virt. eigenvalues --    0.33817   0.33835   0.35912   0.38772   0.38905
 Alpha virt. eigenvalues --    0.39644   0.42026   0.48405   0.49902   0.56087
 Alpha virt. eigenvalues --    0.56896   0.66918   0.67595   0.72720   0.76347
 Alpha virt. eigenvalues --    0.81904   0.83301   0.84091   0.85753   0.87735
 Alpha virt. eigenvalues --    0.88266   0.92712   0.93463   0.93842   0.97861
 Alpha virt. eigenvalues --    1.00155   1.02011   1.02359   1.04082   1.06773
 Alpha virt. eigenvalues --    1.08317   1.09966   1.10281   1.25708   1.27334
 Alpha virt. eigenvalues --    1.30119   1.37271   1.38703   1.45994   1.47533
 Alpha virt. eigenvalues --    1.51176   1.57158   1.59890   1.62843   1.70733
 Alpha virt. eigenvalues --    1.72907   1.83990   1.96156   2.00341   2.02961
 Alpha virt. eigenvalues --    2.08616   2.18564   2.28932   2.32704   2.34335
 Alpha virt. eigenvalues --    2.34531   2.49309   2.49947   2.56358   2.61382
 Alpha virt. eigenvalues --    2.71873   2.78758   2.80948   2.92177   2.93490
 Alpha virt. eigenvalues --    3.06478   3.06994   3.14585   3.18892   3.41134
 Alpha virt. eigenvalues --    3.44975   3.52784   3.56546   3.63773   3.66016
 Alpha virt. eigenvalues --    3.69419   3.89604   3.94044   4.06590   4.12318
 Alpha virt. eigenvalues --    4.15850   4.17029   4.22232   4.25782   4.36605
 Alpha virt. eigenvalues --    4.59114   4.64329   4.68446   4.77703   5.02839
 Alpha virt. eigenvalues --    5.05756   5.10659   5.17665   5.24000   5.28677
 Alpha virt. eigenvalues --    5.31600   5.36983   5.87051   6.13628   6.23462
 Alpha virt. eigenvalues --    6.50773   6.59842   6.62059   6.92070   6.95703
 Alpha virt. eigenvalues --    7.10450   7.19278   7.20818   7.42319   7.52547
 Alpha virt. eigenvalues --    7.69681   7.73478   7.77752  15.17297  16.34056
          Condensed to atoms (all electrons):
               1          2          3          4
     1  O    8.188889   0.356422  -0.065581  -0.065581
     2  C    0.356422   5.696995   0.210247   0.210247
     3  H   -0.065581   0.210247   0.439258  -0.027954
     4  H   -0.065581   0.210247  -0.027954   0.439258
 Mulliken charges:
               1
     1  O   -0.414149
     2  C   -0.473912
     3  H    0.444030
     4  H    0.444030
 Sum of Mulliken charges =  -0.00000
 Mulliken charges with hydrogens summed into heavy atoms:
               1
     1  O   -0.414149
     2  C    0.414149
 Electronic spatial extent (au):  <R**2>=             60.4414
 Charge=             -0.0000 electrons
 Dipole moment (field-independent basis, Debye):
    X=             -0.0000    Y=              0.0000    Z=             -2.3948  Tot=              2.3948
 Quadrupole moment (field-independent basis, Debye-Ang):
   XX=            -11.7180   YY=            -11.6521   ZZ=            -12.3050
   XY=             -0.0000   XZ=             -0.0000   YZ=             -0.0000
 Traceless Quadrupole moment (field-independent basis, Debye-Ang):
   XX=              0.1737   YY=              0.2396   ZZ=             -0.4133
   XY=             -0.0000   XZ=             -0.0000   YZ=             -0.0000
 Octapole moment (field-independent basis, Debye-Ang**2):
  XXX=             -0.0000  YYY=              0.0000  ZZZ=              0.2516  XYY=             -0.0000
  XXY=              0.0000  XXZ=              0.5619  XZZ=             -0.0000  YZZ=              0.0000
  YYZ=             -0.6615  XYZ=              0.0000
 Hexadecapole moment (field-independent basis, Debye-Ang**3):
 XXXX=            -10.4638 YYYY=            -18.4145 ZZZZ=            -46.0385 XXXY=             -0.0000
 XXXZ=             -0.0000 YYYX=             -0.0000 YYYZ=             -0.0000 ZZZX=             -0.0000
 ZZZY=             -0.0000 XXYY=             -5.1654 XXZZ=             -9.3553 YYZZ=            -10.4801
 XXYZ=             -0.0000 YYXZ=              0.0000 ZZXY=             -0.0000
 N-N= 3.145348232933D+01 E-N=-3.316646975641D+02  KE= 1.142557351033D+02
 There are a total of       93160 grid points.
 ElSum from          density=       15.9999999002
 ElSum from atomic densities=       15.9999998229

 Hirshfeld populations at iteration   1 (CX, CA, CB, DipXYZ):
               1          2          3          4          5          6
     1  O    0.000003   4.109710   4.109710   0.000000   0.000000  -0.107312
     2  C    0.000000   2.932840   2.932840   0.000000   0.000000  -0.092478
     3  H    0.000001   0.478725   0.478725  -0.000000   0.110527  -0.075797
     4  H    0.000001   0.478725   0.478725  -0.000000  -0.110527  -0.075797
       Tot   0.000004   8.000000   8.000000   0.000000   0.000000  -0.351385

 Dip from Atomic Chgs              0.000000   0.000000  -0.590816
         Total Dipole              0.000000   0.000000  -0.942200

 Hirshfeld charges, spin densities, dipoles, and CM5 charges using IRadAn=      5:
              Q-H        S-H        Dx         Dy         Dz        Q-CM5   
     1  O   -0.219420   0.000000   0.000000   0.000000  -0.107312  -0.281697
     2  C    0.134319   0.000000   0.000000   0.000000  -0.092478   0.080455
     3  H    0.042550   0.000000  -0.000000   0.110527  -0.075797   0.100621
     4  H    0.042550   0.000000  -0.000000  -0.110527  -0.075797   0.100621
       Tot   0.000000   0.000000   0.000000   0.000000  -0.351385   0.000000
 Hirshfeld charges with hydrogens summed into heavy atoms:
              Q-H       Q-CM5   
     1  O   -0.219420  -0.281697
     2  C    0.219420   0.281697
 
 EQQ= 0.000000000000E+00 EQD= 0.000000000000E+00 EDD= 0.253955024292E-02
 EQQ+QD+DD= 0.253955024292E-02
 
 Breneman (CHELPG) radii used.
 Generate Potential Derived Charges using the Breneman model, NDens= 1.
 Grid spacing= 0.300 Box extension= 2.800
 NStep X,Y,Z=   20     26     26   Total possible points=       13520
 Number of Points to Fit=    4900

 **********************************************************************

            Electrostatic Properties Using The CC Density.

 **********************************************************************

       Atomic Center    1 is at   0.000000  0.000000  0.679252
       Atomic Center    2 is at   0.000000  0.000000 -0.516911
       Atomic Center    3 is at   0.000000  0.936614 -1.106620
       Atomic Center    4 is at   0.000000 -0.936614 -1.106620
    4900 points will be used for fitting atomic charges
 Fitting point charges to electrostatic potential
 The dipole moment will be constrained to the correct value
 Charges from ESP fit, RMS=   0.00227 RRMS=   0.11919:
 ESP charges:
               1
     1  O   -0.427216
     2  C    0.448291
     3  H   -0.010538
     4  H   -0.010538
 Sum of ESP charges =   0.00000
 ESP charges with hydrogens summed into heavy atoms:
               1
     1  O   -0.427216
     2  C    0.427216
 Charge=   0.00000 Dipole=     0.0000     0.0000    -2.3948 Tot=     2.3948
 -----------------------------------------------------------------

              Electrostatic Properties (Atomic Units)

 -----------------------------------------------------------------
    Center     Electric         -------- Electric Field --------
               Potential          X             Y             Z
 -----------------------------------------------------------------
    1 Atom    -22.326186
    2 Atom    -14.664753
    3 Atom     -1.079854
    4 Atom     -1.079854
 -----------------------------------------------------------------
 ******************************Gaussian NBO Version 3.1******************************
             N A T U R A L   A T O M I C   O R B I T A L   A N D
          N A T U R A L   B O N D   O R B I T A L   A N A L Y S I S
 ******************************Gaussian NBO Version 3.1******************************
       /RESON  / : Allow strongly delocalized NBO set

 Analyzing the QCI/CC density

 Job title: h2co-wavefunction                                               

 Storage needed:     57804 in NPA (2147483536 available)
 GSVD:  LWork=       -1756 too small for GESVD, short by       42456 words or       42456 for optimal perf.


 NATURAL POPULATIONS:  Natural atomic orbital occupancies 
                                                          
   NAO  Atom  No  lang   Type(AO)    Occupancy
 --------------------------------------------
     1    O    1  S      Cor( 1S)     1.99959
     2    O    1  S      Val( 2S)     1.69708
     3    O    1  S      Ryd( 3S)     0.01022
     4    O    1  S      Ryd( 4S)     0.00089
     5    O    1  S      Ryd( 5S)     0.00020
     6    O    1  px     Val( 2p)     1.28936
     7    O    1  px     Ryd( 3p)     0.00654
     8    O    1  px     Ryd( 4p)     0.00051
     9    O    1  px     Ryd( 5p)     0.00003
    10    O    1  py     Val( 2p)     1.84861
    11    O    1  py     Ryd( 3p)     0.01593
    12    O    1  py     Ryd( 4p)     0.00080
    13    O    1  py     Ryd( 5p)     0.00008
    14    O    1  pz     Val( 2p)     1.55060
    15    O    1  pz     Ryd( 3p)     0.00669
    16    O    1  pz     Ryd( 4p)     0.00047
    17    O    1  pz     Ryd( 5p)     0.00013
    18    O    1  dxy    Ryd( 3d)     0.00566
    19    O    1  dxy    Ryd( 4d)     0.00046
    20    O    1  dxy    Ryd( 5d)     0.00007
    21    O    1  dxz    Ryd( 3d)     0.00991
    22    O    1  dxz    Ryd( 4d)     0.00033
    23    O    1  dxz    Ryd( 5d)     0.00009
    24    O    1  dyz    Ryd( 3d)     0.00941
    25    O    1  dyz    Ryd( 4d)     0.00045
    26    O    1  dyz    Ryd( 5d)     0.00019
    27    O    1  dx2y2  Ryd( 3d)     0.00555
    28    O    1  dx2y2  Ryd( 4d)     0.00046
    29    O    1  dx2y2  Ryd( 5d)     0.00007
    30    O    1  dz2    Ryd( 3d)     0.01923
    31    O    1  dz2    Ryd( 4d)     0.00039
    32    O    1  dz2    Ryd( 5d)     0.00009
    33    O    1  f(0)   Ryd( 4f)     0.00087
    34    O    1  f(0)   Ryd( 5f)     0.00010
    35    O    1  f(C1)  Ryd( 4f)     0.00051
    36    O    1  f(C1)  Ryd( 5f)     0.00009
    37    O    1  f(S1)  Ryd( 4f)     0.00061
    38    O    1  f(S1)  Ryd( 5f)     0.00014
    39    O    1  f(C2)  Ryd( 4f)     0.00049
    40    O    1  f(C2)  Ryd( 5f)     0.00008
    41    O    1  f(S2)  Ryd( 4f)     0.00050
    42    O    1  f(S2)  Ryd( 5f)     0.00008
    43    O    1  f(C3)  Ryd( 4f)     0.00049
    44    O    1  f(C3)  Ryd( 5f)     0.00006
    45    O    1  f(S3)  Ryd( 4f)     0.00049
    46    O    1  f(S3)  Ryd( 5f)     0.00006

    47    C    2  S      Cor( 1S)     1.99949
    48    C    2  S      Val( 2S)     1.02449
    49    C    2  S      Ryd( 3S)     0.01412
    50    C    2  S      Ryd( 4S)     0.00020
    51    C    2  S      Ryd( 5S)     0.00009
    52    C    2  px     Val( 2p)     0.68875
    53    C    2  px     Ryd( 3p)     0.00349
    54    C    2  px     Ryd( 4p)     0.00017
    55    C    2  px     Ryd( 5p)     0.00008
    56    C    2  py     Val( 2p)     1.06982
    57    C    2  py     Ryd( 3p)     0.00449
    58    C    2  py     Ryd( 4p)     0.00037
    59    C    2  py     Ryd( 5p)     0.00006
    60    C    2  pz     Val( 2p)     0.83918
    61    C    2  pz     Ryd( 3p)     0.01311
    62    C    2  pz     Ryd( 4p)     0.00015
    63    C    2  pz     Ryd( 5p)     0.00010
    64    C    2  dxy    Ryd( 3d)     0.00487
    65    C    2  dxy    Ryd( 5d)     0.00012
    66    C    2  dxy    Ryd( 4d)     0.00013
    67    C    2  dxz    Ryd( 3d)     0.00490
    68    C    2  dxz    Ryd( 4d)     0.00022
    69    C    2  dxz    Ryd( 5d)     0.00015
    70    C    2  dyz    Ryd( 3d)     0.01173
    71    C    2  dyz    Ryd( 4d)     0.00046
    72    C    2  dyz    Ryd( 5d)     0.00036
    73    C    2  dx2y2  Ryd( 3d)     0.00479
    74    C    2  dx2y2  Ryd( 4d)     0.00017
    75    C    2  dx2y2  Ryd( 5d)     0.00006
    76    C    2  dz2    Ryd( 3d)     0.00481
    77    C    2  dz2    Ryd( 4d)     0.00032
    78    C    2  dz2    Ryd( 5d)     0.00010
    79    C    2  f(0)   Ryd( 4f)     0.00041
    80    C    2  f(0)   Ryd( 5f)     0.00010
    81    C    2  f(C1)  Ryd( 4f)     0.00032
    82    C    2  f(C1)  Ryd( 5f)     0.00009
    83    C    2  f(S1)  Ryd( 4f)     0.00049
    84    C    2  f(S1)  Ryd( 5f)     0.00009
    85    C    2  f(C2)  Ryd( 4f)     0.00052
    86    C    2  f(C2)  Ryd( 5f)     0.00012
    87    C    2  f(S2)  Ryd( 4f)     0.00046
    88    C    2  f(S2)  Ryd( 5f)     0.00010
    89    C    2  f(C3)  Ryd( 4f)     0.00038
    90    C    2  f(C3)  Ryd( 5f)     0.00014
    91    C    2  f(S3)  Ryd( 4f)     0.00046
    92    C    2  f(S3)  Ryd( 5f)     0.00011

    93    H    3  S      Val( 1S)     0.90026
    94    H    3  S      Ryd( 2S)     0.00287
    95    H    3  S      Ryd( 3S)     0.00009
    96    H    3  S      Ryd( 4S)     0.00005
    97    H    3  px     Ryd( 2p)     0.00129
    98    H    3  px     Ryd( 3p)     0.00035
    99    H    3  px     Ryd( 4p)     0.00007
   100    H    3  py     Ryd( 2p)     0.00147
   101    H    3  py     Ryd( 3p)     0.00042
   102    H    3  py     Ryd( 4p)     0.00011
   103    H    3  pz     Ryd( 2p)     0.00165
   104    H    3  pz     Ryd( 3p)     0.00040
   105    H    3  pz     Ryd( 4p)     0.00010
   106    H    3  dxy    Ryd( 3d)     0.00007
   107    H    3  dxy    Ryd( 4d)     0.00007
   108    H    3  dxz    Ryd( 3d)     0.00007
   109    H    3  dxz    Ryd( 4d)     0.00005
   110    H    3  dyz    Ryd( 3d)     0.00020
   111    H    3  dyz    Ryd( 4d)     0.00006
   112    H    3  dx2y2  Ryd( 3d)     0.00025
   113    H    3  dx2y2  Ryd( 4d)     0.00007
   114    H    3  dz2    Ryd( 3d)     0.00007
   115    H    3  dz2    Ryd( 4d)     0.00004

   116    H    4  S      Val( 1S)     0.90026
   117    H    4  S      Ryd( 2S)     0.00287
   118    H    4  S      Ryd( 3S)     0.00009
   119    H    4  S      Ryd( 4S)     0.00005
   120    H    4  px     Ryd( 2p)     0.00129
   121    H    4  px     Ryd( 3p)     0.00035
   122    H    4  px     Ryd( 4p)     0.00007
   123    H    4  py     Ryd( 2p)     0.00147
   124    H    4  py     Ryd( 3p)     0.00042
   125    H    4  py     Ryd( 4p)     0.00011
   126    H    4  pz     Ryd( 2p)     0.00165
   127    H    4  pz     Ryd( 3p)     0.00040
   128    H    4  pz     Ryd( 4p)     0.00010
   129    H    4  dxy    Ryd( 3d)     0.00007
   130    H    4  dxy    Ryd( 4d)     0.00007
   131    H    4  dxz    Ryd( 3d)     0.00007
   132    H    4  dxz    Ryd( 4d)     0.00005
   133    H    4  dyz    Ryd( 3d)     0.00020
   134    H    4  dyz    Ryd( 4d)     0.00006
   135    H    4  dx2y2  Ryd( 3d)     0.00025
   136    H    4  dx2y2  Ryd( 4d)     0.00007
   137    H    4  dz2    Ryd( 3d)     0.00007
   138    H    4  dz2    Ryd( 4d)     0.00004


 Summary of Natural Population Analysis:                  
                                                          
                                       Natural Population 
                Natural  -----------------------------------------------
    Atom  No    Charge         Core      Valence    Rydberg      Total
 -----------------------------------------------------------------------
      O    1   -0.48465      1.99959     6.38565    0.09941     8.48465
      C    2    0.30482      1.99949     3.62224    0.07346     5.69518
      H    3    0.08992      0.00000     0.90026    0.00982     0.91008
      H    4    0.08992      0.00000     0.90026    0.00982     0.91008
 =======================================================================
   * Total *   -0.00000      3.99908    11.80840    0.19252    16.00000

                                 Natural Population      
 --------------------------------------------------------
   Core                       3.99908 ( 99.9769% of   4)
   Valence                   11.80840 ( 98.4034% of  12)
   Natural Minimal Basis     15.80748 ( 98.7968% of  16)
   Natural Rydberg Basis      0.19252 (  1.2032% of  16)
 --------------------------------------------------------

    Atom  No          Natural Electron Configuration
 ----------------------------------------------------------------------------
      O    1      [core]2S( 1.70)2p( 4.69)3S( 0.01)3p( 0.03)3d( 0.05)
      C    2      [core]2S( 1.02)2p( 2.60)3S( 0.01)3p( 0.02)3d( 0.03)
      H    3            1S( 0.90)
      H    4            1S( 0.90)


 NBO analysis skipped by request.
 Unable to Open any file for archive entry.
 1\1\GINC-TRAPISTA\SP\RQCISD-FC\Aug-CC-pVTZ\C1H2O1\WAGNER\02-Sep-2022\0
 \\# qcisd/aug-cc-pvtz nosymm density=current pop=(chelpg,hirshfeld,npa
 ,dipole)\\h2co-wavefunction\\0,1\O,0,0.,0.,0.679252\C,0,0.,0.,-0.51691
 1\H,0,0.,0.936614,-1.10662\H,0,0.,-0.936614,-1.10662\\Version=EM64L-G1
 6RevC.01\HF=-113.9144372\MP2=-114.3159737\MP3=-114.3203574\MP4D=-114.3
 304312\MP4DQ=-114.3216422\MP4SDQ=-114.3267838\QCISD=-114.3268019\RMSD=
 2.741e-09\Dipole=0.,0.,-0.9422005\Quadrupole=0.1291673,0.1781345,-0.30
 73018,0.,0.,0.\PG=C02V [C2(C1O1),SGV(H2)]\\@
 The archive entry for this job was punched.


 PATIENCE IS THE ABILITY TO IDLE YOUR MOTOR WHEN
 YOU FEEL LIKE STRIPPING YOUR GEARS.
 Job cpu time:       0 days  1 hours 27 minutes 22.3 seconds.
 Elapsed time:       0 days  0 hours  5 minutes 31.7 seconds.
 File lengths (MBytes):  RWF=   6915 Int=      0 D2E=      0 Chk=      3 Scr=      1
 Normal termination of Gaussian 16 at Fri Sep  2 19:00:07 2022.
