 Entering Gaussian System, Link 0=/home/wagner/chemistry/gaussian/g16/g16
 Input=GAUSSIAN.com
 Output=GAUSSIAN.log
 Initial command:
 /home/wagner/chemistry/gaussian/g16/l1.exe "/home/wagner/chemistry/gaussian/work/Gau-63508.inp" -scrdir="/home/wagner/chemistry/gaussian/work/"
 Entering Link 1 = /home/wagner/chemistry/gaussian/g16/l1.exe PID=     63510.
  
 Copyright (c) 1988-2019, Gaussian, Inc.  All Rights Reserved.
  
 This is part of the Gaussian(R) 16 program.  It is based on
 the Gaussian(R) 09 system (copyright 2009, Gaussian, Inc.),
 the Gaussian(R) 03 system (copyright 2003, Gaussian, Inc.),
 the Gaussian(R) 98 system (copyright 1998, Gaussian, Inc.),
 the Gaussian(R) 94 system (copyright 1995, Gaussian, Inc.),
 the Gaussian 92(TM) system (copyright 1992, Gaussian, Inc.),
 the Gaussian 90(TM) system (copyright 1990, Gaussian, Inc.),
 the Gaussian 88(TM) system (copyright 1988, Gaussian, Inc.),
 the Gaussian 86(TM) system (copyright 1986, Carnegie Mellon
 University), and the Gaussian 82(TM) system (copyright 1983,
 Carnegie Mellon University). Gaussian is a federally registered
 trademark of Gaussian, Inc.
  
 This software contains proprietary and confidential information,
 including trade secrets, belonging to Gaussian, Inc.
  
 This software is provided under written license and may be
 used, copied, transmitted, or stored only in accord with that
 written license.
  
 The following legend is applicable only to US Government
 contracts under FAR:
  
                    RESTRICTED RIGHTS LEGEND
  
 Use, reproduction and disclosure by the US Government is
 subject to restrictions as set forth in subparagraphs (a)
 and (c) of the Commercial Computer Software - Restricted
 Rights clause in FAR 52.227-19.
  
 Gaussian, Inc.
 340 Quinnipiac St., Bldg. 40, Wallingford CT 06492
  
  
 ---------------------------------------------------------------
 Warning -- This program may not be used in any manner that
 competes with the business of Gaussian, Inc. or will provide
 assistance to any competitor of Gaussian, Inc.  The licensee
 of this program is prohibited from giving any competitor of
 Gaussian, Inc. access to this program.  By using this program,
 the user acknowledges that Gaussian, Inc. is engaged in the
 business of creating and licensing software in the field of
 computational chemistry and represents and warrants to the
 licensee that it is not a competitor of Gaussian, Inc. and that
 it will not use this program in any manner prohibited above.
 ---------------------------------------------------------------
  

 Cite this work as:
 Gaussian 16, Revision C.01,
 M. J. Frisch, G. W. Trucks, H. B. Schlegel, G. E. Scuseria, 
 M. A. Robb, J. R. Cheeseman, G. Scalmani, V. Barone, 
 G. A. Petersson, H. Nakatsuji, X. Li, M. Caricato, A. V. Marenich, 
 J. Bloino, B. G. Janesko, R. Gomperts, B. Mennucci, H. P. Hratchian, 
 J. V. Ortiz, A. F. Izmaylov, J. L. Sonnenberg, D. Williams-Young, 
 F. Ding, F. Lipparini, F. Egidi, J. Goings, B. Peng, A. Petrone, 
 T. Henderson, D. Ranasinghe, V. G. Zakrzewski, J. Gao, N. Rega, 
 G. Zheng, W. Liang, M. Hada, M. Ehara, K. Toyota, R. Fukuda, 
 J. Hasegawa, M. Ishida, T. Nakajima, Y. Honda, O. Kitao, H. Nakai, 
 T. Vreven, K. Throssell, J. A. Montgomery, Jr., J. E. Peralta, 
 F. Ogliaro, M. J. Bearpark, J. J. Heyd, E. N. Brothers, K. N. Kudin, 
 V. N. Staroverov, T. A. Keith, R. Kobayashi, J. Normand, 
 K. Raghavachari, A. P. Rendell, J. C. Burant, S. S. Iyengar, 
 J. Tomasi, M. Cossi, J. M. Millam, M. Klene, C. Adamo, R. Cammi, 
 J. W. Ochterski, R. L. Martin, K. Morokuma, O. Farkas, 
 J. B. Foresman, and D. J. Fox, Gaussian, Inc., Wallingford CT, 2019.
 
 ******************************************
 Gaussian 16:  EM64L-G16RevC.01  3-Jul-2019
                 2-Sep-2022 
 ******************************************
 %nproc=16
 Will use up to   16 processors via shared memory.
 %mem=16GB
 ----------------------------------------------------------------------
 # qcisd/aug-cc-pvtz nosymm density=current pop=(chelpg,hirshfeld,npa,d
 ipole)
 ----------------------------------------------------------------------
 1/30=1,38=1,172=1/1;
 2/12=2,15=1,17=6,18=5,40=1/2;
 3/5=16,6=1,7=10,11=9,25=1,30=1,71=1/1,2,3;
 4//1;
 5/5=2,38=5/2;
 8/6=4,9=120000,10=1/1,4;
 9/5=8,15=1/13;
 11/28=-7,31=1,32=3,42=3/11;
 10/5=6,13=10,31=1/2;
 6/7=2,8=2,9=2,10=2,15=24,20=3,22=-1,40=-1,79=1/1,2,7;
 99/5=1,9=1/99;
 -----------------
 h2co-wavefunction
 -----------------
 Symbolic Z-matrix:
 Charge =  0 Multiplicity = 1
 O                     0.        0.        0.66925 
 C                     0.        0.       -0.52691 
 H                     0.        0.93661  -1.10662 
 H                     0.       -0.93661  -1.10662 
 
                          Input orientation:                          
 ---------------------------------------------------------------------
 Center     Atomic      Atomic             Coordinates (Angstroms)
 Number     Number       Type             X           Y           Z
 ---------------------------------------------------------------------
      1          8           0        0.000000    0.000000    0.669252
      2          6           0        0.000000    0.000000   -0.526911
      3          1           0        0.000000    0.936614   -1.106620
      4          1           0        0.000000   -0.936614   -1.106620
 ---------------------------------------------------------------------
                    Distance matrix (angstroms):
                    1          2          3          4
     1  O    0.000000
     2  C    1.196163   0.000000
     3  H    2.007727   1.101503   0.000000
     4  H    2.007727   1.101503   1.873228   0.000000
 Symmetry turned off by external request.
 Stoichiometry    CH2O
 Framework group  C2V[C2(CO),SGV(H2)]
 Deg. of freedom     3
 Full point group                 C2V     NOp   4
 Rotational constants (GHZ):         285.8122051          39.4522052          34.6669399
 Standard basis: Aug-CC-pVTZ (5D, 7F)
   138 basis functions,   198 primitive gaussians,   160 cartesian basis functions
     8 alpha electrons        8 beta electrons
       nuclear repulsion energy        31.4995738172 Hartrees.
 NAtoms=    4 NActive=    4 NUniq=    4 SFac= 1.00D+00 NAtFMM=   60 NAOKFM=F Big=F
 Integral buffers will be    131072 words long.
 Raffenetti 1 integral format.
 Two-electron integral symmetry is turned off.
 One-electron integrals computed using PRISM.
 NBasis=   138 RedAO= T EigKep=  8.36D-05  NBF=   138
 NBsUse=   138 1.00D-06 EigRej= -1.00D+00 NBFU=   138
 ExpMin= 2.53D-02 ExpMax= 1.53D+04 ExpMxC= 5.22D+02 IAcc=3 IRadAn=         5 AccDes= 0.00D+00
 Harris functional with IExCor=  205 and IRadAn=       5 diagonalized for initial guess.
 HarFok:  IExCor=  205 AccDes= 0.00D+00 IRadAn=         5 IDoV= 1 UseB2=F ITyADJ=14
 ICtDFT=  3500011 ScaDFX=  1.000000  1.000000  1.000000  1.000000
 FoFCou: FMM=F IPFlag=           0 FMFlag=      100000 FMFlg1=           0
         NFxFlg=           0 DoJE=T BraDBF=F KetDBF=T FulRan=T
         wScrn=  0.000000 ICntrl=       500 IOpCl=  0 I1Cent=   200000004 NGrid=           0
         NMat0=    1 NMatS0=      1 NMatT0=    0 NMatD0=    1 NMtDS0=    0 NMtDT0=    0
 Symmetry not used in FoFCou.
 Keep R1 ints in memory in canonical form, NReq=53861992.
 Requested convergence on RMS density matrix=1.00D-08 within 128 cycles.
 Requested convergence on MAX density matrix=1.00D-06.
 Requested convergence on             energy=1.00D-06.
 No special actions if energy rises.
 SCF Done:  E(RHF) =  -113.914636962     A.U. after   11 cycles
            NFock= 11  Conv=0.27D-08     -V/T= 2.0015
 ExpMin= 2.53D-02 ExpMax= 1.53D+04 ExpMxC= 5.22D+02 IAcc=3 IRadAn=         5 AccDes= 0.00D+00
 HarFok:  IExCor=  205 AccDes= 0.00D+00 IRadAn=         5 IDoV=-2 UseB2=F ITyADJ=14
 ICtDFT= 12500011 ScaDFX=  1.000000  1.000000  1.000000  1.000000
 Range of M.O.s used for correlation:     3   138
 NBasis=   138 NAE=     8 NBE=     8 NFC=     2 NFV=     0
 NROrb=    136 NOA=     6 NOB=     6 NVA=   130 NVB=   130

 **** Warning!!: The largest alpha MO coefficient is  0.33411360D+02

 Semi-Direct transformation.
 ModeAB=           2 MOrb=             6 LenV=    2146847447
 LASXX=      7286295 LTotXX=     7286295 LenRXX=     7286295
 LTotAB=     7445736 MaxLAS=    10510080 LenRXY=    10510080
 NonZer=    14572590 LenScr=    22628352 LnRSAI=           0
 LnScr1=           0 LExtra=           0 Total=     40424727
 MaxDsk=          -1 SrtSym=           F ITran=            4
 JobTyp=0 Pass  1:  I=   1 to   6.
 (rs|ai) integrals will be sorted in core.
 Spin components of T(2) and E(2):
     alpha-alpha T2 =       0.1361812824D-01 E2=     -0.4789228260D-01
     alpha-beta  T2 =       0.8423960890D-01 E2=     -0.3055728095D+00
     beta-beta   T2 =       0.1361812824D-01 E2=     -0.4789228260D-01
 ANorm=    0.1054265557D+01
 E2 =    -0.4013573747D+00 EUMP2 =    -0.11431599433697D+03
 Keep R2 and R3 ints in memory in canonical form, NReq=99865420.
 CIDS: In Core Option IDoMem=           1.
 Iterations=  50 Convergence= 0.100D-07
 Produce multiple copies of IABC intergrals
 Iteration Nr.   1
 **********************
 DD1Dir will call FoFMem   1 times, MxPair=        42
 NAB=    21 NAA=     0 NBB=     0.
 MP4(R+Q)=  0.87763985D-02
 E3=       -0.44352339D-02        EUMP3=      -0.11432042957D+03
 E4(DQ)=   -0.12617083D-02        UMP4(DQ)=   -0.11432169128D+03
 E4(SDQ)=  -0.63735308D-02        UMP4(SDQ)=  -0.11432680310D+03
 DE(Corr)= -0.39701621     E(Corr)=     -114.31165317    
 NORM(A)=   0.10550775D+01
 Iteration Nr.   2
 **********************
 DD1Dir will call FoFMem   1 times, MxPair=        42
 NAB=    21 NAA=     0 NBB=     0.
 DE(Corr)= -0.41064700     E(CORR)=     -114.32528396     Delta=-1.36D-02
 NORM(A)=   0.10609892D+01
 Iteration Nr.   3
 **********************
 DD1Dir will call FoFMem   1 times, MxPair=        42
 NAB=    21 NAA=     0 NBB=     0.
 DE(Corr)= -0.41062596     E(CORR)=     -114.32526292     Delta= 2.10D-05
 NORM(A)=   0.10627891D+01
 Iteration Nr.   4
 **********************
 DD1Dir will call FoFMem   1 times, MxPair=        42
 NAB=    21 NAA=     0 NBB=     0.
 DE(Corr)= -0.41198375     E(CORR)=     -114.32662072     Delta=-1.36D-03
 NORM(A)=   0.10634273D+01
 Iteration Nr.   5
 **********************
 DD1Dir will call FoFMem   1 times, MxPair=        42
 NAB=    21 NAA=     0 NBB=     0.
 DE(Corr)= -0.41216097     E(CORR)=     -114.32679793     Delta=-1.77D-04
 NORM(A)=   0.10636255D+01
 Iteration Nr.   6
 **********************
 DD1Dir will call FoFMem   1 times, MxPair=        42
 NAB=    21 NAA=     0 NBB=     0.
 DE(Corr)= -0.41218524     E(CORR)=     -114.32682220     Delta=-2.43D-05
 NORM(A)=   0.10636487D+01
 Iteration Nr.   7
 **********************
 DD1Dir will call FoFMem   1 times, MxPair=        42
 NAB=    21 NAA=     0 NBB=     0.
 DE(Corr)= -0.41218636     E(CORR)=     -114.32682332     Delta=-1.12D-06
 NORM(A)=   0.10636496D+01
 Iteration Nr.   8
 **********************
 DD1Dir will call FoFMem   1 times, MxPair=        42
 NAB=    21 NAA=     0 NBB=     0.
 DE(Corr)= -0.41218554     E(CORR)=     -114.32682250     Delta= 8.23D-07
 NORM(A)=   0.10636522D+01
 Iteration Nr.   9
 **********************
 DD1Dir will call FoFMem   1 times, MxPair=        42
 NAB=    21 NAA=     0 NBB=     0.
 DE(Corr)= -0.41218452     E(CORR)=     -114.32682148     Delta= 1.02D-06
 NORM(A)=   0.10636525D+01
 Iteration Nr.  10
 **********************
 DD1Dir will call FoFMem   1 times, MxPair=        42
 NAB=    21 NAA=     0 NBB=     0.
 DE(Corr)= -0.41218510     E(CORR)=     -114.32682206     Delta=-5.79D-07
 NORM(A)=   0.10636531D+01
 Iteration Nr.  11
 **********************
 DD1Dir will call FoFMem   1 times, MxPair=        42
 NAB=    21 NAA=     0 NBB=     0.
 DE(Corr)= -0.41218522     E(CORR)=     -114.32682218     Delta=-1.24D-07
 NORM(A)=   0.10636534D+01
 Iteration Nr.  12
 **********************
 DD1Dir will call FoFMem   1 times, MxPair=        42
 NAB=    21 NAA=     0 NBB=     0.
 DE(Corr)= -0.41218536     E(CORR)=     -114.32682233     Delta=-1.44D-07
 NORM(A)=   0.10636536D+01
 Iteration Nr.  13
 **********************
 DD1Dir will call FoFMem   1 times, MxPair=        42
 NAB=    21 NAA=     0 NBB=     0.
 DE(Corr)= -0.41218542     E(CORR)=     -114.32682238     Delta=-5.54D-08
 NORM(A)=   0.10636537D+01
 Iteration Nr.  14
 **********************
 DD1Dir will call FoFMem   1 times, MxPair=        42
 NAB=    21 NAA=     0 NBB=     0.
 DE(Corr)= -0.41218545     E(CORR)=     -114.32682241     Delta=-2.87D-08
 NORM(A)=   0.10636537D+01
 Iteration Nr.  15
 **********************
 DD1Dir will call FoFMem   1 times, MxPair=        42
 NAB=    21 NAA=     0 NBB=     0.
 DE(Corr)= -0.41218545     E(CORR)=     -114.32682242     Delta=-4.48D-09
 NORM(A)=   0.10636537D+01
 Wavefunction amplitudes converged. E(Corr)=     -114.32682242    
 Largest amplitude= 6.39D-02

 Z-amplitude iterations

 Iteration Nr.   1
 **********************
 DD1Dir will call FoFMem   1 times, MxPair=        42
 NAB=    21 NAA=     0 NBB=     0.
 DE(Z)= -0.40033662     E(Z)=     -114.31497358     Delta= 1.18D-02
 NORM(A)=   0.10636534D+01
 Iteration Nr.   2
 **********************
 DD1Dir will call FoFMem   1 times, MxPair=        42
 NAB=    21 NAA=     0 NBB=     0.
 DE(Z)= -0.40033659     E(Z)=     -114.31497356     Delta= 2.09D-08
 NORM(A)=   0.10636542D+01
 Iteration Nr.   3
 **********************
 DD1Dir will call FoFMem   1 times, MxPair=        42
 NAB=    21 NAA=     0 NBB=     0.
 DE(Z)= -0.40033664     E(Z)=     -114.31497360     Delta=-4.54D-08
 NORM(A)=   0.10636504D+01
 Iteration Nr.   4
 **********************
 DD1Dir will call FoFMem   1 times, MxPair=        42
 NAB=    21 NAA=     0 NBB=     0.
 DE(Z)= -0.40033644     E(Z)=     -114.31497340     Delta= 2.04D-07
 NORM(A)=   0.10636524D+01
 Iteration Nr.   5
 **********************
 DD1Dir will call FoFMem   1 times, MxPair=        42
 NAB=    21 NAA=     0 NBB=     0.
 DE(Z)= -0.40033654     E(Z)=     -114.31497350     Delta=-1.04D-07
 NORM(A)=   0.10596764D+01
 Iteration Nr.   6
 **********************
 DD1Dir will call FoFMem   1 times, MxPair=        42
 NAB=    21 NAA=     0 NBB=     0.
 DE(Z)= -0.40010729     E(Z)=     -114.31474425     Delta= 2.29D-04
 NORM(A)=   0.10596761D+01
 Iteration Nr.   7
 **********************
 DD1Dir will call FoFMem   1 times, MxPair=        42
 NAB=    21 NAA=     0 NBB=     0.
 DE(Z)= -0.40011145     E(Z)=     -114.31474841     Delta=-4.16D-06
 NORM(A)=   0.10596740D+01
 Iteration Nr.   8
 **********************
 DD1Dir will call FoFMem   1 times, MxPair=        42
 NAB=    21 NAA=     0 NBB=     0.
 DE(Z)= -0.40011114     E(Z)=     -114.31474810     Delta= 3.09D-07
 NORM(A)=   0.10596738D+01
 Iteration Nr.   9
 **********************
 DD1Dir will call FoFMem   1 times, MxPair=        42
 NAB=    21 NAA=     0 NBB=     0.
 DE(Z)= -0.40011101     E(Z)=     -114.31474797     Delta= 1.33D-07
 NORM(A)=   0.10596737D+01
 Iteration Nr.  10
 **********************
 DD1Dir will call FoFMem   1 times, MxPair=        42
 NAB=    21 NAA=     0 NBB=     0.
 DE(Z)= -0.40011109     E(Z)=     -114.31474805     Delta=-7.96D-08
 NORM(A)=   0.10596737D+01
 Iteration Nr.  11
 **********************
 DD1Dir will call FoFMem   1 times, MxPair=        42
 NAB=    21 NAA=     0 NBB=     0.
 DE(Z)= -0.40011106     E(Z)=     -114.31474802     Delta= 2.99D-08
 NORM(A)=   0.10596738D+01
 Iteration Nr.  12
 **********************
 DD1Dir will call FoFMem   1 times, MxPair=        42
 NAB=    21 NAA=     0 NBB=     0.
 DE(Z)= -0.40011106     E(Z)=     -114.31474802     Delta=-5.66D-09
 NORM(A)=   0.10596738D+01
 Z-amplitudes converged.
 Discarding MO integrals.
          Differentiating once with respect to electric field.
                with respect to dipole field.
          Electric field/nuclear overlap derivatives assumed to be zero.
 Keep R1 ints in memory in canonical form, NReq=53863345.
          There are     1 degrees of freedom in the 1st order CPHF.  IDoFFX=0 NUNeed=     1.
 LinEq1:  Iter=  0 NonCon=     1 RMS=3.50D-03 Max=5.47D-02 NDo=     1
 AX will form     1 AO Fock derivatives at one time.
 LinEq1:  Iter=  1 NonCon=     1 RMS=8.82D-04 Max=8.47D-03 NDo=     1
 LinEq1:  Iter=  2 NonCon=     1 RMS=2.28D-04 Max=3.27D-03 NDo=     1
 LinEq1:  Iter=  3 NonCon=     1 RMS=1.11D-04 Max=1.16D-03 NDo=     1
 LinEq1:  Iter=  4 NonCon=     1 RMS=4.12D-05 Max=5.02D-04 NDo=     1
 LinEq1:  Iter=  5 NonCon=     1 RMS=8.61D-06 Max=8.04D-05 NDo=     1
 LinEq1:  Iter=  6 NonCon=     1 RMS=1.42D-06 Max=1.65D-05 NDo=     1
 LinEq1:  Iter=  7 NonCon=     1 RMS=2.14D-07 Max=1.56D-06 NDo=     1
 LinEq1:  Iter=  8 NonCon=     1 RMS=2.45D-08 Max=1.92D-07 NDo=     1
 LinEq1:  Iter=  9 NonCon=     1 RMS=2.94D-09 Max=2.34D-08 NDo=     1
 LinEq1:  Iter= 10 NonCon=     1 RMS=2.75D-10 Max=2.17D-09 NDo=     1
 LinEq1:  Iter= 11 NonCon=     0 RMS=2.50D-11 Max=2.31D-10 NDo=     1
 Linear equations converged to 1.000D-10 1.000D-09 after    11 iterations.
 End of Minotr F.D. properties file   721 does not exist.
 End of Minotr F.D. properties file   722 does not exist.
 End of Minotr F.D. properties file   788 does not exist.

 **********************************************************************

            Population analysis using the CC Density.

 **********************************************************************

 Alpha  occ. eigenvalues --  -20.57814 -11.34024  -1.41319  -0.86953  -0.69742
 Alpha  occ. eigenvalues --   -0.65504  -0.54142  -0.44235
 Alpha virt. eigenvalues --    0.02644   0.04180   0.06299   0.07642   0.13121
 Alpha virt. eigenvalues --    0.13320   0.13337   0.17422   0.19847   0.21144
 Alpha virt. eigenvalues --    0.21744   0.25441   0.25633   0.28163   0.32123
 Alpha virt. eigenvalues --    0.33808   0.33978   0.35898   0.38822   0.38968
 Alpha virt. eigenvalues --    0.39595   0.41958   0.48259   0.50015   0.56123
 Alpha virt. eigenvalues --    0.56872   0.66962   0.67692   0.72780   0.76353
 Alpha virt. eigenvalues --    0.81814   0.83404   0.84249   0.85672   0.87740
 Alpha virt. eigenvalues --    0.88331   0.92730   0.93440   0.93998   0.98185
 Alpha virt. eigenvalues --    1.00316   1.02175   1.02389   1.04142   1.06903
 Alpha virt. eigenvalues --    1.08291   1.09889   1.10280   1.25840   1.26913
 Alpha virt. eigenvalues --    1.30523   1.37322   1.38913   1.45897   1.47672
 Alpha virt. eigenvalues --    1.51443   1.57137   1.60198   1.62710   1.70626
 Alpha virt. eigenvalues --    1.73563   1.84218   1.96538   2.00684   2.03223
 Alpha virt. eigenvalues --    2.09015   2.18191   2.29054   2.32389   2.34406
 Alpha virt. eigenvalues --    2.34467   2.49203   2.49931   2.55997   2.61464
 Alpha virt. eigenvalues --    2.71800   2.78909   2.80974   2.92428   2.93386
 Alpha virt. eigenvalues --    3.06334   3.07222   3.14802   3.18706   3.41566
 Alpha virt. eigenvalues --    3.45078   3.52869   3.56842   3.63153   3.66130
 Alpha virt. eigenvalues --    3.70044   3.90011   3.95597   4.06456   4.12525
 Alpha virt. eigenvalues --    4.17102   4.17448   4.22775   4.25439   4.36708
 Alpha virt. eigenvalues --    4.60038   4.65078   4.68970   4.77997   5.03889
 Alpha virt. eigenvalues --    5.06368   5.11626   5.18168   5.25203   5.28775
 Alpha virt. eigenvalues --    5.33196   5.39199   5.88790   6.14657   6.23811
 Alpha virt. eigenvalues --    6.50296   6.59899   6.62053   6.92109   6.95968
 Alpha virt. eigenvalues --    7.10567   7.19447   7.20913   7.42513   7.52575
 Alpha virt. eigenvalues --    7.69606   7.73542   7.78620  15.18843  16.43671
          Condensed to atoms (all electrons):
               1          2          3          4
     1  O    8.193886   0.353012  -0.065020  -0.065020
     2  C    0.353012   5.716312   0.207190   0.207190
     3  H   -0.065020   0.207190   0.437711  -0.030162
     4  H   -0.065020   0.207190  -0.030162   0.437711
 Mulliken charges:
               1
     1  O   -0.416859
     2  C   -0.483703
     3  H    0.450281
     4  H    0.450281
 Sum of Mulliken charges =  -0.00000
 Mulliken charges with hydrogens summed into heavy atoms:
               1
     1  O   -0.416859
     2  C    0.416859
 Electronic spatial extent (au):  <R**2>=             60.2261
 Charge=             -0.0000 electrons
 Dipole moment (field-independent basis, Debye):
    X=             -0.0000    Y=              0.0000    Z=             -2.4001  Tot=              2.4001
 Quadrupole moment (field-independent basis, Debye-Ang):
   XX=            -11.7083   YY=            -11.6207   ZZ=            -12.2739
   XY=              0.0000   XZ=              0.0000   YZ=             -0.0000
 Traceless Quadrupole moment (field-independent basis, Debye-Ang):
   XX=              0.1594   YY=              0.2469   ZZ=             -0.4063
   XY=              0.0000   XZ=              0.0000   YZ=             -0.0000
 Octapole moment (field-independent basis, Debye-Ang**2):
  XXX=              0.0000  YYY=              0.0000  ZZZ=              0.5717  XYY=              0.0000
  XXY=              0.0000  XXZ=              0.6480  XZZ=              0.0000  YZZ=              0.0000
  YYZ=             -0.5846  XYZ=             -0.0000
 Hexadecapole moment (field-independent basis, Debye-Ang**3):
 XXXX=            -10.4517 YYYY=            -18.2910 ZZZZ=            -45.8721 XXXY=              0.0000
 XXXZ=              0.0000 YYYX=              0.0000 YYYZ=             -0.0000 ZZZX=             -0.0000
 ZZZY=             -0.0000 XXYY=             -5.1463 XXZZ=             -9.3162 YYZZ=            -10.4289
 XXYZ=             -0.0000 YYXZ=             -0.0000 ZZXY=              0.0000
 N-N= 3.149957381722D+01 E-N=-3.317729391877D+02  KE= 1.142716462934D+02
 There are a total of       93160 grid points.
 ElSum from          density=       15.9999998973
 ElSum from atomic densities=       15.9999998040

 Hirshfeld populations at iteration   1 (CX, CA, CB, DipXYZ):
               1          2          3          4          5          6
     1  O    0.000003   4.110018   4.110018   0.000000  -0.000000  -0.108546
     2  C    0.000000   2.933072   2.933072   0.000000  -0.000000  -0.094942
     3  H    0.000001   0.478455   0.478455  -0.000000   0.112192  -0.074494
     4  H    0.000001   0.478455   0.478455  -0.000000  -0.112192  -0.074494
       Tot   0.000004   8.000000   8.000000   0.000000   0.000000  -0.352475

 Dip from Atomic Chgs              0.000000   0.000000  -0.591785
         Total Dipole              0.000000   0.000000  -0.944260

 Hirshfeld charges, spin densities, dipoles, and CM5 charges using IRadAn=      5:
              Q-H        S-H        Dx         Dy         Dz        Q-CM5   
     1  O   -0.220036   0.000000   0.000000  -0.000000  -0.108546  -0.282855
     2  C    0.133856   0.000000   0.000000  -0.000000  -0.094942   0.078783
     3  H    0.043090   0.000000  -0.000000   0.112192  -0.074494   0.102036
     4  H    0.043090   0.000000  -0.000000  -0.112192  -0.074494   0.102036
       Tot   0.000000   0.000000   0.000000   0.000000  -0.352475   0.000000
 Hirshfeld charges with hydrogens summed into heavy atoms:
              Q-H       Q-CM5   
     1  O   -0.220036  -0.282855
     2  C    0.220036   0.282855
 
 EQQ= 0.000000000000E+00 EQD= 0.000000000000E+00 EDD= 0.259812808883E-02
 EQQ+QD+DD= 0.259812808883E-02
 
 Breneman (CHELPG) radii used.
 Generate Potential Derived Charges using the Breneman model, NDens= 1.
 Grid spacing= 0.300 Box extension= 2.800
 NStep X,Y,Z=   20     26     26   Total possible points=       13520
 Number of Points to Fit=    4872

 **********************************************************************

            Electrostatic Properties Using The CC Density.

 **********************************************************************

       Atomic Center    1 is at   0.000000  0.000000  0.669252
       Atomic Center    2 is at   0.000000  0.000000 -0.526911
       Atomic Center    3 is at   0.000000  0.936614 -1.106620
       Atomic Center    4 is at   0.000000 -0.936614 -1.106620
    4872 points will be used for fitting atomic charges
 Fitting point charges to electrostatic potential
 The dipole moment will be constrained to the correct value
 Charges from ESP fit, RMS=   0.00231 RRMS=   0.12068:
 ESP charges:
               1
     1  O   -0.428082
     2  C    0.449430
     3  H   -0.010674
     4  H   -0.010674
 Sum of ESP charges =   0.00000
 ESP charges with hydrogens summed into heavy atoms:
               1
     1  O   -0.428082
     2  C    0.428082
 Charge=   0.00000 Dipole=     0.0000     0.0000    -2.4001 Tot=     2.4001
 -----------------------------------------------------------------

              Electrostatic Properties (Atomic Units)

 -----------------------------------------------------------------
    Center     Electric         -------- Electric Field --------
               Potential          X             Y             Z
 -----------------------------------------------------------------
    1 Atom    -22.326950
    2 Atom    -14.666280
    3 Atom     -1.080247
    4 Atom     -1.080247
 -----------------------------------------------------------------
 ******************************Gaussian NBO Version 3.1******************************
             N A T U R A L   A T O M I C   O R B I T A L   A N D
          N A T U R A L   B O N D   O R B I T A L   A N A L Y S I S
 ******************************Gaussian NBO Version 3.1******************************
       /RESON  / : Allow strongly delocalized NBO set

 Analyzing the QCI/CC density

 Job title: h2co-wavefunction                                               

 Storage needed:     57804 in NPA (2147483536 available)
 GSVD:  LWork=       -1756 too small for GESVD, short by       42456 words or       42456 for optimal perf.


 NATURAL POPULATIONS:  Natural atomic orbital occupancies 
                                                          
   NAO  Atom  No  lang   Type(AO)    Occupancy
 --------------------------------------------
     1    O    1  S      Cor( 1S)     1.99959
     2    O    1  S      Val( 2S)     1.69721
     3    O    1  S      Ryd( 3S)     0.01026
     4    O    1  S      Ryd( 4S)     0.00089
     5    O    1  S      Ryd( 5S)     0.00020
     6    O    1  px     Val( 2p)     1.28826
     7    O    1  px     Ryd( 3p)     0.00655
     8    O    1  px     Ryd( 4p)     0.00051
     9    O    1  px     Ryd( 5p)     0.00003
    10    O    1  py     Val( 2p)     1.85048
    11    O    1  py     Ryd( 3p)     0.01600
    12    O    1  py     Ryd( 4p)     0.00080
    13    O    1  py     Ryd( 5p)     0.00008
    14    O    1  pz     Val( 2p)     1.54989
    15    O    1  pz     Ryd( 3p)     0.00671
    16    O    1  pz     Ryd( 4p)     0.00047
    17    O    1  pz     Ryd( 5p)     0.00013
    18    O    1  dxy    Ryd( 3d)     0.00566
    19    O    1  dxy    Ryd( 4d)     0.00046
    20    O    1  dxy    Ryd( 5d)     0.00007
    21    O    1  dxz    Ryd( 3d)     0.00989
    22    O    1  dxz    Ryd( 4d)     0.00033
    23    O    1  dxz    Ryd( 5d)     0.00009
    24    O    1  dyz    Ryd( 3d)     0.00939
    25    O    1  dyz    Ryd( 4d)     0.00045
    26    O    1  dyz    Ryd( 5d)     0.00019
    27    O    1  dx2y2  Ryd( 3d)     0.00555
    28    O    1  dx2y2  Ryd( 4d)     0.00046
    29    O    1  dx2y2  Ryd( 5d)     0.00007
    30    O    1  dz2    Ryd( 3d)     0.01920
    31    O    1  dz2    Ryd( 4d)     0.00039
    32    O    1  dz2    Ryd( 5d)     0.00009
    33    O    1  f(0)   Ryd( 4f)     0.00087
    34    O    1  f(0)   Ryd( 5f)     0.00010
    35    O    1  f(C1)  Ryd( 4f)     0.00051
    36    O    1  f(C1)  Ryd( 5f)     0.00009
    37    O    1  f(S1)  Ryd( 4f)     0.00060
    38    O    1  f(S1)  Ryd( 5f)     0.00014
    39    O    1  f(C2)  Ryd( 4f)     0.00049
    40    O    1  f(C2)  Ryd( 5f)     0.00008
    41    O    1  f(S2)  Ryd( 4f)     0.00050
    42    O    1  f(S2)  Ryd( 5f)     0.00008
    43    O    1  f(C3)  Ryd( 4f)     0.00049
    44    O    1  f(C3)  Ryd( 5f)     0.00006
    45    O    1  f(S3)  Ryd( 4f)     0.00049
    46    O    1  f(S3)  Ryd( 5f)     0.00006

    47    C    2  S      Cor( 1S)     1.99948
    48    C    2  S      Val( 2S)     1.02353
    49    C    2  S      Ryd( 3S)     0.01405
    50    C    2  S      Ryd( 4S)     0.00020
    51    C    2  S      Ryd( 5S)     0.00009
    52    C    2  px     Val( 2p)     0.68981
    53    C    2  px     Ryd( 3p)     0.00351
    54    C    2  px     Ryd( 4p)     0.00018
    55    C    2  px     Ryd( 5p)     0.00008
    56    C    2  py     Val( 2p)     1.07118
    57    C    2  py     Ryd( 3p)     0.00445
    58    C    2  py     Ryd( 4p)     0.00037
    59    C    2  py     Ryd( 5p)     0.00006
    60    C    2  pz     Val( 2p)     0.83887
    61    C    2  pz     Ryd( 3p)     0.01304
    62    C    2  pz     Ryd( 4p)     0.00015
    63    C    2  pz     Ryd( 5p)     0.00010
    64    C    2  dxy    Ryd( 3d)     0.00487
    65    C    2  dxy    Ryd( 5d)     0.00012
    66    C    2  dxy    Ryd( 4d)     0.00013
    67    C    2  dxz    Ryd( 3d)     0.00490
    68    C    2  dxz    Ryd( 4d)     0.00022
    69    C    2  dxz    Ryd( 5d)     0.00015
    70    C    2  dyz    Ryd( 3d)     0.01177
    71    C    2  dyz    Ryd( 4d)     0.00046
    72    C    2  dyz    Ryd( 5d)     0.00036
    73    C    2  dx2y2  Ryd( 3d)     0.00479
    74    C    2  dx2y2  Ryd( 4d)     0.00017
    75    C    2  dx2y2  Ryd( 5d)     0.00006
    76    C    2  dz2    Ryd( 3d)     0.00484
    77    C    2  dz2    Ryd( 4d)     0.00031
    78    C    2  dz2    Ryd( 5d)     0.00010
    79    C    2  f(0)   Ryd( 4f)     0.00041
    80    C    2  f(0)   Ryd( 5f)     0.00010
    81    C    2  f(C1)  Ryd( 4f)     0.00032
    82    C    2  f(C1)  Ryd( 5f)     0.00009
    83    C    2  f(S1)  Ryd( 4f)     0.00049
    84    C    2  f(S1)  Ryd( 5f)     0.00009
    85    C    2  f(C2)  Ryd( 4f)     0.00052
    86    C    2  f(C2)  Ryd( 5f)     0.00012
    87    C    2  f(S2)  Ryd( 4f)     0.00046
    88    C    2  f(S2)  Ryd( 5f)     0.00010
    89    C    2  f(C3)  Ryd( 4f)     0.00038
    90    C    2  f(C3)  Ryd( 5f)     0.00014
    91    C    2  f(S3)  Ryd( 4f)     0.00046
    92    C    2  f(S3)  Ryd( 5f)     0.00011

    93    H    3  S      Val( 1S)     0.89957
    94    H    3  S      Ryd( 2S)     0.00288
    95    H    3  S      Ryd( 3S)     0.00009
    96    H    3  S      Ryd( 4S)     0.00005
    97    H    3  px     Ryd( 2p)     0.00129
    98    H    3  px     Ryd( 3p)     0.00035
    99    H    3  px     Ryd( 4p)     0.00007
   100    H    3  py     Ryd( 2p)     0.00145
   101    H    3  py     Ryd( 3p)     0.00042
   102    H    3  py     Ryd( 4p)     0.00011
   103    H    3  pz     Ryd( 2p)     0.00168
   104    H    3  pz     Ryd( 3p)     0.00040
   105    H    3  pz     Ryd( 4p)     0.00010
   106    H    3  dxy    Ryd( 3d)     0.00007
   107    H    3  dxy    Ryd( 4d)     0.00007
   108    H    3  dxz    Ryd( 3d)     0.00007
   109    H    3  dxz    Ryd( 4d)     0.00004
   110    H    3  dyz    Ryd( 3d)     0.00020
   111    H    3  dyz    Ryd( 4d)     0.00006
   112    H    3  dx2y2  Ryd( 3d)     0.00025
   113    H    3  dx2y2  Ryd( 4d)     0.00007
   114    H    3  dz2    Ryd( 3d)     0.00007
   115    H    3  dz2    Ryd( 4d)     0.00004

   116    H    4  S      Val( 1S)     0.89957
   117    H    4  S      Ryd( 2S)     0.00288
   118    H    4  S      Ryd( 3S)     0.00009
   119    H    4  S      Ryd( 4S)     0.00005
   120    H    4  px     Ryd( 2p)     0.00129
   121    H    4  px     Ryd( 3p)     0.00035
   122    H    4  px     Ryd( 4p)     0.00007
   123    H    4  py     Ryd( 2p)     0.00145
   124    H    4  py     Ryd( 3p)     0.00042
   125    H    4  py     Ryd( 4p)     0.00011
   126    H    4  pz     Ryd( 2p)     0.00168
   127    H    4  pz     Ryd( 3p)     0.00040
   128    H    4  pz     Ryd( 4p)     0.00010
   129    H    4  dxy    Ryd( 3d)     0.00007
   130    H    4  dxy    Ryd( 4d)     0.00007
   131    H    4  dxz    Ryd( 3d)     0.00007
   132    H    4  dxz    Ryd( 4d)     0.00004
   133    H    4  dyz    Ryd( 3d)     0.00020
   134    H    4  dyz    Ryd( 4d)     0.00006
   135    H    4  dx2y2  Ryd( 3d)     0.00025
   136    H    4  dx2y2  Ryd( 4d)     0.00007
   137    H    4  dz2    Ryd( 3d)     0.00007
   138    H    4  dz2    Ryd( 4d)     0.00004


 Summary of Natural Population Analysis:                  
                                                          
                                       Natural Population 
                Natural  -----------------------------------------------
    Atom  No    Charge         Core      Valence    Rydberg      Total
 -----------------------------------------------------------------------
      O    1   -0.48492      1.99959     6.38585    0.09947     8.48492
      C    2    0.30378      1.99948     3.62339    0.07336     5.69622
      H    3    0.09057      0.00000     0.89957    0.00986     0.90943
      H    4    0.09057      0.00000     0.89957    0.00986     0.90943
 =======================================================================
   * Total *   -0.00000      3.99907    11.80838    0.19255    16.00000

                                 Natural Population      
 --------------------------------------------------------
   Core                       3.99907 ( 99.9768% of   4)
   Valence                   11.80838 ( 98.4031% of  12)
   Natural Minimal Basis     15.80745 ( 98.7966% of  16)
   Natural Rydberg Basis      0.19255 (  1.2034% of  16)
 --------------------------------------------------------

    Atom  No          Natural Electron Configuration
 ----------------------------------------------------------------------------
      O    1      [core]2S( 1.70)2p( 4.69)3S( 0.01)3p( 0.03)3d( 0.05)
      C    2      [core]2S( 1.02)2p( 2.60)3S( 0.01)3p( 0.02)3d( 0.03)
      H    3            1S( 0.90)
      H    4            1S( 0.90)


 NBO analysis skipped by request.
 Unable to Open any file for archive entry.
 1\1\GINC-TRAPISTA\SP\RQCISD-FC\Aug-CC-pVTZ\C1H2O1\WAGNER\02-Sep-2022\0
 \\# qcisd/aug-cc-pvtz nosymm density=current pop=(chelpg,hirshfeld,npa
 ,dipole)\\h2co-wavefunction\\0,1\O,0,0.,0.,0.669252\C,0,0.,0.,-0.52691
 1\H,0,0.,0.936614,-1.10662\H,0,0.,-0.936614,-1.10662\\Version=EM64L-G1
 6RevC.01\HF=-113.914637\MP2=-114.3159943\MP3=-114.3204296\MP4D=-114.33
 04677\MP4DQ=-114.3216913\MP4SDQ=-114.3268031\QCISD=-114.3268224\RMSD=2
 .738e-09\Dipole=0.,0.,-0.9442603\Quadrupole=0.1184764,0.1835923,-0.302
 0687,0.,0.,0.\PG=C02V [C2(C1O1),SGV(H2)]\\@
 The archive entry for this job was punched.


 BULLDOZER: SOMEONE WHO SLEEPS THROUGH SPEECHES.
 Job cpu time:       0 days  1 hours 25 minutes 19.3 seconds.
 Elapsed time:       0 days  0 hours  5 minutes 23.9 seconds.
 File lengths (MBytes):  RWF=   6915 Int=      0 D2E=      0 Chk=      3 Scr=      1
 Normal termination of Gaussian 16 at Fri Sep  2 18:32:44 2022.
