 Entering Gaussian System, Link 0=/home/wagner/chemistry/gaussian/g16/g16
 Input=GAUSSIAN.com
 Output=GAUSSIAN.log
 Initial command:
 /home/wagner/chemistry/gaussian/g16/l1.exe "/home/wagner/chemistry/gaussian/work/Gau-63158.inp" -scrdir="/home/wagner/chemistry/gaussian/work/"
 Entering Link 1 = /home/wagner/chemistry/gaussian/g16/l1.exe PID=     63160.
  
 Copyright (c) 1988-2019, Gaussian, Inc.  All Rights Reserved.
  
 This is part of the Gaussian(R) 16 program.  It is based on
 the Gaussian(R) 09 system (copyright 2009, Gaussian, Inc.),
 the Gaussian(R) 03 system (copyright 2003, Gaussian, Inc.),
 the Gaussian(R) 98 system (copyright 1998, Gaussian, Inc.),
 the Gaussian(R) 94 system (copyright 1995, Gaussian, Inc.),
 the Gaussian 92(TM) system (copyright 1992, Gaussian, Inc.),
 the Gaussian 90(TM) system (copyright 1990, Gaussian, Inc.),
 the Gaussian 88(TM) system (copyright 1988, Gaussian, Inc.),
 the Gaussian 86(TM) system (copyright 1986, Carnegie Mellon
 University), and the Gaussian 82(TM) system (copyright 1983,
 Carnegie Mellon University). Gaussian is a federally registered
 trademark of Gaussian, Inc.
  
 This software contains proprietary and confidential information,
 including trade secrets, belonging to Gaussian, Inc.
  
 This software is provided under written license and may be
 used, copied, transmitted, or stored only in accord with that
 written license.
  
 The following legend is applicable only to US Government
 contracts under FAR:
  
                    RESTRICTED RIGHTS LEGEND
  
 Use, reproduction and disclosure by the US Government is
 subject to restrictions as set forth in subparagraphs (a)
 and (c) of the Commercial Computer Software - Restricted
 Rights clause in FAR 52.227-19.
  
 Gaussian, Inc.
 340 Quinnipiac St., Bldg. 40, Wallingford CT 06492
  
  
 ---------------------------------------------------------------
 Warning -- This program may not be used in any manner that
 competes with the business of Gaussian, Inc. or will provide
 assistance to any competitor of Gaussian, Inc.  The licensee
 of this program is prohibited from giving any competitor of
 Gaussian, Inc. access to this program.  By using this program,
 the user acknowledges that Gaussian, Inc. is engaged in the
 business of creating and licensing software in the field of
 computational chemistry and represents and warrants to the
 licensee that it is not a competitor of Gaussian, Inc. and that
 it will not use this program in any manner prohibited above.
 ---------------------------------------------------------------
  

 Cite this work as:
 Gaussian 16, Revision C.01,
 M. J. Frisch, G. W. Trucks, H. B. Schlegel, G. E. Scuseria, 
 M. A. Robb, J. R. Cheeseman, G. Scalmani, V. Barone, 
 G. A. Petersson, H. Nakatsuji, X. Li, M. Caricato, A. V. Marenich, 
 J. Bloino, B. G. Janesko, R. Gomperts, B. Mennucci, H. P. Hratchian, 
 J. V. Ortiz, A. F. Izmaylov, J. L. Sonnenberg, D. Williams-Young, 
 F. Ding, F. Lipparini, F. Egidi, J. Goings, B. Peng, A. Petrone, 
 T. Henderson, D. Ranasinghe, V. G. Zakrzewski, J. Gao, N. Rega, 
 G. Zheng, W. Liang, M. Hada, M. Ehara, K. Toyota, R. Fukuda, 
 J. Hasegawa, M. Ishida, T. Nakajima, Y. Honda, O. Kitao, H. Nakai, 
 T. Vreven, K. Throssell, J. A. Montgomery, Jr., J. E. Peralta, 
 F. Ogliaro, M. J. Bearpark, J. J. Heyd, E. N. Brothers, K. N. Kudin, 
 V. N. Staroverov, T. A. Keith, R. Kobayashi, J. Normand, 
 K. Raghavachari, A. P. Rendell, J. C. Burant, S. S. Iyengar, 
 J. Tomasi, M. Cossi, J. M. Millam, M. Klene, C. Adamo, R. Cammi, 
 J. W. Ochterski, R. L. Martin, K. Morokuma, O. Farkas, 
 J. B. Foresman, and D. J. Fox, Gaussian, Inc., Wallingford CT, 2019.
 
 ******************************************
 Gaussian 16:  EM64L-G16RevC.01  3-Jul-2019
                 2-Sep-2022 
 ******************************************
 %nproc=16
 Will use up to   16 processors via shared memory.
 %mem=16GB
 ----------------------------------------------------------------------
 # qcisd/aug-cc-pvtz nosymm density=current pop=(chelpg,hirshfeld,npa,d
 ipole)
 ----------------------------------------------------------------------
 1/30=1,38=1,172=1/1;
 2/12=2,15=1,17=6,18=5,40=1/2;
 3/5=16,6=1,7=10,11=9,25=1,30=1,71=1/1,2,3;
 4//1;
 5/5=2,38=5/2;
 8/6=4,9=120000,10=1/1,4;
 9/5=8,15=1/13;
 11/28=-7,31=1,32=3,42=3/11;
 10/5=6,13=10,31=1/2;
 6/7=2,8=2,9=2,10=2,15=24,20=3,22=-1,40=-1,79=1/1,2,7;
 99/5=1,9=1/99;
 -----------------
 h2co-wavefunction
 -----------------
 Symbolic Z-matrix:
 Charge =  0 Multiplicity = 1
 O                     0.        0.        0.68925 
 C                     0.        0.       -0.52691 
 H                     0.        0.93661  -1.10662 
 H                     0.       -0.93661  -1.10662 
 
                          Input orientation:                          
 ---------------------------------------------------------------------
 Center     Atomic      Atomic             Coordinates (Angstroms)
 Number     Number       Type             X           Y           Z
 ---------------------------------------------------------------------
      1          8           0        0.000000    0.000000    0.689252
      2          6           0        0.000000    0.000000   -0.526911
      3          1           0        0.000000    0.936614   -1.106620
      4          1           0        0.000000   -0.936614   -1.106620
 ---------------------------------------------------------------------
                    Distance matrix (angstroms):
                    1          2          3          4
     1  O    0.000000
     2  C    1.216163   0.000000
     3  H    2.025439   1.101503   0.000000
     4  H    2.025439   1.101503   1.873228   0.000000
 Symmetry turned off by external request.
 Stoichiometry    CH2O
 Framework group  C2V[C2(CO),SGV(H2)]
 Deg. of freedom     3
 Full point group                 C2V     NOp   4
 Rotational constants (GHZ):         285.8122051          38.3001633          33.7742560
 Standard basis: Aug-CC-pVTZ (5D, 7F)
   138 basis functions,   198 primitive gaussians,   160 cartesian basis functions
     8 alpha electrons        8 beta electrons
       nuclear repulsion energy        31.1134834535 Hartrees.
 NAtoms=    4 NActive=    4 NUniq=    4 SFac= 1.00D+00 NAtFMM=   60 NAOKFM=F Big=F
 Integral buffers will be    131072 words long.
 Raffenetti 1 integral format.
 Two-electron integral symmetry is turned off.
 One-electron integrals computed using PRISM.
 NBasis=   138 RedAO= T EigKep=  8.51D-05  NBF=   138
 NBsUse=   138 1.00D-06 EigRej= -1.00D+00 NBFU=   138
 ExpMin= 2.53D-02 ExpMax= 1.53D+04 ExpMxC= 5.22D+02 IAcc=3 IRadAn=         5 AccDes= 0.00D+00
 Harris functional with IExCor=  205 and IRadAn=       5 diagonalized for initial guess.
 HarFok:  IExCor=  205 AccDes= 0.00D+00 IRadAn=         5 IDoV= 1 UseB2=F ITyADJ=14
 ICtDFT=  3500011 ScaDFX=  1.000000  1.000000  1.000000  1.000000
 FoFCou: FMM=F IPFlag=           0 FMFlag=      100000 FMFlg1=           0
         NFxFlg=           0 DoJE=T BraDBF=F KetDBF=T FulRan=T
         wScrn=  0.000000 ICntrl=       500 IOpCl=  0 I1Cent=   200000004 NGrid=           0
         NMat0=    1 NMatS0=      1 NMatT0=    0 NMatD0=    1 NMtDS0=    0 NMtDT0=    0
 Symmetry not used in FoFCou.
 Keep R1 ints in memory in canonical form, NReq=53861963.
 Requested convergence on RMS density matrix=1.00D-08 within 128 cycles.
 Requested convergence on MAX density matrix=1.00D-06.
 Requested convergence on             energy=1.00D-06.
 No special actions if energy rises.
 SCF Done:  E(RHF) =  -113.912700461     A.U. after   11 cycles
            NFock= 11  Conv=0.31D-08     -V/T= 2.0022
 ExpMin= 2.53D-02 ExpMax= 1.53D+04 ExpMxC= 5.22D+02 IAcc=3 IRadAn=         5 AccDes= 0.00D+00
 HarFok:  IExCor=  205 AccDes= 0.00D+00 IRadAn=         5 IDoV=-2 UseB2=F ITyADJ=14
 ICtDFT= 12500011 ScaDFX=  1.000000  1.000000  1.000000  1.000000
 Range of M.O.s used for correlation:     3   138
 NBasis=   138 NAE=     8 NBE=     8 NFC=     2 NFV=     0
 NROrb=    136 NOA=     6 NOB=     6 NVA=   130 NVB=   130

 **** Warning!!: The largest alpha MO coefficient is  0.34179425D+02

 Semi-Direct transformation.
 ModeAB=           2 MOrb=             6 LenV=    2146847489
 LASXX=      7286295 LTotXX=     7286295 LenRXX=     7286295
 LTotAB=     7445736 MaxLAS=    10510080 LenRXY=    10510080
 NonZer=    14572590 LenScr=    22628352 LnRSAI=           0
 LnScr1=           0 LExtra=           0 Total=     40424727
 MaxDsk=          -1 SrtSym=           F ITran=            4
 JobTyp=0 Pass  1:  I=   1 to   6.
 (rs|ai) integrals will be sorted in core.
 Spin components of T(2) and E(2):
     alpha-alpha T2 =       0.1390574626D-01 E2=     -0.4819337537D-01
     alpha-beta  T2 =       0.8588361747D-01 E2=     -0.3073036234D+00
     beta-beta   T2 =       0.1390574626D-01 E2=     -0.4819337537D-01
 ANorm=    0.1055317540D+01
 E2 =    -0.4036903741D+00 EUMP2 =    -0.11431639083463D+03
 Keep R2 and R3 ints in memory in canonical form, NReq=99865391.
 CIDS: In Core Option IDoMem=           1.
 Iterations=  50 Convergence= 0.100D-07
 Produce multiple copies of IABC intergrals
 Iteration Nr.   1
 **********************
 DD1Dir will call FoFMem   1 times, MxPair=        42
 NAB=    21 NAA=     0 NBB=     0.
 MP4(R+Q)=  0.89710174D-02
 E3=       -0.35914393D-02        EUMP3=      -0.11431998227D+03
 E4(DQ)=   -0.14404776D-02        UMP4(DQ)=   -0.11432142275D+03
 E4(SDQ)=  -0.68578701D-02        UMP4(SDQ)=  -0.11432684014D+03
 DE(Corr)= -0.39831080     E(Corr)=     -114.31101126    
 NORM(A)=   0.10558885D+01
 Iteration Nr.   2
 **********************
 DD1Dir will call FoFMem   1 times, MxPair=        42
 NAB=    21 NAA=     0 NBB=     0.
 DE(Corr)= -0.41257475     E(CORR)=     -114.32527521     Delta=-1.43D-02
 NORM(A)=   0.10620891D+01
 Iteration Nr.   3
 **********************
 DD1Dir will call FoFMem   1 times, MxPair=        42
 NAB=    21 NAA=     0 NBB=     0.
 DE(Corr)= -0.41244738     E(CORR)=     -114.32514784     Delta= 1.27D-04
 NORM(A)=   0.10640679D+01
 Iteration Nr.   4
 **********************
 DD1Dir will call FoFMem   1 times, MxPair=        42
 NAB=    21 NAA=     0 NBB=     0.
 DE(Corr)= -0.41390444     E(CORR)=     -114.32660490     Delta=-1.46D-03
 NORM(A)=   0.10647927D+01
 Iteration Nr.   5
 **********************
 DD1Dir will call FoFMem   1 times, MxPair=        42
 NAB=    21 NAA=     0 NBB=     0.
 DE(Corr)= -0.41410292     E(CORR)=     -114.32680338     Delta=-1.98D-04
 NORM(A)=   0.10650261D+01
 Iteration Nr.   6
 **********************
 DD1Dir will call FoFMem   1 times, MxPair=        42
 NAB=    21 NAA=     0 NBB=     0.
 DE(Corr)= -0.41413064     E(CORR)=     -114.32683110     Delta=-2.77D-05
 NORM(A)=   0.10650538D+01
 Iteration Nr.   7
 **********************
 DD1Dir will call FoFMem   1 times, MxPair=        42
 NAB=    21 NAA=     0 NBB=     0.
 DE(Corr)= -0.41413194     E(CORR)=     -114.32683240     Delta=-1.30D-06
 NORM(A)=   0.10650552D+01
 Iteration Nr.   8
 **********************
 DD1Dir will call FoFMem   1 times, MxPair=        42
 NAB=    21 NAA=     0 NBB=     0.
 DE(Corr)= -0.41413101     E(CORR)=     -114.32683147     Delta= 9.30D-07
 NORM(A)=   0.10650582D+01
 Iteration Nr.   9
 **********************
 DD1Dir will call FoFMem   1 times, MxPair=        42
 NAB=    21 NAA=     0 NBB=     0.
 DE(Corr)= -0.41412979     E(CORR)=     -114.32683025     Delta= 1.22D-06
 NORM(A)=   0.10650585D+01
 Iteration Nr.  10
 **********************
 DD1Dir will call FoFMem   1 times, MxPair=        42
 NAB=    21 NAA=     0 NBB=     0.
 DE(Corr)= -0.41413046     E(CORR)=     -114.32683092     Delta=-6.66D-07
 NORM(A)=   0.10650591D+01
 Iteration Nr.  11
 **********************
 DD1Dir will call FoFMem   1 times, MxPair=        42
 NAB=    21 NAA=     0 NBB=     0.
 DE(Corr)= -0.41413060     E(CORR)=     -114.32683106     Delta=-1.40D-07
 NORM(A)=   0.10650595D+01
 Iteration Nr.  12
 **********************
 DD1Dir will call FoFMem   1 times, MxPair=        42
 NAB=    21 NAA=     0 NBB=     0.
 DE(Corr)= -0.41413076     E(CORR)=     -114.32683122     Delta=-1.66D-07
 NORM(A)=   0.10650597D+01
 Iteration Nr.  13
 **********************
 DD1Dir will call FoFMem   1 times, MxPair=        42
 NAB=    21 NAA=     0 NBB=     0.
 DE(Corr)= -0.41413083     E(CORR)=     -114.32683129     Delta=-6.72D-08
 NORM(A)=   0.10650598D+01
 Iteration Nr.  14
 **********************
 DD1Dir will call FoFMem   1 times, MxPair=        42
 NAB=    21 NAA=     0 NBB=     0.
 DE(Corr)= -0.41413087     E(CORR)=     -114.32683133     Delta=-3.45D-08
 NORM(A)=   0.10650599D+01
 Iteration Nr.  15
 **********************
 DD1Dir will call FoFMem   1 times, MxPair=        42
 NAB=    21 NAA=     0 NBB=     0.
 DE(Corr)= -0.41413087     E(CORR)=     -114.32683133     Delta=-5.26D-09
 NORM(A)=   0.10650599D+01
 Wavefunction amplitudes converged. E(Corr)=     -114.32683133    
 Largest amplitude= 6.47D-02

 Z-amplitude iterations

 Iteration Nr.   1
 **********************
 DD1Dir will call FoFMem   1 times, MxPair=        42
 NAB=    21 NAA=     0 NBB=     0.
 DE(Z)= -0.40190488     E(Z)=     -114.31460534     Delta= 1.22D-02
 NORM(A)=   0.10650593D+01
 Iteration Nr.   2
 **********************
 DD1Dir will call FoFMem   1 times, MxPair=        42
 NAB=    21 NAA=     0 NBB=     0.
 DE(Z)= -0.40190485     E(Z)=     -114.31460531     Delta= 3.31D-08
 NORM(A)=   0.10650546D+01
 Iteration Nr.   3
 **********************
 DD1Dir will call FoFMem   1 times, MxPair=        42
 NAB=    21 NAA=     0 NBB=     0.
 DE(Z)= -0.40190465     E(Z)=     -114.31460511     Delta= 2.04D-07
 NORM(A)=   0.10650578D+01
 Iteration Nr.   4
 **********************
 DD1Dir will call FoFMem   1 times, MxPair=        42
 NAB=    21 NAA=     0 NBB=     0.
 DE(Z)= -0.40190478     E(Z)=     -114.31460524     Delta=-1.39D-07
 NORM(A)=   0.10650706D+01
 Iteration Nr.   5
 **********************
 DD1Dir will call FoFMem   1 times, MxPair=        42
 NAB=    21 NAA=     0 NBB=     0.
 DE(Z)= -0.40190539     E(Z)=     -114.31460585     Delta=-6.03D-07
 NORM(A)=   0.10608714D+01
 Iteration Nr.   6
 **********************
 DD1Dir will call FoFMem   1 times, MxPair=        42
 NAB=    21 NAA=     0 NBB=     0.
 DE(Z)= -0.40170387     E(Z)=     -114.31440433     Delta= 2.02D-04
 NORM(A)=   0.10608696D+01
 Iteration Nr.   7
 **********************
 DD1Dir will call FoFMem   1 times, MxPair=        42
 NAB=    21 NAA=     0 NBB=     0.
 DE(Z)= -0.40170261     E(Z)=     -114.31440307     Delta= 1.26D-06
 NORM(A)=   0.10608691D+01
 Iteration Nr.   8
 **********************
 DD1Dir will call FoFMem   1 times, MxPair=        42
 NAB=    21 NAA=     0 NBB=     0.
 DE(Z)= -0.40170267     E(Z)=     -114.31440313     Delta=-6.33D-08
 NORM(A)=   0.10608691D+01
 Iteration Nr.   9
 **********************
 DD1Dir will call FoFMem   1 times, MxPair=        42
 NAB=    21 NAA=     0 NBB=     0.
 DE(Z)= -0.40170269     E(Z)=     -114.31440315     Delta=-1.66D-08
 NORM(A)=   0.10608691D+01
 Iteration Nr.  10
 **********************
 DD1Dir will call FoFMem   1 times, MxPair=        42
 NAB=    21 NAA=     0 NBB=     0.
 DE(Z)= -0.40170264     E(Z)=     -114.31440310     Delta= 4.32D-08
 NORM(A)=   0.10608692D+01
 Iteration Nr.  11
 **********************
 DD1Dir will call FoFMem   1 times, MxPair=        42
 NAB=    21 NAA=     0 NBB=     0.
 DE(Z)= -0.40170266     E(Z)=     -114.31440312     Delta=-1.57D-08
 NORM(A)=   0.10608692D+01
 Iteration Nr.  12
 **********************
 DD1Dir will call FoFMem   1 times, MxPair=        42
 NAB=    21 NAA=     0 NBB=     0.
 DE(Z)= -0.40170266     E(Z)=     -114.31440312     Delta=-1.03D-09
 NORM(A)=   0.10608692D+01
 Z-amplitudes converged.
 Discarding MO integrals.
          Differentiating once with respect to electric field.
                with respect to dipole field.
          Electric field/nuclear overlap derivatives assumed to be zero.
 Keep R1 ints in memory in canonical form, NReq=53863258.
          There are     1 degrees of freedom in the 1st order CPHF.  IDoFFX=0 NUNeed=     1.
 LinEq1:  Iter=  0 NonCon=     1 RMS=3.60D-03 Max=5.66D-02 NDo=     1
 AX will form     1 AO Fock derivatives at one time.
 LinEq1:  Iter=  1 NonCon=     1 RMS=9.10D-04 Max=8.60D-03 NDo=     1
 LinEq1:  Iter=  2 NonCon=     1 RMS=2.42D-04 Max=3.58D-03 NDo=     1
 LinEq1:  Iter=  3 NonCon=     1 RMS=1.19D-04 Max=1.25D-03 NDo=     1
 LinEq1:  Iter=  4 NonCon=     1 RMS=4.79D-05 Max=6.08D-04 NDo=     1
 LinEq1:  Iter=  5 NonCon=     1 RMS=9.81D-06 Max=9.45D-05 NDo=     1
 LinEq1:  Iter=  6 NonCon=     1 RMS=1.59D-06 Max=1.83D-05 NDo=     1
 LinEq1:  Iter=  7 NonCon=     1 RMS=2.43D-07 Max=1.77D-06 NDo=     1
 LinEq1:  Iter=  8 NonCon=     1 RMS=2.79D-08 Max=2.22D-07 NDo=     1
 LinEq1:  Iter=  9 NonCon=     1 RMS=3.35D-09 Max=2.71D-08 NDo=     1
 LinEq1:  Iter= 10 NonCon=     1 RMS=3.16D-10 Max=2.48D-09 NDo=     1
 LinEq1:  Iter= 11 NonCon=     0 RMS=2.82D-11 Max=2.45D-10 NDo=     1
 Linear equations converged to 1.000D-10 1.000D-09 after    11 iterations.
 End of Minotr F.D. properties file   721 does not exist.
 End of Minotr F.D. properties file   722 does not exist.
 End of Minotr F.D. properties file   788 does not exist.

 **********************************************************************

            Population analysis using the CC Density.

 **********************************************************************

 Alpha  occ. eigenvalues --  -20.57963 -11.34457  -1.40026  -0.87318  -0.69337
 Alpha  occ. eigenvalues --   -0.64987  -0.53304  -0.44520
 Alpha virt. eigenvalues --    0.02608   0.04156   0.06176   0.07651   0.12740
 Alpha virt. eigenvalues --    0.13272   0.13356   0.17443   0.19790   0.21200
 Alpha virt. eigenvalues --    0.21684   0.25376   0.25585   0.28085   0.31981
 Alpha virt. eigenvalues --    0.33795   0.33896   0.35900   0.38746   0.38992
 Alpha virt. eigenvalues --    0.39599   0.41824   0.48186   0.49742   0.56229
 Alpha virt. eigenvalues --    0.56605   0.66905   0.67668   0.71849   0.76408
 Alpha virt. eigenvalues --    0.81966   0.83447   0.84180   0.85700   0.87517
 Alpha virt. eigenvalues --    0.88085   0.92779   0.93380   0.93928   0.97741
 Alpha virt. eigenvalues --    0.99972   1.02009   1.02321   1.03489   1.06797
 Alpha virt. eigenvalues --    1.08203   1.09773   1.10091   1.25874   1.26260
 Alpha virt. eigenvalues --    1.30434   1.36773   1.38922   1.45682   1.47622
 Alpha virt. eigenvalues --    1.51161   1.57168   1.59520   1.62624   1.70738
 Alpha virt. eigenvalues --    1.72579   1.82982   1.96067   2.00511   2.03093
 Alpha virt. eigenvalues --    2.09796   2.17877   2.28409   2.32002   2.33817
 Alpha virt. eigenvalues --    2.34329   2.48780   2.49627   2.56070   2.59841
 Alpha virt. eigenvalues --    2.71383   2.77797   2.80780   2.91650   2.92560
 Alpha virt. eigenvalues --    3.06742   3.08026   3.14234   3.18685   3.40855
 Alpha virt. eigenvalues --    3.43771   3.52841   3.56137   3.62525   3.65844
 Alpha virt. eigenvalues --    3.70035   3.89333   3.95073   4.04800   4.11308
 Alpha virt. eigenvalues --    4.14842   4.15873   4.21373   4.24022   4.36026
 Alpha virt. eigenvalues --    4.56937   4.64571   4.68584   4.76101   5.02493
 Alpha virt. eigenvalues --    5.03569   5.10116   5.14073   5.24373   5.28123
 Alpha virt. eigenvalues --    5.32449   5.38023   5.89112   6.12773   6.23273
 Alpha virt. eigenvalues --    6.49896   6.59768   6.61634   6.91059   6.93953
 Alpha virt. eigenvalues --    7.07717   7.18746   7.20277   7.40278   7.52422
 Alpha virt. eigenvalues --    7.67280   7.71690   7.76093  14.74822  16.35591
          Condensed to atoms (all electrons):
               1          2          3          4
     1  O    8.192957   0.346085  -0.060683  -0.060683
     2  C    0.346085   5.722200   0.208347   0.208347
     3  H   -0.060683   0.208347   0.431674  -0.030666
     4  H   -0.060683   0.208347  -0.030666   0.431674
 Mulliken charges:
               1
     1  O   -0.417676
     2  C   -0.484979
     3  H    0.451328
     4  H    0.451328
 Sum of Mulliken charges =  -0.00000
 Mulliken charges with hydrogens summed into heavy atoms:
               1
     1  O   -0.417676
     2  C    0.417676
 Electronic spatial extent (au):  <R**2>=             61.0435
 Charge=             -0.0000 electrons
 Dipole moment (field-independent basis, Debye):
    X=             -0.0000    Y=              0.0000    Z=             -2.4832  Tot=              2.4832
 Quadrupole moment (field-independent basis, Debye-Ang):
   XX=            -11.7671   YY=            -11.6227   ZZ=            -12.2685
   XY=              0.0000   XZ=             -0.0000   YZ=              0.0000
 Traceless Quadrupole moment (field-independent basis, Debye-Ang):
   XX=              0.1190   YY=              0.2633   ZZ=             -0.3824
   XY=              0.0000   XZ=             -0.0000   YZ=              0.0000
 Octapole moment (field-independent basis, Debye-Ang**2):
  XXX=             -0.0000  YYY=              0.0000  ZZZ=              0.0528  XYY=             -0.0000
  XXY=              0.0000  XXZ=              0.5149  XZZ=             -0.0000  YZZ=             -0.0000
  YYZ=             -0.8185  XYZ=             -0.0000
 Hexadecapole moment (field-independent basis, Debye-Ang**3):
 XXXX=            -10.5862 YYYY=            -18.2118 ZZZZ=            -46.6184 XXXY=             -0.0000
 XXXZ=             -0.0000 YYYX=              0.0000 YYYZ=              0.0000 ZZZX=              0.0000
 ZZZY=              0.0000 XXYY=             -5.1646 XXZZ=             -9.4738 YYZZ=            -10.4850
 XXYZ=             -0.0000 YYXZ=              0.0000 ZZXY=              0.0000
 N-N= 3.111348345348D+01 E-N=-3.309577603448D+02  KE= 1.141932679389D+02
 There are a total of       93160 grid points.
 ElSum from          density=       15.9999998876
 ElSum from atomic densities=       15.9999998116

 Hirshfeld populations at iteration   1 (CX, CA, CB, DipXYZ):
               1          2          3          4          5          6
     1  O    0.000003   4.111784   4.111784   0.000000   0.000000  -0.110533
     2  C    0.000000   2.933626   2.933626   0.000000   0.000000  -0.098220
     3  H    0.000001   0.477295   0.477295  -0.000000   0.114310  -0.077449
     4  H    0.000001   0.477295   0.477295   0.000000  -0.114310  -0.077449
       Tot   0.000004   8.000000   8.000000   0.000000   0.000000  -0.363650

 Dip from Atomic Chgs              0.000000   0.000000  -0.613301
         Total Dipole              0.000000   0.000000  -0.976951

 Hirshfeld charges, spin densities, dipoles, and CM5 charges using IRadAn=      5:
              Q-H        S-H        Dx         Dy         Dz        Q-CM5   
     1  O   -0.223568   0.000000   0.000000   0.000000  -0.110533  -0.283490
     2  C    0.132748   0.000000   0.000000   0.000000  -0.098220   0.075850
     3  H    0.045410   0.000000  -0.000000   0.114310  -0.077449   0.103820
     4  H    0.045410   0.000000   0.000000  -0.114310  -0.077449   0.103820
       Tot   0.000000   0.000000   0.000000   0.000000  -0.363650   0.000000
 Hirshfeld charges with hydrogens summed into heavy atoms:
              Q-H       Q-CM5   
     1  O   -0.223568  -0.283490
     2  C    0.223568   0.283490
 
 EQQ= 0.000000000000E+00 EQD= 0.000000000000E+00 EDD= 0.272725802912E-02
 EQQ+QD+DD= 0.272725802912E-02
 
 Breneman (CHELPG) radii used.
 Generate Potential Derived Charges using the Breneman model, NDens= 1.
 Grid spacing= 0.300 Box extension= 2.800
 NStep X,Y,Z=   20     26     26   Total possible points=       13520
 Number of Points to Fit=    4924

 **********************************************************************

            Electrostatic Properties Using The CC Density.

 **********************************************************************

       Atomic Center    1 is at   0.000000  0.000000  0.689252
       Atomic Center    2 is at   0.000000  0.000000 -0.526911
       Atomic Center    3 is at   0.000000  0.936614 -1.106620
       Atomic Center    4 is at   0.000000 -0.936614 -1.106620
    4924 points will be used for fitting atomic charges
 Fitting point charges to electrostatic potential
 The dipole moment will be constrained to the correct value
 Charges from ESP fit, RMS=   0.00231 RRMS=   0.11745:
 ESP charges:
               1
     1  O   -0.425931
     2  C    0.427692
     3  H   -0.000881
     4  H   -0.000881
 Sum of ESP charges =   0.00000
 ESP charges with hydrogens summed into heavy atoms:
               1
     1  O   -0.425931
     2  C    0.425931
 Charge=   0.00000 Dipole=     0.0000    -0.0000    -2.4832 Tot=     2.4832
 -----------------------------------------------------------------

              Electrostatic Properties (Atomic Units)

 -----------------------------------------------------------------
    Center     Electric         -------- Electric Field --------
               Potential          X             Y             Z
 -----------------------------------------------------------------
    1 Atom    -22.325459
    2 Atom    -14.662193
    3 Atom     -1.076972
    4 Atom     -1.076972
 -----------------------------------------------------------------
 ******************************Gaussian NBO Version 3.1******************************
             N A T U R A L   A T O M I C   O R B I T A L   A N D
          N A T U R A L   B O N D   O R B I T A L   A N A L Y S I S
 ******************************Gaussian NBO Version 3.1******************************
       /RESON  / : Allow strongly delocalized NBO set

 Analyzing the QCI/CC density

 Job title: h2co-wavefunction                                               

 Storage needed:     57804 in NPA (2147483536 available)
 GSVD:  LWork=       -1756 too small for GESVD, short by       42456 words or       42456 for optimal perf.


 NATURAL POPULATIONS:  Natural atomic orbital occupancies 
                                                          
   NAO  Atom  No  lang   Type(AO)    Occupancy
 --------------------------------------------
     1    O    1  S      Cor( 1S)     1.99962
     2    O    1  S      Val( 2S)     1.70874
     3    O    1  S      Ryd( 3S)     0.01033
     4    O    1  S      Ryd( 4S)     0.00089
     5    O    1  S      Ryd( 5S)     0.00019
     6    O    1  px     Val( 2p)     1.28894
     7    O    1  px     Ryd( 3p)     0.00670
     8    O    1  px     Ryd( 4p)     0.00052
     9    O    1  px     Ryd( 5p)     0.00004
    10    O    1  py     Val( 2p)     1.85718
    11    O    1  py     Ryd( 3p)     0.01607
    12    O    1  py     Ryd( 4p)     0.00081
    13    O    1  py     Ryd( 5p)     0.00008
    14    O    1  pz     Val( 2p)     1.53427
    15    O    1  pz     Ryd( 3p)     0.00670
    16    O    1  pz     Ryd( 4p)     0.00047
    17    O    1  pz     Ryd( 5p)     0.00014
    18    O    1  dxy    Ryd( 3d)     0.00565
    19    O    1  dxy    Ryd( 4d)     0.00047
    20    O    1  dxy    Ryd( 5d)     0.00007
    21    O    1  dxz    Ryd( 3d)     0.00960
    22    O    1  dxz    Ryd( 4d)     0.00033
    23    O    1  dxz    Ryd( 5d)     0.00009
    24    O    1  dyz    Ryd( 3d)     0.00920
    25    O    1  dyz    Ryd( 4d)     0.00045
    26    O    1  dyz    Ryd( 5d)     0.00017
    27    O    1  dx2y2  Ryd( 3d)     0.00554
    28    O    1  dx2y2  Ryd( 4d)     0.00046
    29    O    1  dx2y2  Ryd( 5d)     0.00006
    30    O    1  dz2    Ryd( 3d)     0.01817
    31    O    1  dz2    Ryd( 4d)     0.00039
    32    O    1  dz2    Ryd( 5d)     0.00009
    33    O    1  f(0)   Ryd( 4f)     0.00085
    34    O    1  f(0)   Ryd( 5f)     0.00011
    35    O    1  f(C1)  Ryd( 4f)     0.00051
    36    O    1  f(C1)  Ryd( 5f)     0.00009
    37    O    1  f(S1)  Ryd( 4f)     0.00060
    38    O    1  f(S1)  Ryd( 5f)     0.00014
    39    O    1  f(C2)  Ryd( 4f)     0.00050
    40    O    1  f(C2)  Ryd( 5f)     0.00009
    41    O    1  f(S2)  Ryd( 4f)     0.00050
    42    O    1  f(S2)  Ryd( 5f)     0.00008
    43    O    1  f(C3)  Ryd( 4f)     0.00049
    44    O    1  f(C3)  Ryd( 5f)     0.00006
    45    O    1  f(S3)  Ryd( 4f)     0.00049
    46    O    1  f(S3)  Ryd( 5f)     0.00006

    47    C    2  S      Cor( 1S)     1.99948
    48    C    2  S      Val( 2S)     1.03238
    49    C    2  S      Ryd( 3S)     0.01369
    50    C    2  S      Ryd( 4S)     0.00021
    51    C    2  S      Ryd( 5S)     0.00010
    52    C    2  px     Val( 2p)     0.68919
    53    C    2  px     Ryd( 3p)     0.00360
    54    C    2  px     Ryd( 4p)     0.00018
    55    C    2  px     Ryd( 5p)     0.00009
    56    C    2  py     Val( 2p)     1.07340
    57    C    2  py     Ryd( 3p)     0.00447
    58    C    2  py     Ryd( 4p)     0.00036
    59    C    2  py     Ryd( 5p)     0.00007
    60    C    2  pz     Val( 2p)     0.83682
    61    C    2  pz     Ryd( 3p)     0.01242
    62    C    2  pz     Ryd( 4p)     0.00016
    63    C    2  pz     Ryd( 5p)     0.00010
    64    C    2  dxy    Ryd( 3d)     0.00488
    65    C    2  dxy    Ryd( 5d)     0.00012
    66    C    2  dxy    Ryd( 4d)     0.00013
    67    C    2  dxz    Ryd( 3d)     0.00493
    68    C    2  dxz    Ryd( 4d)     0.00021
    69    C    2  dxz    Ryd( 5d)     0.00015
    70    C    2  dyz    Ryd( 3d)     0.01184
    71    C    2  dyz    Ryd( 4d)     0.00045
    72    C    2  dyz    Ryd( 5d)     0.00035
    73    C    2  dx2y2  Ryd( 3d)     0.00484
    74    C    2  dx2y2  Ryd( 4d)     0.00017
    75    C    2  dx2y2  Ryd( 5d)     0.00006
    76    C    2  dz2    Ryd( 3d)     0.00499
    77    C    2  dz2    Ryd( 4d)     0.00030
    78    C    2  dz2    Ryd( 5d)     0.00010
    79    C    2  f(0)   Ryd( 4f)     0.00042
    80    C    2  f(0)   Ryd( 5f)     0.00010
    81    C    2  f(C1)  Ryd( 4f)     0.00033
    82    C    2  f(C1)  Ryd( 5f)     0.00009
    83    C    2  f(S1)  Ryd( 4f)     0.00050
    84    C    2  f(S1)  Ryd( 5f)     0.00009
    85    C    2  f(C2)  Ryd( 4f)     0.00052
    86    C    2  f(C2)  Ryd( 5f)     0.00011
    87    C    2  f(S2)  Ryd( 4f)     0.00046
    88    C    2  f(S2)  Ryd( 5f)     0.00010
    89    C    2  f(C3)  Ryd( 4f)     0.00038
    90    C    2  f(C3)  Ryd( 5f)     0.00015
    91    C    2  f(S3)  Ryd( 4f)     0.00047
    92    C    2  f(S3)  Ryd( 5f)     0.00011

    93    H    3  S      Val( 1S)     0.89476
    94    H    3  S      Ryd( 2S)     0.00283
    95    H    3  S      Ryd( 3S)     0.00010
    96    H    3  S      Ryd( 4S)     0.00005
    97    H    3  px     Ryd( 2p)     0.00130
    98    H    3  px     Ryd( 3p)     0.00035
    99    H    3  px     Ryd( 4p)     0.00007
   100    H    3  py     Ryd( 2p)     0.00139
   101    H    3  py     Ryd( 3p)     0.00041
   102    H    3  py     Ryd( 4p)     0.00011
   103    H    3  pz     Ryd( 2p)     0.00165
   104    H    3  pz     Ryd( 3p)     0.00040
   105    H    3  pz     Ryd( 4p)     0.00010
   106    H    3  dxy    Ryd( 3d)     0.00007
   107    H    3  dxy    Ryd( 4d)     0.00007
   108    H    3  dxz    Ryd( 3d)     0.00007
   109    H    3  dxz    Ryd( 4d)     0.00005
   110    H    3  dyz    Ryd( 3d)     0.00020
   111    H    3  dyz    Ryd( 4d)     0.00006
   112    H    3  dx2y2  Ryd( 3d)     0.00024
   113    H    3  dx2y2  Ryd( 4d)     0.00007
   114    H    3  dz2    Ryd( 3d)     0.00007
   115    H    3  dz2    Ryd( 4d)     0.00004

   116    H    4  S      Val( 1S)     0.89476
   117    H    4  S      Ryd( 2S)     0.00283
   118    H    4  S      Ryd( 3S)     0.00010
   119    H    4  S      Ryd( 4S)     0.00005
   120    H    4  px     Ryd( 2p)     0.00130
   121    H    4  px     Ryd( 3p)     0.00035
   122    H    4  px     Ryd( 4p)     0.00007
   123    H    4  py     Ryd( 2p)     0.00139
   124    H    4  py     Ryd( 3p)     0.00041
   125    H    4  py     Ryd( 4p)     0.00011
   126    H    4  pz     Ryd( 2p)     0.00165
   127    H    4  pz     Ryd( 3p)     0.00040
   128    H    4  pz     Ryd( 4p)     0.00010
   129    H    4  dxy    Ryd( 3d)     0.00007
   130    H    4  dxy    Ryd( 4d)     0.00007
   131    H    4  dxz    Ryd( 3d)     0.00007
   132    H    4  dxz    Ryd( 4d)     0.00005
   133    H    4  dyz    Ryd( 3d)     0.00020
   134    H    4  dyz    Ryd( 4d)     0.00006
   135    H    4  dx2y2  Ryd( 3d)     0.00024
   136    H    4  dx2y2  Ryd( 4d)     0.00007
   137    H    4  dz2    Ryd( 3d)     0.00007
   138    H    4  dz2    Ryd( 4d)     0.00004


 Summary of Natural Population Analysis:                  
                                                          
                                       Natural Population 
                Natural  -----------------------------------------------
    Atom  No    Charge         Core      Valence    Rydberg      Total
 -----------------------------------------------------------------------
      O    1   -0.48700      1.99962     6.38912    0.09826     8.48700
      C    2    0.29593      1.99948     3.63179    0.07279     5.70407
      H    3    0.09553      0.00000     0.89476    0.00970     0.90447
      H    4    0.09553      0.00000     0.89476    0.00970     0.90447
 =======================================================================
   * Total *   -0.00000      3.99910    11.81044    0.19045    16.00000

                                 Natural Population      
 --------------------------------------------------------
   Core                       3.99910 ( 99.9776% of   4)
   Valence                   11.81044 ( 98.4204% of  12)
   Natural Minimal Basis     15.80955 ( 98.8097% of  16)
   Natural Rydberg Basis      0.19045 (  1.1903% of  16)
 --------------------------------------------------------

    Atom  No          Natural Electron Configuration
 ----------------------------------------------------------------------------
      O    1      [core]2S( 1.71)2p( 4.68)3S( 0.01)3p( 0.03)3d( 0.05)
      C    2      [core]2S( 1.03)2p( 2.60)3S( 0.01)3p( 0.02)3d( 0.03)
      H    3            1S( 0.89)
      H    4            1S( 0.89)


 NBO analysis skipped by request.
 Unable to Open any file for archive entry.
 1\1\GINC-TRAPISTA\SP\RQCISD-FC\Aug-CC-pVTZ\C1H2O1\WAGNER\02-Sep-2022\0
 \\# qcisd/aug-cc-pvtz nosymm density=current pop=(chelpg,hirshfeld,npa
 ,dipole)\\h2co-wavefunction\\0,1\O,0,0.,0.,0.689252\C,0,0.,0.,-0.52691
 1\H,0,0.,0.936614,-1.10662\H,0,0.,-0.936614,-1.10662\\Version=EM64L-G1
 6RevC.01\HF=-113.9127005\MP2=-114.3163908\MP3=-114.3199823\MP4D=-114.3
 303938\MP4DQ=-114.3214228\MP4SDQ=-114.3268401\QCISD=-114.3268313\RMSD=
 3.143e-09\Dipole=0.,0.,-0.9769508\Quadrupole=0.0884934,0.1957883,-0.28
 42817,0.,0.,0.\PG=C02V [C2(C1O1),SGV(H2)]\\@
 The archive entry for this job was punched.


 WE LEARN WISDOM FROM FAILURE MUCH MORE THAN FROM SUCCESS.
 WE DISCOVER WHAT WILL DO BY FINDING OUT WHAT WILL NOT DO...
 AND HE WHO NEVER MADE A MISTAKE NEVER MADE A DISCOVERY
 Job cpu time:       0 days  1 hours 27 minutes 27.1 seconds.
 Elapsed time:       0 days  0 hours  5 minutes 31.5 seconds.
 File lengths (MBytes):  RWF=   6915 Int=      0 D2E=      0 Chk=      3 Scr=      1
 Normal termination of Gaussian 16 at Fri Sep  2 18:27:17 2022.
