 Entering Gaussian System, Link 0=/home/wagner/chemistry/gaussian/g16/g16
 Input=GAUSSIAN.com
 Output=GAUSSIAN.log
 Initial command:
 /home/wagner/chemistry/gaussian/g16/l1.exe "/home/wagner/chemistry/gaussian/work/Gau-61338.inp" -scrdir="/home/wagner/chemistry/gaussian/work/"
 Entering Link 1 = /home/wagner/chemistry/gaussian/g16/l1.exe PID=     61340.
  
 Copyright (c) 1988-2019, Gaussian, Inc.  All Rights Reserved.
  
 This is part of the Gaussian(R) 16 program.  It is based on
 the Gaussian(R) 09 system (copyright 2009, Gaussian, Inc.),
 the Gaussian(R) 03 system (copyright 2003, Gaussian, Inc.),
 the Gaussian(R) 98 system (copyright 1998, Gaussian, Inc.),
 the Gaussian(R) 94 system (copyright 1995, Gaussian, Inc.),
 the Gaussian 92(TM) system (copyright 1992, Gaussian, Inc.),
 the Gaussian 90(TM) system (copyright 1990, Gaussian, Inc.),
 the Gaussian 88(TM) system (copyright 1988, Gaussian, Inc.),
 the Gaussian 86(TM) system (copyright 1986, Carnegie Mellon
 University), and the Gaussian 82(TM) system (copyright 1983,
 Carnegie Mellon University). Gaussian is a federally registered
 trademark of Gaussian, Inc.
  
 This software contains proprietary and confidential information,
 including trade secrets, belonging to Gaussian, Inc.
  
 This software is provided under written license and may be
 used, copied, transmitted, or stored only in accord with that
 written license.
  
 The following legend is applicable only to US Government
 contracts under FAR:
  
                    RESTRICTED RIGHTS LEGEND
  
 Use, reproduction and disclosure by the US Government is
 subject to restrictions as set forth in subparagraphs (a)
 and (c) of the Commercial Computer Software - Restricted
 Rights clause in FAR 52.227-19.
  
 Gaussian, Inc.
 340 Quinnipiac St., Bldg. 40, Wallingford CT 06492
  
  
 ---------------------------------------------------------------
 Warning -- This program may not be used in any manner that
 competes with the business of Gaussian, Inc. or will provide
 assistance to any competitor of Gaussian, Inc.  The licensee
 of this program is prohibited from giving any competitor of
 Gaussian, Inc. access to this program.  By using this program,
 the user acknowledges that Gaussian, Inc. is engaged in the
 business of creating and licensing software in the field of
 computational chemistry and represents and warrants to the
 licensee that it is not a competitor of Gaussian, Inc. and that
 it will not use this program in any manner prohibited above.
 ---------------------------------------------------------------
  

 Cite this work as:
 Gaussian 16, Revision C.01,
 M. J. Frisch, G. W. Trucks, H. B. Schlegel, G. E. Scuseria, 
 M. A. Robb, J. R. Cheeseman, G. Scalmani, V. Barone, 
 G. A. Petersson, H. Nakatsuji, X. Li, M. Caricato, A. V. Marenich, 
 J. Bloino, B. G. Janesko, R. Gomperts, B. Mennucci, H. P. Hratchian, 
 J. V. Ortiz, A. F. Izmaylov, J. L. Sonnenberg, D. Williams-Young, 
 F. Ding, F. Lipparini, F. Egidi, J. Goings, B. Peng, A. Petrone, 
 T. Henderson, D. Ranasinghe, V. G. Zakrzewski, J. Gao, N. Rega, 
 G. Zheng, W. Liang, M. Hada, M. Ehara, K. Toyota, R. Fukuda, 
 J. Hasegawa, M. Ishida, T. Nakajima, Y. Honda, O. Kitao, H. Nakai, 
 T. Vreven, K. Throssell, J. A. Montgomery, Jr., J. E. Peralta, 
 F. Ogliaro, M. J. Bearpark, J. J. Heyd, E. N. Brothers, K. N. Kudin, 
 V. N. Staroverov, T. A. Keith, R. Kobayashi, J. Normand, 
 K. Raghavachari, A. P. Rendell, J. C. Burant, S. S. Iyengar, 
 J. Tomasi, M. Cossi, J. M. Millam, M. Klene, C. Adamo, R. Cammi, 
 J. W. Ochterski, R. L. Martin, K. Morokuma, O. Farkas, 
 J. B. Foresman, and D. J. Fox, Gaussian, Inc., Wallingford CT, 2019.
 
 ******************************************
 Gaussian 16:  EM64L-G16RevC.01  3-Jul-2019
                 2-Sep-2022 
 ******************************************
 %nproc=16
 Will use up to   16 processors via shared memory.
 %mem=16GB
 ----------------------------------------------------------------------
 # qcisd/aug-cc-pvtz nosymm density=current pop=(chelpg,hirshfeld,npa,d
 ipole)
 ----------------------------------------------------------------------
 1/30=1,38=1,172=1/1;
 2/12=2,15=1,17=6,18=5,40=1/2;
 3/5=16,6=1,7=10,11=9,25=1,30=1,71=1/1,2,3;
 4//1;
 5/5=2,38=5/2;
 8/6=4,9=120000,10=1/1,4;
 9/5=8,15=1/13;
 11/28=-7,31=1,32=3,42=3/11;
 10/5=6,13=10,31=1/2;
 6/7=2,8=2,9=2,10=2,15=24,20=3,22=-1,40=-1,79=1/1,2,7;
 99/5=1,9=1/99;
 -----------------
 h2co-wavefunction
 -----------------
 Symbolic Z-matrix:
 Charge =  0 Multiplicity = 1
 O                     0.        0.        0.67925 
 C                     0.        0.       -0.52691 
 H                     0.        0.93661  -1.10662 
 H                     0.       -0.93661  -1.10662 
 
                          Input orientation:                          
 ---------------------------------------------------------------------
 Center     Atomic      Atomic             Coordinates (Angstroms)
 Number     Number       Type             X           Y           Z
 ---------------------------------------------------------------------
      1          8           0        0.000000    0.000000    0.679252
      2          6           0        0.000000    0.000000   -0.526911
      3          1           0        0.000000    0.936614   -1.106620
      4          1           0        0.000000   -0.936614   -1.106620
 ---------------------------------------------------------------------
                    Distance matrix (angstroms):
                    1          2          3          4
     1  O    0.000000
     2  C    1.206163   0.000000
     3  H    2.016577   1.101503   0.000000
     4  H    2.016577   1.101503   1.873228   0.000000
 Symmetry turned off by external request.
 Stoichiometry    CH2O
 Framework group  C2V[C2(CO),SGV(H2)]
 Deg. of freedom     3
 Full point group                 C2V     NOp   4
 Rotational constants (GHZ):         285.8122051          38.8698825          34.2165067
 Standard basis: Aug-CC-pVTZ (5D, 7F)
   138 basis functions,   198 primitive gaussians,   160 cartesian basis functions
     8 alpha electrons        8 beta electrons
       nuclear repulsion energy        31.3050111781 Hartrees.
 NAtoms=    4 NActive=    4 NUniq=    4 SFac= 1.00D+00 NAtFMM=   60 NAOKFM=F Big=F
 Integral buffers will be    131072 words long.
 Raffenetti 1 integral format.
 Two-electron integral symmetry is turned off.
 One-electron integrals computed using PRISM.
 NBasis=   138 RedAO= T EigKep=  8.44D-05  NBF=   138
 NBsUse=   138 1.00D-06 EigRej= -1.00D+00 NBFU=   138
 ExpMin= 2.53D-02 ExpMax= 1.53D+04 ExpMxC= 5.22D+02 IAcc=3 IRadAn=         5 AccDes= 0.00D+00
 Harris functional with IExCor=  205 and IRadAn=       5 diagonalized for initial guess.
 HarFok:  IExCor=  205 AccDes= 0.00D+00 IRadAn=         5 IDoV= 1 UseB2=F ITyADJ=14
 ICtDFT=  3500011 ScaDFX=  1.000000  1.000000  1.000000  1.000000
 FoFCou: FMM=F IPFlag=           0 FMFlag=      100000 FMFlg1=           0
         NFxFlg=           0 DoJE=T BraDBF=F KetDBF=T FulRan=T
         wScrn=  0.000000 ICntrl=       500 IOpCl=  0 I1Cent=   200000004 NGrid=           0
         NMat0=    1 NMatS0=      1 NMatT0=    0 NMatD0=    1 NMtDS0=    0 NMtDT0=    0
 Symmetry not used in FoFCou.
 Keep R1 ints in memory in canonical form, NReq=53861992.
 Requested convergence on RMS density matrix=1.00D-08 within 128 cycles.
 Requested convergence on MAX density matrix=1.00D-06.
 Requested convergence on             energy=1.00D-06.
 No special actions if energy rises.
 SCF Done:  E(RHF) =  -113.913826412     A.U. after   11 cycles
            NFock= 11  Conv=0.29D-08     -V/T= 2.0018
 ExpMin= 2.53D-02 ExpMax= 1.53D+04 ExpMxC= 5.22D+02 IAcc=3 IRadAn=         5 AccDes= 0.00D+00
 HarFok:  IExCor=  205 AccDes= 0.00D+00 IRadAn=         5 IDoV=-2 UseB2=F ITyADJ=14
 ICtDFT= 12500011 ScaDFX=  1.000000  1.000000  1.000000  1.000000
 Range of M.O.s used for correlation:     3   138
 NBasis=   138 NAE=     8 NBE=     8 NFC=     2 NFV=     0
 NROrb=    136 NOA=     6 NOB=     6 NVA=   130 NVB=   130

 **** Warning!!: The largest alpha MO coefficient is  0.33810154D+02

 Semi-Direct transformation.
 ModeAB=           2 MOrb=             6 LenV=    2146847475
 LASXX=      7286295 LTotXX=     7286295 LenRXX=     7286295
 LTotAB=     7445736 MaxLAS=    10510080 LenRXY=    10510080
 NonZer=    14572590 LenScr=    22628352 LnRSAI=           0
 LnScr1=           0 LExtra=           0 Total=     40424727
 MaxDsk=          -1 SrtSym=           F ITran=            4
 JobTyp=0 Pass  1:  I=   1 to   6.
 (rs|ai) integrals will be sorted in core.
 Spin components of T(2) and E(2):
     alpha-alpha T2 =       0.1376070553D-01 E2=     -0.4804183275D-01
     alpha-beta  T2 =       0.8505465230D-01 E2=     -0.3064344901D+00
     beta-beta   T2 =       0.1376070553D-01 E2=     -0.4804183275D-01
 ANorm=    0.1054787212D+01
 E2 =    -0.4025181556D+00 EUMP2 =    -0.11431634456713D+03
 Keep R2 and R3 ints in memory in canonical form, NReq=99865420.
 CIDS: In Core Option IDoMem=           1.
 Iterations=  50 Convergence= 0.100D-07
 Produce multiple copies of IABC intergrals
 Iteration Nr.   1
 **********************
 DD1Dir will call FoFMem   1 times, MxPair=        42
 NAB=    21 NAA=     0 NBB=     0.
 MP4(R+Q)=  0.88725992D-02
 E3=       -0.40191564D-02        EUMP3=      -0.11432036372D+03
 E4(DQ)=   -0.13495092D-02        UMP4(DQ)=   -0.11432171323D+03
 E4(SDQ)=  -0.66114984D-02        UMP4(SDQ)=  -0.11432697522D+03
 DE(Corr)= -0.39766471     E(Corr)=     -114.31149112    
 NORM(A)=   0.10554806D+01
 Iteration Nr.   2
 **********************
 DD1Dir will call FoFMem   1 times, MxPair=        42
 NAB=    21 NAA=     0 NBB=     0.
 DE(Corr)= -0.41160701     E(CORR)=     -114.32543342     Delta=-1.39D-02
 NORM(A)=   0.10615345D+01
 Iteration Nr.   3
 **********************
 DD1Dir will call FoFMem   1 times, MxPair=        42
 NAB=    21 NAA=     0 NBB=     0.
 DE(Corr)= -0.41153427     E(CORR)=     -114.32536068     Delta= 7.27D-05
 NORM(A)=   0.10634214D+01
 Iteration Nr.   4
 **********************
 DD1Dir will call FoFMem   1 times, MxPair=        42
 NAB=    21 NAA=     0 NBB=     0.
 DE(Corr)= -0.41294069     E(CORR)=     -114.32676710     Delta=-1.41D-03
 NORM(A)=   0.10641012D+01
 Iteration Nr.   5
 **********************
 DD1Dir will call FoFMem   1 times, MxPair=        42
 NAB=    21 NAA=     0 NBB=     0.
 DE(Corr)= -0.41312820     E(CORR)=     -114.32695461     Delta=-1.88D-04
 NORM(A)=   0.10643163D+01
 Iteration Nr.   6
 **********************
 DD1Dir will call FoFMem   1 times, MxPair=        42
 NAB=    21 NAA=     0 NBB=     0.
 DE(Corr)= -0.41315412     E(CORR)=     -114.32698054     Delta=-2.59D-05
 NORM(A)=   0.10643417D+01
 Iteration Nr.   7
 **********************
 DD1Dir will call FoFMem   1 times, MxPair=        42
 NAB=    21 NAA=     0 NBB=     0.
 DE(Corr)= -0.41315533     E(CORR)=     -114.32698175     Delta=-1.21D-06
 NORM(A)=   0.10643428D+01
 Iteration Nr.   8
 **********************
 DD1Dir will call FoFMem   1 times, MxPair=        42
 NAB=    21 NAA=     0 NBB=     0.
 DE(Corr)= -0.41315446     E(CORR)=     -114.32698087     Delta= 8.75D-07
 NORM(A)=   0.10643456D+01
 Iteration Nr.   9
 **********************
 DD1Dir will call FoFMem   1 times, MxPair=        42
 NAB=    21 NAA=     0 NBB=     0.
 DE(Corr)= -0.41315334     E(CORR)=     -114.32697975     Delta= 1.12D-06
 NORM(A)=   0.10643459D+01
 Iteration Nr.  10
 **********************
 DD1Dir will call FoFMem   1 times, MxPair=        42
 NAB=    21 NAA=     0 NBB=     0.
 DE(Corr)= -0.41315396     E(CORR)=     -114.32698037     Delta=-6.21D-07
 NORM(A)=   0.10643465D+01
 Iteration Nr.  11
 **********************
 DD1Dir will call FoFMem   1 times, MxPair=        42
 NAB=    21 NAA=     0 NBB=     0.
 DE(Corr)= -0.41315410     E(CORR)=     -114.32698051     Delta=-1.32D-07
 NORM(A)=   0.10643469D+01
 Iteration Nr.  12
 **********************
 DD1Dir will call FoFMem   1 times, MxPair=        42
 NAB=    21 NAA=     0 NBB=     0.
 DE(Corr)= -0.41315425     E(CORR)=     -114.32698066     Delta=-1.55D-07
 NORM(A)=   0.10643471D+01
 Iteration Nr.  13
 **********************
 DD1Dir will call FoFMem   1 times, MxPair=        42
 NAB=    21 NAA=     0 NBB=     0.
 DE(Corr)= -0.41315431     E(CORR)=     -114.32698072     Delta=-6.10D-08
 NORM(A)=   0.10643472D+01
 Iteration Nr.  14
 **********************
 DD1Dir will call FoFMem   1 times, MxPair=        42
 NAB=    21 NAA=     0 NBB=     0.
 DE(Corr)= -0.41315434     E(CORR)=     -114.32698075     Delta=-3.15D-08
 NORM(A)=   0.10643472D+01
 Iteration Nr.  15
 **********************
 DD1Dir will call FoFMem   1 times, MxPair=        42
 NAB=    21 NAA=     0 NBB=     0.
 DE(Corr)= -0.41315435     E(CORR)=     -114.32698076     Delta=-4.90D-09
 NORM(A)=   0.10643472D+01
 Wavefunction amplitudes converged. E(Corr)=     -114.32698076    
 Largest amplitude= 6.44D-02

 Z-amplitude iterations

 Iteration Nr.   1
 **********************
 DD1Dir will call FoFMem   1 times, MxPair=        42
 NAB=    21 NAA=     0 NBB=     0.
 DE(Z)= -0.40112023     E(Z)=     -114.31494665     Delta= 1.20D-02
 NORM(A)=   0.10643469D+01
 Iteration Nr.   2
 **********************
 DD1Dir will call FoFMem   1 times, MxPair=        42
 NAB=    21 NAA=     0 NBB=     0.
 DE(Z)= -0.40112021     E(Z)=     -114.31494663     Delta= 1.96D-08
 NORM(A)=   0.10643481D+01
 Iteration Nr.   3
 **********************
 DD1Dir will call FoFMem   1 times, MxPair=        42
 NAB=    21 NAA=     0 NBB=     0.
 DE(Z)= -0.40112028     E(Z)=     -114.31494669     Delta=-6.36D-08
 NORM(A)=   0.10643463D+01
 Iteration Nr.   4
 **********************
 DD1Dir will call FoFMem   1 times, MxPair=        42
 NAB=    21 NAA=     0 NBB=     0.
 DE(Z)= -0.40112019     E(Z)=     -114.31494660     Delta= 8.99D-08
 NORM(A)=   0.10643457D+01
 Iteration Nr.   5
 **********************
 DD1Dir will call FoFMem   1 times, MxPair=        42
 NAB=    21 NAA=     0 NBB=     0.
 DE(Z)= -0.40112016     E(Z)=     -114.31494657     Delta= 2.90D-08
 NORM(A)=   0.10611031D+01
 Iteration Nr.   6
 **********************
 DD1Dir will call FoFMem   1 times, MxPair=        42
 NAB=    21 NAA=     0 NBB=     0.
 DE(Z)= -0.40096335     E(Z)=     -114.31478976     Delta= 1.57D-04
 NORM(A)=   0.10602762D+01
 Iteration Nr.   7
 **********************
 DD1Dir will call FoFMem   1 times, MxPair=        42
 NAB=    21 NAA=     0 NBB=     0.
 DE(Z)= -0.40090817     E(Z)=     -114.31473458     Delta= 5.52D-05
 NORM(A)=   0.10602647D+01
 Iteration Nr.   8
 **********************
 DD1Dir will call FoFMem   1 times, MxPair=        42
 NAB=    21 NAA=     0 NBB=     0.
 DE(Z)= -0.40090568     E(Z)=     -114.31473209     Delta= 2.49D-06
 NORM(A)=   0.10602644D+01
 Iteration Nr.   9
 **********************
 DD1Dir will call FoFMem   1 times, MxPair=        42
 NAB=    21 NAA=     0 NBB=     0.
 DE(Z)= -0.40090589     E(Z)=     -114.31473230     Delta=-2.08D-07
 NORM(A)=   0.10602645D+01
 Iteration Nr.  10
 **********************
 DD1Dir will call FoFMem   1 times, MxPair=        42
 NAB=    21 NAA=     0 NBB=     0.
 DE(Z)= -0.40090592     E(Z)=     -114.31473233     Delta=-3.48D-08
 NORM(A)=   0.10602644D+01
 Iteration Nr.  11
 **********************
 DD1Dir will call FoFMem   1 times, MxPair=        42
 NAB=    21 NAA=     0 NBB=     0.
 DE(Z)= -0.40090586     E(Z)=     -114.31473227     Delta= 6.67D-08
 NORM(A)=   0.10602644D+01
 Iteration Nr.  12
 **********************
 DD1Dir will call FoFMem   1 times, MxPair=        42
 NAB=    21 NAA=     0 NBB=     0.
 DE(Z)= -0.40090588     E(Z)=     -114.31473229     Delta=-2.16D-08
 NORM(A)=   0.10602644D+01
 Iteration Nr.  13
 **********************
 DD1Dir will call FoFMem   1 times, MxPair=        42
 NAB=    21 NAA=     0 NBB=     0.
 DE(Z)= -0.40090587     E(Z)=     -114.31473229     Delta= 3.62D-09
 NORM(A)=   0.10602644D+01
 Z-amplitudes converged.
 Discarding MO integrals.
          Differentiating once with respect to electric field.
                with respect to dipole field.
          Electric field/nuclear overlap derivatives assumed to be zero.
 Keep R1 ints in memory in canonical form, NReq=53863287.
          There are     1 degrees of freedom in the 1st order CPHF.  IDoFFX=0 NUNeed=     1.
 LinEq1:  Iter=  0 NonCon=     1 RMS=3.55D-03 Max=5.57D-02 NDo=     1
 AX will form     1 AO Fock derivatives at one time.
 LinEq1:  Iter=  1 NonCon=     1 RMS=8.96D-04 Max=8.54D-03 NDo=     1
 LinEq1:  Iter=  2 NonCon=     1 RMS=2.35D-04 Max=3.42D-03 NDo=     1
 LinEq1:  Iter=  3 NonCon=     1 RMS=1.15D-04 Max=1.21D-03 NDo=     1
 LinEq1:  Iter=  4 NonCon=     1 RMS=4.45D-05 Max=5.32D-04 NDo=     1
 LinEq1:  Iter=  5 NonCon=     1 RMS=9.21D-06 Max=8.74D-05 NDo=     1
 LinEq1:  Iter=  6 NonCon=     1 RMS=1.50D-06 Max=1.74D-05 NDo=     1
 LinEq1:  Iter=  7 NonCon=     1 RMS=2.28D-07 Max=1.66D-06 NDo=     1
 LinEq1:  Iter=  8 NonCon=     1 RMS=2.61D-08 Max=2.06D-07 NDo=     1
 LinEq1:  Iter=  9 NonCon=     1 RMS=3.14D-09 Max=2.52D-08 NDo=     1
 LinEq1:  Iter= 10 NonCon=     1 RMS=2.95D-10 Max=2.32D-09 NDo=     1
 LinEq1:  Iter= 11 NonCon=     0 RMS=2.66D-11 Max=2.39D-10 NDo=     1
 Linear equations converged to 1.000D-10 1.000D-09 after    11 iterations.
 End of Minotr F.D. properties file   721 does not exist.
 End of Minotr F.D. properties file   722 does not exist.
 End of Minotr F.D. properties file   788 does not exist.

 **********************************************************************

            Population analysis using the CC Density.

 **********************************************************************

 Alpha  occ. eigenvalues --  -20.57889 -11.34241  -1.40667  -0.87136  -0.69535
 Alpha  occ. eigenvalues --   -0.65246  -0.53718  -0.44380
 Alpha virt. eigenvalues --    0.02626   0.04168   0.06240   0.07646   0.12928
 Alpha virt. eigenvalues --    0.13296   0.13346   0.17433   0.19819   0.21172
 Alpha virt. eigenvalues --    0.21714   0.25409   0.25610   0.28124   0.32051
 Alpha virt. eigenvalues --    0.33801   0.33937   0.35899   0.38784   0.38980
 Alpha virt. eigenvalues --    0.39597   0.41891   0.48224   0.49878   0.56175
 Alpha virt. eigenvalues --    0.56743   0.66938   0.67680   0.72314   0.76379
 Alpha virt. eigenvalues --    0.81893   0.83426   0.84216   0.85683   0.87628
 Alpha virt. eigenvalues --    0.88208   0.92755   0.93411   0.93966   0.97962
 Alpha virt. eigenvalues --    1.00153   1.02091   1.02355   1.03797   1.06849
 Alpha virt. eigenvalues --    1.08246   1.09831   1.10185   1.25858   1.26577
 Alpha virt. eigenvalues --    1.30479   1.37045   1.38915   1.45783   1.47647
 Alpha virt. eigenvalues --    1.51303   1.57152   1.59856   1.62669   1.70678
 Alpha virt. eigenvalues --    1.73067   1.83597   1.96303   2.00597   2.03157
 Alpha virt. eigenvalues --    2.09409   2.18038   2.28729   2.32197   2.34114
 Alpha virt. eigenvalues --    2.34398   2.48994   2.49780   2.56028   2.60645
 Alpha virt. eigenvalues --    2.71589   2.78354   2.80902   2.92041   2.92944
 Alpha virt. eigenvalues --    3.06546   3.07633   3.14511   3.18696   3.41208
 Alpha virt. eigenvalues --    3.44418   3.52852   3.56479   3.62834   3.65985
 Alpha virt. eigenvalues --    3.70039   3.89668   3.95335   4.05622   4.11927
 Alpha virt. eigenvalues --    4.16186   4.16481   4.22045   4.24715   4.36367
 Alpha virt. eigenvalues --    4.58500   4.64822   4.68775   4.77016   5.03247
 Alpha virt. eigenvalues --    5.05132   5.10701   5.16054   5.24783   5.28445
 Alpha virt. eigenvalues --    5.32818   5.38588   5.88991   6.13733   6.23507
 Alpha virt. eigenvalues --    6.50096   6.59832   6.61841   6.91584   6.94937
 Alpha virt. eigenvalues --    7.09114   7.19090   7.20573   7.41345   7.52522
 Alpha virt. eigenvalues --    7.68647   7.72585   7.77145  14.96448  16.39637
          Condensed to atoms (all electrons):
               1          2          3          4
     1  O    8.193689   0.349453  -0.062868  -0.062868
     2  C    0.349453   5.719225   0.207784   0.207784
     3  H   -0.062868   0.207784   0.434667  -0.030409
     4  H   -0.062868   0.207784  -0.030409   0.434667
 Mulliken charges:
               1
     1  O   -0.417407
     2  C   -0.484246
     3  H    0.450826
     4  H    0.450826
 Sum of Mulliken charges =  -0.00000
 Mulliken charges with hydrogens summed into heavy atoms:
               1
     1  O   -0.417407
     2  C    0.417407
 Electronic spatial extent (au):  <R**2>=             60.6315
 Charge=             -0.0000 electrons
 Dipole moment (field-independent basis, Debye):
    X=              0.0000    Y=              0.0000    Z=             -2.4421  Tot=              2.4421
 Quadrupole moment (field-independent basis, Debye-Ang):
   XX=            -11.7378   YY=            -11.6215   ZZ=            -12.2708
   XY=             -0.0000   XZ=             -0.0000   YZ=             -0.0000
 Traceless Quadrupole moment (field-independent basis, Debye-Ang):
   XX=              0.1389   YY=              0.2552   ZZ=             -0.3941
   XY=             -0.0000   XZ=             -0.0000   YZ=             -0.0000
 Octapole moment (field-independent basis, Debye-Ang**2):
  XXX=              0.0000  YYY=              0.0000  ZZZ=              0.3113  XYY=             -0.0000
  XXY=              0.0000  XXZ=              0.5813  XZZ=              0.0000  YZZ=              0.0000
  YYZ=             -0.7023  XYZ=              0.0000
 Hexadecapole moment (field-independent basis, Debye-Ang**3):
 XXXX=            -10.5190 YYYY=            -18.2497 ZZZZ=            -46.2399 XXXY=             -0.0000
 XXXZ=             -0.0000 YYYX=             -0.0000 YYYZ=             -0.0000 ZZZX=             -0.0000
 ZZZY=             -0.0000 XXYY=             -5.1553 XXZZ=             -9.3942 YYZZ=            -10.4551
 XXYZ=             -0.0000 YYXZ=             -0.0000 ZZXY=             -0.0000
 N-N= 3.130501117814D+01 E-N=-3.313620120030D+02  KE= 1.142316246412D+02
 There are a total of       93160 grid points.
 ElSum from          density=       15.9999998840
 ElSum from atomic densities=       15.9999998011

 Hirshfeld populations at iteration   1 (CX, CA, CB, DipXYZ):
               1          2          3          4          5          6
     1  O    0.000003   4.110910   4.110910   0.000000   0.000000  -0.109623
     2  C    0.000000   2.933356   2.933356   0.000000   0.000000  -0.096607
     3  H    0.000001   0.477867   0.477867  -0.000000   0.113271  -0.075992
     4  H    0.000001   0.477867   0.477867  -0.000000  -0.113271  -0.075992
       Tot   0.000004   8.000000   8.000000   0.000000   0.000000  -0.358213

 Dip from Atomic Chgs              0.000000  -0.000000  -0.602583
         Total Dipole              0.000000   0.000000  -0.960797

 Hirshfeld charges, spin densities, dipoles, and CM5 charges using IRadAn=      5:
              Q-H        S-H        Dx         Dy         Dz        Q-CM5   
     1  O   -0.221819   0.000000   0.000000   0.000000  -0.109623  -0.283173
     2  C    0.133287   0.000000   0.000000   0.000000  -0.096607   0.077291
     3  H    0.044266   0.000000  -0.000000   0.113271  -0.075992   0.102941
     4  H    0.044266   0.000000  -0.000000  -0.113271  -0.075992   0.102941
       Tot   0.000000   0.000000   0.000000   0.000000  -0.358213   0.000000
 Hirshfeld charges with hydrogens summed into heavy atoms:
              Q-H       Q-CM5   
     1  O   -0.221819  -0.283173
     2  C    0.221820   0.283173
 
 EQQ= 0.000000000000E+00 EQD= 0.000000000000E+00 EDD= 0.266432365161E-02
 EQQ+QD+DD= 0.266432365161E-02
 
 Breneman (CHELPG) radii used.
 Generate Potential Derived Charges using the Breneman model, NDens= 1.
 Grid spacing= 0.300 Box extension= 2.800
 NStep X,Y,Z=   20     26     26   Total possible points=       13520
 Number of Points to Fit=    4900

 **********************************************************************

            Electrostatic Properties Using The CC Density.

 **********************************************************************

       Atomic Center    1 is at   0.000000  0.000000  0.679252
       Atomic Center    2 is at   0.000000  0.000000 -0.526911
       Atomic Center    3 is at   0.000000  0.936614 -1.106620
       Atomic Center    4 is at   0.000000 -0.936614 -1.106620
    4900 points will be used for fitting atomic charges
 Fitting point charges to electrostatic potential
 The dipole moment will be constrained to the correct value
 Charges from ESP fit, RMS=   0.00231 RRMS=   0.11895:
 ESP charges:
               1
     1  O   -0.427043
     2  C    0.438518
     3  H   -0.005737
     4  H   -0.005737
 Sum of ESP charges =  -0.00000
 ESP charges with hydrogens summed into heavy atoms:
               1
     1  O   -0.427043
     2  C    0.427043
 Charge=  -0.00000 Dipole=     0.0000    -0.0000    -2.4421 Tot=     2.4421
 -----------------------------------------------------------------

              Electrostatic Properties (Atomic Units)

 -----------------------------------------------------------------
    Center     Electric         -------- Electric Field --------
               Potential          X             Y             Z
 -----------------------------------------------------------------
    1 Atom    -22.326190
    2 Atom    -14.664210
    3 Atom     -1.078597
    4 Atom     -1.078597
 -----------------------------------------------------------------
 ******************************Gaussian NBO Version 3.1******************************
             N A T U R A L   A T O M I C   O R B I T A L   A N D
          N A T U R A L   B O N D   O R B I T A L   A N A L Y S I S
 ******************************Gaussian NBO Version 3.1******************************
       /RESON  / : Allow strongly delocalized NBO set

 Analyzing the QCI/CC density

 Job title: h2co-wavefunction                                               

 Storage needed:     57804 in NPA (2147483536 available)
 GSVD:  LWork=       -1756 too small for GESVD, short by       42456 words or       42456 for optimal perf.


 NATURAL POPULATIONS:  Natural atomic orbital occupancies 
                                                          
   NAO  Atom  No  lang   Type(AO)    Occupancy
 --------------------------------------------
     1    O    1  S      Cor( 1S)     1.99960
     2    O    1  S      Val( 2S)     1.70300
     3    O    1  S      Ryd( 3S)     0.01029
     4    O    1  S      Ryd( 4S)     0.00089
     5    O    1  S      Ryd( 5S)     0.00020
     6    O    1  px     Val( 2p)     1.28860
     7    O    1  px     Ryd( 3p)     0.00662
     8    O    1  px     Ryd( 4p)     0.00052
     9    O    1  px     Ryd( 5p)     0.00004
    10    O    1  py     Val( 2p)     1.85388
    11    O    1  py     Ryd( 3p)     0.01603
    12    O    1  py     Ryd( 4p)     0.00080
    13    O    1  py     Ryd( 5p)     0.00008
    14    O    1  pz     Val( 2p)     1.54206
    15    O    1  pz     Ryd( 3p)     0.00671
    16    O    1  pz     Ryd( 4p)     0.00047
    17    O    1  pz     Ryd( 5p)     0.00013
    18    O    1  dxy    Ryd( 3d)     0.00566
    19    O    1  dxy    Ryd( 4d)     0.00046
    20    O    1  dxy    Ryd( 5d)     0.00007
    21    O    1  dxz    Ryd( 3d)     0.00974
    22    O    1  dxz    Ryd( 4d)     0.00033
    23    O    1  dxz    Ryd( 5d)     0.00009
    24    O    1  dyz    Ryd( 3d)     0.00929
    25    O    1  dyz    Ryd( 4d)     0.00045
    26    O    1  dyz    Ryd( 5d)     0.00018
    27    O    1  dx2y2  Ryd( 3d)     0.00554
    28    O    1  dx2y2  Ryd( 4d)     0.00046
    29    O    1  dx2y2  Ryd( 5d)     0.00006
    30    O    1  dz2    Ryd( 3d)     0.01868
    31    O    1  dz2    Ryd( 4d)     0.00039
    32    O    1  dz2    Ryd( 5d)     0.00009
    33    O    1  f(0)   Ryd( 4f)     0.00086
    34    O    1  f(0)   Ryd( 5f)     0.00010
    35    O    1  f(C1)  Ryd( 4f)     0.00051
    36    O    1  f(C1)  Ryd( 5f)     0.00009
    37    O    1  f(S1)  Ryd( 4f)     0.00060
    38    O    1  f(S1)  Ryd( 5f)     0.00014
    39    O    1  f(C2)  Ryd( 4f)     0.00049
    40    O    1  f(C2)  Ryd( 5f)     0.00009
    41    O    1  f(S2)  Ryd( 4f)     0.00050
    42    O    1  f(S2)  Ryd( 5f)     0.00008
    43    O    1  f(C3)  Ryd( 4f)     0.00049
    44    O    1  f(C3)  Ryd( 5f)     0.00006
    45    O    1  f(S3)  Ryd( 4f)     0.00049
    46    O    1  f(S3)  Ryd( 5f)     0.00006

    47    C    2  S      Cor( 1S)     1.99948
    48    C    2  S      Val( 2S)     1.02796
    49    C    2  S      Ryd( 3S)     0.01387
    50    C    2  S      Ryd( 4S)     0.00021
    51    C    2  S      Ryd( 5S)     0.00010
    52    C    2  px     Val( 2p)     0.68951
    53    C    2  px     Ryd( 3p)     0.00355
    54    C    2  px     Ryd( 4p)     0.00018
    55    C    2  px     Ryd( 5p)     0.00008
    56    C    2  py     Val( 2p)     1.07232
    57    C    2  py     Ryd( 3p)     0.00446
    58    C    2  py     Ryd( 4p)     0.00036
    59    C    2  py     Ryd( 5p)     0.00007
    60    C    2  pz     Val( 2p)     0.83784
    61    C    2  pz     Ryd( 3p)     0.01273
    62    C    2  pz     Ryd( 4p)     0.00015
    63    C    2  pz     Ryd( 5p)     0.00010
    64    C    2  dxy    Ryd( 3d)     0.00488
    65    C    2  dxy    Ryd( 5d)     0.00012
    66    C    2  dxy    Ryd( 4d)     0.00013
    67    C    2  dxz    Ryd( 3d)     0.00491
    68    C    2  dxz    Ryd( 4d)     0.00021
    69    C    2  dxz    Ryd( 5d)     0.00015
    70    C    2  dyz    Ryd( 3d)     0.01181
    71    C    2  dyz    Ryd( 4d)     0.00046
    72    C    2  dyz    Ryd( 5d)     0.00035
    73    C    2  dx2y2  Ryd( 3d)     0.00481
    74    C    2  dx2y2  Ryd( 4d)     0.00017
    75    C    2  dx2y2  Ryd( 5d)     0.00006
    76    C    2  dz2    Ryd( 3d)     0.00492
    77    C    2  dz2    Ryd( 4d)     0.00031
    78    C    2  dz2    Ryd( 5d)     0.00010
    79    C    2  f(0)   Ryd( 4f)     0.00041
    80    C    2  f(0)   Ryd( 5f)     0.00010
    81    C    2  f(C1)  Ryd( 4f)     0.00033
    82    C    2  f(C1)  Ryd( 5f)     0.00009
    83    C    2  f(S1)  Ryd( 4f)     0.00049
    84    C    2  f(S1)  Ryd( 5f)     0.00009
    85    C    2  f(C2)  Ryd( 4f)     0.00052
    86    C    2  f(C2)  Ryd( 5f)     0.00011
    87    C    2  f(S2)  Ryd( 4f)     0.00046
    88    C    2  f(S2)  Ryd( 5f)     0.00010
    89    C    2  f(C3)  Ryd( 4f)     0.00038
    90    C    2  f(C3)  Ryd( 5f)     0.00014
    91    C    2  f(S3)  Ryd( 4f)     0.00047
    92    C    2  f(S3)  Ryd( 5f)     0.00011

    93    H    3  S      Val( 1S)     0.89713
    94    H    3  S      Ryd( 2S)     0.00286
    95    H    3  S      Ryd( 3S)     0.00010
    96    H    3  S      Ryd( 4S)     0.00005
    97    H    3  px     Ryd( 2p)     0.00130
    98    H    3  px     Ryd( 3p)     0.00035
    99    H    3  px     Ryd( 4p)     0.00007
   100    H    3  py     Ryd( 2p)     0.00142
   101    H    3  py     Ryd( 3p)     0.00042
   102    H    3  py     Ryd( 4p)     0.00011
   103    H    3  pz     Ryd( 2p)     0.00167
   104    H    3  pz     Ryd( 3p)     0.00040
   105    H    3  pz     Ryd( 4p)     0.00010
   106    H    3  dxy    Ryd( 3d)     0.00007
   107    H    3  dxy    Ryd( 4d)     0.00007
   108    H    3  dxz    Ryd( 3d)     0.00007
   109    H    3  dxz    Ryd( 4d)     0.00004
   110    H    3  dyz    Ryd( 3d)     0.00020
   111    H    3  dyz    Ryd( 4d)     0.00006
   112    H    3  dx2y2  Ryd( 3d)     0.00024
   113    H    3  dx2y2  Ryd( 4d)     0.00007
   114    H    3  dz2    Ryd( 3d)     0.00007
   115    H    3  dz2    Ryd( 4d)     0.00004

   116    H    4  S      Val( 1S)     0.89713
   117    H    4  S      Ryd( 2S)     0.00286
   118    H    4  S      Ryd( 3S)     0.00010
   119    H    4  S      Ryd( 4S)     0.00005
   120    H    4  px     Ryd( 2p)     0.00130
   121    H    4  px     Ryd( 3p)     0.00035
   122    H    4  px     Ryd( 4p)     0.00007
   123    H    4  py     Ryd( 2p)     0.00142
   124    H    4  py     Ryd( 3p)     0.00042
   125    H    4  py     Ryd( 4p)     0.00011
   126    H    4  pz     Ryd( 2p)     0.00167
   127    H    4  pz     Ryd( 3p)     0.00040
   128    H    4  pz     Ryd( 4p)     0.00010
   129    H    4  dxy    Ryd( 3d)     0.00007
   130    H    4  dxy    Ryd( 4d)     0.00007
   131    H    4  dxz    Ryd( 3d)     0.00007
   132    H    4  dxz    Ryd( 4d)     0.00004
   133    H    4  dyz    Ryd( 3d)     0.00020
   134    H    4  dyz    Ryd( 4d)     0.00006
   135    H    4  dx2y2  Ryd( 3d)     0.00024
   136    H    4  dx2y2  Ryd( 4d)     0.00007
   137    H    4  dz2    Ryd( 3d)     0.00007
   138    H    4  dz2    Ryd( 4d)     0.00004


 Summary of Natural Population Analysis:                  
                                                          
                                       Natural Population 
                Natural  -----------------------------------------------
    Atom  No    Charge         Core      Valence    Rydberg      Total
 -----------------------------------------------------------------------
      O    1   -0.48600      1.99960     6.38753    0.09886     8.48600
      C    2    0.29981      1.99948     3.62763    0.07307     5.70019
      H    3    0.09309      0.00000     0.89713    0.00978     0.90691
      H    4    0.09309      0.00000     0.89713    0.00978     0.90691
 =======================================================================
   * Total *    0.00000      3.99909    11.80942    0.19149    16.00000

                                 Natural Population      
 --------------------------------------------------------
   Core                       3.99909 ( 99.9772% of   4)
   Valence                   11.80942 ( 98.4118% of  12)
   Natural Minimal Basis     15.80851 ( 98.8032% of  16)
   Natural Rydberg Basis      0.19149 (  1.1968% of  16)
 --------------------------------------------------------

    Atom  No          Natural Electron Configuration
 ----------------------------------------------------------------------------
      O    1      [core]2S( 1.70)2p( 4.68)3S( 0.01)3p( 0.03)3d( 0.05)
      C    2      [core]2S( 1.03)2p( 2.60)3S( 0.01)3p( 0.02)3d( 0.03)
      H    3            1S( 0.90)
      H    4            1S( 0.90)


 NBO analysis skipped by request.
 Unable to Open any file for archive entry.
 1\1\GINC-TRAPISTA\SP\RQCISD-FC\Aug-CC-pVTZ\C1H2O1\WAGNER\02-Sep-2022\0
 \\# qcisd/aug-cc-pvtz nosymm density=current pop=(chelpg,hirshfeld,npa
 ,dipole)\\h2co-wavefunction\\0,1\O,0,0.,0.,0.679252\C,0,0.,0.,-0.52691
 1\H,0,0.,0.936614,-1.10662\H,0,0.,-0.936614,-1.10662\\Version=EM64L-G1
 6RevC.01\HF=-113.9138264\MP2=-114.3163446\MP3=-114.3203637\MP4D=-114.3
 305858\MP4DQ=-114.3217132\MP4SDQ=-114.3269752\QCISD=-114.3269808\RMSD=
 2.934e-09\Dipole=0.,0.,-0.960797\Quadrupole=0.1032514,0.1897609,-0.293
 0123,0.,0.,0.\PG=C02V [C2(C1O1),SGV(H2)]\\@
 The archive entry for this job was punched.


 THE DIFFICULTY IN SCIENCE IS OFTEN NOT SO MUCH HOW
 TO MAKE A DISCOVERY BUT RATHER TO KNOW ONE HAS MADE IT.

                                                   -- J. D. BERNAL
 Job cpu time:       0 days  1 hours 28 minutes 32.2 seconds.
 Elapsed time:       0 days  0 hours  5 minutes 36.2 seconds.
 File lengths (MBytes):  RWF=   6915 Int=      0 D2E=      0 Chk=      3 Scr=      1
 Normal termination of Gaussian 16 at Fri Sep  2 17:59:17 2022.
