 Entering Gaussian System, Link 0=/home/wagner/chemistry/gaussian/g16/g16
 Input=GAUSSIAN.com
 Output=GAUSSIAN.log
 Initial command:
 /home/wagner/chemistry/gaussian/g16/l1.exe "/home/wagner/chemistry/gaussian/work/Gau-69209.inp" -scrdir="/home/wagner/chemistry/gaussian/work/"
 Entering Link 1 = /home/wagner/chemistry/gaussian/g16/l1.exe PID=     69211.
  
 Copyright (c) 1988-2019, Gaussian, Inc.  All Rights Reserved.
  
 This is part of the Gaussian(R) 16 program.  It is based on
 the Gaussian(R) 09 system (copyright 2009, Gaussian, Inc.),
 the Gaussian(R) 03 system (copyright 2003, Gaussian, Inc.),
 the Gaussian(R) 98 system (copyright 1998, Gaussian, Inc.),
 the Gaussian(R) 94 system (copyright 1995, Gaussian, Inc.),
 the Gaussian 92(TM) system (copyright 1992, Gaussian, Inc.),
 the Gaussian 90(TM) system (copyright 1990, Gaussian, Inc.),
 the Gaussian 88(TM) system (copyright 1988, Gaussian, Inc.),
 the Gaussian 86(TM) system (copyright 1986, Carnegie Mellon
 University), and the Gaussian 82(TM) system (copyright 1983,
 Carnegie Mellon University). Gaussian is a federally registered
 trademark of Gaussian, Inc.
  
 This software contains proprietary and confidential information,
 including trade secrets, belonging to Gaussian, Inc.
  
 This software is provided under written license and may be
 used, copied, transmitted, or stored only in accord with that
 written license.
  
 The following legend is applicable only to US Government
 contracts under FAR:
  
                    RESTRICTED RIGHTS LEGEND
  
 Use, reproduction and disclosure by the US Government is
 subject to restrictions as set forth in subparagraphs (a)
 and (c) of the Commercial Computer Software - Restricted
 Rights clause in FAR 52.227-19.
  
 Gaussian, Inc.
 340 Quinnipiac St., Bldg. 40, Wallingford CT 06492
  
  
 ---------------------------------------------------------------
 Warning -- This program may not be used in any manner that
 competes with the business of Gaussian, Inc. or will provide
 assistance to any competitor of Gaussian, Inc.  The licensee
 of this program is prohibited from giving any competitor of
 Gaussian, Inc. access to this program.  By using this program,
 the user acknowledges that Gaussian, Inc. is engaged in the
 business of creating and licensing software in the field of
 computational chemistry and represents and warrants to the
 licensee that it is not a competitor of Gaussian, Inc. and that
 it will not use this program in any manner prohibited above.
 ---------------------------------------------------------------
  

 Cite this work as:
 Gaussian 16, Revision C.01,
 M. J. Frisch, G. W. Trucks, H. B. Schlegel, G. E. Scuseria, 
 M. A. Robb, J. R. Cheeseman, G. Scalmani, V. Barone, 
 G. A. Petersson, H. Nakatsuji, X. Li, M. Caricato, A. V. Marenich, 
 J. Bloino, B. G. Janesko, R. Gomperts, B. Mennucci, H. P. Hratchian, 
 J. V. Ortiz, A. F. Izmaylov, J. L. Sonnenberg, D. Williams-Young, 
 F. Ding, F. Lipparini, F. Egidi, J. Goings, B. Peng, A. Petrone, 
 T. Henderson, D. Ranasinghe, V. G. Zakrzewski, J. Gao, N. Rega, 
 G. Zheng, W. Liang, M. Hada, M. Ehara, K. Toyota, R. Fukuda, 
 J. Hasegawa, M. Ishida, T. Nakajima, Y. Honda, O. Kitao, H. Nakai, 
 T. Vreven, K. Throssell, J. A. Montgomery, Jr., J. E. Peralta, 
 F. Ogliaro, M. J. Bearpark, J. J. Heyd, E. N. Brothers, K. N. Kudin, 
 V. N. Staroverov, T. A. Keith, R. Kobayashi, J. Normand, 
 K. Raghavachari, A. P. Rendell, J. C. Burant, S. S. Iyengar, 
 J. Tomasi, M. Cossi, J. M. Millam, M. Klene, C. Adamo, R. Cammi, 
 J. W. Ochterski, R. L. Martin, K. Morokuma, O. Farkas, 
 J. B. Foresman, and D. J. Fox, Gaussian, Inc., Wallingford CT, 2019.
 
 ******************************************
 Gaussian 16:  EM64L-G16RevC.01  3-Jul-2019
                 2-Sep-2022 
 ******************************************
 %nproc=16
 Will use up to   16 processors via shared memory.
 %mem=16GB
 ----------------------------------------------------------------------
 # qcisd/aug-cc-pvtz nosymm density=current pop=(chelpg,hirshfeld,npa,d
 ipole)
 ----------------------------------------------------------------------
 1/30=1,38=1,172=1/1;
 2/12=2,15=1,17=6,18=5,40=1/2;
 3/5=16,6=1,7=10,11=9,25=1,30=1,71=1/1,2,3;
 4//1;
 5/5=2,38=5/2;
 8/6=4,9=120000,10=1/1,4;
 9/5=8,15=1/13;
 11/28=-7,31=1,32=3,42=3/11;
 10/5=6,13=10,31=1/2;
 6/7=2,8=2,9=2,10=2,15=24,20=3,22=-1,40=-1,79=1/1,2,7;
 99/5=1,9=1/99;
 -----------------
 h2co-wavefunction
 -----------------
 Symbolic Z-matrix:
 Charge =  0 Multiplicity = 1
 O                     0.        0.        0.67925 
 C                     0.        0.       -0.52691 
 H                     0.        0.93661  -1.10662 
 H                     0.       -0.93661  -1.09662 
 
                          Input orientation:                          
 ---------------------------------------------------------------------
 Center     Atomic      Atomic             Coordinates (Angstroms)
 Number     Number       Type             X           Y           Z
 ---------------------------------------------------------------------
      1          8           0        0.000000    0.000000    0.679252
      2          6           0        0.000000    0.000000   -0.526911
      3          1           0        0.000000    0.936614   -1.106620
      4          1           0        0.000000   -0.936614   -1.096620
 ---------------------------------------------------------------------
                    Distance matrix (angstroms):
                    1          2          3          4
     1  O    0.000000
     2  C    1.206163   0.000000
     3  H    2.016577   1.101503   0.000000
     4  H    2.007727   1.096273   1.873255   0.000000
 Symmetry turned off by external request.
 Stoichiometry    CH2O
 Framework group  CS[SG(CH2O)]
 Deg. of freedom     5
 Full point group                 CS      NOp   2
 Rotational constants (GHZ):         285.8134899          38.9410223          34.2716392
 Standard basis: Aug-CC-pVTZ (5D, 7F)
   138 basis functions,   198 primitive gaussians,   160 cartesian basis functions
     8 alpha electrons        8 beta electrons
       nuclear repulsion energy        31.3280127203 Hartrees.
 NAtoms=    4 NActive=    4 NUniq=    4 SFac= 1.00D+00 NAtFMM=   60 NAOKFM=F Big=F
 Integral buffers will be    131072 words long.
 Raffenetti 1 integral format.
 Two-electron integral symmetry is turned off.
 One-electron integrals computed using PRISM.
 NBasis=   138 RedAO= T EigKep=  8.39D-05  NBF=   138
 NBsUse=   138 1.00D-06 EigRej= -1.00D+00 NBFU=   138
 ExpMin= 2.53D-02 ExpMax= 1.53D+04 ExpMxC= 5.22D+02 IAcc=3 IRadAn=         5 AccDes= 0.00D+00
 Harris functional with IExCor=  205 and IRadAn=       5 diagonalized for initial guess.
 HarFok:  IExCor=  205 AccDes= 0.00D+00 IRadAn=         5 IDoV= 1 UseB2=F ITyADJ=14
 ICtDFT=  3500011 ScaDFX=  1.000000  1.000000  1.000000  1.000000
 FoFCou: FMM=F IPFlag=           0 FMFlag=      100000 FMFlg1=           0
         NFxFlg=           0 DoJE=T BraDBF=F KetDBF=T FulRan=T
         wScrn=  0.000000 ICntrl=       500 IOpCl=  0 I1Cent=   200000004 NGrid=           0
         NMat0=    1 NMatS0=      1 NMatT0=    0 NMatD0=    1 NMtDS0=    0 NMtDT0=    0
 Symmetry not used in FoFCou.
 Keep R1 ints in memory in canonical form, NReq=53861992.
 Requested convergence on RMS density matrix=1.00D-08 within 128 cycles.
 Requested convergence on MAX density matrix=1.00D-06.
 Requested convergence on             energy=1.00D-06.
 No special actions if energy rises.
 SCF Done:  E(RHF) =  -113.913888912     A.U. after   11 cycles
            NFock= 11  Conv=0.29D-08     -V/T= 2.0018
 ExpMin= 2.53D-02 ExpMax= 1.53D+04 ExpMxC= 5.22D+02 IAcc=3 IRadAn=         5 AccDes= 0.00D+00
 HarFok:  IExCor=  205 AccDes= 0.00D+00 IRadAn=         5 IDoV=-2 UseB2=F ITyADJ=14
 ICtDFT= 12500011 ScaDFX=  1.000000  1.000000  1.000000  1.000000
 Range of M.O.s used for correlation:     3   138
 NBasis=   138 NAE=     8 NBE=     8 NFC=     2 NFV=     0
 NROrb=    136 NOA=     6 NOB=     6 NVA=   130 NVB=   130

 **** Warning!!: The largest alpha MO coefficient is  0.33882120D+02

 Semi-Direct transformation.
 ModeAB=           2 MOrb=             6 LenV=    2146847461
 LASXX=      7286295 LTotXX=     7286295 LenRXX=     7286295
 LTotAB=     7445736 MaxLAS=    10510080 LenRXY=    10510080
 NonZer=    14572590 LenScr=    22628352 LnRSAI=           0
 LnScr1=           0 LExtra=           0 Total=     40424727
 MaxDsk=          -1 SrtSym=           F ITran=            4
 JobTyp=0 Pass  1:  I=   1 to   6.
 (rs|ai) integrals will be sorted in core.
 Spin components of T(2) and E(2):
     alpha-alpha T2 =       0.1374938825D-01 E2=     -0.4803244834D-01
     alpha-beta  T2 =       0.8496674076D-01 E2=     -0.3063669321D+00
     beta-beta   T2 =       0.1374938825D-01 E2=     -0.4803244834D-01
 ANorm=    0.1054734809D+01
 E2 =    -0.4024318288D+00 EUMP2 =    -0.11431632074115D+03
 Keep R2 and R3 ints in memory in canonical form, NReq=99865420.
 CIDS: In Core Option IDoMem=           1.
 Iterations=  50 Convergence= 0.100D-07
 Produce multiple copies of IABC intergrals
 Iteration Nr.   1
 **********************
 DD1Dir will call FoFMem   1 times, MxPair=        42
 NAB=    21 NAA=     0 NBB=     0.
 MP4(R+Q)=  0.88667272D-02
 E3=       -0.40448025D-02        EUMP3=      -0.11432036554D+03
 E4(DQ)=   -0.13378500D-02        UMP4(DQ)=   -0.11432170339D+03
 E4(SDQ)=  -0.65849250D-02        UMP4(SDQ)=  -0.11432695047D+03
 DE(Corr)= -0.39760990     E(Corr)=     -114.31149882    
 NORM(A)=   0.10554233D+01
 Iteration Nr.   2
 **********************
 DD1Dir will call FoFMem   1 times, MxPair=        42
 NAB=    21 NAA=     0 NBB=     0.
 DE(Corr)= -0.41152265     E(CORR)=     -114.32541156     Delta=-1.39D-02
 NORM(A)=   0.10614637D+01
 Iteration Nr.   3
 **********************
 DD1Dir will call FoFMem   1 times, MxPair=        42
 NAB=    21 NAA=     0 NBB=     0.
 DE(Corr)= -0.41145374     E(CORR)=     -114.32534265     Delta= 6.89D-05
 NORM(A)=   0.10633443D+01
 Iteration Nr.   4
 **********************
 DD1Dir will call FoFMem   1 times, MxPair=        42
 NAB=    21 NAA=     0 NBB=     0.
 DE(Corr)= -0.41285500     E(CORR)=     -114.32674391     Delta=-1.40D-03
 NORM(A)=   0.10640221D+01
 Iteration Nr.   5
 **********************
 DD1Dir will call FoFMem   1 times, MxPair=        42
 NAB=    21 NAA=     0 NBB=     0.
 DE(Corr)= -0.41304175     E(CORR)=     -114.32693066     Delta=-1.87D-04
 NORM(A)=   0.10642366D+01
 Iteration Nr.   6
 **********************
 DD1Dir will call FoFMem   1 times, MxPair=        42
 NAB=    21 NAA=     0 NBB=     0.
 DE(Corr)= -0.41306758     E(CORR)=     -114.32695649     Delta=-2.58D-05
 NORM(A)=   0.10642618D+01
 Iteration Nr.   7
 **********************
 DD1Dir will call FoFMem   1 times, MxPair=        42
 NAB=    21 NAA=     0 NBB=     0.
 DE(Corr)= -0.41306877     E(CORR)=     -114.32695768     Delta=-1.19D-06
 NORM(A)=   0.10642629D+01
 Iteration Nr.   8
 **********************
 DD1Dir will call FoFMem   1 times, MxPair=        42
 NAB=    21 NAA=     0 NBB=     0.
 DE(Corr)= -0.41306790     E(CORR)=     -114.32695681     Delta= 8.76D-07
 NORM(A)=   0.10642657D+01
 Iteration Nr.   9
 **********************
 DD1Dir will call FoFMem   1 times, MxPair=        42
 NAB=    21 NAA=     0 NBB=     0.
 DE(Corr)= -0.41306678     E(CORR)=     -114.32695570     Delta= 1.11D-06
 NORM(A)=   0.10642660D+01
 Iteration Nr.  10
 **********************
 DD1Dir will call FoFMem   1 times, MxPair=        42
 NAB=    21 NAA=     0 NBB=     0.
 DE(Corr)= -0.41306740     E(CORR)=     -114.32695632     Delta=-6.20D-07
 NORM(A)=   0.10642666D+01
 Iteration Nr.  11
 **********************
 DD1Dir will call FoFMem   1 times, MxPair=        42
 NAB=    21 NAA=     0 NBB=     0.
 DE(Corr)= -0.41306754     E(CORR)=     -114.32695645     Delta=-1.32D-07
 NORM(A)=   0.10642669D+01
 Iteration Nr.  12
 **********************
 DD1Dir will call FoFMem   1 times, MxPair=        42
 NAB=    21 NAA=     0 NBB=     0.
 DE(Corr)= -0.41306769     E(CORR)=     -114.32695660     Delta=-1.54D-07
 NORM(A)=   0.10642671D+01
 Iteration Nr.  13
 **********************
 DD1Dir will call FoFMem   1 times, MxPair=        42
 NAB=    21 NAA=     0 NBB=     0.
 DE(Corr)= -0.41306775     E(CORR)=     -114.32695666     Delta=-6.08D-08
 NORM(A)=   0.10642672D+01
 Iteration Nr.  14
 **********************
 DD1Dir will call FoFMem   1 times, MxPair=        42
 NAB=    21 NAA=     0 NBB=     0.
 DE(Corr)= -0.41306778     E(CORR)=     -114.32695669     Delta=-3.13D-08
 NORM(A)=   0.10642673D+01
 Iteration Nr.  15
 **********************
 DD1Dir will call FoFMem   1 times, MxPair=        42
 NAB=    21 NAA=     0 NBB=     0.
 DE(Corr)= -0.41306779     E(CORR)=     -114.32695670     Delta=-4.84D-09
 NORM(A)=   0.10642673D+01
 Wavefunction amplitudes converged. E(Corr)=     -114.32695670    
 Largest amplitude= 6.46D-02

 Z-amplitude iterations

 Iteration Nr.   1
 **********************
 DD1Dir will call FoFMem   1 times, MxPair=        42
 NAB=    21 NAA=     0 NBB=     0.
 DE(Z)= -0.40104564     E(Z)=     -114.31493455     Delta= 1.20D-02
 NORM(A)=   0.10642669D+01
 Iteration Nr.   2
 **********************
 DD1Dir will call FoFMem   1 times, MxPair=        42
 NAB=    21 NAA=     0 NBB=     0.
 DE(Z)= -0.40104562     E(Z)=     -114.31493453     Delta= 2.47D-08
 NORM(A)=   0.10642651D+01
 Iteration Nr.   3
 **********************
 DD1Dir will call FoFMem   1 times, MxPair=        42
 NAB=    21 NAA=     0 NBB=     0.
 DE(Z)= -0.40104553     E(Z)=     -114.31493444     Delta= 8.31D-08
 NORM(A)=   0.10642656D+01
 Iteration Nr.   4
 **********************
 DD1Dir will call FoFMem   1 times, MxPair=        42
 NAB=    21 NAA=     0 NBB=     0.
 DE(Z)= -0.40104555     E(Z)=     -114.31493446     Delta=-1.99D-08
 NORM(A)=   0.10642609D+01
 Iteration Nr.   5
 **********************
 DD1Dir will call FoFMem   1 times, MxPair=        42
 NAB=    21 NAA=     0 NBB=     0.
 DE(Z)= -0.40104531     E(Z)=     -114.31493423     Delta= 2.38D-07
 NORM(A)=   0.10601931D+01
 Iteration Nr.   6
 **********************
 DD1Dir will call FoFMem   1 times, MxPair=        42
 NAB=    21 NAA=     0 NBB=     0.
 DE(Z)= -0.40083247     E(Z)=     -114.31472139     Delta= 2.13D-04
 NORM(A)=   0.10601913D+01
 Iteration Nr.   7
 **********************
 DD1Dir will call FoFMem   1 times, MxPair=        42
 NAB=    21 NAA=     0 NBB=     0.
 DE(Z)= -0.40083179     E(Z)=     -114.31472070     Delta= 6.88D-07
 NORM(A)=   0.10601909D+01
 Iteration Nr.   8
 **********************
 DD1Dir will call FoFMem   1 times, MxPair=        42
 NAB=    21 NAA=     0 NBB=     0.
 DE(Z)= -0.40083235     E(Z)=     -114.31472126     Delta=-5.64D-07
 NORM(A)=   0.10601915D+01
 Iteration Nr.   9
 **********************
 DD1Dir will call FoFMem   1 times, MxPair=        42
 NAB=    21 NAA=     0 NBB=     0.
 DE(Z)= -0.40083211     E(Z)=     -114.31472102     Delta= 2.44D-07
 NORM(A)=   0.10601915D+01
 Iteration Nr.  10
 **********************
 DD1Dir will call FoFMem   1 times, MxPair=        42
 NAB=    21 NAA=     0 NBB=     0.
 DE(Z)= -0.40083205     E(Z)=     -114.31472097     Delta= 5.06D-08
 NORM(A)=   0.10601915D+01
 Iteration Nr.  11
 **********************
 DD1Dir will call FoFMem   1 times, MxPair=        42
 NAB=    21 NAA=     0 NBB=     0.
 DE(Z)= -0.40083208     E(Z)=     -114.31472100     Delta=-2.94D-08
 NORM(A)=   0.10601915D+01
 Iteration Nr.  12
 **********************
 DD1Dir will call FoFMem   1 times, MxPair=        42
 NAB=    21 NAA=     0 NBB=     0.
 DE(Z)= -0.40083208     E(Z)=     -114.31472099     Delta= 5.90D-09
 NORM(A)=   0.10601915D+01
 Z-amplitudes converged.
 Discarding MO integrals.
          Differentiating once with respect to electric field.
                with respect to dipole field.
          Electric field/nuclear overlap derivatives assumed to be zero.
 Keep R1 ints in memory in canonical form, NReq=53863287.
          There are     1 degrees of freedom in the 1st order CPHF.  IDoFFX=0 NUNeed=     1.
 LinEq1:  Iter=  0 NonCon=     1 RMS=3.55D-03 Max=5.56D-02 NDo=     1
 AX will form     1 AO Fock derivatives at one time.
 LinEq1:  Iter=  1 NonCon=     1 RMS=8.94D-04 Max=8.49D-03 NDo=     1
 LinEq1:  Iter=  2 NonCon=     1 RMS=2.34D-04 Max=3.41D-03 NDo=     1
 LinEq1:  Iter=  3 NonCon=     1 RMS=1.15D-04 Max=1.20D-03 NDo=     1
 LinEq1:  Iter=  4 NonCon=     1 RMS=4.43D-05 Max=5.30D-04 NDo=     1
 LinEq1:  Iter=  5 NonCon=     1 RMS=9.18D-06 Max=8.69D-05 NDo=     1
 LinEq1:  Iter=  6 NonCon=     1 RMS=1.50D-06 Max=1.73D-05 NDo=     1
 LinEq1:  Iter=  7 NonCon=     1 RMS=2.27D-07 Max=1.64D-06 NDo=     1
 LinEq1:  Iter=  8 NonCon=     1 RMS=2.60D-08 Max=2.05D-07 NDo=     1
 LinEq1:  Iter=  9 NonCon=     1 RMS=3.13D-09 Max=2.50D-08 NDo=     1
 LinEq1:  Iter= 10 NonCon=     1 RMS=2.95D-10 Max=2.30D-09 NDo=     1
 LinEq1:  Iter= 11 NonCon=     0 RMS=2.75D-11 Max=2.42D-10 NDo=     1
 Linear equations converged to 1.000D-10 1.000D-09 after    11 iterations.
 End of Minotr F.D. properties file   721 does not exist.
 End of Minotr F.D. properties file   722 does not exist.
 End of Minotr F.D. properties file   788 does not exist.

 **********************************************************************

            Population analysis using the CC Density.

 **********************************************************************

 Alpha  occ. eigenvalues --  -20.57854 -11.34165  -1.40652  -0.87182  -0.69649
 Alpha  occ. eigenvalues --   -0.65211  -0.53695  -0.44401
 Alpha virt. eigenvalues --    0.02628   0.04163   0.06243   0.07647   0.12936
 Alpha virt. eigenvalues --    0.13302   0.13358   0.17430   0.19795   0.21181
 Alpha virt. eigenvalues --    0.21722   0.25398   0.25611   0.28172   0.32077
 Alpha virt. eigenvalues --    0.33786   0.34020   0.35892   0.38807   0.39012
 Alpha virt. eigenvalues --    0.39576   0.41856   0.48143   0.49933   0.56193
 Alpha virt. eigenvalues --    0.56737   0.66961   0.67731   0.72345   0.76379
 Alpha virt. eigenvalues --    0.81845   0.83476   0.84291   0.85641   0.87631
 Alpha virt. eigenvalues --    0.88243   0.92765   0.93401   0.94050   0.98125
 Alpha virt. eigenvalues --    1.00239   1.02170   1.02365   1.03826   1.06914
 Alpha virt. eigenvalues --    1.08236   1.09794   1.10188   1.25923   1.26363
 Alpha virt. eigenvalues --    1.30679   1.37071   1.39017   1.45744   1.47715
 Alpha virt. eigenvalues --    1.51438   1.57141   1.60008   1.62599   1.70626
 Alpha virt. eigenvalues --    1.73391   1.83705   1.96481   2.00768   2.03277
 Alpha virt. eigenvalues --    2.09633   2.17841   2.28788   2.32038   2.34050
 Alpha virt. eigenvalues --    2.34465   2.48937   2.49769   2.55857   2.60692
 Alpha virt. eigenvalues --    2.71557   2.78426   2.80939   2.92073   2.92981
 Alpha virt. eigenvalues --    3.06479   3.07746   3.14616   3.18606   3.41425
 Alpha virt. eigenvalues --    3.44470   3.52894   3.56613   3.62527   3.66043
 Alpha virt. eigenvalues --    3.70349   3.89858   3.96138   4.05548   4.12013
 Alpha virt. eigenvalues --    4.16390   4.17107   4.22338   4.24549   4.36413
 Alpha virt. eigenvalues --    4.58936   4.65186   4.69048   4.77159   5.03654
 Alpha virt. eigenvalues --    5.05416   5.11135   5.16420   5.25405   5.28519
 Alpha virt. eigenvalues --    5.33639   5.39733   5.89891   6.14274   6.23679
 Alpha virt. eigenvalues --    6.49847   6.59858   6.61838   6.91599   6.95072
 Alpha virt. eigenvalues --    7.09174   7.19174   7.20622   7.41442   7.52535
 Alpha virt. eigenvalues --    7.68638   7.72615   7.77531  14.97225  16.44445
          Condensed to atoms (all electrons):
               1          2          3          4
     1  O    8.196109   0.347712  -0.062441  -0.062665
     2  C    0.347712   5.729037   0.207727   0.204615
     3  H   -0.062441   0.207727   0.434818  -0.031603
     4  H   -0.062665   0.204615  -0.031603   0.433343
 Mulliken charges:
               1
     1  O   -0.418716
     2  C   -0.489091
     3  H    0.451498
     4  H    0.456309
 Sum of Mulliken charges =   0.00000
 Mulliken charges with hydrogens summed into heavy atoms:
               1
     1  O   -0.418716
     2  C    0.418716
 Electronic spatial extent (au):  <R**2>=             60.5444
 Charge=              0.0000 electrons
 Dipole moment (field-independent basis, Debye):
    X=              0.0000    Y=             -0.0036    Z=             -2.4444  Tot=              2.4444
 Quadrupole moment (field-independent basis, Debye-Ang):
   XX=            -11.7331   YY=            -11.6060   ZZ=            -12.2796
   XY=             -0.0000   XZ=              0.0000   YZ=             -0.0046
 Traceless Quadrupole moment (field-independent basis, Debye-Ang):
   XX=              0.1398   YY=              0.2669   ZZ=             -0.4067
   XY=             -0.0000   XZ=              0.0000   YZ=             -0.0046
 Octapole moment (field-independent basis, Debye-Ang**2):
  XXX=              0.0000  YYY=             -0.0198  ZZZ=              0.2877  XYY=              0.0000
  XXY=             -0.0062  XXZ=              0.5661  XZZ=              0.0000  YZZ=              0.0059
  YYZ=             -0.7213  XYZ=              0.0000
 Hexadecapole moment (field-independent basis, Debye-Ang**3):
 XXXX=            -10.5132 YYYY=            -18.1894 ZZZZ=            -46.1508 XXXY=             -0.0000
 XXXZ=              0.0000 YYYX=             -0.0000 YYYZ=              0.0282 ZZZX=             -0.0000
 ZZZY=              0.0091 XXYY=             -5.1460 XXZZ=             -9.3691 YYZZ=            -10.4370
 XXYZ=              0.0132 YYXZ=              0.0000 ZZXY=             -0.0000
 N-N= 3.132801272029D+01 E-N=-3.314159155301D+02  KE= 1.142395961883D+02
 There are a total of       93160 grid points.
 ElSum from          density=       15.9999998813
 ElSum from atomic densities=       15.9999997920

 Hirshfeld populations at iteration   1 (CX, CA, CB, DipXYZ):
               1          2          3          4          5          6
     1  O    0.000003   4.111055   4.111055   0.000000  -0.000579  -0.110237
     2  C    0.000000   2.933469   2.933469   0.000000   0.000106  -0.097836
     3  H    0.000001   0.477690   0.477690   0.000000   0.113447  -0.075851
     4  H    0.000001   0.477786   0.477786  -0.000000  -0.114733  -0.074821
       Tot   0.000004   8.000000   8.000000   0.000000  -0.001758  -0.358746

 Dip from Atomic Chgs              0.000000   0.000341  -0.602970
         Total Dipole              0.000000  -0.001417  -0.961716

 Hirshfeld charges, spin densities, dipoles, and CM5 charges using IRadAn=      5:
              Q-H        S-H        Dx         Dy         Dz        Q-CM5   
     1  O   -0.222110   0.000000   0.000000  -0.000579  -0.110237  -0.283734
     2  C    0.133062   0.000000   0.000000   0.000106  -0.097836   0.076460
     3  H    0.044621   0.000000   0.000000   0.113447  -0.075851   0.103296
     4  H    0.044428   0.000000  -0.000000  -0.114733  -0.074821   0.103978
       Tot   0.000000   0.000000   0.000000  -0.001758  -0.358746   0.000000
 Hirshfeld charges with hydrogens summed into heavy atoms:
              Q-H       Q-CM5   
     1  O   -0.222110  -0.283734
     2  C    0.222110   0.283734
 
 EQQ= 0.000000000000E+00 EQD= 0.000000000000E+00 EDD= 0.269355227713E-02
 EQQ+QD+DD= 0.269355227713E-02
 
 Breneman (CHELPG) radii used.
 Generate Potential Derived Charges using the Breneman model, NDens= 1.
 Grid spacing= 0.300 Box extension= 2.800
 NStep X,Y,Z=   20     26     26   Total possible points=       13520
 Number of Points to Fit=    4894

 **********************************************************************

            Electrostatic Properties Using The CC Density.

 **********************************************************************

       Atomic Center    1 is at   0.000000  0.000000  0.679252
       Atomic Center    2 is at   0.000000  0.000000 -0.526911
       Atomic Center    3 is at   0.000000  0.936614 -1.106620
       Atomic Center    4 is at   0.000000 -0.936614 -1.096620
    4894 points will be used for fitting atomic charges
 Fitting point charges to electrostatic potential
 The dipole moment will be constrained to the correct value
 Charges from ESP fit, RMS=   0.00233 RRMS=   0.11959:
 ESP charges:
               1
     1  O   -0.427460
     2  C    0.439054
     3  H   -0.006198
     4  H   -0.005397
 Sum of ESP charges =   0.00000
 ESP charges with hydrogens summed into heavy atoms:
               1
     1  O   -0.427460
     2  C    0.427460
 Charge=   0.00000 Dipole=     0.0000    -0.0036    -2.4444 Tot=     2.4444
 -----------------------------------------------------------------

              Electrostatic Properties (Atomic Units)

 -----------------------------------------------------------------
    Center     Electric         -------- Electric Field --------
               Potential          X             Y             Z
 -----------------------------------------------------------------
    1 Atom    -22.326561
    2 Atom    -14.664971
    3 Atom     -1.078335
    4 Atom     -1.079222
 -----------------------------------------------------------------
 ******************************Gaussian NBO Version 3.1******************************
             N A T U R A L   A T O M I C   O R B I T A L   A N D
          N A T U R A L   B O N D   O R B I T A L   A N A L Y S I S
 ******************************Gaussian NBO Version 3.1******************************
       /RESON  / : Allow strongly delocalized NBO set

 Analyzing the QCI/CC density

 Job title: h2co-wavefunction                                               

 Storage needed:     57804 in NPA (2147483536 available)
 GSVD:  LWork=       -1756 too small for GESVD, short by       42456 words or       42456 for optimal perf.


 NATURAL POPULATIONS:  Natural atomic orbital occupancies 
                                                          
   NAO  Atom  No  lang   Type(AO)    Occupancy
 --------------------------------------------
     1    O    1  S      Cor( 1S)     1.99961
     2    O    1  S      Val( 2S)     1.70307
     3    O    1  S      Ryd( 3S)     0.01031
     4    O    1  S      Ryd( 4S)     0.00089
     5    O    1  S      Ryd( 5S)     0.00020
     6    O    1  px     Val( 2p)     1.28806
     7    O    1  px     Ryd( 3p)     0.00663
     8    O    1  px     Ryd( 4p)     0.00052
     9    O    1  px     Ryd( 5p)     0.00004
    10    O    1  py     Val( 2p)     1.85479
    11    O    1  py     Ryd( 3p)     0.01607
    12    O    1  py     Ryd( 4p)     0.00080
    13    O    1  py     Ryd( 5p)     0.00008
    14    O    1  pz     Val( 2p)     1.54172
    15    O    1  pz     Ryd( 3p)     0.00672
    16    O    1  pz     Ryd( 4p)     0.00047
    17    O    1  pz     Ryd( 5p)     0.00014
    18    O    1  dxy    Ryd( 3d)     0.00566
    19    O    1  dxy    Ryd( 4d)     0.00046
    20    O    1  dxy    Ryd( 5d)     0.00007
    21    O    1  dxz    Ryd( 3d)     0.00973
    22    O    1  dxz    Ryd( 4d)     0.00033
    23    O    1  dxz    Ryd( 5d)     0.00009
    24    O    1  dyz    Ryd( 3d)     0.00928
    25    O    1  dyz    Ryd( 4d)     0.00045
    26    O    1  dyz    Ryd( 5d)     0.00018
    27    O    1  dx2y2  Ryd( 3d)     0.00554
    28    O    1  dx2y2  Ryd( 4d)     0.00046
    29    O    1  dx2y2  Ryd( 5d)     0.00006
    30    O    1  dz2    Ryd( 3d)     0.01867
    31    O    1  dz2    Ryd( 4d)     0.00039
    32    O    1  dz2    Ryd( 5d)     0.00009
    33    O    1  f(0)   Ryd( 4f)     0.00086
    34    O    1  f(0)   Ryd( 5f)     0.00010
    35    O    1  f(C1)  Ryd( 4f)     0.00051
    36    O    1  f(C1)  Ryd( 5f)     0.00009
    37    O    1  f(S1)  Ryd( 4f)     0.00060
    38    O    1  f(S1)  Ryd( 5f)     0.00014
    39    O    1  f(C2)  Ryd( 4f)     0.00049
    40    O    1  f(C2)  Ryd( 5f)     0.00009
    41    O    1  f(S2)  Ryd( 4f)     0.00050
    42    O    1  f(S2)  Ryd( 5f)     0.00008
    43    O    1  f(C3)  Ryd( 4f)     0.00049
    44    O    1  f(C3)  Ryd( 5f)     0.00006
    45    O    1  f(S3)  Ryd( 4f)     0.00049
    46    O    1  f(S3)  Ryd( 5f)     0.00006

    47    C    2  S      Cor( 1S)     1.99948
    48    C    2  S      Val( 2S)     1.02748
    49    C    2  S      Ryd( 3S)     0.01384
    50    C    2  S      Ryd( 4S)     0.00021
    51    C    2  S      Ryd( 5S)     0.00010
    52    C    2  px     Val( 2p)     0.69003
    53    C    2  px     Ryd( 3p)     0.00356
    54    C    2  px     Ryd( 4p)     0.00018
    55    C    2  px     Ryd( 5p)     0.00008
    56    C    2  py     Val( 2p)     1.07300
    57    C    2  py     Ryd( 3p)     0.00444
    58    C    2  py     Ryd( 4p)     0.00036
    59    C    2  py     Ryd( 5p)     0.00007
    60    C    2  pz     Val( 2p)     0.83768
    61    C    2  pz     Ryd( 3p)     0.01269
    62    C    2  pz     Ryd( 4p)     0.00015
    63    C    2  pz     Ryd( 5p)     0.00010
    64    C    2  dxy    Ryd( 3d)     0.00488
    65    C    2  dxy    Ryd( 5d)     0.00012
    66    C    2  dxy    Ryd( 4d)     0.00013
    67    C    2  dxz    Ryd( 3d)     0.00491
    68    C    2  dxz    Ryd( 4d)     0.00021
    69    C    2  dxz    Ryd( 5d)     0.00015
    70    C    2  dyz    Ryd( 3d)     0.01183
    71    C    2  dyz    Ryd( 4d)     0.00046
    72    C    2  dyz    Ryd( 5d)     0.00035
    73    C    2  dx2y2  Ryd( 3d)     0.00482
    74    C    2  dx2y2  Ryd( 4d)     0.00017
    75    C    2  dx2y2  Ryd( 5d)     0.00006
    76    C    2  dz2    Ryd( 3d)     0.00493
    77    C    2  dz2    Ryd( 4d)     0.00031
    78    C    2  dz2    Ryd( 5d)     0.00010
    79    C    2  f(0)   Ryd( 4f)     0.00041
    80    C    2  f(0)   Ryd( 5f)     0.00010
    81    C    2  f(C1)  Ryd( 4f)     0.00032
    82    C    2  f(C1)  Ryd( 5f)     0.00009
    83    C    2  f(S1)  Ryd( 4f)     0.00049
    84    C    2  f(S1)  Ryd( 5f)     0.00009
    85    C    2  f(C2)  Ryd( 4f)     0.00052
    86    C    2  f(C2)  Ryd( 5f)     0.00011
    87    C    2  f(S2)  Ryd( 4f)     0.00046
    88    C    2  f(S2)  Ryd( 5f)     0.00010
    89    C    2  f(C3)  Ryd( 4f)     0.00038
    90    C    2  f(C3)  Ryd( 5f)     0.00015
    91    C    2  f(S3)  Ryd( 4f)     0.00047
    92    C    2  f(S3)  Ryd( 5f)     0.00011

    93    H    3  S      Val( 1S)     0.89683
    94    H    3  S      Ryd( 2S)     0.00285
    95    H    3  S      Ryd( 3S)     0.00010
    96    H    3  S      Ryd( 4S)     0.00005
    97    H    3  px     Ryd( 2p)     0.00130
    98    H    3  px     Ryd( 3p)     0.00035
    99    H    3  px     Ryd( 4p)     0.00007
   100    H    3  py     Ryd( 2p)     0.00141
   101    H    3  py     Ryd( 3p)     0.00041
   102    H    3  py     Ryd( 4p)     0.00011
   103    H    3  pz     Ryd( 2p)     0.00167
   104    H    3  pz     Ryd( 3p)     0.00040
   105    H    3  pz     Ryd( 4p)     0.00010
   106    H    3  dxy    Ryd( 3d)     0.00007
   107    H    3  dxy    Ryd( 4d)     0.00007
   108    H    3  dxz    Ryd( 3d)     0.00007
   109    H    3  dxz    Ryd( 4d)     0.00004
   110    H    3  dyz    Ryd( 3d)     0.00020
   111    H    3  dyz    Ryd( 4d)     0.00006
   112    H    3  dx2y2  Ryd( 3d)     0.00024
   113    H    3  dx2y2  Ryd( 4d)     0.00007
   114    H    3  dz2    Ryd( 3d)     0.00007
   115    H    3  dz2    Ryd( 4d)     0.00004

   116    H    4  S      Val( 1S)     0.89675
   117    H    4  S      Ryd( 2S)     0.00287
   118    H    4  S      Ryd( 3S)     0.00010
   119    H    4  S      Ryd( 4S)     0.00005
   120    H    4  px     Ryd( 2p)     0.00130
   121    H    4  px     Ryd( 3p)     0.00035
   122    H    4  px     Ryd( 4p)     0.00007
   123    H    4  py     Ryd( 2p)     0.00141
   124    H    4  py     Ryd( 3p)     0.00042
   125    H    4  py     Ryd( 4p)     0.00011
   126    H    4  pz     Ryd( 2p)     0.00169
   127    H    4  pz     Ryd( 3p)     0.00040
   128    H    4  pz     Ryd( 4p)     0.00010
   129    H    4  dxy    Ryd( 3d)     0.00007
   130    H    4  dxy    Ryd( 4d)     0.00007
   131    H    4  dxz    Ryd( 3d)     0.00007
   132    H    4  dxz    Ryd( 4d)     0.00004
   133    H    4  dyz    Ryd( 3d)     0.00020
   134    H    4  dyz    Ryd( 4d)     0.00006
   135    H    4  dx2y2  Ryd( 3d)     0.00024
   136    H    4  dx2y2  Ryd( 4d)     0.00007
   137    H    4  dz2    Ryd( 3d)     0.00007
   138    H    4  dz2    Ryd( 4d)     0.00004


 Summary of Natural Population Analysis:                  
                                                          
                                       Natural Population 
                Natural  -----------------------------------------------
    Atom  No    Charge         Core      Valence    Rydberg      Total
 -----------------------------------------------------------------------
      O    1   -0.48614      1.99961     6.38764    0.09890     8.48614
      C    2    0.29931      1.99948     3.62819    0.07302     5.70069
      H    3    0.09340      0.00000     0.89683    0.00977     0.90660
      H    4    0.09343      0.00000     0.89675    0.00982     0.90657
 =======================================================================
   * Total *   -0.00000      3.99909    11.80940    0.19152    16.00000

                                 Natural Population      
 --------------------------------------------------------
   Core                       3.99909 ( 99.9772% of   4)
   Valence                   11.80940 ( 98.4117% of  12)
   Natural Minimal Basis     15.80848 ( 98.8030% of  16)
   Natural Rydberg Basis      0.19152 (  1.1970% of  16)
 --------------------------------------------------------

    Atom  No          Natural Electron Configuration
 ----------------------------------------------------------------------------
      O    1      [core]2S( 1.70)2p( 4.68)3S( 0.01)3p( 0.03)3d( 0.05)
      C    2      [core]2S( 1.03)2p( 2.60)3S( 0.01)3p( 0.02)3d( 0.03)
      H    3            1S( 0.90)
      H    4            1S( 0.90)


 NBO analysis skipped by request.
 Unable to Open any file for archive entry.
 1\1\GINC-TRAPISTA\SP\RQCISD-FC\Aug-CC-pVTZ\C1H2O1\WAGNER\02-Sep-2022\0
 \\# qcisd/aug-cc-pvtz nosymm density=current pop=(chelpg,hirshfeld,npa
 ,dipole)\\h2co-wavefunction\\0,1\O,0,0.,0.,0.679252\C,0,0.,0.,-0.52691
 1\H,0,0.,0.936614,-1.10662\H,0,0.,-0.936614,-1.09662\\Version=EM64L-G1
 6RevC.01\HF=-113.9138889\MP2=-114.3163207\MP3=-114.3203655\MP4D=-114.3
 305701\MP4DQ=-114.3217034\MP4SDQ=-114.3269505\QCISD=-114.3269567\RMSD=
 2.932e-09\Dipole=0.,-0.0014168,-0.9617161\Quadrupole=0.1039508,0.19840
 65,-0.3023573,0.,0.,-0.0034363\PG=CS [SG(C1H2O1)]\\@
 The archive entry for this job was punched.


0EVERYBODY IS IGNORANT, ONLY ON DIFFERENT SUBJECTS.
0          WILL ROGERS
 Job cpu time:       0 days  1 hours 27 minutes 12.8 seconds.
 Elapsed time:       0 days  0 hours  5 minutes 30.9 seconds.
 File lengths (MBytes):  RWF=   6915 Int=      0 D2E=      0 Chk=      3 Scr=      1
 Normal termination of Gaussian 16 at Fri Sep  2 20:07:00 2022.
