 Entering Gaussian System, Link 0=/home/wagner/chemistry/gaussian/g16/g16
 Input=GAUSSIAN.com
 Output=GAUSSIAN.log
 Initial command:
 /home/wagner/chemistry/gaussian/g16/l1.exe "/home/wagner/chemistry/gaussian/work/Gau-65543.inp" -scrdir="/home/wagner/chemistry/gaussian/work/"
 Entering Link 1 = /home/wagner/chemistry/gaussian/g16/l1.exe PID=     65545.
  
 Copyright (c) 1988-2019, Gaussian, Inc.  All Rights Reserved.
  
 This is part of the Gaussian(R) 16 program.  It is based on
 the Gaussian(R) 09 system (copyright 2009, Gaussian, Inc.),
 the Gaussian(R) 03 system (copyright 2003, Gaussian, Inc.),
 the Gaussian(R) 98 system (copyright 1998, Gaussian, Inc.),
 the Gaussian(R) 94 system (copyright 1995, Gaussian, Inc.),
 the Gaussian 92(TM) system (copyright 1992, Gaussian, Inc.),
 the Gaussian 90(TM) system (copyright 1990, Gaussian, Inc.),
 the Gaussian 88(TM) system (copyright 1988, Gaussian, Inc.),
 the Gaussian 86(TM) system (copyright 1986, Carnegie Mellon
 University), and the Gaussian 82(TM) system (copyright 1983,
 Carnegie Mellon University). Gaussian is a federally registered
 trademark of Gaussian, Inc.
  
 This software contains proprietary and confidential information,
 including trade secrets, belonging to Gaussian, Inc.
  
 This software is provided under written license and may be
 used, copied, transmitted, or stored only in accord with that
 written license.
  
 The following legend is applicable only to US Government
 contracts under FAR:
  
                    RESTRICTED RIGHTS LEGEND
  
 Use, reproduction and disclosure by the US Government is
 subject to restrictions as set forth in subparagraphs (a)
 and (c) of the Commercial Computer Software - Restricted
 Rights clause in FAR 52.227-19.
  
 Gaussian, Inc.
 340 Quinnipiac St., Bldg. 40, Wallingford CT 06492
  
  
 ---------------------------------------------------------------
 Warning -- This program may not be used in any manner that
 competes with the business of Gaussian, Inc. or will provide
 assistance to any competitor of Gaussian, Inc.  The licensee
 of this program is prohibited from giving any competitor of
 Gaussian, Inc. access to this program.  By using this program,
 the user acknowledges that Gaussian, Inc. is engaged in the
 business of creating and licensing software in the field of
 computational chemistry and represents and warrants to the
 licensee that it is not a competitor of Gaussian, Inc. and that
 it will not use this program in any manner prohibited above.
 ---------------------------------------------------------------
  

 Cite this work as:
 Gaussian 16, Revision C.01,
 M. J. Frisch, G. W. Trucks, H. B. Schlegel, G. E. Scuseria, 
 M. A. Robb, J. R. Cheeseman, G. Scalmani, V. Barone, 
 G. A. Petersson, H. Nakatsuji, X. Li, M. Caricato, A. V. Marenich, 
 J. Bloino, B. G. Janesko, R. Gomperts, B. Mennucci, H. P. Hratchian, 
 J. V. Ortiz, A. F. Izmaylov, J. L. Sonnenberg, D. Williams-Young, 
 F. Ding, F. Lipparini, F. Egidi, J. Goings, B. Peng, A. Petrone, 
 T. Henderson, D. Ranasinghe, V. G. Zakrzewski, J. Gao, N. Rega, 
 G. Zheng, W. Liang, M. Hada, M. Ehara, K. Toyota, R. Fukuda, 
 J. Hasegawa, M. Ishida, T. Nakajima, Y. Honda, O. Kitao, H. Nakai, 
 T. Vreven, K. Throssell, J. A. Montgomery, Jr., J. E. Peralta, 
 F. Ogliaro, M. J. Bearpark, J. J. Heyd, E. N. Brothers, K. N. Kudin, 
 V. N. Staroverov, T. A. Keith, R. Kobayashi, J. Normand, 
 K. Raghavachari, A. P. Rendell, J. C. Burant, S. S. Iyengar, 
 J. Tomasi, M. Cossi, J. M. Millam, M. Klene, C. Adamo, R. Cammi, 
 J. W. Ochterski, R. L. Martin, K. Morokuma, O. Farkas, 
 J. B. Foresman, and D. J. Fox, Gaussian, Inc., Wallingford CT, 2019.
 
 ******************************************
 Gaussian 16:  EM64L-G16RevC.01  3-Jul-2019
                 2-Sep-2022 
 ******************************************
 %nproc=16
 Will use up to   16 processors via shared memory.
 %mem=16GB
 ----------------------------------------------------------------------
 # qcisd/aug-cc-pvtz nosymm density=current pop=(chelpg,hirshfeld,npa,d
 ipole)
 ----------------------------------------------------------------------
 1/30=1,38=1,172=1/1;
 2/12=2,15=1,17=6,18=5,40=1/2;
 3/5=16,6=1,7=10,11=9,25=1,30=1,71=1/1,2,3;
 4//1;
 5/5=2,38=5/2;
 8/6=4,9=120000,10=1/1,4;
 9/5=8,15=1/13;
 11/28=-7,31=1,32=3,42=3/11;
 10/5=6,13=10,31=1/2;
 6/7=2,8=2,9=2,10=2,15=24,20=3,22=-1,40=-1,79=1/1,2,7;
 99/5=1,9=1/99;
 -----------------
 h2co-wavefunction
 -----------------
 Symbolic Z-matrix:
 Charge =  0 Multiplicity = 1
 O                     0.        0.        0.67925 
 C                     0.        0.       -0.53691 
 H                     0.        0.93661  -1.10662 
 H                     0.       -0.93661  -1.10662 
 
                          Input orientation:                          
 ---------------------------------------------------------------------
 Center     Atomic      Atomic             Coordinates (Angstroms)
 Number     Number       Type             X           Y           Z
 ---------------------------------------------------------------------
      1          8           0        0.000000    0.000000    0.679252
      2          6           0        0.000000    0.000000   -0.536911
      3          1           0        0.000000    0.936614   -1.106620
      4          1           0        0.000000   -0.936614   -1.106620
 ---------------------------------------------------------------------
                    Distance matrix (angstroms):
                    1          2          3          4
     1  O    0.000000
     2  C    1.216163   0.000000
     3  H    2.016577   1.096273   0.000000
     4  H    2.016577   1.096273   1.873228   0.000000
 Symmetry turned off by external request.
 Stoichiometry    CH2O
 Framework group  C2V[C2(CO),SGV(H2)]
 Deg. of freedom     3
 Full point group                 C2V     NOp   4
 Rotational constants (GHZ):         285.8122051          38.4392428          33.8823614
 Standard basis: Aug-CC-pVTZ (5D, 7F)
   138 basis functions,   198 primitive gaussians,   160 cartesian basis functions
     8 alpha electrons        8 beta electrons
       nuclear repulsion energy        31.1593549114 Hartrees.
 NAtoms=    4 NActive=    4 NUniq=    4 SFac= 1.00D+00 NAtFMM=   60 NAOKFM=F Big=F
 Integral buffers will be    131072 words long.
 Raffenetti 1 integral format.
 Two-electron integral symmetry is turned off.
 One-electron integrals computed using PRISM.
 NBasis=   138 RedAO= T EigKep=  8.41D-05  NBF=   138
 NBsUse=   138 1.00D-06 EigRej= -1.00D+00 NBFU=   138
 ExpMin= 2.53D-02 ExpMax= 1.53D+04 ExpMxC= 5.22D+02 IAcc=3 IRadAn=         5 AccDes= 0.00D+00
 Harris functional with IExCor=  205 and IRadAn=       5 diagonalized for initial guess.
 HarFok:  IExCor=  205 AccDes= 0.00D+00 IRadAn=         5 IDoV= 1 UseB2=F ITyADJ=14
 ICtDFT=  3500011 ScaDFX=  1.000000  1.000000  1.000000  1.000000
 FoFCou: FMM=F IPFlag=           0 FMFlag=      100000 FMFlg1=           0
         NFxFlg=           0 DoJE=T BraDBF=F KetDBF=T FulRan=T
         wScrn=  0.000000 ICntrl=       500 IOpCl=  0 I1Cent=   200000004 NGrid=           0
         NMat0=    1 NMatS0=      1 NMatT0=    0 NMatD0=    1 NMtDS0=    0 NMtDT0=    0
 Symmetry not used in FoFCou.
 Keep R1 ints in memory in canonical form, NReq=53861963.
 Requested convergence on RMS density matrix=1.00D-08 within 128 cycles.
 Requested convergence on MAX density matrix=1.00D-06.
 Requested convergence on             energy=1.00D-06.
 No special actions if energy rises.
 SCF Done:  E(RHF) =  -113.912852358     A.U. after   11 cycles
            NFock= 11  Conv=0.31D-08     -V/T= 2.0021
 ExpMin= 2.53D-02 ExpMax= 1.53D+04 ExpMxC= 5.22D+02 IAcc=3 IRadAn=         5 AccDes= 0.00D+00
 HarFok:  IExCor=  205 AccDes= 0.00D+00 IRadAn=         5 IDoV=-2 UseB2=F ITyADJ=14
 ICtDFT= 12500011 ScaDFX=  1.000000  1.000000  1.000000  1.000000
 Range of M.O.s used for correlation:     3   138
 NBasis=   138 NAE=     8 NBE=     8 NFC=     2 NFV=     0
 NROrb=    136 NOA=     6 NOB=     6 NVA=   130 NVB=   130

 **** Warning!!: The largest alpha MO coefficient is  0.34329523D+02

 Semi-Direct transformation.
 ModeAB=           2 MOrb=             6 LenV=    2146847489
 LASXX=      7286295 LTotXX=     7286295 LenRXX=     7286295
 LTotAB=     7445736 MaxLAS=    10510080 LenRXY=    10510080
 NonZer=    14572590 LenScr=    22628352 LnRSAI=           0
 LnScr1=           0 LExtra=           0 Total=     40424727
 MaxDsk=          -1 SrtSym=           F ITran=            4
 JobTyp=0 Pass  1:  I=   1 to   6.
 (rs|ai) integrals will be sorted in core.
 Spin components of T(2) and E(2):
     alpha-alpha T2 =       0.1388299830D-01 E2=     -0.4817451231D-01
     alpha-beta  T2 =       0.8570790662D-01 E2=     -0.3071681177D+00
     beta-beta   T2 =       0.1388299830D-01 E2=     -0.4817451231D-01
 ANorm=    0.1055212729D+01
 E2 =    -0.4035171423D+00 EUMP2 =    -0.11431636949992D+03
 Keep R2 and R3 ints in memory in canonical form, NReq=99865391.
 CIDS: In Core Option IDoMem=           1.
 Iterations=  50 Convergence= 0.100D-07
 Produce multiple copies of IABC intergrals
 Iteration Nr.   1
 **********************
 DD1Dir will call FoFMem   1 times, MxPair=        42
 NAB=    21 NAA=     0 NBB=     0.
 MP4(R+Q)=  0.89595489D-02
 E3=       -0.36435449D-02        EUMP3=      -0.11432001304D+03
 E4(DQ)=   -0.14164366D-02        UMP4(DQ)=   -0.11432142948D+03
 E4(SDQ)=  -0.68031768D-02        UMP4(SDQ)=  -0.11432681622D+03
 DE(Corr)= -0.39820114     E(Corr)=     -114.31105350    
 NORM(A)=   0.10557739D+01
 Iteration Nr.   2
 **********************
 DD1Dir will call FoFMem   1 times, MxPair=        42
 NAB=    21 NAA=     0 NBB=     0.
 DE(Corr)= -0.41240482     E(CORR)=     -114.32525718     Delta=-1.42D-02
 NORM(A)=   0.10619471D+01
 Iteration Nr.   3
 **********************
 DD1Dir will call FoFMem   1 times, MxPair=        42
 NAB=    21 NAA=     0 NBB=     0.
 DE(Corr)= -0.41228565     E(CORR)=     -114.32513801     Delta= 1.19D-04
 NORM(A)=   0.10639128D+01
 Iteration Nr.   4
 **********************
 DD1Dir will call FoFMem   1 times, MxPair=        42
 NAB=    21 NAA=     0 NBB=     0.
 DE(Corr)= -0.41373204     E(CORR)=     -114.32658439     Delta=-1.45D-03
 NORM(A)=   0.10646331D+01
 Iteration Nr.   5
 **********************
 DD1Dir will call FoFMem   1 times, MxPair=        42
 NAB=    21 NAA=     0 NBB=     0.
 DE(Corr)= -0.41392888     E(CORR)=     -114.32678124     Delta=-1.97D-04
 NORM(A)=   0.10648651D+01
 Iteration Nr.   6
 **********************
 DD1Dir will call FoFMem   1 times, MxPair=        42
 NAB=    21 NAA=     0 NBB=     0.
 DE(Corr)= -0.41395636     E(CORR)=     -114.32680872     Delta=-2.75D-05
 NORM(A)=   0.10648925D+01
 Iteration Nr.   7
 **********************
 DD1Dir will call FoFMem   1 times, MxPair=        42
 NAB=    21 NAA=     0 NBB=     0.
 DE(Corr)= -0.41395764     E(CORR)=     -114.32680999     Delta=-1.27D-06
 NORM(A)=   0.10648939D+01
 Iteration Nr.   8
 **********************
 DD1Dir will call FoFMem   1 times, MxPair=        42
 NAB=    21 NAA=     0 NBB=     0.
 DE(Corr)= -0.41395670     E(CORR)=     -114.32680906     Delta= 9.34D-07
 NORM(A)=   0.10648968D+01
 Iteration Nr.   9
 **********************
 DD1Dir will call FoFMem   1 times, MxPair=        42
 NAB=    21 NAA=     0 NBB=     0.
 DE(Corr)= -0.41395549     E(CORR)=     -114.32680785     Delta= 1.21D-06
 NORM(A)=   0.10648971D+01
 Iteration Nr.  10
 **********************
 DD1Dir will call FoFMem   1 times, MxPair=        42
 NAB=    21 NAA=     0 NBB=     0.
 DE(Corr)= -0.41395616     E(CORR)=     -114.32680851     Delta=-6.63D-07
 NORM(A)=   0.10648978D+01
 Iteration Nr.  11
 **********************
 DD1Dir will call FoFMem   1 times, MxPair=        42
 NAB=    21 NAA=     0 NBB=     0.
 DE(Corr)= -0.41395630     E(CORR)=     -114.32680865     Delta=-1.40D-07
 NORM(A)=   0.10648982D+01
 Iteration Nr.  12
 **********************
 DD1Dir will call FoFMem   1 times, MxPair=        42
 NAB=    21 NAA=     0 NBB=     0.
 DE(Corr)= -0.41395646     E(CORR)=     -114.32680882     Delta=-1.65D-07
 NORM(A)=   0.10648984D+01
 Iteration Nr.  13
 **********************
 DD1Dir will call FoFMem   1 times, MxPair=        42
 NAB=    21 NAA=     0 NBB=     0.
 DE(Corr)= -0.41395653     E(CORR)=     -114.32680889     Delta=-6.66D-08
 NORM(A)=   0.10648985D+01
 Iteration Nr.  14
 **********************
 DD1Dir will call FoFMem   1 times, MxPair=        42
 NAB=    21 NAA=     0 NBB=     0.
 DE(Corr)= -0.41395656     E(CORR)=     -114.32680892     Delta=-3.40D-08
 NORM(A)=   0.10648985D+01
 Iteration Nr.  15
 **********************
 DD1Dir will call FoFMem   1 times, MxPair=        42
 NAB=    21 NAA=     0 NBB=     0.
 DE(Corr)= -0.41395657     E(CORR)=     -114.32680892     Delta=-5.33D-09
 NORM(A)=   0.10648986D+01
 Wavefunction amplitudes converged. E(Corr)=     -114.32680892    
 Largest amplitude= 6.50D-02

 Z-amplitude iterations

 Iteration Nr.   1
 **********************
 DD1Dir will call FoFMem   1 times, MxPair=        42
 NAB=    21 NAA=     0 NBB=     0.
 DE(Z)= -0.40175451     E(Z)=     -114.31460687     Delta= 1.22D-02
 NORM(A)=   0.10648981D+01
 Iteration Nr.   2
 **********************
 DD1Dir will call FoFMem   1 times, MxPair=        42
 NAB=    21 NAA=     0 NBB=     0.
 DE(Z)= -0.40175449     E(Z)=     -114.31460684     Delta= 2.37D-08
 NORM(A)=   0.10648980D+01
 Iteration Nr.   3
 **********************
 DD1Dir will call FoFMem   1 times, MxPair=        42
 NAB=    21 NAA=     0 NBB=     0.
 DE(Z)= -0.40175449     E(Z)=     -114.31460685     Delta=-1.35D-09
 NORM(A)=   0.10648955D+01
 Iteration Nr.   4
 **********************
 DD1Dir will call FoFMem   1 times, MxPair=        42
 NAB=    21 NAA=     0 NBB=     0.
 DE(Z)= -0.40175437     E(Z)=     -114.31460673     Delta= 1.18D-07
 NORM(A)=   0.10648957D+01
 Iteration Nr.   5
 **********************
 DD1Dir will call FoFMem   1 times, MxPair=        42
 NAB=    21 NAA=     0 NBB=     0.
 DE(Z)= -0.40175438     E(Z)=     -114.31460674     Delta=-9.11D-09
 NORM(A)=   0.10607027D+01
 Iteration Nr.   6
 **********************
 DD1Dir will call FoFMem   1 times, MxPair=        42
 NAB=    21 NAA=     0 NBB=     0.
 DE(Z)= -0.40155474     E(Z)=     -114.31440710     Delta= 2.00D-04
 NORM(A)=   0.10607218D+01
 Iteration Nr.   7
 **********************
 DD1Dir will call FoFMem   1 times, MxPair=        42
 NAB=    21 NAA=     0 NBB=     0.
 DE(Z)= -0.40155317     E(Z)=     -114.31440552     Delta= 1.57D-06
 NORM(A)=   0.10607213D+01
 Iteration Nr.   8
 **********************
 DD1Dir will call FoFMem   1 times, MxPair=        42
 NAB=    21 NAA=     0 NBB=     0.
 DE(Z)= -0.40155403     E(Z)=     -114.31440639     Delta=-8.67D-07
 NORM(A)=   0.10607218D+01
 Iteration Nr.   9
 **********************
 DD1Dir will call FoFMem   1 times, MxPair=        42
 NAB=    21 NAA=     0 NBB=     0.
 DE(Z)= -0.40155396     E(Z)=     -114.31440632     Delta= 7.23D-08
 NORM(A)=   0.10607218D+01
 Iteration Nr.  10
 **********************
 DD1Dir will call FoFMem   1 times, MxPair=        42
 NAB=    21 NAA=     0 NBB=     0.
 DE(Z)= -0.40155388     E(Z)=     -114.31440624     Delta= 8.11D-08
 NORM(A)=   0.10607218D+01
 Iteration Nr.  11
 **********************
 DD1Dir will call FoFMem   1 times, MxPair=        42
 NAB=    21 NAA=     0 NBB=     0.
 DE(Z)= -0.40155392     E(Z)=     -114.31440627     Delta=-3.72D-08
 NORM(A)=   0.10607218D+01
 Iteration Nr.  12
 **********************
 DD1Dir will call FoFMem   1 times, MxPair=        42
 NAB=    21 NAA=     0 NBB=     0.
 DE(Z)= -0.40155392     E(Z)=     -114.31440627     Delta=-1.51D-10
 NORM(A)=   0.10607218D+01
 Z-amplitudes converged.
 Discarding MO integrals.
          Differentiating once with respect to electric field.
                with respect to dipole field.
          Electric field/nuclear overlap derivatives assumed to be zero.
 Keep R1 ints in memory in canonical form, NReq=53863258.
          There are     1 degrees of freedom in the 1st order CPHF.  IDoFFX=0 NUNeed=     1.
 LinEq1:  Iter=  0 NonCon=     1 RMS=3.59D-03 Max=5.65D-02 NDo=     1
 AX will form     1 AO Fock derivatives at one time.
 LinEq1:  Iter=  1 NonCon=     1 RMS=9.05D-04 Max=8.51D-03 NDo=     1
 LinEq1:  Iter=  2 NonCon=     1 RMS=2.40D-04 Max=3.56D-03 NDo=     1
 LinEq1:  Iter=  3 NonCon=     1 RMS=1.18D-04 Max=1.24D-03 NDo=     1
 LinEq1:  Iter=  4 NonCon=     1 RMS=4.75D-05 Max=6.05D-04 NDo=     1
 LinEq1:  Iter=  5 NonCon=     1 RMS=9.76D-06 Max=9.35D-05 NDo=     1
 LinEq1:  Iter=  6 NonCon=     1 RMS=1.57D-06 Max=1.80D-05 NDo=     1
 LinEq1:  Iter=  7 NonCon=     1 RMS=2.40D-07 Max=1.74D-06 NDo=     1
 LinEq1:  Iter=  8 NonCon=     1 RMS=2.76D-08 Max=2.19D-07 NDo=     1
 LinEq1:  Iter=  9 NonCon=     1 RMS=3.32D-09 Max=2.66D-08 NDo=     1
 LinEq1:  Iter= 10 NonCon=     1 RMS=3.14D-10 Max=2.44D-09 NDo=     1
 LinEq1:  Iter= 11 NonCon=     0 RMS=2.79D-11 Max=2.45D-10 NDo=     1
 Linear equations converged to 1.000D-10 1.000D-09 after    11 iterations.
 End of Minotr F.D. properties file   721 does not exist.
 End of Minotr F.D. properties file   722 does not exist.
 End of Minotr F.D. properties file   788 does not exist.

 **********************************************************************

            Population analysis using the CC Density.

 **********************************************************************

 Alpha  occ. eigenvalues --  -20.57894 -11.34306  -1.39997  -0.87410  -0.69570
 Alpha  occ. eigenvalues --   -0.64917  -0.53258  -0.44561
 Alpha virt. eigenvalues --    0.02612   0.04146   0.06184   0.07652   0.12753
 Alpha virt. eigenvalues --    0.13285   0.13378   0.17438   0.19745   0.21218
 Alpha virt. eigenvalues --    0.21698   0.25354   0.25586   0.28181   0.32033
 Alpha virt. eigenvalues --    0.33766   0.34060   0.35886   0.38796   0.39057
 Alpha virt. eigenvalues --    0.39553   0.41754   0.48020   0.49858   0.56267
 Alpha virt. eigenvalues --    0.56592   0.66954   0.67771   0.71909   0.76403
 Alpha virt. eigenvalues --    0.81871   0.83539   0.84328   0.85620   0.87526
 Alpha virt. eigenvalues --    0.88152   0.92794   0.93362   0.94103   0.98072
 Alpha virt. eigenvalues --    1.00152   1.02159   1.02351   1.03525   1.06929
 Alpha virt. eigenvalues --    1.08184   1.09706   1.10091   1.25832   1.26000
 Alpha virt. eigenvalues --    1.30840   1.36836   1.39125   1.45606   1.47753
 Alpha virt. eigenvalues --    1.51430   1.57149   1.59826   1.62487   1.70639
 Alpha virt. eigenvalues --    1.73198   1.83195   1.96460   2.00854   2.03318
 Alpha virt. eigenvalues --    2.10230   2.17508   2.28524   2.31692   2.33680
 Alpha virt. eigenvalues --    2.34458   2.48662   2.49601   2.55713   2.59938
 Alpha virt. eigenvalues --    2.71333   2.77934   2.80922   2.91883   2.92427
 Alpha virt. eigenvalues --    3.06611   3.08244   3.14425   3.18503   3.41290
 Alpha virt. eigenvalues --    3.43870   3.52921   3.56383   3.61917   3.65966
 Alpha virt. eigenvalues --    3.70648   3.89743   3.96687   4.04660   4.11463
 Alpha virt. eigenvalues --    4.15238   4.17134   4.21972   4.23684   4.36116
 Alpha virt. eigenvalues --    4.57800   4.65312   4.69119   4.76401   5.03077
 Alpha virt. eigenvalues --    5.04370   5.10744   5.15077   5.25580   5.28237
 Alpha virt. eigenvalues --    5.34130   5.40319   5.90942   6.13915   6.23560
 Alpha virt. eigenvalues --    6.49380   6.59819   6.61640   6.91096   6.94185
 Alpha virt. eigenvalues --    7.07838   7.18904   7.20373   7.40474   7.52445
 Alpha virt. eigenvalues --    7.67380   7.71753   7.76753  14.76377  16.45169
          Condensed to atoms (all electrons):
               1          2          3          4
     1  O    8.197651   0.342662  -0.060035  -0.060035
     2  C    0.342662   5.741813   0.205094   0.205094
     3  H   -0.060035   0.205094   0.430645  -0.033157
     4  H   -0.060035   0.205094  -0.033157   0.430645
 Mulliken charges:
               1
     1  O   -0.420243
     2  C   -0.494662
     3  H    0.457453
     4  H    0.457453
 Sum of Mulliken charges =  -0.00000
 Mulliken charges with hydrogens summed into heavy atoms:
               1
     1  O   -0.420243
     2  C    0.420243
 Electronic spatial extent (au):  <R**2>=             60.8272
 Charge=             -0.0000 electrons
 Dipole moment (field-independent basis, Debye):
    X=              0.0000    Y=             -0.0000    Z=             -2.4875  Tot=              2.4875
 Quadrupole moment (field-independent basis, Debye-Ang):
   XX=            -11.7576   YY=            -11.5922   ZZ=            -12.2368
   XY=             -0.0000   XZ=             -0.0000   YZ=              0.0000
 Traceless Quadrupole moment (field-independent basis, Debye-Ang):
   XX=              0.1046   YY=              0.2700   ZZ=             -0.3746
   XY=             -0.0000   XZ=             -0.0000   YZ=              0.0000
 Octapole moment (field-independent basis, Debye-Ang**2):
  XXX=             -0.0000  YYY=             -0.0000  ZZZ=              0.3746  XYY=             -0.0000
  XXY=             -0.0000  XXZ=              0.6021  XZZ=             -0.0000  YZZ=             -0.0000
  YYZ=             -0.7399  XYZ=              0.0000
 Hexadecapole moment (field-independent basis, Debye-Ang**3):
 XXXX=            -10.5748 YYYY=            -18.0926 ZZZZ=            -46.4505 XXXY=             -0.0000
 XXXZ=             -0.0000 YYYX=             -0.0000 YYYZ=              0.0000 ZZZX=              0.0000
 ZZZY=              0.0000 XXYY=             -5.1462 XXZZ=             -9.4347 YYZZ=            -10.4343
 XXYZ=              0.0000 YYXZ=              0.0000 ZZXY=             -0.0000
 N-N= 3.115935491142D+01 E-N=-3.310651727008D+02  KE= 1.142091648432D+02
 There are a total of       93160 grid points.
 ElSum from          density=       15.9999998825
 ElSum from atomic densities=       15.9999997937

 Hirshfeld populations at iteration   1 (CX, CA, CB, DipXYZ):
               1          2          3          4          5          6
     1  O    0.000003   4.112065   4.112065   0.000000   0.000000  -0.111758
     2  C    0.000000   2.933842   2.933842   0.000000  -0.000000  -0.100677
     3  H    0.000001   0.477046   0.477046  -0.000000   0.115934  -0.076144
     4  H    0.000001   0.477046   0.477046  -0.000000  -0.115934  -0.076144
       Tot   0.000004   8.000000   8.000000   0.000000   0.000000  -0.364724

 Dip from Atomic Chgs              0.000000  -0.000000  -0.613948
         Total Dipole              0.000000  -0.000000  -0.978672

 Hirshfeld charges, spin densities, dipoles, and CM5 charges using IRadAn=      5:
              Q-H        S-H        Dx         Dy         Dz        Q-CM5   
     1  O   -0.224130   0.000000   0.000000   0.000000  -0.111758  -0.284583
     2  C    0.132315   0.000000   0.000000  -0.000000  -0.100677   0.074208
     3  H    0.045908   0.000000  -0.000000   0.115934  -0.076144   0.105187
     4  H    0.045908   0.000000  -0.000000  -0.115934  -0.076144   0.105187
       Tot   0.000000   0.000000   0.000000   0.000000  -0.364724   0.000000
 Hirshfeld charges with hydrogens summed into heavy atoms:
              Q-H       Q-CM5   
     1  O   -0.224130  -0.284583
     2  C    0.224131   0.284583
 
 EQQ= 0.000000000000E+00 EQD= 0.000000000000E+00 EDD= 0.278659595438E-02
 EQQ+QD+DD= 0.278659595438E-02
 
 Breneman (CHELPG) radii used.
 Generate Potential Derived Charges using the Breneman model, NDens= 1.
 Grid spacing= 0.300 Box extension= 2.800
 NStep X,Y,Z=   20     26     26   Total possible points=       13520
 Number of Points to Fit=    4900

 **********************************************************************

            Electrostatic Properties Using The CC Density.

 **********************************************************************

       Atomic Center    1 is at   0.000000  0.000000  0.679252
       Atomic Center    2 is at   0.000000  0.000000 -0.536911
       Atomic Center    3 is at   0.000000  0.936614 -1.106620
       Atomic Center    4 is at   0.000000 -0.936614 -1.106620
    4900 points will be used for fitting atomic charges
 Fitting point charges to electrostatic potential
 The dipole moment will be constrained to the correct value
 Charges from ESP fit, RMS=   0.00235 RRMS=   0.11877:
 ESP charges:
               1
     1  O   -0.426757
     2  C    0.428715
     3  H   -0.000979
     4  H   -0.000979
 Sum of ESP charges =  -0.00000
 ESP charges with hydrogens summed into heavy atoms:
               1
     1  O   -0.426757
     2  C    0.426757
 Charge=  -0.00000 Dipole=     0.0000     0.0000    -2.4875 Tot=     2.4875
 -----------------------------------------------------------------

              Electrostatic Properties (Atomic Units)

 -----------------------------------------------------------------
    Center     Electric         -------- Electric Field --------
               Potential          X             Y             Z
 -----------------------------------------------------------------
    1 Atom    -22.326188
    2 Atom    -14.663710
    3 Atom     -1.077342
    4 Atom     -1.077342
 -----------------------------------------------------------------
 ******************************Gaussian NBO Version 3.1******************************
             N A T U R A L   A T O M I C   O R B I T A L   A N D
          N A T U R A L   B O N D   O R B I T A L   A N A L Y S I S
 ******************************Gaussian NBO Version 3.1******************************
       /RESON  / : Allow strongly delocalized NBO set

 Analyzing the QCI/CC density

 Job title: h2co-wavefunction                                               

 Storage needed:     57804 in NPA (2147483536 available)
 GSVD:  LWork=       -1756 too small for GESVD, short by       42456 words or       42456 for optimal perf.


 NATURAL POPULATIONS:  Natural atomic orbital occupancies 
                                                          
   NAO  Atom  No  lang   Type(AO)    Occupancy
 --------------------------------------------
     1    O    1  S      Cor( 1S)     1.99962
     2    O    1  S      Val( 2S)     1.70889
     3    O    1  S      Ryd( 3S)     0.01036
     4    O    1  S      Ryd( 4S)     0.00089
     5    O    1  S      Ryd( 5S)     0.00019
     6    O    1  px     Val( 2p)     1.28785
     7    O    1  px     Ryd( 3p)     0.00671
     8    O    1  px     Ryd( 4p)     0.00052
     9    O    1  px     Ryd( 5p)     0.00004
    10    O    1  py     Val( 2p)     1.85897
    11    O    1  py     Ryd( 3p)     0.01614
    12    O    1  py     Ryd( 4p)     0.00081
    13    O    1  py     Ryd( 5p)     0.00008
    14    O    1  pz     Val( 2p)     1.53363
    15    O    1  pz     Ryd( 3p)     0.00672
    16    O    1  pz     Ryd( 4p)     0.00047
    17    O    1  pz     Ryd( 5p)     0.00014
    18    O    1  dxy    Ryd( 3d)     0.00566
    19    O    1  dxy    Ryd( 4d)     0.00047
    20    O    1  dxy    Ryd( 5d)     0.00007
    21    O    1  dxz    Ryd( 3d)     0.00958
    22    O    1  dxz    Ryd( 4d)     0.00033
    23    O    1  dxz    Ryd( 5d)     0.00009
    24    O    1  dyz    Ryd( 3d)     0.00918
    25    O    1  dyz    Ryd( 4d)     0.00046
    26    O    1  dyz    Ryd( 5d)     0.00017
    27    O    1  dx2y2  Ryd( 3d)     0.00554
    28    O    1  dx2y2  Ryd( 4d)     0.00047
    29    O    1  dx2y2  Ryd( 5d)     0.00006
    30    O    1  dz2    Ryd( 3d)     0.01814
    31    O    1  dz2    Ryd( 4d)     0.00039
    32    O    1  dz2    Ryd( 5d)     0.00009
    33    O    1  f(0)   Ryd( 4f)     0.00085
    34    O    1  f(0)   Ryd( 5f)     0.00011
    35    O    1  f(C1)  Ryd( 4f)     0.00050
    36    O    1  f(C1)  Ryd( 5f)     0.00009
    37    O    1  f(S1)  Ryd( 4f)     0.00060
    38    O    1  f(S1)  Ryd( 5f)     0.00014
    39    O    1  f(C2)  Ryd( 4f)     0.00050
    40    O    1  f(C2)  Ryd( 5f)     0.00009
    41    O    1  f(S2)  Ryd( 4f)     0.00050
    42    O    1  f(S2)  Ryd( 5f)     0.00008
    43    O    1  f(C3)  Ryd( 4f)     0.00049
    44    O    1  f(C3)  Ryd( 5f)     0.00006
    45    O    1  f(S3)  Ryd( 4f)     0.00049
    46    O    1  f(S3)  Ryd( 5f)     0.00006

    47    C    2  S      Cor( 1S)     1.99948
    48    C    2  S      Val( 2S)     1.03138
    49    C    2  S      Ryd( 3S)     0.01362
    50    C    2  S      Ryd( 4S)     0.00021
    51    C    2  S      Ryd( 5S)     0.00010
    52    C    2  px     Val( 2p)     0.69025
    53    C    2  px     Ryd( 3p)     0.00362
    54    C    2  px     Ryd( 4p)     0.00019
    55    C    2  px     Ryd( 5p)     0.00008
    56    C    2  py     Val( 2p)     1.07474
    57    C    2  py     Ryd( 3p)     0.00443
    58    C    2  py     Ryd( 4p)     0.00035
    59    C    2  py     Ryd( 5p)     0.00007
    60    C    2  pz     Val( 2p)     0.83648
    61    C    2  pz     Ryd( 3p)     0.01235
    62    C    2  pz     Ryd( 4p)     0.00015
    63    C    2  pz     Ryd( 5p)     0.00010
    64    C    2  dxy    Ryd( 3d)     0.00488
    65    C    2  dxy    Ryd( 5d)     0.00012
    66    C    2  dxy    Ryd( 4d)     0.00013
    67    C    2  dxz    Ryd( 3d)     0.00493
    68    C    2  dxz    Ryd( 4d)     0.00021
    69    C    2  dxz    Ryd( 5d)     0.00015
    70    C    2  dyz    Ryd( 3d)     0.01188
    71    C    2  dyz    Ryd( 4d)     0.00045
    72    C    2  dyz    Ryd( 5d)     0.00034
    73    C    2  dx2y2  Ryd( 3d)     0.00484
    74    C    2  dx2y2  Ryd( 4d)     0.00017
    75    C    2  dx2y2  Ryd( 5d)     0.00006
    76    C    2  dz2    Ryd( 3d)     0.00502
    77    C    2  dz2    Ryd( 4d)     0.00030
    78    C    2  dz2    Ryd( 5d)     0.00010
    79    C    2  f(0)   Ryd( 4f)     0.00042
    80    C    2  f(0)   Ryd( 5f)     0.00010
    81    C    2  f(C1)  Ryd( 4f)     0.00033
    82    C    2  f(C1)  Ryd( 5f)     0.00009
    83    C    2  f(S1)  Ryd( 4f)     0.00050
    84    C    2  f(S1)  Ryd( 5f)     0.00009
    85    C    2  f(C2)  Ryd( 4f)     0.00052
    86    C    2  f(C2)  Ryd( 5f)     0.00011
    87    C    2  f(S2)  Ryd( 4f)     0.00046
    88    C    2  f(S2)  Ryd( 5f)     0.00010
    89    C    2  f(C3)  Ryd( 4f)     0.00038
    90    C    2  f(C3)  Ryd( 5f)     0.00015
    91    C    2  f(S3)  Ryd( 4f)     0.00047
    92    C    2  f(S3)  Ryd( 5f)     0.00011

    93    H    3  S      Val( 1S)     0.89411
    94    H    3  S      Ryd( 2S)     0.00284
    95    H    3  S      Ryd( 3S)     0.00010
    96    H    3  S      Ryd( 4S)     0.00005
    97    H    3  px     Ryd( 2p)     0.00131
    98    H    3  px     Ryd( 3p)     0.00035
    99    H    3  px     Ryd( 4p)     0.00007
   100    H    3  py     Ryd( 2p)     0.00137
   101    H    3  py     Ryd( 3p)     0.00041
   102    H    3  py     Ryd( 4p)     0.00011
   103    H    3  pz     Ryd( 2p)     0.00168
   104    H    3  pz     Ryd( 3p)     0.00040
   105    H    3  pz     Ryd( 4p)     0.00010
   106    H    3  dxy    Ryd( 3d)     0.00007
   107    H    3  dxy    Ryd( 4d)     0.00007
   108    H    3  dxz    Ryd( 3d)     0.00007
   109    H    3  dxz    Ryd( 4d)     0.00004
   110    H    3  dyz    Ryd( 3d)     0.00019
   111    H    3  dyz    Ryd( 4d)     0.00006
   112    H    3  dx2y2  Ryd( 3d)     0.00024
   113    H    3  dx2y2  Ryd( 4d)     0.00007
   114    H    3  dz2    Ryd( 3d)     0.00007
   115    H    3  dz2    Ryd( 4d)     0.00004

   116    H    4  S      Val( 1S)     0.89411
   117    H    4  S      Ryd( 2S)     0.00284
   118    H    4  S      Ryd( 3S)     0.00010
   119    H    4  S      Ryd( 4S)     0.00005
   120    H    4  px     Ryd( 2p)     0.00131
   121    H    4  px     Ryd( 3p)     0.00035
   122    H    4  px     Ryd( 4p)     0.00007
   123    H    4  py     Ryd( 2p)     0.00137
   124    H    4  py     Ryd( 3p)     0.00041
   125    H    4  py     Ryd( 4p)     0.00011
   126    H    4  pz     Ryd( 2p)     0.00168
   127    H    4  pz     Ryd( 3p)     0.00040
   128    H    4  pz     Ryd( 4p)     0.00010
   129    H    4  dxy    Ryd( 3d)     0.00007
   130    H    4  dxy    Ryd( 4d)     0.00007
   131    H    4  dxz    Ryd( 3d)     0.00007
   132    H    4  dxz    Ryd( 4d)     0.00004
   133    H    4  dyz    Ryd( 3d)     0.00019
   134    H    4  dyz    Ryd( 4d)     0.00006
   135    H    4  dx2y2  Ryd( 3d)     0.00024
   136    H    4  dx2y2  Ryd( 4d)     0.00007
   137    H    4  dz2    Ryd( 3d)     0.00007
   138    H    4  dz2    Ryd( 4d)     0.00004


 Summary of Natural Population Analysis:                  
                                                          
                                       Natural Population 
                Natural  -----------------------------------------------
    Atom  No    Charge         Core      Valence    Rydberg      Total
 -----------------------------------------------------------------------
      O    1   -0.48728      1.99962     6.38933    0.09833     8.48728
      C    2    0.29498      1.99948     3.63285    0.07269     5.70502
      H    3    0.09615      0.00000     0.89411    0.00974     0.90385
      H    4    0.09615      0.00000     0.89411    0.00974     0.90385
 =======================================================================
   * Total *   -0.00000      3.99910    11.81040    0.19050    16.00000

                                 Natural Population      
 --------------------------------------------------------
   Core                       3.99910 ( 99.9775% of   4)
   Valence                   11.81040 ( 98.4200% of  12)
   Natural Minimal Basis     15.80950 ( 98.8094% of  16)
   Natural Rydberg Basis      0.19050 (  1.1906% of  16)
 --------------------------------------------------------

    Atom  No          Natural Electron Configuration
 ----------------------------------------------------------------------------
      O    1      [core]2S( 1.71)2p( 4.68)3S( 0.01)3p( 0.03)3d( 0.05)
      C    2      [core]2S( 1.03)2p( 2.60)3S( 0.01)3p( 0.02)3d( 0.03)
      H    3            1S( 0.89)
      H    4            1S( 0.89)


 NBO analysis skipped by request.
 Unable to Open any file for archive entry.
 1\1\GINC-TRAPISTA\SP\RQCISD-FC\Aug-CC-pVTZ\C1H2O1\WAGNER\02-Sep-2022\0
 \\# qcisd/aug-cc-pvtz nosymm density=current pop=(chelpg,hirshfeld,npa
 ,dipole)\\h2co-wavefunction\\0,1\O,0,0.,0.,0.679252\C,0,0.,0.,-0.53691
 1\H,0,0.,0.936614,-1.10662\H,0,0.,-0.936614,-1.10662\\Version=EM64L-G1
 6RevC.01\HF=-113.9128524\MP2=-114.3163695\MP3=-114.320013\MP4D=-114.33
 0389\MP4DQ=-114.3214295\MP4SDQ=-114.3268162\QCISD=-114.3268089\RMSD=3.
 141e-09\Dipole=0.,0.,-0.9786721\Quadrupole=0.0777535,0.200753,-0.27850
 65,0.,0.,0.\PG=C02V [C2(C1O1),SGV(H2)]\\@
 The archive entry for this job was punched.


      THE ONE-EYED VIEW OF OUR UNIVERSE SAYS YOU MUST NOT LOOK
      FAR AFIELD FOR PROBLEMS.  SUCH PROBLEMS MAY NEVER ARRIVE. 
      INSTEAD, TEND TO THE WOLF WITHIN YOUR FENCES.
      THE PACKS RANGING OUTSIDE MAY NOT EVEN EXIST.

                              -- THE AZHAR BOOK SHAMRA I:4
                                 CHILDREN OF DUNE, BY FRANK HERBERT
 Job cpu time:       0 days  1 hours 27 minutes 40.5 seconds.
 Elapsed time:       0 days  0 hours  5 minutes 32.3 seconds.
 File lengths (MBytes):  RWF=   6915 Int=      0 D2E=      0 Chk=      3 Scr=      1
 Normal termination of Gaussian 16 at Fri Sep  2 19:05:43 2022.
