 Entering Gaussian System, Link 0=/home/wagner/chemistry/gaussian/g16/g16
 Input=GAUSSIAN.com
 Output=GAUSSIAN.log
 Initial command:
 /home/wagner/chemistry/gaussian/g16/l1.exe "/home/wagner/chemistry/gaussian/work/Gau-65878.inp" -scrdir="/home/wagner/chemistry/gaussian/work/"
 Entering Link 1 = /home/wagner/chemistry/gaussian/g16/l1.exe PID=     65880.
  
 Copyright (c) 1988-2019, Gaussian, Inc.  All Rights Reserved.
  
 This is part of the Gaussian(R) 16 program.  It is based on
 the Gaussian(R) 09 system (copyright 2009, Gaussian, Inc.),
 the Gaussian(R) 03 system (copyright 2003, Gaussian, Inc.),
 the Gaussian(R) 98 system (copyright 1998, Gaussian, Inc.),
 the Gaussian(R) 94 system (copyright 1995, Gaussian, Inc.),
 the Gaussian 92(TM) system (copyright 1992, Gaussian, Inc.),
 the Gaussian 90(TM) system (copyright 1990, Gaussian, Inc.),
 the Gaussian 88(TM) system (copyright 1988, Gaussian, Inc.),
 the Gaussian 86(TM) system (copyright 1986, Carnegie Mellon
 University), and the Gaussian 82(TM) system (copyright 1983,
 Carnegie Mellon University). Gaussian is a federally registered
 trademark of Gaussian, Inc.
  
 This software contains proprietary and confidential information,
 including trade secrets, belonging to Gaussian, Inc.
  
 This software is provided under written license and may be
 used, copied, transmitted, or stored only in accord with that
 written license.
  
 The following legend is applicable only to US Government
 contracts under FAR:
  
                    RESTRICTED RIGHTS LEGEND
  
 Use, reproduction and disclosure by the US Government is
 subject to restrictions as set forth in subparagraphs (a)
 and (c) of the Commercial Computer Software - Restricted
 Rights clause in FAR 52.227-19.
  
 Gaussian, Inc.
 340 Quinnipiac St., Bldg. 40, Wallingford CT 06492
  
  
 ---------------------------------------------------------------
 Warning -- This program may not be used in any manner that
 competes with the business of Gaussian, Inc. or will provide
 assistance to any competitor of Gaussian, Inc.  The licensee
 of this program is prohibited from giving any competitor of
 Gaussian, Inc. access to this program.  By using this program,
 the user acknowledges that Gaussian, Inc. is engaged in the
 business of creating and licensing software in the field of
 computational chemistry and represents and warrants to the
 licensee that it is not a competitor of Gaussian, Inc. and that
 it will not use this program in any manner prohibited above.
 ---------------------------------------------------------------
  

 Cite this work as:
 Gaussian 16, Revision C.01,
 M. J. Frisch, G. W. Trucks, H. B. Schlegel, G. E. Scuseria, 
 M. A. Robb, J. R. Cheeseman, G. Scalmani, V. Barone, 
 G. A. Petersson, H. Nakatsuji, X. Li, M. Caricato, A. V. Marenich, 
 J. Bloino, B. G. Janesko, R. Gomperts, B. Mennucci, H. P. Hratchian, 
 J. V. Ortiz, A. F. Izmaylov, J. L. Sonnenberg, D. Williams-Young, 
 F. Ding, F. Lipparini, F. Egidi, J. Goings, B. Peng, A. Petrone, 
 T. Henderson, D. Ranasinghe, V. G. Zakrzewski, J. Gao, N. Rega, 
 G. Zheng, W. Liang, M. Hada, M. Ehara, K. Toyota, R. Fukuda, 
 J. Hasegawa, M. Ishida, T. Nakajima, Y. Honda, O. Kitao, H. Nakai, 
 T. Vreven, K. Throssell, J. A. Montgomery, Jr., J. E. Peralta, 
 F. Ogliaro, M. J. Bearpark, J. J. Heyd, E. N. Brothers, K. N. Kudin, 
 V. N. Staroverov, T. A. Keith, R. Kobayashi, J. Normand, 
 K. Raghavachari, A. P. Rendell, J. C. Burant, S. S. Iyengar, 
 J. Tomasi, M. Cossi, J. M. Millam, M. Klene, C. Adamo, R. Cammi, 
 J. W. Ochterski, R. L. Martin, K. Morokuma, O. Farkas, 
 J. B. Foresman, and D. J. Fox, Gaussian, Inc., Wallingford CT, 2019.
 
 ******************************************
 Gaussian 16:  EM64L-G16RevC.01  3-Jul-2019
                 2-Sep-2022 
 ******************************************
 %nproc=16
 Will use up to   16 processors via shared memory.
 %mem=16GB
 ----------------------------------------------------------------------
 # qcisd/aug-cc-pvtz nosymm density=current pop=(chelpg,hirshfeld,npa,d
 ipole)
 ----------------------------------------------------------------------
 1/30=1,38=1,172=1/1;
 2/12=2,15=1,17=6,18=5,40=1/2;
 3/5=16,6=1,7=10,11=9,25=1,30=1,71=1/1,2,3;
 4//1;
 5/5=2,38=5/2;
 8/6=4,9=120000,10=1/1,4;
 9/5=8,15=1/13;
 11/28=-7,31=1,32=3,42=3/11;
 10/5=6,13=10,31=1/2;
 6/7=2,8=2,9=2,10=2,15=24,20=3,22=-1,40=-1,79=1/1,2,7;
 99/5=1,9=1/99;
 -----------------
 h2co-wavefunction
 -----------------
 Symbolic Z-matrix:
 Charge =  0 Multiplicity = 1
 O                     0.        0.        0.67925 
 C                     0.        0.       -0.52691 
 H                     0.01      0.93661  -1.10662 
 H                     0.       -0.93661  -1.10662 
 
                          Input orientation:                          
 ---------------------------------------------------------------------
 Center     Atomic      Atomic             Coordinates (Angstroms)
 Number     Number       Type             X           Y           Z
 ---------------------------------------------------------------------
      1          8           0        0.000000    0.000000    0.679252
      2          6           0        0.000000    0.000000   -0.526911
      3          1           0        0.010000    0.936614   -1.106620
      4          1           0        0.000000   -0.936614   -1.106620
 ---------------------------------------------------------------------
                    Distance matrix (angstroms):
                    1          2          3          4
     1  O    0.000000
     2  C    1.206163   0.000000
     3  H    2.016602   1.101548   0.000000
     4  H    2.016577   1.101503   1.873255   0.000000
 Symmetry turned off by external request.
 Stoichiometry    CH2O
 Framework group  C1[X(CH2O)]
 Deg. of freedom     6
 Full point group                 C1      NOp   1
 Rotational constants (GHZ):         285.7982316          38.8697420          34.2163647
 Standard basis: Aug-CC-pVTZ (5D, 7F)
   138 basis functions,   198 primitive gaussians,   160 cartesian basis functions
     8 alpha electrons        8 beta electrons
       nuclear repulsion energy        31.3048625629 Hartrees.
 NAtoms=    4 NActive=    4 NUniq=    4 SFac= 1.00D+00 NAtFMM=   60 NAOKFM=F Big=F
 Integral buffers will be    131072 words long.
 Raffenetti 1 integral format.
 Two-electron integral symmetry is turned off.
 One-electron integrals computed using PRISM.
 NBasis=   138 RedAO= T EigKep=  8.44D-05  NBF=   138
 NBsUse=   138 1.00D-06 EigRej= -1.00D+00 NBFU=   138
 ExpMin= 2.53D-02 ExpMax= 1.53D+04 ExpMxC= 5.22D+02 IAcc=3 IRadAn=         5 AccDes= 0.00D+00
 Harris functional with IExCor=  205 and IRadAn=       5 diagonalized for initial guess.
 HarFok:  IExCor=  205 AccDes= 0.00D+00 IRadAn=         5 IDoV= 1 UseB2=F ITyADJ=14
 ICtDFT=  3500011 ScaDFX=  1.000000  1.000000  1.000000  1.000000
 FoFCou: FMM=F IPFlag=           0 FMFlag=      100000 FMFlg1=           0
         NFxFlg=           0 DoJE=T BraDBF=F KetDBF=T FulRan=T
         wScrn=  0.000000 ICntrl=       500 IOpCl=  0 I1Cent=   200000004 NGrid=           0
         NMat0=    1 NMatS0=      1 NMatT0=    0 NMatD0=    1 NMtDS0=    0 NMtDT0=    0
 Symmetry not used in FoFCou.
 Keep R1 ints in memory in canonical form, NReq=53861992.
 Requested convergence on RMS density matrix=1.00D-08 within 128 cycles.
 Requested convergence on MAX density matrix=1.00D-06.
 Requested convergence on             energy=1.00D-06.
 No special actions if energy rises.
 SCF Done:  E(RHF) =  -113.913821617     A.U. after   11 cycles
            NFock= 11  Conv=0.29D-08     -V/T= 2.0018
 ExpMin= 2.53D-02 ExpMax= 1.53D+04 ExpMxC= 5.22D+02 IAcc=3 IRadAn=         5 AccDes= 0.00D+00
 HarFok:  IExCor=  205 AccDes= 0.00D+00 IRadAn=         5 IDoV=-2 UseB2=F ITyADJ=14
 ICtDFT= 12500011 ScaDFX=  1.000000  1.000000  1.000000  1.000000
 Range of M.O.s used for correlation:     3   138
 NBasis=   138 NAE=     8 NBE=     8 NFC=     2 NFV=     0
 NROrb=    136 NOA=     6 NOB=     6 NVA=   130 NVB=   130

 **** Warning!!: The largest alpha MO coefficient is  0.33804825D+02

 Semi-Direct transformation.
 ModeAB=           2 MOrb=             6 LenV=    2146847475
 LASXX=      7286295 LTotXX=     7286295 LenRXX=     7286295
 LTotAB=     7445736 MaxLAS=    10510080 LenRXY=    10510080
 NonZer=    14572590 LenScr=    22628352 LnRSAI=           0
 LnScr1=           0 LExtra=           0 Total=     40424727
 MaxDsk=          -1 SrtSym=           F ITran=            4
 JobTyp=0 Pass  1:  I=   1 to   6.
 (rs|ai) integrals will be sorted in core.
 Spin components of T(2) and E(2):
     alpha-alpha T2 =       0.1376082927D-01 E2=     -0.4804197610D-01
     alpha-beta  T2 =       0.8505578980D-01 E2=     -0.3064354509D+00
     beta-beta   T2 =       0.1376082927D-01 E2=     -0.4804197610D-01
 ANorm=    0.1054787869D+01
 E2 =    -0.4025194031D+00 EUMP2 =    -0.11431634102060D+03
 Keep R2 and R3 ints in memory in canonical form, NReq=99865420.
 CIDS: In Core Option IDoMem=           1.
 Iterations=  50 Convergence= 0.100D-07
 Produce multiple copies of IABC intergrals
 Iteration Nr.   1
 **********************
 DD1Dir will call FoFMem   1 times, MxPair=        42
 NAB=    21 NAA=     0 NBB=     0.
 MP4(R+Q)=  0.88727315D-02
 E3=       -0.40189873D-02        EUMP3=      -0.11432036001D+03
 E4(DQ)=   -0.13495877D-02        UMP4(DQ)=   -0.11432170960D+03
 E4(SDQ)=  -0.66116832D-02        UMP4(SDQ)=  -0.11432697169D+03
 DE(Corr)= -0.39766566     E(Corr)=     -114.31148728    
 NORM(A)=   0.10554813D+01
 Iteration Nr.   2
 **********************
 DD1Dir will call FoFMem   1 times, MxPair=        42
 NAB=    21 NAA=     0 NBB=     0.
 DE(Corr)= -0.41160823     E(CORR)=     -114.32542985     Delta=-1.39D-02
 NORM(A)=   0.10615354D+01
 Iteration Nr.   3
 **********************
 DD1Dir will call FoFMem   1 times, MxPair=        42
 NAB=    21 NAA=     0 NBB=     0.
 DE(Corr)= -0.41153547     E(CORR)=     -114.32535709     Delta= 7.28D-05
 NORM(A)=   0.10634223D+01
 Iteration Nr.   4
 **********************
 DD1Dir will call FoFMem   1 times, MxPair=        42
 NAB=    21 NAA=     0 NBB=     0.
 DE(Corr)= -0.41294194     E(CORR)=     -114.32676355     Delta=-1.41D-03
 NORM(A)=   0.10641022D+01
 Iteration Nr.   5
 **********************
 DD1Dir will call FoFMem   1 times, MxPair=        42
 NAB=    21 NAA=     0 NBB=     0.
 DE(Corr)= -0.41312945     E(CORR)=     -114.32695107     Delta=-1.88D-04
 NORM(A)=   0.10643173D+01
 Iteration Nr.   6
 **********************
 DD1Dir will call FoFMem   1 times, MxPair=        42
 NAB=    21 NAA=     0 NBB=     0.
 DE(Corr)= -0.41315538     E(CORR)=     -114.32697700     Delta=-2.59D-05
 NORM(A)=   0.10643426D+01
 Iteration Nr.   7
 **********************
 DD1Dir will call FoFMem   1 times, MxPair=        42
 NAB=    21 NAA=     0 NBB=     0.
 DE(Corr)= -0.41315659     E(CORR)=     -114.32697821     Delta=-1.21D-06
 NORM(A)=   0.10643438D+01
 Iteration Nr.   8
 **********************
 DD1Dir will call FoFMem   1 times, MxPair=        42
 NAB=    21 NAA=     0 NBB=     0.
 DE(Corr)= -0.41315572     E(CORR)=     -114.32697733     Delta= 8.75D-07
 NORM(A)=   0.10643466D+01
 Iteration Nr.   9
 **********************
 DD1Dir will call FoFMem   1 times, MxPair=        42
 NAB=    21 NAA=     0 NBB=     0.
 DE(Corr)= -0.41315460     E(CORR)=     -114.32697622     Delta= 1.12D-06
 NORM(A)=   0.10643469D+01
 Iteration Nr.  10
 **********************
 DD1Dir will call FoFMem   1 times, MxPair=        42
 NAB=    21 NAA=     0 NBB=     0.
 DE(Corr)= -0.41315522     E(CORR)=     -114.32697684     Delta=-6.21D-07
 NORM(A)=   0.10643475D+01
 Iteration Nr.  11
 **********************
 DD1Dir will call FoFMem   1 times, MxPair=        42
 NAB=    21 NAA=     0 NBB=     0.
 DE(Corr)= -0.41315535     E(CORR)=     -114.32697697     Delta=-1.32D-07
 NORM(A)=   0.10643478D+01
 Iteration Nr.  12
 **********************
 DD1Dir will call FoFMem   1 times, MxPair=        42
 NAB=    21 NAA=     0 NBB=     0.
 DE(Corr)= -0.41315551     E(CORR)=     -114.32697713     Delta=-1.55D-07
 NORM(A)=   0.10643480D+01
 Iteration Nr.  13
 **********************
 DD1Dir will call FoFMem   1 times, MxPair=        42
 NAB=    21 NAA=     0 NBB=     0.
 DE(Corr)= -0.41315557     E(CORR)=     -114.32697719     Delta=-6.10D-08
 NORM(A)=   0.10643481D+01
 Iteration Nr.  14
 **********************
 DD1Dir will call FoFMem   1 times, MxPair=        42
 NAB=    21 NAA=     0 NBB=     0.
 DE(Corr)= -0.41315560     E(CORR)=     -114.32697722     Delta=-3.14D-08
 NORM(A)=   0.10643482D+01
 Iteration Nr.  15
 **********************
 DD1Dir will call FoFMem   1 times, MxPair=        42
 NAB=    21 NAA=     0 NBB=     0.
 DE(Corr)= -0.41315561     E(CORR)=     -114.32697722     Delta=-4.94D-09
 NORM(A)=   0.10643482D+01
 Wavefunction amplitudes converged. E(Corr)=     -114.32697722    
 Largest amplitude= 6.44D-02

 Z-amplitude iterations

 Iteration Nr.   1
 **********************
 DD1Dir will call FoFMem   1 times, MxPair=        42
 NAB=    21 NAA=     0 NBB=     0.
 DE(Z)= -0.40112126     E(Z)=     -114.31494287     Delta= 1.20D-02
 NORM(A)=   0.10643476D+01
 Iteration Nr.   2
 **********************
 DD1Dir will call FoFMem   1 times, MxPair=        42
 NAB=    21 NAA=     0 NBB=     0.
 DE(Z)= -0.40112122     E(Z)=     -114.31494284     Delta= 3.27D-08
 NORM(A)=   0.10643565D+01
 Iteration Nr.   3
 **********************
 DD1Dir will call FoFMem   1 times, MxPair=        42
 NAB=    21 NAA=     0 NBB=     0.
 DE(Z)= -0.40112165     E(Z)=     -114.31494327     Delta=-4.27D-07
 NORM(A)=   0.10643460D+01
 Iteration Nr.   4
 **********************
 DD1Dir will call FoFMem   1 times, MxPair=        42
 NAB=    21 NAA=     0 NBB=     0.
 DE(Z)= -0.40112114     E(Z)=     -114.31494276     Delta= 5.07D-07
 NORM(A)=   0.10643461D+01
 Iteration Nr.   5
 **********************
 DD1Dir will call FoFMem   1 times, MxPair=        42
 NAB=    21 NAA=     0 NBB=     0.
 DE(Z)= -0.40112115     E(Z)=     -114.31494277     Delta=-5.23D-09
 NORM(A)=   0.10603222D+01
 Iteration Nr.   6
 **********************
 DD1Dir will call FoFMem   1 times, MxPair=        42
 NAB=    21 NAA=     0 NBB=     0.
 DE(Z)= -0.40091451     E(Z)=     -114.31473613     Delta= 2.07D-04
 NORM(A)=   0.10602904D+01
 Iteration Nr.   7
 **********************
 DD1Dir will call FoFMem   1 times, MxPair=        42
 NAB=    21 NAA=     0 NBB=     0.
 DE(Z)= -0.40090977     E(Z)=     -114.31473139     Delta= 4.74D-06
 NORM(A)=   0.10602640D+01
 Iteration Nr.   8
 **********************
 DD1Dir will call FoFMem   1 times, MxPair=        42
 NAB=    21 NAA=     0 NBB=     0.
 DE(Z)= -0.40090805     E(Z)=     -114.31472967     Delta= 1.73D-06
 NORM(A)=   0.10602660D+01
 Iteration Nr.   9
 **********************
 DD1Dir will call FoFMem   1 times, MxPair=        42
 NAB=    21 NAA=     0 NBB=     0.
 DE(Z)= -0.40090678     E(Z)=     -114.31472840     Delta= 1.27D-06
 NORM(A)=   0.10602653D+01
 Iteration Nr.  10
 **********************
 DD1Dir will call FoFMem   1 times, MxPair=        42
 NAB=    21 NAA=     0 NBB=     0.
 DE(Z)= -0.40090692     E(Z)=     -114.31472854     Delta=-1.47D-07
 NORM(A)=   0.10602652D+01
 Iteration Nr.  11
 **********************
 DD1Dir will call FoFMem   1 times, MxPair=        42
 NAB=    21 NAA=     0 NBB=     0.
 DE(Z)= -0.40090696     E(Z)=     -114.31472858     Delta=-3.71D-08
 NORM(A)=   0.10602653D+01
 Iteration Nr.  12
 **********************
 DD1Dir will call FoFMem   1 times, MxPair=        42
 NAB=    21 NAA=     0 NBB=     0.
 DE(Z)= -0.40090687     E(Z)=     -114.31472849     Delta= 9.11D-08
 NORM(A)=   0.10602653D+01
 Iteration Nr.  13
 **********************
 DD1Dir will call FoFMem   1 times, MxPair=        42
 NAB=    21 NAA=     0 NBB=     0.
 DE(Z)= -0.40090690     E(Z)=     -114.31472852     Delta=-2.98D-08
 NORM(A)=   0.10602653D+01
 Iteration Nr.  14
 **********************
 DD1Dir will call FoFMem   1 times, MxPair=        42
 NAB=    21 NAA=     0 NBB=     0.
 DE(Z)= -0.40090690     E(Z)=     -114.31472852     Delta=-2.53D-10
 NORM(A)=   0.10602653D+01
 Z-amplitudes converged.
 Discarding MO integrals.
          Differentiating once with respect to electric field.
                with respect to dipole field.
          Electric field/nuclear overlap derivatives assumed to be zero.
 Keep R1 ints in memory in canonical form, NReq=53863287.
          There are     1 degrees of freedom in the 1st order CPHF.  IDoFFX=0 NUNeed=     1.
 LinEq1:  Iter=  0 NonCon=     1 RMS=3.55D-03 Max=5.57D-02 NDo=     1
 AX will form     1 AO Fock derivatives at one time.
 LinEq1:  Iter=  1 NonCon=     1 RMS=8.96D-04 Max=8.54D-03 NDo=     1
 LinEq1:  Iter=  2 NonCon=     1 RMS=2.35D-04 Max=3.42D-03 NDo=     1
 LinEq1:  Iter=  3 NonCon=     1 RMS=1.15D-04 Max=1.21D-03 NDo=     1
 LinEq1:  Iter=  4 NonCon=     1 RMS=4.45D-05 Max=5.32D-04 NDo=     1
 LinEq1:  Iter=  5 NonCon=     1 RMS=9.21D-06 Max=8.74D-05 NDo=     1
 LinEq1:  Iter=  6 NonCon=     1 RMS=1.50D-06 Max=1.74D-05 NDo=     1
 LinEq1:  Iter=  7 NonCon=     1 RMS=2.28D-07 Max=1.66D-06 NDo=     1
 LinEq1:  Iter=  8 NonCon=     1 RMS=2.61D-08 Max=2.07D-07 NDo=     1
 LinEq1:  Iter=  9 NonCon=     1 RMS=3.14D-09 Max=2.52D-08 NDo=     1
 LinEq1:  Iter= 10 NonCon=     1 RMS=2.96D-10 Max=2.32D-09 NDo=     1
 LinEq1:  Iter= 11 NonCon=     0 RMS=2.73D-11 Max=2.36D-10 NDo=     1
 Linear equations converged to 1.000D-10 1.000D-09 after    11 iterations.
 End of Minotr F.D. properties file   721 does not exist.
 End of Minotr F.D. properties file   722 does not exist.
 End of Minotr F.D. properties file   788 does not exist.

 **********************************************************************

            Population analysis using the CC Density.

 **********************************************************************

 Alpha  occ. eigenvalues --  -20.57889 -11.34242  -1.40667  -0.87136  -0.69534
 Alpha  occ. eigenvalues --   -0.65246  -0.53718  -0.44380
 Alpha virt. eigenvalues --    0.02626   0.04168   0.06240   0.07646   0.12928
 Alpha virt. eigenvalues --    0.13296   0.13346   0.17433   0.19819   0.21172
 Alpha virt. eigenvalues --    0.21714   0.25407   0.25610   0.28125   0.32051
 Alpha virt. eigenvalues --    0.33801   0.33937   0.35899   0.38784   0.38976
 Alpha virt. eigenvalues --    0.39602   0.41890   0.48225   0.49878   0.56175
 Alpha virt. eigenvalues --    0.56743   0.66936   0.67679   0.72313   0.76378
 Alpha virt. eigenvalues --    0.81893   0.83427   0.84215   0.85684   0.87608
 Alpha virt. eigenvalues --    0.88226   0.92756   0.93411   0.93965   0.97962
 Alpha virt. eigenvalues --    1.00153   1.02082   1.02364   1.03796   1.06846
 Alpha virt. eigenvalues --    1.08250   1.09811   1.10207   1.25846   1.26589
 Alpha virt. eigenvalues --    1.30480   1.37041   1.38919   1.45784   1.47647
 Alpha virt. eigenvalues --    1.51300   1.57152   1.59856   1.62665   1.70680
 Alpha virt. eigenvalues --    1.73066   1.83595   1.96301   2.00593   2.03153
 Alpha virt. eigenvalues --    2.09406   2.18032   2.28728   2.32193   2.34114
 Alpha virt. eigenvalues --    2.34407   2.48987   2.49784   2.56027   2.60648
 Alpha virt. eigenvalues --    2.71590   2.78353   2.80904   2.92040   2.92946
 Alpha virt. eigenvalues --    3.06551   3.07634   3.14506   3.18700   3.41208
 Alpha virt. eigenvalues --    3.44419   3.52854   3.56476   3.62839   3.65982
 Alpha virt. eigenvalues --    3.70037   3.89664   3.95328   4.05621   4.11922
 Alpha virt. eigenvalues --    4.16185   4.16483   4.22045   4.24712   4.36363
 Alpha virt. eigenvalues --    4.58496   4.64821   4.68775   4.77016   5.03245
 Alpha virt. eigenvalues --    5.05127   5.10689   5.16043   5.24786   5.28451
 Alpha virt. eigenvalues --    5.32814   5.38581   5.88980   6.13722   6.23507
 Alpha virt. eigenvalues --    6.50092   6.59831   6.61840   6.91584   6.94935
 Alpha virt. eigenvalues --    7.09115   7.19092   7.20572   7.41344   7.52522
 Alpha virt. eigenvalues --    7.68634   7.72583   7.77143  14.96446  16.39589
          Condensed to atoms (all electrons):
               1          2          3          4
     1  O    8.193674   0.349453  -0.062858  -0.062865
     2  C    0.349453   5.719158   0.207807   0.207773
     3  H   -0.062858   0.207807   0.434680  -0.030396
     4  H   -0.062865   0.207773  -0.030396   0.434663
 Mulliken charges:
               1
     1  O   -0.417403
     2  C   -0.484191
     3  H    0.450768
     4  H    0.450826
 Sum of Mulliken charges =  -0.00000
 Mulliken charges with hydrogens summed into heavy atoms:
               1
     1  O   -0.417403
     2  C    0.417403
 Electronic spatial extent (au):  <R**2>=             60.6320
 Charge=             -0.0000 electrons
 Dipole moment (field-independent basis, Debye):
    X=              0.0045    Y=             -0.0001    Z=             -2.4420  Tot=              2.4420
 Quadrupole moment (field-independent basis, Debye-Ang):
   XX=            -11.7378   YY=            -11.6215   ZZ=            -12.2709
   XY=              0.0006   XZ=             -0.0039   YZ=              0.0001
 Traceless Quadrupole moment (field-independent basis, Debye-Ang):
   XX=              0.1389   YY=              0.2552   ZZ=             -0.3942
   XY=              0.0006   XZ=             -0.0039   YZ=              0.0001
 Octapole moment (field-independent basis, Debye-Ang**2):
  XXX=             -0.0215  YYY=             -0.0002  ZZZ=              0.3116  XYY=              0.0020
  XXY=              0.0000  XXZ=              0.5813  XZZ=              0.0013  YZZ=             -0.0002
  YYZ=             -0.7022  XYZ=             -0.0069
 Hexadecapole moment (field-independent basis, Debye-Ang**3):
 XXXX=            -10.5196 YYYY=            -18.2501 ZZZZ=            -46.2405 XXXY=             -0.0264
 XXXZ=              0.0277 YYYX=             -0.0149 YYYZ=              0.0003 ZZZX=              0.0170
 ZZZY=              0.0004 XXYY=             -5.1553 XXZZ=             -9.3942 YYZZ=            -10.4553
 XXYZ=             -0.0000 YYXZ=             -0.0012 ZZXY=             -0.0057
 N-N= 3.130486256294D+01 E-N=-3.313616610369D+02  KE= 1.142315652946D+02
 There are a total of       93160 grid points.
 ElSum from          density=       15.9999998840
 ElSum from atomic densities=       15.9999998026

 Hirshfeld populations at iteration   1 (CX, CA, CB, DipXYZ):
               1          2          3          4          5          6
     1  O    0.000003   4.110908   4.110908   0.000463  -0.000002  -0.109619
     2  C    0.000000   2.933357   2.933357  -0.001540  -0.000001  -0.096603
     3  H    0.000001   0.477869   0.477869   0.001617   0.113260  -0.075983
     4  H    0.000001   0.477866   0.477866   0.000408  -0.113274  -0.075992
       Tot   0.000004   8.000000   8.000000   0.000948  -0.000017  -0.358197

 Dip from Atomic Chgs              0.000836  -0.000009  -0.602575
         Total Dipole              0.001785  -0.000025  -0.960772

 Hirshfeld charges, spin densities, dipoles, and CM5 charges using IRadAn=      5:
              Q-H        S-H        Dx         Dy         Dz        Q-CM5   
     1  O   -0.221817   0.000000   0.000463  -0.000002  -0.109619  -0.283169
     2  C    0.133286   0.000000  -0.001540  -0.000001  -0.096603   0.077295
     3  H    0.044263   0.000000   0.001617   0.113260  -0.075983   0.102932
     4  H    0.044268   0.000000   0.000408  -0.113274  -0.075992   0.102943
       Tot   0.000000   0.000000   0.000948  -0.000017  -0.358197   0.000000
 Hirshfeld charges with hydrogens summed into heavy atoms:
              Q-H       Q-CM5   
     1  O   -0.221817  -0.283169
     2  C    0.221817   0.283169
 
 EQQ= 0.000000000000E+00 EQD= 0.000000000000E+00 EDD= 0.266359980734E-02
 EQQ+QD+DD= 0.266359980734E-02
 
 Breneman (CHELPG) radii used.
 Generate Potential Derived Charges using the Breneman model, NDens= 1.
 Grid spacing= 0.300 Box extension= 2.800
 NStep X,Y,Z=   20     26     26   Total possible points=       13520
 Number of Points to Fit=    4896

 **********************************************************************

            Electrostatic Properties Using The CC Density.

 **********************************************************************

       Atomic Center    1 is at   0.000000  0.000000  0.679252
       Atomic Center    2 is at   0.000000  0.000000 -0.526911
       Atomic Center    3 is at   0.010000  0.936614 -1.106620
       Atomic Center    4 is at   0.000000 -0.936614 -1.106620
    4896 points will be used for fitting atomic charges
 Fitting point charges to electrostatic potential
 The dipole moment will be constrained to the correct value
 Charges from ESP fit, RMS=   0.00382 RRMS=   0.19642:
 ESP charges:
               1
     1  O   -0.330720
     2  C    0.141805
     3  H    0.094451
     4  H    0.094465
 Sum of ESP charges =   0.00000
 ESP charges with hydrogens summed into heavy atoms:
               1
     1  O   -0.330720
     2  C    0.330720
 Charge=   0.00000 Dipole=     0.0045    -0.0001    -2.4420 Tot=     2.4420
 -----------------------------------------------------------------

              Electrostatic Properties (Atomic Units)

 -----------------------------------------------------------------
    Center     Electric         -------- Electric Field --------
               Potential          X             Y             Z
 -----------------------------------------------------------------
    1 Atom    -22.326188
    2 Atom    -14.664205
    3 Atom     -1.078594
    4 Atom     -1.078594
 -----------------------------------------------------------------
 ******************************Gaussian NBO Version 3.1******************************
             N A T U R A L   A T O M I C   O R B I T A L   A N D
          N A T U R A L   B O N D   O R B I T A L   A N A L Y S I S
 ******************************Gaussian NBO Version 3.1******************************
       /RESON  / : Allow strongly delocalized NBO set

 Analyzing the QCI/CC density

 Job title: h2co-wavefunction                                               

 Storage needed:     57804 in NPA (2147483536 available)
 GSVD:  LWork=       -1756 too small for GESVD, short by       42456 words or       42456 for optimal perf.


 NATURAL POPULATIONS:  Natural atomic orbital occupancies 
                                                          
   NAO  Atom  No  lang   Type(AO)    Occupancy
 --------------------------------------------
     1    O    1  S      Cor( 1S)     1.99960
     2    O    1  S      Val( 2S)     1.70300
     3    O    1  S      Ryd( 3S)     0.01029
     4    O    1  S      Ryd( 4S)     0.00089
     5    O    1  S      Ryd( 5S)     0.00020
     6    O    1  px     Val( 2p)     1.28861
     7    O    1  px     Ryd( 3p)     0.00662
     8    O    1  px     Ryd( 4p)     0.00052
     9    O    1  px     Ryd( 5p)     0.00004
    10    O    1  py     Val( 2p)     1.85386
    11    O    1  py     Ryd( 3p)     0.01603
    12    O    1  py     Ryd( 4p)     0.00080
    13    O    1  py     Ryd( 5p)     0.00008
    14    O    1  pz     Val( 2p)     1.54206
    15    O    1  pz     Ryd( 3p)     0.00671
    16    O    1  pz     Ryd( 4p)     0.00047
    17    O    1  pz     Ryd( 5p)     0.00013
    18    O    1  dxy    Ryd( 3d)     0.00566
    19    O    1  dxy    Ryd( 4d)     0.00046
    20    O    1  dxy    Ryd( 5d)     0.00007
    21    O    1  dxz    Ryd( 3d)     0.00974
    22    O    1  dxz    Ryd( 4d)     0.00033
    23    O    1  dxz    Ryd( 5d)     0.00009
    24    O    1  dyz    Ryd( 3d)     0.00929
    25    O    1  dyz    Ryd( 4d)     0.00045
    26    O    1  dyz    Ryd( 5d)     0.00018
    27    O    1  dx2y2  Ryd( 3d)     0.00554
    28    O    1  dx2y2  Ryd( 4d)     0.00046
    29    O    1  dx2y2  Ryd( 5d)     0.00006
    30    O    1  dz2    Ryd( 3d)     0.01868
    31    O    1  dz2    Ryd( 4d)     0.00039
    32    O    1  dz2    Ryd( 5d)     0.00009
    33    O    1  f(0)   Ryd( 4f)     0.00086
    34    O    1  f(0)   Ryd( 5f)     0.00010
    35    O    1  f(C1)  Ryd( 4f)     0.00051
    36    O    1  f(C1)  Ryd( 5f)     0.00009
    37    O    1  f(S1)  Ryd( 4f)     0.00060
    38    O    1  f(S1)  Ryd( 5f)     0.00014
    39    O    1  f(C2)  Ryd( 4f)     0.00049
    40    O    1  f(C2)  Ryd( 5f)     0.00009
    41    O    1  f(S2)  Ryd( 4f)     0.00050
    42    O    1  f(S2)  Ryd( 5f)     0.00008
    43    O    1  f(C3)  Ryd( 4f)     0.00049
    44    O    1  f(C3)  Ryd( 5f)     0.00006
    45    O    1  f(S3)  Ryd( 4f)     0.00049
    46    O    1  f(S3)  Ryd( 5f)     0.00006

    47    C    2  S      Cor( 1S)     1.99948
    48    C    2  S      Val( 2S)     1.02797
    49    C    2  S      Ryd( 3S)     0.01387
    50    C    2  S      Ryd( 4S)     0.00021
    51    C    2  S      Ryd( 5S)     0.00010
    52    C    2  px     Val( 2p)     0.68952
    53    C    2  px     Ryd( 3p)     0.00355
    54    C    2  px     Ryd( 4p)     0.00018
    55    C    2  px     Ryd( 5p)     0.00008
    56    C    2  py     Val( 2p)     1.07231
    57    C    2  py     Ryd( 3p)     0.00446
    58    C    2  py     Ryd( 4p)     0.00036
    59    C    2  py     Ryd( 5p)     0.00007
    60    C    2  pz     Val( 2p)     0.83783
    61    C    2  pz     Ryd( 3p)     0.01273
    62    C    2  pz     Ryd( 4p)     0.00015
    63    C    2  pz     Ryd( 5p)     0.00010
    64    C    2  dxy    Ryd( 3d)     0.00488
    65    C    2  dxy    Ryd( 5d)     0.00012
    66    C    2  dxy    Ryd( 4d)     0.00013
    67    C    2  dxz    Ryd( 3d)     0.00491
    68    C    2  dxz    Ryd( 4d)     0.00021
    69    C    2  dxz    Ryd( 5d)     0.00015
    70    C    2  dyz    Ryd( 3d)     0.01181
    71    C    2  dyz    Ryd( 4d)     0.00046
    72    C    2  dyz    Ryd( 5d)     0.00035
    73    C    2  dx2y2  Ryd( 3d)     0.00481
    74    C    2  dx2y2  Ryd( 4d)     0.00017
    75    C    2  dx2y2  Ryd( 5d)     0.00006
    76    C    2  dz2    Ryd( 3d)     0.00492
    77    C    2  dz2    Ryd( 4d)     0.00031
    78    C    2  dz2    Ryd( 5d)     0.00010
    79    C    2  f(0)   Ryd( 4f)     0.00041
    80    C    2  f(0)   Ryd( 5f)     0.00010
    81    C    2  f(C1)  Ryd( 4f)     0.00033
    82    C    2  f(C1)  Ryd( 5f)     0.00009
    83    C    2  f(S1)  Ryd( 4f)     0.00049
    84    C    2  f(S1)  Ryd( 5f)     0.00009
    85    C    2  f(C2)  Ryd( 4f)     0.00052
    86    C    2  f(C2)  Ryd( 5f)     0.00011
    87    C    2  f(S2)  Ryd( 4f)     0.00046
    88    C    2  f(S2)  Ryd( 5f)     0.00010
    89    C    2  f(C3)  Ryd( 4f)     0.00038
    90    C    2  f(C3)  Ryd( 5f)     0.00014
    91    C    2  f(S3)  Ryd( 4f)     0.00047
    92    C    2  f(S3)  Ryd( 5f)     0.00011

    93    H    3  S      Val( 1S)     0.89713
    94    H    3  S      Ryd( 2S)     0.00286
    95    H    3  S      Ryd( 3S)     0.00010
    96    H    3  S      Ryd( 4S)     0.00005
    97    H    3  px     Ryd( 2p)     0.00130
    98    H    3  px     Ryd( 3p)     0.00035
    99    H    3  px     Ryd( 4p)     0.00007
   100    H    3  py     Ryd( 2p)     0.00142
   101    H    3  py     Ryd( 3p)     0.00042
   102    H    3  py     Ryd( 4p)     0.00011
   103    H    3  pz     Ryd( 2p)     0.00167
   104    H    3  pz     Ryd( 3p)     0.00040
   105    H    3  pz     Ryd( 4p)     0.00010
   106    H    3  dxy    Ryd( 3d)     0.00007
   107    H    3  dxy    Ryd( 4d)     0.00007
   108    H    3  dxz    Ryd( 3d)     0.00007
   109    H    3  dxz    Ryd( 4d)     0.00004
   110    H    3  dyz    Ryd( 3d)     0.00020
   111    H    3  dyz    Ryd( 4d)     0.00006
   112    H    3  dx2y2  Ryd( 3d)     0.00024
   113    H    3  dx2y2  Ryd( 4d)     0.00007
   114    H    3  dz2    Ryd( 3d)     0.00007
   115    H    3  dz2    Ryd( 4d)     0.00004

   116    H    4  S      Val( 1S)     0.89712
   117    H    4  S      Ryd( 2S)     0.00286
   118    H    4  S      Ryd( 3S)     0.00010
   119    H    4  S      Ryd( 4S)     0.00005
   120    H    4  px     Ryd( 2p)     0.00130
   121    H    4  px     Ryd( 3p)     0.00035
   122    H    4  px     Ryd( 4p)     0.00007
   123    H    4  py     Ryd( 2p)     0.00142
   124    H    4  py     Ryd( 3p)     0.00042
   125    H    4  py     Ryd( 4p)     0.00011
   126    H    4  pz     Ryd( 2p)     0.00167
   127    H    4  pz     Ryd( 3p)     0.00040
   128    H    4  pz     Ryd( 4p)     0.00010
   129    H    4  dxy    Ryd( 3d)     0.00007
   130    H    4  dxy    Ryd( 4d)     0.00007
   131    H    4  dxz    Ryd( 3d)     0.00007
   132    H    4  dxz    Ryd( 4d)     0.00004
   133    H    4  dyz    Ryd( 3d)     0.00020
   134    H    4  dyz    Ryd( 4d)     0.00006
   135    H    4  dx2y2  Ryd( 3d)     0.00024
   136    H    4  dx2y2  Ryd( 4d)     0.00007
   137    H    4  dz2    Ryd( 3d)     0.00007
   138    H    4  dz2    Ryd( 4d)     0.00004


 Summary of Natural Population Analysis:                  
                                                          
                                       Natural Population 
                Natural  -----------------------------------------------
    Atom  No    Charge         Core      Valence    Rydberg      Total
 -----------------------------------------------------------------------
      O    1   -0.48600      1.99960     6.38753    0.09886     8.48600
      C    2    0.29980      1.99948     3.62764    0.07308     5.70020
      H    3    0.09309      0.00000     0.89713    0.00978     0.90691
      H    4    0.09310      0.00000     0.89712    0.00978     0.90690
 =======================================================================
   * Total *   -0.00000      3.99909    11.80942    0.19149    16.00000

                                 Natural Population      
 --------------------------------------------------------
   Core                       3.99909 ( 99.9772% of   4)
   Valence                   11.80942 ( 98.4118% of  12)
   Natural Minimal Basis     15.80851 ( 98.8032% of  16)
   Natural Rydberg Basis      0.19149 (  1.1968% of  16)
 --------------------------------------------------------

    Atom  No          Natural Electron Configuration
 ----------------------------------------------------------------------------
      O    1      [core]2S( 1.70)2p( 4.68)3S( 0.01)3p( 0.03)3d( 0.05)
      C    2      [core]2S( 1.03)2p( 2.60)3S( 0.01)3p( 0.02)3d( 0.03)
      H    3            1S( 0.90)
      H    4            1S( 0.90)


 NBO analysis skipped by request.
 Unable to Open any file for archive entry.
 1\1\GINC-TRAPISTA\SP\RQCISD-FC\Aug-CC-pVTZ\C1H2O1\WAGNER\02-Sep-2022\0
 \\# qcisd/aug-cc-pvtz nosymm density=current pop=(chelpg,hirshfeld,npa
 ,dipole)\\h2co-wavefunction\\0,1\O,0,0.,0.,0.679252\C,0,0.,0.,-0.52691
 1\H,0,0.01,0.936614,-1.10662\H,0,0.,-0.936614,-1.10662\\Version=EM64L-
 G16RevC.01\HF=-113.9138216\MP2=-114.316341\MP3=-114.32036\MP4D=-114.33
 05823\MP4DQ=-114.3217096\MP4SDQ=-114.3269717\QCISD=-114.3269772\RMSD=2
 .927e-09\Dipole=0.0017849,-0.0000253,-0.9607719\Quadrupole=0.1032888,0
 .1897547,-0.2930435,0.0004617,-0.0029279,0.0000665\PG=C01 [X(C1H2O1)]\
 \@
 The archive entry for this job was punched.


 THOSE WHO TRY TO PASS CHEMISTRY OFF AS A NEW SCIENCE
 SHOW HOW LITTLE KNOWLEDGE THEY HAVE OF THE CHARACTER
 AND LITERATURE OF THE ANCIENTS.
   -- NICOLAS LEFEVRE
 "COURS DE CHYMIE" J.-N.LELOUP, PARIS, 1751
 Job cpu time:       0 days  1 hours 27 minutes 37.0 seconds.
 Elapsed time:       0 days  0 hours  5 minutes 32.8 seconds.
 File lengths (MBytes):  RWF=   6915 Int=      0 D2E=      0 Chk=      3 Scr=      1
 Normal termination of Gaussian 16 at Fri Sep  2 19:11:19 2022.
