 Entering Gaussian System, Link 0=/home/wagner/chemistry/gaussian/g16/g16
 Input=GAUSSIAN.com
 Output=GAUSSIAN.log
 Initial command:
 /home/wagner/chemistry/gaussian/g16/l1.exe "/home/wagner/chemistry/gaussian/work/Gau-67549.inp" -scrdir="/home/wagner/chemistry/gaussian/work/"
 Entering Link 1 = /home/wagner/chemistry/gaussian/g16/l1.exe PID=     67551.
  
 Copyright (c) 1988-2019, Gaussian, Inc.  All Rights Reserved.
  
 This is part of the Gaussian(R) 16 program.  It is based on
 the Gaussian(R) 09 system (copyright 2009, Gaussian, Inc.),
 the Gaussian(R) 03 system (copyright 2003, Gaussian, Inc.),
 the Gaussian(R) 98 system (copyright 1998, Gaussian, Inc.),
 the Gaussian(R) 94 system (copyright 1995, Gaussian, Inc.),
 the Gaussian 92(TM) system (copyright 1992, Gaussian, Inc.),
 the Gaussian 90(TM) system (copyright 1990, Gaussian, Inc.),
 the Gaussian 88(TM) system (copyright 1988, Gaussian, Inc.),
 the Gaussian 86(TM) system (copyright 1986, Carnegie Mellon
 University), and the Gaussian 82(TM) system (copyright 1983,
 Carnegie Mellon University). Gaussian is a federally registered
 trademark of Gaussian, Inc.
  
 This software contains proprietary and confidential information,
 including trade secrets, belonging to Gaussian, Inc.
  
 This software is provided under written license and may be
 used, copied, transmitted, or stored only in accord with that
 written license.
  
 The following legend is applicable only to US Government
 contracts under FAR:
  
                    RESTRICTED RIGHTS LEGEND
  
 Use, reproduction and disclosure by the US Government is
 subject to restrictions as set forth in subparagraphs (a)
 and (c) of the Commercial Computer Software - Restricted
 Rights clause in FAR 52.227-19.
  
 Gaussian, Inc.
 340 Quinnipiac St., Bldg. 40, Wallingford CT 06492
  
  
 ---------------------------------------------------------------
 Warning -- This program may not be used in any manner that
 competes with the business of Gaussian, Inc. or will provide
 assistance to any competitor of Gaussian, Inc.  The licensee
 of this program is prohibited from giving any competitor of
 Gaussian, Inc. access to this program.  By using this program,
 the user acknowledges that Gaussian, Inc. is engaged in the
 business of creating and licensing software in the field of
 computational chemistry and represents and warrants to the
 licensee that it is not a competitor of Gaussian, Inc. and that
 it will not use this program in any manner prohibited above.
 ---------------------------------------------------------------
  

 Cite this work as:
 Gaussian 16, Revision C.01,
 M. J. Frisch, G. W. Trucks, H. B. Schlegel, G. E. Scuseria, 
 M. A. Robb, J. R. Cheeseman, G. Scalmani, V. Barone, 
 G. A. Petersson, H. Nakatsuji, X. Li, M. Caricato, A. V. Marenich, 
 J. Bloino, B. G. Janesko, R. Gomperts, B. Mennucci, H. P. Hratchian, 
 J. V. Ortiz, A. F. Izmaylov, J. L. Sonnenberg, D. Williams-Young, 
 F. Ding, F. Lipparini, F. Egidi, J. Goings, B. Peng, A. Petrone, 
 T. Henderson, D. Ranasinghe, V. G. Zakrzewski, J. Gao, N. Rega, 
 G. Zheng, W. Liang, M. Hada, M. Ehara, K. Toyota, R. Fukuda, 
 J. Hasegawa, M. Ishida, T. Nakajima, Y. Honda, O. Kitao, H. Nakai, 
 T. Vreven, K. Throssell, J. A. Montgomery, Jr., J. E. Peralta, 
 F. Ogliaro, M. J. Bearpark, J. J. Heyd, E. N. Brothers, K. N. Kudin, 
 V. N. Staroverov, T. A. Keith, R. Kobayashi, J. Normand, 
 K. Raghavachari, A. P. Rendell, J. C. Burant, S. S. Iyengar, 
 J. Tomasi, M. Cossi, J. M. Millam, M. Klene, C. Adamo, R. Cammi, 
 J. W. Ochterski, R. L. Martin, K. Morokuma, O. Farkas, 
 J. B. Foresman, and D. J. Fox, Gaussian, Inc., Wallingford CT, 2019.
 
 ******************************************
 Gaussian 16:  EM64L-G16RevC.01  3-Jul-2019
                 2-Sep-2022 
 ******************************************
 %nproc=16
 Will use up to   16 processors via shared memory.
 %mem=16GB
 ----------------------------------------------------------------------
 # qcisd/aug-cc-pvtz nosymm density=current pop=(chelpg,hirshfeld,npa,d
 ipole)
 ----------------------------------------------------------------------
 1/30=1,38=1,172=1/1;
 2/12=2,15=1,17=6,18=5,40=1/2;
 3/5=16,6=1,7=10,11=9,25=1,30=1,71=1/1,2,3;
 4//1;
 5/5=2,38=5/2;
 8/6=4,9=120000,10=1/1,4;
 9/5=8,15=1/13;
 11/28=-7,31=1,32=3,42=3/11;
 10/5=6,13=10,31=1/2;
 6/7=2,8=2,9=2,10=2,15=24,20=3,22=-1,40=-1,79=1/1,2,7;
 99/5=1,9=1/99;
 -----------------
 h2co-wavefunction
 -----------------
 Symbolic Z-matrix:
 Charge =  0 Multiplicity = 1
 O                     0.        0.        0.67925 
 C                     0.        0.       -0.52691 
 H                     0.        0.93661  -1.11662 
 H                     0.       -0.93661  -1.10662 
 
                          Input orientation:                          
 ---------------------------------------------------------------------
 Center     Atomic      Atomic             Coordinates (Angstroms)
 Number     Number       Type             X           Y           Z
 ---------------------------------------------------------------------
      1          8           0        0.000000    0.000000    0.679252
      2          6           0        0.000000    0.000000   -0.526911
      3          1           0        0.000000    0.936614   -1.116620
      4          1           0        0.000000   -0.936614   -1.106620
 ---------------------------------------------------------------------
                    Distance matrix (angstroms):
                    1          2          3          4
     1  O    0.000000
     2  C    1.206163   0.000000
     3  H    2.025439   1.106798   0.000000
     4  H    2.016577   1.101503   1.873255   0.000000
 Symmetry turned off by external request.
 Stoichiometry    CH2O
 Framework group  CS[SG(CH2O)]
 Deg. of freedom     5
 Full point group                 CS      NOp   2
 Rotational constants (GHZ):         285.8134845          38.7983748          34.1611016
 Standard basis: Aug-CC-pVTZ (5D, 7F)
   138 basis functions,   198 primitive gaussians,   160 cartesian basis functions
     8 alpha electrons        8 beta electrons
       nuclear repulsion energy        31.2820312474 Hartrees.
 NAtoms=    4 NActive=    4 NUniq=    4 SFac= 1.00D+00 NAtFMM=   60 NAOKFM=F Big=F
 Integral buffers will be    131072 words long.
 Raffenetti 1 integral format.
 Two-electron integral symmetry is turned off.
 One-electron integrals computed using PRISM.
 NBasis=   138 RedAO= T EigKep=  8.49D-05  NBF=   138
 NBsUse=   138 1.00D-06 EigRej= -1.00D+00 NBFU=   138
 ExpMin= 2.53D-02 ExpMax= 1.53D+04 ExpMxC= 5.22D+02 IAcc=3 IRadAn=         5 AccDes= 0.00D+00
 Harris functional with IExCor=  205 and IRadAn=       5 diagonalized for initial guess.
 HarFok:  IExCor=  205 AccDes= 0.00D+00 IRadAn=         5 IDoV= 1 UseB2=F ITyADJ=14
 ICtDFT=  3500011 ScaDFX=  1.000000  1.000000  1.000000  1.000000
 FoFCou: FMM=F IPFlag=           0 FMFlag=      100000 FMFlg1=           0
         NFxFlg=           0 DoJE=T BraDBF=F KetDBF=T FulRan=T
         wScrn=  0.000000 ICntrl=       500 IOpCl=  0 I1Cent=   200000004 NGrid=           0
         NMat0=    1 NMatS0=      1 NMatT0=    0 NMatD0=    1 NMtDS0=    0 NMtDT0=    0
 Symmetry not used in FoFCou.
 Keep R1 ints in memory in canonical form, NReq=53861992.
 Requested convergence on RMS density matrix=1.00D-08 within 128 cycles.
 Requested convergence on MAX density matrix=1.00D-06.
 Requested convergence on             energy=1.00D-06.
 No special actions if energy rises.
 SCF Done:  E(RHF) =  -113.913712722     A.U. after   11 cycles
            NFock= 11  Conv=0.29D-08     -V/T= 2.0019
 ExpMin= 2.53D-02 ExpMax= 1.53D+04 ExpMxC= 5.22D+02 IAcc=3 IRadAn=         5 AccDes= 0.00D+00
 HarFok:  IExCor=  205 AccDes= 0.00D+00 IRadAn=         5 IDoV=-2 UseB2=F ITyADJ=14
 ICtDFT= 12500011 ScaDFX=  1.000000  1.000000  1.000000  1.000000
 Range of M.O.s used for correlation:     3   138
 NBasis=   138 NAE=     8 NBE=     8 NFC=     2 NFV=     0
 NROrb=    136 NOA=     6 NOB=     6 NVA=   130 NVB=   130

 **** Warning!!: The largest alpha MO coefficient is  0.33750749D+02

 Semi-Direct transformation.
 ModeAB=           2 MOrb=             6 LenV=    2146847475
 LASXX=      7286295 LTotXX=     7286295 LenRXX=     7286295
 LTotAB=     7445736 MaxLAS=    10510080 LenRXY=    10510080
 NonZer=    14572590 LenScr=    22628352 LnRSAI=           0
 LnScr1=           0 LExtra=           0 Total=     40424727
 MaxDsk=          -1 SrtSym=           F ITran=            4
 JobTyp=0 Pass  1:  I=   1 to   6.
 (rs|ai) integrals will be sorted in core.
 Spin components of T(2) and E(2):
     alpha-alpha T2 =       0.1377235715D-01 E2=     -0.4805175570D-01
     alpha-beta  T2 =       0.8514511687D-01 E2=     -0.3065046380D+00
     beta-beta   T2 =       0.1377235715D-01 E2=     -0.4805175570D-01
 ANorm=    0.1054841140D+01
 E2 =    -0.4026081494D+00 EUMP2 =    -0.11431632087106D+03
 Keep R2 and R3 ints in memory in canonical form, NReq=99865420.
 CIDS: In Core Option IDoMem=           1.
 Iterations=  50 Convergence= 0.100D-07
 Produce multiple copies of IABC intergrals
 Iteration Nr.   1
 **********************
 DD1Dir will call FoFMem   1 times, MxPair=        42
 NAB=    21 NAA=     0 NBB=     0.
 MP4(R+Q)=  0.88787775D-02
 E3=       -0.39929249D-02        EUMP3=      -0.11432031380D+03
 E4(DQ)=   -0.13614440D-02        UMP4(DQ)=   -0.11432167524D+03
 E4(SDQ)=  -0.66387434D-02        UMP4(SDQ)=  -0.11432695254D+03
 DE(Corr)= -0.39772230     E(Corr)=     -114.31143502    
 NORM(A)=   0.10555395D+01
 Iteration Nr.   2
 **********************
 DD1Dir will call FoFMem   1 times, MxPair=        42
 NAB=    21 NAA=     0 NBB=     0.
 DE(Corr)= -0.41169502     E(CORR)=     -114.32540774     Delta=-1.40D-02
 NORM(A)=   0.10616075D+01
 Iteration Nr.   3
 **********************
 DD1Dir will call FoFMem   1 times, MxPair=        42
 NAB=    21 NAA=     0 NBB=     0.
 DE(Corr)= -0.41161834     E(CORR)=     -114.32533106     Delta= 7.67D-05
 NORM(A)=   0.10635009D+01
 Iteration Nr.   4
 **********************
 DD1Dir will call FoFMem   1 times, MxPair=        42
 NAB=    21 NAA=     0 NBB=     0.
 DE(Corr)= -0.41303009     E(CORR)=     -114.32674281     Delta=-1.41D-03
 NORM(A)=   0.10641829D+01
 Iteration Nr.   5
 **********************
 DD1Dir will call FoFMem   1 times, MxPair=        42
 NAB=    21 NAA=     0 NBB=     0.
 DE(Corr)= -0.41321839     E(CORR)=     -114.32693111     Delta=-1.88D-04
 NORM(A)=   0.10643986D+01
 Iteration Nr.   6
 **********************
 DD1Dir will call FoFMem   1 times, MxPair=        42
 NAB=    21 NAA=     0 NBB=     0.
 DE(Corr)= -0.41324443     E(CORR)=     -114.32695715     Delta=-2.60D-05
 NORM(A)=   0.10644241D+01
 Iteration Nr.   7
 **********************
 DD1Dir will call FoFMem   1 times, MxPair=        42
 NAB=    21 NAA=     0 NBB=     0.
 DE(Corr)= -0.41324565     E(CORR)=     -114.32695837     Delta=-1.22D-06
 NORM(A)=   0.10644253D+01
 Iteration Nr.   8
 **********************
 DD1Dir will call FoFMem   1 times, MxPair=        42
 NAB=    21 NAA=     0 NBB=     0.
 DE(Corr)= -0.41324478     E(CORR)=     -114.32695750     Delta= 8.74D-07
 NORM(A)=   0.10644281D+01
 Iteration Nr.   9
 **********************
 DD1Dir will call FoFMem   1 times, MxPair=        42
 NAB=    21 NAA=     0 NBB=     0.
 DE(Corr)= -0.41324365     E(CORR)=     -114.32695638     Delta= 1.12D-06
 NORM(A)=   0.10644284D+01
 Iteration Nr.  10
 **********************
 DD1Dir will call FoFMem   1 times, MxPair=        42
 NAB=    21 NAA=     0 NBB=     0.
 DE(Corr)= -0.41324428     E(CORR)=     -114.32695700     Delta=-6.22D-07
 NORM(A)=   0.10644289D+01
 Iteration Nr.  11
 **********************
 DD1Dir will call FoFMem   1 times, MxPair=        42
 NAB=    21 NAA=     0 NBB=     0.
 DE(Corr)= -0.41324441     E(CORR)=     -114.32695713     Delta=-1.32D-07
 NORM(A)=   0.10644293D+01
 Iteration Nr.  12
 **********************
 DD1Dir will call FoFMem   1 times, MxPair=        42
 NAB=    21 NAA=     0 NBB=     0.
 DE(Corr)= -0.41324457     E(CORR)=     -114.32695729     Delta=-1.56D-07
 NORM(A)=   0.10644295D+01
 Iteration Nr.  13
 **********************
 DD1Dir will call FoFMem   1 times, MxPair=        42
 NAB=    21 NAA=     0 NBB=     0.
 DE(Corr)= -0.41324463     E(CORR)=     -114.32695735     Delta=-6.12D-08
 NORM(A)=   0.10644296D+01
 Iteration Nr.  14
 **********************
 DD1Dir will call FoFMem   1 times, MxPair=        42
 NAB=    21 NAA=     0 NBB=     0.
 DE(Corr)= -0.41324466     E(CORR)=     -114.32695738     Delta=-3.16D-08
 NORM(A)=   0.10644297D+01
 Iteration Nr.  15
 **********************
 DD1Dir will call FoFMem   1 times, MxPair=        42
 NAB=    21 NAA=     0 NBB=     0.
 DE(Corr)= -0.41324466     E(CORR)=     -114.32695738     Delta=-4.91D-09
 NORM(A)=   0.10644297D+01
 Wavefunction amplitudes converged. E(Corr)=     -114.32695738    
 Largest amplitude= 6.43D-02

 Z-amplitude iterations

 Iteration Nr.   1
 **********************
 DD1Dir will call FoFMem   1 times, MxPair=        42
 NAB=    21 NAA=     0 NBB=     0.
 DE(Z)= -0.40119803     E(Z)=     -114.31491075     Delta= 1.20D-02
 NORM(A)=   0.10644294D+01
 Iteration Nr.   2
 **********************
 DD1Dir will call FoFMem   1 times, MxPair=        42
 NAB=    21 NAA=     0 NBB=     0.
 DE(Z)= -0.40119801     E(Z)=     -114.31491073     Delta= 1.49D-08
 NORM(A)=   0.10644289D+01
 Iteration Nr.   3
 **********************
 DD1Dir will call FoFMem   1 times, MxPair=        42
 NAB=    21 NAA=     0 NBB=     0.
 DE(Z)= -0.40119799     E(Z)=     -114.31491071     Delta= 2.24D-08
 NORM(A)=   0.10644292D+01
 Iteration Nr.   4
 **********************
 DD1Dir will call FoFMem   1 times, MxPair=        42
 NAB=    21 NAA=     0 NBB=     0.
 DE(Z)= -0.40119800     E(Z)=     -114.31491073     Delta=-1.50D-08
 NORM(A)=   0.10644292D+01
 Iteration Nr.   5
 **********************
 DD1Dir will call FoFMem   1 times, MxPair=        42
 NAB=    21 NAA=     0 NBB=     0.
 DE(Z)= -0.40119800     E(Z)=     -114.31491073     Delta=-2.03D-10
 NORM(A)=   0.10604594D+01
 Iteration Nr.   6
 **********************
 DD1Dir will call FoFMem   1 times, MxPair=        42
 NAB=    21 NAA=     0 NBB=     0.
 DE(Z)= -0.40100604     E(Z)=     -114.31471877     Delta= 1.92D-04
 NORM(A)=   0.10603935D+01
 Iteration Nr.   7
 **********************
 DD1Dir will call FoFMem   1 times, MxPair=        42
 NAB=    21 NAA=     0 NBB=     0.
 DE(Z)= -0.40098594     E(Z)=     -114.31469866     Delta= 2.01D-05
 NORM(A)=   0.10603435D+01
 Iteration Nr.   8
 **********************
 DD1Dir will call FoFMem   1 times, MxPair=        42
 NAB=    21 NAA=     0 NBB=     0.
 DE(Z)= -0.40098416     E(Z)=     -114.31469688     Delta= 1.78D-06
 NORM(A)=   0.10603414D+01
 Iteration Nr.   9
 **********************
 DD1Dir will call FoFMem   1 times, MxPair=        42
 NAB=    21 NAA=     0 NBB=     0.
 DE(Z)= -0.40098299     E(Z)=     -114.31469571     Delta= 1.17D-06
 NORM(A)=   0.10603398D+01
 Iteration Nr.  10
 **********************
 DD1Dir will call FoFMem   1 times, MxPair=        42
 NAB=    21 NAA=     0 NBB=     0.
 DE(Z)= -0.40098268     E(Z)=     -114.31469540     Delta= 3.09D-07
 NORM(A)=   0.10603395D+01
 Iteration Nr.  11
 **********************
 DD1Dir will call FoFMem   1 times, MxPair=        42
 NAB=    21 NAA=     0 NBB=     0.
 DE(Z)= -0.40098295     E(Z)=     -114.31469567     Delta=-2.70D-07
 NORM(A)=   0.10603396D+01
 Iteration Nr.  12
 **********************
 DD1Dir will call FoFMem   1 times, MxPair=        42
 NAB=    21 NAA=     0 NBB=     0.
 DE(Z)= -0.40098281     E(Z)=     -114.31469553     Delta= 1.39D-07
 NORM(A)=   0.10603396D+01
 Iteration Nr.  13
 **********************
 DD1Dir will call FoFMem   1 times, MxPair=        42
 NAB=    21 NAA=     0 NBB=     0.
 DE(Z)= -0.40098284     E(Z)=     -114.31469557     Delta=-3.45D-08
 NORM(A)=   0.10603396D+01
 Iteration Nr.  14
 **********************
 DD1Dir will call FoFMem   1 times, MxPair=        42
 NAB=    21 NAA=     0 NBB=     0.
 DE(Z)= -0.40098285     E(Z)=     -114.31469558     Delta=-9.93D-09
 NORM(A)=   0.10603396D+01
 Z-amplitudes converged.
 Discarding MO integrals.
          Differentiating once with respect to electric field.
                with respect to dipole field.
          Electric field/nuclear overlap derivatives assumed to be zero.
 Keep R1 ints in memory in canonical form, NReq=53863287.
          There are     1 degrees of freedom in the 1st order CPHF.  IDoFFX=0 NUNeed=     1.
 LinEq1:  Iter=  0 NonCon=     1 RMS=3.56D-03 Max=5.57D-02 NDo=     1
 AX will form     1 AO Fock derivatives at one time.
 LinEq1:  Iter=  1 NonCon=     1 RMS=8.98D-04 Max=8.58D-03 NDo=     1
 LinEq1:  Iter=  2 NonCon=     1 RMS=2.36D-04 Max=3.43D-03 NDo=     1
 LinEq1:  Iter=  3 NonCon=     1 RMS=1.16D-04 Max=1.21D-03 NDo=     1
 LinEq1:  Iter=  4 NonCon=     1 RMS=4.46D-05 Max=5.33D-04 NDo=     1
 LinEq1:  Iter=  5 NonCon=     1 RMS=9.23D-06 Max=8.78D-05 NDo=     1
 LinEq1:  Iter=  6 NonCon=     1 RMS=1.51D-06 Max=1.75D-05 NDo=     1
 LinEq1:  Iter=  7 NonCon=     1 RMS=2.29D-07 Max=1.68D-06 NDo=     1
 LinEq1:  Iter=  8 NonCon=     1 RMS=2.63D-08 Max=2.08D-07 NDo=     1
 LinEq1:  Iter=  9 NonCon=     1 RMS=3.16D-09 Max=2.54D-08 NDo=     1
 LinEq1:  Iter= 10 NonCon=     1 RMS=2.97D-10 Max=2.35D-09 NDo=     1
 LinEq1:  Iter= 11 NonCon=     0 RMS=2.77D-11 Max=2.40D-10 NDo=     1
 Linear equations converged to 1.000D-10 1.000D-09 after    11 iterations.
 End of Minotr F.D. properties file   721 does not exist.
 End of Minotr F.D. properties file   722 does not exist.
 End of Minotr F.D. properties file   788 does not exist.

 **********************************************************************

            Population analysis using the CC Density.

 **********************************************************************

 Alpha  occ. eigenvalues --  -20.57925 -11.34317  -1.40683  -0.87090  -0.69421
 Alpha  occ. eigenvalues --   -0.65280  -0.53742  -0.44358
 Alpha virt. eigenvalues --    0.02624   0.04173   0.06236   0.07646   0.12921
 Alpha virt. eigenvalues --    0.13288   0.13336   0.17435   0.19841   0.21163
 Alpha virt. eigenvalues --    0.21707   0.25419   0.25609   0.28075   0.32025
 Alpha virt. eigenvalues --    0.33811   0.33861   0.35906   0.38757   0.38948
 Alpha virt. eigenvalues --    0.39623   0.41926   0.48299   0.49819   0.56156
 Alpha virt. eigenvalues --    0.56755   0.66915   0.67632   0.72285   0.76378
 Alpha virt. eigenvalues --    0.81937   0.83378   0.84139   0.85722   0.87624
 Alpha virt. eigenvalues --    0.88177   0.92749   0.93421   0.93884   0.97798
 Alpha virt. eigenvalues --    1.00068   1.02013   1.02335   1.03777   1.06783
 Alpha virt. eigenvalues --    1.08259   1.09866   1.10189   1.25793   1.26787
 Alpha virt. eigenvalues --    1.30274   1.37013   1.38811   1.45830   1.47580
 Alpha virt. eigenvalues --    1.51170   1.57161   1.59702   1.62735   1.70728
 Alpha virt. eigenvalues --    1.72753   1.83483   1.96093   2.00425   2.03037
 Alpha virt. eigenvalues --    2.09213   2.18212   2.28669   2.32349   2.34182
 Alpha virt. eigenvalues --    2.34334   2.49049   2.49790   2.56215   2.60603
 Alpha virt. eigenvalues --    2.71618   2.78282   2.80857   2.91854   2.93075
 Alpha virt. eigenvalues --    3.06616   3.07522   3.14412   3.18790   3.40991
 Alpha virt. eigenvalues --    3.44369   3.52812   3.56343   3.63141   3.65924
 Alpha virt. eigenvalues --    3.69730   3.89447   3.94557   4.05685   4.11833
 Alpha virt. eigenvalues --    4.15851   4.15984   4.21766   4.24889   4.36317
 Alpha virt. eigenvalues --    4.58039   4.64441   4.68518   4.76867   5.02806
 Alpha virt. eigenvalues --    5.04693   5.10360   5.15698   5.24200   5.28410
 Alpha virt. eigenvalues --    5.31996   5.37476   5.88106   6.13189   6.23360
 Alpha virt. eigenvalues --    6.50344   6.59804   6.61837   6.91561   6.94824
 Alpha virt. eigenvalues --    7.09054   7.19010   7.20527   7.41245   7.52510
 Alpha virt. eigenvalues --    7.68636   7.72552   7.76757  14.95670  16.34854
          Condensed to atoms (all electrons):
               1          2          3          4
     1  O    8.191266   0.351129  -0.063023  -0.063294
     2  C    0.351129   5.709567   0.210799   0.207858
     3  H   -0.063023   0.210799   0.436189  -0.029250
     4  H   -0.063294   0.207858  -0.029250   0.434538
 Mulliken charges:
               1
     1  O   -0.416078
     2  C   -0.479354
     3  H    0.445285
     4  H    0.450148
 Sum of Mulliken charges =  -0.00000
 Mulliken charges with hydrogens summed into heavy atoms:
               1
     1  O   -0.416078
     2  C    0.416078
 Electronic spatial extent (au):  <R**2>=             60.7196
 Charge=             -0.0000 electrons
 Dipole moment (field-independent basis, Debye):
    X=              0.0000    Y=             -0.0038    Z=             -2.4396  Tot=              2.4396
 Quadrupole moment (field-independent basis, Debye-Ang):
   XX=            -11.7426   YY=            -11.6370   ZZ=            -12.2621
   XY=             -0.0000   XZ=             -0.0000   YZ=             -0.0042
 Traceless Quadrupole moment (field-independent basis, Debye-Ang):
   XX=              0.1380   YY=              0.2436   ZZ=             -0.3815
   XY=             -0.0000   XZ=             -0.0000   YZ=             -0.0042
 Octapole moment (field-independent basis, Debye-Ang**2):
  XXX=             -0.0000  YYY=             -0.0204  ZZZ=              0.3349  XYY=             -0.0000
  XXY=             -0.0064  XXZ=              0.5968  XZZ=             -0.0000  YZZ=              0.0055
  YYZ=             -0.6828  XYZ=             -0.0000
 Hexadecapole moment (field-independent basis, Debye-Ang**3):
 XXXX=            -10.5250 YYYY=            -18.3108 ZZZZ=            -46.3305 XXXY=              0.0000
 XXXZ=             -0.0000 YYYX=             -0.0000 YYYZ=              0.0294 ZZZX=              0.0000
 ZZZY=              0.0099 XXYY=             -5.1647 XXZZ=             -9.4198 YYZZ=            -10.4740
 XXYZ=              0.0135 YYXZ=              0.0000 ZZXY=             -0.0000
 N-N= 3.128203124737D+01 E-N=-3.313080894423D+02  KE= 1.142236919786D+02
 There are a total of       93160 grid points.
 ElSum from          density=       15.9999998853
 ElSum from atomic densities=       15.9999998104

 Hirshfeld populations at iteration   1 (CX, CA, CB, DipXYZ):
               1          2          3          4          5          6
     1  O    0.000003   4.110760   4.110760   0.000000  -0.000571  -0.109007
     2  C    0.000000   2.933245   2.933245   0.000000   0.000087  -0.095376
     3  H    0.000001   0.477955   0.477955   0.000000   0.111789  -0.077147
     4  H    0.000001   0.478040   0.478040  -0.000000  -0.113104  -0.076133
       Tot   0.000004   8.000000   8.000000   0.000000  -0.001799  -0.357663

 Dip from Atomic Chgs              0.000000   0.000301  -0.602164
         Total Dipole              0.000000  -0.001498  -0.959827

 Hirshfeld charges, spin densities, dipoles, and CM5 charges using IRadAn=      5:
              Q-H        S-H        Dx         Dy         Dz        Q-CM5   
     1  O   -0.221520   0.000000   0.000000  -0.000571  -0.109007  -0.282608
     2  C    0.133509   0.000000   0.000000   0.000087  -0.095376   0.078117
     3  H    0.044091   0.000000   0.000000   0.111789  -0.077147   0.101896
     4  H    0.043920   0.000000  -0.000000  -0.113104  -0.076133   0.102595
       Tot   0.000000   0.000000   0.000000  -0.001799  -0.357663   0.000000
 Hirshfeld charges with hydrogens summed into heavy atoms:
              Q-H       Q-CM5   
     1  O   -0.221520  -0.282608
     2  C    0.221521   0.282609
 
 EQQ= 0.000000000000E+00 EQD= 0.000000000000E+00 EDD= 0.263457465022E-02
 EQQ+QD+DD= 0.263457465022E-02
 
 Breneman (CHELPG) radii used.
 Generate Potential Derived Charges using the Breneman model, NDens= 1.
 Grid spacing= 0.300 Box extension= 2.800
 NStep X,Y,Z=   20     26     26   Total possible points=       13520
 Number of Points to Fit=    4914

 **********************************************************************

            Electrostatic Properties Using The CC Density.

 **********************************************************************

       Atomic Center    1 is at   0.000000  0.000000  0.679252
       Atomic Center    2 is at   0.000000  0.000000 -0.526911
       Atomic Center    3 is at   0.000000  0.936614 -1.116620
       Atomic Center    4 is at   0.000000 -0.936614 -1.106620
    4914 points will be used for fitting atomic charges
 Fitting point charges to electrostatic potential
 The dipole moment will be constrained to the correct value
 Charges from ESP fit, RMS=   0.00230 RRMS=   0.11825:
 ESP charges:
               1
     1  O   -0.426608
     2  C    0.437957
     3  H   -0.006098
     4  H   -0.005251
 Sum of ESP charges =  -0.00000
 ESP charges with hydrogens summed into heavy atoms:
               1
     1  O   -0.426608
     2  C    0.426608
 Charge=  -0.00000 Dipole=     0.0000    -0.0038    -2.4396 Tot=     2.4396
 -----------------------------------------------------------------

              Electrostatic Properties (Atomic Units)

 -----------------------------------------------------------------
    Center     Electric         -------- Electric Field --------
               Potential          X             Y             Z
 -----------------------------------------------------------------
    1 Atom    -22.325816
    2 Atom    -14.663448
    3 Atom     -1.077947
    4 Atom     -1.078847
 -----------------------------------------------------------------
 ******************************Gaussian NBO Version 3.1******************************
             N A T U R A L   A T O M I C   O R B I T A L   A N D
          N A T U R A L   B O N D   O R B I T A L   A N A L Y S I S
 ******************************Gaussian NBO Version 3.1******************************
       /RESON  / : Allow strongly delocalized NBO set

 Analyzing the QCI/CC density

 Job title: h2co-wavefunction                                               

 Storage needed:     57804 in NPA (2147483536 available)
 GSVD:  LWork=       -1756 too small for GESVD, short by       42456 words or       42456 for optimal perf.


 NATURAL POPULATIONS:  Natural atomic orbital occupancies 
                                                          
   NAO  Atom  No  lang   Type(AO)    Occupancy
 --------------------------------------------
     1    O    1  S      Cor( 1S)     1.99960
     2    O    1  S      Val( 2S)     1.70293
     3    O    1  S      Ryd( 3S)     0.01028
     4    O    1  S      Ryd( 4S)     0.00089
     5    O    1  S      Ryd( 5S)     0.00020
     6    O    1  px     Val( 2p)     1.28914
     7    O    1  px     Ryd( 3p)     0.00662
     8    O    1  px     Ryd( 4p)     0.00052
     9    O    1  px     Ryd( 5p)     0.00003
    10    O    1  py     Val( 2p)     1.85296
    11    O    1  py     Ryd( 3p)     0.01600
    12    O    1  py     Ryd( 4p)     0.00081
    13    O    1  py     Ryd( 5p)     0.00008
    14    O    1  pz     Val( 2p)     1.54239
    15    O    1  pz     Ryd( 3p)     0.00670
    16    O    1  pz     Ryd( 4p)     0.00047
    17    O    1  pz     Ryd( 5p)     0.00013
    18    O    1  dxy    Ryd( 3d)     0.00566
    19    O    1  dxy    Ryd( 4d)     0.00046
    20    O    1  dxy    Ryd( 5d)     0.00007
    21    O    1  dxz    Ryd( 3d)     0.00976
    22    O    1  dxz    Ryd( 4d)     0.00033
    23    O    1  dxz    Ryd( 5d)     0.00009
    24    O    1  dyz    Ryd( 3d)     0.00930
    25    O    1  dyz    Ryd( 4d)     0.00045
    26    O    1  dyz    Ryd( 5d)     0.00018
    27    O    1  dx2y2  Ryd( 3d)     0.00554
    28    O    1  dx2y2  Ryd( 4d)     0.00046
    29    O    1  dx2y2  Ryd( 5d)     0.00006
    30    O    1  dz2    Ryd( 3d)     0.01869
    31    O    1  dz2    Ryd( 4d)     0.00039
    32    O    1  dz2    Ryd( 5d)     0.00009
    33    O    1  f(0)   Ryd( 4f)     0.00086
    34    O    1  f(0)   Ryd( 5f)     0.00010
    35    O    1  f(C1)  Ryd( 4f)     0.00051
    36    O    1  f(C1)  Ryd( 5f)     0.00009
    37    O    1  f(S1)  Ryd( 4f)     0.00060
    38    O    1  f(S1)  Ryd( 5f)     0.00014
    39    O    1  f(C2)  Ryd( 4f)     0.00049
    40    O    1  f(C2)  Ryd( 5f)     0.00009
    41    O    1  f(S2)  Ryd( 4f)     0.00050
    42    O    1  f(S2)  Ryd( 5f)     0.00008
    43    O    1  f(C3)  Ryd( 4f)     0.00049
    44    O    1  f(C3)  Ryd( 5f)     0.00006
    45    O    1  f(S3)  Ryd( 4f)     0.00049
    46    O    1  f(S3)  Ryd( 5f)     0.00006

    47    C    2  S      Cor( 1S)     1.99949
    48    C    2  S      Val( 2S)     1.02846
    49    C    2  S      Ryd( 3S)     0.01391
    50    C    2  S      Ryd( 4S)     0.00020
    51    C    2  S      Ryd( 5S)     0.00010
    52    C    2  px     Val( 2p)     0.68897
    53    C    2  px     Ryd( 3p)     0.00354
    54    C    2  px     Ryd( 4p)     0.00018
    55    C    2  px     Ryd( 5p)     0.00008
    56    C    2  py     Val( 2p)     1.07165
    57    C    2  py     Ryd( 3p)     0.00448
    58    C    2  py     Ryd( 4p)     0.00037
    59    C    2  py     Ryd( 5p)     0.00007
    60    C    2  pz     Val( 2p)     0.83800
    61    C    2  pz     Ryd( 3p)     0.01276
    62    C    2  pz     Ryd( 4p)     0.00015
    63    C    2  pz     Ryd( 5p)     0.00010
    64    C    2  dxy    Ryd( 3d)     0.00487
    65    C    2  dxy    Ryd( 5d)     0.00012
    66    C    2  dxy    Ryd( 4d)     0.00013
    67    C    2  dxz    Ryd( 3d)     0.00491
    68    C    2  dxz    Ryd( 4d)     0.00021
    69    C    2  dxz    Ryd( 5d)     0.00015
    70    C    2  dyz    Ryd( 3d)     0.01178
    71    C    2  dyz    Ryd( 4d)     0.00046
    72    C    2  dyz    Ryd( 5d)     0.00035
    73    C    2  dx2y2  Ryd( 3d)     0.00481
    74    C    2  dx2y2  Ryd( 4d)     0.00017
    75    C    2  dx2y2  Ryd( 5d)     0.00006
    76    C    2  dz2    Ryd( 3d)     0.00490
    77    C    2  dz2    Ryd( 4d)     0.00031
    78    C    2  dz2    Ryd( 5d)     0.00010
    79    C    2  f(0)   Ryd( 4f)     0.00041
    80    C    2  f(0)   Ryd( 5f)     0.00010
    81    C    2  f(C1)  Ryd( 4f)     0.00033
    82    C    2  f(C1)  Ryd( 5f)     0.00009
    83    C    2  f(S1)  Ryd( 4f)     0.00050
    84    C    2  f(S1)  Ryd( 5f)     0.00009
    85    C    2  f(C2)  Ryd( 4f)     0.00052
    86    C    2  f(C2)  Ryd( 5f)     0.00011
    87    C    2  f(S2)  Ryd( 4f)     0.00046
    88    C    2  f(S2)  Ryd( 5f)     0.00010
    89    C    2  f(C3)  Ryd( 4f)     0.00038
    90    C    2  f(C3)  Ryd( 5f)     0.00014
    91    C    2  f(S3)  Ryd( 4f)     0.00046
    92    C    2  f(S3)  Ryd( 5f)     0.00011

    93    H    3  S      Val( 1S)     0.89751
    94    H    3  S      Ryd( 2S)     0.00284
    95    H    3  S      Ryd( 3S)     0.00009
    96    H    3  S      Ryd( 4S)     0.00005
    97    H    3  px     Ryd( 2p)     0.00129
    98    H    3  px     Ryd( 3p)     0.00035
    99    H    3  px     Ryd( 4p)     0.00007
   100    H    3  py     Ryd( 2p)     0.00143
   101    H    3  py     Ryd( 3p)     0.00042
   102    H    3  py     Ryd( 4p)     0.00011
   103    H    3  pz     Ryd( 2p)     0.00164
   104    H    3  pz     Ryd( 3p)     0.00040
   105    H    3  pz     Ryd( 4p)     0.00010
   106    H    3  dxy    Ryd( 3d)     0.00007
   107    H    3  dxy    Ryd( 4d)     0.00007
   108    H    3  dxz    Ryd( 3d)     0.00007
   109    H    3  dxz    Ryd( 4d)     0.00005
   110    H    3  dyz    Ryd( 3d)     0.00020
   111    H    3  dyz    Ryd( 4d)     0.00006
   112    H    3  dx2y2  Ryd( 3d)     0.00024
   113    H    3  dx2y2  Ryd( 4d)     0.00007
   114    H    3  dz2    Ryd( 3d)     0.00007
   115    H    3  dz2    Ryd( 4d)     0.00004

   116    H    4  S      Val( 1S)     0.89741
   117    H    4  S      Ryd( 2S)     0.00286
   118    H    4  S      Ryd( 3S)     0.00009
   119    H    4  S      Ryd( 4S)     0.00005
   120    H    4  px     Ryd( 2p)     0.00129
   121    H    4  px     Ryd( 3p)     0.00035
   122    H    4  px     Ryd( 4p)     0.00007
   123    H    4  py     Ryd( 2p)     0.00143
   124    H    4  py     Ryd( 3p)     0.00042
   125    H    4  py     Ryd( 4p)     0.00011
   126    H    4  pz     Ryd( 2p)     0.00166
   127    H    4  pz     Ryd( 3p)     0.00040
   128    H    4  pz     Ryd( 4p)     0.00010
   129    H    4  dxy    Ryd( 3d)     0.00007
   130    H    4  dxy    Ryd( 4d)     0.00007
   131    H    4  dxz    Ryd( 3d)     0.00007
   132    H    4  dxz    Ryd( 4d)     0.00004
   133    H    4  dyz    Ryd( 3d)     0.00020
   134    H    4  dyz    Ryd( 4d)     0.00006
   135    H    4  dx2y2  Ryd( 3d)     0.00024
   136    H    4  dx2y2  Ryd( 4d)     0.00007
   137    H    4  dz2    Ryd( 3d)     0.00007
   138    H    4  dz2    Ryd( 4d)     0.00004


 Summary of Natural Population Analysis:                  
                                                          
                                       Natural Population 
                Natural  -----------------------------------------------
    Atom  No    Charge         Core      Valence    Rydberg      Total
 -----------------------------------------------------------------------
      O    1   -0.48586      1.99960     6.38743    0.09883     8.48586
      C    2    0.30031      1.99949     3.62708    0.07313     5.69969
      H    3    0.09275      0.00000     0.89751    0.00974     0.90725
      H    4    0.09280      0.00000     0.89741    0.00978     0.90720
 =======================================================================
   * Total *   -0.00000      3.99909    11.80943    0.19148    16.00000

                                 Natural Population      
 --------------------------------------------------------
   Core                       3.99909 ( 99.9773% of   4)
   Valence                   11.80943 ( 98.4119% of  12)
   Natural Minimal Basis     15.80852 ( 98.8033% of  16)
   Natural Rydberg Basis      0.19148 (  1.1967% of  16)
 --------------------------------------------------------

    Atom  No          Natural Electron Configuration
 ----------------------------------------------------------------------------
      O    1      [core]2S( 1.70)2p( 4.68)3S( 0.01)3p( 0.03)3d( 0.05)
      C    2      [core]2S( 1.03)2p( 2.60)3S( 0.01)3p( 0.02)3d( 0.03)
      H    3            1S( 0.90)
      H    4            1S( 0.90)


 NBO analysis skipped by request.
 Unable to Open any file for archive entry.
 1\1\GINC-TRAPISTA\SP\RQCISD-FC\Aug-CC-pVTZ\C1H2O1\WAGNER\02-Sep-2022\0
 \\# qcisd/aug-cc-pvtz nosymm density=current pop=(chelpg,hirshfeld,npa
 ,dipole)\\h2co-wavefunction\\0,1\O,0,0.,0.,0.679252\C,0,0.,0.,-0.52691
 1\H,0,0.,0.936614,-1.11662\H,0,0.,-0.936614,-1.10662\\Version=EM64L-G1
 6RevC.01\HF=-113.9137127\MP2=-114.3163209\MP3=-114.3203138\MP4D=-114.3
 30554\MP4DQ=-114.3216752\MP4SDQ=-114.3269525\QCISD=-114.3269574\RMSD=2
 .935e-09\Dipole=0.,-0.0014981,-0.959827\Quadrupole=0.1025638,0.1810951
 ,-0.2836589,0.,0.,-0.0031378\PG=CS [SG(C1H2O1)]\\@
 The archive entry for this job was punched.


 SIC AS THE CAWSE OF EWERY THING IS, SIC WILBE THE EFFECT.
 -- PROVERBS AND REASONS OF THE YEAR 1585
           AS REPRINTED IN PAISLEY MAGAZINE 1828.
 Job cpu time:       0 days  1 hours 25 minutes 16.7 seconds.
 Elapsed time:       0 days  0 hours  5 minutes 23.6 seconds.
 File lengths (MBytes):  RWF=   6915 Int=      0 D2E=      0 Chk=      3 Scr=      1
 Normal termination of Gaussian 16 at Fri Sep  2 19:39:01 2022.
