 Entering Gaussian System, Link 0=/home/wagner/chemistry/gaussian/g16/g16
 Input=GAUSSIAN.com
 Output=GAUSSIAN.log
 Initial command:
 /home/wagner/chemistry/gaussian/g16/l1.exe "/home/wagner/chemistry/gaussian/work/Gau-64860.inp" -scrdir="/home/wagner/chemistry/gaussian/work/"
 Entering Link 1 = /home/wagner/chemistry/gaussian/g16/l1.exe PID=     64862.
  
 Copyright (c) 1988-2019, Gaussian, Inc.  All Rights Reserved.
  
 This is part of the Gaussian(R) 16 program.  It is based on
 the Gaussian(R) 09 system (copyright 2009, Gaussian, Inc.),
 the Gaussian(R) 03 system (copyright 2003, Gaussian, Inc.),
 the Gaussian(R) 98 system (copyright 1998, Gaussian, Inc.),
 the Gaussian(R) 94 system (copyright 1995, Gaussian, Inc.),
 the Gaussian 92(TM) system (copyright 1992, Gaussian, Inc.),
 the Gaussian 90(TM) system (copyright 1990, Gaussian, Inc.),
 the Gaussian 88(TM) system (copyright 1988, Gaussian, Inc.),
 the Gaussian 86(TM) system (copyright 1986, Carnegie Mellon
 University), and the Gaussian 82(TM) system (copyright 1983,
 Carnegie Mellon University). Gaussian is a federally registered
 trademark of Gaussian, Inc.
  
 This software contains proprietary and confidential information,
 including trade secrets, belonging to Gaussian, Inc.
  
 This software is provided under written license and may be
 used, copied, transmitted, or stored only in accord with that
 written license.
  
 The following legend is applicable only to US Government
 contracts under FAR:
  
                    RESTRICTED RIGHTS LEGEND
  
 Use, reproduction and disclosure by the US Government is
 subject to restrictions as set forth in subparagraphs (a)
 and (c) of the Commercial Computer Software - Restricted
 Rights clause in FAR 52.227-19.
  
 Gaussian, Inc.
 340 Quinnipiac St., Bldg. 40, Wallingford CT 06492
  
  
 ---------------------------------------------------------------
 Warning -- This program may not be used in any manner that
 competes with the business of Gaussian, Inc. or will provide
 assistance to any competitor of Gaussian, Inc.  The licensee
 of this program is prohibited from giving any competitor of
 Gaussian, Inc. access to this program.  By using this program,
 the user acknowledges that Gaussian, Inc. is engaged in the
 business of creating and licensing software in the field of
 computational chemistry and represents and warrants to the
 licensee that it is not a competitor of Gaussian, Inc. and that
 it will not use this program in any manner prohibited above.
 ---------------------------------------------------------------
  

 Cite this work as:
 Gaussian 16, Revision C.01,
 M. J. Frisch, G. W. Trucks, H. B. Schlegel, G. E. Scuseria, 
 M. A. Robb, J. R. Cheeseman, G. Scalmani, V. Barone, 
 G. A. Petersson, H. Nakatsuji, X. Li, M. Caricato, A. V. Marenich, 
 J. Bloino, B. G. Janesko, R. Gomperts, B. Mennucci, H. P. Hratchian, 
 J. V. Ortiz, A. F. Izmaylov, J. L. Sonnenberg, D. Williams-Young, 
 F. Ding, F. Lipparini, F. Egidi, J. Goings, B. Peng, A. Petrone, 
 T. Henderson, D. Ranasinghe, V. G. Zakrzewski, J. Gao, N. Rega, 
 G. Zheng, W. Liang, M. Hada, M. Ehara, K. Toyota, R. Fukuda, 
 J. Hasegawa, M. Ishida, T. Nakajima, Y. Honda, O. Kitao, H. Nakai, 
 T. Vreven, K. Throssell, J. A. Montgomery, Jr., J. E. Peralta, 
 F. Ogliaro, M. J. Bearpark, J. J. Heyd, E. N. Brothers, K. N. Kudin, 
 V. N. Staroverov, T. A. Keith, R. Kobayashi, J. Normand, 
 K. Raghavachari, A. P. Rendell, J. C. Burant, S. S. Iyengar, 
 J. Tomasi, M. Cossi, J. M. Millam, M. Klene, C. Adamo, R. Cammi, 
 J. W. Ochterski, R. L. Martin, K. Morokuma, O. Farkas, 
 J. B. Foresman, and D. J. Fox, Gaussian, Inc., Wallingford CT, 2019.
 
 ******************************************
 Gaussian 16:  EM64L-G16RevC.01  3-Jul-2019
                 2-Sep-2022 
 ******************************************
 %nproc=16
 Will use up to   16 processors via shared memory.
 %mem=16GB
 ----------------------------------------------------------------------
 # qcisd/aug-cc-pvtz nosymm density=current pop=(chelpg,hirshfeld,npa,d
 ipole)
 ----------------------------------------------------------------------
 1/30=1,38=1,172=1/1;
 2/12=2,15=1,17=6,18=5,40=1/2;
 3/5=16,6=1,7=10,11=9,25=1,30=1,71=1/1,2,3;
 4//1;
 5/5=2,38=5/2;
 8/6=4,9=120000,10=1/1,4;
 9/5=8,15=1/13;
 11/28=-7,31=1,32=3,42=3/11;
 10/5=6,13=10,31=1/2;
 6/7=2,8=2,9=2,10=2,15=24,20=3,22=-1,40=-1,79=1/1,2,7;
 99/5=1,9=1/99;
 -----------------
 h2co-wavefunction
 -----------------
 Symbolic Z-matrix:
 Charge =  0 Multiplicity = 1
 O                     0.        0.        0.67925 
 C                     0.       -0.01     -0.52691 
 H                     0.        0.93661  -1.10662 
 H                     0.       -0.93661  -1.10662 
 
                          Input orientation:                          
 ---------------------------------------------------------------------
 Center     Atomic      Atomic             Coordinates (Angstroms)
 Number     Number       Type             X           Y           Z
 ---------------------------------------------------------------------
      1          8           0        0.000000    0.000000    0.679252
      2          6           0        0.000000   -0.010000   -0.526911
      3          1           0        0.000000    0.936614   -1.106620
      4          1           0        0.000000   -0.936614   -1.106620
 ---------------------------------------------------------------------
                    Distance matrix (angstroms):
                    1          2          3          4
     1  O    0.000000
     2  C    1.206204   0.000000
     3  H    2.016577   1.110018   0.000000
     4  H    2.016577   1.093012   1.873228   0.000000
 Symmetry turned off by external request.
 Stoichiometry    CH2O
 Framework group  CS[SG(CH2O)]
 Deg. of freedom     5
 Full point group                 CS      NOp   2
 Rotational constants (GHZ):         285.7713753          38.8684849          34.2148385
 Standard basis: Aug-CC-pVTZ (5D, 7F)
   138 basis functions,   198 primitive gaussians,   160 cartesian basis functions
     8 alpha electrons        8 beta electrons
       nuclear repulsion energy        31.3045651898 Hartrees.
 NAtoms=    4 NActive=    4 NUniq=    4 SFac= 1.00D+00 NAtFMM=   60 NAOKFM=F Big=F
 Integral buffers will be    131072 words long.
 Raffenetti 1 integral format.
 Two-electron integral symmetry is turned off.
 One-electron integrals computed using PRISM.
 NBasis=   138 RedAO= T EigKep=  8.41D-05  NBF=   138
 NBsUse=   138 1.00D-06 EigRej= -1.00D+00 NBFU=   138
 ExpMin= 2.53D-02 ExpMax= 1.53D+04 ExpMxC= 5.22D+02 IAcc=3 IRadAn=         5 AccDes= 0.00D+00
 Harris functional with IExCor=  205 and IRadAn=       5 diagonalized for initial guess.
 HarFok:  IExCor=  205 AccDes= 0.00D+00 IRadAn=         5 IDoV= 1 UseB2=F ITyADJ=14
 ICtDFT=  3500011 ScaDFX=  1.000000  1.000000  1.000000  1.000000
 FoFCou: FMM=F IPFlag=           0 FMFlag=      100000 FMFlg1=           0
         NFxFlg=           0 DoJE=T BraDBF=F KetDBF=T FulRan=T
         wScrn=  0.000000 ICntrl=       500 IOpCl=  0 I1Cent=   200000004 NGrid=           0
         NMat0=    1 NMatS0=      1 NMatT0=    0 NMatD0=    1 NMtDS0=    0 NMtDT0=    0
 Symmetry not used in FoFCou.
 Keep R1 ints in memory in canonical form, NReq=53861992.
 Requested convergence on RMS density matrix=1.00D-08 within 128 cycles.
 Requested convergence on MAX density matrix=1.00D-06.
 Requested convergence on             energy=1.00D-06.
 No special actions if energy rises.
 SCF Done:  E(RHF) =  -113.913709450     A.U. after   11 cycles
            NFock= 11  Conv=0.29D-08     -V/T= 2.0018
 ExpMin= 2.53D-02 ExpMax= 1.53D+04 ExpMxC= 5.22D+02 IAcc=3 IRadAn=         5 AccDes= 0.00D+00
 HarFok:  IExCor=  205 AccDes= 0.00D+00 IRadAn=         5 IDoV=-2 UseB2=F ITyADJ=14
 ICtDFT= 12500011 ScaDFX=  1.000000  1.000000  1.000000  1.000000
 Range of M.O.s used for correlation:     3   138
 NBasis=   138 NAE=     8 NBE=     8 NFC=     2 NFV=     0
 NROrb=    136 NOA=     6 NOB=     6 NVA=   130 NVB=   130

 **** Warning!!: The largest alpha MO coefficient is  0.33783460D+02

 Semi-Direct transformation.
 ModeAB=           2 MOrb=             6 LenV=    2146847475
 LASXX=      7286295 LTotXX=     7286295 LenRXX=     7286295
 LTotAB=     7445736 MaxLAS=    10510080 LenRXY=    10510080
 NonZer=    14572590 LenScr=    22628352 LnRSAI=           0
 LnScr1=           0 LExtra=           0 Total=     40424727
 MaxDsk=          -1 SrtSym=           F ITran=            4
 JobTyp=0 Pass  1:  I=   1 to   6.
 (rs|ai) integrals will be sorted in core.
 Spin components of T(2) and E(2):
     alpha-alpha T2 =       0.1376167495D-01 E2=     -0.4804299886D-01
     alpha-beta  T2 =       0.8506188740D-01 E2=     -0.3064418520D+00
     beta-beta   T2 =       0.1376167495D-01 E2=     -0.4804299886D-01
 ANorm=    0.1054791561D+01
 E2 =    -0.4025278498D+00 EUMP2 =    -0.11431623730014D+03
 Keep R2 and R3 ints in memory in canonical form, NReq=99865420.
 CIDS: In Core Option IDoMem=           1.
 Iterations=  50 Convergence= 0.100D-07
 Produce multiple copies of IABC intergrals
 Iteration Nr.   1
 **********************
 DD1Dir will call FoFMem   1 times, MxPair=        42
 NAB=    21 NAA=     0 NBB=     0.
 MP4(R+Q)=  0.88735316D-02
 E3=       -0.40171183D-02        EUMP3=      -0.11432025442D+03
 E4(DQ)=   -0.13502056D-02        UMP4(DQ)=   -0.11432160462D+03
 E4(SDQ)=  -0.66134057D-02        UMP4(SDQ)=  -0.11432686782D+03
 DE(Corr)= -0.39767144     E(Corr)=     -114.31138089    
 NORM(A)=   0.10554849D+01
 Iteration Nr.   2
 **********************
 DD1Dir will call FoFMem   1 times, MxPair=        42
 NAB=    21 NAA=     0 NBB=     0.
 DE(Corr)= -0.41161630     E(CORR)=     -114.32532575     Delta=-1.39D-02
 NORM(A)=   0.10615403D+01
 Iteration Nr.   3
 **********************
 DD1Dir will call FoFMem   1 times, MxPair=        42
 NAB=    21 NAA=     0 NBB=     0.
 DE(Corr)= -0.41154334     E(CORR)=     -114.32525279     Delta= 7.30D-05
 NORM(A)=   0.10634281D+01
 Iteration Nr.   4
 **********************
 DD1Dir will call FoFMem   1 times, MxPair=        42
 NAB=    21 NAA=     0 NBB=     0.
 DE(Corr)= -0.41295024     E(CORR)=     -114.32665969     Delta=-1.41D-03
 NORM(A)=   0.10641082D+01
 Iteration Nr.   5
 **********************
 DD1Dir will call FoFMem   1 times, MxPair=        42
 NAB=    21 NAA=     0 NBB=     0.
 DE(Corr)= -0.41313784     E(CORR)=     -114.32684729     Delta=-1.88D-04
 NORM(A)=   0.10643234D+01
 Iteration Nr.   6
 **********************
 DD1Dir will call FoFMem   1 times, MxPair=        42
 NAB=    21 NAA=     0 NBB=     0.
 DE(Corr)= -0.41316379     E(CORR)=     -114.32687324     Delta=-2.59D-05
 NORM(A)=   0.10643488D+01
 Iteration Nr.   7
 **********************
 DD1Dir will call FoFMem   1 times, MxPair=        42
 NAB=    21 NAA=     0 NBB=     0.
 DE(Corr)= -0.41316500     E(CORR)=     -114.32687445     Delta=-1.21D-06
 NORM(A)=   0.10643500D+01
 Iteration Nr.   8
 **********************
 DD1Dir will call FoFMem   1 times, MxPair=        42
 NAB=    21 NAA=     0 NBB=     0.
 DE(Corr)= -0.41316412     E(CORR)=     -114.32687357     Delta= 8.75D-07
 NORM(A)=   0.10643527D+01
 Iteration Nr.   9
 **********************
 DD1Dir will call FoFMem   1 times, MxPair=        42
 NAB=    21 NAA=     0 NBB=     0.
 DE(Corr)= -0.41316300     E(CORR)=     -114.32687245     Delta= 1.12D-06
 NORM(A)=   0.10643531D+01
 Iteration Nr.  10
 **********************
 DD1Dir will call FoFMem   1 times, MxPair=        42
 NAB=    21 NAA=     0 NBB=     0.
 DE(Corr)= -0.41316363     E(CORR)=     -114.32687308     Delta=-6.22D-07
 NORM(A)=   0.10643536D+01
 Iteration Nr.  11
 **********************
 DD1Dir will call FoFMem   1 times, MxPair=        42
 NAB=    21 NAA=     0 NBB=     0.
 DE(Corr)= -0.41316376     E(CORR)=     -114.32687321     Delta=-1.32D-07
 NORM(A)=   0.10643540D+01
 Iteration Nr.  12
 **********************
 DD1Dir will call FoFMem   1 times, MxPair=        42
 NAB=    21 NAA=     0 NBB=     0.
 DE(Corr)= -0.41316391     E(CORR)=     -114.32687336     Delta=-1.55D-07
 NORM(A)=   0.10643542D+01
 Iteration Nr.  13
 **********************
 DD1Dir will call FoFMem   1 times, MxPair=        42
 NAB=    21 NAA=     0 NBB=     0.
 DE(Corr)= -0.41316397     E(CORR)=     -114.32687342     Delta=-6.12D-08
 NORM(A)=   0.10643543D+01
 Iteration Nr.  14
 **********************
 DD1Dir will call FoFMem   1 times, MxPair=        42
 NAB=    21 NAA=     0 NBB=     0.
 DE(Corr)= -0.41316401     E(CORR)=     -114.32687346     Delta=-3.16D-08
 NORM(A)=   0.10643543D+01
 Iteration Nr.  15
 **********************
 DD1Dir will call FoFMem   1 times, MxPair=        42
 NAB=    21 NAA=     0 NBB=     0.
 DE(Corr)= -0.41316401     E(CORR)=     -114.32687346     Delta=-4.83D-09
 NORM(A)=   0.10643544D+01
 Wavefunction amplitudes converged. E(Corr)=     -114.32687346    
 Largest amplitude= 6.44D-02

 Z-amplitude iterations

 Iteration Nr.   1
 **********************
 DD1Dir will call FoFMem   1 times, MxPair=        42
 NAB=    21 NAA=     0 NBB=     0.
 DE(Z)= -0.40112810     E(Z)=     -114.31483755     Delta= 1.20D-02
 NORM(A)=   0.10643536D+01
 Iteration Nr.   2
 **********************
 DD1Dir will call FoFMem   1 times, MxPair=        42
 NAB=    21 NAA=     0 NBB=     0.
 DE(Z)= -0.40112806     E(Z)=     -114.31483751     Delta= 4.25D-08
 NORM(A)=   0.10643530D+01
 Iteration Nr.   3
 **********************
 DD1Dir will call FoFMem   1 times, MxPair=        42
 NAB=    21 NAA=     0 NBB=     0.
 DE(Z)= -0.40112803     E(Z)=     -114.31483748     Delta= 2.16D-08
 NORM(A)=   0.10643529D+01
 Iteration Nr.   4
 **********************
 DD1Dir will call FoFMem   1 times, MxPair=        42
 NAB=    21 NAA=     0 NBB=     0.
 DE(Z)= -0.40112802     E(Z)=     -114.31483747     Delta= 9.45D-09
 NORM(A)=   0.10643532D+01
 Iteration Nr.   5
 **********************
 DD1Dir will call FoFMem   1 times, MxPair=        42
 NAB=    21 NAA=     0 NBB=     0.
 DE(Z)= -0.40112804     E(Z)=     -114.31483749     Delta=-1.74D-08
 NORM(A)=   0.10602959D+01
 Iteration Nr.   6
 **********************
 DD1Dir will call FoFMem   1 times, MxPair=        42
 NAB=    21 NAA=     0 NBB=     0.
 DE(Z)= -0.40091506     E(Z)=     -114.31462451     Delta= 2.13D-04
 NORM(A)=   0.10602761D+01
 Iteration Nr.   7
 **********************
 DD1Dir will call FoFMem   1 times, MxPair=        42
 NAB=    21 NAA=     0 NBB=     0.
 DE(Z)= -0.40091432     E(Z)=     -114.31462377     Delta= 7.45D-07
 NORM(A)=   0.10602711D+01
 Iteration Nr.   8
 **********************
 DD1Dir will call FoFMem   1 times, MxPair=        42
 NAB=    21 NAA=     0 NBB=     0.
 DE(Z)= -0.40091398     E(Z)=     -114.31462343     Delta= 3.36D-07
 NORM(A)=   0.10602706D+01
 Iteration Nr.   9
 **********************
 DD1Dir will call FoFMem   1 times, MxPair=        42
 NAB=    21 NAA=     0 NBB=     0.
 DE(Z)= -0.40091368     E(Z)=     -114.31462314     Delta= 2.95D-07
 NORM(A)=   0.10602705D+01
 Iteration Nr.  10
 **********************
 DD1Dir will call FoFMem   1 times, MxPair=        42
 NAB=    21 NAA=     0 NBB=     0.
 DE(Z)= -0.40091380     E(Z)=     -114.31462325     Delta=-1.12D-07
 NORM(A)=   0.10602706D+01
 Iteration Nr.  11
 **********************
 DD1Dir will call FoFMem   1 times, MxPair=        42
 NAB=    21 NAA=     0 NBB=     0.
 DE(Z)= -0.40091375     E(Z)=     -114.31462320     Delta= 4.55D-08
 NORM(A)=   0.10602706D+01
 Iteration Nr.  12
 **********************
 DD1Dir will call FoFMem   1 times, MxPair=        42
 NAB=    21 NAA=     0 NBB=     0.
 DE(Z)= -0.40091375     E(Z)=     -114.31462320     Delta= 4.05D-09
 NORM(A)=   0.10602706D+01
 Z-amplitudes converged.
 Discarding MO integrals.
          Differentiating once with respect to electric field.
                with respect to dipole field.
          Electric field/nuclear overlap derivatives assumed to be zero.
 Keep R1 ints in memory in canonical form, NReq=53863287.
          There are     1 degrees of freedom in the 1st order CPHF.  IDoFFX=0 NUNeed=     1.
 LinEq1:  Iter=  0 NonCon=     1 RMS=3.55D-03 Max=5.57D-02 NDo=     1
 AX will form     1 AO Fock derivatives at one time.
 LinEq1:  Iter=  1 NonCon=     1 RMS=8.96D-04 Max=8.53D-03 NDo=     1
 LinEq1:  Iter=  2 NonCon=     1 RMS=2.35D-04 Max=3.42D-03 NDo=     1
 LinEq1:  Iter=  3 NonCon=     1 RMS=1.15D-04 Max=1.20D-03 NDo=     1
 LinEq1:  Iter=  4 NonCon=     1 RMS=4.45D-05 Max=5.32D-04 NDo=     1
 LinEq1:  Iter=  5 NonCon=     1 RMS=9.21D-06 Max=8.73D-05 NDo=     1
 LinEq1:  Iter=  6 NonCon=     1 RMS=1.51D-06 Max=1.74D-05 NDo=     1
 LinEq1:  Iter=  7 NonCon=     1 RMS=2.28D-07 Max=1.66D-06 NDo=     1
 LinEq1:  Iter=  8 NonCon=     1 RMS=2.62D-08 Max=2.07D-07 NDo=     1
 LinEq1:  Iter=  9 NonCon=     1 RMS=3.15D-09 Max=2.52D-08 NDo=     1
 LinEq1:  Iter= 10 NonCon=     1 RMS=2.98D-10 Max=2.30D-09 NDo=     1
 LinEq1:  Iter= 11 NonCon=     0 RMS=2.80D-11 Max=2.34D-10 NDo=     1
 Linear equations converged to 1.000D-10 1.000D-09 after    11 iterations.
 End of Minotr F.D. properties file   721 does not exist.
 End of Minotr F.D. properties file   722 does not exist.
 End of Minotr F.D. properties file   788 does not exist.

 **********************************************************************

            Population analysis using the CC Density.

 **********************************************************************

 Alpha  occ. eigenvalues --  -20.57891 -11.34243  -1.40665  -0.87147  -0.69535
 Alpha  occ. eigenvalues --   -0.65242  -0.53718  -0.44377
 Alpha virt. eigenvalues --    0.02626   0.04169   0.06239   0.07646   0.12927
 Alpha virt. eigenvalues --    0.13289   0.13352   0.17432   0.19815   0.21171
 Alpha virt. eigenvalues --    0.21715   0.25409   0.25609   0.28126   0.32050
 Alpha virt. eigenvalues --    0.33795   0.33942   0.35899   0.38781   0.38975
 Alpha virt. eigenvalues --    0.39595   0.41898   0.48224   0.49879   0.56175
 Alpha virt. eigenvalues --    0.56749   0.66881   0.67733   0.72309   0.76376
 Alpha virt. eigenvalues --    0.81893   0.83424   0.84216   0.85672   0.87617
 Alpha virt. eigenvalues --    0.88225   0.92744   0.93413   0.93972   0.97959
 Alpha virt. eigenvalues --    1.00156   1.02095   1.02349   1.03806   1.06848
 Alpha virt. eigenvalues --    1.08236   1.09847   1.10187   1.25855   1.26577
 Alpha virt. eigenvalues --    1.30476   1.37039   1.38913   1.45782   1.47653
 Alpha virt. eigenvalues --    1.51301   1.57165   1.59850   1.62671   1.70674
 Alpha virt. eigenvalues --    1.73074   1.83594   1.96101   2.00585   2.03360
 Alpha virt. eigenvalues --    2.09372   2.18102   2.28725   2.32185   2.34131
 Alpha virt. eigenvalues --    2.34399   2.48998   2.49777   2.56027   2.60645
 Alpha virt. eigenvalues --    2.71567   2.78354   2.80821   2.91990   2.93029
 Alpha virt. eigenvalues --    3.06519   3.07631   3.14542   3.18714   3.41213
 Alpha virt. eigenvalues --    3.44419   3.52841   3.56462   3.62852   3.65971
 Alpha virt. eigenvalues --    3.70034   3.89572   3.95367   4.05620   4.11920
 Alpha virt. eigenvalues --    4.16188   4.16456   4.22043   4.24797   4.36374
 Alpha virt. eigenvalues --    4.58517   4.64730   4.68852   4.76990   5.03027
 Alpha virt. eigenvalues --    5.05082   5.10648   5.16045   5.25078   5.28499
 Alpha virt. eigenvalues --    5.32770   5.38715   5.89080   6.13783   6.23496
 Alpha virt. eigenvalues --    6.50059   6.59829   6.61838   6.91577   6.94938
 Alpha virt. eigenvalues --    7.09117   7.19092   7.20581   7.41354   7.52524
 Alpha virt. eigenvalues --    7.68652   7.72604   7.77129  14.96538  16.40094
          Condensed to atoms (all electrons):
               1          2          3          4
     1  O    8.193911   0.349394  -0.061206  -0.064621
     2  C    0.349394   5.719324   0.214827   0.200617
     3  H   -0.061206   0.214827   0.438267  -0.030360
     4  H   -0.064621   0.200617  -0.030360   0.431195
 Mulliken charges:
               1
     1  O   -0.417479
     2  C   -0.484162
     3  H    0.438472
     4  H    0.463168
 Sum of Mulliken charges =  -0.00000
 Mulliken charges with hydrogens summed into heavy atoms:
               1
     1  O   -0.417479
     2  C    0.417479
 Electronic spatial extent (au):  <R**2>=             60.6342
 Charge=             -0.0000 electrons
 Dipole moment (field-independent basis, Debye):
    X=              0.0000    Y=             -0.0368    Z=             -2.4417  Tot=              2.4420
 Quadrupole moment (field-independent basis, Debye-Ang):
   XX=            -11.7380   YY=            -11.6213   ZZ=            -12.2715
   XY=             -0.0000   XZ=             -0.0000   YZ=              0.0532
 Traceless Quadrupole moment (field-independent basis, Debye-Ang):
   XX=              0.1389   YY=              0.2556   ZZ=             -0.3946
   XY=             -0.0000   XZ=             -0.0000   YZ=              0.0532
 Octapole moment (field-independent basis, Debye-Ang**2):
  XXX=             -0.0000  YYY=              0.0949  ZZZ=              0.3127  XYY=             -0.0000
  XXY=              0.0223  XXZ=              0.5816  XZZ=             -0.0000  YZZ=             -0.0172
  YYZ=             -0.7021  XYZ=              0.0000
 Hexadecapole moment (field-independent basis, Debye-Ang**3):
 XXXX=            -10.5197 YYYY=            -18.2530 ZZZZ=            -46.2438 XXXY=             -0.0000
 XXXZ=             -0.0000 YYYX=             -0.0000 YYYZ=              0.0149 ZZZX=              0.0000
 ZZZY=              0.1051 XXYY=             -5.1558 XXZZ=             -9.3948 YYZZ=            -10.4560
 XXYZ=              0.0135 YYXZ=              0.0000 ZZXY=             -0.0000
 N-N= 3.130456518979D+01 E-N=-3.313608695074D+02  KE= 1.142317128535D+02
 There are a total of       93160 grid points.
 ElSum from          density=       15.9999998786
 ElSum from atomic densities=       15.9999997978

 Hirshfeld populations at iteration   1 (CX, CA, CB, DipXYZ):
               1          2          3          4          5          6
     1  O    0.000003   4.110901   4.110901   0.000000   0.000490  -0.109620
     2  C    0.000000   2.933346   2.933346   0.000000  -0.006124  -0.096581
     3  H    0.000001   0.478633   0.478633  -0.000000   0.112795  -0.073659
     4  H    0.000001   0.477121   0.477121  -0.000000  -0.113749  -0.078279
       Tot   0.000004   8.000000   8.000000   0.000000  -0.006588  -0.358139

 Dip from Atomic Chgs              0.000000  -0.007872  -0.602499
         Total Dipole              0.000000  -0.014460  -0.960638

 Hirshfeld charges, spin densities, dipoles, and CM5 charges using IRadAn=      5:
              Q-H        S-H        Dx         Dy         Dz        Q-CM5   
     1  O   -0.221801   0.000000   0.000000   0.000490  -0.109620  -0.283151
     2  C    0.133308   0.000000   0.000000  -0.006124  -0.096581   0.077290
     3  H    0.042734   0.000000  -0.000000   0.112795  -0.073659   0.100441
     4  H    0.045759   0.000000  -0.000000  -0.113749  -0.078279   0.105420
       Tot   0.000000   0.000000   0.000000  -0.006588  -0.358139   0.000000
 Hirshfeld charges with hydrogens summed into heavy atoms:
              Q-H       Q-CM5   
     1  O   -0.221801  -0.283151
     2  C    0.221801   0.283151
 
 EQQ= 0.000000000000E+00 EQD= 0.000000000000E+00 EDD= 0.266835025463E-02
 EQQ+QD+DD= 0.266835025463E-02
 
 Breneman (CHELPG) radii used.
 Generate Potential Derived Charges using the Breneman model, NDens= 1.
 Grid spacing= 0.300 Box extension= 2.800
 NStep X,Y,Z=   20     26     26   Total possible points=       13520
 Number of Points to Fit=    4900

 **********************************************************************

            Electrostatic Properties Using The CC Density.

 **********************************************************************

       Atomic Center    1 is at   0.000000  0.000000  0.679252
       Atomic Center    2 is at   0.000000 -0.010000 -0.526911
       Atomic Center    3 is at   0.000000  0.936614 -1.106620
       Atomic Center    4 is at   0.000000 -0.936614 -1.106620
    4900 points will be used for fitting atomic charges
 Fitting point charges to electrostatic potential
 The dipole moment will be constrained to the correct value
 Charges from ESP fit, RMS=   0.00231 RRMS=   0.11907:
 ESP charges:
               1
     1  O   -0.426977
     2  C    0.438458
     3  H   -0.007485
     4  H   -0.003996
 Sum of ESP charges =   0.00000
 ESP charges with hydrogens summed into heavy atoms:
               1
     1  O   -0.426977
     2  C    0.426977
 Charge=   0.00000 Dipole=     0.0000    -0.0368    -2.4417 Tot=     2.4420
 -----------------------------------------------------------------

              Electrostatic Properties (Atomic Units)

 -----------------------------------------------------------------
    Center     Electric         -------- Electric Field --------
               Potential          X             Y             Z
 -----------------------------------------------------------------
    1 Atom    -22.326172
    2 Atom    -14.664202
    3 Atom     -1.079296
    4 Atom     -1.077837
 -----------------------------------------------------------------
 ******************************Gaussian NBO Version 3.1******************************
             N A T U R A L   A T O M I C   O R B I T A L   A N D
          N A T U R A L   B O N D   O R B I T A L   A N A L Y S I S
 ******************************Gaussian NBO Version 3.1******************************
       /RESON  / : Allow strongly delocalized NBO set

 Analyzing the QCI/CC density

 Job title: h2co-wavefunction                                               

 Storage needed:     57804 in NPA (2147483536 available)
 GSVD:  LWork=       -1756 too small for GESVD, short by       42456 words or       42456 for optimal perf.


 NATURAL POPULATIONS:  Natural atomic orbital occupancies 
                                                          
   NAO  Atom  No  lang   Type(AO)    Occupancy
 --------------------------------------------
     1    O    1  S      Cor( 1S)     1.99960
     2    O    1  S      Val( 2S)     1.70303
     3    O    1  S      Ryd( 3S)     0.01030
     4    O    1  S      Ryd( 4S)     0.00089
     5    O    1  S      Ryd( 5S)     0.00020
     6    O    1  px     Val( 2p)     1.28860
     7    O    1  px     Ryd( 3p)     0.00662
     8    O    1  px     Ryd( 4p)     0.00052
     9    O    1  px     Ryd( 5p)     0.00004
    10    O    1  py     Val( 2p)     1.85384
    11    O    1  py     Ryd( 3p)     0.01603
    12    O    1  py     Ryd( 4p)     0.00080
    13    O    1  py     Ryd( 5p)     0.00008
    14    O    1  pz     Val( 2p)     1.54204
    15    O    1  pz     Ryd( 3p)     0.00671
    16    O    1  pz     Ryd( 4p)     0.00047
    17    O    1  pz     Ryd( 5p)     0.00013
    18    O    1  dxy    Ryd( 3d)     0.00566
    19    O    1  dxy    Ryd( 4d)     0.00046
    20    O    1  dxy    Ryd( 5d)     0.00007
    21    O    1  dxz    Ryd( 3d)     0.00974
    22    O    1  dxz    Ryd( 4d)     0.00033
    23    O    1  dxz    Ryd( 5d)     0.00009
    24    O    1  dyz    Ryd( 3d)     0.00929
    25    O    1  dyz    Ryd( 4d)     0.00045
    26    O    1  dyz    Ryd( 5d)     0.00018
    27    O    1  dx2y2  Ryd( 3d)     0.00554
    28    O    1  dx2y2  Ryd( 4d)     0.00046
    29    O    1  dx2y2  Ryd( 5d)     0.00006
    30    O    1  dz2    Ryd( 3d)     0.01867
    31    O    1  dz2    Ryd( 4d)     0.00039
    32    O    1  dz2    Ryd( 5d)     0.00009
    33    O    1  f(0)   Ryd( 4f)     0.00086
    34    O    1  f(0)   Ryd( 5f)     0.00010
    35    O    1  f(C1)  Ryd( 4f)     0.00051
    36    O    1  f(C1)  Ryd( 5f)     0.00009
    37    O    1  f(S1)  Ryd( 4f)     0.00060
    38    O    1  f(S1)  Ryd( 5f)     0.00014
    39    O    1  f(C2)  Ryd( 4f)     0.00049
    40    O    1  f(C2)  Ryd( 5f)     0.00009
    41    O    1  f(S2)  Ryd( 4f)     0.00050
    42    O    1  f(S2)  Ryd( 5f)     0.00008
    43    O    1  f(C3)  Ryd( 4f)     0.00049
    44    O    1  f(C3)  Ryd( 5f)     0.00006
    45    O    1  f(S3)  Ryd( 4f)     0.00049
    46    O    1  f(S3)  Ryd( 5f)     0.00006

    47    C    2  S      Cor( 1S)     1.99948
    48    C    2  S      Val( 2S)     1.02790
    49    C    2  S      Ryd( 3S)     0.01387
    50    C    2  S      Ryd( 4S)     0.00021
    51    C    2  S      Ryd( 5S)     0.00010
    52    C    2  px     Val( 2p)     0.68950
    53    C    2  px     Ryd( 3p)     0.00355
    54    C    2  px     Ryd( 4p)     0.00018
    55    C    2  px     Ryd( 5p)     0.00008
    56    C    2  py     Val( 2p)     1.07229
    57    C    2  py     Ryd( 3p)     0.00446
    58    C    2  py     Ryd( 4p)     0.00036
    59    C    2  py     Ryd( 5p)     0.00007
    60    C    2  pz     Val( 2p)     0.83785
    61    C    2  pz     Ryd( 3p)     0.01273
    62    C    2  pz     Ryd( 4p)     0.00015
    63    C    2  pz     Ryd( 5p)     0.00010
    64    C    2  dxy    Ryd( 3d)     0.00488
    65    C    2  dxy    Ryd( 5d)     0.00012
    66    C    2  dxy    Ryd( 4d)     0.00013
    67    C    2  dxz    Ryd( 3d)     0.00491
    68    C    2  dxz    Ryd( 4d)     0.00021
    69    C    2  dxz    Ryd( 5d)     0.00015
    70    C    2  dyz    Ryd( 3d)     0.01181
    71    C    2  dyz    Ryd( 4d)     0.00046
    72    C    2  dyz    Ryd( 5d)     0.00035
    73    C    2  dx2y2  Ryd( 3d)     0.00481
    74    C    2  dx2y2  Ryd( 4d)     0.00017
    75    C    2  dx2y2  Ryd( 5d)     0.00006
    76    C    2  dz2    Ryd( 3d)     0.00492
    77    C    2  dz2    Ryd( 4d)     0.00031
    78    C    2  dz2    Ryd( 5d)     0.00010
    79    C    2  f(0)   Ryd( 4f)     0.00041
    80    C    2  f(0)   Ryd( 5f)     0.00010
    81    C    2  f(C1)  Ryd( 4f)     0.00033
    82    C    2  f(C1)  Ryd( 5f)     0.00009
    83    C    2  f(S1)  Ryd( 4f)     0.00049
    84    C    2  f(S1)  Ryd( 5f)     0.00009
    85    C    2  f(C2)  Ryd( 4f)     0.00052
    86    C    2  f(C2)  Ryd( 5f)     0.00011
    87    C    2  f(S2)  Ryd( 4f)     0.00046
    88    C    2  f(S2)  Ryd( 5f)     0.00010
    89    C    2  f(C3)  Ryd( 4f)     0.00038
    90    C    2  f(C3)  Ryd( 5f)     0.00014
    91    C    2  f(S3)  Ryd( 4f)     0.00047
    92    C    2  f(S3)  Ryd( 5f)     0.00011

    93    H    3  S      Val( 1S)     0.89869
    94    H    3  S      Ryd( 2S)     0.00284
    95    H    3  S      Ryd( 3S)     0.00010
    96    H    3  S      Ryd( 4S)     0.00005
    97    H    3  px     Ryd( 2p)     0.00131
    98    H    3  px     Ryd( 3p)     0.00035
    99    H    3  px     Ryd( 4p)     0.00007
   100    H    3  py     Ryd( 2p)     0.00140
   101    H    3  py     Ryd( 3p)     0.00041
   102    H    3  py     Ryd( 4p)     0.00011
   103    H    3  pz     Ryd( 2p)     0.00172
   104    H    3  pz     Ryd( 3p)     0.00041
   105    H    3  pz     Ryd( 4p)     0.00010
   106    H    3  dxy    Ryd( 3d)     0.00007
   107    H    3  dxy    Ryd( 4d)     0.00007
   108    H    3  dxz    Ryd( 3d)     0.00007
   109    H    3  dxz    Ryd( 4d)     0.00004
   110    H    3  dyz    Ryd( 3d)     0.00021
   111    H    3  dyz    Ryd( 4d)     0.00006
   112    H    3  dx2y2  Ryd( 3d)     0.00025
   113    H    3  dx2y2  Ryd( 4d)     0.00007
   114    H    3  dz2    Ryd( 3d)     0.00007
   115    H    3  dz2    Ryd( 4d)     0.00004

   116    H    4  S      Val( 1S)     0.89568
   117    H    4  S      Ryd( 2S)     0.00288
   118    H    4  S      Ryd( 3S)     0.00010
   119    H    4  S      Ryd( 4S)     0.00005
   120    H    4  px     Ryd( 2p)     0.00128
   121    H    4  px     Ryd( 3p)     0.00035
   122    H    4  px     Ryd( 4p)     0.00007
   123    H    4  py     Ryd( 2p)     0.00143
   124    H    4  py     Ryd( 3p)     0.00042
   125    H    4  py     Ryd( 4p)     0.00011
   126    H    4  pz     Ryd( 2p)     0.00162
   127    H    4  pz     Ryd( 3p)     0.00040
   128    H    4  pz     Ryd( 4p)     0.00010
   129    H    4  dxy    Ryd( 3d)     0.00007
   130    H    4  dxy    Ryd( 4d)     0.00007
   131    H    4  dxz    Ryd( 3d)     0.00007
   132    H    4  dxz    Ryd( 4d)     0.00005
   133    H    4  dyz    Ryd( 3d)     0.00019
   134    H    4  dyz    Ryd( 4d)     0.00007
   135    H    4  dx2y2  Ryd( 3d)     0.00023
   136    H    4  dx2y2  Ryd( 4d)     0.00007
   137    H    4  dz2    Ryd( 3d)     0.00007
   138    H    4  dz2    Ryd( 4d)     0.00004


 Summary of Natural Population Analysis:                  
                                                          
                                       Natural Population 
                Natural  -----------------------------------------------
    Atom  No    Charge         Core      Valence    Rydberg      Total
 -----------------------------------------------------------------------
      O    1   -0.48598      1.99960     6.38751    0.09886     8.48598
      C    2    0.29990      1.99948     3.62754    0.07307     5.70010
      H    3    0.09149      0.00000     0.89869    0.00982     0.90851
      H    4    0.09458      0.00000     0.89568    0.00974     0.90542
 =======================================================================
   * Total *    0.00000      3.99909    11.80942    0.19149    16.00000

                                 Natural Population      
 --------------------------------------------------------
   Core                       3.99909 ( 99.9772% of   4)
   Valence                   11.80942 ( 98.4119% of  12)
   Natural Minimal Basis     15.80851 ( 98.8032% of  16)
   Natural Rydberg Basis      0.19149 (  1.1968% of  16)
 --------------------------------------------------------

    Atom  No          Natural Electron Configuration
 ----------------------------------------------------------------------------
      O    1      [core]2S( 1.70)2p( 4.68)3S( 0.01)3p( 0.03)3d( 0.05)
      C    2      [core]2S( 1.03)2p( 2.60)3S( 0.01)3p( 0.02)3d( 0.03)
      H    3            1S( 0.90)
      H    4            1S( 0.90)


 NBO analysis skipped by request.
 Unable to Open any file for archive entry.
 1\1\GINC-TRAPISTA\SP\RQCISD-FC\Aug-CC-pVTZ\C1H2O1\WAGNER\02-Sep-2022\0
 \\# qcisd/aug-cc-pvtz nosymm density=current pop=(chelpg,hirshfeld,npa
 ,dipole)\\h2co-wavefunction\\0,1\O,0,0.,0.,0.679252\C,0,0.,-0.01,-0.52
 6911\H,0,0.,0.936614,-1.10662\H,0,0.,-0.936614,-1.10662\\Version=EM64L
 -G16RevC.01\HF=-113.9137095\MP2=-114.3162373\MP3=-114.3202544\MP4D=-11
 4.3304782\MP4DQ=-114.3216046\MP4SDQ=-114.3268678\QCISD=-114.3268735\RM
 SD=2.936e-09\Dipole=0.,-0.0144603,-0.9606382\Quadrupole=0.1032758,0.19
 00657,-0.2933414,0.,0.,0.039567\PG=CS [SG(C1H2O1)]\\@
 The archive entry for this job was punched.


 THERE ARE TWO THINGS THAT EVERYBODY THINKS THEY CAN DO BETTER THAN
 ANYONE ELSE - PUNCH THE FIRE, AND EDIT A DAILY PAPER.
 -- UNCLE ESEK, "CENTURY MAGAZINE", 1885
 Job cpu time:       0 days  1 hours 26 minutes 17.3 seconds.
 Elapsed time:       0 days  0 hours  5 minutes 27.4 seconds.
 File lengths (MBytes):  RWF=   6915 Int=      0 D2E=      0 Chk=      3 Scr=      1
 Normal termination of Gaussian 16 at Fri Sep  2 18:54:32 2022.
