 Entering Gaussian System, Link 0=/home/wagner/chemistry/gaussian/g16/g16
 Input=GAUSSIAN.com
 Output=GAUSSIAN.log
 Initial command:
 /home/wagner/chemistry/gaussian/g16/l1.exe "/home/wagner/chemistry/gaussian/work/Gau-42343.inp" -scrdir="/home/wagner/chemistry/gaussian/work/"
 Entering Link 1 = /home/wagner/chemistry/gaussian/g16/l1.exe PID=     42345.
  
 Copyright (c) 1988-2019, Gaussian, Inc.  All Rights Reserved.
  
 This is part of the Gaussian(R) 16 program.  It is based on
 the Gaussian(R) 09 system (copyright 2009, Gaussian, Inc.),
 the Gaussian(R) 03 system (copyright 2003, Gaussian, Inc.),
 the Gaussian(R) 98 system (copyright 1998, Gaussian, Inc.),
 the Gaussian(R) 94 system (copyright 1995, Gaussian, Inc.),
 the Gaussian 92(TM) system (copyright 1992, Gaussian, Inc.),
 the Gaussian 90(TM) system (copyright 1990, Gaussian, Inc.),
 the Gaussian 88(TM) system (copyright 1988, Gaussian, Inc.),
 the Gaussian 86(TM) system (copyright 1986, Carnegie Mellon
 University), and the Gaussian 82(TM) system (copyright 1983,
 Carnegie Mellon University). Gaussian is a federally registered
 trademark of Gaussian, Inc.
  
 This software contains proprietary and confidential information,
 including trade secrets, belonging to Gaussian, Inc.
  
 This software is provided under written license and may be
 used, copied, transmitted, or stored only in accord with that
 written license.
  
 The following legend is applicable only to US Government
 contracts under FAR:
  
                    RESTRICTED RIGHTS LEGEND
  
 Use, reproduction and disclosure by the US Government is
 subject to restrictions as set forth in subparagraphs (a)
 and (c) of the Commercial Computer Software - Restricted
 Rights clause in FAR 52.227-19.
  
 Gaussian, Inc.
 340 Quinnipiac St., Bldg. 40, Wallingford CT 06492
  
  
 ---------------------------------------------------------------
 Warning -- This program may not be used in any manner that
 competes with the business of Gaussian, Inc. or will provide
 assistance to any competitor of Gaussian, Inc.  The licensee
 of this program is prohibited from giving any competitor of
 Gaussian, Inc. access to this program.  By using this program,
 the user acknowledges that Gaussian, Inc. is engaged in the
 business of creating and licensing software in the field of
 computational chemistry and represents and warrants to the
 licensee that it is not a competitor of Gaussian, Inc. and that
 it will not use this program in any manner prohibited above.
 ---------------------------------------------------------------
  

 Cite this work as:
 Gaussian 16, Revision C.01,
 M. J. Frisch, G. W. Trucks, H. B. Schlegel, G. E. Scuseria, 
 M. A. Robb, J. R. Cheeseman, G. Scalmani, V. Barone, 
 G. A. Petersson, H. Nakatsuji, X. Li, M. Caricato, A. V. Marenich, 
 J. Bloino, B. G. Janesko, R. Gomperts, B. Mennucci, H. P. Hratchian, 
 J. V. Ortiz, A. F. Izmaylov, J. L. Sonnenberg, D. Williams-Young, 
 F. Ding, F. Lipparini, F. Egidi, J. Goings, B. Peng, A. Petrone, 
 T. Henderson, D. Ranasinghe, V. G. Zakrzewski, J. Gao, N. Rega, 
 G. Zheng, W. Liang, M. Hada, M. Ehara, K. Toyota, R. Fukuda, 
 J. Hasegawa, M. Ishida, T. Nakajima, Y. Honda, O. Kitao, H. Nakai, 
 T. Vreven, K. Throssell, J. A. Montgomery, Jr., J. E. Peralta, 
 F. Ogliaro, M. J. Bearpark, J. J. Heyd, E. N. Brothers, K. N. Kudin, 
 V. N. Staroverov, T. A. Keith, R. Kobayashi, J. Normand, 
 K. Raghavachari, A. P. Rendell, J. C. Burant, S. S. Iyengar, 
 J. Tomasi, M. Cossi, J. M. Millam, M. Klene, C. Adamo, R. Cammi, 
 J. W. Ochterski, R. L. Martin, K. Morokuma, O. Farkas, 
 J. B. Foresman, and D. J. Fox, Gaussian, Inc., Wallingford CT, 2019.
 
 ******************************************
 Gaussian 16:  EM64L-G16RevC.01  3-Jul-2019
                 4-Sep-2022 
 ******************************************
 %nproc=16
 Will use up to   16 processors via shared memory.
 %mem=16GB
 ----------------------------------------------------------------------
 # qcisd/aug-cc-pvtz nosymm density=current pop=(chelpg,hirshfeld,npa,d
 ipole)
 ----------------------------------------------------------------------
 1/30=1,38=1,172=1/1;
 2/12=2,15=1,17=6,18=5,40=1/2;
 3/5=16,6=1,7=10,11=9,25=1,30=1,71=1/1,2,3;
 4//1;
 5/5=2,38=5/2;
 8/6=4,9=120000,10=1/1,4;
 9/5=8,15=1/13;
 11/28=-7,31=1,32=3,42=3/11;
 10/5=6,13=10,31=1/2;
 6/7=2,8=2,9=2,10=2,15=24,20=3,22=-1,40=-1,79=1/1,2,7;
 99/5=1,9=1/99;
 ------------------
 cl2cs-wavefunction
 ------------------
 Symbolic Z-matrix:
 Charge =  0 Multiplicity = 1
 C                     0.        0.       -0.51291 
 Cl                    0.       -1.43074  -1.5009 
 Cl                    0.        1.43074  -1.5009 
 S                     0.        0.        1.08181 
 
                          Input orientation:                          
 ---------------------------------------------------------------------
 Center     Atomic      Atomic             Coordinates (Angstroms)
 Number     Number       Type             X           Y           Z
 ---------------------------------------------------------------------
      1          6           0        0.000000    0.000000   -0.512914
      2         17           0        0.000000   -1.430735   -1.500900
      3         17           0        0.000000    1.430735   -1.500900
      4         16           0        0.000000    0.000000    1.081815
 ---------------------------------------------------------------------
                    Distance matrix (angstroms):
                    1          2          3          4
     1  C    0.000000
     2  Cl   1.738712   0.000000
     3  Cl   1.738712   2.861470   0.000000
     4  S    1.594729   2.952528   2.952528   0.000000
 Symmetry turned off by external request.
 Stoichiometry    CCl2S
 Framework group  C2V[C2(CS),SGV(Cl2)]
 Deg. of freedom     3
 Full point group                 C2V     NOp   4
 Rotational constants (GHZ):           3.5301033           3.4450299           1.7435239
 Standard basis: Aug-CC-pVTZ (5D, 7F)
   196 basis functions,   414 primitive gaussians,   232 cartesian basis functions
    28 alpha electrons       28 beta electrons
       nuclear repulsion energy       244.8886631331 Hartrees.
 NAtoms=    4 NActive=    4 NUniq=    4 SFac= 1.00D+00 NAtFMM=   60 NAOKFM=F Big=F
 Integral buffers will be    131072 words long.
 Raffenetti 1 integral format.
 Two-electron integral symmetry is turned off.
 One-electron integrals computed using PRISM.
 NBasis=   196 RedAO= T EigKep=  9.01D-05  NBF=   196
 NBsUse=   196 1.00D-06 EigRej= -1.00D+00 NBFU=   196
 ExpMin= 3.51D-02 ExpMax= 4.56D+05 ExpMxC= 1.44D+03 IAcc=3 IRadAn=         5 AccDes= 0.00D+00
 Harris functional with IExCor=  205 and IRadAn=       5 diagonalized for initial guess.
 HarFok:  IExCor=  205 AccDes= 0.00D+00 IRadAn=         5 IDoV= 1 UseB2=F ITyADJ=14
 ICtDFT=  3500011 ScaDFX=  1.000000  1.000000  1.000000  1.000000
 FoFCou: FMM=F IPFlag=           0 FMFlag=      100000 FMFlg1=           0
         NFxFlg=           0 DoJE=T BraDBF=F KetDBF=T FulRan=T
         wScrn=  0.000000 ICntrl=       500 IOpCl=  0 I1Cent=   200000004 NGrid=           0
         NMat0=    1 NMatS0=      1 NMatT0=    0 NMatD0=    1 NMtDS0=    0 NMtDT0=    0
 Symmetry not used in FoFCou.
 Keep R1 ints in memory in canonical form, NReq=194496534.
 Requested convergence on RMS density matrix=1.00D-08 within 128 cycles.
 Requested convergence on MAX density matrix=1.00D-06.
 Requested convergence on             energy=1.00D-06.
 No special actions if energy rises.
 SCF Done:  E(RHF) =  -1354.42606963     A.U. after   12 cycles
            NFock= 12  Conv=0.84D-08     -V/T= 2.0001
 ExpMin= 3.51D-02 ExpMax= 4.56D+05 ExpMxC= 1.44D+03 IAcc=3 IRadAn=         5 AccDes= 0.00D+00
 HarFok:  IExCor=  205 AccDes= 0.00D+00 IRadAn=         5 IDoV=-2 UseB2=F ITyADJ=14
 ICtDFT= 12500011 ScaDFX=  1.000000  1.000000  1.000000  1.000000
 Range of M.O.s used for correlation:    17   196
 NBasis=   196 NAE=    28 NBE=    28 NFC=    16 NFV=     0
 NROrb=    180 NOA=    12 NOB=    12 NVA=   168 NVB=   168

 **** Warning!!: The largest alpha MO coefficient is  0.30750337D+02

 Semi-Direct transformation.
 ModeAB=           2 MOrb=            12 LenV=    2146408823
 LASXX=     33405819 LTotXX=    33405819 LenRXX=    33405819
 LTotAB=    33954012 MaxLAS=    58380480 LenRXY=    58380480
 NonZer=    66811638 LenScr=   100987392 LnRSAI=           0
 LnScr1=           0 LExtra=           0 Total=    192773691
 MaxDsk=          -1 SrtSym=           F ITran=            4
 JobTyp=0 Pass  1:  I=   1 to  12.
 (rs|ai) integrals will be sorted in core.
 Spin components of T(2) and E(2):
     alpha-alpha T2 =       0.3949269433D-01 E2=     -0.9363478699D-01
     alpha-beta  T2 =       0.2070246140D+00 E2=     -0.5369302101D+00
     beta-beta   T2 =       0.3949269433D-01 E2=     -0.9363478699D-01
 ANorm=    0.1134023810D+01
 E2 =    -0.7241997841D+00 EUMP2 =    -0.13551502694172D+04
 Keep R2 and R3 ints in memory in canonical form, NReq=380875837.
 CIDS: In Core Option IDoMem=           1.
 Iterations=  50 Convergence= 0.100D-07
 Produce multiple copies of IABC intergrals
 Iteration Nr.   1
 **********************
 DD1Dir will call FoFMem   1 times, MxPair=       156
 NAB=    78 NAA=     0 NBB=     0.
 MP4(R+Q)=  0.24845873D-01
 E3=       -0.32677044D-01        EUMP3=      -0.13551829465D+04
 E4(DQ)=    0.31000980D-02        UMP4(DQ)=   -0.13551798464D+04
 E4(SDQ)=  -0.36747701D-02        UMP4(SDQ)=  -0.13551866212D+04
 DE(Corr)= -0.73203096     E(Corr)=     -1355.1581006    
 NORM(A)=   0.11379863D+01
 Iteration Nr.   2
 **********************
 DD1Dir will call FoFMem   1 times, MxPair=       156
 NAB=    78 NAA=     0 NBB=     0.
 DE(Corr)= -0.75627376     E(CORR)=     -1355.1823434     Delta=-2.42D-02
 NORM(A)=   0.11489409D+01
 Iteration Nr.   3
 **********************
 DD1Dir will call FoFMem   1 times, MxPair=       156
 NAB=    78 NAA=     0 NBB=     0.
 DE(Corr)= -0.75548502     E(CORR)=     -1355.1815547     Delta= 7.89D-04
 NORM(A)=   0.11516421D+01
 Iteration Nr.   4
 **********************
 DD1Dir will call FoFMem   1 times, MxPair=       156
 NAB=    78 NAA=     0 NBB=     0.
 DE(Corr)= -0.75772807     E(CORR)=     -1355.1837977     Delta=-2.24D-03
 NORM(A)=   0.11526924D+01
 Iteration Nr.   5
 **********************
 DD1Dir will call FoFMem   1 times, MxPair=       156
 NAB=    78 NAA=     0 NBB=     0.
 DE(Corr)= -0.75800058     E(CORR)=     -1355.1840702     Delta=-2.73D-04
 NORM(A)=   0.11532137D+01
 Iteration Nr.   6
 **********************
 DD1Dir will call FoFMem   1 times, MxPair=       156
 NAB=    78 NAA=     0 NBB=     0.
 DE(Corr)= -0.75805234     E(CORR)=     -1355.1841220     Delta=-5.18D-05
 NORM(A)=   0.11532739D+01
 Iteration Nr.   7
 **********************
 DD1Dir will call FoFMem   1 times, MxPair=       156
 NAB=    78 NAA=     0 NBB=     0.
 DE(Corr)= -0.75805940     E(CORR)=     -1355.1841290     Delta=-7.06D-06
 NORM(A)=   0.11532801D+01
 Iteration Nr.   8
 **********************
 DD1Dir will call FoFMem   1 times, MxPair=       156
 NAB=    78 NAA=     0 NBB=     0.
 DE(Corr)= -0.75805729     E(CORR)=     -1355.1841269     Delta= 2.11D-06
 NORM(A)=   0.11532864D+01
 Iteration Nr.   9
 **********************
 DD1Dir will call FoFMem   1 times, MxPair=       156
 NAB=    78 NAA=     0 NBB=     0.
 DE(Corr)= -0.75805766     E(CORR)=     -1355.1841273     Delta=-3.70D-07
 NORM(A)=   0.11532856D+01
 Iteration Nr.  10
 **********************
 DD1Dir will call FoFMem   1 times, MxPair=       156
 NAB=    78 NAA=     0 NBB=     0.
 DE(Corr)= -0.75805850     E(CORR)=     -1355.1841281     Delta=-8.44D-07
 NORM(A)=   0.11532875D+01
 Iteration Nr.  11
 **********************
 DD1Dir will call FoFMem   1 times, MxPair=       156
 NAB=    78 NAA=     0 NBB=     0.
 DE(Corr)= -0.75805929     E(CORR)=     -1355.1841289     Delta=-7.89D-07
 NORM(A)=   0.11532886D+01
 Iteration Nr.  12
 **********************
 DD1Dir will call FoFMem   1 times, MxPair=       156
 NAB=    78 NAA=     0 NBB=     0.
 DE(Corr)= -0.75805947     E(CORR)=     -1355.1841291     Delta=-1.83D-07
 NORM(A)=   0.11532894D+01
 Iteration Nr.  13
 **********************
 DD1Dir will call FoFMem   1 times, MxPair=       156
 NAB=    78 NAA=     0 NBB=     0.
 DE(Corr)= -0.75805979     E(CORR)=     -1355.1841294     Delta=-3.20D-07
 NORM(A)=   0.11532899D+01
 Iteration Nr.  14
 **********************
 DD1Dir will call FoFMem   1 times, MxPair=       156
 NAB=    78 NAA=     0 NBB=     0.
 DE(Corr)= -0.75805981     E(CORR)=     -1355.1841294     Delta=-1.97D-08
 NORM(A)=   0.11532901D+01
 Iteration Nr.  15
 **********************
 DD1Dir will call FoFMem   1 times, MxPair=       156
 NAB=    78 NAA=     0 NBB=     0.
 DE(Corr)= -0.75805987     E(CORR)=     -1355.1841295     Delta=-5.76D-08
 NORM(A)=   0.11532902D+01
 Iteration Nr.  16
 **********************
 DD1Dir will call FoFMem   1 times, MxPair=       156
 NAB=    78 NAA=     0 NBB=     0.
 DE(Corr)= -0.75805988     E(CORR)=     -1355.1841295     Delta=-1.14D-08
 NORM(A)=   0.11532902D+01
 Iteration Nr.  17
 **********************
 DD1Dir will call FoFMem   1 times, MxPair=       156
 NAB=    78 NAA=     0 NBB=     0.
 DE(Corr)= -0.75805988     E(CORR)=     -1355.1841295     Delta= 3.80D-09
 NORM(A)=   0.11532902D+01
 Wavefunction amplitudes converged. E(Corr)=     -1355.1841295    
 Largest amplitude= 8.72D-02

 Z-amplitude iterations

 Iteration Nr.   1
 **********************
 DD1Dir will call FoFMem   1 times, MxPair=       156
 NAB=    78 NAA=     0 NBB=     0.
 DE(Z)= -0.72628910     E(Z)=     -1355.1523587     Delta= 3.18D-02
 NORM(A)=   0.11532946D+01
 Iteration Nr.   2
 **********************
 DD1Dir will call FoFMem   1 times, MxPair=       156
 NAB=    78 NAA=     0 NBB=     0.
 DE(Z)= -0.72628922     E(Z)=     -1355.1523589     Delta=-1.21D-07
 NORM(A)=   0.11532833D+01
 Iteration Nr.   3
 **********************
 DD1Dir will call FoFMem   1 times, MxPair=       156
 NAB=    78 NAA=     0 NBB=     0.
 DE(Z)= -0.72628891     E(Z)=     -1355.1523585     Delta= 3.11D-07
 NORM(A)=   0.11532957D+01
 Iteration Nr.   4
 **********************
 DD1Dir will call FoFMem   1 times, MxPair=       156
 NAB=    78 NAA=     0 NBB=     0.
 DE(Z)= -0.72628926     E(Z)=     -1355.1523589     Delta=-3.48D-07
 NORM(A)=   0.11532863D+01
 Iteration Nr.   5
 **********************
 DD1Dir will call FoFMem   1 times, MxPair=       156
 NAB=    78 NAA=     0 NBB=     0.
 DE(Z)= -0.72628898     E(Z)=     -1355.1523586     Delta= 2.73D-07
 NORM(A)=   0.11401347D+01
 Iteration Nr.   6
 **********************
 DD1Dir will call FoFMem   1 times, MxPair=       156
 NAB=    78 NAA=     0 NBB=     0.
 DE(Z)= -0.72589129     E(Z)=     -1355.1519609     Delta= 3.98D-04
 NORM(A)=   0.11401147D+01
 Iteration Nr.   7
 **********************
 DD1Dir will call FoFMem   1 times, MxPair=       156
 NAB=    78 NAA=     0 NBB=     0.
 DE(Z)= -0.72589079     E(Z)=     -1355.1519604     Delta= 4.99D-07
 NORM(A)=   0.11401188D+01
 Iteration Nr.   8
 **********************
 DD1Dir will call FoFMem   1 times, MxPair=       156
 NAB=    78 NAA=     0 NBB=     0.
 DE(Z)= -0.72588981     E(Z)=     -1355.1519594     Delta= 9.85D-07
 NORM(A)=   0.11401167D+01
 Iteration Nr.   9
 **********************
 DD1Dir will call FoFMem   1 times, MxPair=       156
 NAB=    78 NAA=     0 NBB=     0.
 DE(Z)= -0.72589054     E(Z)=     -1355.1519602     Delta=-7.35D-07
 NORM(A)=   0.11401178D+01
 Iteration Nr.  10
 **********************
 DD1Dir will call FoFMem   1 times, MxPair=       156
 NAB=    78 NAA=     0 NBB=     0.
 DE(Z)= -0.72589054     E(Z)=     -1355.1519602     Delta= 2.13D-09
 NORM(A)=   0.11401181D+01
 Iteration Nr.  11
 **********************
 DD1Dir will call FoFMem   1 times, MxPair=       156
 NAB=    78 NAA=     0 NBB=     0.
 DE(Z)= -0.72589044     E(Z)=     -1355.1519601     Delta= 1.06D-07
 NORM(A)=   0.11401183D+01
 Iteration Nr.  12
 **********************
 DD1Dir will call FoFMem   1 times, MxPair=       156
 NAB=    78 NAA=     0 NBB=     0.
 DE(Z)= -0.72589052     E(Z)=     -1355.1519602     Delta=-8.88D-08
 NORM(A)=   0.11401183D+01
 Iteration Nr.  13
 **********************
 DD1Dir will call FoFMem   1 times, MxPair=       156
 NAB=    78 NAA=     0 NBB=     0.
 DE(Z)= -0.72589049     E(Z)=     -1355.1519601     Delta= 3.05D-08
 NORM(A)=   0.11401183D+01
 Iteration Nr.  14
 **********************
 DD1Dir will call FoFMem   1 times, MxPair=       156
 NAB=    78 NAA=     0 NBB=     0.
 DE(Z)= -0.72589051     E(Z)=     -1355.1519601     Delta=-1.96D-08
 NORM(A)=   0.11401183D+01
 Iteration Nr.  15
 **********************
 DD1Dir will call FoFMem   1 times, MxPair=       156
 NAB=    78 NAA=     0 NBB=     0.
 DE(Z)= -0.72589051     E(Z)=     -1355.1519601     Delta= 8.54D-09
 NORM(A)=   0.11401183D+01
 Z-amplitudes converged.
 Discarding MO integrals.
          Differentiating once with respect to electric field.
                with respect to dipole field.
          Electric field/nuclear overlap derivatives assumed to be zero.
 Keep R1 ints in memory in canonical form, NReq=194502085.
          There are     1 degrees of freedom in the 1st order CPHF.  IDoFFX=0 NUNeed=     1.
 LinEq1:  Iter=  0 NonCon=     1 RMS=2.08D-03 Max=6.33D-02 NDo=     1
 AX will form     1 AO Fock derivatives at one time.
 LinEq1:  Iter=  1 NonCon=     1 RMS=9.31D-04 Max=1.86D-02 NDo=     1
 LinEq1:  Iter=  2 NonCon=     1 RMS=4.08D-04 Max=9.99D-03 NDo=     1
 LinEq1:  Iter=  3 NonCon=     1 RMS=1.02D-04 Max=1.67D-03 NDo=     1
 LinEq1:  Iter=  4 NonCon=     1 RMS=2.25D-05 Max=6.30D-04 NDo=     1
 LinEq1:  Iter=  5 NonCon=     1 RMS=7.07D-06 Max=1.51D-04 NDo=     1
 LinEq1:  Iter=  6 NonCon=     1 RMS=2.06D-06 Max=7.74D-05 NDo=     1
 LinEq1:  Iter=  7 NonCon=     1 RMS=6.72D-07 Max=1.47D-05 NDo=     1
 LinEq1:  Iter=  8 NonCon=     1 RMS=1.28D-07 Max=1.92D-06 NDo=     1
 LinEq1:  Iter=  9 NonCon=     1 RMS=2.52D-08 Max=3.70D-07 NDo=     1
 LinEq1:  Iter= 10 NonCon=     1 RMS=6.75D-09 Max=1.74D-07 NDo=     1
 LinEq1:  Iter= 11 NonCon=     1 RMS=1.37D-09 Max=2.28D-08 NDo=     1
 LinEq1:  Iter= 12 NonCon=     1 RMS=3.11D-10 Max=5.30D-09 NDo=     1
 LinEq1:  Iter= 13 NonCon=     0 RMS=6.84D-11 Max=8.99D-10 NDo=     1
 Linear equations converged to 1.000D-10 1.000D-09 after    13 iterations.
 End of Minotr F.D. properties file   721 does not exist.
 End of Minotr F.D. properties file   722 does not exist.
 End of Minotr F.D. properties file   788 does not exist.

 **********************************************************************

            Population analysis using the CC Density.

 **********************************************************************

 Alpha  occ. eigenvalues -- -104.88651-104.88651 -91.97883 -11.44885 -10.61044
 Alpha  occ. eigenvalues --  -10.61043  -8.98217  -8.07719  -8.07719  -8.07510
 Alpha  occ. eigenvalues --   -8.07510  -8.07493  -8.07493  -6.66300  -6.66194
 Alpha  occ. eigenvalues --   -6.66044  -1.24118  -1.13177  -1.04373  -0.76998
 Alpha  occ. eigenvalues --   -0.64306  -0.60893  -0.58517  -0.50479  -0.49480
 Alpha  occ. eigenvalues --   -0.47605  -0.41004  -0.38205
 Alpha virt. eigenvalues --    0.01830   0.04854   0.06315   0.06922   0.10024
 Alpha virt. eigenvalues --    0.10042   0.10368   0.11246   0.11746   0.12881
 Alpha virt. eigenvalues --    0.15152   0.15301   0.16205   0.16368   0.16509
 Alpha virt. eigenvalues --    0.21152   0.21571   0.23284   0.26464   0.27053
 Alpha virt. eigenvalues --    0.28195   0.28994   0.30129   0.34401   0.34896
 Alpha virt. eigenvalues --    0.37852   0.38985   0.39858   0.40238   0.42242
 Alpha virt. eigenvalues --    0.44523   0.45349   0.45563   0.46320   0.48138
 Alpha virt. eigenvalues --    0.49080   0.50315   0.50799   0.53976   0.55247
 Alpha virt. eigenvalues --    0.56173   0.65382   0.65638   0.65707   0.71028
 Alpha virt. eigenvalues --    0.72486   0.72989   0.73884   0.73991   0.78598
 Alpha virt. eigenvalues --    0.79102   0.80226   0.80316   0.81591   0.83077
 Alpha virt. eigenvalues --    0.83353   0.86701   0.87501   0.88497   0.88671
 Alpha virt. eigenvalues --    0.91123   0.91853   0.92751   0.94750   0.95504
 Alpha virt. eigenvalues --    0.95834   0.97751   1.01879   1.03227   1.08055
 Alpha virt. eigenvalues --    1.11072   1.11358   1.12046   1.12937   1.18045
 Alpha virt. eigenvalues --    1.18592   1.20995   1.22869   1.28650   1.29525
 Alpha virt. eigenvalues --    1.31192   1.36112   1.39690   1.40270   1.47592
 Alpha virt. eigenvalues --    1.48785   1.52311   1.53265   1.53854   1.54791
 Alpha virt. eigenvalues --    1.61650   1.66377   1.68676   1.71151   1.71793
 Alpha virt. eigenvalues --    1.74955   1.82913   1.83500   1.85604   1.87379
 Alpha virt. eigenvalues --    1.87874   1.89918   1.98373   2.07047   2.07628
 Alpha virt. eigenvalues --    2.14167   2.17662   2.32119   2.32873   2.39120
 Alpha virt. eigenvalues --    2.39244   2.42842   2.44744   2.47489   2.47939
 Alpha virt. eigenvalues --    2.47974   2.53082   2.58241   2.58546   2.60027
 Alpha virt. eigenvalues --    2.60197   2.62464   2.64234   2.65107   2.65454
 Alpha virt. eigenvalues --    2.69783   2.83146   2.83701   2.87736   2.89753
 Alpha virt. eigenvalues --    2.91426   3.02833   3.03034   3.04960   3.05507
 Alpha virt. eigenvalues --    3.05570   3.07745   3.09629   3.13534   3.13808
 Alpha virt. eigenvalues --    3.14534   3.15024   3.19488   3.21813   3.23481
 Alpha virt. eigenvalues --    3.23672   3.36050   3.45519   3.54936   3.64278
 Alpha virt. eigenvalues --    3.69275   3.70438   3.72744   3.76637   3.83978
 Alpha virt. eigenvalues --    3.89867   3.90846   3.96672   4.13633   4.15235
 Alpha virt. eigenvalues --    4.20114   4.24995   4.71781   4.76181   6.48904
 Alpha virt. eigenvalues --    7.20760   7.25414   9.81643
          Condensed to atoms (all electrons):
               1          2          3          4
     1  C    5.661463   0.077501   0.077501   0.176374
     2  Cl   0.077501  17.192203  -0.120411  -0.129031
     3  Cl   0.077501  -0.120411  17.192203  -0.129031
     4  S    0.176374  -0.129031  -0.129031  16.048325
 Mulliken charges:
               1
     1  C    0.007161
     2  Cl  -0.020262
     3  Cl  -0.020262
     4  S    0.033364
 Sum of Mulliken charges =  -0.00000
 Mulliken charges with hydrogens summed into heavy atoms:
               1
     1  C    0.007161
     2  Cl  -0.020262
     3  Cl  -0.020262
     4  S    0.033364
 Electronic spatial extent (au):  <R**2>=            690.5122
 Charge=             -0.0000 electrons
 Dipole moment (field-independent basis, Debye):
    X=              0.0000    Y=              0.0000    Z=             -0.3499  Tot=              0.3499
 Quadrupole moment (field-independent basis, Debye-Ang):
   XX=            -43.1373   YY=            -43.3736   ZZ=            -42.5490
   XY=             -0.0000   XZ=             -0.0000   YZ=              0.0000
 Traceless Quadrupole moment (field-independent basis, Debye-Ang):
   XX=             -0.1173   YY=             -0.3537   ZZ=              0.4710
   XY=             -0.0000   XZ=             -0.0000   YZ=              0.0000
 Octapole moment (field-independent basis, Debye-Ang**2):
  XXX=             -0.0000  YYY=             -0.0000  ZZZ=             81.6988  XYY=              0.0000
  XXY=              0.0000  XXZ=             27.1786  XZZ=             -0.0000  YZZ=              0.0000
  YYZ=             19.1442  XYZ=              0.0000
 Hexadecapole moment (field-independent basis, Debye-Ang**3):
 XXXX=            -50.8336 YYYY=           -341.2728 ZZZZ=           -477.3129 XXXY=             -0.0000
 XXXZ=              0.0000 YYYX=             -0.0000 YYYZ=              0.0000 ZZZX=             -0.0000
 ZZZY=             -0.0000 XXYY=            -69.2909 XXZZ=            -89.6978 YYZZ=           -127.3857
 XXYZ=              0.0000 YYXZ=             -0.0000 ZZXY=             -0.0000
 N-N= 2.448886631331D+02 E-N=-3.713371489550D+03  KE= 1.355047303887D+03
 There are a total of       89716 grid points.
 ElSum from          density=       56.0000002488
 ElSum from atomic densities=       56.0000007507

 Hirshfeld populations at iteration   1 (CX, CA, CB, DipXYZ):
               1          2          3          4          5          6
     1  C    0.000001   2.959797   2.959797   0.000000   0.000000  -0.136994
     2  Cl   0.000016   8.506295   8.506295  -0.000000  -0.059014  -0.020875
     3  Cl   0.000016   8.506295   8.506295  -0.000000   0.059014  -0.020875
     4  S    0.000011   8.027613   8.027613   0.000000   0.000000   0.160491
       Tot   0.000044  28.000000  28.000000   0.000000  -0.000000  -0.018254

 Dip from Atomic Chgs              0.000000   0.000000  -0.119414
         Total Dipole              0.000000   0.000000  -0.137668

 Hirshfeld charges, spin densities, dipoles, and CM5 charges using IRadAn=      5:
              Q-H        S-H        Dx         Dy         Dz        Q-CM5   
     1  C    0.080406   0.000000   0.000000   0.000000  -0.136994   0.099286
     2  Cl  -0.012590   0.000000  -0.000000  -0.059014  -0.020875  -0.011119
     3  Cl  -0.012590   0.000000  -0.000000   0.059014  -0.020875  -0.011119
     4  S   -0.055225   0.000000   0.000000   0.000000   0.160491  -0.077048
       Tot  -0.000000   0.000000   0.000000  -0.000000  -0.018254  -0.000000
 Hirshfeld charges with hydrogens summed into heavy atoms:
              Q-H       Q-CM5   
     1  C    0.080406   0.099286
     2  Cl  -0.012590  -0.011119
     3  Cl  -0.012590  -0.011119
     4  S   -0.055225  -0.077048
 
 EQQ= 0.000000000000E+00 EQD= 0.000000000000E+00 EDD=-0.699933747051E-03
 EQQ+QD+DD=-0.699933747051E-03
 
 Breneman (CHELPG) radii used.
 Generate Potential Derived Charges using the Breneman model, NDens= 1.
 Grid spacing= 0.300 Box extension= 2.800
 NStep X,Y,Z=   20     30     29   Total possible points=       17400
 Number of Points to Fit=    4408

 **********************************************************************

            Electrostatic Properties Using The CC Density.

 **********************************************************************

       Atomic Center    1 is at   0.000000  0.000000 -0.512914
       Atomic Center    2 is at   0.000000 -1.430735 -1.500900
       Atomic Center    3 is at   0.000000  1.430735 -1.500900
       Atomic Center    4 is at   0.000000  0.000000  1.081815
    4408 points will be used for fitting atomic charges
 Fitting point charges to electrostatic potential
 The dipole moment will be constrained to the correct value
 Charges from ESP fit, RMS=   0.00697 RRMS=   0.94260:
 ESP charges:
               1
     1  C    0.127970
     2  Cl  -0.025405
     3  Cl  -0.025405
     4  S   -0.077160
 Sum of ESP charges =   0.00000
 ESP charges with hydrogens summed into heavy atoms:
               1
     1  C    0.127970
     2  Cl  -0.025405
     3  Cl  -0.025405
     4  S   -0.077160
 Charge=   0.00000 Dipole=     0.0000    -0.0000    -0.3499 Tot=     0.3499
 -----------------------------------------------------------------

              Electrostatic Properties (Atomic Units)

 -----------------------------------------------------------------
    Center     Electric         -------- Electric Field --------
               Potential          X             Y             Z
 -----------------------------------------------------------------
    1 Atom    -14.565100
    2 Atom    -64.378137
    3 Atom    -64.378137
    4 Atom    -59.209173
 -----------------------------------------------------------------
 ******************************Gaussian NBO Version 3.1******************************
             N A T U R A L   A T O M I C   O R B I T A L   A N D
          N A T U R A L   B O N D   O R B I T A L   A N A L Y S I S
 ******************************Gaussian NBO Version 3.1******************************
       /RESON  / : Allow strongly delocalized NBO set

 Analyzing the QCI/CC density

 Job title: cl2cs-wavefunction                                              

 Storage needed:    116194 in NPA (2147483536 available)
 GSVD:  LWork=        8166 too small for GESVD, short by       51245 words or       51245 for optimal perf.


 NATURAL POPULATIONS:  Natural atomic orbital occupancies 
                                                          
   NAO  Atom  No  lang   Type(AO)    Occupancy
 --------------------------------------------
     1    C    1  S      Cor( 1S)     1.99944
     2    C    1  S      Val( 2S)     1.16197
     3    C    1  S      Ryd( 3S)     0.00533
     4    C    1  S      Ryd( 4S)     0.00038
     5    C    1  S      Ryd( 5S)     0.00015
     6    C    1  px     Val( 2p)     1.02210
     7    C    1  px     Ryd( 3p)     0.00802
     8    C    1  px     Ryd( 4p)     0.00051
     9    C    1  px     Ryd( 5p)     0.00022
    10    C    1  py     Val( 2p)     0.95726
    11    C    1  py     Ryd( 3p)     0.02089
    12    C    1  py     Ryd( 5p)     0.00046
    13    C    1  py     Ryd( 4p)     0.00051
    14    C    1  pz     Val( 2p)     1.06688
    15    C    1  pz     Ryd( 3p)     0.02692
    16    C    1  pz     Ryd( 5p)     0.00036
    17    C    1  pz     Ryd( 4p)     0.00045
    18    C    1  dxy    Ryd( 3d)     0.01033
    19    C    1  dxy    Ryd( 4d)     0.00033
    20    C    1  dxy    Ryd( 5d)     0.00018
    21    C    1  dxz    Ryd( 3d)     0.01317
    22    C    1  dxz    Ryd( 4d)     0.00036
    23    C    1  dxz    Ryd( 5d)     0.00026
    24    C    1  dyz    Ryd( 3d)     0.01354
    25    C    1  dyz    Ryd( 4d)     0.00044
    26    C    1  dyz    Ryd( 5d)     0.00018
    27    C    1  dx2y2  Ryd( 3d)     0.00818
    28    C    1  dx2y2  Ryd( 4d)     0.00034
    29    C    1  dx2y2  Ryd( 5d)     0.00032
    30    C    1  dz2    Ryd( 3d)     0.01274
    31    C    1  dz2    Ryd( 4d)     0.00036
    32    C    1  dz2    Ryd( 5d)     0.00015
    33    C    1  f(0)   Ryd( 4f)     0.00489
    34    C    1  f(0)   Ryd( 5f)     0.00032
    35    C    1  f(C1)  Ryd( 4f)     0.00259
    36    C    1  f(C1)  Ryd( 5f)     0.00037
    37    C    1  f(S1)  Ryd( 4f)     0.00329
    38    C    1  f(S1)  Ryd( 5f)     0.00057
    39    C    1  f(C2)  Ryd( 4f)     0.00319
    40    C    1  f(C2)  Ryd( 5f)     0.00032
    41    C    1  f(S2)  Ryd( 4f)     0.00286
    42    C    1  f(S2)  Ryd( 5f)     0.00031
    43    C    1  f(C3)  Ryd( 4f)     0.00213
    44    C    1  f(C3)  Ryd( 5f)     0.00024
    45    C    1  f(S3)  Ryd( 4f)     0.00209
    46    C    1  f(S3)  Ryd( 5f)     0.00023

    47   Cl    2  S      Cor( 1S)     2.00000
    48   Cl    2  S      Cor( 2S)     1.99920
    49   Cl    2  S      Val( 3S)     1.81383
    50   Cl    2  S      Ryd( 4S)     0.00536
    51   Cl    2  S      Ryd( 5S)     0.00034
    52   Cl    2  S      Ryd( 6S)     0.00027
    53   Cl    2  px     Cor( 2p)     2.00002
    54   Cl    2  px     Val( 3p)     1.83941
    55   Cl    2  px     Ryd( 4p)     0.00885
    56   Cl    2  px     Ryd( 5p)     0.00052
    57   Cl    2  px     Ryd( 6p)     0.00010
    58   Cl    2  py     Cor( 2p)     1.99994
    59   Cl    2  py     Val( 3p)     1.43695
    60   Cl    2  py     Ryd( 4p)     0.00603
    61   Cl    2  py     Ryd( 5p)     0.00051
    62   Cl    2  py     Ryd( 6p)     0.00012
    63   Cl    2  pz     Cor( 2p)     1.99998
    64   Cl    2  pz     Val( 3p)     1.69216
    65   Cl    2  pz     Ryd( 4p)     0.00751
    66   Cl    2  pz     Ryd( 5p)     0.00050
    67   Cl    2  pz     Ryd( 6p)     0.00013
    68   Cl    2  dxy    Ryd( 3d)     0.01766
    69   Cl    2  dxy    Ryd( 4d)     0.00050
    70   Cl    2  dxy    Ryd( 5d)     0.00012
    71   Cl    2  dxz    Ryd( 3d)     0.01838
    72   Cl    2  dxz    Ryd( 4d)     0.00062
    73   Cl    2  dxz    Ryd( 5d)     0.00013
    74   Cl    2  dyz    Ryd( 3d)     0.02250
    75   Cl    2  dyz    Ryd( 4d)     0.00046
    76   Cl    2  dyz    Ryd( 5d)     0.00014
    77   Cl    2  dx2y2  Ryd( 3d)     0.01957
    78   Cl    2  dx2y2  Ryd( 4d)     0.00052
    79   Cl    2  dx2y2  Ryd( 5d)     0.00012
    80   Cl    2  dz2    Ryd( 3d)     0.01700
    81   Cl    2  dz2    Ryd( 4d)     0.00050
    82   Cl    2  dz2    Ryd( 5d)     0.00018
    83   Cl    2  f(0)   Ryd( 4f)     0.00131
    84   Cl    2  f(0)   Ryd( 5f)     0.00014
    85   Cl    2  f(C1)  Ryd( 4f)     0.00134
    86   Cl    2  f(C1)  Ryd( 5f)     0.00013
    87   Cl    2  f(S1)  Ryd( 4f)     0.00129
    88   Cl    2  f(S1)  Ryd( 5f)     0.00018
    89   Cl    2  f(C2)  Ryd( 4f)     0.00152
    90   Cl    2  f(C2)  Ryd( 5f)     0.00015
    91   Cl    2  f(S2)  Ryd( 4f)     0.00134
    92   Cl    2  f(S2)  Ryd( 5f)     0.00015
    93   Cl    2  f(C3)  Ryd( 4f)     0.00132
    94   Cl    2  f(C3)  Ryd( 5f)     0.00015
    95   Cl    2  f(S3)  Ryd( 4f)     0.00133
    96   Cl    2  f(S3)  Ryd( 5f)     0.00016

    97   Cl    3  S      Cor( 1S)     2.00000
    98   Cl    3  S      Cor( 2S)     1.99920
    99   Cl    3  S      Val( 3S)     1.81383
   100   Cl    3  S      Ryd( 4S)     0.00536
   101   Cl    3  S      Ryd( 5S)     0.00034
   102   Cl    3  S      Ryd( 6S)     0.00027
   103   Cl    3  px     Cor( 2p)     2.00002
   104   Cl    3  px     Val( 3p)     1.83941
   105   Cl    3  px     Ryd( 4p)     0.00885
   106   Cl    3  px     Ryd( 5p)     0.00052
   107   Cl    3  px     Ryd( 6p)     0.00010
   108   Cl    3  py     Cor( 2p)     1.99994
   109   Cl    3  py     Val( 3p)     1.43695
   110   Cl    3  py     Ryd( 4p)     0.00603
   111   Cl    3  py     Ryd( 5p)     0.00051
   112   Cl    3  py     Ryd( 6p)     0.00012
   113   Cl    3  pz     Cor( 2p)     1.99998
   114   Cl    3  pz     Val( 3p)     1.69216
   115   Cl    3  pz     Ryd( 4p)     0.00751
   116   Cl    3  pz     Ryd( 5p)     0.00050
   117   Cl    3  pz     Ryd( 6p)     0.00013
   118   Cl    3  dxy    Ryd( 3d)     0.01766
   119   Cl    3  dxy    Ryd( 4d)     0.00050
   120   Cl    3  dxy    Ryd( 5d)     0.00012
   121   Cl    3  dxz    Ryd( 3d)     0.01838
   122   Cl    3  dxz    Ryd( 4d)     0.00062
   123   Cl    3  dxz    Ryd( 5d)     0.00013
   124   Cl    3  dyz    Ryd( 3d)     0.02250
   125   Cl    3  dyz    Ryd( 4d)     0.00046
   126   Cl    3  dyz    Ryd( 5d)     0.00014
   127   Cl    3  dx2y2  Ryd( 3d)     0.01957
   128   Cl    3  dx2y2  Ryd( 4d)     0.00052
   129   Cl    3  dx2y2  Ryd( 5d)     0.00012
   130   Cl    3  dz2    Ryd( 3d)     0.01700
   131   Cl    3  dz2    Ryd( 4d)     0.00050
   132   Cl    3  dz2    Ryd( 5d)     0.00018
   133   Cl    3  f(0)   Ryd( 4f)     0.00131
   134   Cl    3  f(0)   Ryd( 5f)     0.00014
   135   Cl    3  f(C1)  Ryd( 4f)     0.00134
   136   Cl    3  f(C1)  Ryd( 5f)     0.00013
   137   Cl    3  f(S1)  Ryd( 4f)     0.00129
   138   Cl    3  f(S1)  Ryd( 5f)     0.00018
   139   Cl    3  f(C2)  Ryd( 4f)     0.00152
   140   Cl    3  f(C2)  Ryd( 5f)     0.00015
   141   Cl    3  f(S2)  Ryd( 4f)     0.00134
   142   Cl    3  f(S2)  Ryd( 5f)     0.00015
   143   Cl    3  f(C3)  Ryd( 4f)     0.00132
   144   Cl    3  f(C3)  Ryd( 5f)     0.00015
   145   Cl    3  f(S3)  Ryd( 4f)     0.00133
   146   Cl    3  f(S3)  Ryd( 5f)     0.00016

   147    S    4  S      Cor( 1S)     2.00000
   148    S    4  S      Cor( 2S)     1.99836
   149    S    4  S      Val( 3S)     1.70038
   150    S    4  S      Ryd( 4S)     0.00859
   151    S    4  S      Ryd( 5S)     0.00039
   152    S    4  S      Ryd( 6S)     0.00023
   153    S    4  px     Cor( 2p)     1.99989
   154    S    4  px     Val( 3p)     1.15371
   155    S    4  px     Ryd( 4p)     0.00475
   156    S    4  px     Ryd( 5p)     0.00032
   157    S    4  px     Ryd( 6p)     0.00011
   158    S    4  py     Cor( 2p)     2.00000
   159    S    4  py     Val( 3p)     1.77310
   160    S    4  py     Ryd( 4p)     0.01026
   161    S    4  py     Ryd( 5p)     0.00046
   162    S    4  py     Ryd( 6p)     0.00014
   163    S    4  pz     Cor( 2p)     1.99964
   164    S    4  pz     Val( 3p)     1.05046
   165    S    4  pz     Ryd( 4p)     0.00515
   166    S    4  pz     Ryd( 5p)     0.00047
   167    S    4  pz     Ryd( 6p)     0.00009
   168    S    4  dxy    Ryd( 3d)     0.01608
   169    S    4  dxy    Ryd( 4d)     0.00052
   170    S    4  dxy    Ryd( 5d)     0.00009
   171    S    4  dxz    Ryd( 3d)     0.01710
   172    S    4  dxz    Ryd( 4d)     0.00035
   173    S    4  dxz    Ryd( 5d)     0.00008
   174    S    4  dyz    Ryd( 3d)     0.01397
   175    S    4  dyz    Ryd( 4d)     0.00036
   176    S    4  dyz    Ryd( 5d)     0.00029
   177    S    4  dx2y2  Ryd( 3d)     0.01560
   178    S    4  dx2y2  Ryd( 4d)     0.00054
   179    S    4  dx2y2  Ryd( 5d)     0.00010
   180    S    4  dz2    Ryd( 3d)     0.02161
   181    S    4  dz2    Ryd( 4d)     0.00041
   182    S    4  dz2    Ryd( 5d)     0.00009
   183    S    4  f(0)   Ryd( 4f)     0.00121
   184    S    4  f(0)   Ryd( 5f)     0.00021
   185    S    4  f(C1)  Ryd( 4f)     0.00094
   186    S    4  f(C1)  Ryd( 5f)     0.00016
   187    S    4  f(S1)  Ryd( 4f)     0.00109
   188    S    4  f(S1)  Ryd( 5f)     0.00016
   189    S    4  f(C2)  Ryd( 4f)     0.00090
   190    S    4  f(C2)  Ryd( 5f)     0.00014
   191    S    4  f(S2)  Ryd( 4f)     0.00094
   192    S    4  f(S2)  Ryd( 5f)     0.00012
   193    S    4  f(C3)  Ryd( 4f)     0.00135
   194    S    4  f(C3)  Ryd( 5f)     0.00013
   195    S    4  f(S3)  Ryd( 4f)     0.00135
   196    S    4  f(S3)  Ryd( 5f)     0.00013

 WARNING:  1 low occupancy (<1.9990e) core orbital  found on  S    4


 Summary of Natural Population Analysis:                  
                                                          
                                       Natural Population 
                Natural  -----------------------------------------------
    Atom  No    Charge         Core      Valence    Rydberg      Total
 -----------------------------------------------------------------------
      C    1   -0.35615      1.99944     4.20821    0.14849     6.35615
     Cl    2    0.07934      9.99914     6.78235    0.13917    16.92066
     Cl    3    0.07934      9.99914     6.78235    0.13917    16.92066
      S    4    0.19746      9.99788     5.67766    0.12700    15.80254
 =======================================================================
   * Total *   -0.00000     31.99560    23.45056    0.55384    56.00000

                                 Natural Population      
 --------------------------------------------------------
   Core                      31.99560 ( 99.9862% of  32)
   Valence                   23.45056 ( 97.7107% of  24)
   Natural Minimal Basis     55.44616 ( 99.0110% of  56)
   Natural Rydberg Basis      0.55384 (  0.9890% of  56)
 --------------------------------------------------------

    Atom  No          Natural Electron Configuration
 ----------------------------------------------------------------------------
      C    1      [core]2S( 1.16)2p( 3.05)3S( 0.01)3p( 0.06)3d( 0.06)4f( 0.02)
     Cl    2      [core]3S( 1.81)3p( 4.97)4S( 0.01)3d( 0.10)4p( 0.02)4f( 0.01)
     Cl    3      [core]3S( 1.81)3p( 4.97)4S( 0.01)3d( 0.10)4p( 0.02)4f( 0.01)
      S    4      [core]3S( 1.70)3p( 3.98)4S( 0.01)3d( 0.08)4p( 0.02)4f( 0.01)


 NBO analysis skipped by request.
 Unable to Open any file for archive entry.
 1\1\GINC-TRAPISTA\SP\RQCISD-FC\Aug-CC-pVTZ\C1Cl2S1\WAGNER\04-Sep-2022\
 0\\# qcisd/aug-cc-pvtz nosymm density=current pop=(chelpg,hirshfeld,np
 a,dipole)\\cl2cs-wavefunction\\0,1\C,0,0.,0.,-0.512914\Cl,0,0.,-1.4307
 35,-1.5009\Cl,0,0.,1.430735,-1.5009\S,0,0.,0.,1.081815\\Version=EM64L-
 G16RevC.01\HF=-1354.4260696\MP2=-1355.1502694\MP3=-1355.1829465\MP4D=-
 1355.2046922\MP4DQ=-1355.1798464\MP4SDQ=-1355.1866212\QCISD=-1355.1841
 295\RMSD=8.353e-09\Dipole=0.,0.,-0.1376682\Quadrupole=-0.0872236,-0.26
 29384,0.3501621,0.,0.,0.\PG=C02V [C2(C1S1),SGV(Cl2)]\\@
 The archive entry for this job was punched.


 ... FOR AFTERWARDS A MAN FINDS PLEASURE IN HIS PAINS,
 WHEN HE HAS SUFFERED LONG AND WANDERED FAR.

                                    -- HOMER
 Job cpu time:       0 days  7 hours 21 minutes 15.7 seconds.
 Elapsed time:       0 days  0 hours 27 minutes 55.8 seconds.
 File lengths (MBytes):  RWF=  23427 Int=      0 D2E=      0 Chk=      4 Scr=      1
 Normal termination of Gaussian 16 at Sun Sep  4 09:04:56 2022.
