 Entering Gaussian System, Link 0=/home/wagner/chemistry/gaussian/g16/g16
 Input=GAUSSIAN.com
 Output=GAUSSIAN.log
 Initial command:
 /home/wagner/chemistry/gaussian/g16/l1.exe "/home/wagner/chemistry/gaussian/work/Gau-42833.inp" -scrdir="/home/wagner/chemistry/gaussian/work/"
 Entering Link 1 = /home/wagner/chemistry/gaussian/g16/l1.exe PID=     42835.
  
 Copyright (c) 1988-2019, Gaussian, Inc.  All Rights Reserved.
  
 This is part of the Gaussian(R) 16 program.  It is based on
 the Gaussian(R) 09 system (copyright 2009, Gaussian, Inc.),
 the Gaussian(R) 03 system (copyright 2003, Gaussian, Inc.),
 the Gaussian(R) 98 system (copyright 1998, Gaussian, Inc.),
 the Gaussian(R) 94 system (copyright 1995, Gaussian, Inc.),
 the Gaussian 92(TM) system (copyright 1992, Gaussian, Inc.),
 the Gaussian 90(TM) system (copyright 1990, Gaussian, Inc.),
 the Gaussian 88(TM) system (copyright 1988, Gaussian, Inc.),
 the Gaussian 86(TM) system (copyright 1986, Carnegie Mellon
 University), and the Gaussian 82(TM) system (copyright 1983,
 Carnegie Mellon University). Gaussian is a federally registered
 trademark of Gaussian, Inc.
  
 This software contains proprietary and confidential information,
 including trade secrets, belonging to Gaussian, Inc.
  
 This software is provided under written license and may be
 used, copied, transmitted, or stored only in accord with that
 written license.
  
 The following legend is applicable only to US Government
 contracts under FAR:
  
                    RESTRICTED RIGHTS LEGEND
  
 Use, reproduction and disclosure by the US Government is
 subject to restrictions as set forth in subparagraphs (a)
 and (c) of the Commercial Computer Software - Restricted
 Rights clause in FAR 52.227-19.
  
 Gaussian, Inc.
 340 Quinnipiac St., Bldg. 40, Wallingford CT 06492
  
  
 ---------------------------------------------------------------
 Warning -- This program may not be used in any manner that
 competes with the business of Gaussian, Inc. or will provide
 assistance to any competitor of Gaussian, Inc.  The licensee
 of this program is prohibited from giving any competitor of
 Gaussian, Inc. access to this program.  By using this program,
 the user acknowledges that Gaussian, Inc. is engaged in the
 business of creating and licensing software in the field of
 computational chemistry and represents and warrants to the
 licensee that it is not a competitor of Gaussian, Inc. and that
 it will not use this program in any manner prohibited above.
 ---------------------------------------------------------------
  

 Cite this work as:
 Gaussian 16, Revision C.01,
 M. J. Frisch, G. W. Trucks, H. B. Schlegel, G. E. Scuseria, 
 M. A. Robb, J. R. Cheeseman, G. Scalmani, V. Barone, 
 G. A. Petersson, H. Nakatsuji, X. Li, M. Caricato, A. V. Marenich, 
 J. Bloino, B. G. Janesko, R. Gomperts, B. Mennucci, H. P. Hratchian, 
 J. V. Ortiz, A. F. Izmaylov, J. L. Sonnenberg, D. Williams-Young, 
 F. Ding, F. Lipparini, F. Egidi, J. Goings, B. Peng, A. Petrone, 
 T. Henderson, D. Ranasinghe, V. G. Zakrzewski, J. Gao, N. Rega, 
 G. Zheng, W. Liang, M. Hada, M. Ehara, K. Toyota, R. Fukuda, 
 J. Hasegawa, M. Ishida, T. Nakajima, Y. Honda, O. Kitao, H. Nakai, 
 T. Vreven, K. Throssell, J. A. Montgomery, Jr., J. E. Peralta, 
 F. Ogliaro, M. J. Bearpark, J. J. Heyd, E. N. Brothers, K. N. Kudin, 
 V. N. Staroverov, T. A. Keith, R. Kobayashi, J. Normand, 
 K. Raghavachari, A. P. Rendell, J. C. Burant, S. S. Iyengar, 
 J. Tomasi, M. Cossi, J. M. Millam, M. Klene, C. Adamo, R. Cammi, 
 J. W. Ochterski, R. L. Martin, K. Morokuma, O. Farkas, 
 J. B. Foresman, and D. J. Fox, Gaussian, Inc., Wallingford CT, 2019.
 
 ******************************************
 Gaussian 16:  EM64L-G16RevC.01  3-Jul-2019
                 4-Sep-2022 
 ******************************************
 %nproc=16
 Will use up to   16 processors via shared memory.
 %mem=16GB
 ----------------------------------------------------------------------
 # qcisd/aug-cc-pvtz nosymm density=current pop=(chelpg,hirshfeld,npa,d
 ipole)
 ----------------------------------------------------------------------
 1/30=1,38=1,172=1/1;
 2/12=2,15=1,17=6,18=5,40=1/2;
 3/5=16,6=1,7=10,11=9,25=1,30=1,71=1/1,2,3;
 4//1;
 5/5=2,38=5/2;
 8/6=4,9=120000,10=1/1,4;
 9/5=8,15=1/13;
 11/28=-7,31=1,32=3,42=3/11;
 10/5=6,13=10,31=1/2;
 6/7=2,8=2,9=2,10=2,15=24,20=3,22=-1,40=-1,79=1/1,2,7;
 99/5=1,9=1/99;
 ------------------
 cl2cs-wavefunction
 ------------------
 Symbolic Z-matrix:
 Charge =  0 Multiplicity = 1
 C                     0.        0.       -0.53291 
 Cl                    0.       -1.43074  -1.5009 
 Cl                    0.        1.43074  -1.5009 
 S                     0.        0.        1.08181 
 
                          Input orientation:                          
 ---------------------------------------------------------------------
 Center     Atomic      Atomic             Coordinates (Angstroms)
 Number     Number       Type             X           Y           Z
 ---------------------------------------------------------------------
      1          6           0        0.000000    0.000000   -0.532914
      2         17           0        0.000000   -1.430735   -1.500900
      3         17           0        0.000000    1.430735   -1.500900
      4         16           0        0.000000    0.000000    1.081815
 ---------------------------------------------------------------------
                    Distance matrix (angstroms):
                    1          2          3          4
     1  C    0.000000
     2  Cl   1.727426   0.000000
     3  Cl   1.727426   2.861470   0.000000
     4  S    1.614729   2.952528   2.952528   0.000000
 Symmetry turned off by external request.
 Stoichiometry    CCl2S
 Framework group  C2V[C2(CS),SGV(Cl2)]
 Deg. of freedom     3
 Full point group                 C2V     NOp   4
 Rotational constants (GHZ):           3.5301033           3.4467220           1.7439572
 Standard basis: Aug-CC-pVTZ (5D, 7F)
   196 basis functions,   414 primitive gaussians,   232 cartesian basis functions
    28 alpha electrons       28 beta electrons
       nuclear repulsion energy       244.8997502976 Hartrees.
 NAtoms=    4 NActive=    4 NUniq=    4 SFac= 1.00D+00 NAtFMM=   60 NAOKFM=F Big=F
 Integral buffers will be    131072 words long.
 Raffenetti 1 integral format.
 Two-electron integral symmetry is turned off.
 One-electron integrals computed using PRISM.
 NBasis=   196 RedAO= T EigKep=  9.19D-05  NBF=   196
 NBsUse=   196 1.00D-06 EigRej= -1.00D+00 NBFU=   196
 ExpMin= 3.51D-02 ExpMax= 4.56D+05 ExpMxC= 1.44D+03 IAcc=3 IRadAn=         5 AccDes= 0.00D+00
 Harris functional with IExCor=  205 and IRadAn=       5 diagonalized for initial guess.
 HarFok:  IExCor=  205 AccDes= 0.00D+00 IRadAn=         5 IDoV= 1 UseB2=F ITyADJ=14
 ICtDFT=  3500011 ScaDFX=  1.000000  1.000000  1.000000  1.000000
 FoFCou: FMM=F IPFlag=           0 FMFlag=      100000 FMFlg1=           0
         NFxFlg=           0 DoJE=T BraDBF=F KetDBF=T FulRan=T
         wScrn=  0.000000 ICntrl=       500 IOpCl=  0 I1Cent=   200000004 NGrid=           0
         NMat0=    1 NMatS0=      1 NMatT0=    0 NMatD0=    1 NMtDS0=    0 NMtDT0=    0
 Symmetry not used in FoFCou.
 Keep R1 ints in memory in canonical form, NReq=194496737.
 Requested convergence on RMS density matrix=1.00D-08 within 128 cycles.
 Requested convergence on MAX density matrix=1.00D-06.
 Requested convergence on             energy=1.00D-06.
 No special actions if energy rises.
 SCF Done:  E(RHF) =  -1354.42579027     A.U. after   12 cycles
            NFock= 12  Conv=0.91D-08     -V/T= 2.0001
 ExpMin= 3.51D-02 ExpMax= 4.56D+05 ExpMxC= 1.44D+03 IAcc=3 IRadAn=         5 AccDes= 0.00D+00
 HarFok:  IExCor=  205 AccDes= 0.00D+00 IRadAn=         5 IDoV=-2 UseB2=F ITyADJ=14
 ICtDFT= 12500011 ScaDFX=  1.000000  1.000000  1.000000  1.000000
 Range of M.O.s used for correlation:    17   196
 NBasis=   196 NAE=    28 NBE=    28 NFC=    16 NFV=     0
 NROrb=    180 NOA=    12 NOB=    12 NVA=   168 NVB=   168

 **** Warning!!: The largest alpha MO coefficient is  0.31558057D+02

 Semi-Direct transformation.
 ModeAB=           2 MOrb=            12 LenV=    2146408893
 LASXX=     33405819 LTotXX=    33405819 LenRXX=    33405819
 LTotAB=    33954012 MaxLAS=    58380480 LenRXY=    58380480
 NonZer=    66811638 LenScr=   100987392 LnRSAI=           0
 LnScr1=           0 LExtra=           0 Total=    192773691
 MaxDsk=          -1 SrtSym=           F ITran=            4
 JobTyp=0 Pass  1:  I=   1 to  12.
 (rs|ai) integrals will be sorted in core.
 Spin components of T(2) and E(2):
     alpha-alpha T2 =       0.3956859854D-01 E2=     -0.9369484750D-01
     alpha-beta  T2 =       0.2074731916D+00 E2=     -0.5371671318D+00
     beta-beta   T2 =       0.3956859854D-01 E2=     -0.9369484750D-01
 ANorm=    0.1134288494D+01
 E2 =    -0.7245568268D+00 EUMP2 =    -0.13551503470959D+04
 Keep R2 and R3 ints in memory in canonical form, NReq=380876040.
 CIDS: In Core Option IDoMem=           1.
 Iterations=  50 Convergence= 0.100D-07
 Produce multiple copies of IABC intergrals
 Iteration Nr.   1
 **********************
 DD1Dir will call FoFMem   1 times, MxPair=       156
 NAB=    78 NAA=     0 NBB=     0.
 MP4(R+Q)=  0.24928546D-01
 E3=       -0.32519430D-01        EUMP3=      -0.13551828665D+04
 E4(DQ)=    0.31150161D-02        UMP4(DQ)=   -0.13551797515D+04
 E4(SDQ)=  -0.37591765D-02        UMP4(SDQ)=  -0.13551866257D+04
 DE(Corr)= -0.73214771     E(Corr)=     -1355.1579380    
 NORM(A)=   0.11381802D+01
 Iteration Nr.   2
 **********************
 DD1Dir will call FoFMem   1 times, MxPair=       156
 NAB=    78 NAA=     0 NBB=     0.
 DE(Corr)= -0.75657256     E(CORR)=     -1355.1823628     Delta=-2.44D-02
 NORM(A)=   0.11492252D+01
 Iteration Nr.   3
 **********************
 DD1Dir will call FoFMem   1 times, MxPair=       156
 NAB=    78 NAA=     0 NBB=     0.
 DE(Corr)= -0.75572664     E(CORR)=     -1355.1815169     Delta= 8.46D-04
 NORM(A)=   0.11520150D+01
 Iteration Nr.   4
 **********************
 DD1Dir will call FoFMem   1 times, MxPair=       156
 NAB=    78 NAA=     0 NBB=     0.
 DE(Corr)= -0.75801062     E(CORR)=     -1355.1838009     Delta=-2.28D-03
 NORM(A)=   0.11531230D+01
 Iteration Nr.   5
 **********************
 DD1Dir will call FoFMem   1 times, MxPair=       156
 NAB=    78 NAA=     0 NBB=     0.
 DE(Corr)= -0.75829508     E(CORR)=     -1355.1840853     Delta=-2.84D-04
 NORM(A)=   0.11536802D+01
 Iteration Nr.   6
 **********************
 DD1Dir will call FoFMem   1 times, MxPair=       156
 NAB=    78 NAA=     0 NBB=     0.
 DE(Corr)= -0.75834948     E(CORR)=     -1355.1841398     Delta=-5.44D-05
 NORM(A)=   0.11537472D+01
 Iteration Nr.   7
 **********************
 DD1Dir will call FoFMem   1 times, MxPair=       156
 NAB=    78 NAA=     0 NBB=     0.
 DE(Corr)= -0.75835704     E(CORR)=     -1355.1841473     Delta=-7.56D-06
 NORM(A)=   0.11537523D+01
 Iteration Nr.   8
 **********************
 DD1Dir will call FoFMem   1 times, MxPair=       156
 NAB=    78 NAA=     0 NBB=     0.
 DE(Corr)= -0.75835526     E(CORR)=     -1355.1841455     Delta= 1.78D-06
 NORM(A)=   0.11537592D+01
 Iteration Nr.   9
 **********************
 DD1Dir will call FoFMem   1 times, MxPair=       156
 NAB=    78 NAA=     0 NBB=     0.
 DE(Corr)= -0.75835510     E(CORR)=     -1355.1841454     Delta= 1.65D-07
 NORM(A)=   0.11537578D+01
 Iteration Nr.  10
 **********************
 DD1Dir will call FoFMem   1 times, MxPair=       156
 NAB=    78 NAA=     0 NBB=     0.
 DE(Corr)= -0.75835617     E(CORR)=     -1355.1841464     Delta=-1.07D-06
 NORM(A)=   0.11537596D+01
 Iteration Nr.  11
 **********************
 DD1Dir will call FoFMem   1 times, MxPair=       156
 NAB=    78 NAA=     0 NBB=     0.
 DE(Corr)= -0.75835684     E(CORR)=     -1355.1841471     Delta=-6.71D-07
 NORM(A)=   0.11537606D+01
 Iteration Nr.  12
 **********************
 DD1Dir will call FoFMem   1 times, MxPair=       156
 NAB=    78 NAA=     0 NBB=     0.
 DE(Corr)= -0.75835709     E(CORR)=     -1355.1841474     Delta=-2.46D-07
 NORM(A)=   0.11537614D+01
 Iteration Nr.  13
 **********************
 DD1Dir will call FoFMem   1 times, MxPair=       156
 NAB=    78 NAA=     0 NBB=     0.
 DE(Corr)= -0.75835738     E(CORR)=     -1355.1841477     Delta=-2.97D-07
 NORM(A)=   0.11537619D+01
 Iteration Nr.  14
 **********************
 DD1Dir will call FoFMem   1 times, MxPair=       156
 NAB=    78 NAA=     0 NBB=     0.
 DE(Corr)= -0.75835741     E(CORR)=     -1355.1841477     Delta=-2.97D-08
 NORM(A)=   0.11537621D+01
 Iteration Nr.  15
 **********************
 DD1Dir will call FoFMem   1 times, MxPair=       156
 NAB=    78 NAA=     0 NBB=     0.
 DE(Corr)= -0.75835747     E(CORR)=     -1355.1841477     Delta=-5.91D-08
 NORM(A)=   0.11537622D+01
 Iteration Nr.  16
 **********************
 DD1Dir will call FoFMem   1 times, MxPair=       156
 NAB=    78 NAA=     0 NBB=     0.
 DE(Corr)= -0.75835748     E(CORR)=     -1355.1841478     Delta=-1.17D-08
 NORM(A)=   0.11537623D+01
 Iteration Nr.  17
 **********************
 DD1Dir will call FoFMem   1 times, MxPair=       156
 NAB=    78 NAA=     0 NBB=     0.
 DE(Corr)= -0.75835748     E(CORR)=     -1355.1841478     Delta= 8.24D-10
 NORM(A)=   0.11537623D+01
 Wavefunction amplitudes converged. E(Corr)=     -1355.1841478    
 Largest amplitude= 9.09D-02

 Z-amplitude iterations

 Iteration Nr.   1
 **********************
 DD1Dir will call FoFMem   1 times, MxPair=       156
 NAB=    78 NAA=     0 NBB=     0.
 DE(Z)= -0.72643315     E(Z)=     -1355.1522234     Delta= 3.19D-02
 NORM(A)=   0.11537670D+01
 Iteration Nr.   2
 **********************
 DD1Dir will call FoFMem   1 times, MxPair=       156
 NAB=    78 NAA=     0 NBB=     0.
 DE(Z)= -0.72643327     E(Z)=     -1355.1522235     Delta=-1.19D-07
 NORM(A)=   0.11537606D+01
 Iteration Nr.   3
 **********************
 DD1Dir will call FoFMem   1 times, MxPair=       156
 NAB=    78 NAA=     0 NBB=     0.
 DE(Z)= -0.72643311     E(Z)=     -1355.1522234     Delta= 1.61D-07
 NORM(A)=   0.11537633D+01
 Iteration Nr.   4
 **********************
 DD1Dir will call FoFMem   1 times, MxPair=       156
 NAB=    78 NAA=     0 NBB=     0.
 DE(Z)= -0.72643318     E(Z)=     -1355.1522234     Delta=-6.79D-08
 NORM(A)=   0.11537639D+01
 Iteration Nr.   5
 **********************
 DD1Dir will call FoFMem   1 times, MxPair=       156
 NAB=    78 NAA=     0 NBB=     0.
 DE(Z)= -0.72643320     E(Z)=     -1355.1522235     Delta=-1.78D-08
 NORM(A)=   0.11405097D+01
 Iteration Nr.   6
 **********************
 DD1Dir will call FoFMem   1 times, MxPair=       156
 NAB=    78 NAA=     0 NBB=     0.
 DE(Z)= -0.72606871     E(Z)=     -1355.1518590     Delta= 3.64D-04
 NORM(A)=   0.11404662D+01
 Iteration Nr.   7
 **********************
 DD1Dir will call FoFMem   1 times, MxPair=       156
 NAB=    78 NAA=     0 NBB=     0.
 DE(Z)= -0.72605863     E(Z)=     -1355.1518489     Delta= 1.01D-05
 NORM(A)=   0.11404526D+01
 Iteration Nr.   8
 **********************
 DD1Dir will call FoFMem   1 times, MxPair=       156
 NAB=    78 NAA=     0 NBB=     0.
 DE(Z)= -0.72606051     E(Z)=     -1355.1518508     Delta=-1.87D-06
 NORM(A)=   0.11404496D+01
 Iteration Nr.   9
 **********************
 DD1Dir will call FoFMem   1 times, MxPair=       156
 NAB=    78 NAA=     0 NBB=     0.
 DE(Z)= -0.72605843     E(Z)=     -1355.1518487     Delta= 2.07D-06
 NORM(A)=   0.11404504D+01
 Iteration Nr.  10
 **********************
 DD1Dir will call FoFMem   1 times, MxPair=       156
 NAB=    78 NAA=     0 NBB=     0.
 DE(Z)= -0.72605948     E(Z)=     -1355.1518497     Delta=-1.04D-06
 NORM(A)=   0.11404514D+01
 Iteration Nr.  11
 **********************
 DD1Dir will call FoFMem   1 times, MxPair=       156
 NAB=    78 NAA=     0 NBB=     0.
 DE(Z)= -0.72605943     E(Z)=     -1355.1518497     Delta= 4.97D-08
 NORM(A)=   0.11404516D+01
 Iteration Nr.  12
 **********************
 DD1Dir will call FoFMem   1 times, MxPair=       156
 NAB=    78 NAA=     0 NBB=     0.
 DE(Z)= -0.72605937     E(Z)=     -1355.1518496     Delta= 5.33D-08
 NORM(A)=   0.11404517D+01
 Iteration Nr.  13
 **********************
 DD1Dir will call FoFMem   1 times, MxPair=       156
 NAB=    78 NAA=     0 NBB=     0.
 DE(Z)= -0.72605946     E(Z)=     -1355.1518497     Delta=-8.29D-08
 NORM(A)=   0.11404517D+01
 Iteration Nr.  14
 **********************
 DD1Dir will call FoFMem   1 times, MxPair=       156
 NAB=    78 NAA=     0 NBB=     0.
 DE(Z)= -0.72605937     E(Z)=     -1355.1518496     Delta= 8.62D-08
 NORM(A)=   0.11404517D+01
 Iteration Nr.  15
 **********************
 DD1Dir will call FoFMem   1 times, MxPair=       156
 NAB=    78 NAA=     0 NBB=     0.
 DE(Z)= -0.72605940     E(Z)=     -1355.1518497     Delta=-2.51D-08
 NORM(A)=   0.11404517D+01
 Iteration Nr.  16
 **********************
 DD1Dir will call FoFMem   1 times, MxPair=       156
 NAB=    78 NAA=     0 NBB=     0.
 DE(Z)= -0.72605938     E(Z)=     -1355.1518497     Delta= 1.23D-08
 NORM(A)=   0.11404516D+01
 Iteration Nr.  17
 **********************
 DD1Dir will call FoFMem   1 times, MxPair=       156
 NAB=    78 NAA=     0 NBB=     0.
 DE(Z)= -0.72605938     E(Z)=     -1355.1518497     Delta=-1.56D-09
 NORM(A)=   0.11404516D+01
 Z-amplitudes converged.
 Discarding MO integrals.
          Differentiating once with respect to electric field.
                with respect to dipole field.
          Electric field/nuclear overlap derivatives assumed to be zero.
 Keep R1 ints in memory in canonical form, NReq=194502056.
          There are     1 degrees of freedom in the 1st order CPHF.  IDoFFX=0 NUNeed=     1.
 LinEq1:  Iter=  0 NonCon=     1 RMS=2.09D-03 Max=6.36D-02 NDo=     1
 AX will form     1 AO Fock derivatives at one time.
 LinEq1:  Iter=  1 NonCon=     1 RMS=9.25D-04 Max=1.67D-02 NDo=     1
 LinEq1:  Iter=  2 NonCon=     1 RMS=4.14D-04 Max=1.03D-02 NDo=     1
 LinEq1:  Iter=  3 NonCon=     1 RMS=1.06D-04 Max=1.89D-03 NDo=     1
 LinEq1:  Iter=  4 NonCon=     1 RMS=2.67D-05 Max=9.77D-04 NDo=     1
 LinEq1:  Iter=  5 NonCon=     1 RMS=9.04D-06 Max=2.38D-04 NDo=     1
 LinEq1:  Iter=  6 NonCon=     1 RMS=2.67D-06 Max=9.26D-05 NDo=     1
 LinEq1:  Iter=  7 NonCon=     1 RMS=7.68D-07 Max=1.41D-05 NDo=     1
 LinEq1:  Iter=  8 NonCon=     1 RMS=1.41D-07 Max=2.23D-06 NDo=     1
 LinEq1:  Iter=  9 NonCon=     1 RMS=2.61D-08 Max=3.78D-07 NDo=     1
 LinEq1:  Iter= 10 NonCon=     1 RMS=6.91D-09 Max=1.81D-07 NDo=     1
 LinEq1:  Iter= 11 NonCon=     1 RMS=1.44D-09 Max=2.32D-08 NDo=     1
 LinEq1:  Iter= 12 NonCon=     1 RMS=3.31D-10 Max=5.62D-09 NDo=     1
 LinEq1:  Iter= 13 NonCon=     0 RMS=7.08D-11 Max=8.68D-10 NDo=     1
 Linear equations converged to 1.000D-10 1.000D-09 after    13 iterations.
 End of Minotr F.D. properties file   721 does not exist.
 End of Minotr F.D. properties file   722 does not exist.
 End of Minotr F.D. properties file   788 does not exist.

 **********************************************************************

            Population analysis using the CC Density.

 **********************************************************************

 Alpha  occ. eigenvalues -- -104.88869-104.88869 -91.97721 -11.45008 -10.61277
 Alpha  occ. eigenvalues --  -10.61276  -8.97978  -8.07955  -8.07954  -8.07743
 Alpha  occ. eigenvalues --   -8.07743  -8.07725  -8.07725  -6.66053  -6.65958
 Alpha  occ. eigenvalues --   -6.65808  -1.24492  -1.13609  -1.03606  -0.77282
 Alpha  occ. eigenvalues --   -0.64627  -0.60860  -0.58705  -0.50353  -0.49693
 Alpha  occ. eigenvalues --   -0.47925  -0.40523  -0.37991
 Alpha virt. eigenvalues --    0.01691   0.04855   0.06350   0.06872   0.10082
 Alpha virt. eigenvalues --    0.10154   0.10372   0.11180   0.11755   0.12827
 Alpha virt. eigenvalues --    0.15156   0.15404   0.16247   0.16381   0.16471
 Alpha virt. eigenvalues --    0.21207   0.21867   0.23218   0.26574   0.27067
 Alpha virt. eigenvalues --    0.28033   0.28863   0.30238   0.34358   0.34825
 Alpha virt. eigenvalues --    0.37902   0.38883   0.39831   0.40248   0.42249
 Alpha virt. eigenvalues --    0.44330   0.45564   0.45571   0.46155   0.48038
 Alpha virt. eigenvalues --    0.48973   0.50254   0.50811   0.54028   0.55341
 Alpha virt. eigenvalues --    0.56255   0.65256   0.65554   0.65794   0.70966
 Alpha virt. eigenvalues --    0.72528   0.73228   0.73848   0.74168   0.78391
 Alpha virt. eigenvalues --    0.79012   0.80232   0.80292   0.81765   0.83121
 Alpha virt. eigenvalues --    0.83329   0.86679   0.87330   0.88369   0.88467
 Alpha virt. eigenvalues --    0.91089   0.92065   0.92514   0.94703   0.95501
 Alpha virt. eigenvalues --    0.95811   0.97489   1.02146   1.03109   1.07608
 Alpha virt. eigenvalues --    1.11109   1.11671   1.11947   1.12761   1.17885
 Alpha virt. eigenvalues --    1.18782   1.20830   1.22791   1.28800   1.29500
 Alpha virt. eigenvalues --    1.31275   1.36262   1.39457   1.40557   1.47681
 Alpha virt. eigenvalues --    1.48494   1.52214   1.52574   1.53928   1.54994
 Alpha virt. eigenvalues --    1.61690   1.66215   1.69116   1.71153   1.71314
 Alpha virt. eigenvalues --    1.75510   1.83269   1.83813   1.84966   1.87616
 Alpha virt. eigenvalues --    1.88109   1.90120   1.97699   2.07432   2.08012
 Alpha virt. eigenvalues --    2.14162   2.17467   2.32613   2.32844   2.39126
 Alpha virt. eigenvalues --    2.39465   2.43101   2.44493   2.47024   2.47847
 Alpha virt. eigenvalues --    2.47889   2.53046   2.58128   2.58435   2.59837
 Alpha virt. eigenvalues --    2.59946   2.62341   2.63967   2.65318   2.65428
 Alpha virt. eigenvalues --    2.69426   2.83381   2.83943   2.87277   2.89120
 Alpha virt. eigenvalues --    2.90459   3.02584   3.02599   3.04773   3.05216
 Alpha virt. eigenvalues --    3.05396   3.07484   3.09535   3.12777   3.13332
 Alpha virt. eigenvalues --    3.13653   3.14688   3.19572   3.21325   3.23045
 Alpha virt. eigenvalues --    3.23883   3.35627   3.47965   3.55308   3.65135
 Alpha virt. eigenvalues --    3.70851   3.71059   3.72587   3.76387   3.84919
 Alpha virt. eigenvalues --    3.88785   3.91264   3.97207   4.13271   4.14235
 Alpha virt. eigenvalues --    4.20491   4.23307   4.69292   4.77270   6.41847
 Alpha virt. eigenvalues --    7.22017   7.28801   9.73305
          Condensed to atoms (all electrons):
               1          2          3          4
     1  C    5.684799   0.065031   0.065031   0.182106
     2  Cl   0.065031  17.191856  -0.117697  -0.128071
     3  Cl   0.065031  -0.117697  17.191856  -0.128071
     4  S    0.182106  -0.128071  -0.128071  16.054832
 Mulliken charges:
               1
     1  C    0.003034
     2  Cl  -0.011119
     3  Cl  -0.011119
     4  S    0.019204
 Sum of Mulliken charges =  -0.00000
 Mulliken charges with hydrogens summed into heavy atoms:
               1
     1  C    0.003034
     2  Cl  -0.011119
     3  Cl  -0.011119
     4  S    0.019204
 Electronic spatial extent (au):  <R**2>=            690.8460
 Charge=             -0.0000 electrons
 Dipole moment (field-independent basis, Debye):
    X=             -0.0000    Y=              0.0000    Z=             -0.5194  Tot=              0.5194
 Quadrupole moment (field-independent basis, Debye-Ang):
   XX=            -43.1686   YY=            -43.2116   ZZ=            -42.5258
   XY=              0.0000   XZ=             -0.0000   YZ=             -0.0000
 Traceless Quadrupole moment (field-independent basis, Debye-Ang):
   XX=             -0.1999   YY=             -0.2430   ZZ=              0.4429
   XY=              0.0000   XZ=             -0.0000   YZ=             -0.0000
 Octapole moment (field-independent basis, Debye-Ang**2):
  XXX=             -0.0000  YYY=              0.0000  ZZZ=             81.6566  XYY=             -0.0000
  XXY=              0.0000  XXZ=             27.0843  XZZ=              0.0000  YZZ=              0.0000
  YYZ=             18.8486  XYZ=             -0.0000
 Hexadecapole moment (field-independent basis, Debye-Ang**3):
 XXXX=            -50.9555 YYYY=           -339.6985 ZZZZ=           -478.1363 XXXY=              0.0000
 XXXZ=              0.0000 YYYX=              0.0000 YYYZ=             -0.0000 ZZZX=              0.0000
 ZZZY=              0.0000 XXYY=            -69.1609 XXZZ=            -89.8017 YYZZ=           -127.3114
 XXYZ=             -0.0000 YYXZ=             -0.0000 ZZXY=              0.0000
 N-N= 2.448997502976D+02 E-N=-3.713344083778D+03  KE= 1.355026598915D+03
 There are a total of       89716 grid points.
 ElSum from          density=       56.0000000438
 ElSum from atomic densities=       56.0000006212

 Hirshfeld populations at iteration   1 (CX, CA, CB, DipXYZ):
               1          2          3          4          5          6
     1  C    0.000001   2.959719   2.959719  -0.000000   0.000000  -0.136589
     2  Cl   0.000016   8.503187   8.503187  -0.000000  -0.063609  -0.019500
     3  Cl   0.000016   8.503187   8.503187  -0.000000   0.063609  -0.019500
     4  S    0.000012   8.033907   8.033907   0.000000   0.000000   0.154833
       Tot   0.000044  28.000000  28.000000  -0.000000   0.000000  -0.020756

 Dip from Atomic Chgs              0.000000   0.000000  -0.183606
         Total Dipole             -0.000000   0.000000  -0.204362

 Hirshfeld charges, spin densities, dipoles, and CM5 charges using IRadAn=      5:
              Q-H        S-H        Dx         Dy         Dz        Q-CM5   
     1  C    0.080561   0.000000  -0.000000   0.000000  -0.136589   0.098498
     2  Cl  -0.006374   0.000000  -0.000000  -0.063609  -0.019500  -0.004897
     3  Cl  -0.006374   0.000000  -0.000000   0.063609  -0.019500  -0.004897
     4  S   -0.067813   0.000000   0.000000   0.000000   0.154833  -0.088704
       Tot  -0.000000   0.000000  -0.000000   0.000000  -0.020756  -0.000000
 Hirshfeld charges with hydrogens summed into heavy atoms:
              Q-H       Q-CM5   
     1  C    0.080561   0.098498
     2  Cl  -0.006374  -0.004897
     3  Cl  -0.006374  -0.004897
     4  S   -0.067813  -0.088704
 
 EQQ= 0.000000000000E+00 EQD= 0.000000000000E+00 EDD=-0.649173276366E-03
 EQQ+QD+DD=-0.649173276366E-03
 
 Breneman (CHELPG) radii used.
 Generate Potential Derived Charges using the Breneman model, NDens= 1.
 Grid spacing= 0.300 Box extension= 2.800
 NStep X,Y,Z=   20     30     29   Total possible points=       17400
 Number of Points to Fit=    4408

 **********************************************************************

            Electrostatic Properties Using The CC Density.

 **********************************************************************

       Atomic Center    1 is at   0.000000  0.000000 -0.532914
       Atomic Center    2 is at   0.000000 -1.430735 -1.500900
       Atomic Center    3 is at   0.000000  1.430735 -1.500900
       Atomic Center    4 is at   0.000000  0.000000  1.081815
    4408 points will be used for fitting atomic charges
 Fitting point charges to electrostatic potential
 The dipole moment will be constrained to the correct value
 Charges from ESP fit, RMS=   0.00702 RRMS=   0.91262:
 ESP charges:
               1
     1  C    0.126386
     2  Cl  -0.018573
     3  Cl  -0.018573
     4  S   -0.089240
 Sum of ESP charges =   0.00000
 ESP charges with hydrogens summed into heavy atoms:
               1
     1  C    0.126386
     2  Cl  -0.018573
     3  Cl  -0.018573
     4  S   -0.089240
 Charge=   0.00000 Dipole=     0.0000    -0.0000    -0.5194 Tot=     0.5194
 -----------------------------------------------------------------

              Electrostatic Properties (Atomic Units)

 -----------------------------------------------------------------
    Center     Electric         -------- Electric Field --------
               Potential          X             Y             Z
 -----------------------------------------------------------------
    1 Atom    -14.564036
    2 Atom    -64.376261
    3 Atom    -64.376261
    4 Atom    -59.210459
 -----------------------------------------------------------------
 ******************************Gaussian NBO Version 3.1******************************
             N A T U R A L   A T O M I C   O R B I T A L   A N D
          N A T U R A L   B O N D   O R B I T A L   A N A L Y S I S
 ******************************Gaussian NBO Version 3.1******************************
       /RESON  / : Allow strongly delocalized NBO set

 Analyzing the QCI/CC density

 Job title: cl2cs-wavefunction                                              

 Storage needed:    116194 in NPA (2147483536 available)
 GSVD:  LWork=        8166 too small for GESVD, short by       51245 words or       51245 for optimal perf.


 NATURAL POPULATIONS:  Natural atomic orbital occupancies 
                                                          
   NAO  Atom  No  lang   Type(AO)    Occupancy
 --------------------------------------------
     1    C    1  S      Cor( 1S)     1.99949
     2    C    1  S      Val( 2S)     1.16410
     3    C    1  S      Ryd( 3S)     0.00524
     4    C    1  S      Ryd( 4S)     0.00038
     5    C    1  S      Ryd( 5S)     0.00015
     6    C    1  px     Val( 2p)     1.02013
     7    C    1  px     Ryd( 3p)     0.00805
     8    C    1  px     Ryd( 4p)     0.00051
     9    C    1  px     Ryd( 5p)     0.00021
    10    C    1  py     Val( 2p)     0.95367
    11    C    1  py     Ryd( 3p)     0.02160
    12    C    1  py     Ryd( 5p)     0.00044
    13    C    1  py     Ryd( 4p)     0.00052
    14    C    1  pz     Val( 2p)     1.06927
    15    C    1  pz     Ryd( 3p)     0.02641
    16    C    1  pz     Ryd( 5p)     0.00037
    17    C    1  pz     Ryd( 4p)     0.00046
    18    C    1  dxy    Ryd( 3d)     0.01038
    19    C    1  dxy    Ryd( 4d)     0.00033
    20    C    1  dxy    Ryd( 5d)     0.00018
    21    C    1  dxz    Ryd( 3d)     0.01312
    22    C    1  dxz    Ryd( 4d)     0.00036
    23    C    1  dxz    Ryd( 5d)     0.00026
    24    C    1  dyz    Ryd( 3d)     0.01362
    25    C    1  dyz    Ryd( 4d)     0.00044
    26    C    1  dyz    Ryd( 5d)     0.00018
    27    C    1  dx2y2  Ryd( 3d)     0.00816
    28    C    1  dx2y2  Ryd( 4d)     0.00035
    29    C    1  dx2y2  Ryd( 5d)     0.00032
    30    C    1  dz2    Ryd( 3d)     0.01243
    31    C    1  dz2    Ryd( 4d)     0.00035
    32    C    1  dz2    Ryd( 5d)     0.00015
    33    C    1  f(0)   Ryd( 4f)     0.00471
    34    C    1  f(0)   Ryd( 5f)     0.00032
    35    C    1  f(C1)  Ryd( 4f)     0.00260
    36    C    1  f(C1)  Ryd( 5f)     0.00035
    37    C    1  f(S1)  Ryd( 4f)     0.00325
    38    C    1  f(S1)  Ryd( 5f)     0.00056
    39    C    1  f(C2)  Ryd( 4f)     0.00320
    40    C    1  f(C2)  Ryd( 5f)     0.00032
    41    C    1  f(S2)  Ryd( 4f)     0.00283
    42    C    1  f(S2)  Ryd( 5f)     0.00031
    43    C    1  f(C3)  Ryd( 4f)     0.00217
    44    C    1  f(C3)  Ryd( 5f)     0.00025
    45    C    1  f(S3)  Ryd( 4f)     0.00212
    46    C    1  f(S3)  Ryd( 5f)     0.00024

    47   Cl    2  S      Cor( 1S)     2.00000
    48   Cl    2  S      Cor( 2S)     1.99917
    49   Cl    2  S      Val( 3S)     1.80949
    50   Cl    2  S      Ryd( 4S)     0.00540
    51   Cl    2  S      Ryd( 5S)     0.00033
    52   Cl    2  S      Ryd( 6S)     0.00027
    53   Cl    2  px     Cor( 2p)     2.00002
    54   Cl    2  px     Val( 3p)     1.83515
    55   Cl    2  px     Ryd( 4p)     0.00887
    56   Cl    2  px     Ryd( 5p)     0.00052
    57   Cl    2  px     Ryd( 6p)     0.00010
    58   Cl    2  py     Cor( 2p)     1.99993
    59   Cl    2  py     Val( 3p)     1.42996
    60   Cl    2  py     Ryd( 4p)     0.00597
    61   Cl    2  py     Ryd( 5p)     0.00051
    62   Cl    2  py     Ryd( 6p)     0.00012
    63   Cl    2  pz     Cor( 2p)     1.99998
    64   Cl    2  pz     Val( 3p)     1.69806
    65   Cl    2  pz     Ryd( 4p)     0.00756
    66   Cl    2  pz     Ryd( 5p)     0.00051
    67   Cl    2  pz     Ryd( 6p)     0.00013
    68   Cl    2  dxy    Ryd( 3d)     0.01771
    69   Cl    2  dxy    Ryd( 4d)     0.00050
    70   Cl    2  dxy    Ryd( 5d)     0.00012
    71   Cl    2  dxz    Ryd( 3d)     0.01844
    72   Cl    2  dxz    Ryd( 4d)     0.00062
    73   Cl    2  dxz    Ryd( 5d)     0.00013
    74   Cl    2  dyz    Ryd( 3d)     0.02251
    75   Cl    2  dyz    Ryd( 4d)     0.00046
    76   Cl    2  dyz    Ryd( 5d)     0.00014
    77   Cl    2  dx2y2  Ryd( 3d)     0.01971
    78   Cl    2  dx2y2  Ryd( 4d)     0.00051
    79   Cl    2  dx2y2  Ryd( 5d)     0.00012
    80   Cl    2  dz2    Ryd( 3d)     0.01708
    81   Cl    2  dz2    Ryd( 4d)     0.00051
    82   Cl    2  dz2    Ryd( 5d)     0.00018
    83   Cl    2  f(0)   Ryd( 4f)     0.00131
    84   Cl    2  f(0)   Ryd( 5f)     0.00014
    85   Cl    2  f(C1)  Ryd( 4f)     0.00134
    86   Cl    2  f(C1)  Ryd( 5f)     0.00013
    87   Cl    2  f(S1)  Ryd( 4f)     0.00128
    88   Cl    2  f(S1)  Ryd( 5f)     0.00018
    89   Cl    2  f(C2)  Ryd( 4f)     0.00153
    90   Cl    2  f(C2)  Ryd( 5f)     0.00015
    91   Cl    2  f(S2)  Ryd( 4f)     0.00134
    92   Cl    2  f(S2)  Ryd( 5f)     0.00015
    93   Cl    2  f(C3)  Ryd( 4f)     0.00132
    94   Cl    2  f(C3)  Ryd( 5f)     0.00015
    95   Cl    2  f(S3)  Ryd( 4f)     0.00134
    96   Cl    2  f(S3)  Ryd( 5f)     0.00015

    97   Cl    3  S      Cor( 1S)     2.00000
    98   Cl    3  S      Cor( 2S)     1.99917
    99   Cl    3  S      Val( 3S)     1.80949
   100   Cl    3  S      Ryd( 4S)     0.00540
   101   Cl    3  S      Ryd( 5S)     0.00033
   102   Cl    3  S      Ryd( 6S)     0.00027
   103   Cl    3  px     Cor( 2p)     2.00002
   104   Cl    3  px     Val( 3p)     1.83515
   105   Cl    3  px     Ryd( 4p)     0.00887
   106   Cl    3  px     Ryd( 5p)     0.00052
   107   Cl    3  px     Ryd( 6p)     0.00010
   108   Cl    3  py     Cor( 2p)     1.99993
   109   Cl    3  py     Val( 3p)     1.42996
   110   Cl    3  py     Ryd( 4p)     0.00597
   111   Cl    3  py     Ryd( 5p)     0.00051
   112   Cl    3  py     Ryd( 6p)     0.00012
   113   Cl    3  pz     Cor( 2p)     1.99998
   114   Cl    3  pz     Val( 3p)     1.69806
   115   Cl    3  pz     Ryd( 4p)     0.00756
   116   Cl    3  pz     Ryd( 5p)     0.00051
   117   Cl    3  pz     Ryd( 6p)     0.00013
   118   Cl    3  dxy    Ryd( 3d)     0.01771
   119   Cl    3  dxy    Ryd( 4d)     0.00050
   120   Cl    3  dxy    Ryd( 5d)     0.00012
   121   Cl    3  dxz    Ryd( 3d)     0.01844
   122   Cl    3  dxz    Ryd( 4d)     0.00062
   123   Cl    3  dxz    Ryd( 5d)     0.00013
   124   Cl    3  dyz    Ryd( 3d)     0.02251
   125   Cl    3  dyz    Ryd( 4d)     0.00046
   126   Cl    3  dyz    Ryd( 5d)     0.00014
   127   Cl    3  dx2y2  Ryd( 3d)     0.01971
   128   Cl    3  dx2y2  Ryd( 4d)     0.00051
   129   Cl    3  dx2y2  Ryd( 5d)     0.00012
   130   Cl    3  dz2    Ryd( 3d)     0.01708
   131   Cl    3  dz2    Ryd( 4d)     0.00051
   132   Cl    3  dz2    Ryd( 5d)     0.00018
   133   Cl    3  f(0)   Ryd( 4f)     0.00131
   134   Cl    3  f(0)   Ryd( 5f)     0.00014
   135   Cl    3  f(C1)  Ryd( 4f)     0.00134
   136   Cl    3  f(C1)  Ryd( 5f)     0.00013
   137   Cl    3  f(S1)  Ryd( 4f)     0.00128
   138   Cl    3  f(S1)  Ryd( 5f)     0.00018
   139   Cl    3  f(C2)  Ryd( 4f)     0.00153
   140   Cl    3  f(C2)  Ryd( 5f)     0.00015
   141   Cl    3  f(S2)  Ryd( 4f)     0.00134
   142   Cl    3  f(S2)  Ryd( 5f)     0.00015
   143   Cl    3  f(C3)  Ryd( 4f)     0.00132
   144   Cl    3  f(C3)  Ryd( 5f)     0.00015
   145   Cl    3  f(S3)  Ryd( 4f)     0.00134
   146   Cl    3  f(S3)  Ryd( 5f)     0.00015

   147    S    4  S      Cor( 1S)     2.00000
   148    S    4  S      Cor( 2S)     1.99843
   149    S    4  S      Val( 3S)     1.71069
   150    S    4  S      Ryd( 4S)     0.00814
   151    S    4  S      Ryd( 5S)     0.00038
   152    S    4  S      Ryd( 6S)     0.00023
   153    S    4  px     Cor( 2p)     1.99989
   154    S    4  px     Val( 3p)     1.16397
   155    S    4  px     Ryd( 4p)     0.00486
   156    S    4  px     Ryd( 5p)     0.00032
   157    S    4  px     Ryd( 6p)     0.00011
   158    S    4  py     Cor( 2p)     2.00000
   159    S    4  py     Val( 3p)     1.78603
   160    S    4  py     Ryd( 4p)     0.01021
   161    S    4  py     Ryd( 5p)     0.00047
   162    S    4  py     Ryd( 6p)     0.00014
   163    S    4  pz     Cor( 2p)     1.99967
   164    S    4  pz     Val( 3p)     1.03763
   165    S    4  pz     Ryd( 4p)     0.00517
   166    S    4  pz     Ryd( 5p)     0.00046
   167    S    4  pz     Ryd( 6p)     0.00009
   168    S    4  dxy    Ryd( 3d)     0.01617
   169    S    4  dxy    Ryd( 4d)     0.00053
   170    S    4  dxy    Ryd( 5d)     0.00009
   171    S    4  dxz    Ryd( 3d)     0.01674
   172    S    4  dxz    Ryd( 4d)     0.00035
   173    S    4  dxz    Ryd( 5d)     0.00008
   174    S    4  dyz    Ryd( 3d)     0.01385
   175    S    4  dyz    Ryd( 4d)     0.00037
   176    S    4  dyz    Ryd( 5d)     0.00028
   177    S    4  dx2y2  Ryd( 3d)     0.01571
   178    S    4  dx2y2  Ryd( 4d)     0.00055
   179    S    4  dx2y2  Ryd( 5d)     0.00010
   180    S    4  dz2    Ryd( 3d)     0.02142
   181    S    4  dz2    Ryd( 4d)     0.00041
   182    S    4  dz2    Ryd( 5d)     0.00010
   183    S    4  f(0)   Ryd( 4f)     0.00120
   184    S    4  f(0)   Ryd( 5f)     0.00021
   185    S    4  f(C1)  Ryd( 4f)     0.00094
   186    S    4  f(C1)  Ryd( 5f)     0.00015
   187    S    4  f(S1)  Ryd( 4f)     0.00108
   188    S    4  f(S1)  Ryd( 5f)     0.00016
   189    S    4  f(C2)  Ryd( 4f)     0.00092
   190    S    4  f(C2)  Ryd( 5f)     0.00014
   191    S    4  f(S2)  Ryd( 4f)     0.00096
   192    S    4  f(S2)  Ryd( 5f)     0.00012
   193    S    4  f(C3)  Ryd( 4f)     0.00138
   194    S    4  f(C3)  Ryd( 5f)     0.00013
   195    S    4  f(S3)  Ryd( 4f)     0.00137
   196    S    4  f(S3)  Ryd( 5f)     0.00013

 WARNING:  1 low occupancy (<1.9990e) core orbital  found on  S    4


 Summary of Natural Population Analysis:                  
                                                          
                                       Natural Population 
                Natural  -----------------------------------------------
    Atom  No    Charge         Core      Valence    Rydberg      Total
 -----------------------------------------------------------------------
      C    1   -0.35486      1.99949     4.20717    0.14821     6.35486
     Cl    2    0.08869      9.99911     6.77265    0.13954    16.91131
     Cl    3    0.08869      9.99911     6.77265    0.13954    16.91131
      S    4    0.17747      9.99799     5.69832    0.12622    15.82253
 =======================================================================
   * Total *    0.00000     31.99570    23.45080    0.55350    56.00000

                                 Natural Population      
 --------------------------------------------------------
   Core                      31.99570 ( 99.9866% of  32)
   Valence                   23.45080 ( 97.7117% of  24)
   Natural Minimal Basis     55.44650 ( 99.0116% of  56)
   Natural Rydberg Basis      0.55350 (  0.9884% of  56)
 --------------------------------------------------------

    Atom  No          Natural Electron Configuration
 ----------------------------------------------------------------------------
      C    1      [core]2S( 1.16)2p( 3.04)3S( 0.01)3p( 0.06)3d( 0.06)4f( 0.02)
     Cl    2      [core]3S( 1.81)3p( 4.96)4S( 0.01)3d( 0.10)4p( 0.02)4f( 0.01)
     Cl    3      [core]3S( 1.81)3p( 4.96)4S( 0.01)3d( 0.10)4p( 0.02)4f( 0.01)
      S    4      [core]3S( 1.71)3p( 3.99)4S( 0.01)3d( 0.08)4p( 0.02)4f( 0.01)


 NBO analysis skipped by request.
 Unable to Open any file for archive entry.
 1\1\GINC-TRAPISTA\SP\RQCISD-FC\Aug-CC-pVTZ\C1Cl2S1\WAGNER\04-Sep-2022\
 0\\# qcisd/aug-cc-pvtz nosymm density=current pop=(chelpg,hirshfeld,np
 a,dipole)\\cl2cs-wavefunction\\0,1\C,0,0.,0.,-0.532914\Cl,0,0.,-1.4307
 35,-1.5009\Cl,0,0.,1.430735,-1.5009\S,0,0.,0.,1.081815\\Version=EM64L-
 G16RevC.01\HF=-1354.4257903\MP2=-1355.1503471\MP3=-1355.1828665\MP4D=-
 1355.2046801\MP4DQ=-1355.1797515\MP4SDQ=-1355.1866257\QCISD=-1355.1841
 478\RMSD=9.128e-09\Dipole=0.,0.,-0.2043608\Quadrupole=-0.1486289,-0.18
 06433,0.3292722,0.,0.,0.\PG=C02V [C2(C1S1),SGV(Cl2)]\\@
 The archive entry for this job was punched.


 IF AT FIRST YOU DON'T SUCCEED, TRY, TRY AGAIN.
 THEN GIVE UP;
 THERE'S NO USE BEING A DAMN FOOL ABOUT IT.

                                 -- W. C. FIELDS
 Job cpu time:       0 days  7 hours 28 minutes 55.0 seconds.
 Elapsed time:       0 days  0 hours 28 minutes 25.2 seconds.
 File lengths (MBytes):  RWF=  23427 Int=      0 D2E=      0 Chk=      4 Scr=      1
 Normal termination of Gaussian 16 at Sun Sep  4 09:33:28 2022.
