 Entering Gaussian System, Link 0=/home/wagner/chemistry/gaussian/g16/g16
 Input=GAUSSIAN.com
 Output=GAUSSIAN.log
 Initial command:
 /home/wagner/chemistry/gaussian/g16/l1.exe "/home/wagner/chemistry/gaussian/work/Gau-52796.inp" -scrdir="/home/wagner/chemistry/gaussian/work/"
 Entering Link 1 = /home/wagner/chemistry/gaussian/g16/l1.exe PID=     52798.
  
 Copyright (c) 1988-2019, Gaussian, Inc.  All Rights Reserved.
  
 This is part of the Gaussian(R) 16 program.  It is based on
 the Gaussian(R) 09 system (copyright 2009, Gaussian, Inc.),
 the Gaussian(R) 03 system (copyright 2003, Gaussian, Inc.),
 the Gaussian(R) 98 system (copyright 1998, Gaussian, Inc.),
 the Gaussian(R) 94 system (copyright 1995, Gaussian, Inc.),
 the Gaussian 92(TM) system (copyright 1992, Gaussian, Inc.),
 the Gaussian 90(TM) system (copyright 1990, Gaussian, Inc.),
 the Gaussian 88(TM) system (copyright 1988, Gaussian, Inc.),
 the Gaussian 86(TM) system (copyright 1986, Carnegie Mellon
 University), and the Gaussian 82(TM) system (copyright 1983,
 Carnegie Mellon University). Gaussian is a federally registered
 trademark of Gaussian, Inc.
  
 This software contains proprietary and confidential information,
 including trade secrets, belonging to Gaussian, Inc.
  
 This software is provided under written license and may be
 used, copied, transmitted, or stored only in accord with that
 written license.
  
 The following legend is applicable only to US Government
 contracts under FAR:
  
                    RESTRICTED RIGHTS LEGEND
  
 Use, reproduction and disclosure by the US Government is
 subject to restrictions as set forth in subparagraphs (a)
 and (c) of the Commercial Computer Software - Restricted
 Rights clause in FAR 52.227-19.
  
 Gaussian, Inc.
 340 Quinnipiac St., Bldg. 40, Wallingford CT 06492
  
  
 ---------------------------------------------------------------
 Warning -- This program may not be used in any manner that
 competes with the business of Gaussian, Inc. or will provide
 assistance to any competitor of Gaussian, Inc.  The licensee
 of this program is prohibited from giving any competitor of
 Gaussian, Inc. access to this program.  By using this program,
 the user acknowledges that Gaussian, Inc. is engaged in the
 business of creating and licensing software in the field of
 computational chemistry and represents and warrants to the
 licensee that it is not a competitor of Gaussian, Inc. and that
 it will not use this program in any manner prohibited above.
 ---------------------------------------------------------------
  

 Cite this work as:
 Gaussian 16, Revision C.01,
 M. J. Frisch, G. W. Trucks, H. B. Schlegel, G. E. Scuseria, 
 M. A. Robb, J. R. Cheeseman, G. Scalmani, V. Barone, 
 G. A. Petersson, H. Nakatsuji, X. Li, M. Caricato, A. V. Marenich, 
 J. Bloino, B. G. Janesko, R. Gomperts, B. Mennucci, H. P. Hratchian, 
 J. V. Ortiz, A. F. Izmaylov, J. L. Sonnenberg, D. Williams-Young, 
 F. Ding, F. Lipparini, F. Egidi, J. Goings, B. Peng, A. Petrone, 
 T. Henderson, D. Ranasinghe, V. G. Zakrzewski, J. Gao, N. Rega, 
 G. Zheng, W. Liang, M. Hada, M. Ehara, K. Toyota, R. Fukuda, 
 J. Hasegawa, M. Ishida, T. Nakajima, Y. Honda, O. Kitao, H. Nakai, 
 T. Vreven, K. Throssell, J. A. Montgomery, Jr., J. E. Peralta, 
 F. Ogliaro, M. J. Bearpark, J. J. Heyd, E. N. Brothers, K. N. Kudin, 
 V. N. Staroverov, T. A. Keith, R. Kobayashi, J. Normand, 
 K. Raghavachari, A. P. Rendell, J. C. Burant, S. S. Iyengar, 
 J. Tomasi, M. Cossi, J. M. Millam, M. Klene, C. Adamo, R. Cammi, 
 J. W. Ochterski, R. L. Martin, K. Morokuma, O. Farkas, 
 J. B. Foresman, and D. J. Fox, Gaussian, Inc., Wallingford CT, 2019.
 
 ******************************************
 Gaussian 16:  EM64L-G16RevC.01  3-Jul-2019
                 4-Sep-2022 
 ******************************************
 %nproc=16
 Will use up to   16 processors via shared memory.
 %mem=16GB
 ----------------------------------------------------------------------
 # qcisd/aug-cc-pvtz nosymm density=current pop=(chelpg,hirshfeld,npa,d
 ipole)
 ----------------------------------------------------------------------
 1/30=1,38=1,172=1/1;
 2/12=2,15=1,17=6,18=5,40=1/2;
 3/5=16,6=1,7=10,11=9,25=1,30=1,71=1/1,2,3;
 4//1;
 5/5=2,38=5/2;
 8/6=4,9=120000,10=1/1,4;
 9/5=8,15=1/13;
 11/28=-7,31=1,32=3,42=3/11;
 10/5=6,13=10,31=1/2;
 6/7=2,8=2,9=2,10=2,15=24,20=3,22=-1,40=-1,79=1/1,2,7;
 99/5=1,9=1/99;
 ------------------
 cl2cs-wavefunction
 ------------------
 Symbolic Z-matrix:
 Charge =  0 Multiplicity = 1
 C                     0.        0.       -0.52291 
 Cl                    0.       -1.43074  -1.5009 
 Cl                    0.        1.43074  -1.5009 
 S                     0.       -0.01      1.08181 
 
                          Input orientation:                          
 ---------------------------------------------------------------------
 Center     Atomic      Atomic             Coordinates (Angstroms)
 Number     Number       Type             X           Y           Z
 ---------------------------------------------------------------------
      1          6           0        0.000000    0.000000   -0.522914
      2         17           0        0.000000   -1.430735   -1.500900
      3         17           0        0.000000    1.430735   -1.500900
      4         16           0        0.000000   -0.010000    1.081815
 ---------------------------------------------------------------------
                    Distance matrix (angstroms):
                    1          2          3          4
     1  C    0.000000
     2  Cl   1.733049   0.000000
     3  Cl   1.733049   2.861470   0.000000
     4  S    1.604760   2.947695   2.957386   0.000000
 Symmetry turned off by external request.
 Stoichiometry    CCl2S
 Framework group  CS[SG(CCl2S)]
 Deg. of freedom     5
 Full point group                 CS      NOp   2
 Rotational constants (GHZ):           3.5322136           3.4438386           1.7437331
 Standard basis: Aug-CC-pVTZ (5D, 7F)
   196 basis functions,   414 primitive gaussians,   232 cartesian basis functions
    28 alpha electrons       28 beta electrons
       nuclear repulsion energy       244.8922437359 Hartrees.
 NAtoms=    4 NActive=    4 NUniq=    4 SFac= 1.00D+00 NAtFMM=   60 NAOKFM=F Big=F
 Integral buffers will be    131072 words long.
 Raffenetti 1 integral format.
 Two-electron integral symmetry is turned off.
 One-electron integrals computed using PRISM.
 NBasis=   196 RedAO= T EigKep=  9.10D-05  NBF=   196
 NBsUse=   196 1.00D-06 EigRej= -1.00D+00 NBFU=   196
 ExpMin= 3.51D-02 ExpMax= 4.56D+05 ExpMxC= 1.44D+03 IAcc=3 IRadAn=         5 AccDes= 0.00D+00
 Harris functional with IExCor=  205 and IRadAn=       5 diagonalized for initial guess.
 HarFok:  IExCor=  205 AccDes= 0.00D+00 IRadAn=         5 IDoV= 1 UseB2=F ITyADJ=14
 ICtDFT=  3500011 ScaDFX=  1.000000  1.000000  1.000000  1.000000
 FoFCou: FMM=F IPFlag=           0 FMFlag=      100000 FMFlg1=           0
         NFxFlg=           0 DoJE=T BraDBF=F KetDBF=T FulRan=T
         wScrn=  0.000000 ICntrl=       500 IOpCl=  0 I1Cent=   200000004 NGrid=           0
         NMat0=    1 NMatS0=      1 NMatT0=    0 NMatD0=    1 NMtDS0=    0 NMtDT0=    0
 Symmetry not used in FoFCou.
 Keep R1 ints in memory in canonical form, NReq=194496592.
 Requested convergence on RMS density matrix=1.00D-08 within 128 cycles.
 Requested convergence on MAX density matrix=1.00D-06.
 Requested convergence on             energy=1.00D-06.
 No special actions if energy rises.
 SCF Done:  E(RHF) =  -1354.42601452     A.U. after   12 cycles
            NFock= 12  Conv=0.87D-08     -V/T= 2.0001
 ExpMin= 3.51D-02 ExpMax= 4.56D+05 ExpMxC= 1.44D+03 IAcc=3 IRadAn=         5 AccDes= 0.00D+00
 HarFok:  IExCor=  205 AccDes= 0.00D+00 IRadAn=         5 IDoV=-2 UseB2=F ITyADJ=14
 ICtDFT= 12500011 ScaDFX=  1.000000  1.000000  1.000000  1.000000
 Range of M.O.s used for correlation:    17   196
 NBasis=   196 NAE=    28 NBE=    28 NFC=    16 NFV=     0
 NROrb=    180 NOA=    12 NOB=    12 NVA=   168 NVB=   168

 **** Warning!!: The largest alpha MO coefficient is  0.31130949D+02

 Semi-Direct transformation.
 ModeAB=           2 MOrb=            12 LenV=    2146408921
 LASXX=     33405819 LTotXX=    33405819 LenRXX=    33405819
 LTotAB=    33954012 MaxLAS=    58380480 LenRXY=    58380480
 NonZer=    66811638 LenScr=   100987392 LnRSAI=           0
 LnScr1=           0 LExtra=           0 Total=    192773691
 MaxDsk=          -1 SrtSym=           F ITran=            4
 JobTyp=0 Pass  1:  I=   1 to  12.
 (rs|ai) integrals will be sorted in core.
 Spin components of T(2) and E(2):
     alpha-alpha T2 =       0.3953003993D-01 E2=     -0.9366384809D-01
     alpha-beta  T2 =       0.2072481740D+00 E2=     -0.5370482573D+00
     beta-beta   T2 =       0.3953003993D-01 E2=     -0.9366384809D-01
 ANorm=    0.1134155304D+01
 E2 =    -0.7243759534D+00 EUMP2 =    -0.13551503904705D+04
 Keep R2 and R3 ints in memory in canonical form, NReq=380875895.
 CIDS: In Core Option IDoMem=           1.
 Iterations=  50 Convergence= 0.100D-07
 Produce multiple copies of IABC intergrals
 Iteration Nr.   1
 **********************
 DD1Dir will call FoFMem   1 times, MxPair=       156
 NAB=    78 NAA=     0 NBB=     0.
 MP4(R+Q)=  0.24886407D-01
 E3=       -0.32599563D-01        EUMP3=      -0.13551829900D+04
 E4(DQ)=    0.31061353D-02        UMP4(DQ)=   -0.13551798839D+04
 E4(SDQ)=  -0.37173501D-02        UMP4(SDQ)=  -0.13551867074D+04
 DE(Corr)= -0.73208911     E(Corr)=     -1355.1581036    
 NORM(A)=   0.11380826D+01
 Iteration Nr.   2
 **********************
 DD1Dir will call FoFMem   1 times, MxPair=       156
 NAB=    78 NAA=     0 NBB=     0.
 DE(Corr)= -0.75642191     E(CORR)=     -1355.1824364     Delta=-2.43D-02
 NORM(A)=   0.11490817D+01
 Iteration Nr.   3
 **********************
 DD1Dir will call FoFMem   1 times, MxPair=       156
 NAB=    78 NAA=     0 NBB=     0.
 DE(Corr)= -0.75560509     E(CORR)=     -1355.1816196     Delta= 8.17D-04
 NORM(A)=   0.11518252D+01
 Iteration Nr.   4
 **********************
 DD1Dir will call FoFMem   1 times, MxPair=       156
 NAB=    78 NAA=     0 NBB=     0.
 DE(Corr)= -0.75786801     E(CORR)=     -1355.1838825     Delta=-2.26D-03
 NORM(A)=   0.11529024D+01
 Iteration Nr.   5
 **********************
 DD1Dir will call FoFMem   1 times, MxPair=       156
 NAB=    78 NAA=     0 NBB=     0.
 DE(Corr)= -0.75814616     E(CORR)=     -1355.1841607     Delta=-2.78D-04
 NORM(A)=   0.11534397D+01
 Iteration Nr.   6
 **********************
 DD1Dir will call FoFMem   1 times, MxPair=       156
 NAB=    78 NAA=     0 NBB=     0.
 DE(Corr)= -0.75819909     E(CORR)=     -1355.1842136     Delta=-5.29D-05
 NORM(A)=   0.11535028D+01
 Iteration Nr.   7
 **********************
 DD1Dir will call FoFMem   1 times, MxPair=       156
 NAB=    78 NAA=     0 NBB=     0.
 DE(Corr)= -0.75820635     E(CORR)=     -1355.1842209     Delta=-7.26D-06
 NORM(A)=   0.11535082D+01
 Iteration Nr.   8
 **********************
 DD1Dir will call FoFMem   1 times, MxPair=       156
 NAB=    78 NAA=     0 NBB=     0.
 DE(Corr)= -0.75820445     E(CORR)=     -1355.1842190     Delta= 1.90D-06
 NORM(A)=   0.11535147D+01
 Iteration Nr.   9
 **********************
 DD1Dir will call FoFMem   1 times, MxPair=       156
 NAB=    78 NAA=     0 NBB=     0.
 DE(Corr)= -0.75820452     E(CORR)=     -1355.1842190     Delta=-6.18D-08
 NORM(A)=   0.11535136D+01
 Iteration Nr.  10
 **********************
 DD1Dir will call FoFMem   1 times, MxPair=       156
 NAB=    78 NAA=     0 NBB=     0.
 DE(Corr)= -0.75820550     E(CORR)=     -1355.1842200     Delta=-9.84D-07
 NORM(A)=   0.11535154D+01
 Iteration Nr.  11
 **********************
 DD1Dir will call FoFMem   1 times, MxPair=       156
 NAB=    78 NAA=     0 NBB=     0.
 DE(Corr)= -0.75820619     E(CORR)=     -1355.1842207     Delta=-6.89D-07
 NORM(A)=   0.11535164D+01
 Iteration Nr.  12
 **********************
 DD1Dir will call FoFMem   1 times, MxPair=       156
 NAB=    78 NAA=     0 NBB=     0.
 DE(Corr)= -0.75820641     E(CORR)=     -1355.1842209     Delta=-2.25D-07
 NORM(A)=   0.11535171D+01
 Iteration Nr.  13
 **********************
 DD1Dir will call FoFMem   1 times, MxPair=       156
 NAB=    78 NAA=     0 NBB=     0.
 DE(Corr)= -0.75820670     E(CORR)=     -1355.1842212     Delta=-2.88D-07
 NORM(A)=   0.11535176D+01
 Iteration Nr.  14
 **********************
 DD1Dir will call FoFMem   1 times, MxPair=       156
 NAB=    78 NAA=     0 NBB=     0.
 DE(Corr)= -0.75820673     E(CORR)=     -1355.1842212     Delta=-2.86D-08
 NORM(A)=   0.11535178D+01
 Iteration Nr.  15
 **********************
 DD1Dir will call FoFMem   1 times, MxPair=       156
 NAB=    78 NAA=     0 NBB=     0.
 DE(Corr)= -0.75820678     E(CORR)=     -1355.1842213     Delta=-5.54D-08
 NORM(A)=   0.11535179D+01
 Iteration Nr.  16
 **********************
 DD1Dir will call FoFMem   1 times, MxPair=       156
 NAB=    78 NAA=     0 NBB=     0.
 DE(Corr)= -0.75820680     E(CORR)=     -1355.1842213     Delta=-1.23D-08
 NORM(A)=   0.11535179D+01
 Iteration Nr.  17
 **********************
 DD1Dir will call FoFMem   1 times, MxPair=       156
 NAB=    78 NAA=     0 NBB=     0.
 DE(Corr)= -0.75820680     E(CORR)=     -1355.1842213     Delta= 6.10D-11
 NORM(A)=   0.11535179D+01
 Wavefunction amplitudes converged. E(Corr)=     -1355.1842213    
 Largest amplitude= 8.91D-02

 Z-amplitude iterations

 Iteration Nr.   1
 **********************
 DD1Dir will call FoFMem   1 times, MxPair=       156
 NAB=    78 NAA=     0 NBB=     0.
 DE(Z)= -0.72636208     E(Z)=     -1355.1523766     Delta= 3.18D-02
 NORM(A)=   0.11535321D+01
 Iteration Nr.   2
 **********************
 DD1Dir will call FoFMem   1 times, MxPair=       156
 NAB=    78 NAA=     0 NBB=     0.
 DE(Z)= -0.72636246     E(Z)=     -1355.1523770     Delta=-3.76D-07
 NORM(A)=   0.11535429D+01
 Iteration Nr.   3
 **********************
 DD1Dir will call FoFMem   1 times, MxPair=       156
 NAB=    78 NAA=     0 NBB=     0.
 DE(Z)= -0.72636275     E(Z)=     -1355.1523773     Delta=-2.90D-07
 NORM(A)=   0.11535336D+01
 Iteration Nr.   4
 **********************
 DD1Dir will call FoFMem   1 times, MxPair=       156
 NAB=    78 NAA=     0 NBB=     0.
 DE(Z)= -0.72636252     E(Z)=     -1355.1523770     Delta= 2.32D-07
 NORM(A)=   0.11535658D+01
 Iteration Nr.   5
 **********************
 DD1Dir will call FoFMem   1 times, MxPair=       156
 NAB=    78 NAA=     0 NBB=     0.
 DE(Z)= -0.72636345     E(Z)=     -1355.1523780     Delta=-9.31D-07
 NORM(A)=   0.11402766D+01
 Iteration Nr.   6
 **********************
 DD1Dir will call FoFMem   1 times, MxPair=       156
 NAB=    78 NAA=     0 NBB=     0.
 DE(Z)= -0.72597648     E(Z)=     -1355.1519910     Delta= 3.87D-04
 NORM(A)=   0.11402796D+01
 Iteration Nr.   7
 **********************
 DD1Dir will call FoFMem   1 times, MxPair=       156
 NAB=    78 NAA=     0 NBB=     0.
 DE(Z)= -0.72597486     E(Z)=     -1355.1519894     Delta= 1.63D-06
 NORM(A)=   0.11402792D+01
 Iteration Nr.   8
 **********************
 DD1Dir will call FoFMem   1 times, MxPair=       156
 NAB=    78 NAA=     0 NBB=     0.
 DE(Z)= -0.72597561     E(Z)=     -1355.1519901     Delta=-7.57D-07
 NORM(A)=   0.11402793D+01
 Iteration Nr.   9
 **********************
 DD1Dir will call FoFMem   1 times, MxPair=       156
 NAB=    78 NAA=     0 NBB=     0.
 DE(Z)= -0.72597560     E(Z)=     -1355.1519901     Delta= 1.24D-08
 NORM(A)=   0.11402793D+01
 Iteration Nr.  10
 **********************
 DD1Dir will call FoFMem   1 times, MxPair=       156
 NAB=    78 NAA=     0 NBB=     0.
 DE(Z)= -0.72597534     E(Z)=     -1355.1519899     Delta= 2.57D-07
 NORM(A)=   0.11402793D+01
 Iteration Nr.  11
 **********************
 DD1Dir will call FoFMem   1 times, MxPair=       156
 NAB=    78 NAA=     0 NBB=     0.
 DE(Z)= -0.72597546     E(Z)=     -1355.1519900     Delta=-1.16D-07
 NORM(A)=   0.11402795D+01
 Iteration Nr.  12
 **********************
 DD1Dir will call FoFMem   1 times, MxPair=       156
 NAB=    78 NAA=     0 NBB=     0.
 DE(Z)= -0.72597542     E(Z)=     -1355.1519899     Delta= 3.64D-08
 NORM(A)=   0.11402796D+01
 Iteration Nr.  13
 **********************
 DD1Dir will call FoFMem   1 times, MxPair=       156
 NAB=    78 NAA=     0 NBB=     0.
 DE(Z)= -0.72597546     E(Z)=     -1355.1519900     Delta=-4.02D-08
 NORM(A)=   0.11402796D+01
 Iteration Nr.  14
 **********************
 DD1Dir will call FoFMem   1 times, MxPair=       156
 NAB=    78 NAA=     0 NBB=     0.
 DE(Z)= -0.72597546     E(Z)=     -1355.1519900     Delta=-7.80D-11
 NORM(A)=   0.11402796D+01
 Z-amplitudes converged.
 Discarding MO integrals.
          Differentiating once with respect to electric field.
                with respect to dipole field.
          Electric field/nuclear overlap derivatives assumed to be zero.
 Keep R1 ints in memory in canonical form, NReq=194502114.
          There are     1 degrees of freedom in the 1st order CPHF.  IDoFFX=0 NUNeed=     1.
 LinEq1:  Iter=  0 NonCon=     1 RMS=2.08D-03 Max=6.35D-02 NDo=     1
 AX will form     1 AO Fock derivatives at one time.
 LinEq1:  Iter=  1 NonCon=     1 RMS=9.28D-04 Max=1.77D-02 NDo=     1
 LinEq1:  Iter=  2 NonCon=     1 RMS=4.11D-04 Max=1.02D-02 NDo=     1
 LinEq1:  Iter=  3 NonCon=     1 RMS=1.04D-04 Max=1.79D-03 NDo=     1
 LinEq1:  Iter=  4 NonCon=     1 RMS=2.44D-05 Max=8.02D-04 NDo=     1
 LinEq1:  Iter=  5 NonCon=     1 RMS=7.99D-06 Max=1.96D-04 NDo=     1
 LinEq1:  Iter=  6 NonCon=     1 RMS=2.41D-06 Max=8.99D-05 NDo=     1
 LinEq1:  Iter=  7 NonCon=     1 RMS=7.34D-07 Max=1.30D-05 NDo=     1
 LinEq1:  Iter=  8 NonCon=     1 RMS=1.36D-07 Max=2.08D-06 NDo=     1
 LinEq1:  Iter=  9 NonCon=     1 RMS=2.58D-08 Max=3.74D-07 NDo=     1
 LinEq1:  Iter= 10 NonCon=     1 RMS=6.84D-09 Max=1.66D-07 NDo=     1
 LinEq1:  Iter= 11 NonCon=     1 RMS=1.41D-09 Max=2.15D-08 NDo=     1
 LinEq1:  Iter= 12 NonCon=     1 RMS=3.22D-10 Max=5.24D-09 NDo=     1
 LinEq1:  Iter= 13 NonCon=     0 RMS=6.98D-11 Max=8.85D-10 NDo=     1
 Linear equations converged to 1.000D-10 1.000D-09 after    13 iterations.
 End of Minotr F.D. properties file   721 does not exist.
 End of Minotr F.D. properties file   722 does not exist.
 End of Minotr F.D. properties file   788 does not exist.

 **********************************************************************

            Population analysis using the CC Density.

 **********************************************************************

 Alpha  occ. eigenvalues -- -104.88797-104.88724 -91.97803 -11.44948 -10.61194
 Alpha  occ. eigenvalues --  -10.61126  -8.98098  -8.07871  -8.07803  -8.07661
 Alpha  occ. eigenvalues --   -8.07643  -8.07593  -8.07575  -6.66176  -6.66076
 Alpha  occ. eigenvalues --   -6.65927  -1.24302  -1.13393  -1.03989  -0.77141
 Alpha  occ. eigenvalues --   -0.64464  -0.60874  -0.58609  -0.50420  -0.49587
 Alpha  occ. eigenvalues --   -0.47765  -0.40763  -0.38098
 Alpha virt. eigenvalues --    0.01760   0.04855   0.06332   0.06897   0.10058
 Alpha virt. eigenvalues --    0.10095   0.10371   0.11213   0.11750   0.12854
 Alpha virt. eigenvalues --    0.15152   0.15355   0.16224   0.16375   0.16491
 Alpha virt. eigenvalues --    0.21174   0.21724   0.23253   0.26519   0.27059
 Alpha virt. eigenvalues --    0.28118   0.28928   0.30184   0.34377   0.34861
 Alpha virt. eigenvalues --    0.37876   0.38932   0.39845   0.40243   0.42244
 Alpha virt. eigenvalues --    0.44427   0.45461   0.45563   0.46239   0.48087
 Alpha virt. eigenvalues --    0.49027   0.50286   0.50805   0.54001   0.55294
 Alpha virt. eigenvalues --    0.56213   0.65319   0.65617   0.65731   0.70995
 Alpha virt. eigenvalues --    0.72510   0.73108   0.73864   0.74079   0.78492
 Alpha virt. eigenvalues --    0.79053   0.80264   0.80277   0.81666   0.83095
 Alpha virt. eigenvalues --    0.83355   0.86688   0.87415   0.88424   0.88577
 Alpha virt. eigenvalues --    0.91106   0.91960   0.92633   0.94724   0.95503
 Alpha virt. eigenvalues --    0.95818   0.97617   1.02016   1.03170   1.07827
 Alpha virt. eigenvalues --    1.11087   1.11521   1.12000   1.12845   1.17963
 Alpha virt. eigenvalues --    1.18694   1.20915   1.22829   1.28709   1.29512
 Alpha virt. eigenvalues --    1.31247   1.36191   1.39556   1.40428   1.47637
 Alpha virt. eigenvalues --    1.48640   1.52253   1.52918   1.53889   1.54894
 Alpha virt. eigenvalues --    1.61666   1.66293   1.68896   1.71153   1.71554
 Alpha virt. eigenvalues --    1.75234   1.83360   1.83387   1.85290   1.87497
 Alpha virt. eigenvalues --    1.87989   1.90012   1.98032   2.07241   2.07824
 Alpha virt. eigenvalues --    2.14157   2.17560   2.32368   2.32861   2.39128
 Alpha virt. eigenvalues --    2.39355   2.42974   2.44611   2.47253   2.47893
 Alpha virt. eigenvalues --    2.47920   2.53076   2.58184   2.58488   2.59935
 Alpha virt. eigenvalues --    2.60068   2.62398   2.64102   2.65266   2.65391
 Alpha virt. eigenvalues --    2.69603   2.83262   2.83825   2.87505   2.89441
 Alpha virt. eigenvalues --    2.90952   3.02686   3.02822   3.04864   3.05401
 Alpha virt. eigenvalues --    3.05454   3.07609   3.09585   3.13200   3.13509
 Alpha virt. eigenvalues --    3.14094   3.14858   3.19505   3.21559   3.23267
 Alpha virt. eigenvalues --    3.23772   3.35824   3.46774   3.55114   3.64702
 Alpha virt. eigenvalues --    3.70137   3.70644   3.72706   3.76522   3.84464
 Alpha virt. eigenvalues --    3.89274   3.91066   3.96936   4.13448   4.14771
 Alpha virt. eigenvalues --    4.20288   4.24068   4.70570   4.76728   6.45380
 Alpha virt. eigenvalues --    7.21372   7.27060   9.77148
          Condensed to atoms (all electrons):
               1          2          3          4
     1  C    5.673205   0.071723   0.070849   0.179139
     2  Cl   0.071723  17.192395  -0.119027  -0.129254
     3  Cl   0.070849  -0.119027  17.191569  -0.127872
     4  S    0.179139  -0.129254  -0.127872  16.051714
 Mulliken charges:
               1
     1  C    0.005085
     2  Cl  -0.015837
     3  Cl  -0.015519
     4  S    0.026272
 Sum of Mulliken charges =  -0.00000
 Mulliken charges with hydrogens summed into heavy atoms:
               1
     1  C    0.005085
     2  Cl  -0.015837
     3  Cl  -0.015519
     4  S    0.026272
 Electronic spatial extent (au):  <R**2>=            690.6827
 Charge=             -0.0000 electrons
 Dipole moment (field-independent basis, Debye):
    X=             -0.0000    Y=              0.0077    Z=             -0.4353  Tot=              0.4353
 Quadrupole moment (field-independent basis, Debye-Ang):
   XX=            -43.1531   YY=            -43.2922   ZZ=            -42.5377
   XY=             -0.0000   XZ=              0.0000   YZ=             -0.0439
 Traceless Quadrupole moment (field-independent basis, Debye-Ang):
   XX=             -0.1588   YY=             -0.2979   ZZ=              0.4566
   XY=             -0.0000   XZ=              0.0000   YZ=             -0.0439
 Octapole moment (field-independent basis, Debye-Ang**2):
  XXX=              0.0000  YYY=              0.4405  ZZZ=             81.6754  XYY=             -0.0000
  XXY=              0.1268  XXZ=             27.1312  XZZ=             -0.0000  YZZ=              0.1267
  YYZ=             18.9948  XYZ=              0.0000
 Hexadecapole moment (field-independent basis, Debye-Ang**3):
 XXXX=            -50.8943 YYYY=           -340.4887 ZZZZ=           -477.7210 XXXY=             -0.0000
 XXXZ=             -0.0000 YYYX=             -0.0000 YYYZ=              0.3628 ZZZX=              0.0000
 ZZZY=              0.1168 XXYY=            -69.2266 XXZZ=            -89.7492 YYZZ=           -127.3448
 XXYZ=              0.1058 YYXZ=              0.0000 ZZXY=             -0.0000
 N-N= 2.448922437359D+02 E-N=-3.713353311413D+03  KE= 1.355036298550D+03
 There are a total of       89716 grid points.
 ElSum from          density=       56.0000001767
 ElSum from atomic densities=       56.0000007137

 Hirshfeld populations at iteration   1 (CX, CA, CB, DipXYZ):
               1          2          3          4          5          6
     1  C    0.000001   2.959749   2.959749   0.000000   0.001337  -0.136767
     2  Cl   0.000016   8.505082   8.505082   0.000000  -0.061343  -0.019379
     3  Cl   0.000016   8.504387   8.504387   0.000000   0.061314  -0.021011
     4  S    0.000011   8.030782   8.030782   0.000000  -0.003189   0.157607
       Tot   0.000044  28.000000  28.000000   0.000000  -0.001882  -0.019549

 Dip from Atomic Chgs              0.000000   0.004923  -0.151695
         Total Dipole              0.000000   0.003041  -0.171244

 Hirshfeld charges, spin densities, dipoles, and CM5 charges using IRadAn=      5:
              Q-H        S-H        Dx         Dy         Dz        Q-CM5   
     1  C    0.080502   0.000000   0.000000   0.001337  -0.136767   0.098903
     2  Cl  -0.010164   0.000000   0.000000  -0.061343  -0.019379  -0.008674
     3  Cl  -0.008774   0.000000   0.000000   0.061314  -0.021011  -0.007314
     4  S   -0.061564   0.000000   0.000000  -0.003189   0.157607  -0.082914
       Tot  -0.000000   0.000000   0.000000  -0.001882  -0.019549  -0.000000
 Hirshfeld charges with hydrogens summed into heavy atoms:
              Q-H       Q-CM5   
     1  C    0.080502   0.098903
     2  Cl  -0.010164  -0.008674
     3  Cl  -0.008774  -0.007314
     4  S   -0.061564  -0.082914
 
 EQQ= 0.000000000000E+00 EQD= 0.000000000000E+00 EDD=-0.673647138591E-03
 EQQ+QD+DD=-0.673647138591E-03
 
 Breneman (CHELPG) radii used.
 Generate Potential Derived Charges using the Breneman model, NDens= 1.
 Grid spacing= 0.300 Box extension= 2.800
 NStep X,Y,Z=   20     30     29   Total possible points=       17400
 Number of Points to Fit=    4412

 **********************************************************************

            Electrostatic Properties Using The CC Density.

 **********************************************************************

       Atomic Center    1 is at   0.000000  0.000000 -0.522914
       Atomic Center    2 is at   0.000000 -1.430735 -1.500900
       Atomic Center    3 is at   0.000000  1.430735 -1.500900
       Atomic Center    4 is at   0.000000 -0.010000  1.081815
    4412 points will be used for fitting atomic charges
 Fitting point charges to electrostatic potential
 The dipole moment will be constrained to the correct value
 Charges from ESP fit, RMS=   0.00699 RRMS=   0.92875:
 ESP charges:
               1
     1  C    0.127170
     2  Cl  -0.022236
     3  Cl  -0.021693
     4  S   -0.083241
 Sum of ESP charges =   0.00000
 ESP charges with hydrogens summed into heavy atoms:
               1
     1  C    0.127170
     2  Cl  -0.022236
     3  Cl  -0.021693
     4  S   -0.083241
 Charge=   0.00000 Dipole=     0.0000     0.0077    -0.4353 Tot=     0.4353
 -----------------------------------------------------------------

              Electrostatic Properties (Atomic Units)

 -----------------------------------------------------------------
    Center     Electric         -------- Electric Field --------
               Potential          X             Y             Z
 -----------------------------------------------------------------
    1 Atom    -14.564542
    2 Atom    -64.377521
    3 Atom    -64.376863
    4 Atom    -59.209807
 -----------------------------------------------------------------
 ******************************Gaussian NBO Version 3.1******************************
             N A T U R A L   A T O M I C   O R B I T A L   A N D
          N A T U R A L   B O N D   O R B I T A L   A N A L Y S I S
 ******************************Gaussian NBO Version 3.1******************************
       /RESON  / : Allow strongly delocalized NBO set

 Analyzing the QCI/CC density

 Job title: cl2cs-wavefunction                                              

 Storage needed:    116194 in NPA (2147483536 available)
 GSVD:  LWork=        8166 too small for GESVD, short by       51245 words or       51245 for optimal perf.


 NATURAL POPULATIONS:  Natural atomic orbital occupancies 
                                                          
   NAO  Atom  No  lang   Type(AO)    Occupancy
 --------------------------------------------
     1    C    1  S      Cor( 1S)     1.99947
     2    C    1  S      Val( 2S)     1.16310
     3    C    1  S      Ryd( 3S)     0.00528
     4    C    1  S      Ryd( 4S)     0.00038
     5    C    1  S      Ryd( 5S)     0.00015
     6    C    1  px     Val( 2p)     1.02114
     7    C    1  px     Ryd( 3p)     0.00803
     8    C    1  px     Ryd( 4p)     0.00051
     9    C    1  px     Ryd( 5p)     0.00022
    10    C    1  py     Val( 2p)     0.95542
    11    C    1  py     Ryd( 3p)     0.02124
    12    C    1  py     Ryd( 5p)     0.00045
    13    C    1  py     Ryd( 4p)     0.00052
    14    C    1  pz     Val( 2p)     1.06805
    15    C    1  pz     Ryd( 3p)     0.02666
    16    C    1  pz     Ryd( 5p)     0.00036
    17    C    1  pz     Ryd( 4p)     0.00046
    18    C    1  dxy    Ryd( 3d)     0.01036
    19    C    1  dxy    Ryd( 4d)     0.00033
    20    C    1  dxy    Ryd( 5d)     0.00018
    21    C    1  dxz    Ryd( 3d)     0.01314
    22    C    1  dxz    Ryd( 4d)     0.00036
    23    C    1  dxz    Ryd( 5d)     0.00026
    24    C    1  dyz    Ryd( 3d)     0.01358
    25    C    1  dyz    Ryd( 4d)     0.00044
    26    C    1  dyz    Ryd( 5d)     0.00018
    27    C    1  dx2y2  Ryd( 3d)     0.00817
    28    C    1  dx2y2  Ryd( 4d)     0.00035
    29    C    1  dx2y2  Ryd( 5d)     0.00032
    30    C    1  dz2    Ryd( 3d)     0.01258
    31    C    1  dz2    Ryd( 4d)     0.00036
    32    C    1  dz2    Ryd( 5d)     0.00015
    33    C    1  f(0)   Ryd( 4f)     0.00480
    34    C    1  f(0)   Ryd( 5f)     0.00032
    35    C    1  f(C1)  Ryd( 4f)     0.00259
    36    C    1  f(C1)  Ryd( 5f)     0.00036
    37    C    1  f(S1)  Ryd( 4f)     0.00327
    38    C    1  f(S1)  Ryd( 5f)     0.00057
    39    C    1  f(C2)  Ryd( 4f)     0.00320
    40    C    1  f(C2)  Ryd( 5f)     0.00032
    41    C    1  f(S2)  Ryd( 4f)     0.00284
    42    C    1  f(S2)  Ryd( 5f)     0.00031
    43    C    1  f(C3)  Ryd( 4f)     0.00215
    44    C    1  f(C3)  Ryd( 5f)     0.00024
    45    C    1  f(S3)  Ryd( 4f)     0.00211
    46    C    1  f(S3)  Ryd( 5f)     0.00024

    47   Cl    2  S      Cor( 1S)     2.00000
    48   Cl    2  S      Cor( 2S)     1.99919
    49   Cl    2  S      Val( 3S)     1.81177
    50   Cl    2  S      Ryd( 4S)     0.00538
    51   Cl    2  S      Ryd( 5S)     0.00034
    52   Cl    2  S      Ryd( 6S)     0.00027
    53   Cl    2  px     Cor( 2p)     2.00002
    54   Cl    2  px     Val( 3p)     1.83738
    55   Cl    2  px     Ryd( 4p)     0.00887
    56   Cl    2  px     Ryd( 5p)     0.00052
    57   Cl    2  px     Ryd( 6p)     0.00010
    58   Cl    2  py     Cor( 2p)     1.99993
    59   Cl    2  py     Val( 3p)     1.43319
    60   Cl    2  py     Ryd( 4p)     0.00600
    61   Cl    2  py     Ryd( 5p)     0.00051
    62   Cl    2  py     Ryd( 6p)     0.00012
    63   Cl    2  pz     Cor( 2p)     1.99998
    64   Cl    2  pz     Val( 3p)     1.69588
    65   Cl    2  pz     Ryd( 4p)     0.00755
    66   Cl    2  pz     Ryd( 5p)     0.00050
    67   Cl    2  pz     Ryd( 6p)     0.00013
    68   Cl    2  dxy    Ryd( 3d)     0.01769
    69   Cl    2  dxy    Ryd( 4d)     0.00050
    70   Cl    2  dxy    Ryd( 5d)     0.00012
    71   Cl    2  dxz    Ryd( 3d)     0.01842
    72   Cl    2  dxz    Ryd( 4d)     0.00062
    73   Cl    2  dxz    Ryd( 5d)     0.00013
    74   Cl    2  dyz    Ryd( 3d)     0.02250
    75   Cl    2  dyz    Ryd( 4d)     0.00046
    76   Cl    2  dyz    Ryd( 5d)     0.00014
    77   Cl    2  dx2y2  Ryd( 3d)     0.01965
    78   Cl    2  dx2y2  Ryd( 4d)     0.00051
    79   Cl    2  dx2y2  Ryd( 5d)     0.00012
    80   Cl    2  dz2    Ryd( 3d)     0.01706
    81   Cl    2  dz2    Ryd( 4d)     0.00051
    82   Cl    2  dz2    Ryd( 5d)     0.00018
    83   Cl    2  f(0)   Ryd( 4f)     0.00131
    84   Cl    2  f(0)   Ryd( 5f)     0.00014
    85   Cl    2  f(C1)  Ryd( 4f)     0.00134
    86   Cl    2  f(C1)  Ryd( 5f)     0.00013
    87   Cl    2  f(S1)  Ryd( 4f)     0.00128
    88   Cl    2  f(S1)  Ryd( 5f)     0.00018
    89   Cl    2  f(C2)  Ryd( 4f)     0.00153
    90   Cl    2  f(C2)  Ryd( 5f)     0.00015
    91   Cl    2  f(S2)  Ryd( 4f)     0.00134
    92   Cl    2  f(S2)  Ryd( 5f)     0.00015
    93   Cl    2  f(C3)  Ryd( 4f)     0.00132
    94   Cl    2  f(C3)  Ryd( 5f)     0.00015
    95   Cl    2  f(S3)  Ryd( 4f)     0.00134
    96   Cl    2  f(S3)  Ryd( 5f)     0.00015

    97   Cl    3  S      Cor( 1S)     2.00000
    98   Cl    3  S      Cor( 2S)     1.99918
    99   Cl    3  S      Val( 3S)     1.81155
   100   Cl    3  S      Ryd( 4S)     0.00538
   101   Cl    3  S      Ryd( 5S)     0.00034
   102   Cl    3  S      Ryd( 6S)     0.00027
   103   Cl    3  px     Cor( 2p)     2.00002
   104   Cl    3  px     Val( 3p)     1.83720
   105   Cl    3  px     Ryd( 4p)     0.00886
   106   Cl    3  px     Ryd( 5p)     0.00052
   107   Cl    3  px     Ryd( 6p)     0.00010
   108   Cl    3  py     Cor( 2p)     1.99993
   109   Cl    3  py     Val( 3p)     1.43369
   110   Cl    3  py     Ryd( 4p)     0.00600
   111   Cl    3  py     Ryd( 5p)     0.00051
   112   Cl    3  py     Ryd( 6p)     0.00012
   113   Cl    3  pz     Cor( 2p)     1.99998
   114   Cl    3  pz     Val( 3p)     1.69431
   115   Cl    3  pz     Ryd( 4p)     0.00752
   116   Cl    3  pz     Ryd( 5p)     0.00050
   117   Cl    3  pz     Ryd( 6p)     0.00013
   118   Cl    3  dxy    Ryd( 3d)     0.01768
   119   Cl    3  dxy    Ryd( 4d)     0.00050
   120   Cl    3  dxy    Ryd( 5d)     0.00012
   121   Cl    3  dxz    Ryd( 3d)     0.01840
   122   Cl    3  dxz    Ryd( 4d)     0.00062
   123   Cl    3  dxz    Ryd( 5d)     0.00013
   124   Cl    3  dyz    Ryd( 3d)     0.02251
   125   Cl    3  dyz    Ryd( 4d)     0.00046
   126   Cl    3  dyz    Ryd( 5d)     0.00014
   127   Cl    3  dx2y2  Ryd( 3d)     0.01963
   128   Cl    3  dx2y2  Ryd( 4d)     0.00051
   129   Cl    3  dx2y2  Ryd( 5d)     0.00012
   130   Cl    3  dz2    Ryd( 3d)     0.01702
   131   Cl    3  dz2    Ryd( 4d)     0.00050
   132   Cl    3  dz2    Ryd( 5d)     0.00018
   133   Cl    3  f(0)   Ryd( 4f)     0.00131
   134   Cl    3  f(0)   Ryd( 5f)     0.00014
   135   Cl    3  f(C1)  Ryd( 4f)     0.00134
   136   Cl    3  f(C1)  Ryd( 5f)     0.00013
   137   Cl    3  f(S1)  Ryd( 4f)     0.00128
   138   Cl    3  f(S1)  Ryd( 5f)     0.00018
   139   Cl    3  f(C2)  Ryd( 4f)     0.00152
   140   Cl    3  f(C2)  Ryd( 5f)     0.00015
   141   Cl    3  f(S2)  Ryd( 4f)     0.00134
   142   Cl    3  f(S2)  Ryd( 5f)     0.00015
   143   Cl    3  f(C3)  Ryd( 4f)     0.00132
   144   Cl    3  f(C3)  Ryd( 5f)     0.00015
   145   Cl    3  f(S3)  Ryd( 4f)     0.00134
   146   Cl    3  f(S3)  Ryd( 5f)     0.00015

   147    S    4  S      Cor( 1S)     2.00000
   148    S    4  S      Cor( 2S)     1.99839
   149    S    4  S      Val( 3S)     1.70558
   150    S    4  S      Ryd( 4S)     0.00836
   151    S    4  S      Ryd( 5S)     0.00038
   152    S    4  S      Ryd( 6S)     0.00023
   153    S    4  px     Cor( 2p)     1.99989
   154    S    4  px     Val( 3p)     1.15880
   155    S    4  px     Ryd( 4p)     0.00481
   156    S    4  px     Ryd( 5p)     0.00032
   157    S    4  px     Ryd( 6p)     0.00011
   158    S    4  py     Cor( 2p)     2.00000
   159    S    4  py     Val( 3p)     1.77964
   160    S    4  py     Ryd( 4p)     0.01023
   161    S    4  py     Ryd( 5p)     0.00047
   162    S    4  py     Ryd( 6p)     0.00014
   163    S    4  pz     Cor( 2p)     1.99966
   164    S    4  pz     Val( 3p)     1.04402
   165    S    4  pz     Ryd( 4p)     0.00516
   166    S    4  pz     Ryd( 5p)     0.00046
   167    S    4  pz     Ryd( 6p)     0.00009
   168    S    4  dxy    Ryd( 3d)     0.01613
   169    S    4  dxy    Ryd( 4d)     0.00053
   170    S    4  dxy    Ryd( 5d)     0.00009
   171    S    4  dxz    Ryd( 3d)     0.01692
   172    S    4  dxz    Ryd( 4d)     0.00035
   173    S    4  dxz    Ryd( 5d)     0.00008
   174    S    4  dyz    Ryd( 3d)     0.01391
   175    S    4  dyz    Ryd( 4d)     0.00037
   176    S    4  dyz    Ryd( 5d)     0.00028
   177    S    4  dx2y2  Ryd( 3d)     0.01566
   178    S    4  dx2y2  Ryd( 4d)     0.00054
   179    S    4  dx2y2  Ryd( 5d)     0.00010
   180    S    4  dz2    Ryd( 3d)     0.02151
   181    S    4  dz2    Ryd( 4d)     0.00041
   182    S    4  dz2    Ryd( 5d)     0.00010
   183    S    4  f(0)   Ryd( 4f)     0.00121
   184    S    4  f(0)   Ryd( 5f)     0.00021
   185    S    4  f(C1)  Ryd( 4f)     0.00094
   186    S    4  f(C1)  Ryd( 5f)     0.00015
   187    S    4  f(S1)  Ryd( 4f)     0.00109
   188    S    4  f(S1)  Ryd( 5f)     0.00016
   189    S    4  f(C2)  Ryd( 4f)     0.00091
   190    S    4  f(C2)  Ryd( 5f)     0.00014
   191    S    4  f(S2)  Ryd( 4f)     0.00095
   192    S    4  f(S2)  Ryd( 5f)     0.00012
   193    S    4  f(C3)  Ryd( 4f)     0.00136
   194    S    4  f(C3)  Ryd( 5f)     0.00013
   195    S    4  f(S3)  Ryd( 4f)     0.00136
   196    S    4  f(S3)  Ryd( 5f)     0.00013

 WARNING:  1 low occupancy (<1.9990e) core orbital  found on  S    4


 Summary of Natural Population Analysis:                  
                                                          
                                       Natural Population 
                Natural  -----------------------------------------------
    Atom  No    Charge         Core      Valence    Rydberg      Total
 -----------------------------------------------------------------------
      C    1   -0.35551      1.99947     4.20770    0.14834     6.35551
     Cl    2    0.08324      9.99912     6.77822    0.13942    16.91676
     Cl    3    0.08484      9.99912     6.77675    0.13928    16.91516
      S    4    0.18742      9.99794     5.68804    0.12660    15.81258
 =======================================================================
   * Total *   -0.00000     31.99565    23.45071    0.55364    56.00000

                                 Natural Population      
 --------------------------------------------------------
   Core                      31.99565 ( 99.9864% of  32)
   Valence                   23.45071 ( 97.7113% of  24)
   Natural Minimal Basis     55.44636 ( 99.0114% of  56)
   Natural Rydberg Basis      0.55364 (  0.9886% of  56)
 --------------------------------------------------------

    Atom  No          Natural Electron Configuration
 ----------------------------------------------------------------------------
      C    1      [core]2S( 1.16)2p( 3.04)3S( 0.01)3p( 0.06)3d( 0.06)4f( 0.02)
     Cl    2      [core]3S( 1.81)3p( 4.97)4S( 0.01)3d( 0.10)4p( 0.02)4f( 0.01)
     Cl    3      [core]3S( 1.81)3p( 4.97)4S( 0.01)3d( 0.10)4p( 0.02)4f( 0.01)
      S    4      [core]3S( 1.71)3p( 3.98)4S( 0.01)3d( 0.08)4p( 0.02)4f( 0.01)


 NBO analysis skipped by request.
 Unable to Open any file for archive entry.
 1\1\GINC-TRAPISTA\SP\RQCISD-FC\Aug-CC-pVTZ\C1Cl2S1\WAGNER\04-Sep-2022\
 0\\# qcisd/aug-cc-pvtz nosymm density=current pop=(chelpg,hirshfeld,np
 a,dipole)\\cl2cs-wavefunction\\0,1\C,0,0.,0.,-0.522914\Cl,0,0.,-1.4307
 35,-1.5009\Cl,0,0.,1.430735,-1.5009\S,0,0.,-0.01,1.081815\\Version=EM6
 4L-G16RevC.01\HF=-1354.4260145\MP2=-1355.1503905\MP3=-1355.18299\MP4D=
 -1355.2047703\MP4DQ=-1355.1798839\MP4SDQ=-1355.1867074\QCISD=-1355.184
 2213\RMSD=8.684e-09\Dipole=0.,0.0030408,-0.1712435\Quadrupole=-0.11805
 17,-0.2214517,0.3395034,0.,0.,-0.0326577\PG=CS [SG(C1Cl2S1)]\\@
 The archive entry for this job was punched.


 I HAVE NOT FAILED, I HAVE ONLY DISCOVERED 10,000
 WAYS THAT DIDN'T WORK.  -- THOMAS A. EDISON
 Job cpu time:       0 days  7 hours  9 minutes 27.2 seconds.
 Elapsed time:       0 days  0 hours 27 minutes  9.6 seconds.
 File lengths (MBytes):  RWF=  23427 Int=      0 D2E=      0 Chk=      4 Scr=      1
 Normal termination of Gaussian 16 at Sun Sep  4 17:00:46 2022.
