 Entering Gaussian System, Link 0=/home/wagner/chemistry/gaussian/g16/g16
 Input=GAUSSIAN.com
 Output=GAUSSIAN.log
 Initial command:
 /home/wagner/chemistry/gaussian/g16/l1.exe "/home/wagner/chemistry/gaussian/work/Gau-48412.inp" -scrdir="/home/wagner/chemistry/gaussian/work/"
 Entering Link 1 = /home/wagner/chemistry/gaussian/g16/l1.exe PID=     48414.
  
 Copyright (c) 1988-2019, Gaussian, Inc.  All Rights Reserved.
  
 This is part of the Gaussian(R) 16 program.  It is based on
 the Gaussian(R) 09 system (copyright 2009, Gaussian, Inc.),
 the Gaussian(R) 03 system (copyright 2003, Gaussian, Inc.),
 the Gaussian(R) 98 system (copyright 1998, Gaussian, Inc.),
 the Gaussian(R) 94 system (copyright 1995, Gaussian, Inc.),
 the Gaussian 92(TM) system (copyright 1992, Gaussian, Inc.),
 the Gaussian 90(TM) system (copyright 1990, Gaussian, Inc.),
 the Gaussian 88(TM) system (copyright 1988, Gaussian, Inc.),
 the Gaussian 86(TM) system (copyright 1986, Carnegie Mellon
 University), and the Gaussian 82(TM) system (copyright 1983,
 Carnegie Mellon University). Gaussian is a federally registered
 trademark of Gaussian, Inc.
  
 This software contains proprietary and confidential information,
 including trade secrets, belonging to Gaussian, Inc.
  
 This software is provided under written license and may be
 used, copied, transmitted, or stored only in accord with that
 written license.
  
 The following legend is applicable only to US Government
 contracts under FAR:
  
                    RESTRICTED RIGHTS LEGEND
  
 Use, reproduction and disclosure by the US Government is
 subject to restrictions as set forth in subparagraphs (a)
 and (c) of the Commercial Computer Software - Restricted
 Rights clause in FAR 52.227-19.
  
 Gaussian, Inc.
 340 Quinnipiac St., Bldg. 40, Wallingford CT 06492
  
  
 ---------------------------------------------------------------
 Warning -- This program may not be used in any manner that
 competes with the business of Gaussian, Inc. or will provide
 assistance to any competitor of Gaussian, Inc.  The licensee
 of this program is prohibited from giving any competitor of
 Gaussian, Inc. access to this program.  By using this program,
 the user acknowledges that Gaussian, Inc. is engaged in the
 business of creating and licensing software in the field of
 computational chemistry and represents and warrants to the
 licensee that it is not a competitor of Gaussian, Inc. and that
 it will not use this program in any manner prohibited above.
 ---------------------------------------------------------------
  

 Cite this work as:
 Gaussian 16, Revision C.01,
 M. J. Frisch, G. W. Trucks, H. B. Schlegel, G. E. Scuseria, 
 M. A. Robb, J. R. Cheeseman, G. Scalmani, V. Barone, 
 G. A. Petersson, H. Nakatsuji, X. Li, M. Caricato, A. V. Marenich, 
 J. Bloino, B. G. Janesko, R. Gomperts, B. Mennucci, H. P. Hratchian, 
 J. V. Ortiz, A. F. Izmaylov, J. L. Sonnenberg, D. Williams-Young, 
 F. Ding, F. Lipparini, F. Egidi, J. Goings, B. Peng, A. Petrone, 
 T. Henderson, D. Ranasinghe, V. G. Zakrzewski, J. Gao, N. Rega, 
 G. Zheng, W. Liang, M. Hada, M. Ehara, K. Toyota, R. Fukuda, 
 J. Hasegawa, M. Ishida, T. Nakajima, Y. Honda, O. Kitao, H. Nakai, 
 T. Vreven, K. Throssell, J. A. Montgomery, Jr., J. E. Peralta, 
 F. Ogliaro, M. J. Bearpark, J. J. Heyd, E. N. Brothers, K. N. Kudin, 
 V. N. Staroverov, T. A. Keith, R. Kobayashi, J. Normand, 
 K. Raghavachari, A. P. Rendell, J. C. Burant, S. S. Iyengar, 
 J. Tomasi, M. Cossi, J. M. Millam, M. Klene, C. Adamo, R. Cammi, 
 J. W. Ochterski, R. L. Martin, K. Morokuma, O. Farkas, 
 J. B. Foresman, and D. J. Fox, Gaussian, Inc., Wallingford CT, 2019.
 
 ******************************************
 Gaussian 16:  EM64L-G16RevC.01  3-Jul-2019
                 4-Sep-2022 
 ******************************************
 %nproc=16
 Will use up to   16 processors via shared memory.
 %mem=16GB
 ----------------------------------------------------------------------
 # qcisd/aug-cc-pvtz nosymm density=current pop=(chelpg,hirshfeld,npa,d
 ipole)
 ----------------------------------------------------------------------
 1/30=1,38=1,172=1/1;
 2/12=2,15=1,17=6,18=5,40=1/2;
 3/5=16,6=1,7=10,11=9,25=1,30=1,71=1/1,2,3;
 4//1;
 5/5=2,38=5/2;
 8/6=4,9=120000,10=1/1,4;
 9/5=8,15=1/13;
 11/28=-7,31=1,32=3,42=3/11;
 10/5=6,13=10,31=1/2;
 6/7=2,8=2,9=2,10=2,15=24,20=3,22=-1,40=-1,79=1/1,2,7;
 99/5=1,9=1/99;
 ------------------
 cl2cs-wavefunction
 ------------------
 Symbolic Z-matrix:
 Charge =  0 Multiplicity = 1
 C                     0.        0.       -0.52291 
 Cl                    0.       -1.43074  -1.5009 
 Cl                    0.        1.42074  -1.5009 
 S                     0.        0.        1.08181 
 
                          Input orientation:                          
 ---------------------------------------------------------------------
 Center     Atomic      Atomic             Coordinates (Angstroms)
 Number     Number       Type             X           Y           Z
 ---------------------------------------------------------------------
      1          6           0        0.000000    0.000000   -0.522914
      2         17           0        0.000000   -1.430735   -1.500900
      3         17           0        0.000000    1.420735   -1.500900
      4         16           0        0.000000    0.000000    1.081815
 ---------------------------------------------------------------------
                    Distance matrix (angstroms):
                    1          2          3          4
     1  C    0.000000
     2  Cl   1.733049   0.000000
     3  Cl   1.724803   2.851470   0.000000
     4  S    1.604729   2.952528   2.947695   0.000000
 Symmetry turned off by external request.
 Stoichiometry    CCl2S
 Framework group  CS[SG(CCl2S)]
 Deg. of freedom     5
 Full point group                 CS      NOp   2
 Rotational constants (GHZ):           3.5553540           3.4454648           1.7497735
 Standard basis: Aug-CC-pVTZ (5D, 7F)
   196 basis functions,   414 primitive gaussians,   232 cartesian basis functions
    28 alpha electrons       28 beta electrons
       nuclear repulsion energy       245.3092879702 Hartrees.
 NAtoms=    4 NActive=    4 NUniq=    4 SFac= 1.00D+00 NAtFMM=   60 NAOKFM=F Big=F
 Integral buffers will be    131072 words long.
 Raffenetti 1 integral format.
 Two-electron integral symmetry is turned off.
 One-electron integrals computed using PRISM.
 NBasis=   196 RedAO= T EigKep=  9.05D-05  NBF=   196
 NBsUse=   196 1.00D-06 EigRej= -1.00D+00 NBFU=   196
 ExpMin= 3.51D-02 ExpMax= 4.56D+05 ExpMxC= 1.44D+03 IAcc=3 IRadAn=         5 AccDes= 0.00D+00
 Harris functional with IExCor=  205 and IRadAn=       5 diagonalized for initial guess.
 HarFok:  IExCor=  205 AccDes= 0.00D+00 IRadAn=         5 IDoV= 1 UseB2=F ITyADJ=14
 ICtDFT=  3500011 ScaDFX=  1.000000  1.000000  1.000000  1.000000
 FoFCou: FMM=F IPFlag=           0 FMFlag=      100000 FMFlg1=           0
         NFxFlg=           0 DoJE=T BraDBF=F KetDBF=T FulRan=T
         wScrn=  0.000000 ICntrl=       500 IOpCl=  0 I1Cent=   200000004 NGrid=           0
         NMat0=    1 NMatS0=      1 NMatT0=    0 NMatD0=    1 NMtDS0=    0 NMtDT0=    0
 Symmetry not used in FoFCou.
 Keep R1 ints in memory in canonical form, NReq=194496737.
 Requested convergence on RMS density matrix=1.00D-08 within 128 cycles.
 Requested convergence on MAX density matrix=1.00D-06.
 Requested convergence on             energy=1.00D-06.
 No special actions if energy rises.
 SCF Done:  E(RHF) =  -1354.42610052     A.U. after   12 cycles
            NFock= 12  Conv=0.90D-08     -V/T= 2.0001
 ExpMin= 3.51D-02 ExpMax= 4.56D+05 ExpMxC= 1.44D+03 IAcc=3 IRadAn=         5 AccDes= 0.00D+00
 HarFok:  IExCor=  205 AccDes= 0.00D+00 IRadAn=         5 IDoV=-2 UseB2=F ITyADJ=14
 ICtDFT= 12500011 ScaDFX=  1.000000  1.000000  1.000000  1.000000
 Range of M.O.s used for correlation:    17   196
 NBasis=   196 NAE=    28 NBE=    28 NFC=    16 NFV=     0
 NROrb=    180 NOA=    12 NOB=    12 NVA=   168 NVB=   168

 **** Warning!!: The largest alpha MO coefficient is  0.31224183D+02

 Semi-Direct transformation.
 ModeAB=           2 MOrb=            12 LenV=    2146408781
 LASXX=     33405819 LTotXX=    33405819 LenRXX=    33405819
 LTotAB=    33954012 MaxLAS=    58380480 LenRXY=    58380480
 NonZer=    66811638 LenScr=   100987392 LnRSAI=           0
 LnScr1=           0 LExtra=           0 Total=    192773691
 MaxDsk=          -1 SrtSym=           F ITran=            4
 JobTyp=0 Pass  1:  I=   1 to  12.
 (rs|ai) integrals will be sorted in core.
 Spin components of T(2) and E(2):
     alpha-alpha T2 =       0.3950199893D-01 E2=     -0.9368358606D-01
     alpha-beta  T2 =       0.2070048048D+00 E2=     -0.5369324462D+00
     beta-beta   T2 =       0.3950199893D-01 E2=     -0.9368358606D-01
 ANorm=    0.1134023281D+01
 E2 =    -0.7242996183D+00 EUMP2 =    -0.13551504001395D+04
 Keep R2 and R3 ints in memory in canonical form, NReq=380876040.
 CIDS: In Core Option IDoMem=           1.
 Iterations=  50 Convergence= 0.100D-07
 Produce multiple copies of IABC intergrals
 Iteration Nr.   1
 **********************
 DD1Dir will call FoFMem   1 times, MxPair=       156
 NAB=    78 NAA=     0 NBB=     0.
 MP4(R+Q)=  0.24857229D-01
 E3=       -0.32603513D-01        EUMP3=      -0.13551830037D+04
 E4(DQ)=    0.31235918D-02        UMP4(DQ)=   -0.13551798801D+04
 E4(SDQ)=  -0.36713158D-02        UMP4(SDQ)=  -0.13551866750D+04
 DE(Corr)= -0.73204590     E(Corr)=     -1355.1581464    
 NORM(A)=   0.11379501D+01
 Iteration Nr.   2
 **********************
 DD1Dir will call FoFMem   1 times, MxPair=       156
 NAB=    78 NAA=     0 NBB=     0.
 DE(Corr)= -0.75631226     E(CORR)=     -1355.1824128     Delta=-2.43D-02
 NORM(A)=   0.11489159D+01
 Iteration Nr.   3
 **********************
 DD1Dir will call FoFMem   1 times, MxPair=       156
 NAB=    78 NAA=     0 NBB=     0.
 DE(Corr)= -0.75551041     E(CORR)=     -1355.1816109     Delta= 8.02D-04
 NORM(A)=   0.11516437D+01
 Iteration Nr.   4
 **********************
 DD1Dir will call FoFMem   1 times, MxPair=       156
 NAB=    78 NAA=     0 NBB=     0.
 DE(Corr)= -0.75776162     E(CORR)=     -1355.1838621     Delta=-2.25D-03
 NORM(A)=   0.11527154D+01
 Iteration Nr.   5
 **********************
 DD1Dir will call FoFMem   1 times, MxPair=       156
 NAB=    78 NAA=     0 NBB=     0.
 DE(Corr)= -0.75803816     E(CORR)=     -1355.1841387     Delta=-2.77D-04
 NORM(A)=   0.11532495D+01
 Iteration Nr.   6
 **********************
 DD1Dir will call FoFMem   1 times, MxPair=       156
 NAB=    78 NAA=     0 NBB=     0.
 DE(Corr)= -0.75809072     E(CORR)=     -1355.1841912     Delta=-5.26D-05
 NORM(A)=   0.11533121D+01
 Iteration Nr.   7
 **********************
 DD1Dir will call FoFMem   1 times, MxPair=       156
 NAB=    78 NAA=     0 NBB=     0.
 DE(Corr)= -0.75809792     E(CORR)=     -1355.1841984     Delta=-7.19D-06
 NORM(A)=   0.11533173D+01
 Iteration Nr.   8
 **********************
 DD1Dir will call FoFMem   1 times, MxPair=       156
 NAB=    78 NAA=     0 NBB=     0.
 DE(Corr)= -0.75809604     E(CORR)=     -1355.1841966     Delta= 1.88D-06
 NORM(A)=   0.11533238D+01
 Iteration Nr.   9
 **********************
 DD1Dir will call FoFMem   1 times, MxPair=       156
 NAB=    78 NAA=     0 NBB=     0.
 DE(Corr)= -0.75809608     E(CORR)=     -1355.1841966     Delta=-4.83D-08
 NORM(A)=   0.11533226D+01
 Iteration Nr.  10
 **********************
 DD1Dir will call FoFMem   1 times, MxPair=       156
 NAB=    78 NAA=     0 NBB=     0.
 DE(Corr)= -0.75809706     E(CORR)=     -1355.1841976     Delta=-9.79D-07
 NORM(A)=   0.11533244D+01
 Iteration Nr.  11
 **********************
 DD1Dir will call FoFMem   1 times, MxPair=       156
 NAB=    78 NAA=     0 NBB=     0.
 DE(Corr)= -0.75809774     E(CORR)=     -1355.1841983     Delta=-6.76D-07
 NORM(A)=   0.11533254D+01
 Iteration Nr.  12
 **********************
 DD1Dir will call FoFMem   1 times, MxPair=       156
 NAB=    78 NAA=     0 NBB=     0.
 DE(Corr)= -0.75809796     E(CORR)=     -1355.1841985     Delta=-2.24D-07
 NORM(A)=   0.11533261D+01
 Iteration Nr.  13
 **********************
 DD1Dir will call FoFMem   1 times, MxPair=       156
 NAB=    78 NAA=     0 NBB=     0.
 DE(Corr)= -0.75809824     E(CORR)=     -1355.1841988     Delta=-2.82D-07
 NORM(A)=   0.11533266D+01
 Iteration Nr.  14
 **********************
 DD1Dir will call FoFMem   1 times, MxPair=       156
 NAB=    78 NAA=     0 NBB=     0.
 DE(Corr)= -0.75809827     E(CORR)=     -1355.1841988     Delta=-2.85D-08
 NORM(A)=   0.11533268D+01
 Iteration Nr.  15
 **********************
 DD1Dir will call FoFMem   1 times, MxPair=       156
 NAB=    78 NAA=     0 NBB=     0.
 DE(Corr)= -0.75809833     E(CORR)=     -1355.1841988     Delta=-5.42D-08
 NORM(A)=   0.11533269D+01
 Iteration Nr.  16
 **********************
 DD1Dir will call FoFMem   1 times, MxPair=       156
 NAB=    78 NAA=     0 NBB=     0.
 DE(Corr)= -0.75809834     E(CORR)=     -1355.1841989     Delta=-1.22D-08
 NORM(A)=   0.11533269D+01
 Iteration Nr.  17
 **********************
 DD1Dir will call FoFMem   1 times, MxPair=       156
 NAB=    78 NAA=     0 NBB=     0.
 DE(Corr)= -0.75809834     E(CORR)=     -1355.1841989     Delta= 1.77D-10
 NORM(A)=   0.11533269D+01
 Wavefunction amplitudes converged. E(Corr)=     -1355.1841989    
 Largest amplitude= 8.90D-02

 Z-amplitude iterations

 Iteration Nr.   1
 **********************
 DD1Dir will call FoFMem   1 times, MxPair=       156
 NAB=    78 NAA=     0 NBB=     0.
 DE(Z)= -0.72630638     E(Z)=     -1355.1524069     Delta= 3.18D-02
 NORM(A)=   0.11533441D+01
 Iteration Nr.   2
 **********************
 DD1Dir will call FoFMem   1 times, MxPair=       156
 NAB=    78 NAA=     0 NBB=     0.
 DE(Z)= -0.72630684     E(Z)=     -1355.1524074     Delta=-4.60D-07
 NORM(A)=   0.11533042D+01
 Iteration Nr.   3
 **********************
 DD1Dir will call FoFMem   1 times, MxPair=       156
 NAB=    78 NAA=     0 NBB=     0.
 DE(Z)= -0.72630577     E(Z)=     -1355.1524063     Delta= 1.07D-06
 NORM(A)=   0.11533738D+01
 Iteration Nr.   4
 **********************
 DD1Dir will call FoFMem   1 times, MxPair=       156
 NAB=    78 NAA=     0 NBB=     0.
 DE(Z)= -0.72630769     E(Z)=     -1355.1524082     Delta=-1.91D-06
 NORM(A)=   0.11532452D+01
 Iteration Nr.   5
 **********************
 DD1Dir will call FoFMem   1 times, MxPair=       156
 NAB=    78 NAA=     0 NBB=     0.
 DE(Z)= -0.72630403     E(Z)=     -1355.1524046     Delta= 3.66D-06
 NORM(A)=   0.11401216D+01
 Iteration Nr.   6
 **********************
 DD1Dir will call FoFMem   1 times, MxPair=       156
 NAB=    78 NAA=     0 NBB=     0.
 DE(Z)= -0.72591970     E(Z)=     -1355.1520202     Delta= 3.84D-04
 NORM(A)=   0.11401212D+01
 Iteration Nr.   7
 **********************
 DD1Dir will call FoFMem   1 times, MxPair=       156
 NAB=    78 NAA=     0 NBB=     0.
 DE(Z)= -0.72591804     E(Z)=     -1355.1520186     Delta= 1.66D-06
 NORM(A)=   0.11401210D+01
 Iteration Nr.   8
 **********************
 DD1Dir will call FoFMem   1 times, MxPair=       156
 NAB=    78 NAA=     0 NBB=     0.
 DE(Z)= -0.72591888     E(Z)=     -1355.1520194     Delta=-8.37D-07
 NORM(A)=   0.11401215D+01
 Iteration Nr.   9
 **********************
 DD1Dir will call FoFMem   1 times, MxPair=       156
 NAB=    78 NAA=     0 NBB=     0.
 DE(Z)= -0.72591880     E(Z)=     -1355.1520193     Delta= 7.19D-08
 NORM(A)=   0.11401220D+01
 Iteration Nr.  10
 **********************
 DD1Dir will call FoFMem   1 times, MxPair=       156
 NAB=    78 NAA=     0 NBB=     0.
 DE(Z)= -0.72591873     E(Z)=     -1355.1520193     Delta= 7.27D-08
 NORM(A)=   0.11401222D+01
 Iteration Nr.  11
 **********************
 DD1Dir will call FoFMem   1 times, MxPair=       156
 NAB=    78 NAA=     0 NBB=     0.
 DE(Z)= -0.72591883     E(Z)=     -1355.1520193     Delta=-9.47D-08
 NORM(A)=   0.11401222D+01
 Iteration Nr.  12
 **********************
 DD1Dir will call FoFMem   1 times, MxPair=       156
 NAB=    78 NAA=     0 NBB=     0.
 DE(Z)= -0.72591877     E(Z)=     -1355.1520193     Delta= 5.56D-08
 NORM(A)=   0.11401222D+01
 Iteration Nr.  13
 **********************
 DD1Dir will call FoFMem   1 times, MxPair=       156
 NAB=    78 NAA=     0 NBB=     0.
 DE(Z)= -0.72591880     E(Z)=     -1355.1520193     Delta=-2.56D-08
 NORM(A)=   0.11401222D+01
 Iteration Nr.  14
 **********************
 DD1Dir will call FoFMem   1 times, MxPair=       156
 NAB=    78 NAA=     0 NBB=     0.
 DE(Z)= -0.72591878     E(Z)=     -1355.1520193     Delta= 1.89D-08
 NORM(A)=   0.11401222D+01
 Iteration Nr.  15
 **********************
 DD1Dir will call FoFMem   1 times, MxPair=       156
 NAB=    78 NAA=     0 NBB=     0.
 DE(Z)= -0.72591878     E(Z)=     -1355.1520193     Delta=-4.69D-09
 NORM(A)=   0.11401222D+01
 Z-amplitudes converged.
 Discarding MO integrals.
          Differentiating once with respect to electric field.
                with respect to dipole field.
          Electric field/nuclear overlap derivatives assumed to be zero.
 Keep R1 ints in memory in canonical form, NReq=194502172.
          There are     1 degrees of freedom in the 1st order CPHF.  IDoFFX=0 NUNeed=     1.
 LinEq1:  Iter=  0 NonCon=     1 RMS=2.08D-03 Max=6.34D-02 NDo=     1
 AX will form     1 AO Fock derivatives at one time.
 LinEq1:  Iter=  1 NonCon=     1 RMS=9.26D-04 Max=1.74D-02 NDo=     1
 LinEq1:  Iter=  2 NonCon=     1 RMS=4.09D-04 Max=1.01D-02 NDo=     1
 LinEq1:  Iter=  3 NonCon=     1 RMS=1.03D-04 Max=1.79D-03 NDo=     1
 LinEq1:  Iter=  4 NonCon=     1 RMS=2.45D-05 Max=8.19D-04 NDo=     1
 LinEq1:  Iter=  5 NonCon=     1 RMS=8.05D-06 Max=2.01D-04 NDo=     1
 LinEq1:  Iter=  6 NonCon=     1 RMS=2.43D-06 Max=8.99D-05 NDo=     1
 LinEq1:  Iter=  7 NonCon=     1 RMS=7.35D-07 Max=1.31D-05 NDo=     1
 LinEq1:  Iter=  8 NonCon=     1 RMS=1.36D-07 Max=2.10D-06 NDo=     1
 LinEq1:  Iter=  9 NonCon=     1 RMS=2.56D-08 Max=3.79D-07 NDo=     1
 LinEq1:  Iter= 10 NonCon=     1 RMS=6.91D-09 Max=1.31D-07 NDo=     1
 LinEq1:  Iter= 11 NonCon=     1 RMS=1.43D-09 Max=1.98D-08 NDo=     1
 LinEq1:  Iter= 12 NonCon=     1 RMS=3.34D-10 Max=5.44D-09 NDo=     1
 LinEq1:  Iter= 13 NonCon=     0 RMS=7.65D-11 Max=8.35D-10 NDo=     1
 Linear equations converged to 1.000D-10 1.000D-09 after    13 iterations.
 End of Minotr F.D. properties file   721 does not exist.
 End of Minotr F.D. properties file   722 does not exist.
 End of Minotr F.D. properties file   788 does not exist.

 **********************************************************************

            Population analysis using the CC Density.

 **********************************************************************

 Alpha  occ. eigenvalues -- -104.88804-104.88704 -91.97752 -11.44884 -10.61223
 Alpha  occ. eigenvalues --  -10.61109  -8.98049  -8.07901  -8.07786  -8.07689
 Alpha  occ. eigenvalues --   -8.07671  -8.07576  -8.07558  -6.66128  -6.66027
 Alpha  occ. eigenvalues --   -6.65878  -1.24484  -1.13452  -1.03971  -0.77189
 Alpha  occ. eigenvalues --   -0.64550  -0.60925  -0.58712  -0.50446  -0.49591
 Alpha  occ. eigenvalues --   -0.47740  -0.40721  -0.38073
 Alpha virt. eigenvalues --    0.01780   0.04861   0.06336   0.06896   0.10086
 Alpha virt. eigenvalues --    0.10117   0.10382   0.11219   0.11745   0.12849
 Alpha virt. eigenvalues --    0.15155   0.15394   0.16265   0.16374   0.16503
 Alpha virt. eigenvalues --    0.21190   0.21790   0.23279   0.26535   0.27066
 Alpha virt. eigenvalues --    0.28124   0.28925   0.30170   0.34409   0.34881
 Alpha virt. eigenvalues --    0.37866   0.38935   0.39863   0.40254   0.42242
 Alpha virt. eigenvalues --    0.44457   0.45512   0.45556   0.46233   0.48097
 Alpha virt. eigenvalues --    0.49038   0.50287   0.50774   0.54086   0.55299
 Alpha virt. eigenvalues --    0.56259   0.65282   0.65640   0.65706   0.71005
 Alpha virt. eigenvalues --    0.72513   0.73124   0.73877   0.74122   0.78416
 Alpha virt. eigenvalues --    0.79073   0.80282   0.80290   0.81649   0.83139
 Alpha virt. eigenvalues --    0.83366   0.86686   0.87392   0.88408   0.88502
 Alpha virt. eigenvalues --    0.91120   0.91985   0.92644   0.94761   0.95537
 Alpha virt. eigenvalues --    0.95880   0.97667   1.02096   1.03211   1.07904
 Alpha virt. eigenvalues --    1.11152   1.11709   1.12043   1.12938   1.18036
 Alpha virt. eigenvalues --    1.18604   1.21096   1.22961   1.28759   1.29613
 Alpha virt. eigenvalues --    1.31249   1.36163   1.39819   1.40336   1.47720
 Alpha virt. eigenvalues --    1.48982   1.52435   1.52934   1.53905   1.54882
 Alpha virt. eigenvalues --    1.61726   1.66447   1.68973   1.71256   1.71735
 Alpha virt. eigenvalues --    1.75462   1.83351   1.83486   1.85243   1.87601
 Alpha virt. eigenvalues --    1.88070   1.90175   1.98042   2.07282   2.07844
 Alpha virt. eigenvalues --    2.14364   2.17656   2.32407   2.32905   2.39074
 Alpha virt. eigenvalues --    2.39388   2.43023   2.44712   2.47259   2.47909
 Alpha virt. eigenvalues --    2.47980   2.53074   2.58264   2.58400   2.59963
 Alpha virt. eigenvalues --    2.59992   2.62457   2.64168   2.65302   2.65369
 Alpha virt. eigenvalues --    2.69876   2.83505   2.84146   2.87459   2.89488
 Alpha virt. eigenvalues --    2.90778   3.02818   3.03003   3.04872   3.05451
 Alpha virt. eigenvalues --    3.05452   3.07631   3.09611   3.13409   3.13532
 Alpha virt. eigenvalues --    3.14132   3.14801   3.19972   3.21332   3.23380
 Alpha virt. eigenvalues --    3.24024   3.35992   3.46994   3.56069   3.64809
 Alpha virt. eigenvalues --    3.70307   3.70787   3.72988   3.76595   3.84722
 Alpha virt. eigenvalues --    3.89434   3.91512   3.97175   4.13572   4.14883
 Alpha virt. eigenvalues --    4.20806   4.24433   4.70362   4.77446   6.45666
 Alpha virt. eigenvalues --    7.22628   7.28900   9.79583
          Condensed to atoms (all electrons):
               1          2          3          4
     1  C    5.677218   0.071993   0.067724   0.179533
     2  Cl   0.071993  17.194412  -0.120518  -0.128841
     3  Cl   0.067724  -0.120518  17.192868  -0.129911
     4  S    0.179533  -0.128841  -0.129911  16.055541
 Mulliken charges:
               1
     1  C    0.003532
     2  Cl  -0.017046
     3  Cl  -0.010163
     4  S    0.023678
 Sum of Mulliken charges =  -0.00000
 Mulliken charges with hydrogens summed into heavy atoms:
               1
     1  C    0.003532
     2  Cl  -0.017046
     3  Cl  -0.010163
     4  S    0.023678
 Electronic spatial extent (au):  <R**2>=            688.9204
 Charge=             -0.0000 electrons
 Dipole moment (field-independent basis, Debye):
    X=              0.0000    Y=              0.0303    Z=             -0.4584  Tot=              0.4594
 Quadrupole moment (field-independent basis, Debye-Ang):
   XX=            -43.1412   YY=            -43.2904   ZZ=            -42.5171
   XY=             -0.0000   XZ=             -0.0000   YZ=             -0.0496
 Traceless Quadrupole moment (field-independent basis, Debye-Ang):
   XX=             -0.1583   YY=             -0.3075   ZZ=              0.4658
   XY=             -0.0000   XZ=             -0.0000   YZ=             -0.0496
 Octapole moment (field-independent basis, Debye-Ang**2):
  XXX=             -0.0000  YYY=              0.4593  ZZZ=             81.5404  XYY=              0.0000
  XXY=              0.1602  XXZ=             27.0940  XZZ=              0.0000  YZZ=              0.2296
  YYZ=             18.9808  XYZ=             -0.0000
 Hexadecapole moment (field-independent basis, Debye-Ang**3):
 XXXX=            -50.8699 YYYY=           -338.5700 ZZZZ=           -477.4725 XXXY=             -0.0000
 XXXZ=              0.0000 YYYX=              0.0000 YYYZ=             -0.6462 ZZZX=             -0.0000
 ZZZY=             -0.8163 XXYY=            -68.8397 XXZZ=            -89.7190 YYZZ=           -126.9849
 XXYZ=             -0.2408 YYXZ=             -0.0000 ZZXY=             -0.0000
 N-N= 2.453092879702D+02 E-N=-3.714199225804D+03  KE= 1.355052355179D+03
 There are a total of       89716 grid points.
 ElSum from          density=       56.0000000338
 ElSum from atomic densities=       56.0000005999

 Hirshfeld populations at iteration   1 (CX, CA, CB, DipXYZ):
               1          2          3          4          5          6
     1  C    0.000001   2.960071   2.960071  -0.000000  -0.000157  -0.136222
     2  Cl   0.000016   8.505284   8.505284   0.000000  -0.060201  -0.019830
     3  Cl   0.000016   8.503178   8.503178  -0.000000   0.061158  -0.021068
     4  S    0.000011   8.031467   8.031467   0.000000  -0.000381   0.156354
       Tot   0.000044  28.000000  28.000000  -0.000000   0.000419  -0.020766

 Dip from Atomic Chgs              0.000000   0.011506  -0.159567
         Total Dipole             -0.000000   0.011926  -0.180333

 Hirshfeld charges, spin densities, dipoles, and CM5 charges using IRadAn=      5:
              Q-H        S-H        Dx         Dy         Dz        Q-CM5   
     1  C    0.079857   0.000000  -0.000000  -0.000157  -0.136222   0.098255
     2  Cl  -0.010568   0.000000   0.000000  -0.060201  -0.019830  -0.009094
     3  Cl  -0.006356   0.000000  -0.000000   0.061158  -0.021068  -0.004863
     4  S   -0.062933   0.000000   0.000000  -0.000381   0.156354  -0.084299
       Tot  -0.000000   0.000000  -0.000000   0.000419  -0.020766  -0.000000
 Hirshfeld charges with hydrogens summed into heavy atoms:
              Q-H       Q-CM5   
     1  C    0.079857   0.098255
     2  Cl  -0.010568  -0.009094
     3  Cl  -0.006356  -0.004863
     4  S   -0.062933  -0.084299
 
 EQQ= 0.000000000000E+00 EQD= 0.000000000000E+00 EDD=-0.661755670868E-03
 EQQ+QD+DD=-0.661755670868E-03
 
 Breneman (CHELPG) radii used.
 Generate Potential Derived Charges using the Breneman model, NDens= 1.
 Grid spacing= 0.300 Box extension= 2.800
 NStep X,Y,Z=   20     30     29   Total possible points=       17400
 Number of Points to Fit=    4412

 **********************************************************************

            Electrostatic Properties Using The CC Density.

 **********************************************************************

       Atomic Center    1 is at   0.000000  0.000000 -0.522914
       Atomic Center    2 is at   0.000000 -1.430735 -1.500900
       Atomic Center    3 is at   0.000000  1.420735 -1.500900
       Atomic Center    4 is at   0.000000  0.000000  1.081815
    4412 points will be used for fitting atomic charges
 Fitting point charges to electrostatic potential
 The dipole moment will be constrained to the correct value
 Charges from ESP fit, RMS=   0.00697 RRMS=   0.92406:
 ESP charges:
               1
     1  C    0.129210
     2  Cl  -0.023804
     3  Cl  -0.019530
     4  S   -0.085876
 Sum of ESP charges =   0.00000
 ESP charges with hydrogens summed into heavy atoms:
               1
     1  C    0.129210
     2  Cl  -0.023804
     3  Cl  -0.019530
     4  S   -0.085876
 Charge=   0.00000 Dipole=     0.0000     0.0303    -0.4584 Tot=     0.4594
 -----------------------------------------------------------------

              Electrostatic Properties (Atomic Units)

 -----------------------------------------------------------------
    Center     Electric         -------- Electric Field --------
               Potential          X             Y             Z
 -----------------------------------------------------------------
    1 Atom    -14.565078
    2 Atom    -64.377739
    3 Atom    -64.376708
    4 Atom    -59.210276
 -----------------------------------------------------------------
 ******************************Gaussian NBO Version 3.1******************************
             N A T U R A L   A T O M I C   O R B I T A L   A N D
          N A T U R A L   B O N D   O R B I T A L   A N A L Y S I S
 ******************************Gaussian NBO Version 3.1******************************
       /RESON  / : Allow strongly delocalized NBO set

 Analyzing the QCI/CC density

 Job title: cl2cs-wavefunction                                              

 Storage needed:    116194 in NPA (2147483536 available)
 GSVD:  LWork=        8166 too small for GESVD, short by       51245 words or       51245 for optimal perf.


 NATURAL POPULATIONS:  Natural atomic orbital occupancies 
                                                          
   NAO  Atom  No  lang   Type(AO)    Occupancy
 --------------------------------------------
     1    C    1  S      Cor( 1S)     1.99947
     2    C    1  S      Val( 2S)     1.16161
     3    C    1  S      Ryd( 3S)     0.00529
     4    C    1  S      Ryd( 4S)     0.00038
     5    C    1  S      Ryd( 5S)     0.00015
     6    C    1  px     Val( 2p)     1.02206
     7    C    1  px     Ryd( 3p)     0.00802
     8    C    1  px     Ryd( 4p)     0.00051
     9    C    1  px     Ryd( 5p)     0.00022
    10    C    1  py     Val( 2p)     0.95604
    11    C    1  py     Ryd( 3p)     0.02139
    12    C    1  py     Ryd( 5p)     0.00045
    13    C    1  py     Ryd( 4p)     0.00052
    14    C    1  pz     Val( 2p)     1.06967
    15    C    1  pz     Ryd( 3p)     0.02663
    16    C    1  pz     Ryd( 5p)     0.00037
    17    C    1  pz     Ryd( 4p)     0.00046
    18    C    1  dxy    Ryd( 3d)     0.01039
    19    C    1  dxy    Ryd( 4d)     0.00033
    20    C    1  dxy    Ryd( 5d)     0.00018
    21    C    1  dxz    Ryd( 3d)     0.01319
    22    C    1  dxz    Ryd( 4d)     0.00036
    23    C    1  dxz    Ryd( 5d)     0.00026
    24    C    1  dyz    Ryd( 3d)     0.01359
    25    C    1  dyz    Ryd( 4d)     0.00044
    26    C    1  dyz    Ryd( 5d)     0.00018
    27    C    1  dx2y2  Ryd( 3d)     0.00817
    28    C    1  dx2y2  Ryd( 4d)     0.00035
    29    C    1  dx2y2  Ryd( 5d)     0.00032
    30    C    1  dz2    Ryd( 3d)     0.01260
    31    C    1  dz2    Ryd( 4d)     0.00036
    32    C    1  dz2    Ryd( 5d)     0.00015
    33    C    1  f(0)   Ryd( 4f)     0.00482
    34    C    1  f(0)   Ryd( 5f)     0.00032
    35    C    1  f(C1)  Ryd( 4f)     0.00262
    36    C    1  f(C1)  Ryd( 5f)     0.00036
    37    C    1  f(S1)  Ryd( 4f)     0.00328
    38    C    1  f(S1)  Ryd( 5f)     0.00057
    39    C    1  f(C2)  Ryd( 4f)     0.00322
    40    C    1  f(C2)  Ryd( 5f)     0.00032
    41    C    1  f(S2)  Ryd( 4f)     0.00285
    42    C    1  f(S2)  Ryd( 5f)     0.00031
    43    C    1  f(C3)  Ryd( 4f)     0.00216
    44    C    1  f(C3)  Ryd( 5f)     0.00024
    45    C    1  f(S3)  Ryd( 4f)     0.00212
    46    C    1  f(S3)  Ryd( 5f)     0.00024

    47   Cl    2  S      Cor( 1S)     2.00000
    48   Cl    2  S      Cor( 2S)     1.99919
    49   Cl    2  S      Val( 3S)     1.81191
    50   Cl    2  S      Ryd( 4S)     0.00538
    51   Cl    2  S      Ryd( 5S)     0.00034
    52   Cl    2  S      Ryd( 6S)     0.00027
    53   Cl    2  px     Cor( 2p)     2.00002
    54   Cl    2  px     Val( 3p)     1.83748
    55   Cl    2  px     Ryd( 4p)     0.00886
    56   Cl    2  px     Ryd( 5p)     0.00052
    57   Cl    2  px     Ryd( 6p)     0.00010
    58   Cl    2  py     Cor( 2p)     1.99993
    59   Cl    2  py     Val( 3p)     1.43489
    60   Cl    2  py     Ryd( 4p)     0.00601
    61   Cl    2  py     Ryd( 5p)     0.00051
    62   Cl    2  py     Ryd( 6p)     0.00012
    63   Cl    2  pz     Cor( 2p)     1.99998
    64   Cl    2  pz     Val( 3p)     1.69454
    65   Cl    2  pz     Ryd( 4p)     0.00752
    66   Cl    2  pz     Ryd( 5p)     0.00050
    67   Cl    2  pz     Ryd( 6p)     0.00013
    68   Cl    2  dxy    Ryd( 3d)     0.01769
    69   Cl    2  dxy    Ryd( 4d)     0.00050
    70   Cl    2  dxy    Ryd( 5d)     0.00012
    71   Cl    2  dxz    Ryd( 3d)     0.01840
    72   Cl    2  dxz    Ryd( 4d)     0.00062
    73   Cl    2  dxz    Ryd( 5d)     0.00013
    74   Cl    2  dyz    Ryd( 3d)     0.02251
    75   Cl    2  dyz    Ryd( 4d)     0.00046
    76   Cl    2  dyz    Ryd( 5d)     0.00014
    77   Cl    2  dx2y2  Ryd( 3d)     0.01963
    78   Cl    2  dx2y2  Ryd( 4d)     0.00052
    79   Cl    2  dx2y2  Ryd( 5d)     0.00012
    80   Cl    2  dz2    Ryd( 3d)     0.01702
    81   Cl    2  dz2    Ryd( 4d)     0.00051
    82   Cl    2  dz2    Ryd( 5d)     0.00018
    83   Cl    2  f(0)   Ryd( 4f)     0.00131
    84   Cl    2  f(0)   Ryd( 5f)     0.00014
    85   Cl    2  f(C1)  Ryd( 4f)     0.00134
    86   Cl    2  f(C1)  Ryd( 5f)     0.00013
    87   Cl    2  f(S1)  Ryd( 4f)     0.00129
    88   Cl    2  f(S1)  Ryd( 5f)     0.00018
    89   Cl    2  f(C2)  Ryd( 4f)     0.00153
    90   Cl    2  f(C2)  Ryd( 5f)     0.00015
    91   Cl    2  f(S2)  Ryd( 4f)     0.00134
    92   Cl    2  f(S2)  Ryd( 5f)     0.00015
    93   Cl    2  f(C3)  Ryd( 4f)     0.00132
    94   Cl    2  f(C3)  Ryd( 5f)     0.00015
    95   Cl    2  f(S3)  Ryd( 4f)     0.00134
    96   Cl    2  f(S3)  Ryd( 5f)     0.00016

    97   Cl    3  S      Cor( 1S)     2.00000
    98   Cl    3  S      Cor( 2S)     1.99917
    99   Cl    3  S      Val( 3S)     1.80880
   100   Cl    3  S      Ryd( 4S)     0.00541
   101   Cl    3  S      Ryd( 5S)     0.00034
   102   Cl    3  S      Ryd( 6S)     0.00027
   103   Cl    3  px     Cor( 2p)     2.00002
   104   Cl    3  px     Val( 3p)     1.83474
   105   Cl    3  px     Ryd( 4p)     0.00887
   106   Cl    3  px     Ryd( 5p)     0.00052
   107   Cl    3  px     Ryd( 6p)     0.00010
   108   Cl    3  py     Cor( 2p)     1.99993
   109   Cl    3  py     Val( 3p)     1.43668
   110   Cl    3  py     Ryd( 4p)     0.00603
   111   Cl    3  py     Ryd( 5p)     0.00051
   112   Cl    3  py     Ryd( 6p)     0.00012
   113   Cl    3  pz     Cor( 2p)     1.99998
   114   Cl    3  pz     Val( 3p)     1.69221
   115   Cl    3  pz     Ryd( 4p)     0.00753
   116   Cl    3  pz     Ryd( 5p)     0.00050
   117   Cl    3  pz     Ryd( 6p)     0.00013
   118   Cl    3  dxy    Ryd( 3d)     0.01773
   119   Cl    3  dxy    Ryd( 4d)     0.00050
   120   Cl    3  dxy    Ryd( 5d)     0.00012
   121   Cl    3  dxz    Ryd( 3d)     0.01842
   122   Cl    3  dxz    Ryd( 4d)     0.00062
   123   Cl    3  dxz    Ryd( 5d)     0.00013
   124   Cl    3  dyz    Ryd( 3d)     0.02264
   125   Cl    3  dyz    Ryd( 4d)     0.00046
   126   Cl    3  dyz    Ryd( 5d)     0.00014
   127   Cl    3  dx2y2  Ryd( 3d)     0.01966
   128   Cl    3  dx2y2  Ryd( 4d)     0.00051
   129   Cl    3  dx2y2  Ryd( 5d)     0.00012
   130   Cl    3  dz2    Ryd( 3d)     0.01703
   131   Cl    3  dz2    Ryd( 4d)     0.00050
   132   Cl    3  dz2    Ryd( 5d)     0.00018
   133   Cl    3  f(0)   Ryd( 4f)     0.00131
   134   Cl    3  f(0)   Ryd( 5f)     0.00014
   135   Cl    3  f(C1)  Ryd( 4f)     0.00133
   136   Cl    3  f(C1)  Ryd( 5f)     0.00013
   137   Cl    3  f(S1)  Ryd( 4f)     0.00129
   138   Cl    3  f(S1)  Ryd( 5f)     0.00018
   139   Cl    3  f(C2)  Ryd( 4f)     0.00153
   140   Cl    3  f(C2)  Ryd( 5f)     0.00015
   141   Cl    3  f(S2)  Ryd( 4f)     0.00134
   142   Cl    3  f(S2)  Ryd( 5f)     0.00015
   143   Cl    3  f(C3)  Ryd( 4f)     0.00132
   144   Cl    3  f(C3)  Ryd( 5f)     0.00015
   145   Cl    3  f(S3)  Ryd( 4f)     0.00134
   146   Cl    3  f(S3)  Ryd( 5f)     0.00016

   147    S    4  S      Cor( 1S)     2.00000
   148    S    4  S      Cor( 2S)     1.99840
   149    S    4  S      Val( 3S)     1.70573
   150    S    4  S      Ryd( 4S)     0.00833
   151    S    4  S      Ryd( 5S)     0.00038
   152    S    4  S      Ryd( 6S)     0.00023
   153    S    4  px     Cor( 2p)     1.99989
   154    S    4  px     Val( 3p)     1.16007
   155    S    4  px     Ryd( 4p)     0.00482
   156    S    4  px     Ryd( 5p)     0.00032
   157    S    4  px     Ryd( 6p)     0.00011
   158    S    4  py     Cor( 2p)     2.00000
   159    S    4  py     Val( 3p)     1.78051
   160    S    4  py     Ryd( 4p)     0.01022
   161    S    4  py     Ryd( 5p)     0.00047
   162    S    4  py     Ryd( 6p)     0.00014
   163    S    4  pz     Cor( 2p)     1.99966
   164    S    4  pz     Val( 3p)     1.04327
   165    S    4  pz     Ryd( 4p)     0.00516
   166    S    4  pz     Ryd( 5p)     0.00046
   167    S    4  pz     Ryd( 6p)     0.00009
   168    S    4  dxy    Ryd( 3d)     0.01613
   169    S    4  dxy    Ryd( 4d)     0.00053
   170    S    4  dxy    Ryd( 5d)     0.00009
   171    S    4  dxz    Ryd( 3d)     0.01688
   172    S    4  dxz    Ryd( 4d)     0.00035
   173    S    4  dxz    Ryd( 5d)     0.00008
   174    S    4  dyz    Ryd( 3d)     0.01388
   175    S    4  dyz    Ryd( 4d)     0.00037
   176    S    4  dyz    Ryd( 5d)     0.00028
   177    S    4  dx2y2  Ryd( 3d)     0.01566
   178    S    4  dx2y2  Ryd( 4d)     0.00054
   179    S    4  dx2y2  Ryd( 5d)     0.00010
   180    S    4  dz2    Ryd( 3d)     0.02148
   181    S    4  dz2    Ryd( 4d)     0.00041
   182    S    4  dz2    Ryd( 5d)     0.00010
   183    S    4  f(0)   Ryd( 4f)     0.00121
   184    S    4  f(0)   Ryd( 5f)     0.00021
   185    S    4  f(C1)  Ryd( 4f)     0.00094
   186    S    4  f(C1)  Ryd( 5f)     0.00015
   187    S    4  f(S1)  Ryd( 4f)     0.00108
   188    S    4  f(S1)  Ryd( 5f)     0.00016
   189    S    4  f(C2)  Ryd( 4f)     0.00091
   190    S    4  f(C2)  Ryd( 5f)     0.00014
   191    S    4  f(S2)  Ryd( 4f)     0.00095
   192    S    4  f(S2)  Ryd( 5f)     0.00012
   193    S    4  f(C3)  Ryd( 4f)     0.00137
   194    S    4  f(C3)  Ryd( 5f)     0.00013
   195    S    4  f(S3)  Ryd( 4f)     0.00136
   196    S    4  f(S3)  Ryd( 5f)     0.00013

 WARNING:  1 low occupancy (<1.9990e) core orbital  found on  S    4


 Summary of Natural Population Analysis:                  
                                                          
                                       Natural Population 
                Natural  -----------------------------------------------
    Atom  No    Charge         Core      Valence    Rydberg      Total
 -----------------------------------------------------------------------
      C    1   -0.35755      1.99947     4.20938    0.14870     6.35755
     Cl    2    0.08271      9.99913     6.77882    0.13934    16.91729
     Cl    3    0.08885      9.99911     6.77243    0.13962    16.91115
      S    4    0.18599      9.99794     5.68958    0.12649    15.81401
 =======================================================================
   * Total *   -0.00000     31.99564    23.45021    0.55415    56.00000

                                 Natural Population      
 --------------------------------------------------------
   Core                      31.99564 ( 99.9864% of  32)
   Valence                   23.45021 ( 97.7092% of  24)
   Natural Minimal Basis     55.44585 ( 99.0104% of  56)
   Natural Rydberg Basis      0.55415 (  0.9896% of  56)
 --------------------------------------------------------

    Atom  No          Natural Electron Configuration
 ----------------------------------------------------------------------------
      C    1      [core]2S( 1.16)2p( 3.05)3S( 0.01)3p( 0.06)3d( 0.06)4f( 0.02)
     Cl    2      [core]3S( 1.81)3p( 4.97)4S( 0.01)3d( 0.10)4p( 0.02)4f( 0.01)
     Cl    3      [core]3S( 1.81)3p( 4.96)4S( 0.01)3d( 0.10)4p( 0.02)4f( 0.01)
      S    4      [core]3S( 1.71)3p( 3.98)4S( 0.01)3d( 0.08)4p( 0.02)4f( 0.01)


 NBO analysis skipped by request.
 Unable to Open any file for archive entry.
 1\1\GINC-TRAPISTA\SP\RQCISD-FC\Aug-CC-pVTZ\C1Cl2S1\WAGNER\04-Sep-2022\
 0\\# qcisd/aug-cc-pvtz nosymm density=current pop=(chelpg,hirshfeld,np
 a,dipole)\\cl2cs-wavefunction\\0,1\C,0,0.,0.,-0.522914\Cl,0,0.,-1.4307
 35,-1.5009\Cl,0,0.,1.420735,-1.5009\S,0,0.,0.,1.081815\\Version=EM64L-
 G16RevC.01\HF=-1354.4261005\MP2=-1355.1504001\MP3=-1355.1830037\MP4D=-
 1355.2047373\MP4DQ=-1355.1798801\MP4SDQ=-1355.186675\QCISD=-1355.18419
 89\RMSD=8.987e-09\Dipole=0.,0.0119253,-0.1803319\Quadrupole=-0.1176953
 ,-0.2286057,0.346301,0.,0.,-0.0368506\PG=CS [SG(C1Cl2S1)]\\@
 The archive entry for this job was punched.


 There was a great rattling of the words for the fewness of ideas.
                   -- Charles Baxter in Gryphon
 Job cpu time:       0 days  7 hours 27 minutes 14.2 seconds.
 Elapsed time:       0 days  0 hours 28 minutes 19.5 seconds.
 File lengths (MBytes):  RWF=  23427 Int=      0 D2E=      0 Chk=      4 Scr=      1
 Normal termination of Gaussian 16 at Sun Sep  4 14:14:35 2022.
