 Entering Gaussian System, Link 0=/home/wagner/chemistry/gaussian/g16/g16
 Input=GAUSSIAN.com
 Output=GAUSSIAN.log
 Initial command:
 /home/wagner/chemistry/gaussian/g16/l1.exe "/home/wagner/chemistry/gaussian/work/Gau-46329.inp" -scrdir="/home/wagner/chemistry/gaussian/work/"
 Entering Link 1 = /home/wagner/chemistry/gaussian/g16/l1.exe PID=     46331.
  
 Copyright (c) 1988-2019, Gaussian, Inc.  All Rights Reserved.
  
 This is part of the Gaussian(R) 16 program.  It is based on
 the Gaussian(R) 09 system (copyright 2009, Gaussian, Inc.),
 the Gaussian(R) 03 system (copyright 2003, Gaussian, Inc.),
 the Gaussian(R) 98 system (copyright 1998, Gaussian, Inc.),
 the Gaussian(R) 94 system (copyright 1995, Gaussian, Inc.),
 the Gaussian 92(TM) system (copyright 1992, Gaussian, Inc.),
 the Gaussian 90(TM) system (copyright 1990, Gaussian, Inc.),
 the Gaussian 88(TM) system (copyright 1988, Gaussian, Inc.),
 the Gaussian 86(TM) system (copyright 1986, Carnegie Mellon
 University), and the Gaussian 82(TM) system (copyright 1983,
 Carnegie Mellon University). Gaussian is a federally registered
 trademark of Gaussian, Inc.
  
 This software contains proprietary and confidential information,
 including trade secrets, belonging to Gaussian, Inc.
  
 This software is provided under written license and may be
 used, copied, transmitted, or stored only in accord with that
 written license.
  
 The following legend is applicable only to US Government
 contracts under FAR:
  
                    RESTRICTED RIGHTS LEGEND
  
 Use, reproduction and disclosure by the US Government is
 subject to restrictions as set forth in subparagraphs (a)
 and (c) of the Commercial Computer Software - Restricted
 Rights clause in FAR 52.227-19.
  
 Gaussian, Inc.
 340 Quinnipiac St., Bldg. 40, Wallingford CT 06492
  
  
 ---------------------------------------------------------------
 Warning -- This program may not be used in any manner that
 competes with the business of Gaussian, Inc. or will provide
 assistance to any competitor of Gaussian, Inc.  The licensee
 of this program is prohibited from giving any competitor of
 Gaussian, Inc. access to this program.  By using this program,
 the user acknowledges that Gaussian, Inc. is engaged in the
 business of creating and licensing software in the field of
 computational chemistry and represents and warrants to the
 licensee that it is not a competitor of Gaussian, Inc. and that
 it will not use this program in any manner prohibited above.
 ---------------------------------------------------------------
  

 Cite this work as:
 Gaussian 16, Revision C.01,
 M. J. Frisch, G. W. Trucks, H. B. Schlegel, G. E. Scuseria, 
 M. A. Robb, J. R. Cheeseman, G. Scalmani, V. Barone, 
 G. A. Petersson, H. Nakatsuji, X. Li, M. Caricato, A. V. Marenich, 
 J. Bloino, B. G. Janesko, R. Gomperts, B. Mennucci, H. P. Hratchian, 
 J. V. Ortiz, A. F. Izmaylov, J. L. Sonnenberg, D. Williams-Young, 
 F. Ding, F. Lipparini, F. Egidi, J. Goings, B. Peng, A. Petrone, 
 T. Henderson, D. Ranasinghe, V. G. Zakrzewski, J. Gao, N. Rega, 
 G. Zheng, W. Liang, M. Hada, M. Ehara, K. Toyota, R. Fukuda, 
 J. Hasegawa, M. Ishida, T. Nakajima, Y. Honda, O. Kitao, H. Nakai, 
 T. Vreven, K. Throssell, J. A. Montgomery, Jr., J. E. Peralta, 
 F. Ogliaro, M. J. Bearpark, J. J. Heyd, E. N. Brothers, K. N. Kudin, 
 V. N. Staroverov, T. A. Keith, R. Kobayashi, J. Normand, 
 K. Raghavachari, A. P. Rendell, J. C. Burant, S. S. Iyengar, 
 J. Tomasi, M. Cossi, J. M. Millam, M. Klene, C. Adamo, R. Cammi, 
 J. W. Ochterski, R. L. Martin, K. Morokuma, O. Farkas, 
 J. B. Foresman, and D. J. Fox, Gaussian, Inc., Wallingford CT, 2019.
 
 ******************************************
 Gaussian 16:  EM64L-G16RevC.01  3-Jul-2019
                 4-Sep-2022 
 ******************************************
 %nproc=16
 Will use up to   16 processors via shared memory.
 %mem=16GB
 ----------------------------------------------------------------------
 # qcisd/aug-cc-pvtz nosymm density=current pop=(chelpg,hirshfeld,npa,d
 ipole)
 ----------------------------------------------------------------------
 1/30=1,38=1,172=1/1;
 2/12=2,15=1,17=6,18=5,40=1/2;
 3/5=16,6=1,7=10,11=9,25=1,30=1,71=1/1,2,3;
 4//1;
 5/5=2,38=5/2;
 8/6=4,9=120000,10=1/1,4;
 9/5=8,15=1/13;
 11/28=-7,31=1,32=3,42=3/11;
 10/5=6,13=10,31=1/2;
 6/7=2,8=2,9=2,10=2,15=24,20=3,22=-1,40=-1,79=1/1,2,7;
 99/5=1,9=1/99;
 ------------------
 cl2cs-wavefunction
 ------------------
 Symbolic Z-matrix:
 Charge =  0 Multiplicity = 1
 C                     0.        0.       -0.52291 
 Cl                    0.       -1.43074  -1.5109 
 Cl                    0.        1.43074  -1.5009 
 S                     0.        0.        1.08181 
 
                          Input orientation:                          
 ---------------------------------------------------------------------
 Center     Atomic      Atomic             Coordinates (Angstroms)
 Number     Number       Type             X           Y           Z
 ---------------------------------------------------------------------
      1          6           0        0.000000    0.000000   -0.522914
      2         17           0        0.000000   -1.430735   -1.510900
      3         17           0        0.000000    1.430735   -1.500900
      4         16           0        0.000000    0.000000    1.081815
 ---------------------------------------------------------------------
                    Distance matrix (angstroms):
                    1          2          3          4
     1  C    0.000000
     2  Cl   1.738712   0.000000
     3  Cl   1.733049   2.861487   0.000000
     4  S    1.604729   2.961279   2.952528   0.000000
 Symmetry turned off by external request.
 Stoichiometry    CCl2S
 Framework group  CS[SG(CCl2S)]
 Deg. of freedom     5
 Full point group                 CS      NOp   2
 Rotational constants (GHZ):           3.5315948           3.4308842           1.7402556
 Standard basis: Aug-CC-pVTZ (5D, 7F)
   196 basis functions,   414 primitive gaussians,   232 cartesian basis functions
    28 alpha electrons       28 beta electrons
       nuclear repulsion energy       244.6471908961 Hartrees.
 NAtoms=    4 NActive=    4 NUniq=    4 SFac= 1.00D+00 NAtFMM=   60 NAOKFM=F Big=F
 Integral buffers will be    131072 words long.
 Raffenetti 1 integral format.
 Two-electron integral symmetry is turned off.
 One-electron integrals computed using PRISM.
 NBasis=   196 RedAO= T EigKep=  9.13D-05  NBF=   196
 NBsUse=   196 1.00D-06 EigRej= -1.00D+00 NBFU=   196
 ExpMin= 3.51D-02 ExpMax= 4.56D+05 ExpMxC= 1.44D+03 IAcc=3 IRadAn=         5 AccDes= 0.00D+00
 Harris functional with IExCor=  205 and IRadAn=       5 diagonalized for initial guess.
 HarFok:  IExCor=  205 AccDes= 0.00D+00 IRadAn=         5 IDoV= 1 UseB2=F ITyADJ=14
 ICtDFT=  3500011 ScaDFX=  1.000000  1.000000  1.000000  1.000000
 FoFCou: FMM=F IPFlag=           0 FMFlag=      100000 FMFlg1=           0
         NFxFlg=           0 DoJE=T BraDBF=F KetDBF=T FulRan=T
         wScrn=  0.000000 ICntrl=       500 IOpCl=  0 I1Cent=   200000004 NGrid=           0
         NMat0=    1 NMatS0=      1 NMatT0=    0 NMatD0=    1 NMtDS0=    0 NMtDT0=    0
 Symmetry not used in FoFCou.
 Keep R1 ints in memory in canonical form, NReq=194496463.
 Requested convergence on RMS density matrix=1.00D-08 within 128 cycles.
 Requested convergence on MAX density matrix=1.00D-06.
 Requested convergence on             energy=1.00D-06.
 No special actions if energy rises.
 SCF Done:  E(RHF) =  -1354.42590963     A.U. after   12 cycles
            NFock= 12  Conv=0.86D-08     -V/T= 2.0001
 ExpMin= 3.51D-02 ExpMax= 4.56D+05 ExpMxC= 1.44D+03 IAcc=3 IRadAn=         5 AccDes= 0.00D+00
 HarFok:  IExCor=  205 AccDes= 0.00D+00 IRadAn=         5 IDoV=-2 UseB2=F ITyADJ=14
 ICtDFT= 12500011 ScaDFX=  1.000000  1.000000  1.000000  1.000000
 Range of M.O.s used for correlation:    17   196
 NBasis=   196 NAE=    28 NBE=    28 NFC=    16 NFV=     0
 NROrb=    180 NOA=    12 NOB=    12 NVA=   168 NVB=   168

 **** Warning!!: The largest alpha MO coefficient is  0.31048531D+02

 Semi-Direct transformation.
 ModeAB=           2 MOrb=            12 LenV=    2146408963
 LASXX=     33405819 LTotXX=    33405819 LenRXX=    33405819
 LTotAB=    33954012 MaxLAS=    58380480 LenRXY=    58380480
 NonZer=    66811638 LenScr=   100987392 LnRSAI=           0
 LnScr1=           0 LExtra=           0 Total=    192773691
 MaxDsk=          -1 SrtSym=           F ITran=            4
 JobTyp=0 Pass  1:  I=   1 to  12.
 (rs|ai) integrals will be sorted in core.
 Spin components of T(2) and E(2):
     alpha-alpha T2 =       0.3955684184D-01 E2=     -0.9366217413D-01
     alpha-beta  T2 =       0.2074228681D+00 E2=     -0.5371417944D+00
     beta-beta   T2 =       0.3955684184D-01 E2=     -0.9366217413D-01
 ANorm=    0.1134255946D+01
 E2 =    -0.7244661427D+00 EUMP2 =    -0.13551503757760D+04
 Keep R2 and R3 ints in memory in canonical form, NReq=380875766.
 CIDS: In Core Option IDoMem=           1.
 Iterations=  50 Convergence= 0.100D-07
 Produce multiple copies of IABC intergrals
 Iteration Nr.   1
 **********************
 DD1Dir will call FoFMem   1 times, MxPair=       156
 NAB=    78 NAA=     0 NBB=     0.
 MP4(R+Q)=  0.24908169D-01
 E3=       -0.32573513D-01        EUMP3=      -0.13551829493D+04
 E4(DQ)=    0.30940540D-02        UMP4(DQ)=   -0.13551798552D+04
 E4(SDQ)=  -0.37559705D-02        UMP4(SDQ)=  -0.13551867053D+04
 DE(Corr)= -0.73213149     E(Corr)=     -1355.1580411    
 NORM(A)=   0.11381750D+01
 Iteration Nr.   2
 **********************
 DD1Dir will call FoFMem   1 times, MxPair=       156
 NAB=    78 NAA=     0 NBB=     0.
 DE(Corr)= -0.75651995     E(CORR)=     -1355.1824296     Delta=-2.44D-02
 NORM(A)=   0.11491962D+01
 Iteration Nr.   3
 **********************
 DD1Dir will call FoFMem   1 times, MxPair=       156
 NAB=    78 NAA=     0 NBB=     0.
 DE(Corr)= -0.75568701     E(CORR)=     -1355.1815966     Delta= 8.33D-04
 NORM(A)=   0.11519526D+01
 Iteration Nr.   4
 **********************
 DD1Dir will call FoFMem   1 times, MxPair=       156
 NAB=    78 NAA=     0 NBB=     0.
 DE(Corr)= -0.75795973     E(CORR)=     -1355.1838694     Delta=-2.27D-03
 NORM(A)=   0.11530347D+01
 Iteration Nr.   5
 **********************
 DD1Dir will call FoFMem   1 times, MxPair=       156
 NAB=    78 NAA=     0 NBB=     0.
 DE(Corr)= -0.75823936     E(CORR)=     -1355.1841490     Delta=-2.80D-04
 NORM(A)=   0.11535751D+01
 Iteration Nr.   6
 **********************
 DD1Dir will call FoFMem   1 times, MxPair=       156
 NAB=    78 NAA=     0 NBB=     0.
 DE(Corr)= -0.75829262     E(CORR)=     -1355.1842023     Delta=-5.33D-05
 NORM(A)=   0.11536388D+01
 Iteration Nr.   7
 **********************
 DD1Dir will call FoFMem   1 times, MxPair=       156
 NAB=    78 NAA=     0 NBB=     0.
 DE(Corr)= -0.75829996     E(CORR)=     -1355.1842096     Delta=-7.34D-06
 NORM(A)=   0.11536443D+01
 Iteration Nr.   8
 **********************
 DD1Dir will call FoFMem   1 times, MxPair=       156
 NAB=    78 NAA=     0 NBB=     0.
 DE(Corr)= -0.75829807     E(CORR)=     -1355.1842077     Delta= 1.88D-06
 NORM(A)=   0.11536509D+01
 Iteration Nr.   9
 **********************
 DD1Dir will call FoFMem   1 times, MxPair=       156
 NAB=    78 NAA=     0 NBB=     0.
 DE(Corr)= -0.75829812     E(CORR)=     -1355.1842078     Delta=-5.09D-08
 NORM(A)=   0.11536498D+01
 Iteration Nr.  10
 **********************
 DD1Dir will call FoFMem   1 times, MxPair=       156
 NAB=    78 NAA=     0 NBB=     0.
 DE(Corr)= -0.75829912     E(CORR)=     -1355.1842088     Delta=-9.94D-07
 NORM(A)=   0.11536517D+01
 Iteration Nr.  11
 **********************
 DD1Dir will call FoFMem   1 times, MxPair=       156
 NAB=    78 NAA=     0 NBB=     0.
 DE(Corr)= -0.75829981     E(CORR)=     -1355.1842094     Delta=-6.96D-07
 NORM(A)=   0.11536527D+01
 Iteration Nr.  12
 **********************
 DD1Dir will call FoFMem   1 times, MxPair=       156
 NAB=    78 NAA=     0 NBB=     0.
 DE(Corr)= -0.75830004     E(CORR)=     -1355.1842097     Delta=-2.28D-07
 NORM(A)=   0.11536534D+01
 Iteration Nr.  13
 **********************
 DD1Dir will call FoFMem   1 times, MxPair=       156
 NAB=    78 NAA=     0 NBB=     0.
 DE(Corr)= -0.75830034     E(CORR)=     -1355.1842100     Delta=-2.94D-07
 NORM(A)=   0.11536539D+01
 Iteration Nr.  14
 **********************
 DD1Dir will call FoFMem   1 times, MxPair=       156
 NAB=    78 NAA=     0 NBB=     0.
 DE(Corr)= -0.75830036     E(CORR)=     -1355.1842100     Delta=-2.84D-08
 NORM(A)=   0.11536541D+01
 Iteration Nr.  15
 **********************
 DD1Dir will call FoFMem   1 times, MxPair=       156
 NAB=    78 NAA=     0 NBB=     0.
 DE(Corr)= -0.75830042     E(CORR)=     -1355.1842101     Delta=-5.69D-08
 NORM(A)=   0.11536542D+01
 Iteration Nr.  16
 **********************
 DD1Dir will call FoFMem   1 times, MxPair=       156
 NAB=    78 NAA=     0 NBB=     0.
 DE(Corr)= -0.75830043     E(CORR)=     -1355.1842101     Delta=-1.19D-08
 NORM(A)=   0.11536543D+01
 Iteration Nr.  17
 **********************
 DD1Dir will call FoFMem   1 times, MxPair=       156
 NAB=    78 NAA=     0 NBB=     0.
 DE(Corr)= -0.75830043     E(CORR)=     -1355.1842101     Delta= 4.82D-10
 NORM(A)=   0.11536543D+01
 Wavefunction amplitudes converged. E(Corr)=     -1355.1842101    
 Largest amplitude= 8.91D-02

 Z-amplitude iterations

 Iteration Nr.   1
 **********************
 DD1Dir will call FoFMem   1 times, MxPair=       156
 NAB=    78 NAA=     0 NBB=     0.
 DE(Z)= -0.72641898     E(Z)=     -1355.1523286     Delta= 3.19D-02
 NORM(A)=   0.11536795D+01
 Iteration Nr.   2
 **********************
 DD1Dir will call FoFMem   1 times, MxPair=       156
 NAB=    78 NAA=     0 NBB=     0.
 DE(Z)= -0.72641964     E(Z)=     -1355.1523293     Delta=-6.68D-07
 NORM(A)=   0.11537227D+01
 Iteration Nr.   3
 **********************
 DD1Dir will call FoFMem   1 times, MxPair=       156
 NAB=    78 NAA=     0 NBB=     0.
 DE(Z)= -0.72642079     E(Z)=     -1355.1523304     Delta=-1.15D-06
 NORM(A)=   0.11537338D+01
 Iteration Nr.   4
 **********************
 DD1Dir will call FoFMem   1 times, MxPair=       156
 NAB=    78 NAA=     0 NBB=     0.
 DE(Z)= -0.72642117     E(Z)=     -1355.1523308     Delta=-3.78D-07
 NORM(A)=   0.11570894D+01
 Iteration Nr.   5
 **********************
 DD1Dir will call FoFMem   1 times, MxPair=       156
 NAB=    78 NAA=     0 NBB=     0.
 DE(Z)= -0.72651648     E(Z)=     -1355.1524261     Delta=-9.53D-05
 NORM(A)=   0.11403921D+01
 Iteration Nr.   6
 **********************
 DD1Dir will call FoFMem   1 times, MxPair=       156
 NAB=    78 NAA=     0 NBB=     0.
 DE(Z)= -0.72603446     E(Z)=     -1355.1519441     Delta= 4.82D-04
 NORM(A)=   0.11403940D+01
 Iteration Nr.   7
 **********************
 DD1Dir will call FoFMem   1 times, MxPair=       156
 NAB=    78 NAA=     0 NBB=     0.
 DE(Z)= -0.72603238     E(Z)=     -1355.1519420     Delta= 2.08D-06
 NORM(A)=   0.11403917D+01
 Iteration Nr.   8
 **********************
 DD1Dir will call FoFMem   1 times, MxPair=       156
 NAB=    78 NAA=     0 NBB=     0.
 DE(Z)= -0.72603310     E(Z)=     -1355.1519427     Delta=-7.20D-07
 NORM(A)=   0.11403924D+01
 Iteration Nr.   9
 **********************
 DD1Dir will call FoFMem   1 times, MxPair=       156
 NAB=    78 NAA=     0 NBB=     0.
 DE(Z)= -0.72603326     E(Z)=     -1355.1519429     Delta=-1.57D-07
 NORM(A)=   0.11403927D+01
 Iteration Nr.  10
 **********************
 DD1Dir will call FoFMem   1 times, MxPair=       156
 NAB=    78 NAA=     0 NBB=     0.
 DE(Z)= -0.72603302     E(Z)=     -1355.1519427     Delta= 2.42D-07
 NORM(A)=   0.11403930D+01
 Iteration Nr.  11
 **********************
 DD1Dir will call FoFMem   1 times, MxPair=       156
 NAB=    78 NAA=     0 NBB=     0.
 DE(Z)= -0.72603319     E(Z)=     -1355.1519428     Delta=-1.69D-07
 NORM(A)=   0.11403931D+01
 Iteration Nr.  12
 **********************
 DD1Dir will call FoFMem   1 times, MxPair=       156
 NAB=    78 NAA=     0 NBB=     0.
 DE(Z)= -0.72603315     E(Z)=     -1355.1519428     Delta= 3.59D-08
 NORM(A)=   0.11403931D+01
 Iteration Nr.  13
 **********************
 DD1Dir will call FoFMem   1 times, MxPair=       156
 NAB=    78 NAA=     0 NBB=     0.
 DE(Z)= -0.72603318     E(Z)=     -1355.1519428     Delta=-2.44D-08
 NORM(A)=   0.11403931D+01
 Iteration Nr.  14
 **********************
 DD1Dir will call FoFMem   1 times, MxPair=       156
 NAB=    78 NAA=     0 NBB=     0.
 DE(Z)= -0.72603317     E(Z)=     -1355.1519428     Delta= 9.79D-09
 NORM(A)=   0.11403931D+01
 Z-amplitudes converged.
 Discarding MO integrals.
          Differentiating once with respect to electric field.
                with respect to dipole field.
          Electric field/nuclear overlap derivatives assumed to be zero.
 Keep R1 ints in memory in canonical form, NReq=194502027.
          There are     1 degrees of freedom in the 1st order CPHF.  IDoFFX=0 NUNeed=     1.
 LinEq1:  Iter=  0 NonCon=     1 RMS=2.08D-03 Max=6.35D-02 NDo=     1
 AX will form     1 AO Fock derivatives at one time.
 LinEq1:  Iter=  1 NonCon=     1 RMS=9.31D-04 Max=1.79D-02 NDo=     1
 LinEq1:  Iter=  2 NonCon=     1 RMS=4.12D-04 Max=1.02D-02 NDo=     1
 LinEq1:  Iter=  3 NonCon=     1 RMS=1.04D-04 Max=1.79D-03 NDo=     1
 LinEq1:  Iter=  4 NonCon=     1 RMS=2.43D-05 Max=7.86D-04 NDo=     1
 LinEq1:  Iter=  5 NonCon=     1 RMS=7.91D-06 Max=1.93D-04 NDo=     1
 LinEq1:  Iter=  6 NonCon=     1 RMS=2.39D-06 Max=8.95D-05 NDo=     1
 LinEq1:  Iter=  7 NonCon=     1 RMS=7.34D-07 Max=1.29D-05 NDo=     1
 LinEq1:  Iter=  8 NonCon=     1 RMS=1.36D-07 Max=2.08D-06 NDo=     1
 LinEq1:  Iter=  9 NonCon=     1 RMS=2.60D-08 Max=3.79D-07 NDo=     1
 LinEq1:  Iter= 10 NonCon=     1 RMS=6.97D-09 Max=1.68D-07 NDo=     1
 LinEq1:  Iter= 11 NonCon=     1 RMS=1.43D-09 Max=2.23D-08 NDo=     1
 LinEq1:  Iter= 12 NonCon=     1 RMS=3.31D-10 Max=5.36D-09 NDo=     1
 LinEq1:  Iter= 13 NonCon=     0 RMS=7.43D-11 Max=8.79D-10 NDo=     1
 Linear equations converged to 1.000D-10 1.000D-09 after    13 iterations.
 End of Minotr F.D. properties file   721 does not exist.
 End of Minotr F.D. properties file   722 does not exist.
 End of Minotr F.D. properties file   788 does not exist.

 **********************************************************************

            Population analysis using the CC Density.

 **********************************************************************

 Alpha  occ. eigenvalues -- -104.88762-104.88734 -91.97864 -11.45001 -10.61163
 Alpha  occ. eigenvalues --  -10.61122  -8.98155  -8.07839  -8.07798  -8.07629
 Alpha  occ. eigenvalues --   -8.07611  -8.07589  -8.07572  -6.66233  -6.66133
 Alpha  occ. eigenvalues --   -6.65984  -1.24196  -1.13312  -1.04033  -0.77117
 Alpha  occ. eigenvalues --   -0.64375  -0.60869  -0.58544  -0.50442  -0.49558
 Alpha  occ. eigenvalues --   -0.47714  -0.40812  -0.38141
 Alpha virt. eigenvalues --    0.01743   0.04852   0.06327   0.06903   0.10027
 Alpha virt. eigenvalues --    0.10079   0.10363   0.11223   0.11751   0.12863
 Alpha virt. eigenvalues --    0.15146   0.15325   0.16187   0.16370   0.16499
 Alpha virt. eigenvalues --    0.21161   0.21628   0.23261   0.26503   0.27057
 Alpha virt. eigenvalues --    0.28116   0.28942   0.30168   0.34377   0.34861
 Alpha virt. eigenvalues --    0.37866   0.38932   0.39848   0.40215   0.42192
 Alpha virt. eigenvalues --    0.44456   0.45434   0.45537   0.46271   0.48069
 Alpha virt. eigenvalues --    0.49057   0.50280   0.50799   0.53959   0.55261
 Alpha virt. eigenvalues --    0.56191   0.65347   0.65640   0.65706   0.71048
 Alpha virt. eigenvalues --    0.72503   0.73089   0.73863   0.74055   0.78525
 Alpha virt. eigenvalues --    0.79053   0.80202   0.80277   0.81629   0.83057
 Alpha virt. eigenvalues --    0.83344   0.86681   0.87411   0.88429   0.88621
 Alpha virt. eigenvalues --    0.91115   0.91884   0.92667   0.94686   0.95436
 Alpha virt. eigenvalues --    0.95832   0.97576   1.01913   1.03190   1.07779
 Alpha virt. eigenvalues --    1.11001   1.11426   1.11987   1.12844   1.17901
 Alpha virt. eigenvalues --    1.18667   1.20888   1.22815   1.28562   1.29493
 Alpha virt. eigenvalues --    1.31141   1.36123   1.39561   1.40361   1.47548
 Alpha virt. eigenvalues --    1.48689   1.52229   1.52897   1.53872   1.54784
 Alpha virt. eigenvalues --    1.61626   1.66236   1.68764   1.71045   1.71660
 Alpha virt. eigenvalues --    1.75173   1.83134   1.83369   1.85374   1.87289
 Alpha virt. eigenvalues --    1.87881   1.89972   1.98190   2.07199   2.07751
 Alpha virt. eigenvalues --    2.14061   2.17547   2.32325   2.32834   2.39145
 Alpha virt. eigenvalues --    2.39275   2.42874   2.44544   2.47252   2.47824
 Alpha virt. eigenvalues --    2.47891   2.53002   2.58185   2.58429   2.59928
 Alpha virt. eigenvalues --    2.59992   2.62304   2.64124   2.65090   2.65407
 Alpha virt. eigenvalues --    2.69616   2.83043   2.83688   2.87563   2.89459
 Alpha virt. eigenvalues --    2.91012   3.02721   3.02873   3.04862   3.05291
 Alpha virt. eigenvalues --    3.05413   3.07629   3.09576   3.13241   3.13441
 Alpha virt. eigenvalues --    3.14015   3.14894   3.19370   3.21506   3.23310
 Alpha virt. eigenvalues --    3.23684   3.35595   3.46361   3.55110   3.64466
 Alpha virt. eigenvalues --    3.69702   3.70498   3.72579   3.76450   3.84148
 Alpha virt. eigenvalues --    3.89257   3.90852   3.96734   4.13362   4.14733
 Alpha virt. eigenvalues --    4.19916   4.23923   4.70807   4.76360   6.45387
 Alpha virt. eigenvalues --    7.20874   7.25978   9.75685
          Condensed to atoms (all electrons):
               1          2          3          4
     1  C    5.668784   0.074589   0.072206   0.177993
     2  Cl   0.074589  17.190931  -0.119224  -0.126852
     3  Cl   0.072206  -0.119224  17.190309  -0.128333
     4  S    0.177993  -0.126852  -0.128333  16.049218
 Mulliken charges:
               1
     1  C    0.006428
     2  Cl  -0.019443
     3  Cl  -0.014958
     4  S    0.027973
 Sum of Mulliken charges =  -0.00000
 Mulliken charges with hydrogens summed into heavy atoms:
               1
     1  C    0.006428
     2  Cl  -0.019443
     3  Cl  -0.014958
     4  S    0.027973
 Electronic spatial extent (au):  <R**2>=            692.5263
 Charge=             -0.0000 electrons
 Dipole moment (field-independent basis, Debye):
    X=             -0.0000    Y=              0.0181    Z=             -0.4135  Tot=              0.4139
 Quadrupole moment (field-independent basis, Debye-Ang):
   XX=            -43.1616   YY=            -43.3246   ZZ=            -42.5250
   XY=              0.0000   XZ=              0.0000   YZ=             -0.0116
 Traceless Quadrupole moment (field-independent basis, Debye-Ang):
   XX=             -0.1578   YY=             -0.3209   ZZ=              0.4787
   XY=              0.0000   XZ=              0.0000   YZ=             -0.0116
 Octapole moment (field-independent basis, Debye-Ang**2):
  XXX=             -0.0000  YYY=              0.1062  ZZZ=             82.0802  XYY=              0.0000
  XXY=              0.0225  XXZ=             27.2823  XZZ=             -0.0000  YZZ=              0.0121
  YYZ=             19.1590  XYZ=             -0.0000
 Hexadecapole moment (field-independent basis, Debye-Ang**3):
 XXXX=            -50.9122 YYYY=           -340.7857 ZZZZ=           -479.7843 XXXY=              0.0000
 XXXZ=              0.0000 YYYX=             -0.0000 YYYZ=             -0.6078 ZZZX=              0.0000
 ZZZY=             -0.4407 XXYY=            -69.2547 XXZZ=            -90.1362 YYZZ=           -127.6433
 XXYZ=             -0.2022 YYXZ=             -0.0000 ZZXY=             -0.0000
 N-N= 2.446471908961D+02 E-N=-3.712856287992D+03  KE= 1.355026353384D+03
 There are a total of       89716 grid points.
 ElSum from          density=       56.0000002749
 ElSum from atomic densities=       56.0000008068

 Hirshfeld populations at iteration   1 (CX, CA, CB, DipXYZ):
               1          2          3          4          5          6
     1  C    0.000001   2.959495   2.959495   0.000000  -0.000375  -0.136562
     2  Cl   0.000016   8.505766   8.505766  -0.000000  -0.060474  -0.021352
     3  Cl   0.000016   8.504711   8.504711  -0.000000   0.061277  -0.020853
     4  S    0.000011   8.030028   8.030028   0.000000   0.000969   0.159244
       Tot   0.000044  28.000000  28.000000  -0.000000   0.001397  -0.019522

 Dip from Atomic Chgs              0.000000   0.005706  -0.143179
         Total Dipole             -0.000000   0.007103  -0.162701

 Hirshfeld charges, spin densities, dipoles, and CM5 charges using IRadAn=      5:
              Q-H        S-H        Dx         Dy         Dz        Q-CM5   
     1  C    0.081011   0.000000   0.000000  -0.000375  -0.136562   0.099416
     2  Cl  -0.011532   0.000000  -0.000000  -0.060474  -0.021352  -0.010088
     3  Cl  -0.009422   0.000000  -0.000000   0.061277  -0.020853  -0.007948
     4  S   -0.060057   0.000000   0.000000   0.000969   0.159244  -0.081381
       Tot  -0.000000   0.000000  -0.000000   0.001397  -0.019522  -0.000000
 Hirshfeld charges with hydrogens summed into heavy atoms:
              Q-H       Q-CM5   
     1  C    0.081011   0.099416
     2  Cl  -0.011532  -0.010088
     3  Cl  -0.009422  -0.007948
     4  S   -0.060057  -0.081381
 
 EQQ= 0.000000000000E+00 EQD= 0.000000000000E+00 EDD=-0.675700244508E-03
 EQQ+QD+DD=-0.675700244508E-03
 
 Breneman (CHELPG) radii used.
 Generate Potential Derived Charges using the Breneman model, NDens= 1.
 Grid spacing= 0.300 Box extension= 2.800
 NStep X,Y,Z=   20     30     29   Total possible points=       17400
 Number of Points to Fit=    4420

 **********************************************************************

            Electrostatic Properties Using The CC Density.

 **********************************************************************

       Atomic Center    1 is at   0.000000  0.000000 -0.522914
       Atomic Center    2 is at   0.000000 -1.430735 -1.510900
       Atomic Center    3 is at   0.000000  1.430735 -1.500900
       Atomic Center    4 is at   0.000000  0.000000  1.081815
    4420 points will be used for fitting atomic charges
 Fitting point charges to electrostatic potential
 The dipole moment will be constrained to the correct value
 Charges from ESP fit, RMS=   0.00698 RRMS=   0.93272:
 ESP charges:
               1
     1  C    0.126150
     2  Cl  -0.023790
     3  Cl  -0.021163
     4  S   -0.081197
 Sum of ESP charges =   0.00000
 ESP charges with hydrogens summed into heavy atoms:
               1
     1  C    0.126150
     2  Cl  -0.023790
     3  Cl  -0.021163
     4  S   -0.081197
 Charge=   0.00000 Dipole=     0.0000     0.0181    -0.4135 Tot=     0.4139
 -----------------------------------------------------------------

              Electrostatic Properties (Atomic Units)

 -----------------------------------------------------------------
    Center     Electric         -------- Electric Field --------
               Potential          X             Y             Z
 -----------------------------------------------------------------
    1 Atom    -14.564130
    2 Atom    -64.377506
    3 Atom    -64.377163
    4 Atom    -59.209227
 -----------------------------------------------------------------
 ******************************Gaussian NBO Version 3.1******************************
             N A T U R A L   A T O M I C   O R B I T A L   A N D
          N A T U R A L   B O N D   O R B I T A L   A N A L Y S I S
 ******************************Gaussian NBO Version 3.1******************************
       /RESON  / : Allow strongly delocalized NBO set

 Analyzing the QCI/CC density

 Job title: cl2cs-wavefunction                                              

 Storage needed:    116194 in NPA (2147483536 available)
 GSVD:  LWork=        8166 too small for GESVD, short by       51245 words or       51245 for optimal perf.


 NATURAL POPULATIONS:  Natural atomic orbital occupancies 
                                                          
   NAO  Atom  No  lang   Type(AO)    Occupancy
 --------------------------------------------
     1    C    1  S      Cor( 1S)     1.99947
     2    C    1  S      Val( 2S)     1.16411
     3    C    1  S      Ryd( 3S)     0.00528
     4    C    1  S      Ryd( 4S)     0.00038
     5    C    1  S      Ryd( 5S)     0.00015
     6    C    1  px     Val( 2p)     1.02022
     7    C    1  px     Ryd( 3p)     0.00803
     8    C    1  px     Ryd( 4p)     0.00051
     9    C    1  px     Ryd( 5p)     0.00022
    10    C    1  py     Val( 2p)     0.95492
    11    C    1  py     Ryd( 3p)     0.02114
    12    C    1  py     Ryd( 5p)     0.00046
    13    C    1  py     Ryd( 4p)     0.00052
    14    C    1  pz     Val( 2p)     1.06707
    15    C    1  pz     Ryd( 3p)     0.02668
    16    C    1  pz     Ryd( 5p)     0.00036
    17    C    1  pz     Ryd( 4p)     0.00046
    18    C    1  dxy    Ryd( 3d)     0.01032
    19    C    1  dxy    Ryd( 4d)     0.00033
    20    C    1  dxy    Ryd( 5d)     0.00018
    21    C    1  dxz    Ryd( 3d)     0.01312
    22    C    1  dxz    Ryd( 4d)     0.00036
    23    C    1  dxz    Ryd( 5d)     0.00026
    24    C    1  dyz    Ryd( 3d)     0.01356
    25    C    1  dyz    Ryd( 4d)     0.00044
    26    C    1  dyz    Ryd( 5d)     0.00018
    27    C    1  dx2y2  Ryd( 3d)     0.00815
    28    C    1  dx2y2  Ryd( 4d)     0.00035
    29    C    1  dx2y2  Ryd( 5d)     0.00032
    30    C    1  dz2    Ryd( 3d)     0.01258
    31    C    1  dz2    Ryd( 4d)     0.00036
    32    C    1  dz2    Ryd( 5d)     0.00015
    33    C    1  f(0)   Ryd( 4f)     0.00480
    34    C    1  f(0)   Ryd( 5f)     0.00032
    35    C    1  f(C1)  Ryd( 4f)     0.00259
    36    C    1  f(C1)  Ryd( 5f)     0.00036
    37    C    1  f(S1)  Ryd( 4f)     0.00327
    38    C    1  f(S1)  Ryd( 5f)     0.00057
    39    C    1  f(C2)  Ryd( 4f)     0.00318
    40    C    1  f(C2)  Ryd( 5f)     0.00032
    41    C    1  f(S2)  Ryd( 4f)     0.00284
    42    C    1  f(S2)  Ryd( 5f)     0.00031
    43    C    1  f(C3)  Ryd( 4f)     0.00214
    44    C    1  f(C3)  Ryd( 5f)     0.00024
    45    C    1  f(S3)  Ryd( 4f)     0.00209
    46    C    1  f(S3)  Ryd( 5f)     0.00024

    47   Cl    2  S      Cor( 1S)     2.00000
    48   Cl    2  S      Cor( 2S)     1.99919
    49   Cl    2  S      Val( 3S)     1.81359
    50   Cl    2  S      Ryd( 4S)     0.00536
    51   Cl    2  S      Ryd( 5S)     0.00034
    52   Cl    2  S      Ryd( 6S)     0.00027
    53   Cl    2  px     Cor( 2p)     2.00002
    54   Cl    2  px     Val( 3p)     1.83881
    55   Cl    2  px     Ryd( 4p)     0.00886
    56   Cl    2  px     Ryd( 5p)     0.00052
    57   Cl    2  px     Ryd( 6p)     0.00010
    58   Cl    2  py     Cor( 2p)     1.99994
    59   Cl    2  py     Val( 3p)     1.43717
    60   Cl    2  py     Ryd( 4p)     0.00602
    61   Cl    2  py     Ryd( 5p)     0.00051
    62   Cl    2  py     Ryd( 6p)     0.00012
    63   Cl    2  pz     Cor( 2p)     1.99998
    64   Cl    2  pz     Val( 3p)     1.69137
    65   Cl    2  pz     Ryd( 4p)     0.00750
    66   Cl    2  pz     Ryd( 5p)     0.00050
    67   Cl    2  pz     Ryd( 6p)     0.00013
    68   Cl    2  dxy    Ryd( 3d)     0.01768
    69   Cl    2  dxy    Ryd( 4d)     0.00050
    70   Cl    2  dxy    Ryd( 5d)     0.00012
    71   Cl    2  dxz    Ryd( 3d)     0.01838
    72   Cl    2  dxz    Ryd( 4d)     0.00062
    73   Cl    2  dxz    Ryd( 5d)     0.00013
    74   Cl    2  dyz    Ryd( 3d)     0.02251
    75   Cl    2  dyz    Ryd( 4d)     0.00046
    76   Cl    2  dyz    Ryd( 5d)     0.00014
    77   Cl    2  dx2y2  Ryd( 3d)     0.01958
    78   Cl    2  dx2y2  Ryd( 4d)     0.00052
    79   Cl    2  dx2y2  Ryd( 5d)     0.00012
    80   Cl    2  dz2    Ryd( 3d)     0.01699
    81   Cl    2  dz2    Ryd( 4d)     0.00050
    82   Cl    2  dz2    Ryd( 5d)     0.00018
    83   Cl    2  f(0)   Ryd( 4f)     0.00131
    84   Cl    2  f(0)   Ryd( 5f)     0.00014
    85   Cl    2  f(C1)  Ryd( 4f)     0.00134
    86   Cl    2  f(C1)  Ryd( 5f)     0.00013
    87   Cl    2  f(S1)  Ryd( 4f)     0.00129
    88   Cl    2  f(S1)  Ryd( 5f)     0.00018
    89   Cl    2  f(C2)  Ryd( 4f)     0.00152
    90   Cl    2  f(C2)  Ryd( 5f)     0.00015
    91   Cl    2  f(S2)  Ryd( 4f)     0.00134
    92   Cl    2  f(S2)  Ryd( 5f)     0.00015
    93   Cl    2  f(C3)  Ryd( 4f)     0.00132
    94   Cl    2  f(C3)  Ryd( 5f)     0.00015
    95   Cl    2  f(S3)  Ryd( 4f)     0.00133
    96   Cl    2  f(S3)  Ryd( 5f)     0.00015

    97   Cl    3  S      Cor( 1S)     2.00000
    98   Cl    3  S      Cor( 2S)     1.99918
    99   Cl    3  S      Val( 3S)     1.81161
   100   Cl    3  S      Ryd( 4S)     0.00539
   101   Cl    3  S      Ryd( 5S)     0.00034
   102   Cl    3  S      Ryd( 6S)     0.00027
   103   Cl    3  px     Cor( 2p)     2.00002
   104   Cl    3  px     Val( 3p)     1.83706
   105   Cl    3  px     Ryd( 4p)     0.00887
   106   Cl    3  px     Ryd( 5p)     0.00052
   107   Cl    3  px     Ryd( 6p)     0.00010
   108   Cl    3  py     Cor( 2p)     1.99993
   109   Cl    3  py     Val( 3p)     1.43363
   110   Cl    3  py     Ryd( 4p)     0.00601
   111   Cl    3  py     Ryd( 5p)     0.00051
   112   Cl    3  py     Ryd( 6p)     0.00012
   113   Cl    3  pz     Cor( 2p)     1.99998
   114   Cl    3  pz     Val( 3p)     1.69512
   115   Cl    3  pz     Ryd( 4p)     0.00754
   116   Cl    3  pz     Ryd( 5p)     0.00050
   117   Cl    3  pz     Ryd( 6p)     0.00013
   118   Cl    3  dxy    Ryd( 3d)     0.01769
   119   Cl    3  dxy    Ryd( 4d)     0.00050
   120   Cl    3  dxy    Ryd( 5d)     0.00012
   121   Cl    3  dxz    Ryd( 3d)     0.01841
   122   Cl    3  dxz    Ryd( 4d)     0.00062
   123   Cl    3  dxz    Ryd( 5d)     0.00013
   124   Cl    3  dyz    Ryd( 3d)     0.02252
   125   Cl    3  dyz    Ryd( 4d)     0.00046
   126   Cl    3  dyz    Ryd( 5d)     0.00014
   127   Cl    3  dx2y2  Ryd( 3d)     0.01965
   128   Cl    3  dx2y2  Ryd( 4d)     0.00051
   129   Cl    3  dx2y2  Ryd( 5d)     0.00012
   130   Cl    3  dz2    Ryd( 3d)     0.01705
   131   Cl    3  dz2    Ryd( 4d)     0.00050
   132   Cl    3  dz2    Ryd( 5d)     0.00018
   133   Cl    3  f(0)   Ryd( 4f)     0.00131
   134   Cl    3  f(0)   Ryd( 5f)     0.00014
   135   Cl    3  f(C1)  Ryd( 4f)     0.00134
   136   Cl    3  f(C1)  Ryd( 5f)     0.00013
   137   Cl    3  f(S1)  Ryd( 4f)     0.00129
   138   Cl    3  f(S1)  Ryd( 5f)     0.00018
   139   Cl    3  f(C2)  Ryd( 4f)     0.00153
   140   Cl    3  f(C2)  Ryd( 5f)     0.00015
   141   Cl    3  f(S2)  Ryd( 4f)     0.00134
   142   Cl    3  f(S2)  Ryd( 5f)     0.00015
   143   Cl    3  f(C3)  Ryd( 4f)     0.00132
   144   Cl    3  f(C3)  Ryd( 5f)     0.00015
   145   Cl    3  f(S3)  Ryd( 4f)     0.00134
   146   Cl    3  f(S3)  Ryd( 5f)     0.00015

   147    S    4  S      Cor( 1S)     2.00000
   148    S    4  S      Cor( 2S)     1.99839
   149    S    4  S      Val( 3S)     1.70534
   150    S    4  S      Ryd( 4S)     0.00838
   151    S    4  S      Ryd( 5S)     0.00038
   152    S    4  S      Ryd( 6S)     0.00023
   153    S    4  px     Cor( 2p)     1.99989
   154    S    4  px     Val( 3p)     1.15854
   155    S    4  px     Ryd( 4p)     0.00480
   156    S    4  px     Ryd( 5p)     0.00032
   157    S    4  px     Ryd( 6p)     0.00011
   158    S    4  py     Cor( 2p)     2.00000
   159    S    4  py     Val( 3p)     1.77820
   160    S    4  py     Ryd( 4p)     0.01023
   161    S    4  py     Ryd( 5p)     0.00046
   162    S    4  py     Ryd( 6p)     0.00014
   163    S    4  pz     Cor( 2p)     1.99965
   164    S    4  pz     Val( 3p)     1.04428
   165    S    4  pz     Ryd( 4p)     0.00516
   166    S    4  pz     Ryd( 5p)     0.00046
   167    S    4  pz     Ryd( 6p)     0.00009
   168    S    4  dxy    Ryd( 3d)     0.01611
   169    S    4  dxy    Ryd( 4d)     0.00052
   170    S    4  dxy    Ryd( 5d)     0.00009
   171    S    4  dxz    Ryd( 3d)     0.01693
   172    S    4  dxz    Ryd( 4d)     0.00035
   173    S    4  dxz    Ryd( 5d)     0.00008
   174    S    4  dyz    Ryd( 3d)     0.01393
   175    S    4  dyz    Ryd( 4d)     0.00036
   176    S    4  dyz    Ryd( 5d)     0.00028
   177    S    4  dx2y2  Ryd( 3d)     0.01565
   178    S    4  dx2y2  Ryd( 4d)     0.00054
   179    S    4  dx2y2  Ryd( 5d)     0.00010
   180    S    4  dz2    Ryd( 3d)     0.02152
   181    S    4  dz2    Ryd( 4d)     0.00041
   182    S    4  dz2    Ryd( 5d)     0.00010
   183    S    4  f(0)   Ryd( 4f)     0.00121
   184    S    4  f(0)   Ryd( 5f)     0.00021
   185    S    4  f(C1)  Ryd( 4f)     0.00094
   186    S    4  f(C1)  Ryd( 5f)     0.00015
   187    S    4  f(S1)  Ryd( 4f)     0.00109
   188    S    4  f(S1)  Ryd( 5f)     0.00016
   189    S    4  f(C2)  Ryd( 4f)     0.00091
   190    S    4  f(C2)  Ryd( 5f)     0.00014
   191    S    4  f(S2)  Ryd( 4f)     0.00095
   192    S    4  f(S2)  Ryd( 5f)     0.00012
   193    S    4  f(C3)  Ryd( 4f)     0.00136
   194    S    4  f(C3)  Ryd( 5f)     0.00013
   195    S    4  f(S3)  Ryd( 4f)     0.00136
   196    S    4  f(S3)  Ryd( 5f)     0.00013

 WARNING:  1 low occupancy (<1.9990e) core orbital  found on  S    4


 Summary of Natural Population Analysis:                  
                                                          
                                       Natural Population 
                Natural  -----------------------------------------------
    Atom  No    Charge         Core      Valence    Rydberg      Total
 -----------------------------------------------------------------------
      C    1   -0.35389      1.99947     4.20632    0.14810     6.35389
     Cl    2    0.08075      9.99913     6.78094    0.13917    16.91925
     Cl    3    0.08404      9.99912     6.77741    0.13943    16.91596
      S    4    0.18910      9.99793     5.68637    0.12660    15.81090
 =======================================================================
   * Total *   -0.00000     31.99566    23.45105    0.55330    56.00000

                                 Natural Population      
 --------------------------------------------------------
   Core                      31.99566 ( 99.9864% of  32)
   Valence                   23.45105 ( 97.7127% of  24)
   Natural Minimal Basis     55.44670 ( 99.0120% of  56)
   Natural Rydberg Basis      0.55330 (  0.9880% of  56)
 --------------------------------------------------------

    Atom  No          Natural Electron Configuration
 ----------------------------------------------------------------------------
      C    1      [core]2S( 1.16)2p( 3.04)3S( 0.01)3p( 0.06)3d( 0.06)4f( 0.02)
     Cl    2      [core]3S( 1.81)3p( 4.97)4S( 0.01)3d( 0.10)4p( 0.02)4f( 0.01)
     Cl    3      [core]3S( 1.81)3p( 4.97)4S( 0.01)3d( 0.10)4p( 0.02)4f( 0.01)
      S    4      [core]3S( 1.71)3p( 3.98)4S( 0.01)3d( 0.08)4p( 0.02)4f( 0.01)


 NBO analysis skipped by request.
 Unable to Open any file for archive entry.
 1\1\GINC-TRAPISTA\SP\RQCISD-FC\Aug-CC-pVTZ\C1Cl2S1\WAGNER\04-Sep-2022\
 0\\# qcisd/aug-cc-pvtz nosymm density=current pop=(chelpg,hirshfeld,np
 a,dipole)\\cl2cs-wavefunction\\0,1\C,0,0.,0.,-0.522914\Cl,0,0.,-1.4307
 35,-1.5109\Cl,0,0.,1.430735,-1.5009\S,0,0.,0.,1.081815\\Version=EM64L-
 G16RevC.01\HF=-1354.4259096\MP2=-1355.1503758\MP3=-1355.1829493\MP4D=-
 1355.2047634\MP4DQ=-1355.1798552\MP4SDQ=-1355.1867053\QCISD=-1355.1842
 101\RMSD=8.580e-09\Dipole=0.,0.0071025,-0.162701\Quadrupole=-0.1173521
 ,-0.2385508,0.3559029,0.,0.,-0.0086404\PG=CS [SG(C1Cl2S1)]\\@
 The archive entry for this job was punched.


 IN NATURE THERE ARE NEITHER REWARDS OR
 PUNISHMENTS -- THERE ARE CONSEQUENCES.

                            -- ROBERT GREEN INGERSOLL
 Job cpu time:       0 days  7 hours 13 minutes  7.6 seconds.
 Elapsed time:       0 days  0 hours 27 minutes 22.7 seconds.
 File lengths (MBytes):  RWF=  23427 Int=      0 D2E=      0 Chk=      4 Scr=      1
 Normal termination of Gaussian 16 at Sun Sep  4 12:21:55 2022.
