 Entering Gaussian System, Link 0=/home/wagner/chemistry/gaussian/g16/g16
 Input=GAUSSIAN.com
 Output=GAUSSIAN.log
 Initial command:
 /home/wagner/chemistry/gaussian/g16/l1.exe "/home/wagner/chemistry/gaussian/work/Gau-43937.inp" -scrdir="/home/wagner/chemistry/gaussian/work/"
 Entering Link 1 = /home/wagner/chemistry/gaussian/g16/l1.exe PID=     43939.
  
 Copyright (c) 1988-2019, Gaussian, Inc.  All Rights Reserved.
  
 This is part of the Gaussian(R) 16 program.  It is based on
 the Gaussian(R) 09 system (copyright 2009, Gaussian, Inc.),
 the Gaussian(R) 03 system (copyright 2003, Gaussian, Inc.),
 the Gaussian(R) 98 system (copyright 1998, Gaussian, Inc.),
 the Gaussian(R) 94 system (copyright 1995, Gaussian, Inc.),
 the Gaussian 92(TM) system (copyright 1992, Gaussian, Inc.),
 the Gaussian 90(TM) system (copyright 1990, Gaussian, Inc.),
 the Gaussian 88(TM) system (copyright 1988, Gaussian, Inc.),
 the Gaussian 86(TM) system (copyright 1986, Carnegie Mellon
 University), and the Gaussian 82(TM) system (copyright 1983,
 Carnegie Mellon University). Gaussian is a federally registered
 trademark of Gaussian, Inc.
  
 This software contains proprietary and confidential information,
 including trade secrets, belonging to Gaussian, Inc.
  
 This software is provided under written license and may be
 used, copied, transmitted, or stored only in accord with that
 written license.
  
 The following legend is applicable only to US Government
 contracts under FAR:
  
                    RESTRICTED RIGHTS LEGEND
  
 Use, reproduction and disclosure by the US Government is
 subject to restrictions as set forth in subparagraphs (a)
 and (c) of the Commercial Computer Software - Restricted
 Rights clause in FAR 52.227-19.
  
 Gaussian, Inc.
 340 Quinnipiac St., Bldg. 40, Wallingford CT 06492
  
  
 ---------------------------------------------------------------
 Warning -- This program may not be used in any manner that
 competes with the business of Gaussian, Inc. or will provide
 assistance to any competitor of Gaussian, Inc.  The licensee
 of this program is prohibited from giving any competitor of
 Gaussian, Inc. access to this program.  By using this program,
 the user acknowledges that Gaussian, Inc. is engaged in the
 business of creating and licensing software in the field of
 computational chemistry and represents and warrants to the
 licensee that it is not a competitor of Gaussian, Inc. and that
 it will not use this program in any manner prohibited above.
 ---------------------------------------------------------------
  

 Cite this work as:
 Gaussian 16, Revision C.01,
 M. J. Frisch, G. W. Trucks, H. B. Schlegel, G. E. Scuseria, 
 M. A. Robb, J. R. Cheeseman, G. Scalmani, V. Barone, 
 G. A. Petersson, H. Nakatsuji, X. Li, M. Caricato, A. V. Marenich, 
 J. Bloino, B. G. Janesko, R. Gomperts, B. Mennucci, H. P. Hratchian, 
 J. V. Ortiz, A. F. Izmaylov, J. L. Sonnenberg, D. Williams-Young, 
 F. Ding, F. Lipparini, F. Egidi, J. Goings, B. Peng, A. Petrone, 
 T. Henderson, D. Ranasinghe, V. G. Zakrzewski, J. Gao, N. Rega, 
 G. Zheng, W. Liang, M. Hada, M. Ehara, K. Toyota, R. Fukuda, 
 J. Hasegawa, M. Ishida, T. Nakajima, Y. Honda, O. Kitao, H. Nakai, 
 T. Vreven, K. Throssell, J. A. Montgomery, Jr., J. E. Peralta, 
 F. Ogliaro, M. J. Bearpark, J. J. Heyd, E. N. Brothers, K. N. Kudin, 
 V. N. Staroverov, T. A. Keith, R. Kobayashi, J. Normand, 
 K. Raghavachari, A. P. Rendell, J. C. Burant, S. S. Iyengar, 
 J. Tomasi, M. Cossi, J. M. Millam, M. Klene, C. Adamo, R. Cammi, 
 J. W. Ochterski, R. L. Martin, K. Morokuma, O. Farkas, 
 J. B. Foresman, and D. J. Fox, Gaussian, Inc., Wallingford CT, 2019.
 
 ******************************************
 Gaussian 16:  EM64L-G16RevC.01  3-Jul-2019
                 4-Sep-2022 
 ******************************************
 %nproc=16
 Will use up to   16 processors via shared memory.
 %mem=16GB
 ----------------------------------------------------------------------
 # qcisd/aug-cc-pvtz nosymm density=current pop=(chelpg,hirshfeld,npa,d
 ipole)
 ----------------------------------------------------------------------
 1/30=1,38=1,172=1/1;
 2/12=2,15=1,17=6,18=5,40=1/2;
 3/5=16,6=1,7=10,11=9,25=1,30=1,71=1/1,2,3;
 4//1;
 5/5=2,38=5/2;
 8/6=4,9=120000,10=1/1,4;
 9/5=8,15=1/13;
 11/28=-7,31=1,32=3,42=3/11;
 10/5=6,13=10,31=1/2;
 6/7=2,8=2,9=2,10=2,15=24,20=3,22=-1,40=-1,79=1/1,2,7;
 99/5=1,9=1/99;
 ------------------
 cl2cs-wavefunction
 ------------------
 Symbolic Z-matrix:
 Charge =  0 Multiplicity = 1
 C                     0.        0.       -0.52291 
 Cl                   -0.01     -1.43074  -1.5009 
 Cl                    0.        1.43074  -1.5009 
 S                     0.        0.        1.08181 
 
                          Input orientation:                          
 ---------------------------------------------------------------------
 Center     Atomic      Atomic             Coordinates (Angstroms)
 Number     Number       Type             X           Y           Z
 ---------------------------------------------------------------------
      1          6           0        0.000000    0.000000   -0.522914
      2         17           0       -0.010000   -1.430735   -1.500900
      3         17           0        0.000000    1.430735   -1.500900
      4         16           0        0.000000    0.000000    1.081815
 ---------------------------------------------------------------------
                    Distance matrix (angstroms):
                    1          2          3          4
     1  C    0.000000
     2  Cl   1.733078   0.000000
     3  Cl   1.733049   2.861487   0.000000
     4  S    1.604729   2.952545   2.952528   0.000000
 Symmetry turned off by external request.
 Stoichiometry    CCl2S
 Framework group  C1[X(CCl2S)]
 Deg. of freedom     6
 Full point group                 C1      NOp   1
 Rotational constants (GHZ):           3.5300577           3.4458851           1.7437330
 Standard basis: Aug-CC-pVTZ (5D, 7F)
   196 basis functions,   414 primitive gaussians,   232 cartesian basis functions
    28 alpha electrons       28 beta electrons
       nuclear repulsion energy       244.8918992163 Hartrees.
 NAtoms=    4 NActive=    4 NUniq=    4 SFac= 1.00D+00 NAtFMM=   60 NAOKFM=F Big=F
 Integral buffers will be    131072 words long.
 Raffenetti 1 integral format.
 Two-electron integral symmetry is turned off.
 One-electron integrals computed using PRISM.
 NBasis=   196 RedAO= T EigKep=  9.10D-05  NBF=   196
 NBsUse=   196 1.00D-06 EigRej= -1.00D+00 NBFU=   196
 ExpMin= 3.51D-02 ExpMax= 4.56D+05 ExpMxC= 1.44D+03 IAcc=3 IRadAn=         5 AccDes= 0.00D+00
 Harris functional with IExCor=  205 and IRadAn=       5 diagonalized for initial guess.
 HarFok:  IExCor=  205 AccDes= 0.00D+00 IRadAn=         5 IDoV= 1 UseB2=F ITyADJ=14
 ICtDFT=  3500011 ScaDFX=  1.000000  1.000000  1.000000  1.000000
 FoFCou: FMM=F IPFlag=           0 FMFlag=      100000 FMFlg1=           0
         NFxFlg=           0 DoJE=T BraDBF=F KetDBF=T FulRan=T
         wScrn=  0.000000 ICntrl=       500 IOpCl=  0 I1Cent=   200000004 NGrid=           0
         NMat0=    1 NMatS0=      1 NMatT0=    0 NMatD0=    1 NMtDS0=    0 NMtDT0=    0
 Symmetry not used in FoFCou.
 Keep R1 ints in memory in canonical form, NReq=194496592.
 Requested convergence on RMS density matrix=1.00D-08 within 128 cycles.
 Requested convergence on MAX density matrix=1.00D-06.
 Requested convergence on             energy=1.00D-06.
 No special actions if energy rises.
 SCF Done:  E(RHF) =  -1354.42602212     A.U. after   12 cycles
            NFock= 12  Conv=0.87D-08     -V/T= 2.0001
 ExpMin= 3.51D-02 ExpMax= 4.56D+05 ExpMxC= 1.44D+03 IAcc=3 IRadAn=         5 AccDes= 0.00D+00
 HarFok:  IExCor=  205 AccDes= 0.00D+00 IRadAn=         5 IDoV=-2 UseB2=F ITyADJ=14
 ICtDFT= 12500011 ScaDFX=  1.000000  1.000000  1.000000  1.000000
 Range of M.O.s used for correlation:    17   196
 NBasis=   196 NAE=    28 NBE=    28 NFC=    16 NFV=     0
 NROrb=    180 NOA=    12 NOB=    12 NVA=   168 NVB=   168

 **** Warning!!: The largest alpha MO coefficient is  0.31157647D+02

 Semi-Direct transformation.
 ModeAB=           2 MOrb=            12 LenV=    2146408907
 LASXX=     33405819 LTotXX=    33405819 LenRXX=    33405819
 LTotAB=    33954012 MaxLAS=    58380480 LenRXY=    58380480
 NonZer=    66811638 LenScr=   100987392 LnRSAI=           0
 LnScr1=           0 LExtra=           0 Total=    192773691
 MaxDsk=          -1 SrtSym=           F ITran=            4
 JobTyp=0 Pass  1:  I=   1 to  12.
 (rs|ai) integrals will be sorted in core.
 Spin components of T(2) and E(2):
     alpha-alpha T2 =       0.3952982668D-01 E2=     -0.9366363086D-01
     alpha-beta  T2 =       0.2072471252D+00 E2=     -0.5370473842D+00
     beta-beta   T2 =       0.3952982668D-01 E2=     -0.9366363086D-01
 ANorm=    0.1134154654D+01
 E2 =    -0.7243746459D+00 EUMP2 =    -0.13551503967676D+04
 Keep R2 and R3 ints in memory in canonical form, NReq=380875895.
 CIDS: In Core Option IDoMem=           1.
 Iterations=  50 Convergence= 0.100D-07
 Produce multiple copies of IABC intergrals
 Iteration Nr.   1
 **********************
 DD1Dir will call FoFMem   1 times, MxPair=       156
 NAB=    78 NAA=     0 NBB=     0.
 MP4(R+Q)=  0.24886227D-01
 E3=       -0.32600002D-01        EUMP3=      -0.13551829968D+04
 E4(DQ)=    0.31061307D-02        UMP4(DQ)=   -0.13551798906D+04
 E4(SDQ)=  -0.37171153D-02        UMP4(SDQ)=  -0.13551867139D+04
 DE(Corr)= -0.73208842     E(Corr)=     -1355.1581105    
 NORM(A)=   0.11380821D+01
 Iteration Nr.   2
 **********************
 DD1Dir will call FoFMem   1 times, MxPair=       156
 NAB=    78 NAA=     0 NBB=     0.
 DE(Corr)= -0.75642077     E(CORR)=     -1355.1824429     Delta=-2.43D-02
 NORM(A)=   0.11490810D+01
 Iteration Nr.   3
 **********************
 DD1Dir will call FoFMem   1 times, MxPair=       156
 NAB=    78 NAA=     0 NBB=     0.
 DE(Corr)= -0.75560409     E(CORR)=     -1355.1816262     Delta= 8.17D-04
 NORM(A)=   0.11518243D+01
 Iteration Nr.   4
 **********************
 DD1Dir will call FoFMem   1 times, MxPair=       156
 NAB=    78 NAA=     0 NBB=     0.
 DE(Corr)= -0.75786692     E(CORR)=     -1355.1838890     Delta=-2.26D-03
 NORM(A)=   0.11529014D+01
 Iteration Nr.   5
 **********************
 DD1Dir will call FoFMem   1 times, MxPair=       156
 NAB=    78 NAA=     0 NBB=     0.
 DE(Corr)= -0.75814504     E(CORR)=     -1355.1841672     Delta=-2.78D-04
 NORM(A)=   0.11534387D+01
 Iteration Nr.   6
 **********************
 DD1Dir will call FoFMem   1 times, MxPair=       156
 NAB=    78 NAA=     0 NBB=     0.
 DE(Corr)= -0.75819796     E(CORR)=     -1355.1842201     Delta=-5.29D-05
 NORM(A)=   0.11535017D+01
 Iteration Nr.   7
 **********************
 DD1Dir will call FoFMem   1 times, MxPair=       156
 NAB=    78 NAA=     0 NBB=     0.
 DE(Corr)= -0.75820522     E(CORR)=     -1355.1842273     Delta=-7.26D-06
 NORM(A)=   0.11535071D+01
 Iteration Nr.   8
 **********************
 DD1Dir will call FoFMem   1 times, MxPair=       156
 NAB=    78 NAA=     0 NBB=     0.
 DE(Corr)= -0.75820332     E(CORR)=     -1355.1842254     Delta= 1.90D-06
 NORM(A)=   0.11535136D+01
 Iteration Nr.   9
 **********************
 DD1Dir will call FoFMem   1 times, MxPair=       156
 NAB=    78 NAA=     0 NBB=     0.
 DE(Corr)= -0.75820338     E(CORR)=     -1355.1842255     Delta=-6.32D-08
 NORM(A)=   0.11535125D+01
 Iteration Nr.  10
 **********************
 DD1Dir will call FoFMem   1 times, MxPair=       156
 NAB=    78 NAA=     0 NBB=     0.
 DE(Corr)= -0.75820437     E(CORR)=     -1355.1842265     Delta=-9.83D-07
 NORM(A)=   0.11535143D+01
 Iteration Nr.  11
 **********************
 DD1Dir will call FoFMem   1 times, MxPair=       156
 NAB=    78 NAA=     0 NBB=     0.
 DE(Corr)= -0.75820506     E(CORR)=     -1355.1842272     Delta=-6.89D-07
 NORM(A)=   0.11535153D+01
 Iteration Nr.  12
 **********************
 DD1Dir will call FoFMem   1 times, MxPair=       156
 NAB=    78 NAA=     0 NBB=     0.
 DE(Corr)= -0.75820528     E(CORR)=     -1355.1842274     Delta=-2.25D-07
 NORM(A)=   0.11535161D+01
 Iteration Nr.  13
 **********************
 DD1Dir will call FoFMem   1 times, MxPair=       156
 NAB=    78 NAA=     0 NBB=     0.
 DE(Corr)= -0.75820557     E(CORR)=     -1355.1842277     Delta=-2.88D-07
 NORM(A)=   0.11535166D+01
 Iteration Nr.  14
 **********************
 DD1Dir will call FoFMem   1 times, MxPair=       156
 NAB=    78 NAA=     0 NBB=     0.
 DE(Corr)= -0.75820560     E(CORR)=     -1355.1842277     Delta=-2.85D-08
 NORM(A)=   0.11535167D+01
 Iteration Nr.  15
 **********************
 DD1Dir will call FoFMem   1 times, MxPair=       156
 NAB=    78 NAA=     0 NBB=     0.
 DE(Corr)= -0.75820565     E(CORR)=     -1355.1842278     Delta=-5.52D-08
 NORM(A)=   0.11535168D+01
 Iteration Nr.  16
 **********************
 DD1Dir will call FoFMem   1 times, MxPair=       156
 NAB=    78 NAA=     0 NBB=     0.
 DE(Corr)= -0.75820567     E(CORR)=     -1355.1842278     Delta=-1.24D-08
 NORM(A)=   0.11535169D+01
 Iteration Nr.  17
 **********************
 DD1Dir will call FoFMem   1 times, MxPair=       156
 NAB=    78 NAA=     0 NBB=     0.
 DE(Corr)= -0.75820567     E(CORR)=     -1355.1842278     Delta= 2.49D-11
 NORM(A)=   0.11535169D+01
 Wavefunction amplitudes converged. E(Corr)=     -1355.1842278    
 Largest amplitude= 8.91D-02

 Z-amplitude iterations

 Iteration Nr.   1
 **********************
 DD1Dir will call FoFMem   1 times, MxPair=       156
 NAB=    78 NAA=     0 NBB=     0.
 DE(Z)= -0.72636127     E(Z)=     -1355.1523834     Delta= 3.18D-02
 NORM(A)=   0.11535324D+01
 Iteration Nr.   2
 **********************
 DD1Dir will call FoFMem   1 times, MxPair=       156
 NAB=    78 NAA=     0 NBB=     0.
 DE(Z)= -0.72636169     E(Z)=     -1355.1523838     Delta=-4.12D-07
 NORM(A)=   0.11551757D+01
 Iteration Nr.   3
 **********************
 DD1Dir will call FoFMem   1 times, MxPair=       156
 NAB=    78 NAA=     0 NBB=     0.
 DE(Z)= -0.72640540     E(Z)=     -1355.1524275     Delta=-4.37D-05
 NORM(A)=   0.11535415D+01
 Iteration Nr.   4
 **********************
 DD1Dir will call FoFMem   1 times, MxPair=       156
 NAB=    78 NAA=     0 NBB=     0.
 DE(Z)= -0.72636196     E(Z)=     -1355.1523841     Delta= 4.34D-05
 NORM(A)=   0.11535215D+01
 Iteration Nr.   5
 **********************
 DD1Dir will call FoFMem   1 times, MxPair=       156
 NAB=    78 NAA=     0 NBB=     0.
 DE(Z)= -0.72636140     E(Z)=     -1355.1523835     Delta= 5.60D-07
 NORM(A)=   0.11402938D+01
 Iteration Nr.   6
 **********************
 DD1Dir will call FoFMem   1 times, MxPair=       156
 NAB=    78 NAA=     0 NBB=     0.
 DE(Z)= -0.72597951     E(Z)=     -1355.1520016     Delta= 3.82D-04
 NORM(A)=   0.11402813D+01
 Iteration Nr.   7
 **********************
 DD1Dir will call FoFMem   1 times, MxPair=       156
 NAB=    78 NAA=     0 NBB=     0.
 DE(Z)= -0.72596762     E(Z)=     -1355.1519897     Delta= 1.19D-05
 NORM(A)=   0.11402797D+01
 Iteration Nr.   8
 **********************
 DD1Dir will call FoFMem   1 times, MxPair=       156
 NAB=    78 NAA=     0 NBB=     0.
 DE(Z)= -0.72597606     E(Z)=     -1355.1519982     Delta=-8.44D-06
 NORM(A)=   0.11402816D+01
 Iteration Nr.   9
 **********************
 DD1Dir will call FoFMem   1 times, MxPair=       156
 NAB=    78 NAA=     0 NBB=     0.
 DE(Z)= -0.72597408     E(Z)=     -1355.1519962     Delta= 1.98D-06
 NORM(A)=   0.11402792D+01
 Iteration Nr.  10
 **********************
 DD1Dir will call FoFMem   1 times, MxPair=       156
 NAB=    78 NAA=     0 NBB=     0.
 DE(Z)= -0.72597478     E(Z)=     -1355.1519969     Delta=-7.03D-07
 NORM(A)=   0.11402782D+01
 Iteration Nr.  11
 **********************
 DD1Dir will call FoFMem   1 times, MxPair=       156
 NAB=    78 NAA=     0 NBB=     0.
 DE(Z)= -0.72597484     E(Z)=     -1355.1519970     Delta=-5.14D-08
 NORM(A)=   0.11402782D+01
 Iteration Nr.  12
 **********************
 DD1Dir will call FoFMem   1 times, MxPair=       156
 NAB=    78 NAA=     0 NBB=     0.
 DE(Z)= -0.72597444     E(Z)=     -1355.1519966     Delta= 3.91D-07
 NORM(A)=   0.11402784D+01
 Iteration Nr.  13
 **********************
 DD1Dir will call FoFMem   1 times, MxPair=       156
 NAB=    78 NAA=     0 NBB=     0.
 DE(Z)= -0.72597462     E(Z)=     -1355.1519967     Delta=-1.77D-07
 NORM(A)=   0.11402787D+01
 Iteration Nr.  14
 **********************
 DD1Dir will call FoFMem   1 times, MxPair=       156
 NAB=    78 NAA=     0 NBB=     0.
 DE(Z)= -0.72597456     E(Z)=     -1355.1519967     Delta= 5.94D-08
 NORM(A)=   0.11402788D+01
 Iteration Nr.  15
 **********************
 DD1Dir will call FoFMem   1 times, MxPair=       156
 NAB=    78 NAA=     0 NBB=     0.
 DE(Z)= -0.72597461     E(Z)=     -1355.1519967     Delta=-5.27D-08
 NORM(A)=   0.11402788D+01
 Iteration Nr.  16
 **********************
 DD1Dir will call FoFMem   1 times, MxPair=       156
 NAB=    78 NAA=     0 NBB=     0.
 DE(Z)= -0.72597461     E(Z)=     -1355.1519967     Delta= 1.78D-09
 NORM(A)=   0.11402788D+01
 Z-amplitudes converged.
 Discarding MO integrals.
          Differentiating once with respect to electric field.
                with respect to dipole field.
          Electric field/nuclear overlap derivatives assumed to be zero.
 Keep R1 ints in memory in canonical form, NReq=194502114.
          There are     1 degrees of freedom in the 1st order CPHF.  IDoFFX=0 NUNeed=     1.
 LinEq1:  Iter=  0 NonCon=     1 RMS=2.08D-03 Max=6.35D-02 NDo=     1
 AX will form     1 AO Fock derivatives at one time.
 LinEq1:  Iter=  1 NonCon=     1 RMS=9.28D-04 Max=1.77D-02 NDo=     1
 LinEq1:  Iter=  2 NonCon=     1 RMS=4.11D-04 Max=1.02D-02 NDo=     1
 LinEq1:  Iter=  3 NonCon=     1 RMS=1.04D-04 Max=1.79D-03 NDo=     1
 LinEq1:  Iter=  4 NonCon=     1 RMS=2.44D-05 Max=8.01D-04 NDo=     1
 LinEq1:  Iter=  5 NonCon=     1 RMS=7.98D-06 Max=1.97D-04 NDo=     1
 LinEq1:  Iter=  6 NonCon=     1 RMS=2.41D-06 Max=8.99D-05 NDo=     1
 LinEq1:  Iter=  7 NonCon=     1 RMS=7.34D-07 Max=1.30D-05 NDo=     1
 LinEq1:  Iter=  8 NonCon=     1 RMS=1.36D-07 Max=2.09D-06 NDo=     1
 LinEq1:  Iter=  9 NonCon=     1 RMS=2.58D-08 Max=3.74D-07 NDo=     1
 LinEq1:  Iter= 10 NonCon=     1 RMS=6.84D-09 Max=1.78D-07 NDo=     1
 LinEq1:  Iter= 11 NonCon=     1 RMS=1.41D-09 Max=2.31D-08 NDo=     1
 LinEq1:  Iter= 12 NonCon=     1 RMS=3.24D-10 Max=5.48D-09 NDo=     1
 LinEq1:  Iter= 13 NonCon=     0 RMS=7.20D-11 Max=8.75D-10 NDo=     1
 Linear equations converged to 1.000D-10 1.000D-09 after    13 iterations.
 End of Minotr F.D. properties file   721 does not exist.
 End of Minotr F.D. properties file   722 does not exist.
 End of Minotr F.D. properties file   788 does not exist.

 **********************************************************************

            Population analysis using the CC Density.

 **********************************************************************

 Alpha  occ. eigenvalues -- -104.88760-104.88760 -91.97804 -11.44947 -10.61161
 Alpha  occ. eigenvalues --  -10.61159  -8.98098  -8.07837  -8.07837  -8.07627
 Alpha  occ. eigenvalues --   -8.07626  -8.07609  -8.07609  -6.66177  -6.66077
 Alpha  occ. eigenvalues --   -6.65927  -1.24301  -1.13392  -1.03990  -0.77141
 Alpha  occ. eigenvalues --   -0.64464  -0.60874  -0.58608  -0.50420  -0.49587
 Alpha  occ. eigenvalues --   -0.47765  -0.40764  -0.38099
 Alpha virt. eigenvalues --    0.01760   0.04856   0.06332   0.06897   0.10062
 Alpha virt. eigenvalues --    0.10090   0.10371   0.11213   0.11750   0.12854
 Alpha virt. eigenvalues --    0.15154   0.15353   0.16224   0.16376   0.16490
 Alpha virt. eigenvalues --    0.21180   0.21719   0.23253   0.26518   0.27060
 Alpha virt. eigenvalues --    0.28118   0.28929   0.30184   0.34377   0.34861
 Alpha virt. eigenvalues --    0.37876   0.38933   0.39844   0.40243   0.42246
 Alpha virt. eigenvalues --    0.44427   0.45460   0.45563   0.46238   0.48088
 Alpha virt. eigenvalues --    0.49027   0.50285   0.50805   0.54001   0.55294
 Alpha virt. eigenvalues --    0.56213   0.65320   0.65629   0.65717   0.70996
 Alpha virt. eigenvalues --    0.72509   0.73109   0.73864   0.74078   0.78494
 Alpha virt. eigenvalues --    0.79055   0.80255   0.80277   0.81681   0.83098
 Alpha virt. eigenvalues --    0.83343   0.86689   0.87415   0.88434   0.88569
 Alpha virt. eigenvalues --    0.91106   0.91958   0.92632   0.94724   0.95505
 Alpha virt. eigenvalues --    0.95818   0.97616   1.02013   1.03169   1.07833
 Alpha virt. eigenvalues --    1.11090   1.11512   1.12001   1.12845   1.17963
 Alpha virt. eigenvalues --    1.18693   1.20913   1.22829   1.28724   1.29513
 Alpha virt. eigenvalues --    1.31233   1.36191   1.39570   1.40411   1.47637
 Alpha virt. eigenvalues --    1.48639   1.52267   1.52913   1.53889   1.54891
 Alpha virt. eigenvalues --    1.61668   1.66291   1.68901   1.71150   1.71555
 Alpha virt. eigenvalues --    1.75232   1.83363   1.83388   1.85290   1.87495
 Alpha virt. eigenvalues --    1.87990   1.90012   1.98031   2.07241   2.07821
 Alpha virt. eigenvalues --    2.14158   2.17561   2.32367   2.32861   2.39128
 Alpha virt. eigenvalues --    2.39355   2.42974   2.44613   2.47257   2.47824
 Alpha virt. eigenvalues --    2.47999   2.53063   2.58186   2.58491   2.59933
 Alpha virt. eigenvalues --    2.60068   2.62399   2.64100   2.65267   2.65389
 Alpha virt. eigenvalues --    2.69601   2.83275   2.83812   2.87506   2.89442
 Alpha virt. eigenvalues --    2.90956   3.02687   3.02823   3.04866   3.05403
 Alpha virt. eigenvalues --    3.05452   3.07611   3.09584   3.13283   3.13426
 Alpha virt. eigenvalues --    3.14095   3.14858   3.19505   3.21572   3.23255
 Alpha virt. eigenvalues --    3.23770   3.35837   3.46756   3.55112   3.64703
 Alpha virt. eigenvalues --    3.70153   3.70645   3.72680   3.76525   3.84464
 Alpha virt. eigenvalues --    3.89288   3.91053   3.96936   4.13458   4.14772
 Alpha virt. eigenvalues --    4.20294   4.24062   4.70574   4.76719   6.45382
 Alpha virt. eigenvalues --    7.21370   7.27050   9.77157
          Condensed to atoms (all electrons):
               1          2          3          4
     1  C    5.673219   0.071298   0.071283   0.179125
     2  Cl   0.071298  17.191986  -0.119032  -0.128553
     3  Cl   0.071283  -0.119032  17.191980  -0.128557
     4  S    0.179125  -0.128553  -0.128557  16.051687
 Mulliken charges:
               1
     1  C    0.005075
     2  Cl  -0.015698
     3  Cl  -0.015674
     4  S    0.026297
 Sum of Mulliken charges =  -0.00000
 Mulliken charges with hydrogens summed into heavy atoms:
               1
     1  C    0.005075
     2  Cl  -0.015698
     3  Cl  -0.015674
     4  S    0.026297
 Electronic spatial extent (au):  <R**2>=            690.6831
 Charge=             -0.0000 electrons
 Dipole moment (field-independent basis, Debye):
    X=             -0.0025    Y=              0.0001    Z=             -0.4350  Tot=              0.4350
 Quadrupole moment (field-independent basis, Debye-Ang):
   XX=            -43.1530   YY=            -43.2925   ZZ=            -42.5375
   XY=             -0.0005   XZ=              0.0009   YZ=             -0.0002
 Traceless Quadrupole moment (field-independent basis, Debye-Ang):
   XX=             -0.1586   YY=             -0.2982   ZZ=              0.4569
   XY=             -0.0005   XZ=              0.0009   YZ=             -0.0002
 Octapole moment (field-independent basis, Debye-Ang**2):
  XXX=              0.3706  YYY=              0.0007  ZZZ=             81.6768  XYY=              0.0891
  XXY=             -0.0001  XXZ=             27.1313  XZZ=              0.1023  YZZ=              0.0004
  YYZ=             18.9949  XYZ=             -0.0284
 Hexadecapole moment (field-independent basis, Debye-Ang**3):
 XXXX=            -50.9016 YYYY=           -340.4827 ZZZZ=           -477.7195 XXXY=             -0.5479
 XXXZ=             -0.5726 YYYX=             -0.4641 YYYZ=             -0.0012 ZZZX=             -0.5273
 ZZZY=             -0.0010 XXYY=            -69.2263 XXZZ=            -89.7499 YYZZ=           -127.3456
 XXYZ=              0.0004 YYXZ=             -0.1038 ZZXY=             -0.1314
 N-N= 2.448918992163D+02 E-N=-3.713352694458D+03  KE= 1.355036321529D+03
 There are a total of       89716 grid points.
 ElSum from          density=       56.0000001764
 ElSum from atomic densities=       56.0000007122

 Hirshfeld populations at iteration   1 (CX, CA, CB, DipXYZ):
               1          2          3          4          5          6
     1  C    0.000001   2.959750   2.959750   0.000619  -0.000003  -0.136775
     2  Cl   0.000016   8.504742   8.504742  -0.000720  -0.061319  -0.020193
     3  Cl   0.000016   8.504734   8.504734  -0.000290   0.061326  -0.020197
     4  S    0.000011   8.030773   8.030773  -0.000777   0.000001   0.157633
       Tot   0.000044  28.000000  28.000000  -0.001168   0.000006  -0.019532

 Dip from Atomic Chgs              0.000179   0.000040  -0.151613
         Total Dipole             -0.000989   0.000045  -0.171146

 Hirshfeld charges, spin densities, dipoles, and CM5 charges using IRadAn=      5:
              Q-H        S-H        Dx         Dy         Dz        Q-CM5   
     1  C    0.080499   0.000000   0.000619  -0.000003  -0.136775   0.098902
     2  Cl  -0.009484   0.000000  -0.000720  -0.061319  -0.020193  -0.008009
     3  Cl  -0.009469   0.000000  -0.000290   0.061326  -0.020197  -0.007995
     4  S   -0.061547   0.000000  -0.000777   0.000001   0.157633  -0.082898
       Tot  -0.000000   0.000000  -0.001168   0.000006  -0.019532  -0.000000
 Hirshfeld charges with hydrogens summed into heavy atoms:
              Q-H       Q-CM5   
     1  C    0.080499   0.098902
     2  Cl  -0.009484  -0.008009
     3  Cl  -0.009469  -0.007995
     4  S   -0.061547  -0.082898
 
 EQQ= 0.000000000000E+00 EQD= 0.000000000000E+00 EDD=-0.673752136702E-03
 EQQ+QD+DD=-0.673752136702E-03
 
 Breneman (CHELPG) radii used.
 Generate Potential Derived Charges using the Breneman model, NDens= 1.
 Grid spacing= 0.300 Box extension= 2.800
 NStep X,Y,Z=   20     30     29   Total possible points=       17400
 Number of Points to Fit=    4406

 **********************************************************************

            Electrostatic Properties Using The CC Density.

 **********************************************************************

       Atomic Center    1 is at   0.000000  0.000000 -0.522914
       Atomic Center    2 is at  -0.010000 -1.430735 -1.500900
       Atomic Center    3 is at   0.000000  1.430735 -1.500900
       Atomic Center    4 is at   0.000000  0.000000  1.081815
    4406 points will be used for fitting atomic charges
 Fitting point charges to electrostatic potential
 The dipole moment will be constrained to the correct value
 Charges from ESP fit, RMS=   0.00804 RRMS=   1.06866:
 ESP charges:
               1
     1  C   -0.112029
     2  Cl   0.052328
     3  Cl   0.052345
     4  S    0.007355
 Sum of ESP charges =  -0.00000
 ESP charges with hydrogens summed into heavy atoms:
               1
     1  C   -0.112029
     2  Cl   0.052328
     3  Cl   0.052345
     4  S    0.007355
 Charge=  -0.00000 Dipole=    -0.0025     0.0001    -0.4350 Tot=     0.4350
 -----------------------------------------------------------------

              Electrostatic Properties (Atomic Units)

 -----------------------------------------------------------------
    Center     Electric         -------- Electric Field --------
               Potential          X             Y             Z
 -----------------------------------------------------------------
    1 Atom    -14.564544
    2 Atom    -64.377196
    3 Atom    -64.377192
    4 Atom    -59.209806
 -----------------------------------------------------------------
 ******************************Gaussian NBO Version 3.1******************************
             N A T U R A L   A T O M I C   O R B I T A L   A N D
          N A T U R A L   B O N D   O R B I T A L   A N A L Y S I S
 ******************************Gaussian NBO Version 3.1******************************
       /RESON  / : Allow strongly delocalized NBO set

 Analyzing the QCI/CC density

 Job title: cl2cs-wavefunction                                              

 Storage needed:    116194 in NPA (2147483536 available)
 GSVD:  LWork=        8166 too small for GESVD, short by       51245 words or       51245 for optimal perf.


 NATURAL POPULATIONS:  Natural atomic orbital occupancies 
                                                          
   NAO  Atom  No  lang   Type(AO)    Occupancy
 --------------------------------------------
     1    C    1  S      Cor( 1S)     1.99947
     2    C    1  S      Val( 2S)     1.16310
     3    C    1  S      Ryd( 3S)     0.00528
     4    C    1  S      Ryd( 4S)     0.00038
     5    C    1  S      Ryd( 5S)     0.00015
     6    C    1  px     Val( 2p)     1.02114
     7    C    1  px     Ryd( 3p)     0.00803
     8    C    1  px     Ryd( 4p)     0.00051
     9    C    1  px     Ryd( 5p)     0.00022
    10    C    1  py     Val( 2p)     0.95542
    11    C    1  py     Ryd( 3p)     0.02124
    12    C    1  py     Ryd( 5p)     0.00045
    13    C    1  py     Ryd( 4p)     0.00052
    14    C    1  pz     Val( 2p)     1.06804
    15    C    1  pz     Ryd( 3p)     0.02667
    16    C    1  pz     Ryd( 5p)     0.00036
    17    C    1  pz     Ryd( 4p)     0.00046
    18    C    1  dxy    Ryd( 3d)     0.01036
    19    C    1  dxy    Ryd( 4d)     0.00033
    20    C    1  dxy    Ryd( 5d)     0.00018
    21    C    1  dxz    Ryd( 3d)     0.01314
    22    C    1  dxz    Ryd( 4d)     0.00036
    23    C    1  dxz    Ryd( 5d)     0.00026
    24    C    1  dyz    Ryd( 3d)     0.01358
    25    C    1  dyz    Ryd( 4d)     0.00044
    26    C    1  dyz    Ryd( 5d)     0.00018
    27    C    1  dx2y2  Ryd( 3d)     0.00817
    28    C    1  dx2y2  Ryd( 4d)     0.00035
    29    C    1  dx2y2  Ryd( 5d)     0.00032
    30    C    1  dz2    Ryd( 3d)     0.01258
    31    C    1  dz2    Ryd( 4d)     0.00036
    32    C    1  dz2    Ryd( 5d)     0.00015
    33    C    1  f(0)   Ryd( 4f)     0.00480
    34    C    1  f(0)   Ryd( 5f)     0.00032
    35    C    1  f(C1)  Ryd( 4f)     0.00259
    36    C    1  f(C1)  Ryd( 5f)     0.00036
    37    C    1  f(S1)  Ryd( 4f)     0.00327
    38    C    1  f(S1)  Ryd( 5f)     0.00057
    39    C    1  f(C2)  Ryd( 4f)     0.00320
    40    C    1  f(C2)  Ryd( 5f)     0.00032
    41    C    1  f(S2)  Ryd( 4f)     0.00284
    42    C    1  f(S2)  Ryd( 5f)     0.00031
    43    C    1  f(C3)  Ryd( 4f)     0.00215
    44    C    1  f(C3)  Ryd( 5f)     0.00024
    45    C    1  f(S3)  Ryd( 4f)     0.00211
    46    C    1  f(S3)  Ryd( 5f)     0.00024

    47   Cl    2  S      Cor( 1S)     2.00000
    48   Cl    2  S      Cor( 2S)     1.99919
    49   Cl    2  S      Val( 3S)     1.81167
    50   Cl    2  S      Ryd( 4S)     0.00538
    51   Cl    2  S      Ryd( 5S)     0.00034
    52   Cl    2  S      Ryd( 6S)     0.00027
    53   Cl    2  px     Cor( 2p)     2.00002
    54   Cl    2  px     Val( 3p)     1.83727
    55   Cl    2  px     Ryd( 4p)     0.00886
    56   Cl    2  px     Ryd( 5p)     0.00052
    57   Cl    2  px     Ryd( 6p)     0.00010
    58   Cl    2  py     Cor( 2p)     1.99993
    59   Cl    2  py     Val( 3p)     1.43346
    60   Cl    2  py     Ryd( 4p)     0.00600
    61   Cl    2  py     Ryd( 5p)     0.00051
    62   Cl    2  py     Ryd( 6p)     0.00012
    63   Cl    2  pz     Cor( 2p)     1.99998
    64   Cl    2  pz     Val( 3p)     1.69511
    65   Cl    2  pz     Ryd( 4p)     0.00753
    66   Cl    2  pz     Ryd( 5p)     0.00050
    67   Cl    2  pz     Ryd( 6p)     0.00013
    68   Cl    2  dxy    Ryd( 3d)     0.01768
    69   Cl    2  dxy    Ryd( 4d)     0.00050
    70   Cl    2  dxy    Ryd( 5d)     0.00012
    71   Cl    2  dxz    Ryd( 3d)     0.01841
    72   Cl    2  dxz    Ryd( 4d)     0.00062
    73   Cl    2  dxz    Ryd( 5d)     0.00013
    74   Cl    2  dyz    Ryd( 3d)     0.02250
    75   Cl    2  dyz    Ryd( 4d)     0.00046
    76   Cl    2  dyz    Ryd( 5d)     0.00014
    77   Cl    2  dx2y2  Ryd( 3d)     0.01964
    78   Cl    2  dx2y2  Ryd( 4d)     0.00051
    79   Cl    2  dx2y2  Ryd( 5d)     0.00012
    80   Cl    2  dz2    Ryd( 3d)     0.01704
    81   Cl    2  dz2    Ryd( 4d)     0.00050
    82   Cl    2  dz2    Ryd( 5d)     0.00018
    83   Cl    2  f(0)   Ryd( 4f)     0.00131
    84   Cl    2  f(0)   Ryd( 5f)     0.00014
    85   Cl    2  f(C1)  Ryd( 4f)     0.00134
    86   Cl    2  f(C1)  Ryd( 5f)     0.00013
    87   Cl    2  f(S1)  Ryd( 4f)     0.00128
    88   Cl    2  f(S1)  Ryd( 5f)     0.00018
    89   Cl    2  f(C2)  Ryd( 4f)     0.00152
    90   Cl    2  f(C2)  Ryd( 5f)     0.00015
    91   Cl    2  f(S2)  Ryd( 4f)     0.00134
    92   Cl    2  f(S2)  Ryd( 5f)     0.00015
    93   Cl    2  f(C3)  Ryd( 4f)     0.00132
    94   Cl    2  f(C3)  Ryd( 5f)     0.00015
    95   Cl    2  f(S3)  Ryd( 4f)     0.00134
    96   Cl    2  f(S3)  Ryd( 5f)     0.00015

    97   Cl    3  S      Cor( 1S)     2.00000
    98   Cl    3  S      Cor( 2S)     1.99919
    99   Cl    3  S      Val( 3S)     1.81166
   100   Cl    3  S      Ryd( 4S)     0.00538
   101   Cl    3  S      Ryd( 5S)     0.00034
   102   Cl    3  S      Ryd( 6S)     0.00027
   103   Cl    3  px     Cor( 2p)     2.00002
   104   Cl    3  px     Val( 3p)     1.83729
   105   Cl    3  px     Ryd( 4p)     0.00886
   106   Cl    3  px     Ryd( 5p)     0.00052
   107   Cl    3  px     Ryd( 6p)     0.00010
   108   Cl    3  py     Cor( 2p)     1.99993
   109   Cl    3  py     Val( 3p)     1.43344
   110   Cl    3  py     Ryd( 4p)     0.00600
   111   Cl    3  py     Ryd( 5p)     0.00051
   112   Cl    3  py     Ryd( 6p)     0.00012
   113   Cl    3  pz     Cor( 2p)     1.99998
   114   Cl    3  pz     Val( 3p)     1.69510
   115   Cl    3  pz     Ryd( 4p)     0.00753
   116   Cl    3  pz     Ryd( 5p)     0.00050
   117   Cl    3  pz     Ryd( 6p)     0.00013
   118   Cl    3  dxy    Ryd( 3d)     0.01768
   119   Cl    3  dxy    Ryd( 4d)     0.00050
   120   Cl    3  dxy    Ryd( 5d)     0.00012
   121   Cl    3  dxz    Ryd( 3d)     0.01841
   122   Cl    3  dxz    Ryd( 4d)     0.00062
   123   Cl    3  dxz    Ryd( 5d)     0.00013
   124   Cl    3  dyz    Ryd( 3d)     0.02250
   125   Cl    3  dyz    Ryd( 4d)     0.00046
   126   Cl    3  dyz    Ryd( 5d)     0.00014
   127   Cl    3  dx2y2  Ryd( 3d)     0.01964
   128   Cl    3  dx2y2  Ryd( 4d)     0.00051
   129   Cl    3  dx2y2  Ryd( 5d)     0.00012
   130   Cl    3  dz2    Ryd( 3d)     0.01704
   131   Cl    3  dz2    Ryd( 4d)     0.00050
   132   Cl    3  dz2    Ryd( 5d)     0.00018
   133   Cl    3  f(0)   Ryd( 4f)     0.00131
   134   Cl    3  f(0)   Ryd( 5f)     0.00014
   135   Cl    3  f(C1)  Ryd( 4f)     0.00134
   136   Cl    3  f(C1)  Ryd( 5f)     0.00013
   137   Cl    3  f(S1)  Ryd( 4f)     0.00128
   138   Cl    3  f(S1)  Ryd( 5f)     0.00018
   139   Cl    3  f(C2)  Ryd( 4f)     0.00152
   140   Cl    3  f(C2)  Ryd( 5f)     0.00015
   141   Cl    3  f(S2)  Ryd( 4f)     0.00134
   142   Cl    3  f(S2)  Ryd( 5f)     0.00015
   143   Cl    3  f(C3)  Ryd( 4f)     0.00132
   144   Cl    3  f(C3)  Ryd( 5f)     0.00015
   145   Cl    3  f(S3)  Ryd( 4f)     0.00134
   146   Cl    3  f(S3)  Ryd( 5f)     0.00015

   147    S    4  S      Cor( 1S)     2.00000
   148    S    4  S      Cor( 2S)     1.99839
   149    S    4  S      Val( 3S)     1.70556
   150    S    4  S      Ryd( 4S)     0.00836
   151    S    4  S      Ryd( 5S)     0.00038
   152    S    4  S      Ryd( 6S)     0.00023
   153    S    4  px     Cor( 2p)     1.99989
   154    S    4  px     Val( 3p)     1.15879
   155    S    4  px     Ryd( 4p)     0.00481
   156    S    4  px     Ryd( 5p)     0.00032
   157    S    4  px     Ryd( 6p)     0.00011
   158    S    4  py     Cor( 2p)     2.00000
   159    S    4  py     Val( 3p)     1.77966
   160    S    4  py     Ryd( 4p)     0.01023
   161    S    4  py     Ryd( 5p)     0.00047
   162    S    4  py     Ryd( 6p)     0.00014
   163    S    4  pz     Cor( 2p)     1.99966
   164    S    4  pz     Val( 3p)     1.04400
   165    S    4  pz     Ryd( 4p)     0.00516
   166    S    4  pz     Ryd( 5p)     0.00046
   167    S    4  pz     Ryd( 6p)     0.00009
   168    S    4  dxy    Ryd( 3d)     0.01613
   169    S    4  dxy    Ryd( 4d)     0.00053
   170    S    4  dxy    Ryd( 5d)     0.00009
   171    S    4  dxz    Ryd( 3d)     0.01692
   172    S    4  dxz    Ryd( 4d)     0.00035
   173    S    4  dxz    Ryd( 5d)     0.00008
   174    S    4  dyz    Ryd( 3d)     0.01391
   175    S    4  dyz    Ryd( 4d)     0.00037
   176    S    4  dyz    Ryd( 5d)     0.00028
   177    S    4  dx2y2  Ryd( 3d)     0.01566
   178    S    4  dx2y2  Ryd( 4d)     0.00054
   179    S    4  dx2y2  Ryd( 5d)     0.00010
   180    S    4  dz2    Ryd( 3d)     0.02151
   181    S    4  dz2    Ryd( 4d)     0.00041
   182    S    4  dz2    Ryd( 5d)     0.00010
   183    S    4  f(0)   Ryd( 4f)     0.00121
   184    S    4  f(0)   Ryd( 5f)     0.00021
   185    S    4  f(C1)  Ryd( 4f)     0.00094
   186    S    4  f(C1)  Ryd( 5f)     0.00015
   187    S    4  f(S1)  Ryd( 4f)     0.00109
   188    S    4  f(S1)  Ryd( 5f)     0.00016
   189    S    4  f(C2)  Ryd( 4f)     0.00091
   190    S    4  f(C2)  Ryd( 5f)     0.00014
   191    S    4  f(S2)  Ryd( 4f)     0.00095
   192    S    4  f(S2)  Ryd( 5f)     0.00012
   193    S    4  f(C3)  Ryd( 4f)     0.00136
   194    S    4  f(C3)  Ryd( 5f)     0.00013
   195    S    4  f(S3)  Ryd( 4f)     0.00136
   196    S    4  f(S3)  Ryd( 5f)     0.00013

 WARNING:  1 low occupancy (<1.9990e) core orbital  found on  S    4


 Summary of Natural Population Analysis:                  
                                                          
                                       Natural Population 
                Natural  -----------------------------------------------
    Atom  No    Charge         Core      Valence    Rydberg      Total
 -----------------------------------------------------------------------
      C    1   -0.35551      1.99947     4.20770    0.14834     6.35551
     Cl    2    0.08402      9.99912     6.77751    0.13935    16.91598
     Cl    3    0.08404      9.99912     6.77749    0.13935    16.91596
      S    4    0.18745      9.99794     5.68802    0.12660    15.81255
 =======================================================================
   * Total *    0.00000     31.99565    23.45071    0.55364    56.00000

                                 Natural Population      
 --------------------------------------------------------
   Core                      31.99565 ( 99.9864% of  32)
   Valence                   23.45071 ( 97.7113% of  24)
   Natural Minimal Basis     55.44636 ( 99.0114% of  56)
   Natural Rydberg Basis      0.55364 (  0.9886% of  56)
 --------------------------------------------------------

    Atom  No          Natural Electron Configuration
 ----------------------------------------------------------------------------
      C    1      [core]2S( 1.16)2p( 3.04)3S( 0.01)3p( 0.06)3d( 0.06)4f( 0.02)
     Cl    2      [core]3S( 1.81)3p( 4.97)4S( 0.01)3d( 0.10)4p( 0.02)4f( 0.01)
     Cl    3      [core]3S( 1.81)3p( 4.97)4S( 0.01)3d( 0.10)4p( 0.02)4f( 0.01)
      S    4      [core]3S( 1.71)3p( 3.98)4S( 0.01)3d( 0.08)4p( 0.02)4f( 0.01)


 NBO analysis skipped by request.
 Unable to Open any file for archive entry.
 1\1\GINC-TRAPISTA\SP\RQCISD-FC\Aug-CC-pVTZ\C1Cl2S1\WAGNER\04-Sep-2022\
 0\\# qcisd/aug-cc-pvtz nosymm density=current pop=(chelpg,hirshfeld,np
 a,dipole)\\cl2cs-wavefunction\\0,1\C,0,0.,0.,-0.522914\Cl,0,-0.01,-1.4
 30735,-1.5009\Cl,0,0.,1.430735,-1.5009\S,0,0.,0.,1.081815\\Version=EM6
 4L-G16RevC.01\HF=-1354.4260221\MP2=-1355.1503968\MP3=-1355.1829968\MP4
 D=-1355.2047769\MP4DQ=-1355.1798906\MP4SDQ=-1355.1867139\QCISD=-1355.1
 842278\RMSD=8.660e-09\Dipole=-0.0009889,0.0000453,-0.1711454\Quadrupol
 e=-0.1179485,-0.2217104,0.3396589,-0.000363,0.000664,-0.0001315\PG=C01
  [X(C1Cl2S1)]\\@
 The archive entry for this job was punched.


 MOST BUREAUCRACIES FUNCTION LIKE A SEPTIC TANK.
 THE LARGE CHUNKS RISE TO THE TOP.
 Job cpu time:       0 days  7 hours 16 minutes 33.3 seconds.
 Elapsed time:       0 days  0 hours 27 minutes 34.6 seconds.
 File lengths (MBytes):  RWF=  23427 Int=      0 D2E=      0 Chk=      4 Scr=      1
 Normal termination of Gaussian 16 at Sun Sep  4 10:31:10 2022.
