 Entering Gaussian System, Link 0=/home/wagner/chemistry/gaussian/g16/g16
 Input=GAUSSIAN.com
 Output=GAUSSIAN.log
 Initial command:
 /home/wagner/chemistry/gaussian/g16/l1.exe "/home/wagner/chemistry/gaussian/work/Gau-54517.inp" -scrdir="/home/wagner/chemistry/gaussian/work/"
 Entering Link 1 = /home/wagner/chemistry/gaussian/g16/l1.exe PID=     54519.
  
 Copyright (c) 1988-2019, Gaussian, Inc.  All Rights Reserved.
  
 This is part of the Gaussian(R) 16 program.  It is based on
 the Gaussian(R) 09 system (copyright 2009, Gaussian, Inc.),
 the Gaussian(R) 03 system (copyright 2003, Gaussian, Inc.),
 the Gaussian(R) 98 system (copyright 1998, Gaussian, Inc.),
 the Gaussian(R) 94 system (copyright 1995, Gaussian, Inc.),
 the Gaussian 92(TM) system (copyright 1992, Gaussian, Inc.),
 the Gaussian 90(TM) system (copyright 1990, Gaussian, Inc.),
 the Gaussian 88(TM) system (copyright 1988, Gaussian, Inc.),
 the Gaussian 86(TM) system (copyright 1986, Carnegie Mellon
 University), and the Gaussian 82(TM) system (copyright 1983,
 Carnegie Mellon University). Gaussian is a federally registered
 trademark of Gaussian, Inc.
  
 This software contains proprietary and confidential information,
 including trade secrets, belonging to Gaussian, Inc.
  
 This software is provided under written license and may be
 used, copied, transmitted, or stored only in accord with that
 written license.
  
 The following legend is applicable only to US Government
 contracts under FAR:
  
                    RESTRICTED RIGHTS LEGEND
  
 Use, reproduction and disclosure by the US Government is
 subject to restrictions as set forth in subparagraphs (a)
 and (c) of the Commercial Computer Software - Restricted
 Rights clause in FAR 52.227-19.
  
 Gaussian, Inc.
 340 Quinnipiac St., Bldg. 40, Wallingford CT 06492
  
  
 ---------------------------------------------------------------
 Warning -- This program may not be used in any manner that
 competes with the business of Gaussian, Inc. or will provide
 assistance to any competitor of Gaussian, Inc.  The licensee
 of this program is prohibited from giving any competitor of
 Gaussian, Inc. access to this program.  By using this program,
 the user acknowledges that Gaussian, Inc. is engaged in the
 business of creating and licensing software in the field of
 computational chemistry and represents and warrants to the
 licensee that it is not a competitor of Gaussian, Inc. and that
 it will not use this program in any manner prohibited above.
 ---------------------------------------------------------------
  

 Cite this work as:
 Gaussian 16, Revision C.01,
 M. J. Frisch, G. W. Trucks, H. B. Schlegel, G. E. Scuseria, 
 M. A. Robb, J. R. Cheeseman, G. Scalmani, V. Barone, 
 G. A. Petersson, H. Nakatsuji, X. Li, M. Caricato, A. V. Marenich, 
 J. Bloino, B. G. Janesko, R. Gomperts, B. Mennucci, H. P. Hratchian, 
 J. V. Ortiz, A. F. Izmaylov, J. L. Sonnenberg, D. Williams-Young, 
 F. Ding, F. Lipparini, F. Egidi, J. Goings, B. Peng, A. Petrone, 
 T. Henderson, D. Ranasinghe, V. G. Zakrzewski, J. Gao, N. Rega, 
 G. Zheng, W. Liang, M. Hada, M. Ehara, K. Toyota, R. Fukuda, 
 J. Hasegawa, M. Ishida, T. Nakajima, Y. Honda, O. Kitao, H. Nakai, 
 T. Vreven, K. Throssell, J. A. Montgomery, Jr., J. E. Peralta, 
 F. Ogliaro, M. J. Bearpark, J. J. Heyd, E. N. Brothers, K. N. Kudin, 
 V. N. Staroverov, T. A. Keith, R. Kobayashi, J. Normand, 
 K. Raghavachari, A. P. Rendell, J. C. Burant, S. S. Iyengar, 
 J. Tomasi, M. Cossi, J. M. Millam, M. Klene, C. Adamo, R. Cammi, 
 J. W. Ochterski, R. L. Martin, K. Morokuma, O. Farkas, 
 J. B. Foresman, and D. J. Fox, Gaussian, Inc., Wallingford CT, 2019.
 
 ******************************************
 Gaussian 16:  EM64L-G16RevC.01  3-Jul-2019
                 4-Sep-2022 
 ******************************************
 %nproc=16
 Will use up to   16 processors via shared memory.
 %mem=16GB
 ----------------------------------------------------------------------
 # qcisd/aug-cc-pvtz nosymm density=current pop=(chelpg,hirshfeld,npa,d
 ipole)
 ----------------------------------------------------------------------
 1/30=1,38=1,172=1/1;
 2/12=2,15=1,17=6,18=5,40=1/2;
 3/5=16,6=1,7=10,11=9,25=1,30=1,71=1/1,2,3;
 4//1;
 5/5=2,38=5/2;
 8/6=4,9=120000,10=1/1,4;
 9/5=8,15=1/13;
 11/28=-7,31=1,32=3,42=3/11;
 10/5=6,13=10,31=1/2;
 6/7=2,8=2,9=2,10=2,15=24,20=3,22=-1,40=-1,79=1/1,2,7;
 99/5=1,9=1/99;
 ------------------
 cl2cs-wavefunction
 ------------------
 Symbolic Z-matrix:
 Charge =  0 Multiplicity = 1
 C                     0.        0.       -0.52291 
 Cl                    0.       -1.43074  -1.5009 
 Cl                    0.        1.43074  -1.5009 
 S                     0.        0.        1.07181 
 
                          Input orientation:                          
 ---------------------------------------------------------------------
 Center     Atomic      Atomic             Coordinates (Angstroms)
 Number     Number       Type             X           Y           Z
 ---------------------------------------------------------------------
      1          6           0        0.000000    0.000000   -0.522914
      2         17           0        0.000000   -1.430735   -1.500900
      3         17           0        0.000000    1.430735   -1.500900
      4         16           0        0.000000    0.000000    1.071815
 ---------------------------------------------------------------------
                    Distance matrix (angstroms):
                    1          2          3          4
     1  C    0.000000
     2  Cl   1.733049   0.000000
     3  Cl   1.733049   2.861470   0.000000
     4  S    1.594729   2.943784   2.943784   0.000000
 Symmetry turned off by external request.
 Stoichiometry    CCl2S
 Framework group  C2V[C2(CS),SGV(Cl2)]
 Deg. of freedom     3
 Full point group                 C2V     NOp   4
 Rotational constants (GHZ):           3.5301033           3.4724133           1.7505103
 Standard basis: Aug-CC-pVTZ (5D, 7F)
   196 basis functions,   414 primitive gaussians,   232 cartesian basis functions
    28 alpha electrons       28 beta electrons
       nuclear repulsion energy       245.3811249578 Hartrees.
 NAtoms=    4 NActive=    4 NUniq=    4 SFac= 1.00D+00 NAtFMM=   60 NAOKFM=F Big=F
 Integral buffers will be    131072 words long.
 Raffenetti 1 integral format.
 Two-electron integral symmetry is turned off.
 One-electron integrals computed using PRISM.
 NBasis=   196 RedAO= T EigKep=  8.95D-05  NBF=   196
 NBsUse=   196 1.00D-06 EigRej= -1.00D+00 NBFU=   196
 ExpMin= 3.51D-02 ExpMax= 4.56D+05 ExpMxC= 1.44D+03 IAcc=3 IRadAn=         5 AccDes= 0.00D+00
 Harris functional with IExCor=  205 and IRadAn=       5 diagonalized for initial guess.
 HarFok:  IExCor=  205 AccDes= 0.00D+00 IRadAn=         5 IDoV= 1 UseB2=F ITyADJ=14
 ICtDFT=  3500011 ScaDFX=  1.000000  1.000000  1.000000  1.000000
 FoFCou: FMM=F IPFlag=           0 FMFlag=      100000 FMFlg1=           0
         NFxFlg=           0 DoJE=T BraDBF=F KetDBF=T FulRan=T
         wScrn=  0.000000 ICntrl=       500 IOpCl=  0 I1Cent=   200000004 NGrid=           0
         NMat0=    1 NMatS0=      1 NMatT0=    0 NMatD0=    1 NMtDS0=    0 NMtDT0=    0
 Symmetry not used in FoFCou.
 Keep R1 ints in memory in canonical form, NReq=194496708.
 Requested convergence on RMS density matrix=1.00D-08 within 128 cycles.
 Requested convergence on MAX density matrix=1.00D-06.
 Requested convergence on             energy=1.00D-06.
 No special actions if energy rises.
 SCF Done:  E(RHF) =  -1354.42627534     A.U. after   12 cycles
            NFock= 12  Conv=0.84D-08     -V/T= 2.0001
 ExpMin= 3.51D-02 ExpMax= 4.56D+05 ExpMxC= 1.44D+03 IAcc=3 IRadAn=         5 AccDes= 0.00D+00
 HarFok:  IExCor=  205 AccDes= 0.00D+00 IRadAn=         5 IDoV=-2 UseB2=F ITyADJ=14
 ICtDFT= 12500011 ScaDFX=  1.000000  1.000000  1.000000  1.000000
 Range of M.O.s used for correlation:    17   196
 NBasis=   196 NAE=    28 NBE=    28 NFC=    16 NFV=     0
 NROrb=    180 NOA=    12 NOB=    12 NVA=   168 NVB=   168

 **** Warning!!: The largest alpha MO coefficient is  0.30948485D+02

 Semi-Direct transformation.
 ModeAB=           2 MOrb=            12 LenV=    2146408739
 LASXX=     33405819 LTotXX=    33405819 LenRXX=    33405819
 LTotAB=    33954012 MaxLAS=    58380480 LenRXY=    58380480
 NonZer=    66811638 LenScr=   100987392 LnRSAI=           0
 LnScr1=           0 LExtra=           0 Total=    192773691
 MaxDsk=          -1 SrtSym=           F ITran=            4
 JobTyp=0 Pass  1:  I=   1 to  12.
 (rs|ai) integrals will be sorted in core.
 Spin components of T(2) and E(2):
     alpha-alpha T2 =       0.3943844571D-01 E2=     -0.9363753039D-01
     alpha-beta  T2 =       0.2066724155D+00 E2=     -0.5367410023D+00
     beta-beta   T2 =       0.3943844571D-01 E2=     -0.9363753039D-01
 ANorm=    0.1133820668D+01
 E2 =    -0.7240160630D+00 EUMP2 =    -0.13551502913997D+04
 Keep R2 and R3 ints in memory in canonical form, NReq=380876011.
 CIDS: In Core Option IDoMem=           1.
 Iterations=  50 Convergence= 0.100D-07
 Produce multiple copies of IABC intergrals
 Iteration Nr.   1
 **********************
 DD1Dir will call FoFMem   1 times, MxPair=       156
 NAB=    78 NAA=     0 NBB=     0.
 MP4(R+Q)=  0.24801619D-01
 E3=       -0.32729849D-01        EUMP3=      -0.13551830212D+04
 E4(DQ)=    0.31233331D-02        UMP4(DQ)=   -0.13551798979D+04
 E4(SDQ)=  -0.35985062D-02        UMP4(SDQ)=  -0.13551866198D+04
 DE(Corr)= -0.73194429     E(Corr)=     -1355.1582196    
 NORM(A)=   0.11378004D+01
 Iteration Nr.   2
 **********************
 DD1Dir will call FoFMem   1 times, MxPair=       156
 NAB=    78 NAA=     0 NBB=     0.
 DE(Corr)= -0.75607584     E(CORR)=     -1355.1823512     Delta=-2.41D-02
 NORM(A)=   0.11487104D+01
 Iteration Nr.   3
 **********************
 DD1Dir will call FoFMem   1 times, MxPair=       156
 NAB=    78 NAA=     0 NBB=     0.
 DE(Corr)= -0.75531913     E(CORR)=     -1355.1815945     Delta= 7.57D-04
 NORM(A)=   0.11513856D+01
 Iteration Nr.   4
 **********************
 DD1Dir will call FoFMem   1 times, MxPair=       156
 NAB=    78 NAA=     0 NBB=     0.
 DE(Corr)= -0.75754258     E(CORR)=     -1355.1838179     Delta=-2.22D-03
 NORM(A)=   0.11524259D+01
 Iteration Nr.   5
 **********************
 DD1Dir will call FoFMem   1 times, MxPair=       156
 NAB=    78 NAA=     0 NBB=     0.
 DE(Corr)= -0.75781212     E(CORR)=     -1355.1840875     Delta=-2.70D-04
 NORM(A)=   0.11529407D+01
 Iteration Nr.   6
 **********************
 DD1Dir will call FoFMem   1 times, MxPair=       156
 NAB=    78 NAA=     0 NBB=     0.
 DE(Corr)= -0.75786316     E(CORR)=     -1355.1841385     Delta=-5.10D-05
 NORM(A)=   0.11529995D+01
 Iteration Nr.   7
 **********************
 DD1Dir will call FoFMem   1 times, MxPair=       156
 NAB=    78 NAA=     0 NBB=     0.
 DE(Corr)= -0.75787006     E(CORR)=     -1355.1841454     Delta=-6.90D-06
 NORM(A)=   0.11530054D+01
 Iteration Nr.   8
 **********************
 DD1Dir will call FoFMem   1 times, MxPair=       156
 NAB=    78 NAA=     0 NBB=     0.
 DE(Corr)= -0.75786795     E(CORR)=     -1355.1841433     Delta= 2.11D-06
 NORM(A)=   0.11530115D+01
 Iteration Nr.   9
 **********************
 DD1Dir will call FoFMem   1 times, MxPair=       156
 NAB=    78 NAA=     0 NBB=     0.
 DE(Corr)= -0.75786832     E(CORR)=     -1355.1841437     Delta=-3.69D-07
 NORM(A)=   0.11530106D+01
 Iteration Nr.  10
 **********************
 DD1Dir will call FoFMem   1 times, MxPair=       156
 NAB=    78 NAA=     0 NBB=     0.
 DE(Corr)= -0.75786916     E(CORR)=     -1355.1841445     Delta=-8.36D-07
 NORM(A)=   0.11530125D+01
 Iteration Nr.  11
 **********************
 DD1Dir will call FoFMem   1 times, MxPair=       156
 NAB=    78 NAA=     0 NBB=     0.
 DE(Corr)= -0.75786992     E(CORR)=     -1355.1841453     Delta=-7.56D-07
 NORM(A)=   0.11530135D+01
 Iteration Nr.  12
 **********************
 DD1Dir will call FoFMem   1 times, MxPair=       156
 NAB=    78 NAA=     0 NBB=     0.
 DE(Corr)= -0.75787010     E(CORR)=     -1355.1841454     Delta=-1.84D-07
 NORM(A)=   0.11530142D+01
 Iteration Nr.  13
 **********************
 DD1Dir will call FoFMem   1 times, MxPair=       156
 NAB=    78 NAA=     0 NBB=     0.
 DE(Corr)= -0.75787040     E(CORR)=     -1355.1841457     Delta=-3.01D-07
 NORM(A)=   0.11530147D+01
 Iteration Nr.  14
 **********************
 DD1Dir will call FoFMem   1 times, MxPair=       156
 NAB=    78 NAA=     0 NBB=     0.
 DE(Corr)= -0.75787042     E(CORR)=     -1355.1841458     Delta=-2.18D-08
 NORM(A)=   0.11530149D+01
 Iteration Nr.  15
 **********************
 DD1Dir will call FoFMem   1 times, MxPair=       156
 NAB=    78 NAA=     0 NBB=     0.
 DE(Corr)= -0.75787048     E(CORR)=     -1355.1841458     Delta=-5.47D-08
 NORM(A)=   0.11530150D+01
 Iteration Nr.  16
 **********************
 DD1Dir will call FoFMem   1 times, MxPair=       156
 NAB=    78 NAA=     0 NBB=     0.
 DE(Corr)= -0.75787049     E(CORR)=     -1355.1841458     Delta=-1.14D-08
 NORM(A)=   0.11530150D+01
 Iteration Nr.  17
 **********************
 DD1Dir will call FoFMem   1 times, MxPair=       156
 NAB=    78 NAA=     0 NBB=     0.
 DE(Corr)= -0.75787049     E(CORR)=     -1355.1841458     Delta= 3.19D-09
 NORM(A)=   0.11530150D+01
 Wavefunction amplitudes converged. E(Corr)=     -1355.1841458    
 Largest amplitude= 8.71D-02

 Z-amplitude iterations

 Iteration Nr.   1
 **********************
 DD1Dir will call FoFMem   1 times, MxPair=       156
 NAB=    78 NAA=     0 NBB=     0.
 DE(Z)= -0.72617425     E(Z)=     -1355.1524496     Delta= 3.17D-02
 NORM(A)=   0.11530179D+01
 Iteration Nr.   2
 **********************
 DD1Dir will call FoFMem   1 times, MxPair=       156
 NAB=    78 NAA=     0 NBB=     0.
 DE(Z)= -0.72617433     E(Z)=     -1355.1524497     Delta=-8.14D-08
 NORM(A)=   0.11528841D+01
 Iteration Nr.   3
 **********************
 DD1Dir will call FoFMem   1 times, MxPair=       156
 NAB=    78 NAA=     0 NBB=     0.
 DE(Z)= -0.72617059     E(Z)=     -1355.1524459     Delta= 3.74D-06
 NORM(A)=   0.11530216D+01
 Iteration Nr.   4
 **********************
 DD1Dir will call FoFMem   1 times, MxPair=       156
 NAB=    78 NAA=     0 NBB=     0.
 DE(Z)= -0.72617444     E(Z)=     -1355.1524498     Delta=-3.84D-06
 NORM(A)=   0.11530198D+01
 Iteration Nr.   5
 **********************
 DD1Dir will call FoFMem   1 times, MxPair=       156
 NAB=    78 NAA=     0 NBB=     0.
 DE(Z)= -0.72617439     E(Z)=     -1355.1524497     Delta= 4.94D-08
 NORM(A)=   0.11398891D+01
 Iteration Nr.   6
 **********************
 DD1Dir will call FoFMem   1 times, MxPair=       156
 NAB=    78 NAA=     0 NBB=     0.
 DE(Z)= -0.72576737     E(Z)=     -1355.1520427     Delta= 4.07D-04
 NORM(A)=   0.11398851D+01
 Iteration Nr.   7
 **********************
 DD1Dir will call FoFMem   1 times, MxPair=       156
 NAB=    78 NAA=     0 NBB=     0.
 DE(Z)= -0.72577832     E(Z)=     -1355.1520537     Delta=-1.09D-05
 NORM(A)=   0.11398890D+01
 Iteration Nr.   8
 **********************
 DD1Dir will call FoFMem   1 times, MxPair=       156
 NAB=    78 NAA=     0 NBB=     0.
 DE(Z)= -0.72577296     E(Z)=     -1355.1520483     Delta= 5.36D-06
 NORM(A)=   0.11398884D+01
 Iteration Nr.   9
 **********************
 DD1Dir will call FoFMem   1 times, MxPair=       156
 NAB=    78 NAA=     0 NBB=     0.
 DE(Z)= -0.72577369     E(Z)=     -1355.1520490     Delta=-7.26D-07
 NORM(A)=   0.11398887D+01
 Iteration Nr.  10
 **********************
 DD1Dir will call FoFMem   1 times, MxPair=       156
 NAB=    78 NAA=     0 NBB=     0.
 DE(Z)= -0.72577396     E(Z)=     -1355.1520493     Delta=-2.77D-07
 NORM(A)=   0.11398891D+01
 Iteration Nr.  11
 **********************
 DD1Dir will call FoFMem   1 times, MxPair=       156
 NAB=    78 NAA=     0 NBB=     0.
 DE(Z)= -0.72577371     E(Z)=     -1355.1520490     Delta= 2.58D-07
 NORM(A)=   0.11398895D+01
 Iteration Nr.  12
 **********************
 DD1Dir will call FoFMem   1 times, MxPair=       156
 NAB=    78 NAA=     0 NBB=     0.
 DE(Z)= -0.72577385     E(Z)=     -1355.1520492     Delta=-1.48D-07
 NORM(A)=   0.11398896D+01
 Iteration Nr.  13
 **********************
 DD1Dir will call FoFMem   1 times, MxPair=       156
 NAB=    78 NAA=     0 NBB=     0.
 DE(Z)= -0.72577383     E(Z)=     -1355.1520492     Delta= 2.85D-08
 NORM(A)=   0.11398896D+01
 Iteration Nr.  14
 **********************
 DD1Dir will call FoFMem   1 times, MxPair=       156
 NAB=    78 NAA=     0 NBB=     0.
 DE(Z)= -0.72577385     E(Z)=     -1355.1520492     Delta=-2.18D-08
 NORM(A)=   0.11398896D+01
 Iteration Nr.  15
 **********************
 DD1Dir will call FoFMem   1 times, MxPair=       156
 NAB=    78 NAA=     0 NBB=     0.
 DE(Z)= -0.72577385     E(Z)=     -1355.1520492     Delta=-1.35D-09
 NORM(A)=   0.11398896D+01
 Z-amplitudes converged.
 Discarding MO integrals.
          Differentiating once with respect to electric field.
                with respect to dipole field.
          Electric field/nuclear overlap derivatives assumed to be zero.
 Keep R1 ints in memory in canonical form, NReq=194502259.
          There are     1 degrees of freedom in the 1st order CPHF.  IDoFFX=0 NUNeed=     1.
 LinEq1:  Iter=  0 NonCon=     1 RMS=2.07D-03 Max=6.31D-02 NDo=     1
 AX will form     1 AO Fock derivatives at one time.
 LinEq1:  Iter=  1 NonCon=     1 RMS=9.27D-04 Max=1.83D-02 NDo=     1
 LinEq1:  Iter=  2 NonCon=     1 RMS=4.05D-04 Max=9.94D-03 NDo=     1
 LinEq1:  Iter=  3 NonCon=     1 RMS=1.02D-04 Max=1.68D-03 NDo=     1
 LinEq1:  Iter=  4 NonCon=     1 RMS=2.26D-05 Max=6.60D-04 NDo=     1
 LinEq1:  Iter=  5 NonCon=     1 RMS=7.18D-06 Max=1.59D-04 NDo=     1
 LinEq1:  Iter=  6 NonCon=     1 RMS=2.12D-06 Max=8.06D-05 NDo=     1
 LinEq1:  Iter=  7 NonCon=     1 RMS=6.81D-07 Max=1.41D-05 NDo=     1
 LinEq1:  Iter=  8 NonCon=     1 RMS=1.29D-07 Max=1.93D-06 NDo=     1
 LinEq1:  Iter=  9 NonCon=     1 RMS=2.49D-08 Max=3.61D-07 NDo=     1
 LinEq1:  Iter= 10 NonCon=     1 RMS=6.54D-09 Max=1.66D-07 NDo=     1
 LinEq1:  Iter= 11 NonCon=     1 RMS=1.33D-09 Max=2.18D-08 NDo=     1
 LinEq1:  Iter= 12 NonCon=     1 RMS=3.01D-10 Max=5.04D-09 NDo=     1
 LinEq1:  Iter= 13 NonCon=     0 RMS=6.62D-11 Max=8.71D-10 NDo=     1
 Linear equations converged to 1.000D-10 1.000D-09 after    13 iterations.
 End of Minotr F.D. properties file   721 does not exist.
 End of Minotr F.D. properties file   722 does not exist.
 End of Minotr F.D. properties file   788 does not exist.

 **********************************************************************

            Population analysis using the CC Density.

 **********************************************************************

 Alpha  occ. eigenvalues -- -104.88674-104.88674 -91.97761 -11.44777 -10.61079
 Alpha  occ. eigenvalues --  -10.61078  -8.98103  -8.07756  -8.07756  -8.07545
 Alpha  occ. eigenvalues --   -8.07545  -8.07528  -8.07528  -6.66186  -6.66080
 Alpha  occ. eigenvalues --   -6.65930  -1.24330  -1.13336  -1.04289  -0.77047
 Alpha  occ. eigenvalues --   -0.64485  -0.60901  -0.58646  -0.50435  -0.49537
 Alpha  occ. eigenvalues --   -0.47707  -0.40908  -0.38120
 Alpha virt. eigenvalues --    0.01863   0.04860   0.06327   0.06911   0.10061
 Alpha virt. eigenvalues --    0.10097   0.10385   0.11227   0.11744   0.12864
 Alpha virt. eigenvalues --    0.15163   0.15359   0.16280   0.16377   0.16493
 Alpha virt. eigenvalues --    0.21187   0.21756   0.23268   0.26497   0.27056
 Alpha virt. eigenvalues --    0.28202   0.28967   0.30160   0.34401   0.34896
 Alpha virt. eigenvalues --    0.37873   0.38986   0.39850   0.40294   0.42353
 Alpha virt. eigenvalues --    0.44464   0.45403   0.45612   0.46254   0.48176
 Alpha virt. eigenvalues --    0.49019   0.50326   0.50812   0.54059   0.55313
 Alpha virt. eigenvalues --    0.56217   0.65328   0.65666   0.65680   0.70921
 Alpha virt. eigenvalues --    0.72501   0.73028   0.73884   0.74037   0.78532
 Alpha virt. eigenvalues --    0.79113   0.80310   0.80341   0.81678   0.83160
 Alpha virt. eigenvalues --    0.83360   0.86718   0.87508   0.88504   0.88569
 Alpha virt. eigenvalues --    0.91106   0.92004   0.92683   0.94828   0.95635
 Alpha virt. eigenvalues --    0.95811   0.97829   1.02083   1.03188   1.08163
 Alpha virt. eigenvalues --    1.11227   1.11553   1.12075   1.12938   1.18173
 Alpha virt. eigenvalues --    1.18650   1.21047   1.22896   1.28966   1.29564
 Alpha virt. eigenvalues --    1.31385   1.36249   1.39692   1.40387   1.47770
 Alpha virt. eigenvalues --    1.48685   1.52378   1.53298   1.53889   1.55005
 Alpha virt. eigenvalues --    1.61731   1.66488   1.68947   1.71364   1.71583
 Alpha virt. eigenvalues --    1.75080   1.83371   1.83539   1.85440   1.87788
 Alpha virt. eigenvalues --    1.88090   1.90001   1.98052   2.07131   2.07773
 Alpha virt. eigenvalues --    2.14363   2.17687   2.32204   2.32931   2.39087
 Alpha virt. eigenvalues --    2.39403   2.43045   2.44881   2.47493   2.47942
 Alpha virt. eigenvalues --    2.48192   2.53213   2.58246   2.58672   2.60031
 Alpha virt. eigenvalues --    2.60351   2.62664   2.64187   2.65423   2.65457
 Alpha virt. eigenvalues --    2.69758   2.83547   2.84006   2.87616   2.89721
 Alpha virt. eigenvalues --    2.91322   3.02743   3.02941   3.04967   3.05585
 Alpha virt. eigenvalues --    3.05809   3.07706   3.09646   3.13540   3.13842
 Alpha virt. eigenvalues --    3.14689   3.14955   3.19746   3.21921   3.23388
 Alpha virt. eigenvalues --    3.23850   3.36544   3.46291   3.54987   3.64752
 Alpha virt. eigenvalues --    3.70190   3.70731   3.72963   3.76791   3.84608
 Alpha virt. eigenvalues --    3.89908   3.91270   3.97076   4.13821   4.15308
 Alpha virt. eigenvalues --    4.20881   4.25279   4.71335   4.76886   6.48913
 Alpha virt. eigenvalues --    7.21494   7.27825   9.84548
          Condensed to atoms (all electrons):
               1          2          3          4
     1  C    5.670437   0.073257   0.073257   0.178648
     2  Cl   0.073257  17.194968  -0.120021  -0.131017
     3  Cl   0.073257  -0.120021  17.194968  -0.131017
     4  S    0.178648  -0.131017  -0.131017  16.053414
 Mulliken charges:
               1
     1  C    0.004402
     2  Cl  -0.017187
     3  Cl  -0.017187
     4  S    0.029972
 Sum of Mulliken charges =  -0.00000
 Mulliken charges with hydrogens summed into heavy atoms:
               1
     1  C    0.004402
     2  Cl  -0.017187
     3  Cl  -0.017187
     4  S    0.029972
 Electronic spatial extent (au):  <R**2>=            689.4558
 Charge=             -0.0000 electrons
 Dipole moment (field-independent basis, Debye):
    X=              0.0000    Y=              0.0000    Z=             -0.3931  Tot=              0.3931
 Quadrupole moment (field-independent basis, Debye-Ang):
   XX=            -43.1201   YY=            -43.3093   ZZ=            -42.5662
   XY=             -0.0000   XZ=             -0.0000   YZ=             -0.0000
 Traceless Quadrupole moment (field-independent basis, Debye-Ang):
   XX=             -0.1216   YY=             -0.3108   ZZ=              0.4324
   XY=             -0.0000   XZ=             -0.0000   YZ=             -0.0000
 Octapole moment (field-independent basis, Debye-Ang**2):
  XXX=              0.0000  YYY=             -0.0000  ZZZ=             82.1674  XYY=              0.0000
  XXY=             -0.0000  XXZ=             27.3082  XZZ=             -0.0000  YZZ=              0.0000
  YYZ=             19.2482  XYZ=              0.0000
 Hexadecapole moment (field-independent basis, Debye-Ang**3):
 XXXX=            -50.7968 YYYY=           -340.6626 ZZZZ=           -476.4697 XXXY=             -0.0000
 XXXZ=             -0.0000 YYYX=             -0.0000 YYYZ=             -0.0000 ZZZX=             -0.0000
 ZZZY=             -0.0000 XXYY=            -69.2326 XXZZ=            -89.4706 YYZZ=           -127.1741
 XXYZ=              0.0000 YYXZ=             -0.0000 ZZXY=             -0.0000
 N-N= 2.453811249578D+02 E-N=-3.714370485029D+03  KE= 1.355067419420D+03
 There are a total of       89716 grid points.
 ElSum from          density=       56.0000000527
 ElSum from atomic densities=       56.0000005656

 Hirshfeld populations at iteration   1 (CX, CA, CB, DipXYZ):
               1          2          3          4          5          6
     1  C    0.000001   2.960310   2.960310   0.000000  -0.000000  -0.137418
     2  Cl   0.000016   8.505288   8.505288   0.000000  -0.059914  -0.019053
     3  Cl   0.000016   8.505288   8.505288   0.000000   0.059914  -0.019053
     4  S    0.000011   8.029114   8.029114   0.000000   0.000000   0.157238
       Tot   0.000044  28.000000  28.000000   0.000000  -0.000000  -0.018287

 Dip from Atomic Chgs              0.000000  -0.000000  -0.136390
         Total Dipole              0.000000  -0.000000  -0.154677

 Hirshfeld charges, spin densities, dipoles, and CM5 charges using IRadAn=      5:
              Q-H        S-H        Dx         Dy         Dz        Q-CM5   
     1  C    0.079379   0.000000   0.000000  -0.000000  -0.137418   0.098253
     2  Cl  -0.010575   0.000000   0.000000  -0.059914  -0.019053  -0.009073
     3  Cl  -0.010575   0.000000   0.000000   0.059914  -0.019053  -0.009073
     4  S   -0.058229   0.000000   0.000000   0.000000   0.157238  -0.080107
       Tot  -0.000000   0.000000   0.000000  -0.000000  -0.018287  -0.000000
 Hirshfeld charges with hydrogens summed into heavy atoms:
              Q-H       Q-CM5   
     1  C    0.079379   0.098253
     2  Cl  -0.010575  -0.009073
     3  Cl  -0.010575  -0.009073
     4  S   -0.058229  -0.080107
 
 EQQ= 0.000000000000E+00 EQD= 0.000000000000E+00 EDD=-0.695623063640E-03
 EQQ+QD+DD=-0.695623063640E-03
 
 Breneman (CHELPG) radii used.
 Generate Potential Derived Charges using the Breneman model, NDens= 1.
 Grid spacing= 0.300 Box extension= 2.800
 NStep X,Y,Z=   20     30     29   Total possible points=       17400
 Number of Points to Fit=    4396

 **********************************************************************

            Electrostatic Properties Using The CC Density.

 **********************************************************************

       Atomic Center    1 is at   0.000000  0.000000 -0.522914
       Atomic Center    2 is at   0.000000 -1.430735 -1.500900
       Atomic Center    3 is at   0.000000  1.430735 -1.500900
       Atomic Center    4 is at   0.000000  0.000000  1.071815
    4396 points will be used for fitting atomic charges
 Fitting point charges to electrostatic potential
 The dipole moment will be constrained to the correct value
 Charges from ESP fit, RMS=   0.00696 RRMS=   0.93320:
 ESP charges:
               1
     1  C    0.131872
     2  Cl  -0.024964
     3  Cl  -0.024964
     4  S   -0.081945
 Sum of ESP charges =   0.00000
 ESP charges with hydrogens summed into heavy atoms:
               1
     1  C    0.131872
     2  Cl  -0.024964
     3  Cl  -0.024964
     4  S   -0.081945
 Charge=   0.00000 Dipole=     0.0000     0.0000    -0.3931 Tot=     0.3931
 -----------------------------------------------------------------

              Electrostatic Properties (Atomic Units)

 -----------------------------------------------------------------
    Center     Electric         -------- Electric Field --------
               Potential          X             Y             Z
 -----------------------------------------------------------------
    1 Atom    -14.565933
    2 Atom    -64.377854
    3 Atom    -64.377854
    4 Atom    -59.210340
 -----------------------------------------------------------------
 ******************************Gaussian NBO Version 3.1******************************
             N A T U R A L   A T O M I C   O R B I T A L   A N D
          N A T U R A L   B O N D   O R B I T A L   A N A L Y S I S
 ******************************Gaussian NBO Version 3.1******************************
       /RESON  / : Allow strongly delocalized NBO set

 Analyzing the QCI/CC density

 Job title: cl2cs-wavefunction                                              

 Storage needed:    116194 in NPA (2147483536 available)
 GSVD:  LWork=        8166 too small for GESVD, short by       51245 words or       51245 for optimal perf.


 NATURAL POPULATIONS:  Natural atomic orbital occupancies 
                                                          
   NAO  Atom  No  lang   Type(AO)    Occupancy
 --------------------------------------------
     1    C    1  S      Cor( 1S)     1.99945
     2    C    1  S      Val( 2S)     1.15997
     3    C    1  S      Ryd( 3S)     0.00532
     4    C    1  S      Ryd( 4S)     0.00038
     5    C    1  S      Ryd( 5S)     0.00016
     6    C    1  px     Val( 2p)     1.02395
     7    C    1  px     Ryd( 3p)     0.00801
     8    C    1  px     Ryd( 4p)     0.00051
     9    C    1  px     Ryd( 5p)     0.00022
    10    C    1  py     Val( 2p)     0.95825
    11    C    1  py     Ryd( 3p)     0.02110
    12    C    1  py     Ryd( 5p)     0.00046
    13    C    1  py     Ryd( 4p)     0.00052
    14    C    1  pz     Val( 2p)     1.06883
    15    C    1  pz     Ryd( 3p)     0.02689
    16    C    1  pz     Ryd( 5p)     0.00036
    17    C    1  pz     Ryd( 4p)     0.00046
    18    C    1  dxy    Ryd( 3d)     0.01041
    19    C    1  dxy    Ryd( 4d)     0.00033
    20    C    1  dxy    Ryd( 5d)     0.00018
    21    C    1  dxz    Ryd( 3d)     0.01321
    22    C    1  dxz    Ryd( 4d)     0.00036
    23    C    1  dxz    Ryd( 5d)     0.00026
    24    C    1  dyz    Ryd( 3d)     0.01357
    25    C    1  dyz    Ryd( 4d)     0.00044
    26    C    1  dyz    Ryd( 5d)     0.00018
    27    C    1  dx2y2  Ryd( 3d)     0.00821
    28    C    1  dx2y2  Ryd( 4d)     0.00035
    29    C    1  dx2y2  Ryd( 5d)     0.00032
    30    C    1  dz2    Ryd( 3d)     0.01274
    31    C    1  dz2    Ryd( 4d)     0.00036
    32    C    1  dz2    Ryd( 5d)     0.00015
    33    C    1  f(0)   Ryd( 4f)     0.00488
    34    C    1  f(0)   Ryd( 5f)     0.00032
    35    C    1  f(C1)  Ryd( 4f)     0.00259
    36    C    1  f(C1)  Ryd( 5f)     0.00037
    37    C    1  f(S1)  Ryd( 4f)     0.00329
    38    C    1  f(S1)  Ryd( 5f)     0.00058
    39    C    1  f(C2)  Ryd( 4f)     0.00322
    40    C    1  f(C2)  Ryd( 5f)     0.00032
    41    C    1  f(S2)  Ryd( 4f)     0.00286
    42    C    1  f(S2)  Ryd( 5f)     0.00031
    43    C    1  f(C3)  Ryd( 4f)     0.00216
    44    C    1  f(C3)  Ryd( 5f)     0.00024
    45    C    1  f(S3)  Ryd( 4f)     0.00212
    46    C    1  f(S3)  Ryd( 5f)     0.00024

    47   Cl    2  S      Cor( 1S)     2.00000
    48   Cl    2  S      Cor( 2S)     1.99919
    49   Cl    2  S      Val( 3S)     1.81195
    50   Cl    2  S      Ryd( 4S)     0.00537
    51   Cl    2  S      Ryd( 5S)     0.00034
    52   Cl    2  S      Ryd( 6S)     0.00027
    53   Cl    2  px     Cor( 2p)     2.00002
    54   Cl    2  px     Val( 3p)     1.83813
    55   Cl    2  px     Ryd( 4p)     0.00886
    56   Cl    2  px     Ryd( 5p)     0.00052
    57   Cl    2  px     Ryd( 6p)     0.00010
    58   Cl    2  py     Cor( 2p)     1.99993
    59   Cl    2  py     Val( 3p)     1.43303
    60   Cl    2  py     Ryd( 4p)     0.00600
    61   Cl    2  py     Ryd( 5p)     0.00051
    62   Cl    2  py     Ryd( 6p)     0.00012
    63   Cl    2  pz     Cor( 2p)     1.99998
    64   Cl    2  pz     Val( 3p)     1.69587
    65   Cl    2  pz     Ryd( 4p)     0.00753
    66   Cl    2  pz     Ryd( 5p)     0.00050
    67   Cl    2  pz     Ryd( 6p)     0.00013
    68   Cl    2  dxy    Ryd( 3d)     0.01766
    69   Cl    2  dxy    Ryd( 4d)     0.00050
    70   Cl    2  dxy    Ryd( 5d)     0.00012
    71   Cl    2  dxz    Ryd( 3d)     0.01841
    72   Cl    2  dxz    Ryd( 4d)     0.00062
    73   Cl    2  dxz    Ryd( 5d)     0.00013
    74   Cl    2  dyz    Ryd( 3d)     0.02247
    75   Cl    2  dyz    Ryd( 4d)     0.00046
    76   Cl    2  dyz    Ryd( 5d)     0.00014
    77   Cl    2  dx2y2  Ryd( 3d)     0.01962
    78   Cl    2  dx2y2  Ryd( 4d)     0.00052
    79   Cl    2  dx2y2  Ryd( 5d)     0.00012
    80   Cl    2  dz2    Ryd( 3d)     0.01704
    81   Cl    2  dz2    Ryd( 4d)     0.00051
    82   Cl    2  dz2    Ryd( 5d)     0.00018
    83   Cl    2  f(0)   Ryd( 4f)     0.00131
    84   Cl    2  f(0)   Ryd( 5f)     0.00014
    85   Cl    2  f(C1)  Ryd( 4f)     0.00134
    86   Cl    2  f(C1)  Ryd( 5f)     0.00013
    87   Cl    2  f(S1)  Ryd( 4f)     0.00128
    88   Cl    2  f(S1)  Ryd( 5f)     0.00018
    89   Cl    2  f(C2)  Ryd( 4f)     0.00152
    90   Cl    2  f(C2)  Ryd( 5f)     0.00015
    91   Cl    2  f(S2)  Ryd( 4f)     0.00134
    92   Cl    2  f(S2)  Ryd( 5f)     0.00015
    93   Cl    2  f(C3)  Ryd( 4f)     0.00132
    94   Cl    2  f(C3)  Ryd( 5f)     0.00015
    95   Cl    2  f(S3)  Ryd( 4f)     0.00134
    96   Cl    2  f(S3)  Ryd( 5f)     0.00016

    97   Cl    3  S      Cor( 1S)     2.00000
    98   Cl    3  S      Cor( 2S)     1.99919
    99   Cl    3  S      Val( 3S)     1.81195
   100   Cl    3  S      Ryd( 4S)     0.00537
   101   Cl    3  S      Ryd( 5S)     0.00034
   102   Cl    3  S      Ryd( 6S)     0.00027
   103   Cl    3  px     Cor( 2p)     2.00002
   104   Cl    3  px     Val( 3p)     1.83813
   105   Cl    3  px     Ryd( 4p)     0.00886
   106   Cl    3  px     Ryd( 5p)     0.00052
   107   Cl    3  px     Ryd( 6p)     0.00010
   108   Cl    3  py     Cor( 2p)     1.99993
   109   Cl    3  py     Val( 3p)     1.43303
   110   Cl    3  py     Ryd( 4p)     0.00600
   111   Cl    3  py     Ryd( 5p)     0.00051
   112   Cl    3  py     Ryd( 6p)     0.00012
   113   Cl    3  pz     Cor( 2p)     1.99998
   114   Cl    3  pz     Val( 3p)     1.69587
   115   Cl    3  pz     Ryd( 4p)     0.00753
   116   Cl    3  pz     Ryd( 5p)     0.00050
   117   Cl    3  pz     Ryd( 6p)     0.00013
   118   Cl    3  dxy    Ryd( 3d)     0.01766
   119   Cl    3  dxy    Ryd( 4d)     0.00050
   120   Cl    3  dxy    Ryd( 5d)     0.00012
   121   Cl    3  dxz    Ryd( 3d)     0.01841
   122   Cl    3  dxz    Ryd( 4d)     0.00062
   123   Cl    3  dxz    Ryd( 5d)     0.00013
   124   Cl    3  dyz    Ryd( 3d)     0.02247
   125   Cl    3  dyz    Ryd( 4d)     0.00046
   126   Cl    3  dyz    Ryd( 5d)     0.00014
   127   Cl    3  dx2y2  Ryd( 3d)     0.01962
   128   Cl    3  dx2y2  Ryd( 4d)     0.00052
   129   Cl    3  dx2y2  Ryd( 5d)     0.00012
   130   Cl    3  dz2    Ryd( 3d)     0.01704
   131   Cl    3  dz2    Ryd( 4d)     0.00051
   132   Cl    3  dz2    Ryd( 5d)     0.00018
   133   Cl    3  f(0)   Ryd( 4f)     0.00131
   134   Cl    3  f(0)   Ryd( 5f)     0.00014
   135   Cl    3  f(C1)  Ryd( 4f)     0.00134
   136   Cl    3  f(C1)  Ryd( 5f)     0.00013
   137   Cl    3  f(S1)  Ryd( 4f)     0.00128
   138   Cl    3  f(S1)  Ryd( 5f)     0.00018
   139   Cl    3  f(C2)  Ryd( 4f)     0.00152
   140   Cl    3  f(C2)  Ryd( 5f)     0.00015
   141   Cl    3  f(S2)  Ryd( 4f)     0.00134
   142   Cl    3  f(S2)  Ryd( 5f)     0.00015
   143   Cl    3  f(C3)  Ryd( 4f)     0.00132
   144   Cl    3  f(C3)  Ryd( 5f)     0.00015
   145   Cl    3  f(S3)  Ryd( 4f)     0.00134
   146   Cl    3  f(S3)  Ryd( 5f)     0.00016

   147    S    4  S      Cor( 1S)     2.00000
   148    S    4  S      Cor( 2S)     1.99836
   149    S    4  S      Val( 3S)     1.70084
   150    S    4  S      Ryd( 4S)     0.00854
   151    S    4  S      Ryd( 5S)     0.00038
   152    S    4  S      Ryd( 6S)     0.00023
   153    S    4  px     Cor( 2p)     1.99988
   154    S    4  px     Val( 3p)     1.15418
   155    S    4  px     Ryd( 4p)     0.00477
   156    S    4  px     Ryd( 5p)     0.00032
   157    S    4  px     Ryd( 6p)     0.00011
   158    S    4  py     Cor( 2p)     2.00000
   159    S    4  py     Val( 3p)     1.77609
   160    S    4  py     Ryd( 4p)     0.01027
   161    S    4  py     Ryd( 5p)     0.00046
   162    S    4  py     Ryd( 6p)     0.00014
   163    S    4  pz     Cor( 2p)     1.99964
   164    S    4  pz     Val( 3p)     1.04985
   165    S    4  pz     Ryd( 4p)     0.00516
   166    S    4  pz     Ryd( 5p)     0.00047
   167    S    4  pz     Ryd( 6p)     0.00009
   168    S    4  dxy    Ryd( 3d)     0.01611
   169    S    4  dxy    Ryd( 4d)     0.00052
   170    S    4  dxy    Ryd( 5d)     0.00009
   171    S    4  dxz    Ryd( 3d)     0.01707
   172    S    4  dxz    Ryd( 4d)     0.00035
   173    S    4  dxz    Ryd( 5d)     0.00008
   174    S    4  dyz    Ryd( 3d)     0.01394
   175    S    4  dyz    Ryd( 4d)     0.00037
   176    S    4  dyz    Ryd( 5d)     0.00029
   177    S    4  dx2y2  Ryd( 3d)     0.01562
   178    S    4  dx2y2  Ryd( 4d)     0.00054
   179    S    4  dx2y2  Ryd( 5d)     0.00010
   180    S    4  dz2    Ryd( 3d)     0.02160
   181    S    4  dz2    Ryd( 4d)     0.00041
   182    S    4  dz2    Ryd( 5d)     0.00009
   183    S    4  f(0)   Ryd( 4f)     0.00121
   184    S    4  f(0)   Ryd( 5f)     0.00021
   185    S    4  f(C1)  Ryd( 4f)     0.00094
   186    S    4  f(C1)  Ryd( 5f)     0.00016
   187    S    4  f(S1)  Ryd( 4f)     0.00109
   188    S    4  f(S1)  Ryd( 5f)     0.00016
   189    S    4  f(C2)  Ryd( 4f)     0.00090
   190    S    4  f(C2)  Ryd( 5f)     0.00014
   191    S    4  f(S2)  Ryd( 4f)     0.00095
   192    S    4  f(S2)  Ryd( 5f)     0.00012
   193    S    4  f(C3)  Ryd( 4f)     0.00136
   194    S    4  f(C3)  Ryd( 5f)     0.00013
   195    S    4  f(S3)  Ryd( 4f)     0.00136
   196    S    4  f(S3)  Ryd( 5f)     0.00013

 WARNING:  1 low occupancy (<1.9990e) core orbital  found on  S    4


 Summary of Natural Population Analysis:                  
                                                          
                                       Natural Population 
                Natural  -----------------------------------------------
    Atom  No    Charge         Core      Valence    Rydberg      Total
 -----------------------------------------------------------------------
      C    1   -0.35942      1.99945     4.21100    0.14897     6.35942
     Cl    2    0.08263      9.99913     6.77897    0.13927    16.91737
     Cl    3    0.08263      9.99913     6.77897    0.13927    16.91737
      S    4    0.19416      9.99789     5.68096    0.12700    15.80584
 =======================================================================
   * Total *    0.00000     31.99559    23.44990    0.55451    56.00000

                                 Natural Population      
 --------------------------------------------------------
   Core                      31.99559 ( 99.9862% of  32)
   Valence                   23.44990 ( 97.7079% of  24)
   Natural Minimal Basis     55.44549 ( 99.0098% of  56)
   Natural Rydberg Basis      0.55451 (  0.9902% of  56)
 --------------------------------------------------------

    Atom  No          Natural Electron Configuration
 ----------------------------------------------------------------------------
      C    1      [core]2S( 1.16)2p( 3.05)3S( 0.01)3p( 0.06)3d( 0.06)4f( 0.02)
     Cl    2      [core]3S( 1.81)3p( 4.97)4S( 0.01)3d( 0.10)4p( 0.02)4f( 0.01)
     Cl    3      [core]3S( 1.81)3p( 4.97)4S( 0.01)3d( 0.10)4p( 0.02)4f( 0.01)
      S    4      [core]3S( 1.70)3p( 3.98)4S( 0.01)3d( 0.08)4p( 0.02)4f( 0.01)


 NBO analysis skipped by request.
 Unable to Open any file for archive entry.
 1\1\GINC-TRAPISTA\SP\RQCISD-FC\Aug-CC-pVTZ\C1Cl2S1\WAGNER\04-Sep-2022\
 0\\# qcisd/aug-cc-pvtz nosymm density=current pop=(chelpg,hirshfeld,np
 a,dipole)\\cl2cs-wavefunction\\0,1\C,0,0.,0.,-0.522914\Cl,0,0.,-1.4307
 35,-1.5009\Cl,0,0.,1.430735,-1.5009\S,0,0.,0.,1.071815\\Version=EM64L-
 G16RevC.01\HF=-1354.4262753\MP2=-1355.1502914\MP3=-1355.1830212\MP4D=-
 1355.2046995\MP4DQ=-1355.1798979\MP4SDQ=-1355.1866198\QCISD=-1355.1841
 458\RMSD=8.361e-09\Dipole=0.,0.,-0.1546769\Quadrupole=-0.0903878,-0.23
 10574,0.3214452,0.,0.,0.\PG=C02V [C2(C1S1),SGV(Cl2)]\\@
 The archive entry for this job was punched.


 PICNIC:  A SNACK IN THE GRASS.
 Job cpu time:       0 days  7 hours  8 minutes 29.4 seconds.
 Elapsed time:       0 days  0 hours 27 minutes  5.6 seconds.
 File lengths (MBytes):  RWF=  23427 Int=      0 D2E=      0 Chk=      4 Scr=      1
 Normal termination of Gaussian 16 at Sun Sep  4 17:55:21 2022.
