 Entering Gaussian System, Link 0=/home/wagner/chemistry/gaussian/g16/g16
 Input=GAUSSIAN.com
 Output=GAUSSIAN.log
 Initial command:
 /home/wagner/chemistry/gaussian/g16/l1.exe "/home/wagner/chemistry/gaussian/work/Gau-47855.inp" -scrdir="/home/wagner/chemistry/gaussian/work/"
 Entering Link 1 = /home/wagner/chemistry/gaussian/g16/l1.exe PID=     47857.
  
 Copyright (c) 1988-2019, Gaussian, Inc.  All Rights Reserved.
  
 This is part of the Gaussian(R) 16 program.  It is based on
 the Gaussian(R) 09 system (copyright 2009, Gaussian, Inc.),
 the Gaussian(R) 03 system (copyright 2003, Gaussian, Inc.),
 the Gaussian(R) 98 system (copyright 1998, Gaussian, Inc.),
 the Gaussian(R) 94 system (copyright 1995, Gaussian, Inc.),
 the Gaussian 92(TM) system (copyright 1992, Gaussian, Inc.),
 the Gaussian 90(TM) system (copyright 1990, Gaussian, Inc.),
 the Gaussian 88(TM) system (copyright 1988, Gaussian, Inc.),
 the Gaussian 86(TM) system (copyright 1986, Carnegie Mellon
 University), and the Gaussian 82(TM) system (copyright 1983,
 Carnegie Mellon University). Gaussian is a federally registered
 trademark of Gaussian, Inc.
  
 This software contains proprietary and confidential information,
 including trade secrets, belonging to Gaussian, Inc.
  
 This software is provided under written license and may be
 used, copied, transmitted, or stored only in accord with that
 written license.
  
 The following legend is applicable only to US Government
 contracts under FAR:
  
                    RESTRICTED RIGHTS LEGEND
  
 Use, reproduction and disclosure by the US Government is
 subject to restrictions as set forth in subparagraphs (a)
 and (c) of the Commercial Computer Software - Restricted
 Rights clause in FAR 52.227-19.
  
 Gaussian, Inc.
 340 Quinnipiac St., Bldg. 40, Wallingford CT 06492
  
  
 ---------------------------------------------------------------
 Warning -- This program may not be used in any manner that
 competes with the business of Gaussian, Inc. or will provide
 assistance to any competitor of Gaussian, Inc.  The licensee
 of this program is prohibited from giving any competitor of
 Gaussian, Inc. access to this program.  By using this program,
 the user acknowledges that Gaussian, Inc. is engaged in the
 business of creating and licensing software in the field of
 computational chemistry and represents and warrants to the
 licensee that it is not a competitor of Gaussian, Inc. and that
 it will not use this program in any manner prohibited above.
 ---------------------------------------------------------------
  

 Cite this work as:
 Gaussian 16, Revision C.01,
 M. J. Frisch, G. W. Trucks, H. B. Schlegel, G. E. Scuseria, 
 M. A. Robb, J. R. Cheeseman, G. Scalmani, V. Barone, 
 G. A. Petersson, H. Nakatsuji, X. Li, M. Caricato, A. V. Marenich, 
 J. Bloino, B. G. Janesko, R. Gomperts, B. Mennucci, H. P. Hratchian, 
 J. V. Ortiz, A. F. Izmaylov, J. L. Sonnenberg, D. Williams-Young, 
 F. Ding, F. Lipparini, F. Egidi, J. Goings, B. Peng, A. Petrone, 
 T. Henderson, D. Ranasinghe, V. G. Zakrzewski, J. Gao, N. Rega, 
 G. Zheng, W. Liang, M. Hada, M. Ehara, K. Toyota, R. Fukuda, 
 J. Hasegawa, M. Ishida, T. Nakajima, Y. Honda, O. Kitao, H. Nakai, 
 T. Vreven, K. Throssell, J. A. Montgomery, Jr., J. E. Peralta, 
 F. Ogliaro, M. J. Bearpark, J. J. Heyd, E. N. Brothers, K. N. Kudin, 
 V. N. Staroverov, T. A. Keith, R. Kobayashi, J. Normand, 
 K. Raghavachari, A. P. Rendell, J. C. Burant, S. S. Iyengar, 
 J. Tomasi, M. Cossi, J. M. Millam, M. Klene, C. Adamo, R. Cammi, 
 J. W. Ochterski, R. L. Martin, K. Morokuma, O. Farkas, 
 J. B. Foresman, and D. J. Fox, Gaussian, Inc., Wallingford CT, 2019.
 
 ******************************************
 Gaussian 16:  EM64L-G16RevC.01  3-Jul-2019
                 4-Sep-2022 
 ******************************************
 %nproc=16
 Will use up to   16 processors via shared memory.
 %mem=16GB
 ----------------------------------------------------------------------
 # qcisd/aug-cc-pvtz nosymm density=current pop=(chelpg,hirshfeld,npa,d
 ipole)
 ----------------------------------------------------------------------
 1/30=1,38=1,172=1/1;
 2/12=2,15=1,17=6,18=5,40=1/2;
 3/5=16,6=1,7=10,11=9,25=1,30=1,71=1/1,2,3;
 4//1;
 5/5=2,38=5/2;
 8/6=4,9=120000,10=1/1,4;
 9/5=8,15=1/13;
 11/28=-7,31=1,32=3,42=3/11;
 10/5=6,13=10,31=1/2;
 6/7=2,8=2,9=2,10=2,15=24,20=3,22=-1,40=-1,79=1/1,2,7;
 99/5=1,9=1/99;
 ------------------
 cl2cs-wavefunction
 ------------------
 Symbolic Z-matrix:
 Charge =  0 Multiplicity = 1
 C                     0.        0.       -0.52291 
 Cl                    0.       -1.43074  -1.5009 
 Cl                    0.        1.44074  -1.5009 
 S                     0.        0.        1.08181 
 
                          Input orientation:                          
 ---------------------------------------------------------------------
 Center     Atomic      Atomic             Coordinates (Angstroms)
 Number     Number       Type             X           Y           Z
 ---------------------------------------------------------------------
      1          6           0        0.000000    0.000000   -0.522914
      2         17           0        0.000000   -1.430735   -1.500900
      3         17           0        0.000000    1.440735   -1.500900
      4         16           0        0.000000    0.000000    1.081815
 ---------------------------------------------------------------------
                    Distance matrix (angstroms):
                    1          2          3          4
     1  C    0.000000
     2  Cl   1.733049   0.000000
     3  Cl   1.741314   2.871470   0.000000
     4  S    1.604729   2.952528   2.957386   0.000000
 Symmetry turned off by external request.
 Stoichiometry    CCl2S
 Framework group  CS[SG(CCl2S)]
 Deg. of freedom     5
 Full point group                 CS      NOp   2
 Rotational constants (GHZ):           3.5063486           3.4451222           1.7377329
 Standard basis: Aug-CC-pVTZ (5D, 7F)
   196 basis functions,   414 primitive gaussians,   232 cartesian basis functions
    28 alpha electrons       28 beta electrons
       nuclear repulsion energy       244.4789828047 Hartrees.
 NAtoms=    4 NActive=    4 NUniq=    4 SFac= 1.00D+00 NAtFMM=   60 NAOKFM=F Big=F
 Integral buffers will be    131072 words long.
 Raffenetti 1 integral format.
 Two-electron integral symmetry is turned off.
 One-electron integrals computed using PRISM.
 NBasis=   196 RedAO= T EigKep=  9.15D-05  NBF=   196
 NBsUse=   196 1.00D-06 EigRej= -1.00D+00 NBFU=   196
 ExpMin= 3.51D-02 ExpMax= 4.56D+05 ExpMxC= 1.44D+03 IAcc=3 IRadAn=         5 AccDes= 0.00D+00
 Harris functional with IExCor=  205 and IRadAn=       5 diagonalized for initial guess.
 HarFok:  IExCor=  205 AccDes= 0.00D+00 IRadAn=         5 IDoV= 1 UseB2=F ITyADJ=14
 ICtDFT=  3500011 ScaDFX=  1.000000  1.000000  1.000000  1.000000
 FoFCou: FMM=F IPFlag=           0 FMFlag=      100000 FMFlg1=           0
         NFxFlg=           0 DoJE=T BraDBF=F KetDBF=T FulRan=T
         wScrn=  0.000000 ICntrl=       500 IOpCl=  0 I1Cent=   200000004 NGrid=           0
         NMat0=    1 NMatS0=      1 NMatT0=    0 NMatD0=    1 NMtDS0=    0 NMtDT0=    0
 Symmetry not used in FoFCou.
 Keep R1 ints in memory in canonical form, NReq=194496505.
 Requested convergence on RMS density matrix=1.00D-08 within 128 cycles.
 Requested convergence on MAX density matrix=1.00D-06.
 Requested convergence on             energy=1.00D-06.
 No special actions if energy rises.
 SCF Done:  E(RHF) =  -1354.42588246     A.U. after   12 cycles
            NFock= 12  Conv=0.92D-08     -V/T= 2.0002
 ExpMin= 3.51D-02 ExpMax= 4.56D+05 ExpMxC= 1.44D+03 IAcc=3 IRadAn=         5 AccDes= 0.00D+00
 HarFok:  IExCor=  205 AccDes= 0.00D+00 IRadAn=         5 IDoV=-2 UseB2=F ITyADJ=14
 ICtDFT= 12500011 ScaDFX=  1.000000  1.000000  1.000000  1.000000
 Range of M.O.s used for correlation:    17   196
 NBasis=   196 NAE=    28 NBE=    28 NFC=    16 NFV=     0
 NROrb=    180 NOA=    12 NOB=    12 NVA=   168 NVB=   168

 **** Warning!!: The largest alpha MO coefficient is  0.31029265D+02

 Semi-Direct transformation.
 ModeAB=           2 MOrb=            12 LenV=    2146408963
 LASXX=     33405819 LTotXX=    33405819 LenRXX=    33405819
 LTotAB=    33954012 MaxLAS=    58380480 LenRXY=    58380480
 NonZer=    66811638 LenScr=   100987392 LnRSAI=           0
 LnScr1=           0 LExtra=           0 Total=    192773691
 MaxDsk=          -1 SrtSym=           F ITran=            4
 JobTyp=0 Pass  1:  I=   1 to  12.
 (rs|ai) integrals will be sorted in core.
 Spin components of T(2) and E(2):
     alpha-alpha T2 =       0.3955822379D-01 E2=     -0.9364505416D-01
     alpha-beta  T2 =       0.2074913016D+00 E2=     -0.5371650464D+00
     beta-beta   T2 =       0.3955822379D-01 E2=     -0.9364505416D-01
 ANorm=    0.1134287331D+01
 E2 =    -0.7244551547D+00 EUMP2 =    -0.13551503376108D+04
 Keep R2 and R3 ints in memory in canonical form, NReq=380875808.
 CIDS: In Core Option IDoMem=           1.
 Iterations=  50 Convergence= 0.100D-07
 Produce multiple copies of IABC intergrals
 Iteration Nr.   1
 **********************
 DD1Dir will call FoFMem   1 times, MxPair=       156
 NAB=    78 NAA=     0 NBB=     0.
 MP4(R+Q)=  0.24915991D-01
 E3=       -0.32594579D-01        EUMP3=      -0.13551829322D+04
 E4(DQ)=    0.30892519D-02        UMP4(DQ)=   -0.13551798429D+04
 E4(SDQ)=  -0.37625725D-02        UMP4(SDQ)=  -0.13551866948D+04
 DE(Corr)= -0.73213374     E(Corr)=     -1355.1580162    
 NORM(A)=   0.11382144D+01
 Iteration Nr.   2
 **********************
 DD1Dir will call FoFMem   1 times, MxPair=       156
 NAB=    78 NAA=     0 NBB=     0.
 DE(Corr)= -0.75653270     E(CORR)=     -1355.1824152     Delta=-2.44D-02
 NORM(A)=   0.11492466D+01
 Iteration Nr.   3
 **********************
 DD1Dir will call FoFMem   1 times, MxPair=       156
 NAB=    78 NAA=     0 NBB=     0.
 DE(Corr)= -0.75570085     E(CORR)=     -1355.1815833     Delta= 8.32D-04
 NORM(A)=   0.11520055D+01
 Iteration Nr.   4
 **********************
 DD1Dir will call FoFMem   1 times, MxPair=       156
 NAB=    78 NAA=     0 NBB=     0.
 DE(Corr)= -0.75797541     E(CORR)=     -1355.1838579     Delta=-2.27D-03
 NORM(A)=   0.11530883D+01
 Iteration Nr.   5
 **********************
 DD1Dir will call FoFMem   1 times, MxPair=       156
 NAB=    78 NAA=     0 NBB=     0.
 DE(Corr)= -0.75825517     E(CORR)=     -1355.1841376     Delta=-2.80D-04
 NORM(A)=   0.11536289D+01
 Iteration Nr.   6
 **********************
 DD1Dir will call FoFMem   1 times, MxPair=       156
 NAB=    78 NAA=     0 NBB=     0.
 DE(Corr)= -0.75830847     E(CORR)=     -1355.1841909     Delta=-5.33D-05
 NORM(A)=   0.11536925D+01
 Iteration Nr.   7
 **********************
 DD1Dir will call FoFMem   1 times, MxPair=       156
 NAB=    78 NAA=     0 NBB=     0.
 DE(Corr)= -0.75831580     E(CORR)=     -1355.1841983     Delta=-7.34D-06
 NORM(A)=   0.11536981D+01
 Iteration Nr.   8
 **********************
 DD1Dir will call FoFMem   1 times, MxPair=       156
 NAB=    78 NAA=     0 NBB=     0.
 DE(Corr)= -0.75831389     E(CORR)=     -1355.1841963     Delta= 1.92D-06
 NORM(A)=   0.11537048D+01
 Iteration Nr.   9
 **********************
 DD1Dir will call FoFMem   1 times, MxPair=       156
 NAB=    78 NAA=     0 NBB=     0.
 DE(Corr)= -0.75831397     E(CORR)=     -1355.1841964     Delta=-7.94D-08
 NORM(A)=   0.11537037D+01
 Iteration Nr.  10
 **********************
 DD1Dir will call FoFMem   1 times, MxPair=       156
 NAB=    78 NAA=     0 NBB=     0.
 DE(Corr)= -0.75831495     E(CORR)=     -1355.1841974     Delta=-9.85D-07
 NORM(A)=   0.11537055D+01
 Iteration Nr.  11
 **********************
 DD1Dir will call FoFMem   1 times, MxPair=       156
 NAB=    78 NAA=     0 NBB=     0.
 DE(Corr)= -0.75831566     E(CORR)=     -1355.1841981     Delta=-7.10D-07
 NORM(A)=   0.11537065D+01
 Iteration Nr.  12
 **********************
 DD1Dir will call FoFMem   1 times, MxPair=       156
 NAB=    78 NAA=     0 NBB=     0.
 DE(Corr)= -0.75831589     E(CORR)=     -1355.1841983     Delta=-2.25D-07
 NORM(A)=   0.11537073D+01
 Iteration Nr.  13
 **********************
 DD1Dir will call FoFMem   1 times, MxPair=       156
 NAB=    78 NAA=     0 NBB=     0.
 DE(Corr)= -0.75831618     E(CORR)=     -1355.1841986     Delta=-2.99D-07
 NORM(A)=   0.11537078D+01
 Iteration Nr.  14
 **********************
 DD1Dir will call FoFMem   1 times, MxPair=       156
 NAB=    78 NAA=     0 NBB=     0.
 DE(Corr)= -0.75831621     E(CORR)=     -1355.1841987     Delta=-2.80D-08
 NORM(A)=   0.11537080D+01
 Iteration Nr.  15
 **********************
 DD1Dir will call FoFMem   1 times, MxPair=       156
 NAB=    78 NAA=     0 NBB=     0.
 DE(Corr)= -0.75831627     E(CORR)=     -1355.1841987     Delta=-5.74D-08
 NORM(A)=   0.11537081D+01
 Iteration Nr.  16
 **********************
 DD1Dir will call FoFMem   1 times, MxPair=       156
 NAB=    78 NAA=     0 NBB=     0.
 DE(Corr)= -0.75831628     E(CORR)=     -1355.1841987     Delta=-1.21D-08
 NORM(A)=   0.11537082D+01
 Iteration Nr.  17
 **********************
 DD1Dir will call FoFMem   1 times, MxPair=       156
 NAB=    78 NAA=     0 NBB=     0.
 DE(Corr)= -0.75831628     E(CORR)=     -1355.1841987     Delta= 9.23D-10
 NORM(A)=   0.11537082D+01
 Wavefunction amplitudes converged. E(Corr)=     -1355.1841987    
 Largest amplitude= 8.91D-02

 Z-amplitude iterations

 Iteration Nr.   1
 **********************
 DD1Dir will call FoFMem   1 times, MxPair=       156
 NAB=    78 NAA=     0 NBB=     0.
 DE(Z)= -0.72641853     E(Z)=     -1355.1523010     Delta= 3.19D-02
 NORM(A)=   0.11537260D+01
 Iteration Nr.   2
 **********************
 DD1Dir will call FoFMem   1 times, MxPair=       156
 NAB=    78 NAA=     0 NBB=     0.
 DE(Z)= -0.72641900     E(Z)=     -1355.1523015     Delta=-4.71D-07
 NORM(A)=   0.11534563D+01
 Iteration Nr.   3
 **********************
 DD1Dir will call FoFMem   1 times, MxPair=       156
 NAB=    78 NAA=     0 NBB=     0.
 DE(Z)= -0.72641185     E(Z)=     -1355.1522943     Delta= 7.15D-06
 NORM(A)=   0.11537424D+01
 Iteration Nr.   4
 **********************
 DD1Dir will call FoFMem   1 times, MxPair=       156
 NAB=    78 NAA=     0 NBB=     0.
 DE(Z)= -0.72641947     E(Z)=     -1355.1523019     Delta=-7.62D-06
 NORM(A)=   0.11529401D+01
 Iteration Nr.   5
 **********************
 DD1Dir will call FoFMem   1 times, MxPair=       156
 NAB=    78 NAA=     0 NBB=     0.
 DE(Z)= -0.72639660     E(Z)=     -1355.1522791     Delta= 2.29D-05
 NORM(A)=   0.11404352D+01
 Iteration Nr.   6
 **********************
 DD1Dir will call FoFMem   1 times, MxPair=       156
 NAB=    78 NAA=     0 NBB=     0.
 DE(Z)= -0.72603428     E(Z)=     -1355.1519167     Delta= 3.62D-04
 NORM(A)=   0.11404359D+01
 Iteration Nr.   7
 **********************
 DD1Dir will call FoFMem   1 times, MxPair=       156
 NAB=    78 NAA=     0 NBB=     0.
 DE(Z)= -0.72603200     E(Z)=     -1355.1519145     Delta= 2.28D-06
 NORM(A)=   0.11404349D+01
 Iteration Nr.   8
 **********************
 DD1Dir will call FoFMem   1 times, MxPair=       156
 NAB=    78 NAA=     0 NBB=     0.
 DE(Z)= -0.72603291     E(Z)=     -1355.1519154     Delta=-9.01D-07
 NORM(A)=   0.11404357D+01
 Iteration Nr.   9
 **********************
 DD1Dir will call FoFMem   1 times, MxPair=       156
 NAB=    78 NAA=     0 NBB=     0.
 DE(Z)= -0.72603309     E(Z)=     -1355.1519155     Delta=-1.83D-07
 NORM(A)=   0.11404361D+01
 Iteration Nr.  10
 **********************
 DD1Dir will call FoFMem   1 times, MxPair=       156
 NAB=    78 NAA=     0 NBB=     0.
 DE(Z)= -0.72603289     E(Z)=     -1355.1519153     Delta= 2.01D-07
 NORM(A)=   0.11404362D+01
 Iteration Nr.  11
 **********************
 DD1Dir will call FoFMem   1 times, MxPair=       156
 NAB=    78 NAA=     0 NBB=     0.
 DE(Z)= -0.72603304     E(Z)=     -1355.1519155     Delta=-1.55D-07
 NORM(A)=   0.11404363D+01
 Iteration Nr.  12
 **********************
 DD1Dir will call FoFMem   1 times, MxPair=       156
 NAB=    78 NAA=     0 NBB=     0.
 DE(Z)= -0.72603296     E(Z)=     -1355.1519154     Delta= 8.09D-08
 NORM(A)=   0.11404362D+01
 Iteration Nr.  13
 **********************
 DD1Dir will call FoFMem   1 times, MxPair=       156
 NAB=    78 NAA=     0 NBB=     0.
 DE(Z)= -0.72603298     E(Z)=     -1355.1519154     Delta=-2.13D-08
 NORM(A)=   0.11404362D+01
 Iteration Nr.  14
 **********************
 DD1Dir will call FoFMem   1 times, MxPair=       156
 NAB=    78 NAA=     0 NBB=     0.
 DE(Z)= -0.72603298     E(Z)=     -1355.1519154     Delta= 7.17D-09
 NORM(A)=   0.11404362D+01
 Z-amplitudes converged.
 Discarding MO integrals.
          Differentiating once with respect to electric field.
                with respect to dipole field.
          Electric field/nuclear overlap derivatives assumed to be zero.
 Keep R1 ints in memory in canonical form, NReq=194501998.
          There are     1 degrees of freedom in the 1st order CPHF.  IDoFFX=0 NUNeed=     1.
 LinEq1:  Iter=  0 NonCon=     1 RMS=2.08D-03 Max=6.35D-02 NDo=     1
 AX will form     1 AO Fock derivatives at one time.
 LinEq1:  Iter=  1 NonCon=     1 RMS=9.31D-04 Max=1.79D-02 NDo=     1
 LinEq1:  Iter=  2 NonCon=     1 RMS=4.13D-04 Max=1.02D-02 NDo=     1
 LinEq1:  Iter=  3 NonCon=     1 RMS=1.04D-04 Max=1.79D-03 NDo=     1
 LinEq1:  Iter=  4 NonCon=     1 RMS=2.43D-05 Max=7.84D-04 NDo=     1
 LinEq1:  Iter=  5 NonCon=     1 RMS=7.92D-06 Max=1.93D-04 NDo=     1
 LinEq1:  Iter=  6 NonCon=     1 RMS=2.39D-06 Max=8.96D-05 NDo=     1
 LinEq1:  Iter=  7 NonCon=     1 RMS=7.33D-07 Max=1.29D-05 NDo=     1
 LinEq1:  Iter=  8 NonCon=     1 RMS=1.37D-07 Max=2.08D-06 NDo=     1
 LinEq1:  Iter=  9 NonCon=     1 RMS=2.60D-08 Max=3.69D-07 NDo=     1
 LinEq1:  Iter= 10 NonCon=     1 RMS=6.81D-09 Max=1.70D-07 NDo=     1
 LinEq1:  Iter= 11 NonCon=     1 RMS=1.41D-09 Max=2.31D-08 NDo=     1
 LinEq1:  Iter= 12 NonCon=     1 RMS=3.28D-10 Max=5.27D-09 NDo=     1
 LinEq1:  Iter= 13 NonCon=     0 RMS=7.70D-11 Max=8.70D-10 NDo=     1
 Linear equations converged to 1.000D-10 1.000D-09 after    13 iterations.
 End of Minotr F.D. properties file   721 does not exist.
 End of Minotr F.D. properties file   722 does not exist.
 End of Minotr F.D. properties file   788 does not exist.

 **********************************************************************

            Population analysis using the CC Density.

 **********************************************************************

 Alpha  occ. eigenvalues -- -104.88816-104.88715 -91.97855 -11.45010 -10.61211
 Alpha  occ. eigenvalues --  -10.61098  -8.98147  -8.07888  -8.07773  -8.07678
 Alpha  occ. eigenvalues --   -8.07660  -8.07564  -8.07547  -6.66225  -6.66125
 Alpha  occ. eigenvalues --   -6.65975  -1.24127  -1.13330  -1.04010  -0.77094
 Alpha  occ. eigenvalues --   -0.64379  -0.60825  -0.58509  -0.50393  -0.49581
 Alpha  occ. eigenvalues --   -0.47788  -0.40806  -0.38124
 Alpha virt. eigenvalues --    0.01740   0.04849   0.06329   0.06898   0.10016
 Alpha virt. eigenvalues --    0.10081   0.10360   0.11208   0.11755   0.12860
 Alpha virt. eigenvalues --    0.15152   0.15308   0.16188   0.16376   0.16480
 Alpha virt. eigenvalues --    0.21169   0.21649   0.23226   0.26503   0.27053
 Alpha virt. eigenvalues --    0.28114   0.28932   0.30198   0.34344   0.34841
 Alpha virt. eigenvalues --    0.37886   0.38933   0.39827   0.40232   0.42251
 Alpha virt. eigenvalues --    0.44395   0.45411   0.45569   0.46244   0.48080
 Alpha virt. eigenvalues --    0.49016   0.50283   0.50836   0.53918   0.55289
 Alpha virt. eigenvalues --    0.56168   0.65357   0.65613   0.65734   0.70986
 Alpha virt. eigenvalues --    0.72503   0.73093   0.73850   0.74036   0.78573
 Alpha virt. eigenvalues --    0.79039   0.80239   0.80257   0.81706   0.83056
 Alpha virt. eigenvalues --    0.83319   0.86691   0.87439   0.88460   0.88633
 Alpha virt. eigenvalues --    0.91095   0.91933   0.92623   0.94689   0.95462
 Alpha virt. eigenvalues --    0.95770   0.97566   1.01927   1.03128   1.07761
 Alpha virt. eigenvalues --    1.11012   1.11338   1.11959   1.12755   1.17894
 Alpha virt. eigenvalues --    1.18774   1.20737   1.22700   1.28690   1.29414
 Alpha virt. eigenvalues --    1.31216   1.36217   1.39327   1.40488   1.47553
 Alpha virt. eigenvalues --    1.48298   1.52094   1.52892   1.53879   1.54894
 Alpha virt. eigenvalues --    1.61609   1.66144   1.68825   1.71046   1.71368
 Alpha virt. eigenvalues --    1.74996   1.83288   1.83362   1.85327   1.87410
 Alpha virt. eigenvalues --    1.87908   1.89862   1.98017   2.07200   2.07798
 Alpha virt. eigenvalues --    2.13964   2.17463   2.32328   2.32816   2.39177
 Alpha virt. eigenvalues --    2.39322   2.42927   2.44513   2.47252   2.47873
 Alpha virt. eigenvalues --    2.47886   2.53051   2.58105   2.58578   2.59878
 Alpha virt. eigenvalues --    2.60169   2.62343   2.64034   2.65166   2.65466
 Alpha virt. eigenvalues --    2.69338   2.82794   2.83737   2.87541   2.89399
 Alpha virt. eigenvalues --    2.91132   3.02381   3.02829   3.04857   3.05362
 Alpha virt. eigenvalues --    3.05464   3.07592   3.09557   3.13148   3.13329
 Alpha virt. eigenvalues --    3.14045   3.14924   3.19031   3.21810   3.23141
 Alpha virt. eigenvalues --    3.23548   3.35678   3.46512   3.54150   3.64592
 Alpha virt. eigenvalues --    3.69983   3.70498   3.72428   3.76458   3.84184
 Alpha virt. eigenvalues --    3.89082   3.90691   3.96700   4.13328   4.14683
 Alpha virt. eigenvalues --    4.19799   4.23707   4.70758   4.75978   6.45111
 Alpha virt. eigenvalues --    7.19655   7.25765   9.74879
          Condensed to atoms (all electrons):
               1          2          3          4
     1  C    5.669454   0.070546   0.074762   0.178758
     2  Cl   0.070546  17.189628  -0.117595  -0.128277
     3  Cl   0.074762  -0.117595  17.191147  -0.127242
     4  S    0.178758  -0.128277  -0.127242  16.047867
 Mulliken charges:
               1
     1  C    0.006480
     2  Cl  -0.014302
     3  Cl  -0.021072
     4  S    0.028893
 Sum of Mulliken charges =  -0.00000
 Mulliken charges with hydrogens summed into heavy atoms:
               1
     1  C    0.006480
     2  Cl  -0.014302
     3  Cl  -0.021072
     4  S    0.028893
 Electronic spatial extent (au):  <R**2>=            692.4460
 Charge=             -0.0000 electrons
 Dipole moment (field-independent basis, Debye):
    X=              0.0000    Y=             -0.0305    Z=             -0.4119  Tot=              0.4131
 Quadrupole moment (field-independent basis, Debye-Ang):
   XX=            -43.1647   YY=            -43.2954   ZZ=            -42.5575
   XY=             -0.0000   XZ=             -0.0000   YZ=              0.0498
 Traceless Quadrupole moment (field-independent basis, Debye-Ang):
   XX=             -0.1589   YY=             -0.2896   ZZ=              0.4484
   XY=             -0.0000   XZ=             -0.0000   YZ=              0.0498
 Octapole moment (field-independent basis, Debye-Ang**2):
  XXX=             -0.0000  YYY=             -0.4612  ZZZ=             81.8115  XYY=              0.0000
  XXY=             -0.1603  XXZ=             27.1684  XZZ=              0.0000  YZZ=             -0.2306
  YYZ=             19.0100  XYZ=             -0.0000
 Hexadecapole moment (field-independent basis, Debye-Ang**3):
 XXXX=            -50.9183 YYYY=           -342.4147 ZZZZ=           -477.9626 XXXY=             -0.0000
 XXXZ=             -0.0000 YYYX=              0.0000 YYYZ=              0.6491 ZZZX=             -0.0000
 ZZZY=              0.8186 XXYY=            -69.6149 XXZZ=            -89.7787 YYZZ=           -127.7113
 XXYZ=              0.2410 YYXZ=             -0.0000 ZZXY=             -0.0000
 N-N= 2.444789828047D+02 E-N=-3.712515369005D+03  KE= 1.355020794360D+03
 There are a total of       89716 grid points.
 ElSum from          density=       56.0000003007
 ElSum from atomic densities=       56.0000008052

 Hirshfeld populations at iteration   1 (CX, CA, CB, DipXYZ):
               1          2          3          4          5          6
     1  C    0.000001   2.959435   2.959435   0.000000   0.000147  -0.137313
     2  Cl   0.000016   8.504188   8.504188  -0.000000  -0.062426  -0.020563
     3  Cl   0.000016   8.506291   8.506291  -0.000000   0.061504  -0.019351
     4  S    0.000011   8.030087   8.030087   0.000000   0.000372   0.158902
       Tot   0.000044  28.000000  28.000000   0.000000  -0.000403  -0.018325

 Dip from Atomic Chgs              0.000000  -0.011610  -0.143744
         Total Dipole              0.000000  -0.012014  -0.162068

 Hirshfeld charges, spin densities, dipoles, and CM5 charges using IRadAn=      5:
              Q-H        S-H        Dx         Dy         Dz        Q-CM5   
     1  C    0.081130   0.000000   0.000000   0.000147  -0.137313   0.099537
     2  Cl  -0.008375   0.000000  -0.000000  -0.062426  -0.020563  -0.006901
     3  Cl  -0.012582   0.000000  -0.000000   0.061504  -0.019351  -0.011127
     4  S   -0.060173   0.000000   0.000000   0.000372   0.158902  -0.081509
       Tot  -0.000000   0.000000   0.000000  -0.000403  -0.018325  -0.000000
 Hirshfeld charges with hydrogens summed into heavy atoms:
              Q-H       Q-CM5   
     1  C    0.081130   0.099537
     2  Cl  -0.008375  -0.006901
     3  Cl  -0.012582  -0.011127
     4  S   -0.060173  -0.081509
 
 EQQ= 0.000000000000E+00 EQD= 0.000000000000E+00 EDD=-0.685437874325E-03
 EQQ+QD+DD=-0.685437874325E-03
 
 Breneman (CHELPG) radii used.
 Generate Potential Derived Charges using the Breneman model, NDens= 1.
 Grid spacing= 0.300 Box extension= 2.800
 NStep X,Y,Z=   20     30     29   Total possible points=       17400
 Number of Points to Fit=    4412

 **********************************************************************

            Electrostatic Properties Using The CC Density.

 **********************************************************************

       Atomic Center    1 is at   0.000000  0.000000 -0.522914
       Atomic Center    2 is at   0.000000 -1.430735 -1.500900
       Atomic Center    3 is at   0.000000  1.440735 -1.500900
       Atomic Center    4 is at   0.000000  0.000000  1.081815
    4412 points will be used for fitting atomic charges
 Fitting point charges to electrostatic potential
 The dipole moment will be constrained to the correct value
 Charges from ESP fit, RMS=   0.00700 RRMS=   0.93371:
 ESP charges:
               1
     1  C    0.125726
     2  Cl  -0.020320
     3  Cl  -0.024591
     4  S   -0.080814
 Sum of ESP charges =   0.00000
 ESP charges with hydrogens summed into heavy atoms:
               1
     1  C    0.125726
     2  Cl  -0.020320
     3  Cl  -0.024591
     4  S   -0.080814
 Charge=   0.00000 Dipole=     0.0000    -0.0305    -0.4119 Tot=     0.4131
 -----------------------------------------------------------------

              Electrostatic Properties (Atomic Units)

 -----------------------------------------------------------------
    Center     Electric         -------- Electric Field --------
               Potential          X             Y             Z
 -----------------------------------------------------------------
    1 Atom    -14.564025
    2 Atom    -64.376650
    3 Atom    -64.377685
    4 Atom    -59.209340
 -----------------------------------------------------------------
 ******************************Gaussian NBO Version 3.1******************************
             N A T U R A L   A T O M I C   O R B I T A L   A N D
          N A T U R A L   B O N D   O R B I T A L   A N A L Y S I S
 ******************************Gaussian NBO Version 3.1******************************
       /RESON  / : Allow strongly delocalized NBO set

 Analyzing the QCI/CC density

 Job title: cl2cs-wavefunction                                              

 Storage needed:    116194 in NPA (2147483536 available)
 GSVD:  LWork=        8166 too small for GESVD, short by       51245 words or       51245 for optimal perf.


 NATURAL POPULATIONS:  Natural atomic orbital occupancies 
                                                          
   NAO  Atom  No  lang   Type(AO)    Occupancy
 --------------------------------------------
     1    C    1  S      Cor( 1S)     1.99946
     2    C    1  S      Val( 2S)     1.16455
     3    C    1  S      Ryd( 3S)     0.00528
     4    C    1  S      Ryd( 4S)     0.00038
     5    C    1  S      Ryd( 5S)     0.00015
     6    C    1  px     Val( 2p)     1.02023
     7    C    1  px     Ryd( 3p)     0.00804
     8    C    1  px     Ryd( 4p)     0.00051
     9    C    1  px     Ryd( 5p)     0.00022
    10    C    1  py     Val( 2p)     0.95482
    11    C    1  py     Ryd( 3p)     0.02110
    12    C    1  py     Ryd( 5p)     0.00046
    13    C    1  py     Ryd( 4p)     0.00051
    14    C    1  pz     Val( 2p)     1.06644
    15    C    1  pz     Ryd( 3p)     0.02670
    16    C    1  pz     Ryd( 5p)     0.00036
    17    C    1  pz     Ryd( 4p)     0.00046
    18    C    1  dxy    Ryd( 3d)     0.01033
    19    C    1  dxy    Ryd( 4d)     0.00033
    20    C    1  dxy    Ryd( 5d)     0.00018
    21    C    1  dxz    Ryd( 3d)     0.01309
    22    C    1  dxz    Ryd( 4d)     0.00036
    23    C    1  dxz    Ryd( 5d)     0.00026
    24    C    1  dyz    Ryd( 3d)     0.01357
    25    C    1  dyz    Ryd( 4d)     0.00044
    26    C    1  dyz    Ryd( 5d)     0.00018
    27    C    1  dx2y2  Ryd( 3d)     0.00816
    28    C    1  dx2y2  Ryd( 4d)     0.00035
    29    C    1  dx2y2  Ryd( 5d)     0.00032
    30    C    1  dz2    Ryd( 3d)     0.01257
    31    C    1  dz2    Ryd( 4d)     0.00036
    32    C    1  dz2    Ryd( 5d)     0.00015
    33    C    1  f(0)   Ryd( 4f)     0.00477
    34    C    1  f(0)   Ryd( 5f)     0.00032
    35    C    1  f(C1)  Ryd( 4f)     0.00256
    36    C    1  f(C1)  Ryd( 5f)     0.00036
    37    C    1  f(S1)  Ryd( 4f)     0.00326
    38    C    1  f(S1)  Ryd( 5f)     0.00057
    39    C    1  f(C2)  Ryd( 4f)     0.00317
    40    C    1  f(C2)  Ryd( 5f)     0.00032
    41    C    1  f(S2)  Ryd( 4f)     0.00283
    42    C    1  f(S2)  Ryd( 5f)     0.00031
    43    C    1  f(C3)  Ryd( 4f)     0.00214
    44    C    1  f(C3)  Ryd( 5f)     0.00024
    45    C    1  f(S3)  Ryd( 4f)     0.00210
    46    C    1  f(S3)  Ryd( 5f)     0.00024

    47   Cl    2  S      Cor( 1S)     2.00000
    48   Cl    2  S      Cor( 2S)     1.99918
    49   Cl    2  S      Val( 3S)     1.81142
    50   Cl    2  S      Ryd( 4S)     0.00538
    51   Cl    2  S      Ryd( 5S)     0.00034
    52   Cl    2  S      Ryd( 6S)     0.00027
    53   Cl    2  px     Cor( 2p)     2.00002
    54   Cl    2  px     Val( 3p)     1.83711
    55   Cl    2  px     Ryd( 4p)     0.00886
    56   Cl    2  px     Ryd( 5p)     0.00052
    57   Cl    2  px     Ryd( 6p)     0.00010
    58   Cl    2  py     Cor( 2p)     1.99993
    59   Cl    2  py     Val( 3p)     1.43200
    60   Cl    2  py     Ryd( 4p)     0.00599
    61   Cl    2  py     Ryd( 5p)     0.00051
    62   Cl    2  py     Ryd( 6p)     0.00012
    63   Cl    2  pz     Cor( 2p)     1.99998
    64   Cl    2  pz     Val( 3p)     1.69565
    65   Cl    2  pz     Ryd( 4p)     0.00754
    66   Cl    2  pz     Ryd( 5p)     0.00050
    67   Cl    2  pz     Ryd( 6p)     0.00013
    68   Cl    2  dxy    Ryd( 3d)     0.01768
    69   Cl    2  dxy    Ryd( 4d)     0.00050
    70   Cl    2  dxy    Ryd( 5d)     0.00012
    71   Cl    2  dxz    Ryd( 3d)     0.01842
    72   Cl    2  dxz    Ryd( 4d)     0.00062
    73   Cl    2  dxz    Ryd( 5d)     0.00013
    74   Cl    2  dyz    Ryd( 3d)     0.02250
    75   Cl    2  dyz    Ryd( 4d)     0.00046
    76   Cl    2  dyz    Ryd( 5d)     0.00014
    77   Cl    2  dx2y2  Ryd( 3d)     0.01965
    78   Cl    2  dx2y2  Ryd( 4d)     0.00051
    79   Cl    2  dx2y2  Ryd( 5d)     0.00012
    80   Cl    2  dz2    Ryd( 3d)     0.01706
    81   Cl    2  dz2    Ryd( 4d)     0.00050
    82   Cl    2  dz2    Ryd( 5d)     0.00018
    83   Cl    2  f(0)   Ryd( 4f)     0.00131
    84   Cl    2  f(0)   Ryd( 5f)     0.00014
    85   Cl    2  f(C1)  Ryd( 4f)     0.00134
    86   Cl    2  f(C1)  Ryd( 5f)     0.00013
    87   Cl    2  f(S1)  Ryd( 4f)     0.00128
    88   Cl    2  f(S1)  Ryd( 5f)     0.00018
    89   Cl    2  f(C2)  Ryd( 4f)     0.00152
    90   Cl    2  f(C2)  Ryd( 5f)     0.00014
    91   Cl    2  f(S2)  Ryd( 4f)     0.00134
    92   Cl    2  f(S2)  Ryd( 5f)     0.00015
    93   Cl    2  f(C3)  Ryd( 4f)     0.00132
    94   Cl    2  f(C3)  Ryd( 5f)     0.00014
    95   Cl    2  f(S3)  Ryd( 4f)     0.00134
    96   Cl    2  f(S3)  Ryd( 5f)     0.00015

    97   Cl    3  S      Cor( 1S)     2.00000
    98   Cl    3  S      Cor( 2S)     1.99920
    99   Cl    3  S      Val( 3S)     1.81449
   100   Cl    3  S      Ryd( 4S)     0.00535
   101   Cl    3  S      Ryd( 5S)     0.00034
   102   Cl    3  S      Ryd( 6S)     0.00026
   103   Cl    3  px     Cor( 2p)     2.00002
   104   Cl    3  px     Val( 3p)     1.83979
   105   Cl    3  px     Ryd( 4p)     0.00886
   106   Cl    3  px     Ryd( 5p)     0.00052
   107   Cl    3  px     Ryd( 6p)     0.00010
   108   Cl    3  py     Cor( 2p)     1.99994
   109   Cl    3  py     Val( 3p)     1.43024
   110   Cl    3  py     Ryd( 4p)     0.00598
   111   Cl    3  py     Ryd( 5p)     0.00051
   112   Cl    3  py     Ryd( 6p)     0.00012
   113   Cl    3  pz     Cor( 2p)     1.99998
   114   Cl    3  pz     Val( 3p)     1.69799
   115   Cl    3  pz     Ryd( 4p)     0.00754
   116   Cl    3  pz     Ryd( 5p)     0.00050
   117   Cl    3  pz     Ryd( 6p)     0.00013
   118   Cl    3  dxy    Ryd( 3d)     0.01764
   119   Cl    3  dxy    Ryd( 4d)     0.00050
   120   Cl    3  dxy    Ryd( 5d)     0.00012
   121   Cl    3  dxz    Ryd( 3d)     0.01840
   122   Cl    3  dxz    Ryd( 4d)     0.00062
   123   Cl    3  dxz    Ryd( 5d)     0.00013
   124   Cl    3  dyz    Ryd( 3d)     0.02237
   125   Cl    3  dyz    Ryd( 4d)     0.00046
   126   Cl    3  dyz    Ryd( 5d)     0.00014
   127   Cl    3  dx2y2  Ryd( 3d)     0.01962
   128   Cl    3  dx2y2  Ryd( 4d)     0.00051
   129   Cl    3  dx2y2  Ryd( 5d)     0.00012
   130   Cl    3  dz2    Ryd( 3d)     0.01705
   131   Cl    3  dz2    Ryd( 4d)     0.00051
   132   Cl    3  dz2    Ryd( 5d)     0.00018
   133   Cl    3  f(0)   Ryd( 4f)     0.00131
   134   Cl    3  f(0)   Ryd( 5f)     0.00014
   135   Cl    3  f(C1)  Ryd( 4f)     0.00134
   136   Cl    3  f(C1)  Ryd( 5f)     0.00013
   137   Cl    3  f(S1)  Ryd( 4f)     0.00128
   138   Cl    3  f(S1)  Ryd( 5f)     0.00018
   139   Cl    3  f(C2)  Ryd( 4f)     0.00152
   140   Cl    3  f(C2)  Ryd( 5f)     0.00015
   141   Cl    3  f(S2)  Ryd( 4f)     0.00134
   142   Cl    3  f(S2)  Ryd( 5f)     0.00015
   143   Cl    3  f(C3)  Ryd( 4f)     0.00132
   144   Cl    3  f(C3)  Ryd( 5f)     0.00015
   145   Cl    3  f(S3)  Ryd( 4f)     0.00134
   146   Cl    3  f(S3)  Ryd( 5f)     0.00015

   147    S    4  S      Cor( 1S)     2.00000
   148    S    4  S      Cor( 2S)     1.99839
   149    S    4  S      Val( 3S)     1.70540
   150    S    4  S      Ryd( 4S)     0.00838
   151    S    4  S      Ryd( 5S)     0.00038
   152    S    4  S      Ryd( 6S)     0.00023
   153    S    4  px     Cor( 2p)     1.99989
   154    S    4  px     Val( 3p)     1.15756
   155    S    4  px     Ryd( 4p)     0.00479
   156    S    4  px     Ryd( 5p)     0.00032
   157    S    4  px     Ryd( 6p)     0.00011
   158    S    4  py     Cor( 2p)     2.00000
   159    S    4  py     Val( 3p)     1.77879
   160    S    4  py     Ryd( 4p)     0.01025
   161    S    4  py     Ryd( 5p)     0.00046
   162    S    4  py     Ryd( 6p)     0.00014
   163    S    4  pz     Cor( 2p)     1.99965
   164    S    4  pz     Val( 3p)     1.04473
   165    S    4  pz     Ryd( 4p)     0.00516
   166    S    4  pz     Ryd( 5p)     0.00046
   167    S    4  pz     Ryd( 6p)     0.00009
   168    S    4  dxy    Ryd( 3d)     0.01612
   169    S    4  dxy    Ryd( 4d)     0.00052
   170    S    4  dxy    Ryd( 5d)     0.00009
   171    S    4  dxz    Ryd( 3d)     0.01695
   172    S    4  dxz    Ryd( 4d)     0.00035
   173    S    4  dxz    Ryd( 5d)     0.00008
   174    S    4  dyz    Ryd( 3d)     0.01394
   175    S    4  dyz    Ryd( 4d)     0.00036
   176    S    4  dyz    Ryd( 5d)     0.00028
   177    S    4  dx2y2  Ryd( 3d)     0.01565
   178    S    4  dx2y2  Ryd( 4d)     0.00054
   179    S    4  dx2y2  Ryd( 5d)     0.00010
   180    S    4  dz2    Ryd( 3d)     0.02155
   181    S    4  dz2    Ryd( 4d)     0.00041
   182    S    4  dz2    Ryd( 5d)     0.00010
   183    S    4  f(0)   Ryd( 4f)     0.00121
   184    S    4  f(0)   Ryd( 5f)     0.00021
   185    S    4  f(C1)  Ryd( 4f)     0.00094
   186    S    4  f(C1)  Ryd( 5f)     0.00015
   187    S    4  f(S1)  Ryd( 4f)     0.00109
   188    S    4  f(S1)  Ryd( 5f)     0.00016
   189    S    4  f(C2)  Ryd( 4f)     0.00091
   190    S    4  f(C2)  Ryd( 5f)     0.00014
   191    S    4  f(S2)  Ryd( 4f)     0.00095
   192    S    4  f(S2)  Ryd( 5f)     0.00012
   193    S    4  f(C3)  Ryd( 4f)     0.00136
   194    S    4  f(C3)  Ryd( 5f)     0.00013
   195    S    4  f(S3)  Ryd( 4f)     0.00136
   196    S    4  f(S3)  Ryd( 5f)     0.00013

 WARNING:  1 low occupancy (<1.9990e) core orbital  found on  S    4


 Summary of Natural Population Analysis:                  
                                                          
                                       Natural Population 
                Natural  -----------------------------------------------
    Atom  No    Charge         Core      Valence    Rydberg      Total
 -----------------------------------------------------------------------
      C    1   -0.35349      1.99946     4.20604    0.14799     6.35349
     Cl    2    0.08535      9.99912     6.77618    0.13936    16.91465
     Cl    3    0.07926      9.99914     6.78250    0.13910    16.92074
      S    4    0.18889      9.99793     5.68648    0.12670    15.81111
 =======================================================================
   * Total *   -0.00000     31.99566    23.45120    0.55315    56.00000

                                 Natural Population      
 --------------------------------------------------------
   Core                      31.99566 ( 99.9864% of  32)
   Valence                   23.45120 ( 97.7133% of  24)
   Natural Minimal Basis     55.44685 ( 99.0122% of  56)
   Natural Rydberg Basis      0.55315 (  0.9878% of  56)
 --------------------------------------------------------

    Atom  No          Natural Electron Configuration
 ----------------------------------------------------------------------------
      C    1      [core]2S( 1.16)2p( 3.04)3S( 0.01)3p( 0.06)3d( 0.06)4f( 0.02)
     Cl    2      [core]3S( 1.81)3p( 4.96)4S( 0.01)3d( 0.10)4p( 0.02)4f( 0.01)
     Cl    3      [core]3S( 1.81)3p( 4.97)4S( 0.01)3d( 0.10)4p( 0.02)4f( 0.01)
      S    4      [core]3S( 1.71)3p( 3.98)4S( 0.01)3d( 0.08)4p( 0.02)4f( 0.01)


 NBO analysis skipped by request.
 Unable to Open any file for archive entry.
 1\1\GINC-TRAPISTA\SP\RQCISD-FC\Aug-CC-pVTZ\C1Cl2S1\WAGNER\04-Sep-2022\
 0\\# qcisd/aug-cc-pvtz nosymm density=current pop=(chelpg,hirshfeld,np
 a,dipole)\\cl2cs-wavefunction\\0,1\C,0,0.,0.,-0.522914\Cl,0,0.,-1.4307
 35,-1.5009\Cl,0,0.,1.440735,-1.5009\S,0,0.,0.,1.081815\\Version=EM64L-
 G16RevC.01\HF=-1354.4258825\MP2=-1355.1503376\MP3=-1355.1829322\MP4D=-
 1355.2047589\MP4DQ=-1355.1798429\MP4SDQ=-1355.1866948\QCISD=-1355.1841
 987\RMSD=9.187e-09\Dipole=0.,-0.0120135,-0.1620683\Quadrupole=-0.11810
 29,-0.2152786,0.3333814,0.,0.,0.0370585\PG=CS [SG(C1Cl2S1)]\\@
 The archive entry for this job was punched.


 WHEN IT COMES TO CASH FLOW, IT SEEMS LIKE THE TIDE IS ALWAYS GOING OUT.
 Job cpu time:       0 days  7 hours 21 minutes 22.3 seconds.
 Elapsed time:       0 days  0 hours 27 minutes 53.4 seconds.
 File lengths (MBytes):  RWF=  23427 Int=      0 D2E=      0 Chk=      4 Scr=      1
 Normal termination of Gaussian 16 at Sun Sep  4 13:46:08 2022.
