 Entering Gaussian System, Link 0=/home/wagner/chemistry/gaussian/g16/g16
 Input=GAUSSIAN.com
 Output=GAUSSIAN.log
 Initial command:
 /home/wagner/chemistry/gaussian/g16/l1.exe "/home/wagner/chemistry/gaussian/work/Gau-48956.inp" -scrdir="/home/wagner/chemistry/gaussian/work/"
 Entering Link 1 = /home/wagner/chemistry/gaussian/g16/l1.exe PID=     48958.
  
 Copyright (c) 1988-2019, Gaussian, Inc.  All Rights Reserved.
  
 This is part of the Gaussian(R) 16 program.  It is based on
 the Gaussian(R) 09 system (copyright 2009, Gaussian, Inc.),
 the Gaussian(R) 03 system (copyright 2003, Gaussian, Inc.),
 the Gaussian(R) 98 system (copyright 1998, Gaussian, Inc.),
 the Gaussian(R) 94 system (copyright 1995, Gaussian, Inc.),
 the Gaussian 92(TM) system (copyright 1992, Gaussian, Inc.),
 the Gaussian 90(TM) system (copyright 1990, Gaussian, Inc.),
 the Gaussian 88(TM) system (copyright 1988, Gaussian, Inc.),
 the Gaussian 86(TM) system (copyright 1986, Carnegie Mellon
 University), and the Gaussian 82(TM) system (copyright 1983,
 Carnegie Mellon University). Gaussian is a federally registered
 trademark of Gaussian, Inc.
  
 This software contains proprietary and confidential information,
 including trade secrets, belonging to Gaussian, Inc.
  
 This software is provided under written license and may be
 used, copied, transmitted, or stored only in accord with that
 written license.
  
 The following legend is applicable only to US Government
 contracts under FAR:
  
                    RESTRICTED RIGHTS LEGEND
  
 Use, reproduction and disclosure by the US Government is
 subject to restrictions as set forth in subparagraphs (a)
 and (c) of the Commercial Computer Software - Restricted
 Rights clause in FAR 52.227-19.
  
 Gaussian, Inc.
 340 Quinnipiac St., Bldg. 40, Wallingford CT 06492
  
  
 ---------------------------------------------------------------
 Warning -- This program may not be used in any manner that
 competes with the business of Gaussian, Inc. or will provide
 assistance to any competitor of Gaussian, Inc.  The licensee
 of this program is prohibited from giving any competitor of
 Gaussian, Inc. access to this program.  By using this program,
 the user acknowledges that Gaussian, Inc. is engaged in the
 business of creating and licensing software in the field of
 computational chemistry and represents and warrants to the
 licensee that it is not a competitor of Gaussian, Inc. and that
 it will not use this program in any manner prohibited above.
 ---------------------------------------------------------------
  

 Cite this work as:
 Gaussian 16, Revision C.01,
 M. J. Frisch, G. W. Trucks, H. B. Schlegel, G. E. Scuseria, 
 M. A. Robb, J. R. Cheeseman, G. Scalmani, V. Barone, 
 G. A. Petersson, H. Nakatsuji, X. Li, M. Caricato, A. V. Marenich, 
 J. Bloino, B. G. Janesko, R. Gomperts, B. Mennucci, H. P. Hratchian, 
 J. V. Ortiz, A. F. Izmaylov, J. L. Sonnenberg, D. Williams-Young, 
 F. Ding, F. Lipparini, F. Egidi, J. Goings, B. Peng, A. Petrone, 
 T. Henderson, D. Ranasinghe, V. G. Zakrzewski, J. Gao, N. Rega, 
 G. Zheng, W. Liang, M. Hada, M. Ehara, K. Toyota, R. Fukuda, 
 J. Hasegawa, M. Ishida, T. Nakajima, Y. Honda, O. Kitao, H. Nakai, 
 T. Vreven, K. Throssell, J. A. Montgomery, Jr., J. E. Peralta, 
 F. Ogliaro, M. J. Bearpark, J. J. Heyd, E. N. Brothers, K. N. Kudin, 
 V. N. Staroverov, T. A. Keith, R. Kobayashi, J. Normand, 
 K. Raghavachari, A. P. Rendell, J. C. Burant, S. S. Iyengar, 
 J. Tomasi, M. Cossi, J. M. Millam, M. Klene, C. Adamo, R. Cammi, 
 J. W. Ochterski, R. L. Martin, K. Morokuma, O. Farkas, 
 J. B. Foresman, and D. J. Fox, Gaussian, Inc., Wallingford CT, 2019.
 
 ******************************************
 Gaussian 16:  EM64L-G16RevC.01  3-Jul-2019
                 4-Sep-2022 
 ******************************************
 %nproc=16
 Will use up to   16 processors via shared memory.
 %mem=16GB
 ----------------------------------------------------------------------
 # qcisd/aug-cc-pvtz nosymm density=current pop=(chelpg,hirshfeld,npa,d
 ipole)
 ----------------------------------------------------------------------
 1/30=1,38=1,172=1/1;
 2/12=2,15=1,17=6,18=5,40=1/2;
 3/5=16,6=1,7=10,11=9,25=1,30=1,71=1/1,2,3;
 4//1;
 5/5=2,38=5/2;
 8/6=4,9=120000,10=1/1,4;
 9/5=8,15=1/13;
 11/28=-7,31=1,32=3,42=3/11;
 10/5=6,13=10,31=1/2;
 6/7=2,8=2,9=2,10=2,15=24,20=3,22=-1,40=-1,79=1/1,2,7;
 99/5=1,9=1/99;
 ------------------
 cl2cs-wavefunction
 ------------------
 Symbolic Z-matrix:
 Charge =  0 Multiplicity = 1
 C                     0.        0.       -0.52291 
 Cl                    0.       -1.43074  -1.5009 
 Cl                    0.        1.43074  -1.4909 
 S                     0.        0.        1.08181 
 
                          Input orientation:                          
 ---------------------------------------------------------------------
 Center     Atomic      Atomic             Coordinates (Angstroms)
 Number     Number       Type             X           Y           Z
 ---------------------------------------------------------------------
      1          6           0        0.000000    0.000000   -0.522914
      2         17           0        0.000000   -1.430735   -1.500900
      3         17           0        0.000000    1.430735   -1.490900
      4         16           0        0.000000    0.000000    1.081815
 ---------------------------------------------------------------------
                    Distance matrix (angstroms):
                    1          2          3          4
     1  C    0.000000
     2  Cl   1.733049   0.000000
     3  Cl   1.727426   2.861487   0.000000
     4  S    1.604729   2.952528   2.943784   0.000000
 Symmetry turned off by external request.
 Stoichiometry    CCl2S
 Framework group  CS[SG(CCl2S)]
 Deg. of freedom     5
 Full point group                 CS      NOp   2
 Rotational constants (GHZ):           3.5321585           3.4575310           1.7472232
 Standard basis: Aug-CC-pVTZ (5D, 7F)
   196 basis functions,   414 primitive gaussians,   232 cartesian basis functions
    28 alpha electrons       28 beta electrons
       nuclear repulsion energy       245.1388818930 Hartrees.
 NAtoms=    4 NActive=    4 NUniq=    4 SFac= 1.00D+00 NAtFMM=   60 NAOKFM=F Big=F
 Integral buffers will be    131072 words long.
 Raffenetti 1 integral format.
 Two-electron integral symmetry is turned off.
 One-electron integrals computed using PRISM.
 NBasis=   196 RedAO= T EigKep=  9.07D-05  NBF=   196
 NBsUse=   196 1.00D-06 EigRej= -1.00D+00 NBFU=   196
 ExpMin= 3.51D-02 ExpMax= 4.56D+05 ExpMxC= 1.44D+03 IAcc=3 IRadAn=         5 AccDes= 0.00D+00
 Harris functional with IExCor=  205 and IRadAn=       5 diagonalized for initial guess.
 HarFok:  IExCor=  205 AccDes= 0.00D+00 IRadAn=         5 IDoV= 1 UseB2=F ITyADJ=14
 ICtDFT=  3500011 ScaDFX=  1.000000  1.000000  1.000000  1.000000
 FoFCou: FMM=F IPFlag=           0 FMFlag=      100000 FMFlg1=           0
         NFxFlg=           0 DoJE=T BraDBF=F KetDBF=T FulRan=T
         wScrn=  0.000000 ICntrl=       500 IOpCl=  0 I1Cent=   200000004 NGrid=           0
         NMat0=    1 NMatS0=      1 NMatT0=    0 NMatD0=    1 NMtDS0=    0 NMtDT0=    0
 Symmetry not used in FoFCou.
 Keep R1 ints in memory in canonical form, NReq=194496708.
 Requested convergence on RMS density matrix=1.00D-08 within 128 cycles.
 Requested convergence on MAX density matrix=1.00D-06.
 Requested convergence on             energy=1.00D-06.
 No special actions if energy rises.
 SCF Done:  E(RHF) =  -1354.42610032     A.U. after   12 cycles
            NFock= 12  Conv=0.87D-08     -V/T= 2.0001
 ExpMin= 3.51D-02 ExpMax= 4.56D+05 ExpMxC= 1.44D+03 IAcc=3 IRadAn=         5 AccDes= 0.00D+00
 HarFok:  IExCor=  205 AccDes= 0.00D+00 IRadAn=         5 IDoV=-2 UseB2=F ITyADJ=14
 ICtDFT= 12500011 ScaDFX=  1.000000  1.000000  1.000000  1.000000
 Range of M.O.s used for correlation:    17   196
 NBasis=   196 NAE=    28 NBE=    28 NFC=    16 NFV=     0
 NROrb=    180 NOA=    12 NOB=    12 NVA=   168 NVB=   168

 **** Warning!!: The largest alpha MO coefficient is  0.31239728D+02

 Semi-Direct transformation.
 ModeAB=           2 MOrb=            12 LenV=    2146408851
 LASXX=     33405819 LTotXX=    33405819 LenRXX=    33405819
 LTotAB=    33954012 MaxLAS=    58380480 LenRXY=    58380480
 NonZer=    66811638 LenScr=   100987392 LnRSAI=           0
 LnScr1=           0 LExtra=           0 Total=    192773691
 MaxDsk=          -1 SrtSym=           F ITran=            4
 JobTyp=0 Pass  1:  I=   1 to  12.
 (rs|ai) integrals will be sorted in core.
 Spin components of T(2) and E(2):
     alpha-alpha T2 =       0.3950314075D-01 E2=     -0.9366580420D-01
     alpha-beta  T2 =       0.2070724166D+00 E2=     -0.5369545000D+00
     beta-beta   T2 =       0.3950314075D-01 E2=     -0.9366580420D-01
 ANorm=    0.1134054098D+01
 E2 =    -0.7242861084D+00 EUMP2 =    -0.13551503864241D+04
 Keep R2 and R3 ints in memory in canonical form, NReq=380876011.
 CIDS: In Core Option IDoMem=           1.
 Iterations=  50 Convergence= 0.100D-07
 Produce multiple copies of IABC intergrals
 Iteration Nr.   1
 **********************
 DD1Dir will call FoFMem   1 times, MxPair=       156
 NAB=    78 NAA=     0 NBB=     0.
 MP4(R+Q)=  0.24864697D-01
 E3=       -0.32625491D-01        EUMP3=      -0.13551830119D+04
 E4(DQ)=    0.31185229D-02        UMP4(DQ)=   -0.13551798934D+04
 E4(SDQ)=  -0.36781619D-02        UMP4(SDQ)=  -0.13551866901D+04
 DE(Corr)= -0.73204690     E(Corr)=     -1355.1581472    
 NORM(A)=   0.11379895D+01
 Iteration Nr.   2
 **********************
 DD1Dir will call FoFMem   1 times, MxPair=       156
 NAB=    78 NAA=     0 NBB=     0.
 DE(Corr)= -0.75632358     E(CORR)=     -1355.1824239     Delta=-2.43D-02
 NORM(A)=   0.11489662D+01
 Iteration Nr.   3
 **********************
 DD1Dir will call FoFMem   1 times, MxPair=       156
 NAB=    78 NAA=     0 NBB=     0.
 DE(Corr)= -0.75552293     E(CORR)=     -1355.1816232     Delta= 8.01D-04
 NORM(A)=   0.11516965D+01
 Iteration Nr.   4
 **********************
 DD1Dir will call FoFMem   1 times, MxPair=       156
 NAB=    78 NAA=     0 NBB=     0.
 DE(Corr)= -0.75777595     E(CORR)=     -1355.1838763     Delta=-2.25D-03
 NORM(A)=   0.11527688D+01
 Iteration Nr.   5
 **********************
 DD1Dir will call FoFMem   1 times, MxPair=       156
 NAB=    78 NAA=     0 NBB=     0.
 DE(Corr)= -0.75805261     E(CORR)=     -1355.1841529     Delta=-2.77D-04
 NORM(A)=   0.11533031D+01
 Iteration Nr.   6
 **********************
 DD1Dir will call FoFMem   1 times, MxPair=       156
 NAB=    78 NAA=     0 NBB=     0.
 DE(Corr)= -0.75810520     E(CORR)=     -1355.1842055     Delta=-5.26D-05
 NORM(A)=   0.11533655D+01
 Iteration Nr.   7
 **********************
 DD1Dir will call FoFMem   1 times, MxPair=       156
 NAB=    78 NAA=     0 NBB=     0.
 DE(Corr)= -0.75811239     E(CORR)=     -1355.1842127     Delta=-7.19D-06
 NORM(A)=   0.11533708D+01
 Iteration Nr.   8
 **********************
 DD1Dir will call FoFMem   1 times, MxPair=       156
 NAB=    78 NAA=     0 NBB=     0.
 DE(Corr)= -0.75811048     E(CORR)=     -1355.1842108     Delta= 1.91D-06
 NORM(A)=   0.11533773D+01
 Iteration Nr.   9
 **********************
 DD1Dir will call FoFMem   1 times, MxPair=       156
 NAB=    78 NAA=     0 NBB=     0.
 DE(Corr)= -0.75811055     E(CORR)=     -1355.1842109     Delta=-7.39D-08
 NORM(A)=   0.11533761D+01
 Iteration Nr.  10
 **********************
 DD1Dir will call FoFMem   1 times, MxPair=       156
 NAB=    78 NAA=     0 NBB=     0.
 DE(Corr)= -0.75811152     E(CORR)=     -1355.1842118     Delta=-9.72D-07
 NORM(A)=   0.11533779D+01
 Iteration Nr.  11
 **********************
 DD1Dir will call FoFMem   1 times, MxPair=       156
 NAB=    78 NAA=     0 NBB=     0.
 DE(Corr)= -0.75811221     E(CORR)=     -1355.1842125     Delta=-6.85D-07
 NORM(A)=   0.11533789D+01
 Iteration Nr.  12
 **********************
 DD1Dir will call FoFMem   1 times, MxPair=       156
 NAB=    78 NAA=     0 NBB=     0.
 DE(Corr)= -0.75811243     E(CORR)=     -1355.1842127     Delta=-2.22D-07
 NORM(A)=   0.11533796D+01
 Iteration Nr.  13
 **********************
 DD1Dir will call FoFMem   1 times, MxPair=       156
 NAB=    78 NAA=     0 NBB=     0.
 DE(Corr)= -0.75811271     E(CORR)=     -1355.1842130     Delta=-2.84D-07
 NORM(A)=   0.11533801D+01
 Iteration Nr.  14
 **********************
 DD1Dir will call FoFMem   1 times, MxPair=       156
 NAB=    78 NAA=     0 NBB=     0.
 DE(Corr)= -0.75811274     E(CORR)=     -1355.1842131     Delta=-2.86D-08
 NORM(A)=   0.11533803D+01
 Iteration Nr.  15
 **********************
 DD1Dir will call FoFMem   1 times, MxPair=       156
 NAB=    78 NAA=     0 NBB=     0.
 DE(Corr)= -0.75811280     E(CORR)=     -1355.1842131     Delta=-5.43D-08
 NORM(A)=   0.11533804D+01
 Iteration Nr.  16
 **********************
 DD1Dir will call FoFMem   1 times, MxPair=       156
 NAB=    78 NAA=     0 NBB=     0.
 DE(Corr)= -0.75811281     E(CORR)=     -1355.1842131     Delta=-1.22D-08
 NORM(A)=   0.11533804D+01
 Iteration Nr.  17
 **********************
 DD1Dir will call FoFMem   1 times, MxPair=       156
 NAB=    78 NAA=     0 NBB=     0.
 DE(Corr)= -0.75811281     E(CORR)=     -1355.1842131     Delta= 2.43D-10
 NORM(A)=   0.11533804D+01
 Wavefunction amplitudes converged. E(Corr)=     -1355.1842131    
 Largest amplitude= 8.90D-02

 Z-amplitude iterations

 Iteration Nr.   1
 **********************
 DD1Dir will call FoFMem   1 times, MxPair=       156
 NAB=    78 NAA=     0 NBB=     0.
 DE(Z)= -0.72630495     E(Z)=     -1355.1524053     Delta= 3.18D-02
 NORM(A)=   0.11534084D+01
 Iteration Nr.   2
 **********************
 DD1Dir will call FoFMem   1 times, MxPair=       156
 NAB=    78 NAA=     0 NBB=     0.
 DE(Z)= -0.72630570     E(Z)=     -1355.1524060     Delta=-7.44D-07
 NORM(A)=   0.11530179D+01
 Iteration Nr.   3
 **********************
 DD1Dir will call FoFMem   1 times, MxPair=       156
 NAB=    78 NAA=     0 NBB=     0.
 DE(Z)= -0.72629524     E(Z)=     -1355.1523956     Delta= 1.05D-05
 NORM(A)=   0.11534330D+01
 Iteration Nr.   4
 **********************
 DD1Dir will call FoFMem   1 times, MxPair=       156
 NAB=    78 NAA=     0 NBB=     0.
 DE(Z)= -0.72630642     E(Z)=     -1355.1524067     Delta=-1.12D-05
 NORM(A)=   0.11535360D+01
 Iteration Nr.   5
 **********************
 DD1Dir will call FoFMem   1 times, MxPair=       156
 NAB=    78 NAA=     0 NBB=     0.
 DE(Z)= -0.72630943     E(Z)=     -1355.1524097     Delta=-3.01D-06
 NORM(A)=   0.11401643D+01
 Iteration Nr.   6
 **********************
 DD1Dir will call FoFMem   1 times, MxPair=       156
 NAB=    78 NAA=     0 NBB=     0.
 DE(Z)= -0.72591882     E(Z)=     -1355.1520191     Delta= 3.91D-04
 NORM(A)=   0.11401642D+01
 Iteration Nr.   7
 **********************
 DD1Dir will call FoFMem   1 times, MxPair=       156
 NAB=    78 NAA=     0 NBB=     0.
 DE(Z)= -0.72591714     E(Z)=     -1355.1520175     Delta= 1.68D-06
 NORM(A)=   0.11401640D+01
 Iteration Nr.   8
 **********************
 DD1Dir will call FoFMem   1 times, MxPair=       156
 NAB=    78 NAA=     0 NBB=     0.
 DE(Z)= -0.72591759     E(Z)=     -1355.1520179     Delta=-4.44D-07
 NORM(A)=   0.11401644D+01
 Iteration Nr.   9
 **********************
 DD1Dir will call FoFMem   1 times, MxPair=       156
 NAB=    78 NAA=     0 NBB=     0.
 DE(Z)= -0.72591755     E(Z)=     -1355.1520179     Delta= 3.44D-08
 NORM(A)=   0.11401647D+01
 Iteration Nr.  10
 **********************
 DD1Dir will call FoFMem   1 times, MxPair=       156
 NAB=    78 NAA=     0 NBB=     0.
 DE(Z)= -0.72591739     E(Z)=     -1355.1520177     Delta= 1.61D-07
 NORM(A)=   0.11401651D+01
 Iteration Nr.  11
 **********************
 DD1Dir will call FoFMem   1 times, MxPair=       156
 NAB=    78 NAA=     0 NBB=     0.
 DE(Z)= -0.72591755     E(Z)=     -1355.1520179     Delta=-1.62D-07
 NORM(A)=   0.11401652D+01
 Iteration Nr.  12
 **********************
 DD1Dir will call FoFMem   1 times, MxPair=       156
 NAB=    78 NAA=     0 NBB=     0.
 DE(Z)= -0.72591751     E(Z)=     -1355.1520178     Delta= 4.05D-08
 NORM(A)=   0.11401652D+01
 Iteration Nr.  13
 **********************
 DD1Dir will call FoFMem   1 times, MxPair=       156
 NAB=    78 NAA=     0 NBB=     0.
 DE(Z)= -0.72591754     E(Z)=     -1355.1520179     Delta=-2.55D-08
 NORM(A)=   0.11401652D+01
 Iteration Nr.  14
 **********************
 DD1Dir will call FoFMem   1 times, MxPair=       156
 NAB=    78 NAA=     0 NBB=     0.
 DE(Z)= -0.72591753     E(Z)=     -1355.1520178     Delta= 7.57D-09
 NORM(A)=   0.11401651D+01
 Z-amplitudes converged.
 Discarding MO integrals.
          Differentiating once with respect to electric field.
                with respect to dipole field.
          Electric field/nuclear overlap derivatives assumed to be zero.
 Keep R1 ints in memory in canonical form, NReq=194502172.
          There are     1 degrees of freedom in the 1st order CPHF.  IDoFFX=0 NUNeed=     1.
 LinEq1:  Iter=  0 NonCon=     1 RMS=2.08D-03 Max=6.34D-02 NDo=     1
 AX will form     1 AO Fock derivatives at one time.
 LinEq1:  Iter=  1 NonCon=     1 RMS=9.26D-04 Max=1.75D-02 NDo=     1
 LinEq1:  Iter=  2 NonCon=     1 RMS=4.10D-04 Max=1.01D-02 NDo=     1
 LinEq1:  Iter=  3 NonCon=     1 RMS=1.03D-04 Max=1.79D-03 NDo=     1
 LinEq1:  Iter=  4 NonCon=     1 RMS=2.45D-05 Max=8.17D-04 NDo=     1
 LinEq1:  Iter=  5 NonCon=     1 RMS=8.05D-06 Max=2.00D-04 NDo=     1
 LinEq1:  Iter=  6 NonCon=     1 RMS=2.43D-06 Max=9.01D-05 NDo=     1
 LinEq1:  Iter=  7 NonCon=     1 RMS=7.34D-07 Max=1.31D-05 NDo=     1
 LinEq1:  Iter=  8 NonCon=     1 RMS=1.36D-07 Max=2.09D-06 NDo=     1
 LinEq1:  Iter=  9 NonCon=     1 RMS=2.56D-08 Max=3.69D-07 NDo=     1
 LinEq1:  Iter= 10 NonCon=     1 RMS=6.74D-09 Max=1.48D-07 NDo=     1
 LinEq1:  Iter= 11 NonCon=     1 RMS=1.39D-09 Max=1.98D-08 NDo=     1
 LinEq1:  Iter= 12 NonCon=     1 RMS=3.22D-10 Max=5.17D-09 NDo=     1
 LinEq1:  Iter= 13 NonCon=     0 RMS=7.23D-11 Max=8.52D-10 NDo=     1
 Linear equations converged to 1.000D-10 1.000D-09 after    13 iterations.
 End of Minotr F.D. properties file   721 does not exist.
 End of Minotr F.D. properties file   722 does not exist.
 End of Minotr F.D. properties file   788 does not exist.

 **********************************************************************

            Population analysis using the CC Density.

 **********************************************************************

 Alpha  occ. eigenvalues -- -104.88786-104.88758 -91.97743 -11.44893 -10.61197
 Alpha  occ. eigenvalues --  -10.61158  -8.98041  -8.07875  -8.07835  -8.07664
 Alpha  occ. eigenvalues --   -8.07646  -8.07625  -8.07607  -6.66120  -6.66019
 Alpha  occ. eigenvalues --   -6.65870  -1.24409  -1.13471  -1.03948  -0.77165
 Alpha  occ. eigenvalues --   -0.64554  -0.60879  -0.58674  -0.50396  -0.49615
 Alpha  occ. eigenvalues --   -0.47816  -0.40715  -0.38056
 Alpha virt. eigenvalues --    0.01776   0.04858   0.06338   0.06892   0.10079
 Alpha virt. eigenvalues --    0.10119   0.10379   0.11203   0.11749   0.12845
 Alpha virt. eigenvalues --    0.15158   0.15383   0.16262   0.16379   0.16484
 Alpha virt. eigenvalues --    0.21196   0.21813   0.23244   0.26535   0.27061
 Alpha virt. eigenvalues --    0.28120   0.28915   0.30199   0.34378   0.34861
 Alpha virt. eigenvalues --    0.37887   0.38934   0.39840   0.40271   0.42301
 Alpha virt. eigenvalues --    0.44397   0.45488   0.45587   0.46206   0.48107
 Alpha virt. eigenvalues --    0.48996   0.50290   0.50812   0.54043   0.55327
 Alpha virt. eigenvalues --    0.56236   0.65292   0.65615   0.65732   0.70942
 Alpha virt. eigenvalues --    0.72515   0.73127   0.73864   0.74102   0.78460
 Alpha virt. eigenvalues --    0.79063   0.80271   0.80316   0.81718   0.83139
 Alpha virt. eigenvalues --    0.83347   0.86698   0.87419   0.88434   0.88521
 Alpha virt. eigenvalues --    0.91098   0.92034   0.92599   0.94764   0.95563
 Alpha virt. eigenvalues --    0.95817   0.97657   1.02117   1.03149   1.07882
 Alpha virt. eigenvalues --    1.11158   1.11622   1.12015   1.12846   1.18028
 Alpha virt. eigenvalues --    1.18720   1.20938   1.22843   1.28877   1.29532
 Alpha virt. eigenvalues --    1.31335   1.36259   1.39566   1.40479   1.47725
 Alpha virt. eigenvalues --    1.48589   1.52292   1.52929   1.53909   1.55003
 Alpha virt. eigenvalues --    1.61710   1.66349   1.69034   1.71259   1.71448
 Alpha virt. eigenvalues --    1.75294   1.83405   1.83594   1.85203   1.87699
 Alpha virt. eigenvalues --    1.88099   1.90057   1.97868   2.07283   2.07894
 Alpha virt. eigenvalues --    2.14256   2.17572   2.32410   2.32888   2.39109
 Alpha virt. eigenvalues --    2.39434   2.43076   2.44682   2.47256   2.47893
 Alpha virt. eigenvalues --    2.48036   2.53134   2.58187   2.58553   2.59934
 Alpha virt. eigenvalues --    2.60148   2.62502   2.64078   2.65363   2.65448
 Alpha virt. eigenvalues --    2.69593   2.83426   2.84010   2.87444   2.89424
 Alpha virt. eigenvalues --    2.90899   3.02653   3.02773   3.04871   3.05492
 Alpha virt. eigenvalues --    3.05524   3.07594   3.09590   3.13287   3.13457
 Alpha virt. eigenvalues --    3.14175   3.14823   3.19640   3.21623   3.23207
 Alpha virt. eigenvalues --    3.23869   3.36077   3.47162   3.55120   3.64943
 Alpha virt. eigenvalues --    3.70622   3.70790   3.72778   3.76596   3.84773
 Alpha virt. eigenvalues --    3.89312   3.91274   3.97140   4.13547   4.14805
 Alpha virt. eigenvalues --    4.20680   4.24208   4.70335   4.77068   6.45386
 Alpha virt. eigenvalues --    7.21653   7.28394   9.78704
          Condensed to atoms (all electrons):
               1          2          3          4
     1  C    5.677794   0.070353   0.067915   0.180260
     2  Cl   0.070353  17.193661  -0.118847  -0.128784
     3  Cl   0.067915  -0.118847  17.193117  -0.130292
     4  S    0.180260  -0.128784  -0.130292  16.054218
 Mulliken charges:
               1
     1  C    0.003679
     2  Cl  -0.016383
     3  Cl  -0.011892
     4  S    0.024597
 Sum of Mulliken charges =  -0.00000
 Mulliken charges with hydrogens summed into heavy atoms:
               1
     1  C    0.003679
     2  Cl  -0.016383
     3  Cl  -0.011892
     4  S    0.024597
 Electronic spatial extent (au):  <R**2>=            688.8401
 Charge=              0.0000 electrons
 Dipole moment (field-independent basis, Debye):
    X=             -0.0000    Y=              0.0179    Z=             -0.4565  Tot=              0.4568
 Quadrupole moment (field-independent basis, Debye-Ang):
   XX=            -43.1444   YY=            -43.2603   ZZ=            -42.5505
   XY=             -0.0000   XZ=              0.0000   YZ=             -0.0107
 Traceless Quadrupole moment (field-independent basis, Debye-Ang):
   XX=             -0.1594   YY=             -0.2752   ZZ=              0.4346
   XY=             -0.0000   XZ=              0.0000   YZ=             -0.0107
 Octapole moment (field-independent basis, Debye-Ang**2):
  XXX=             -0.0000  YYY=              0.1053  ZZZ=             81.2734  XYY=             -0.0000
  XXY=              0.0224  XXZ=             26.9806  XZZ=             -0.0000  YZZ=              0.0105
  YYZ=             18.8314  XYZ=              0.0000
 Hexadecapole moment (field-independent basis, Debye-Ang**3):
 XXXX=            -50.8760 YYYY=           -340.1778 ZZZZ=           -475.6704 XXXY=             -0.0000
 XXXZ=              0.0000 YYYX=             -0.0000 YYYZ=             -0.6023 ZZZX=              0.0000
 ZZZY=             -0.4376 XXYY=            -69.1965 XXZZ=            -89.3651 YYZZ=           -127.0522
 XXYZ=             -0.2014 YYXZ=              0.0000 ZZXY=             -0.0000
 N-N= 2.451388818930D+02 E-N=-3.713853779885D+03  KE= 1.355046530978D+03
 There are a total of       89716 grid points.
 ElSum from          density=       56.0000000667
 ElSum from atomic densities=       56.0000006111

 Hirshfeld populations at iteration   1 (CX, CA, CB, DipXYZ):
               1          2          3          4          5          6
     1  C    0.000001   2.960008   2.960008   0.000000  -0.000378  -0.136989
     2  Cl   0.000016   8.504755   8.504755   0.000000  -0.061377  -0.019541
     3  Cl   0.000016   8.503713   8.503713   0.000000   0.062176  -0.019025
     4  S    0.000011   8.031525   8.031525  -0.000000   0.000991   0.156001
       Tot   0.000044  28.000000  28.000000   0.000000   0.001413  -0.019554

 Dip from Atomic Chgs              0.000000   0.005635  -0.160040
         Total Dipole              0.000000   0.007047  -0.179594

 Hirshfeld charges, spin densities, dipoles, and CM5 charges using IRadAn=      5:
              Q-H        S-H        Dx         Dy         Dz        Q-CM5   
     1  C    0.079985   0.000000   0.000000  -0.000378  -0.136989   0.098384
     2  Cl  -0.009510   0.000000   0.000000  -0.061377  -0.019541  -0.008035
     3  Cl  -0.007425   0.000000   0.000000   0.062176  -0.019025  -0.005921
     4  S   -0.063050   0.000000  -0.000000   0.000991   0.156001  -0.084428
       Tot  -0.000000   0.000000   0.000000   0.001413  -0.019554  -0.000000
 Hirshfeld charges with hydrogens summed into heavy atoms:
              Q-H       Q-CM5   
     1  C    0.079985   0.098384
     2  Cl  -0.009510  -0.008035
     3  Cl  -0.007425  -0.005921
     4  S   -0.063050  -0.084428
 
 EQQ= 0.000000000000E+00 EQD= 0.000000000000E+00 EDD=-0.671781290864E-03
 EQQ+QD+DD=-0.671781290864E-03
 
 Breneman (CHELPG) radii used.
 Generate Potential Derived Charges using the Breneman model, NDens= 1.
 Grid spacing= 0.300 Box extension= 2.800
 NStep X,Y,Z=   20     30     29   Total possible points=       17400
 Number of Points to Fit=    4404

 **********************************************************************

            Electrostatic Properties Using The CC Density.

 **********************************************************************

       Atomic Center    1 is at   0.000000  0.000000 -0.522914
       Atomic Center    2 is at   0.000000 -1.430735 -1.500900
       Atomic Center    3 is at   0.000000  1.430735 -1.490900
       Atomic Center    4 is at   0.000000  0.000000  1.081815
    4404 points will be used for fitting atomic charges
 Fitting point charges to electrostatic potential
 The dipole moment will be constrained to the correct value
 Charges from ESP fit, RMS=   0.00699 RRMS=   0.92390:
 ESP charges:
               1
     1  C    0.128929
     2  Cl  -0.022998
     3  Cl  -0.020392
     4  S   -0.085539
 Sum of ESP charges =   0.00000
 ESP charges with hydrogens summed into heavy atoms:
               1
     1  C    0.128929
     2  Cl  -0.022998
     3  Cl  -0.020392
     4  S   -0.085539
 Charge=   0.00000 Dipole=     0.0000     0.0179    -0.4565 Tot=     0.4568
 -----------------------------------------------------------------

              Electrostatic Properties (Atomic Units)

 -----------------------------------------------------------------
    Center     Electric         -------- Electric Field --------
               Potential          X             Y             Z
 -----------------------------------------------------------------
    1 Atom    -14.564966
    2 Atom    -64.377220
    3 Atom    -64.376888
    4 Atom    -59.210391
 -----------------------------------------------------------------
 ******************************Gaussian NBO Version 3.1******************************
             N A T U R A L   A T O M I C   O R B I T A L   A N D
          N A T U R A L   B O N D   O R B I T A L   A N A L Y S I S
 ******************************Gaussian NBO Version 3.1******************************
       /RESON  / : Allow strongly delocalized NBO set

 Analyzing the QCI/CC density

 Job title: cl2cs-wavefunction                                              

 Storage needed:    116194 in NPA (2147483536 available)
 GSVD:  LWork=        8166 too small for GESVD, short by       51245 words or       51245 for optimal perf.


 NATURAL POPULATIONS:  Natural atomic orbital occupancies 
                                                          
   NAO  Atom  No  lang   Type(AO)    Occupancy
 --------------------------------------------
     1    C    1  S      Cor( 1S)     1.99947
     2    C    1  S      Val( 2S)     1.16207
     3    C    1  S      Ryd( 3S)     0.00528
     4    C    1  S      Ryd( 4S)     0.00038
     5    C    1  S      Ryd( 5S)     0.00015
     6    C    1  px     Val( 2p)     1.02206
     7    C    1  px     Ryd( 3p)     0.00803
     8    C    1  px     Ryd( 4p)     0.00051
     9    C    1  px     Ryd( 5p)     0.00022
    10    C    1  py     Val( 2p)     0.95594
    11    C    1  py     Ryd( 3p)     0.02135
    12    C    1  py     Ryd( 5p)     0.00045
    13    C    1  py     Ryd( 4p)     0.00052
    14    C    1  pz     Val( 2p)     1.06903
    15    C    1  pz     Ryd( 3p)     0.02665
    16    C    1  pz     Ryd( 5p)     0.00036
    17    C    1  pz     Ryd( 4p)     0.00046
    18    C    1  dxy    Ryd( 3d)     0.01040
    19    C    1  dxy    Ryd( 4d)     0.00033
    20    C    1  dxy    Ryd( 5d)     0.00018
    21    C    1  dxz    Ryd( 3d)     0.01316
    22    C    1  dxz    Ryd( 4d)     0.00036
    23    C    1  dxz    Ryd( 5d)     0.00026
    24    C    1  dyz    Ryd( 3d)     0.01360
    25    C    1  dyz    Ryd( 4d)     0.00044
    26    C    1  dyz    Ryd( 5d)     0.00018
    27    C    1  dx2y2  Ryd( 3d)     0.00818
    28    C    1  dx2y2  Ryd( 4d)     0.00035
    29    C    1  dx2y2  Ryd( 5d)     0.00032
    30    C    1  dz2    Ryd( 3d)     0.01258
    31    C    1  dz2    Ryd( 4d)     0.00036
    32    C    1  dz2    Ryd( 5d)     0.00015
    33    C    1  f(0)   Ryd( 4f)     0.00479
    34    C    1  f(0)   Ryd( 5f)     0.00032
    35    C    1  f(C1)  Ryd( 4f)     0.00259
    36    C    1  f(C1)  Ryd( 5f)     0.00036
    37    C    1  f(S1)  Ryd( 4f)     0.00327
    38    C    1  f(S1)  Ryd( 5f)     0.00057
    39    C    1  f(C2)  Ryd( 4f)     0.00321
    40    C    1  f(C2)  Ryd( 5f)     0.00032
    41    C    1  f(S2)  Ryd( 4f)     0.00284
    42    C    1  f(S2)  Ryd( 5f)     0.00031
    43    C    1  f(C3)  Ryd( 4f)     0.00217
    44    C    1  f(C3)  Ryd( 5f)     0.00024
    45    C    1  f(S3)  Ryd( 4f)     0.00212
    46    C    1  f(S3)  Ryd( 5f)     0.00024

    47   Cl    2  S      Cor( 1S)     2.00000
    48   Cl    2  S      Cor( 2S)     1.99919
    49   Cl    2  S      Val( 3S)     1.81171
    50   Cl    2  S      Ryd( 4S)     0.00537
    51   Cl    2  S      Ryd( 5S)     0.00034
    52   Cl    2  S      Ryd( 6S)     0.00027
    53   Cl    2  px     Cor( 2p)     2.00002
    54   Cl    2  px     Val( 3p)     1.83752
    55   Cl    2  px     Ryd( 4p)     0.00886
    56   Cl    2  px     Ryd( 5p)     0.00052
    57   Cl    2  px     Ryd( 6p)     0.00010
    58   Cl    2  py     Cor( 2p)     1.99993
    59   Cl    2  py     Val( 3p)     1.43324
    60   Cl    2  py     Ryd( 4p)     0.00599
    61   Cl    2  py     Ryd( 5p)     0.00051
    62   Cl    2  py     Ryd( 6p)     0.00012
    63   Cl    2  pz     Cor( 2p)     1.99998
    64   Cl    2  pz     Val( 3p)     1.69508
    65   Cl    2  pz     Ryd( 4p)     0.00752
    66   Cl    2  pz     Ryd( 5p)     0.00050
    67   Cl    2  pz     Ryd( 6p)     0.00013
    68   Cl    2  dxy    Ryd( 3d)     0.01768
    69   Cl    2  dxy    Ryd( 4d)     0.00050
    70   Cl    2  dxy    Ryd( 5d)     0.00012
    71   Cl    2  dxz    Ryd( 3d)     0.01841
    72   Cl    2  dxz    Ryd( 4d)     0.00062
    73   Cl    2  dxz    Ryd( 5d)     0.00013
    74   Cl    2  dyz    Ryd( 3d)     0.02249
    75   Cl    2  dyz    Ryd( 4d)     0.00046
    76   Cl    2  dyz    Ryd( 5d)     0.00014
    77   Cl    2  dx2y2  Ryd( 3d)     0.01963
    78   Cl    2  dx2y2  Ryd( 4d)     0.00051
    79   Cl    2  dx2y2  Ryd( 5d)     0.00012
    80   Cl    2  dz2    Ryd( 3d)     0.01703
    81   Cl    2  dz2    Ryd( 4d)     0.00051
    82   Cl    2  dz2    Ryd( 5d)     0.00018
    83   Cl    2  f(0)   Ryd( 4f)     0.00131
    84   Cl    2  f(0)   Ryd( 5f)     0.00014
    85   Cl    2  f(C1)  Ryd( 4f)     0.00134
    86   Cl    2  f(C1)  Ryd( 5f)     0.00013
    87   Cl    2  f(S1)  Ryd( 4f)     0.00128
    88   Cl    2  f(S1)  Ryd( 5f)     0.00018
    89   Cl    2  f(C2)  Ryd( 4f)     0.00152
    90   Cl    2  f(C2)  Ryd( 5f)     0.00015
    91   Cl    2  f(S2)  Ryd( 4f)     0.00134
    92   Cl    2  f(S2)  Ryd( 5f)     0.00015
    93   Cl    2  f(C3)  Ryd( 4f)     0.00132
    94   Cl    2  f(C3)  Ryd( 5f)     0.00015
    95   Cl    2  f(S3)  Ryd( 4f)     0.00134
    96   Cl    2  f(S3)  Ryd( 5f)     0.00015

    97   Cl    3  S      Cor( 1S)     2.00000
    98   Cl    3  S      Cor( 2S)     1.99918
    99   Cl    3  S      Val( 3S)     1.80972
   100   Cl    3  S      Ryd( 4S)     0.00540
   101   Cl    3  S      Ryd( 5S)     0.00034
   102   Cl    3  S      Ryd( 6S)     0.00027
   103   Cl    3  px     Cor( 2p)     2.00002
   104   Cl    3  px     Val( 3p)     1.83576
   105   Cl    3  px     Ryd( 4p)     0.00887
   106   Cl    3  px     Ryd( 5p)     0.00052
   107   Cl    3  px     Ryd( 6p)     0.00010
   108   Cl    3  py     Cor( 2p)     1.99993
   109   Cl    3  py     Val( 3p)     1.42973
   110   Cl    3  py     Ryd( 4p)     0.00598
   111   Cl    3  py     Ryd( 5p)     0.00051
   112   Cl    3  py     Ryd( 6p)     0.00012
   113   Cl    3  pz     Cor( 2p)     1.99998
   114   Cl    3  pz     Val( 3p)     1.69882
   115   Cl    3  pz     Ryd( 4p)     0.00757
   116   Cl    3  pz     Ryd( 5p)     0.00051
   117   Cl    3  pz     Ryd( 6p)     0.00013
   118   Cl    3  dxy    Ryd( 3d)     0.01769
   119   Cl    3  dxy    Ryd( 4d)     0.00050
   120   Cl    3  dxy    Ryd( 5d)     0.00012
   121   Cl    3  dxz    Ryd( 3d)     0.01844
   122   Cl    3  dxz    Ryd( 4d)     0.00062
   123   Cl    3  dxz    Ryd( 5d)     0.00013
   124   Cl    3  dyz    Ryd( 3d)     0.02249
   125   Cl    3  dyz    Ryd( 4d)     0.00046
   126   Cl    3  dyz    Ryd( 5d)     0.00014
   127   Cl    3  dx2y2  Ryd( 3d)     0.01970
   128   Cl    3  dx2y2  Ryd( 4d)     0.00051
   129   Cl    3  dx2y2  Ryd( 5d)     0.00012
   130   Cl    3  dz2    Ryd( 3d)     0.01709
   131   Cl    3  dz2    Ryd( 4d)     0.00051
   132   Cl    3  dz2    Ryd( 5d)     0.00018
   133   Cl    3  f(0)   Ryd( 4f)     0.00131
   134   Cl    3  f(0)   Ryd( 5f)     0.00014
   135   Cl    3  f(C1)  Ryd( 4f)     0.00134
   136   Cl    3  f(C1)  Ryd( 5f)     0.00013
   137   Cl    3  f(S1)  Ryd( 4f)     0.00128
   138   Cl    3  f(S1)  Ryd( 5f)     0.00018
   139   Cl    3  f(C2)  Ryd( 4f)     0.00153
   140   Cl    3  f(C2)  Ryd( 5f)     0.00015
   141   Cl    3  f(S2)  Ryd( 4f)     0.00134
   142   Cl    3  f(S2)  Ryd( 5f)     0.00015
   143   Cl    3  f(C3)  Ryd( 4f)     0.00132
   144   Cl    3  f(C3)  Ryd( 5f)     0.00015
   145   Cl    3  f(S3)  Ryd( 4f)     0.00134
   146   Cl    3  f(S3)  Ryd( 5f)     0.00015

   147    S    4  S      Cor( 1S)     2.00000
   148    S    4  S      Cor( 2S)     1.99840
   149    S    4  S      Val( 3S)     1.70579
   150    S    4  S      Ryd( 4S)     0.00833
   151    S    4  S      Ryd( 5S)     0.00038
   152    S    4  S      Ryd( 6S)     0.00023
   153    S    4  px     Cor( 2p)     1.99989
   154    S    4  px     Val( 3p)     1.15906
   155    S    4  px     Ryd( 4p)     0.00481
   156    S    4  px     Ryd( 5p)     0.00032
   157    S    4  px     Ryd( 6p)     0.00011
   158    S    4  py     Cor( 2p)     2.00000
   159    S    4  py     Val( 3p)     1.78112
   160    S    4  py     Ryd( 4p)     0.01024
   161    S    4  py     Ryd( 5p)     0.00047
   162    S    4  py     Ryd( 6p)     0.00014
   163    S    4  pz     Cor( 2p)     1.99966
   164    S    4  pz     Val( 3p)     1.04372
   165    S    4  pz     Ryd( 4p)     0.00516
   166    S    4  pz     Ryd( 5p)     0.00046
   167    S    4  pz     Ryd( 6p)     0.00009
   168    S    4  dxy    Ryd( 3d)     0.01614
   169    S    4  dxy    Ryd( 4d)     0.00053
   170    S    4  dxy    Ryd( 5d)     0.00009
   171    S    4  dxz    Ryd( 3d)     0.01690
   172    S    4  dxz    Ryd( 4d)     0.00035
   173    S    4  dxz    Ryd( 5d)     0.00008
   174    S    4  dyz    Ryd( 3d)     0.01389
   175    S    4  dyz    Ryd( 4d)     0.00037
   176    S    4  dyz    Ryd( 5d)     0.00029
   177    S    4  dx2y2  Ryd( 3d)     0.01567
   178    S    4  dx2y2  Ryd( 4d)     0.00054
   179    S    4  dx2y2  Ryd( 5d)     0.00010
   180    S    4  dz2    Ryd( 3d)     0.02151
   181    S    4  dz2    Ryd( 4d)     0.00041
   182    S    4  dz2    Ryd( 5d)     0.00010
   183    S    4  f(0)   Ryd( 4f)     0.00121
   184    S    4  f(0)   Ryd( 5f)     0.00021
   185    S    4  f(C1)  Ryd( 4f)     0.00094
   186    S    4  f(C1)  Ryd( 5f)     0.00015
   187    S    4  f(S1)  Ryd( 4f)     0.00108
   188    S    4  f(S1)  Ryd( 5f)     0.00016
   189    S    4  f(C2)  Ryd( 4f)     0.00091
   190    S    4  f(C2)  Ryd( 5f)     0.00014
   191    S    4  f(S2)  Ryd( 4f)     0.00095
   192    S    4  f(S2)  Ryd( 5f)     0.00012
   193    S    4  f(C3)  Ryd( 4f)     0.00137
   194    S    4  f(C3)  Ryd( 5f)     0.00013
   195    S    4  f(S3)  Ryd( 4f)     0.00137
   196    S    4  f(S3)  Ryd( 5f)     0.00013

 WARNING:  1 low occupancy (<1.9990e) core orbital  found on  S    4


 Summary of Natural Population Analysis:                  
                                                          
                                       Natural Population 
                Natural  -----------------------------------------------
    Atom  No    Charge         Core      Valence    Rydberg      Total
 -----------------------------------------------------------------------
      C    1   -0.35714      1.99947     4.20909    0.14858     6.35714
     Cl    2    0.08405      9.99913     6.77755    0.13927    16.91595
     Cl    3    0.08732      9.99911     6.77403    0.13954    16.91268
      S    4    0.18577      9.99794     5.68969    0.12660    15.81423
 =======================================================================
   * Total *    0.00000     31.99564    23.45037    0.55399    56.00000

                                 Natural Population      
 --------------------------------------------------------
   Core                      31.99564 ( 99.9864% of  32)
   Valence                   23.45037 ( 97.7099% of  24)
   Natural Minimal Basis     55.44601 ( 99.0107% of  56)
   Natural Rydberg Basis      0.55399 (  0.9893% of  56)
 --------------------------------------------------------

    Atom  No          Natural Electron Configuration
 ----------------------------------------------------------------------------
      C    1      [core]2S( 1.16)2p( 3.05)3S( 0.01)3p( 0.06)3d( 0.06)4f( 0.02)
     Cl    2      [core]3S( 1.81)3p( 4.97)4S( 0.01)3d( 0.10)4p( 0.02)4f( 0.01)
     Cl    3      [core]3S( 1.81)3p( 4.96)4S( 0.01)3d( 0.10)4p( 0.02)4f( 0.01)
      S    4      [core]3S( 1.71)3p( 3.98)4S( 0.01)3d( 0.08)4p( 0.02)4f( 0.01)


 NBO analysis skipped by request.
 Unable to Open any file for archive entry.
 1\1\GINC-TRAPISTA\SP\RQCISD-FC\Aug-CC-pVTZ\C1Cl2S1\WAGNER\04-Sep-2022\
 0\\# qcisd/aug-cc-pvtz nosymm density=current pop=(chelpg,hirshfeld,np
 a,dipole)\\cl2cs-wavefunction\\0,1\C,0,0.,0.,-0.522914\Cl,0,0.,-1.4307
 35,-1.5009\Cl,0,0.,1.430735,-1.4909\S,0,0.,0.,1.081815\\Version=EM64L-
 G16RevC.01\HF=-1354.4261003\MP2=-1355.1503864\MP3=-1355.1830119\MP4D=-
 1355.2047581\MP4DQ=-1355.1798934\MP4SDQ=-1355.1866901\QCISD=-1355.1842
 131\RMSD=8.687e-09\Dipole=0.,0.0070471,-0.179594\Quadrupole=-0.118481,
 -0.2046073,0.3230882,0.,0.,-0.0079901\PG=CS [SG(C1Cl2S1)]\\@
 The archive entry for this job was punched.


 ... UNTIL SCIENCE IS MIXED WITH EMOTION AND APPEALS TO THE HEART AND
 IMAGINATION , IT IS LIKE DEAD INORGANIC MATTER; AND WHEN IT IS SO MIXED
 AND SO TRANSFORMED IT IS LITERATURE.

                                  -- JOHN BURROUGHS
 Job cpu time:       0 days  7 hours  9 minutes 57.6 seconds.
 Elapsed time:       0 days  0 hours 27 minutes 10.7 seconds.
 File lengths (MBytes):  RWF=  23427 Int=      0 D2E=      0 Chk=      4 Scr=      1
 Normal termination of Gaussian 16 at Sun Sep  4 14:41:52 2022.
