 Entering Gaussian System, Link 0=/home/wagner/chemistry/gaussian/g16/g16
 Input=GAUSSIAN.com
 Output=GAUSSIAN.log
 Initial command:
 /home/wagner/chemistry/gaussian/g16/l1.exe "/home/wagner/chemistry/gaussian/work/Gau-53647.inp" -scrdir="/home/wagner/chemistry/gaussian/work/"
 Entering Link 1 = /home/wagner/chemistry/gaussian/g16/l1.exe PID=     53649.
  
 Copyright (c) 1988-2019, Gaussian, Inc.  All Rights Reserved.
  
 This is part of the Gaussian(R) 16 program.  It is based on
 the Gaussian(R) 09 system (copyright 2009, Gaussian, Inc.),
 the Gaussian(R) 03 system (copyright 2003, Gaussian, Inc.),
 the Gaussian(R) 98 system (copyright 1998, Gaussian, Inc.),
 the Gaussian(R) 94 system (copyright 1995, Gaussian, Inc.),
 the Gaussian 92(TM) system (copyright 1992, Gaussian, Inc.),
 the Gaussian 90(TM) system (copyright 1990, Gaussian, Inc.),
 the Gaussian 88(TM) system (copyright 1988, Gaussian, Inc.),
 the Gaussian 86(TM) system (copyright 1986, Carnegie Mellon
 University), and the Gaussian 82(TM) system (copyright 1983,
 Carnegie Mellon University). Gaussian is a federally registered
 trademark of Gaussian, Inc.
  
 This software contains proprietary and confidential information,
 including trade secrets, belonging to Gaussian, Inc.
  
 This software is provided under written license and may be
 used, copied, transmitted, or stored only in accord with that
 written license.
  
 The following legend is applicable only to US Government
 contracts under FAR:
  
                    RESTRICTED RIGHTS LEGEND
  
 Use, reproduction and disclosure by the US Government is
 subject to restrictions as set forth in subparagraphs (a)
 and (c) of the Commercial Computer Software - Restricted
 Rights clause in FAR 52.227-19.
  
 Gaussian, Inc.
 340 Quinnipiac St., Bldg. 40, Wallingford CT 06492
  
  
 ---------------------------------------------------------------
 Warning -- This program may not be used in any manner that
 competes with the business of Gaussian, Inc. or will provide
 assistance to any competitor of Gaussian, Inc.  The licensee
 of this program is prohibited from giving any competitor of
 Gaussian, Inc. access to this program.  By using this program,
 the user acknowledges that Gaussian, Inc. is engaged in the
 business of creating and licensing software in the field of
 computational chemistry and represents and warrants to the
 licensee that it is not a competitor of Gaussian, Inc. and that
 it will not use this program in any manner prohibited above.
 ---------------------------------------------------------------
  

 Cite this work as:
 Gaussian 16, Revision C.01,
 M. J. Frisch, G. W. Trucks, H. B. Schlegel, G. E. Scuseria, 
 M. A. Robb, J. R. Cheeseman, G. Scalmani, V. Barone, 
 G. A. Petersson, H. Nakatsuji, X. Li, M. Caricato, A. V. Marenich, 
 J. Bloino, B. G. Janesko, R. Gomperts, B. Mennucci, H. P. Hratchian, 
 J. V. Ortiz, A. F. Izmaylov, J. L. Sonnenberg, D. Williams-Young, 
 F. Ding, F. Lipparini, F. Egidi, J. Goings, B. Peng, A. Petrone, 
 T. Henderson, D. Ranasinghe, V. G. Zakrzewski, J. Gao, N. Rega, 
 G. Zheng, W. Liang, M. Hada, M. Ehara, K. Toyota, R. Fukuda, 
 J. Hasegawa, M. Ishida, T. Nakajima, Y. Honda, O. Kitao, H. Nakai, 
 T. Vreven, K. Throssell, J. A. Montgomery, Jr., J. E. Peralta, 
 F. Ogliaro, M. J. Bearpark, J. J. Heyd, E. N. Brothers, K. N. Kudin, 
 V. N. Staroverov, T. A. Keith, R. Kobayashi, J. Normand, 
 K. Raghavachari, A. P. Rendell, J. C. Burant, S. S. Iyengar, 
 J. Tomasi, M. Cossi, J. M. Millam, M. Klene, C. Adamo, R. Cammi, 
 J. W. Ochterski, R. L. Martin, K. Morokuma, O. Farkas, 
 J. B. Foresman, and D. J. Fox, Gaussian, Inc., Wallingford CT, 2019.
 
 ******************************************
 Gaussian 16:  EM64L-G16RevC.01  3-Jul-2019
                 4-Sep-2022 
 ******************************************
 %nproc=16
 Will use up to   16 processors via shared memory.
 %mem=16GB
 ----------------------------------------------------------------------
 # qcisd/aug-cc-pvtz nosymm density=current pop=(chelpg,hirshfeld,npa,d
 ipole)
 ----------------------------------------------------------------------
 1/30=1,38=1,172=1/1;
 2/12=2,15=1,17=6,18=5,40=1/2;
 3/5=16,6=1,7=10,11=9,25=1,30=1,71=1/1,2,3;
 4//1;
 5/5=2,38=5/2;
 8/6=4,9=120000,10=1/1,4;
 9/5=8,15=1/13;
 11/28=-7,31=1,32=3,42=3/11;
 10/5=6,13=10,31=1/2;
 6/7=2,8=2,9=2,10=2,15=24,20=3,22=-1,40=-1,79=1/1,2,7;
 99/5=1,9=1/99;
 ------------------
 cl2cs-wavefunction
 ------------------
 Symbolic Z-matrix:
 Charge =  0 Multiplicity = 1
 C                     0.        0.       -0.52291 
 Cl                    0.       -1.43074  -1.5009 
 Cl                    0.        1.43074  -1.5009 
 S                     0.        0.        1.09181 
 
                          Input orientation:                          
 ---------------------------------------------------------------------
 Center     Atomic      Atomic             Coordinates (Angstroms)
 Number     Number       Type             X           Y           Z
 ---------------------------------------------------------------------
      1          6           0        0.000000    0.000000   -0.522914
      2         17           0        0.000000   -1.430735   -1.500900
      3         17           0        0.000000    1.430735   -1.500900
      4         16           0        0.000000    0.000000    1.091815
 ---------------------------------------------------------------------
                    Distance matrix (angstroms):
                    1          2          3          4
     1  C    0.000000
     2  Cl   1.733049   0.000000
     3  Cl   1.733049   2.861470   0.000000
     4  S    1.614729   2.961279   2.961279   0.000000
 Symmetry turned off by external request.
 Stoichiometry    CCl2S
 Framework group  C2V[C2(CS),SGV(Cl2)]
 Deg. of freedom     3
 Full point group                 C2V     NOp   4
 Rotational constants (GHZ):           3.5301033           3.4196840           1.7370082
 Standard basis: Aug-CC-pVTZ (5D, 7F)
   196 basis functions,   414 primitive gaussians,   232 cartesian basis functions
    28 alpha electrons       28 beta electrons
       nuclear repulsion energy       244.4088301284 Hartrees.
 NAtoms=    4 NActive=    4 NUniq=    4 SFac= 1.00D+00 NAtFMM=   60 NAOKFM=F Big=F
 Integral buffers will be    131072 words long.
 Raffenetti 1 integral format.
 Two-electron integral symmetry is turned off.
 One-electron integrals computed using PRISM.
 NBasis=   196 RedAO= T EigKep=  9.25D-05  NBF=   196
 NBsUse=   196 1.00D-06 EigRej= -1.00D+00 NBFU=   196
 ExpMin= 3.51D-02 ExpMax= 4.56D+05 ExpMxC= 1.44D+03 IAcc=3 IRadAn=         5 AccDes= 0.00D+00
 Harris functional with IExCor=  205 and IRadAn=       5 diagonalized for initial guess.
 HarFok:  IExCor=  205 AccDes= 0.00D+00 IRadAn=         5 IDoV= 1 UseB2=F ITyADJ=14
 ICtDFT=  3500011 ScaDFX=  1.000000  1.000000  1.000000  1.000000
 FoFCou: FMM=F IPFlag=           0 FMFlag=      100000 FMFlg1=           0
         NFxFlg=           0 DoJE=T BraDBF=F KetDBF=T FulRan=T
         wScrn=  0.000000 ICntrl=       500 IOpCl=  0 I1Cent=   200000004 NGrid=           0
         NMat0=    1 NMatS0=      1 NMatT0=    0 NMatD0=    1 NMtDS0=    0 NMtDT0=    0
 Symmetry not used in FoFCou.
 Keep R1 ints in memory in canonical form, NReq=194496421.
 Requested convergence on RMS density matrix=1.00D-08 within 128 cycles.
 Requested convergence on MAX density matrix=1.00D-06.
 Requested convergence on             energy=1.00D-06.
 No special actions if energy rises.
 SCF Done:  E(RHF) =  -1354.42561486     A.U. after   12 cycles
            NFock= 12  Conv=0.91D-08     -V/T= 2.0002
 ExpMin= 3.51D-02 ExpMax= 4.56D+05 ExpMxC= 1.44D+03 IAcc=3 IRadAn=         5 AccDes= 0.00D+00
 HarFok:  IExCor=  205 AccDes= 0.00D+00 IRadAn=         5 IDoV=-2 UseB2=F ITyADJ=14
 ICtDFT= 12500011 ScaDFX=  1.000000  1.000000  1.000000  1.000000
 Range of M.O.s used for correlation:    17   196
 NBasis=   196 NAE=    28 NBE=    28 NFC=    16 NFV=     0
 NROrb=    180 NOA=    12 NOB=    12 NVA=   168 NVB=   168

 **** Warning!!: The largest alpha MO coefficient is  0.31368773D+02

 Semi-Direct transformation.
 ModeAB=           2 MOrb=            12 LenV=    2146409033
 LASXX=     33405819 LTotXX=    33405819 LenRXX=    33405819
 LTotAB=    33954012 MaxLAS=    58380480 LenRXY=    58380480
 NonZer=    66811638 LenScr=   100987392 LnRSAI=           0
 LnScr1=           0 LExtra=           0 Total=    192773691
 MaxDsk=          -1 SrtSym=           F ITran=            4
 JobTyp=0 Pass  1:  I=   1 to  12.
 (rs|ai) integrals will be sorted in core.
 Spin components of T(2) and E(2):
     alpha-alpha T2 =       0.3962174698D-01 E2=     -0.9369033182D-01
     alpha-beta  T2 =       0.2078219343D+00 E2=     -0.5373525233D+00
     beta-beta   T2 =       0.3962174698D-01 E2=     -0.9369033182D-01
 ANorm=    0.1134489060D+01
 E2 =    -0.7247331869D+00 EUMP2 =    -0.13551503480435D+04
 Keep R2 and R3 ints in memory in canonical form, NReq=380875724.
 CIDS: In Core Option IDoMem=           1.
 Iterations=  50 Convergence= 0.100D-07
 Produce multiple copies of IABC intergrals
 Iteration Nr.   1
 **********************
 DD1Dir will call FoFMem   1 times, MxPair=       156
 NAB=    78 NAA=     0 NBB=     0.
 MP4(R+Q)=  0.24971253D-01
 E3=       -0.32468292D-01        EUMP3=      -0.13551828163D+04
 E4(DQ)=    0.30893347D-02        UMP4(DQ)=   -0.13551797270D+04
 E4(SDQ)=  -0.38384800D-02        UMP4(SDQ)=  -0.13551866548D+04
 DE(Corr)= -0.73223023     E(Corr)=     -1355.1578451    
 NORM(A)=   0.11383653D+01
 Iteration Nr.   2
 **********************
 DD1Dir will call FoFMem   1 times, MxPair=       156
 NAB=    78 NAA=     0 NBB=     0.
 DE(Corr)= -0.75676733     E(CORR)=     -1355.1823822     Delta=-2.45D-02
 NORM(A)=   0.11494548D+01
 Iteration Nr.   3
 **********************
 DD1Dir will call FoFMem   1 times, MxPair=       156
 NAB=    78 NAA=     0 NBB=     0.
 DE(Corr)= -0.75588889     E(CORR)=     -1355.1815037     Delta= 8.78D-04
 NORM(A)=   0.11522706D+01
 Iteration Nr.   4
 **********************
 DD1Dir will call FoFMem   1 times, MxPair=       156
 NAB=    78 NAA=     0 NBB=     0.
 DE(Corr)= -0.75819267     E(CORR)=     -1355.1838075     Delta=-2.30D-03
 NORM(A)=   0.11533881D+01
 Iteration Nr.   5
 **********************
 DD1Dir will call FoFMem   1 times, MxPair=       156
 NAB=    78 NAA=     0 NBB=     0.
 DE(Corr)= -0.75848006     E(CORR)=     -1355.1840949     Delta=-2.87D-04
 NORM(A)=   0.11539510D+01
 Iteration Nr.   6
 **********************
 DD1Dir will call FoFMem   1 times, MxPair=       156
 NAB=    78 NAA=     0 NBB=     0.
 DE(Corr)= -0.75853511     E(CORR)=     -1355.1841500     Delta=-5.50D-05
 NORM(A)=   0.11540192D+01
 Iteration Nr.   7
 **********************
 DD1Dir will call FoFMem   1 times, MxPair=       156
 NAB=    78 NAA=     0 NBB=     0.
 DE(Corr)= -0.75854280     E(CORR)=     -1355.1841577     Delta=-7.69D-06
 NORM(A)=   0.11540243D+01
 Iteration Nr.   8
 **********************
 DD1Dir will call FoFMem   1 times, MxPair=       156
 NAB=    78 NAA=     0 NBB=     0.
 DE(Corr)= -0.75854108     E(CORR)=     -1355.1841559     Delta= 1.72D-06
 NORM(A)=   0.11540313D+01
 Iteration Nr.   9
 **********************
 DD1Dir will call FoFMem   1 times, MxPair=       156
 NAB=    78 NAA=     0 NBB=     0.
 DE(Corr)= -0.75854086     E(CORR)=     -1355.1841557     Delta= 2.12D-07
 NORM(A)=   0.11540299D+01
 Iteration Nr.  10
 **********************
 DD1Dir will call FoFMem   1 times, MxPair=       156
 NAB=    78 NAA=     0 NBB=     0.
 DE(Corr)= -0.75854197     E(CORR)=     -1355.1841568     Delta=-1.11D-06
 NORM(A)=   0.11540318D+01
 Iteration Nr.  11
 **********************
 DD1Dir will call FoFMem   1 times, MxPair=       156
 NAB=    78 NAA=     0 NBB=     0.
 DE(Corr)= -0.75854263     E(CORR)=     -1355.1841575     Delta=-6.59D-07
 NORM(A)=   0.11540328D+01
 Iteration Nr.  12
 **********************
 DD1Dir will call FoFMem   1 times, MxPair=       156
 NAB=    78 NAA=     0 NBB=     0.
 DE(Corr)= -0.75854289     E(CORR)=     -1355.1841577     Delta=-2.59D-07
 NORM(A)=   0.11540336D+01
 Iteration Nr.  13
 **********************
 DD1Dir will call FoFMem   1 times, MxPair=       156
 NAB=    78 NAA=     0 NBB=     0.
 DE(Corr)= -0.75854318     E(CORR)=     -1355.1841580     Delta=-2.94D-07
 NORM(A)=   0.11540341D+01
 Iteration Nr.  14
 **********************
 DD1Dir will call FoFMem   1 times, MxPair=       156
 NAB=    78 NAA=     0 NBB=     0.
 DE(Corr)= -0.75854322     E(CORR)=     -1355.1841581     Delta=-3.23D-08
 NORM(A)=   0.11540343D+01
 Iteration Nr.  15
 **********************
 DD1Dir will call FoFMem   1 times, MxPair=       156
 NAB=    78 NAA=     0 NBB=     0.
 DE(Corr)= -0.75854328     E(CORR)=     -1355.1841581     Delta=-5.93D-08
 NORM(A)=   0.11540344D+01
 Iteration Nr.  16
 **********************
 DD1Dir will call FoFMem   1 times, MxPair=       156
 NAB=    78 NAA=     0 NBB=     0.
 DE(Corr)= -0.75854329     E(CORR)=     -1355.1841581     Delta=-1.24D-08
 NORM(A)=   0.11540345D+01
 Iteration Nr.  17
 **********************
 DD1Dir will call FoFMem   1 times, MxPair=       156
 NAB=    78 NAA=     0 NBB=     0.
 DE(Corr)= -0.75854329     E(CORR)=     -1355.1841581     Delta=-2.13D-10
 NORM(A)=   0.11540345D+01
 Wavefunction amplitudes converged. E(Corr)=     -1355.1841581    
 Largest amplitude= 9.10D-02

 Z-amplitude iterations

 Iteration Nr.   1
 **********************
 DD1Dir will call FoFMem   1 times, MxPair=       156
 NAB=    78 NAA=     0 NBB=     0.
 DE(Z)= -0.72654634     E(Z)=     -1355.1521612     Delta= 3.20D-02
 NORM(A)=   0.11540455D+01
 Iteration Nr.   2
 **********************
 DD1Dir will call FoFMem   1 times, MxPair=       156
 NAB=    78 NAA=     0 NBB=     0.
 DE(Z)= -0.72654662     E(Z)=     -1355.1521615     Delta=-2.76D-07
 NORM(A)=   0.11540398D+01
 Iteration Nr.   3
 **********************
 DD1Dir will call FoFMem   1 times, MxPair=       156
 NAB=    78 NAA=     0 NBB=     0.
 DE(Z)= -0.72654648     E(Z)=     -1355.1521613     Delta= 1.40D-07
 NORM(A)=   0.11540744D+01
 Iteration Nr.   4
 **********************
 DD1Dir will call FoFMem   1 times, MxPair=       156
 NAB=    78 NAA=     0 NBB=     0.
 DE(Z)= -0.72654740     E(Z)=     -1355.1521623     Delta=-9.15D-07
 NORM(A)=   0.11541768D+01
 Iteration Nr.   5
 **********************
 DD1Dir will call FoFMem   1 times, MxPair=       156
 NAB=    78 NAA=     0 NBB=     0.
 DE(Z)= -0.72655025     E(Z)=     -1355.1521651     Delta=-2.85D-06
 NORM(A)=   0.11406796D+01
 Iteration Nr.   6
 **********************
 DD1Dir will call FoFMem   1 times, MxPair=       156
 NAB=    78 NAA=     0 NBB=     0.
 DE(Z)= -0.72617575     E(Z)=     -1355.1517906     Delta= 3.74D-04
 NORM(A)=   0.11406768D+01
 Iteration Nr.   7
 **********************
 DD1Dir will call FoFMem   1 times, MxPair=       156
 NAB=    78 NAA=     0 NBB=     0.
 DE(Z)= -0.72617331     E(Z)=     -1355.1517882     Delta= 2.43D-06
 NORM(A)=   0.11406770D+01
 Iteration Nr.   8
 **********************
 DD1Dir will call FoFMem   1 times, MxPair=       156
 NAB=    78 NAA=     0 NBB=     0.
 DE(Z)= -0.72617396     E(Z)=     -1355.1517888     Delta=-6.46D-07
 NORM(A)=   0.11406777D+01
 Iteration Nr.   9
 **********************
 DD1Dir will call FoFMem   1 times, MxPair=       156
 NAB=    78 NAA=     0 NBB=     0.
 DE(Z)= -0.72617395     E(Z)=     -1355.1517888     Delta= 1.46D-08
 NORM(A)=   0.11406784D+01
 Iteration Nr.  10
 **********************
 DD1Dir will call FoFMem   1 times, MxPair=       156
 NAB=    78 NAA=     0 NBB=     0.
 DE(Z)= -0.72617386     E(Z)=     -1355.1517887     Delta= 8.53D-08
 NORM(A)=   0.11406787D+01
 Iteration Nr.  11
 **********************
 DD1Dir will call FoFMem   1 times, MxPair=       156
 NAB=    78 NAA=     0 NBB=     0.
 DE(Z)= -0.72617406     E(Z)=     -1355.1517889     Delta=-2.01D-07
 NORM(A)=   0.11406787D+01
 Iteration Nr.  12
 **********************
 DD1Dir will call FoFMem   1 times, MxPair=       156
 NAB=    78 NAA=     0 NBB=     0.
 DE(Z)= -0.72617399     E(Z)=     -1355.1517889     Delta= 6.78D-08
 NORM(A)=   0.11406787D+01
 Iteration Nr.  13
 **********************
 DD1Dir will call FoFMem   1 times, MxPair=       156
 NAB=    78 NAA=     0 NBB=     0.
 DE(Z)= -0.72617402     E(Z)=     -1355.1517889     Delta=-2.14D-08
 NORM(A)=   0.11406786D+01
 Iteration Nr.  14
 **********************
 DD1Dir will call FoFMem   1 times, MxPair=       156
 NAB=    78 NAA=     0 NBB=     0.
 DE(Z)= -0.72617400     E(Z)=     -1355.1517889     Delta= 1.52D-08
 NORM(A)=   0.11406786D+01
 Iteration Nr.  15
 **********************
 DD1Dir will call FoFMem   1 times, MxPair=       156
 NAB=    78 NAA=     0 NBB=     0.
 DE(Z)= -0.72617400     E(Z)=     -1355.1517889     Delta= 2.09D-11
 NORM(A)=   0.11406786D+01
 Z-amplitudes converged.
 Discarding MO integrals.
          Differentiating once with respect to electric field.
                with respect to dipole field.
          Electric field/nuclear overlap derivatives assumed to be zero.
 Keep R1 ints in memory in canonical form, NReq=194501940.
          There are     1 degrees of freedom in the 1st order CPHF.  IDoFFX=0 NUNeed=     1.
 LinEq1:  Iter=  0 NonCon=     1 RMS=2.09D-03 Max=6.37D-02 NDo=     1
 AX will form     1 AO Fock derivatives at one time.
 LinEq1:  Iter=  1 NonCon=     1 RMS=9.30D-04 Max=1.71D-02 NDo=     1
 LinEq1:  Iter=  2 NonCon=     1 RMS=4.17D-04 Max=1.04D-02 NDo=     1
 LinEq1:  Iter=  3 NonCon=     1 RMS=1.06D-04 Max=1.89D-03 NDo=     1
 LinEq1:  Iter=  4 NonCon=     1 RMS=2.64D-05 Max=9.47D-04 NDo=     1
 LinEq1:  Iter=  5 NonCon=     1 RMS=8.90D-06 Max=2.33D-04 NDo=     1
 LinEq1:  Iter=  6 NonCon=     1 RMS=2.64D-06 Max=9.35D-05 NDo=     1
 LinEq1:  Iter=  7 NonCon=     1 RMS=7.72D-07 Max=1.41D-05 NDo=     1
 LinEq1:  Iter=  8 NonCon=     1 RMS=1.42D-07 Max=2.24D-06 NDo=     1
 LinEq1:  Iter=  9 NonCon=     1 RMS=2.66D-08 Max=3.87D-07 NDo=     1
 LinEq1:  Iter= 10 NonCon=     1 RMS=7.15D-09 Max=1.89D-07 NDo=     1
 LinEq1:  Iter= 11 NonCon=     1 RMS=1.48D-09 Max=2.44D-08 NDo=     1
 LinEq1:  Iter= 12 NonCon=     1 RMS=3.40D-10 Max=5.86D-09 NDo=     1
 LinEq1:  Iter= 13 NonCon=     0 RMS=7.27D-11 Max=8.95D-10 NDo=     1
 Linear equations converged to 1.000D-10 1.000D-09 after    13 iterations.
 End of Minotr F.D. properties file   721 does not exist.
 End of Minotr F.D. properties file   722 does not exist.
 End of Minotr F.D. properties file   788 does not exist.

 **********************************************************************

            Population analysis using the CC Density.

 **********************************************************************

 Alpha  occ. eigenvalues -- -104.88846-104.88846 -91.97843 -11.45116 -10.61242
 Alpha  occ. eigenvalues --  -10.61241  -8.98092  -8.07918  -8.07918  -8.07708
 Alpha  occ. eigenvalues --   -8.07708  -8.07690  -8.07690  -6.66166  -6.66071
 Alpha  occ. eigenvalues --   -6.65922  -1.24278  -1.13449  -1.03691  -0.77234
 Alpha  occ. eigenvalues --   -0.64447  -0.60848  -0.58575  -0.50403  -0.49637
 Alpha  occ. eigenvalues --   -0.47823  -0.40619  -0.38076
 Alpha virt. eigenvalues --    0.01657   0.04850   0.06338   0.06883   0.10027
 Alpha virt. eigenvalues --    0.10118   0.10357   0.11200   0.11756   0.12844
 Alpha virt. eigenvalues --    0.15146   0.15346   0.16171   0.16372   0.16487
 Alpha virt. eigenvalues --    0.21172   0.21682   0.23235   0.26542   0.27062
 Alpha virt. eigenvalues --    0.28032   0.28889   0.30207   0.34355   0.34826
 Alpha virt. eigenvalues --    0.37880   0.38880   0.39839   0.40192   0.42141
 Alpha virt. eigenvalues --    0.44389   0.45514   0.45516   0.46220   0.48001
 Alpha virt. eigenvalues --    0.49035   0.50243   0.50798   0.53944   0.55276
 Alpha virt. eigenvalues --    0.56209   0.65311   0.65580   0.65769   0.71072
 Alpha virt. eigenvalues --    0.72517   0.73189   0.73846   0.74120   0.78455
 Alpha virt. eigenvalues --    0.79004   0.80177   0.80237   0.81673   0.83040
 Alpha virt. eigenvalues --    0.83328   0.86660   0.87321   0.88363   0.88567
 Alpha virt. eigenvalues --    0.91105   0.91914   0.92582   0.94624   0.95373
 Alpha virt. eigenvalues --    0.95825   0.97405   1.01944   1.03152   1.07509
 Alpha virt. eigenvalues --    1.10951   1.11474   1.11921   1.12757   1.17758
 Alpha virt. eigenvalues --    1.18734   1.20780   1.22762   1.28485   1.29462
 Alpha virt. eigenvalues --    1.31080   1.36127   1.39451   1.40437   1.47503
 Alpha virt. eigenvalues --    1.48594   1.52156   1.52540   1.53891   1.54770
 Alpha virt. eigenvalues --    1.61603   1.66100   1.68848   1.70939   1.71526
 Alpha virt. eigenvalues --    1.75393   1.83235   1.83351   1.85145   1.87204
 Alpha virt. eigenvalues --    1.87888   1.90033   1.98022   2.07349   2.07872
 Alpha virt. eigenvalues --    2.13966   2.17442   2.32528   2.32792   2.39165
 Alpha virt. eigenvalues --    2.39307   2.42899   2.44355   2.47023   2.47680
 Alpha virt. eigenvalues --    2.47845   2.52914   2.58129   2.58313   2.59788
 Alpha virt. eigenvalues --    2.59830   2.62146   2.64013   2.65080   2.65356
 Alpha virt. eigenvalues --    2.69449   2.83008   2.83610   2.87396   2.89159
 Alpha virt. eigenvalues --    2.90581   3.02632   3.02706   3.04763   3.04988
 Alpha virt. eigenvalues --    3.05316   3.07515   3.09523   3.12714   3.13311
 Alpha virt. eigenvalues --    3.13484   3.14761   3.19290   3.21199   3.23156
 Alpha virt. eigenvalues --    3.23691   3.35157   3.47138   3.55340   3.64654
 Alpha virt. eigenvalues --    3.70134   3.70560   3.72408   3.76248   3.84310
 Alpha virt. eigenvalues --    3.88706   3.90844   3.96799   4.13088   4.14163
 Alpha virt. eigenvalues --    4.19729   4.23022   4.69788   4.76561   6.41856
 Alpha virt. eigenvalues --    7.21249   7.26324   9.70173
          Condensed to atoms (all electrons):
               1          2          3          4
     1  C    5.675761   0.069311   0.069311   0.179845
     2  Cl   0.069311  17.189084  -0.118060  -0.126166
     3  Cl   0.069311  -0.118060  17.189084  -0.126166
     4  S    0.179845  -0.126166  -0.126166  16.049918
 Mulliken charges:
               1
     1  C    0.005772
     2  Cl  -0.014170
     3  Cl  -0.014170
     4  S    0.022568
 Sum of Mulliken charges =  -0.00000
 Mulliken charges with hydrogens summed into heavy atoms:
               1
     1  C    0.005772
     2  Cl  -0.014170
     3  Cl  -0.014170
     4  S    0.022568
 Electronic spatial extent (au):  <R**2>=            691.9100
 Charge=             -0.0000 electrons
 Dipole moment (field-independent basis, Debye):
    X=              0.0000    Y=             -0.0000    Z=             -0.4768  Tot=              0.4768
 Quadrupole moment (field-independent basis, Debye-Ang):
   XX=            -43.1856   YY=            -43.2759   ZZ=            -42.5094
   XY=              0.0000   XZ=              0.0000   YZ=              0.0000
 Traceless Quadrupole moment (field-independent basis, Debye-Ang):
   XX=             -0.1953   YY=             -0.2856   ZZ=              0.4809
   XY=              0.0000   XZ=              0.0000   YZ=              0.0000
 Octapole moment (field-independent basis, Debye-Ang**2):
  XXX=              0.0000  YYY=             -0.0000  ZZZ=             81.1866  XYY=             -0.0000
  XXY=             -0.0000  XXZ=             26.9542  XZZ=             -0.0000  YZZ=              0.0000
  YYZ=             18.7420  XYZ=             -0.0000
 Hexadecapole moment (field-independent basis, Debye-Ang**3):
 XXXX=            -50.9912 YYYY=           -340.3043 ZZZZ=           -478.9867 XXXY=              0.0000
 XXXZ=              0.0000 YYYX=             -0.0000 YYYZ=              0.0000 ZZZX=              0.0000
 ZZZY=             -0.0000 XXYY=            -69.2189 XXZZ=            -90.0314 YYZZ=           -127.5222
 XXYZ=              0.0000 YYXZ=              0.0000 ZZXY=              0.0000
 N-N= 2.444088301284D+02 E-N=-3.712348097858D+03  KE= 1.355006359936D+03
 There are a total of       89716 grid points.
 ElSum from          density=       56.0000002642
 ElSum from atomic densities=       56.0000008273

 Hirshfeld populations at iteration   1 (CX, CA, CB, DipXYZ):
               1          2          3          4          5          6
     1  C    0.000001   2.959207   2.959207   0.000000   0.000000  -0.136159
     2  Cl   0.000016   8.504189   8.504189  -0.000000  -0.062708  -0.021316
     3  Cl   0.000016   8.504189   8.504189  -0.000000   0.062708  -0.021316
     4  S    0.000011   8.032415   8.032415   0.000000   0.000000   0.158067
       Tot   0.000044  28.000000  28.000000  -0.000000  -0.000000  -0.020725

 Dip from Atomic Chgs              0.000000  -0.000000  -0.166855
         Total Dipole             -0.000000  -0.000000  -0.187580

 Hirshfeld charges, spin densities, dipoles, and CM5 charges using IRadAn=      5:
              Q-H        S-H        Dx         Dy         Dz        Q-CM5   
     1  C    0.081586   0.000000   0.000000   0.000000  -0.136159   0.099528
     2  Cl  -0.008378   0.000000  -0.000000  -0.062708  -0.021316  -0.006931
     3  Cl  -0.008378   0.000000  -0.000000   0.062708  -0.021316  -0.006931
     4  S   -0.064830   0.000000   0.000000   0.000000   0.158067  -0.085667
       Tot  -0.000000   0.000000  -0.000000  -0.000000  -0.020725  -0.000000
 Hirshfeld charges with hydrogens summed into heavy atoms:
              Q-H       Q-CM5   
     1  C    0.081586   0.099528
     2  Cl  -0.008378  -0.006931
     3  Cl  -0.008378  -0.006931
     4  S   -0.064830  -0.085667
 
 EQQ= 0.000000000000E+00 EQD= 0.000000000000E+00 EDD=-0.652712496626E-03
 EQQ+QD+DD=-0.652712496626E-03
 
 Breneman (CHELPG) radii used.
 Generate Potential Derived Charges using the Breneman model, NDens= 1.
 Grid spacing= 0.300 Box extension= 2.800
 NStep X,Y,Z=   20     30     29   Total possible points=       17400
 Number of Points to Fit=    4428

 **********************************************************************

            Electrostatic Properties Using The CC Density.

 **********************************************************************

       Atomic Center    1 is at   0.000000  0.000000 -0.522914
       Atomic Center    2 is at   0.000000 -1.430735 -1.500900
       Atomic Center    3 is at   0.000000  1.430735 -1.500900
       Atomic Center    4 is at   0.000000  0.000000  1.091815
    4428 points will be used for fitting atomic charges
 Fitting point charges to electrostatic potential
 The dipole moment will be constrained to the correct value
 Charges from ESP fit, RMS=   0.00700 RRMS=   0.92241:
 ESP charges:
               1
     1  C    0.123442
     2  Cl  -0.019297
     3  Cl  -0.019297
     4  S   -0.084848
 Sum of ESP charges =  -0.00000
 ESP charges with hydrogens summed into heavy atoms:
               1
     1  C    0.123442
     2  Cl  -0.019297
     3  Cl  -0.019297
     4  S   -0.084848
 Charge=  -0.00000 Dipole=     0.0000     0.0000    -0.4768 Tot=     0.4768
 -----------------------------------------------------------------

              Electrostatic Properties (Atomic Units)

 -----------------------------------------------------------------
    Center     Electric         -------- Electric Field --------
               Potential          X             Y             Z
 -----------------------------------------------------------------
    1 Atom    -14.563198
    2 Atom    -64.376540
    3 Atom    -64.376540
    4 Atom    -59.209299
 -----------------------------------------------------------------
 ******************************Gaussian NBO Version 3.1******************************
             N A T U R A L   A T O M I C   O R B I T A L   A N D
          N A T U R A L   B O N D   O R B I T A L   A N A L Y S I S
 ******************************Gaussian NBO Version 3.1******************************
       /RESON  / : Allow strongly delocalized NBO set

 Analyzing the QCI/CC density

 Job title: cl2cs-wavefunction                                              

 Storage needed:    116194 in NPA (2147483536 available)
 GSVD:  LWork=        8166 too small for GESVD, short by       51245 words or       51245 for optimal perf.


 NATURAL POPULATIONS:  Natural atomic orbital occupancies 
                                                          
   NAO  Atom  No  lang   Type(AO)    Occupancy
 --------------------------------------------
     1    C    1  S      Cor( 1S)     1.99949
     2    C    1  S      Val( 2S)     1.16620
     3    C    1  S      Ryd( 3S)     0.00524
     4    C    1  S      Ryd( 4S)     0.00038
     5    C    1  S      Ryd( 5S)     0.00015
     6    C    1  px     Val( 2p)     1.01831
     7    C    1  px     Ryd( 3p)     0.00805
     8    C    1  px     Ryd( 4p)     0.00051
     9    C    1  px     Ryd( 5p)     0.00022
    10    C    1  py     Val( 2p)     0.95262
    11    C    1  py     Ryd( 3p)     0.02138
    12    C    1  py     Ryd( 5p)     0.00045
    13    C    1  py     Ryd( 4p)     0.00052
    14    C    1  pz     Val( 2p)     1.06730
    15    C    1  pz     Ryd( 3p)     0.02644
    16    C    1  pz     Ryd( 5p)     0.00036
    17    C    1  pz     Ryd( 4p)     0.00046
    18    C    1  dxy    Ryd( 3d)     0.01030
    19    C    1  dxy    Ryd( 4d)     0.00033
    20    C    1  dxy    Ryd( 5d)     0.00018
    21    C    1  dxz    Ryd( 3d)     0.01307
    22    C    1  dxz    Ryd( 4d)     0.00036
    23    C    1  dxz    Ryd( 5d)     0.00026
    24    C    1  dyz    Ryd( 3d)     0.01358
    25    C    1  dyz    Ryd( 4d)     0.00044
    26    C    1  dyz    Ryd( 5d)     0.00018
    27    C    1  dx2y2  Ryd( 3d)     0.00813
    28    C    1  dx2y2  Ryd( 4d)     0.00035
    29    C    1  dx2y2  Ryd( 5d)     0.00032
    30    C    1  dz2    Ryd( 3d)     0.01243
    31    C    1  dz2    Ryd( 4d)     0.00035
    32    C    1  dz2    Ryd( 5d)     0.00015
    33    C    1  f(0)   Ryd( 4f)     0.00471
    34    C    1  f(0)   Ryd( 5f)     0.00032
    35    C    1  f(C1)  Ryd( 4f)     0.00260
    36    C    1  f(C1)  Ryd( 5f)     0.00035
    37    C    1  f(S1)  Ryd( 4f)     0.00325
    38    C    1  f(S1)  Ryd( 5f)     0.00056
    39    C    1  f(C2)  Ryd( 4f)     0.00318
    40    C    1  f(C2)  Ryd( 5f)     0.00032
    41    C    1  f(S2)  Ryd( 4f)     0.00282
    42    C    1  f(S2)  Ryd( 5f)     0.00031
    43    C    1  f(C3)  Ryd( 4f)     0.00214
    44    C    1  f(C3)  Ryd( 5f)     0.00024
    45    C    1  f(S3)  Ryd( 4f)     0.00209
    46    C    1  f(S3)  Ryd( 5f)     0.00024

    47   Cl    2  S      Cor( 1S)     2.00000
    48   Cl    2  S      Cor( 2S)     1.99918
    49   Cl    2  S      Val( 3S)     1.81138
    50   Cl    2  S      Ryd( 4S)     0.00539
    51   Cl    2  S      Ryd( 5S)     0.00034
    52   Cl    2  S      Ryd( 6S)     0.00027
    53   Cl    2  px     Cor( 2p)     2.00002
    54   Cl    2  px     Val( 3p)     1.83646
    55   Cl    2  px     Ryd( 4p)     0.00887
    56   Cl    2  px     Ryd( 5p)     0.00052
    57   Cl    2  px     Ryd( 6p)     0.00010
    58   Cl    2  py     Cor( 2p)     1.99993
    59   Cl    2  py     Val( 3p)     1.43386
    60   Cl    2  py     Ryd( 4p)     0.00600
    61   Cl    2  py     Ryd( 5p)     0.00051
    62   Cl    2  py     Ryd( 6p)     0.00012
    63   Cl    2  pz     Cor( 2p)     1.99998
    64   Cl    2  pz     Val( 3p)     1.69435
    65   Cl    2  pz     Ryd( 4p)     0.00753
    66   Cl    2  pz     Ryd( 5p)     0.00050
    67   Cl    2  pz     Ryd( 6p)     0.00013
    68   Cl    2  dxy    Ryd( 3d)     0.01771
    69   Cl    2  dxy    Ryd( 4d)     0.00050
    70   Cl    2  dxy    Ryd( 5d)     0.00012
    71   Cl    2  dxz    Ryd( 3d)     0.01841
    72   Cl    2  dxz    Ryd( 4d)     0.00062
    73   Cl    2  dxz    Ryd( 5d)     0.00013
    74   Cl    2  dyz    Ryd( 3d)     0.02254
    75   Cl    2  dyz    Ryd( 4d)     0.00046
    76   Cl    2  dyz    Ryd( 5d)     0.00014
    77   Cl    2  dx2y2  Ryd( 3d)     0.01966
    78   Cl    2  dx2y2  Ryd( 4d)     0.00051
    79   Cl    2  dx2y2  Ryd( 5d)     0.00012
    80   Cl    2  dz2    Ryd( 3d)     0.01704
    81   Cl    2  dz2    Ryd( 4d)     0.00050
    82   Cl    2  dz2    Ryd( 5d)     0.00018
    83   Cl    2  f(0)   Ryd( 4f)     0.00131
    84   Cl    2  f(0)   Ryd( 5f)     0.00014
    85   Cl    2  f(C1)  Ryd( 4f)     0.00134
    86   Cl    2  f(C1)  Ryd( 5f)     0.00013
    87   Cl    2  f(S1)  Ryd( 4f)     0.00129
    88   Cl    2  f(S1)  Ryd( 5f)     0.00018
    89   Cl    2  f(C2)  Ryd( 4f)     0.00152
    90   Cl    2  f(C2)  Ryd( 5f)     0.00015
    91   Cl    2  f(S2)  Ryd( 4f)     0.00134
    92   Cl    2  f(S2)  Ryd( 5f)     0.00015
    93   Cl    2  f(C3)  Ryd( 4f)     0.00132
    94   Cl    2  f(C3)  Ryd( 5f)     0.00014
    95   Cl    2  f(S3)  Ryd( 4f)     0.00134
    96   Cl    2  f(S3)  Ryd( 5f)     0.00015

    97   Cl    3  S      Cor( 1S)     2.00000
    98   Cl    3  S      Cor( 2S)     1.99918
    99   Cl    3  S      Val( 3S)     1.81138
   100   Cl    3  S      Ryd( 4S)     0.00539
   101   Cl    3  S      Ryd( 5S)     0.00034
   102   Cl    3  S      Ryd( 6S)     0.00027
   103   Cl    3  px     Cor( 2p)     2.00002
   104   Cl    3  px     Val( 3p)     1.83646
   105   Cl    3  px     Ryd( 4p)     0.00887
   106   Cl    3  px     Ryd( 5p)     0.00052
   107   Cl    3  px     Ryd( 6p)     0.00010
   108   Cl    3  py     Cor( 2p)     1.99993
   109   Cl    3  py     Val( 3p)     1.43386
   110   Cl    3  py     Ryd( 4p)     0.00600
   111   Cl    3  py     Ryd( 5p)     0.00051
   112   Cl    3  py     Ryd( 6p)     0.00012
   113   Cl    3  pz     Cor( 2p)     1.99998
   114   Cl    3  pz     Val( 3p)     1.69435
   115   Cl    3  pz     Ryd( 4p)     0.00753
   116   Cl    3  pz     Ryd( 5p)     0.00050
   117   Cl    3  pz     Ryd( 6p)     0.00013
   118   Cl    3  dxy    Ryd( 3d)     0.01771
   119   Cl    3  dxy    Ryd( 4d)     0.00050
   120   Cl    3  dxy    Ryd( 5d)     0.00012
   121   Cl    3  dxz    Ryd( 3d)     0.01841
   122   Cl    3  dxz    Ryd( 4d)     0.00062
   123   Cl    3  dxz    Ryd( 5d)     0.00013
   124   Cl    3  dyz    Ryd( 3d)     0.02254
   125   Cl    3  dyz    Ryd( 4d)     0.00046
   126   Cl    3  dyz    Ryd( 5d)     0.00014
   127   Cl    3  dx2y2  Ryd( 3d)     0.01966
   128   Cl    3  dx2y2  Ryd( 4d)     0.00051
   129   Cl    3  dx2y2  Ryd( 5d)     0.00012
   130   Cl    3  dz2    Ryd( 3d)     0.01704
   131   Cl    3  dz2    Ryd( 4d)     0.00050
   132   Cl    3  dz2    Ryd( 5d)     0.00018
   133   Cl    3  f(0)   Ryd( 4f)     0.00131
   134   Cl    3  f(0)   Ryd( 5f)     0.00014
   135   Cl    3  f(C1)  Ryd( 4f)     0.00134
   136   Cl    3  f(C1)  Ryd( 5f)     0.00013
   137   Cl    3  f(S1)  Ryd( 4f)     0.00129
   138   Cl    3  f(S1)  Ryd( 5f)     0.00018
   139   Cl    3  f(C2)  Ryd( 4f)     0.00152
   140   Cl    3  f(C2)  Ryd( 5f)     0.00015
   141   Cl    3  f(S2)  Ryd( 4f)     0.00134
   142   Cl    3  f(S2)  Ryd( 5f)     0.00015
   143   Cl    3  f(C3)  Ryd( 4f)     0.00132
   144   Cl    3  f(C3)  Ryd( 5f)     0.00014
   145   Cl    3  f(S3)  Ryd( 4f)     0.00134
   146   Cl    3  f(S3)  Ryd( 5f)     0.00015

   147    S    4  S      Cor( 1S)     2.00000
   148    S    4  S      Cor( 2S)     1.99842
   149    S    4  S      Val( 3S)     1.71024
   150    S    4  S      Ryd( 4S)     0.00818
   151    S    4  S      Ryd( 5S)     0.00038
   152    S    4  S      Ryd( 6S)     0.00023
   153    S    4  px     Cor( 2p)     1.99989
   154    S    4  px     Val( 3p)     1.16342
   155    S    4  px     Ryd( 4p)     0.00484
   156    S    4  px     Ryd( 5p)     0.00032
   157    S    4  px     Ryd( 6p)     0.00011
   158    S    4  py     Cor( 2p)     2.00000
   159    S    4  py     Val( 3p)     1.78318
   160    S    4  py     Ryd( 4p)     0.01020
   161    S    4  py     Ryd( 5p)     0.00047
   162    S    4  py     Ryd( 6p)     0.00014
   163    S    4  pz     Cor( 2p)     1.99967
   164    S    4  pz     Val( 3p)     1.03815
   165    S    4  pz     Ryd( 4p)     0.00516
   166    S    4  pz     Ryd( 5p)     0.00046
   167    S    4  pz     Ryd( 6p)     0.00009
   168    S    4  dxy    Ryd( 3d)     0.01615
   169    S    4  dxy    Ryd( 4d)     0.00053
   170    S    4  dxy    Ryd( 5d)     0.00009
   171    S    4  dxz    Ryd( 3d)     0.01677
   172    S    4  dxz    Ryd( 4d)     0.00035
   173    S    4  dxz    Ryd( 5d)     0.00008
   174    S    4  dyz    Ryd( 3d)     0.01388
   175    S    4  dyz    Ryd( 4d)     0.00037
   176    S    4  dyz    Ryd( 5d)     0.00028
   177    S    4  dx2y2  Ryd( 3d)     0.01569
   178    S    4  dx2y2  Ryd( 4d)     0.00055
   179    S    4  dx2y2  Ryd( 5d)     0.00010
   180    S    4  dz2    Ryd( 3d)     0.02143
   181    S    4  dz2    Ryd( 4d)     0.00040
   182    S    4  dz2    Ryd( 5d)     0.00010
   183    S    4  f(0)   Ryd( 4f)     0.00120
   184    S    4  f(0)   Ryd( 5f)     0.00021
   185    S    4  f(C1)  Ryd( 4f)     0.00094
   186    S    4  f(C1)  Ryd( 5f)     0.00015
   187    S    4  f(S1)  Ryd( 4f)     0.00108
   188    S    4  f(S1)  Ryd( 5f)     0.00016
   189    S    4  f(C2)  Ryd( 4f)     0.00091
   190    S    4  f(C2)  Ryd( 5f)     0.00014
   191    S    4  f(S2)  Ryd( 4f)     0.00095
   192    S    4  f(S2)  Ryd( 5f)     0.00012
   193    S    4  f(C3)  Ryd( 4f)     0.00137
   194    S    4  f(C3)  Ryd( 5f)     0.00012
   195    S    4  f(S3)  Ryd( 4f)     0.00137
   196    S    4  f(S3)  Ryd( 5f)     0.00013

 WARNING:  1 low occupancy (<1.9990e) core orbital  found on  S    4


 Summary of Natural Population Analysis:                  
                                                          
                                       Natural Population 
                Natural  -----------------------------------------------
    Atom  No    Charge         Core      Valence    Rydberg      Total
 -----------------------------------------------------------------------
      C    1   -0.35164      1.99949     4.20443    0.14773     6.35164
     Cl    2    0.08541      9.99912     6.77604    0.13943    16.91459
     Cl    3    0.08541      9.99912     6.77604    0.13943    16.91459
      S    4    0.18083      9.99798     5.69498    0.12621    15.81917
 =======================================================================
   * Total *    0.00000     31.99571    23.45149    0.55280    56.00000

                                 Natural Population      
 --------------------------------------------------------
   Core                      31.99571 ( 99.9866% of  32)
   Valence                   23.45149 ( 97.7146% of  24)
   Natural Minimal Basis     55.44720 ( 99.0129% of  56)
   Natural Rydberg Basis      0.55280 (  0.9871% of  56)
 --------------------------------------------------------

    Atom  No          Natural Electron Configuration
 ----------------------------------------------------------------------------
      C    1      [core]2S( 1.17)2p( 3.04)3S( 0.01)3p( 0.06)3d( 0.06)4f( 0.02)
     Cl    2      [core]3S( 1.81)3p( 4.96)4S( 0.01)3d( 0.10)4p( 0.02)4f( 0.01)
     Cl    3      [core]3S( 1.81)3p( 4.96)4S( 0.01)3d( 0.10)4p( 0.02)4f( 0.01)
      S    4      [core]3S( 1.71)3p( 3.98)4S( 0.01)3d( 0.08)4p( 0.02)4f( 0.01)


 NBO analysis skipped by request.
 Unable to Open any file for archive entry.
 1\1\GINC-TRAPISTA\SP\RQCISD-FC\Aug-CC-pVTZ\C1Cl2S1\WAGNER\04-Sep-2022\
 0\\# qcisd/aug-cc-pvtz nosymm density=current pop=(chelpg,hirshfeld,np
 a,dipole)\\cl2cs-wavefunction\\0,1\C,0,0.,0.,-0.522914\Cl,0,0.,-1.4307
 35,-1.5009\Cl,0,0.,1.430735,-1.5009\S,0,0.,0.,1.091815\\Version=EM64L-
 G16RevC.01\HF=-1354.4256149\MP2=-1355.150348\MP3=-1355.1828163\MP4D=-1
 355.2046983\MP4DQ=-1355.179727\MP4SDQ=-1355.1866548\QCISD=-1355.184158
 1\RMSD=9.050e-09\Dipole=0.,0.,-0.18758\Quadrupole=-0.1452229,-0.212342
 8,0.3575656,0.,0.,0.\PG=C02V [C2(C1S1),SGV(Cl2)]\\@
 The archive entry for this job was punched.


 NECESSARY EVIL: ONE WE LIKE TOO MUCH TO RELINQUISH.
 Job cpu time:       0 days  7 hours 10 minutes 48.3 seconds.
 Elapsed time:       0 days  0 hours 27 minutes 15.5 seconds.
 File lengths (MBytes):  RWF=  23427 Int=      0 D2E=      0 Chk=      4 Scr=      1
 Normal termination of Gaussian 16 at Sun Sep  4 17:28:08 2022.
