 Entering Gaussian System, Link 0=/home/wagner/chemistry/gaussian/g16/g16
 Input=GAUSSIAN.com
 Output=GAUSSIAN.log
 Initial command:
 /home/wagner/chemistry/gaussian/g16/l1.exe "/home/wagner/chemistry/gaussian/work/Gau-41817.inp" -scrdir="/home/wagner/chemistry/gaussian/work/"
 Entering Link 1 = /home/wagner/chemistry/gaussian/g16/l1.exe PID=     41819.
  
 Copyright (c) 1988-2019, Gaussian, Inc.  All Rights Reserved.
  
 This is part of the Gaussian(R) 16 program.  It is based on
 the Gaussian(R) 09 system (copyright 2009, Gaussian, Inc.),
 the Gaussian(R) 03 system (copyright 2003, Gaussian, Inc.),
 the Gaussian(R) 98 system (copyright 1998, Gaussian, Inc.),
 the Gaussian(R) 94 system (copyright 1995, Gaussian, Inc.),
 the Gaussian 92(TM) system (copyright 1992, Gaussian, Inc.),
 the Gaussian 90(TM) system (copyright 1990, Gaussian, Inc.),
 the Gaussian 88(TM) system (copyright 1988, Gaussian, Inc.),
 the Gaussian 86(TM) system (copyright 1986, Carnegie Mellon
 University), and the Gaussian 82(TM) system (copyright 1983,
 Carnegie Mellon University). Gaussian is a federally registered
 trademark of Gaussian, Inc.
  
 This software contains proprietary and confidential information,
 including trade secrets, belonging to Gaussian, Inc.
  
 This software is provided under written license and may be
 used, copied, transmitted, or stored only in accord with that
 written license.
  
 The following legend is applicable only to US Government
 contracts under FAR:
  
                    RESTRICTED RIGHTS LEGEND
  
 Use, reproduction and disclosure by the US Government is
 subject to restrictions as set forth in subparagraphs (a)
 and (c) of the Commercial Computer Software - Restricted
 Rights clause in FAR 52.227-19.
  
 Gaussian, Inc.
 340 Quinnipiac St., Bldg. 40, Wallingford CT 06492
  
  
 ---------------------------------------------------------------
 Warning -- This program may not be used in any manner that
 competes with the business of Gaussian, Inc. or will provide
 assistance to any competitor of Gaussian, Inc.  The licensee
 of this program is prohibited from giving any competitor of
 Gaussian, Inc. access to this program.  By using this program,
 the user acknowledges that Gaussian, Inc. is engaged in the
 business of creating and licensing software in the field of
 computational chemistry and represents and warrants to the
 licensee that it is not a competitor of Gaussian, Inc. and that
 it will not use this program in any manner prohibited above.
 ---------------------------------------------------------------
  

 Cite this work as:
 Gaussian 16, Revision C.01,
 M. J. Frisch, G. W. Trucks, H. B. Schlegel, G. E. Scuseria, 
 M. A. Robb, J. R. Cheeseman, G. Scalmani, V. Barone, 
 G. A. Petersson, H. Nakatsuji, X. Li, M. Caricato, A. V. Marenich, 
 J. Bloino, B. G. Janesko, R. Gomperts, B. Mennucci, H. P. Hratchian, 
 J. V. Ortiz, A. F. Izmaylov, J. L. Sonnenberg, D. Williams-Young, 
 F. Ding, F. Lipparini, F. Egidi, J. Goings, B. Peng, A. Petrone, 
 T. Henderson, D. Ranasinghe, V. G. Zakrzewski, J. Gao, N. Rega, 
 G. Zheng, W. Liang, M. Hada, M. Ehara, K. Toyota, R. Fukuda, 
 J. Hasegawa, M. Ishida, T. Nakajima, Y. Honda, O. Kitao, H. Nakai, 
 T. Vreven, K. Throssell, J. A. Montgomery, Jr., J. E. Peralta, 
 F. Ogliaro, M. J. Bearpark, J. J. Heyd, E. N. Brothers, K. N. Kudin, 
 V. N. Staroverov, T. A. Keith, R. Kobayashi, J. Normand, 
 K. Raghavachari, A. P. Rendell, J. C. Burant, S. S. Iyengar, 
 J. Tomasi, M. Cossi, J. M. Millam, M. Klene, C. Adamo, R. Cammi, 
 J. W. Ochterski, R. L. Martin, K. Morokuma, O. Farkas, 
 J. B. Foresman, and D. J. Fox, Gaussian, Inc., Wallingford CT, 2019.
 
 ******************************************
 Gaussian 16:  EM64L-G16RevC.01  3-Jul-2019
                 4-Sep-2022 
 ******************************************
 %nproc=16
 Will use up to   16 processors via shared memory.
 %mem=16GB
 ----------------------------------------------------------------------
 # qcisd/aug-cc-pvtz nosymm density=current pop=(chelpg,hirshfeld,npa,d
 ipole)
 ----------------------------------------------------------------------
 1/30=1,38=1,172=1/1;
 2/12=2,15=1,17=6,18=5,40=1/2;
 3/5=16,6=1,7=10,11=9,25=1,30=1,71=1/1,2,3;
 4//1;
 5/5=2,38=5/2;
 8/6=4,9=120000,10=1/1,4;
 9/5=8,15=1/13;
 11/28=-7,31=1,32=3,42=3/11;
 10/5=6,13=10,31=1/2;
 6/7=2,8=2,9=2,10=2,15=24,20=3,22=-1,40=-1,79=1/1,2,7;
 99/5=1,9=1/99;
 ------------------
 cl2cs-wavefunction
 ------------------
 Symbolic Z-matrix:
 Charge =  0 Multiplicity = 1
 C                     0.       -0.01     -0.52291 
 Cl                    0.       -1.43074  -1.5009 
 Cl                    0.        1.43074  -1.5009 
 S                     0.        0.        1.08181 
 
                          Input orientation:                          
 ---------------------------------------------------------------------
 Center     Atomic      Atomic             Coordinates (Angstroms)
 Number     Number       Type             X           Y           Z
 ---------------------------------------------------------------------
      1          6           0        0.000000   -0.010000   -0.522914
      2         17           0        0.000000   -1.430735   -1.500900
      3         17           0        0.000000    1.430735   -1.500900
      4         16           0        0.000000    0.000000    1.081815
 ---------------------------------------------------------------------
                    Distance matrix (angstroms):
                    1          2          3          4
     1  C    0.000000
     2  Cl   1.724803   0.000000
     3  Cl   1.741314   2.861470   0.000000
     4  S    1.604760   2.952528   2.952528   0.000000
 Symmetry turned off by external request.
 Stoichiometry    CCl2S
 Framework group  CS[SG(CCl2S)]
 Deg. of freedom     5
 Full point group                 CS      NOp   2
 Rotational constants (GHZ):           3.5300791           3.4458988           1.7437405
 Standard basis: Aug-CC-pVTZ (5D, 7F)
   196 basis functions,   414 primitive gaussians,   232 cartesian basis functions
    28 alpha electrons       28 beta electrons
       nuclear repulsion energy       244.8934922789 Hartrees.
 NAtoms=    4 NActive=    4 NUniq=    4 SFac= 1.00D+00 NAtFMM=   60 NAOKFM=F Big=F
 Integral buffers will be    131072 words long.
 Raffenetti 1 integral format.
 Two-electron integral symmetry is turned off.
 One-electron integrals computed using PRISM.
 NBasis=   196 RedAO= T EigKep=  9.10D-05  NBF=   196
 NBsUse=   196 1.00D-06 EigRej= -1.00D+00 NBFU=   196
 ExpMin= 3.51D-02 ExpMax= 4.56D+05 ExpMxC= 1.44D+03 IAcc=3 IRadAn=         5 AccDes= 0.00D+00
 Harris functional with IExCor=  205 and IRadAn=       5 diagonalized for initial guess.
 HarFok:  IExCor=  205 AccDes= 0.00D+00 IRadAn=         5 IDoV= 1 UseB2=F ITyADJ=14
 ICtDFT=  3500011 ScaDFX=  1.000000  1.000000  1.000000  1.000000
 FoFCou: FMM=F IPFlag=           0 FMFlag=      100000 FMFlg1=           0
         NFxFlg=           0 DoJE=T BraDBF=F KetDBF=T FulRan=T
         wScrn=  0.000000 ICntrl=       500 IOpCl=  0 I1Cent=   200000004 NGrid=           0
         NMat0=    1 NMatS0=      1 NMatT0=    0 NMatD0=    1 NMtDS0=    0 NMtDT0=    0
 Symmetry not used in FoFCou.
 Keep R1 ints in memory in canonical form, NReq=194496592.
 Requested convergence on RMS density matrix=1.00D-08 within 128 cycles.
 Requested convergence on MAX density matrix=1.00D-06.
 Requested convergence on             energy=1.00D-06.
 No special actions if energy rises.
 SCF Done:  E(RHF) =  -1354.42596986     A.U. after   13 cycles
            NFock= 13  Conv=0.45D-08     -V/T= 2.0001
 ExpMin= 3.51D-02 ExpMax= 4.56D+05 ExpMxC= 1.44D+03 IAcc=3 IRadAn=         5 AccDes= 0.00D+00
 HarFok:  IExCor=  205 AccDes= 0.00D+00 IRadAn=         5 IDoV=-2 UseB2=F ITyADJ=14
 ICtDFT= 12500011 ScaDFX=  1.000000  1.000000  1.000000  1.000000
 Range of M.O.s used for correlation:    17   196
 NBasis=   196 NAE=    28 NBE=    28 NFC=    16 NFV=     0
 NROrb=    180 NOA=    12 NOB=    12 NVA=   168 NVB=   168

 **** Warning!!: The largest alpha MO coefficient is  0.31019607D+02

 Semi-Direct transformation.
 ModeAB=           2 MOrb=            12 LenV=    2146408879
 LASXX=     33405819 LTotXX=    33405819 LenRXX=    33405819
 LTotAB=    33954012 MaxLAS=    58380480 LenRXY=    58380480
 NonZer=    66811638 LenScr=   100987392 LnRSAI=           0
 LnScr1=           0 LExtra=           0 Total=    192773691
 MaxDsk=          -1 SrtSym=           F ITran=            4
 JobTyp=0 Pass  1:  I=   1 to  12.
 (rs|ai) integrals will be sorted in core.
 Spin components of T(2) and E(2):
     alpha-alpha T2 =       0.3953116718D-01 E2=     -0.9366557879D-01
     alpha-beta  T2 =       0.2072524062D+00 E2=     -0.5370521135D+00
     beta-beta   T2 =       0.3953116718D-01 E2=     -0.9366557879D-01
 ANorm=    0.1134158164D+01
 E2 =    -0.7243832711D+00 EUMP2 =    -0.13551503531283D+04
 Keep R2 and R3 ints in memory in canonical form, NReq=380875895.
 CIDS: In Core Option IDoMem=           1.
 Iterations=  50 Convergence= 0.100D-07
 Produce multiple copies of IABC intergrals
 Iteration Nr.   1
 **********************
 DD1Dir will call FoFMem   1 times, MxPair=       156
 NAB=    78 NAA=     0 NBB=     0.
 MP4(R+Q)=  0.24887792D-01
 E3=       -0.32596978D-01        EUMP3=      -0.13551829501D+04
 E4(DQ)=    0.31072744D-02        UMP4(DQ)=   -0.13551798428D+04
 E4(SDQ)=  -0.37166794D-02        UMP4(SDQ)=  -0.13551866668D+04
 DE(Corr)= -0.73209246     E(Corr)=     -1355.1580623    
 NORM(A)=   0.11380839D+01
 Iteration Nr.   2
 **********************
 DD1Dir will call FoFMem   1 times, MxPair=       156
 NAB=    78 NAA=     0 NBB=     0.
 DE(Corr)= -0.75642630     E(CORR)=     -1355.1823962     Delta=-2.43D-02
 NORM(A)=   0.11490832D+01
 Iteration Nr.   3
 **********************
 DD1Dir will call FoFMem   1 times, MxPair=       156
 NAB=    78 NAA=     0 NBB=     0.
 DE(Corr)= -0.75560892     E(CORR)=     -1355.1815788     Delta= 8.17D-04
 NORM(A)=   0.11518269D+01
 Iteration Nr.   4
 **********************
 DD1Dir will call FoFMem   1 times, MxPair=       156
 NAB=    78 NAA=     0 NBB=     0.
 DE(Corr)= -0.75787200     E(CORR)=     -1355.1838419     Delta=-2.26D-03
 NORM(A)=   0.11529043D+01
 Iteration Nr.   5
 **********************
 DD1Dir will call FoFMem   1 times, MxPair=       156
 NAB=    78 NAA=     0 NBB=     0.
 DE(Corr)= -0.75815020     E(CORR)=     -1355.1841201     Delta=-2.78D-04
 NORM(A)=   0.11534419D+01
 Iteration Nr.   6
 **********************
 DD1Dir will call FoFMem   1 times, MxPair=       156
 NAB=    78 NAA=     0 NBB=     0.
 DE(Corr)= -0.75820314     E(CORR)=     -1355.1841730     Delta=-5.29D-05
 NORM(A)=   0.11535050D+01
 Iteration Nr.   7
 **********************
 DD1Dir will call FoFMem   1 times, MxPair=       156
 NAB=    78 NAA=     0 NBB=     0.
 DE(Corr)= -0.75821042     E(CORR)=     -1355.1841803     Delta=-7.27D-06
 NORM(A)=   0.11535105D+01
 Iteration Nr.   8
 **********************
 DD1Dir will call FoFMem   1 times, MxPair=       156
 NAB=    78 NAA=     0 NBB=     0.
 DE(Corr)= -0.75820852     E(CORR)=     -1355.1841784     Delta= 1.90D-06
 NORM(A)=   0.11535170D+01
 Iteration Nr.   9
 **********************
 DD1Dir will call FoFMem   1 times, MxPair=       156
 NAB=    78 NAA=     0 NBB=     0.
 DE(Corr)= -0.75820858     E(CORR)=     -1355.1841784     Delta=-6.36D-08
 NORM(A)=   0.11535159D+01
 Iteration Nr.  10
 **********************
 DD1Dir will call FoFMem   1 times, MxPair=       156
 NAB=    78 NAA=     0 NBB=     0.
 DE(Corr)= -0.75820956     E(CORR)=     -1355.1841794     Delta=-9.81D-07
 NORM(A)=   0.11535177D+01
 Iteration Nr.  11
 **********************
 DD1Dir will call FoFMem   1 times, MxPair=       156
 NAB=    78 NAA=     0 NBB=     0.
 DE(Corr)= -0.75821026     E(CORR)=     -1355.1841801     Delta=-6.97D-07
 NORM(A)=   0.11535187D+01
 Iteration Nr.  12
 **********************
 DD1Dir will call FoFMem   1 times, MxPair=       156
 NAB=    78 NAA=     0 NBB=     0.
 DE(Corr)= -0.75821048     E(CORR)=     -1355.1841803     Delta=-2.24D-07
 NORM(A)=   0.11535195D+01
 Iteration Nr.  13
 **********************
 DD1Dir will call FoFMem   1 times, MxPair=       156
 NAB=    78 NAA=     0 NBB=     0.
 DE(Corr)= -0.75821078     E(CORR)=     -1355.1841806     Delta=-2.94D-07
 NORM(A)=   0.11535200D+01
 Iteration Nr.  14
 **********************
 DD1Dir will call FoFMem   1 times, MxPair=       156
 NAB=    78 NAA=     0 NBB=     0.
 DE(Corr)= -0.75821080     E(CORR)=     -1355.1841807     Delta=-2.77D-08
 NORM(A)=   0.11535202D+01
 Iteration Nr.  15
 **********************
 DD1Dir will call FoFMem   1 times, MxPair=       156
 NAB=    78 NAA=     0 NBB=     0.
 DE(Corr)= -0.75821086     E(CORR)=     -1355.1841807     Delta=-5.64D-08
 NORM(A)=   0.11535203D+01
 Iteration Nr.  16
 **********************
 DD1Dir will call FoFMem   1 times, MxPair=       156
 NAB=    78 NAA=     0 NBB=     0.
 DE(Corr)= -0.75821087     E(CORR)=     -1355.1841807     Delta=-1.19D-08
 NORM(A)=   0.11535203D+01
 Iteration Nr.  17
 **********************
 DD1Dir will call FoFMem   1 times, MxPair=       156
 NAB=    78 NAA=     0 NBB=     0.
 DE(Corr)= -0.75821087     E(CORR)=     -1355.1841807     Delta= 1.21D-09
 NORM(A)=   0.11535203D+01
 Wavefunction amplitudes converged. E(Corr)=     -1355.1841807    
 Largest amplitude= 8.91D-02

 Z-amplitude iterations

 Iteration Nr.   1
 **********************
 DD1Dir will call FoFMem   1 times, MxPair=       156
 NAB=    78 NAA=     0 NBB=     0.
 DE(Z)= -0.72636474     E(Z)=     -1355.1523346     Delta= 3.18D-02
 NORM(A)=   0.11535359D+01
 Iteration Nr.   2
 **********************
 DD1Dir will call FoFMem   1 times, MxPair=       156
 NAB=    78 NAA=     0 NBB=     0.
 DE(Z)= -0.72636515     E(Z)=     -1355.1523350     Delta=-4.13D-07
 NORM(A)=   0.11534527D+01
 Iteration Nr.   3
 **********************
 DD1Dir will call FoFMem   1 times, MxPair=       156
 NAB=    78 NAA=     0 NBB=     0.
 DE(Z)= -0.72636293     E(Z)=     -1355.1523328     Delta= 2.22D-06
 NORM(A)=   0.11535487D+01
 Iteration Nr.   4
 **********************
 DD1Dir will call FoFMem   1 times, MxPair=       156
 NAB=    78 NAA=     0 NBB=     0.
 DE(Z)= -0.72636552     E(Z)=     -1355.1523354     Delta=-2.59D-06
 NORM(A)=   0.11535874D+01
 Iteration Nr.   5
 **********************
 DD1Dir will call FoFMem   1 times, MxPair=       156
 NAB=    78 NAA=     0 NBB=     0.
 DE(Z)= -0.72636666     E(Z)=     -1355.1523365     Delta=-1.14D-06
 NORM(A)=   0.11402811D+01
 Iteration Nr.   6
 **********************
 DD1Dir will call FoFMem   1 times, MxPair=       156
 NAB=    78 NAA=     0 NBB=     0.
 DE(Z)= -0.72597930     E(Z)=     -1355.1519492     Delta= 3.87D-04
 NORM(A)=   0.11402801D+01
 Iteration Nr.   7
 **********************
 DD1Dir will call FoFMem   1 times, MxPair=       156
 NAB=    78 NAA=     0 NBB=     0.
 DE(Z)= -0.72597803     E(Z)=     -1355.1519479     Delta= 1.27D-06
 NORM(A)=   0.11402800D+01
 Iteration Nr.   8
 **********************
 DD1Dir will call FoFMem   1 times, MxPair=       156
 NAB=    78 NAA=     0 NBB=     0.
 DE(Z)= -0.72597843     E(Z)=     -1355.1519483     Delta=-4.00D-07
 NORM(A)=   0.11402804D+01
 Iteration Nr.   9
 **********************
 DD1Dir will call FoFMem   1 times, MxPair=       156
 NAB=    78 NAA=     0 NBB=     0.
 DE(Z)= -0.72597835     E(Z)=     -1355.1519482     Delta= 8.39D-08
 NORM(A)=   0.11402810D+01
 Iteration Nr.  10
 **********************
 DD1Dir will call FoFMem   1 times, MxPair=       156
 NAB=    78 NAA=     0 NBB=     0.
 DE(Z)= -0.72597823     E(Z)=     -1355.1519481     Delta= 1.16D-07
 NORM(A)=   0.11402812D+01
 Iteration Nr.  11
 **********************
 DD1Dir will call FoFMem   1 times, MxPair=       156
 NAB=    78 NAA=     0 NBB=     0.
 DE(Z)= -0.72597841     E(Z)=     -1355.1519483     Delta=-1.80D-07
 NORM(A)=   0.11402813D+01
 Iteration Nr.  12
 **********************
 DD1Dir will call FoFMem   1 times, MxPair=       156
 NAB=    78 NAA=     0 NBB=     0.
 DE(Z)= -0.72597836     E(Z)=     -1355.1519482     Delta= 5.43D-08
 NORM(A)=   0.11402813D+01
 Iteration Nr.  13
 **********************
 DD1Dir will call FoFMem   1 times, MxPair=       156
 NAB=    78 NAA=     0 NBB=     0.
 DE(Z)= -0.72597838     E(Z)=     -1355.1519482     Delta=-2.32D-08
 NORM(A)=   0.11402813D+01
 Iteration Nr.  14
 **********************
 DD1Dir will call FoFMem   1 times, MxPair=       156
 NAB=    78 NAA=     0 NBB=     0.
 DE(Z)= -0.72597837     E(Z)=     -1355.1519482     Delta= 6.93D-09
 NORM(A)=   0.11402813D+01
 Z-amplitudes converged.
 Discarding MO integrals.
          Differentiating once with respect to electric field.
                with respect to dipole field.
          Electric field/nuclear overlap derivatives assumed to be zero.
 Keep R1 ints in memory in canonical form, NReq=194502056.
          There are     1 degrees of freedom in the 1st order CPHF.  IDoFFX=0 NUNeed=     1.
 LinEq1:  Iter=  0 NonCon=     1 RMS=2.08D-03 Max=6.34D-02 NDo=     1
 AX will form     1 AO Fock derivatives at one time.
 LinEq1:  Iter=  1 NonCon=     1 RMS=9.28D-04 Max=1.77D-02 NDo=     1
 LinEq1:  Iter=  2 NonCon=     1 RMS=4.11D-04 Max=1.02D-02 NDo=     1
 LinEq1:  Iter=  3 NonCon=     1 RMS=1.04D-04 Max=1.79D-03 NDo=     1
 LinEq1:  Iter=  4 NonCon=     1 RMS=2.44D-05 Max=8.02D-04 NDo=     1
 LinEq1:  Iter=  5 NonCon=     1 RMS=7.99D-06 Max=1.96D-04 NDo=     1
 LinEq1:  Iter=  6 NonCon=     1 RMS=2.41D-06 Max=8.98D-05 NDo=     1
 LinEq1:  Iter=  7 NonCon=     1 RMS=7.34D-07 Max=1.30D-05 NDo=     1
 LinEq1:  Iter=  8 NonCon=     1 RMS=1.36D-07 Max=2.07D-06 NDo=     1
 LinEq1:  Iter=  9 NonCon=     1 RMS=2.59D-08 Max=3.74D-07 NDo=     1
 LinEq1:  Iter= 10 NonCon=     1 RMS=6.92D-09 Max=1.57D-07 NDo=     1
 LinEq1:  Iter= 11 NonCon=     1 RMS=1.46D-09 Max=2.27D-08 NDo=     1
 LinEq1:  Iter= 12 NonCon=     1 RMS=3.58D-10 Max=5.35D-09 NDo=     1
 LinEq1:  Iter= 13 NonCon=     1 RMS=9.11D-11 Max=1.05D-09 NDo=     1
 LinEq1:  Iter= 14 NonCon=     0 RMS=2.11D-11 Max=3.25D-10 NDo=     1
 Linear equations converged to 1.000D-10 1.000D-09 after    14 iterations.
 End of Minotr F.D. properties file   721 does not exist.
 End of Minotr F.D. properties file   722 does not exist.
 End of Minotr F.D. properties file   788 does not exist.

 **********************************************************************

            Population analysis using the CC Density.

 **********************************************************************

 Alpha  occ. eigenvalues -- -104.88897-104.88623 -91.97804 -11.44948 -10.61308
 Alpha  occ. eigenvalues --  -10.61012  -8.98098  -8.07987  -8.07775  -8.07756
 Alpha  occ. eigenvalues --   -8.07687  -8.07479  -8.07462  -6.66177  -6.66077
 Alpha  occ. eigenvalues --   -6.65927  -1.24313  -1.13386  -1.03989  -0.77145
 Alpha  occ. eigenvalues --   -0.64464  -0.60877  -0.58614  -0.50418  -0.49583
 Alpha  occ. eigenvalues --   -0.47762  -0.40763  -0.38098
 Alpha virt. eigenvalues --    0.01759   0.04855   0.06332   0.06898   0.10049
 Alpha virt. eigenvalues --    0.10099   0.10370   0.11214   0.11749   0.12855
 Alpha virt. eigenvalues --    0.15153   0.15352   0.16222   0.16374   0.16492
 Alpha virt. eigenvalues --    0.21172   0.21727   0.23253   0.26519   0.27059
 Alpha virt. eigenvalues --    0.28119   0.28928   0.30184   0.34374   0.34864
 Alpha virt. eigenvalues --    0.37874   0.38933   0.39846   0.40244   0.42240
 Alpha virt. eigenvalues --    0.44426   0.45462   0.45566   0.46238   0.48087
 Alpha virt. eigenvalues --    0.49024   0.50288   0.50808   0.54002   0.55294
 Alpha virt. eigenvalues --    0.56214   0.65319   0.65596   0.65748   0.70998
 Alpha virt. eigenvalues --    0.72501   0.73108   0.73863   0.74083   0.78496
 Alpha virt. eigenvalues --    0.79037   0.80276   0.80281   0.81664   0.83089
 Alpha virt. eigenvalues --    0.83358   0.86683   0.87419   0.88421   0.88571
 Alpha virt. eigenvalues --    0.91114   0.91959   0.92635   0.94725   0.95494
 Alpha virt. eigenvalues --    0.95827   0.97621   1.02006   1.03169   1.07830
 Alpha virt. eigenvalues --    1.11088   1.11524   1.11999   1.12845   1.17967
 Alpha virt. eigenvalues --    1.18693   1.20914   1.22830   1.28712   1.29513
 Alpha virt. eigenvalues --    1.31244   1.36190   1.39566   1.40415   1.47637
 Alpha virt. eigenvalues --    1.48639   1.52243   1.52931   1.53890   1.54884
 Alpha virt. eigenvalues --    1.61655   1.66308   1.68897   1.71153   1.71558
 Alpha virt. eigenvalues --    1.75220   1.83363   1.83380   1.85276   1.87504
 Alpha virt. eigenvalues --    1.87990   1.90028   1.98026   2.07240   2.07824
 Alpha virt. eigenvalues --    2.14168   2.17562   2.32368   2.32858   2.39120
 Alpha virt. eigenvalues --    2.39356   2.42976   2.44611   2.47258   2.47896
 Alpha virt. eigenvalues --    2.47917   2.53073   2.58182   2.58482   2.59941
 Alpha virt. eigenvalues --    2.60066   2.62394   2.64106   2.65240   2.65398
 Alpha virt. eigenvalues --    2.69606   2.82869   2.84245   2.87484   2.89452
 Alpha virt. eigenvalues --    2.90944   3.02675   3.02803   3.04842   3.05411
 Alpha virt. eigenvalues --    3.05500   3.07601   3.09588   3.13149   3.13554
 Alpha virt. eigenvalues --    3.14066   3.14890   3.19472   3.21573   3.23281
 Alpha virt. eigenvalues --    3.23831   3.35832   3.46751   3.55100   3.64689
 Alpha virt. eigenvalues --    3.69950   3.70633   3.72918   3.76531   3.84426
 Alpha virt. eigenvalues --    3.89084   3.91306   3.96926   4.13403   4.14850
 Alpha virt. eigenvalues --    4.20290   4.24087   4.70529   4.76717   6.45397
 Alpha virt. eigenvalues --    7.20484   7.28040   9.77302
          Condensed to atoms (all electrons):
               1          2          3          4
     1  C    5.673262   0.066588   0.075945   0.179225
     2  Cl   0.066588  17.190029  -0.119004  -0.128953
     3  Cl   0.075945  -0.119004  17.193920  -0.128230
     4  S    0.179225  -0.128953  -0.128230  16.051648
 Mulliken charges:
               1
     1  C    0.004981
     2  Cl  -0.008659
     3  Cl  -0.022631
     4  S    0.026310
 Sum of Mulliken charges =  -0.00000
 Mulliken charges with hydrogens summed into heavy atoms:
               1
     1  C    0.004981
     2  Cl  -0.008659
     3  Cl  -0.022631
     4  S    0.026310
 Electronic spatial extent (au):  <R**2>=            690.6790
 Charge=             -0.0000 electrons
 Dipole moment (field-independent basis, Debye):
    X=              0.0000    Y=             -0.0686    Z=             -0.4352  Tot=              0.4405
 Quadrupole moment (field-independent basis, Debye-Ang):
   XX=            -43.1530   YY=            -43.2923   ZZ=            -42.5375
   XY=              0.0000   XZ=             -0.0000   YZ=              0.1477
 Traceless Quadrupole moment (field-independent basis, Debye-Ang):
   XX=             -0.1588   YY=             -0.2980   ZZ=              0.4568
   XY=              0.0000   XZ=             -0.0000   YZ=              0.1477
 Octapole moment (field-independent basis, Debye-Ang**2):
  XXX=              0.0000  YYY=             -0.0623  ZZZ=             81.6757  XYY=              0.0000
  XXY=             -0.0158  XXZ=             27.1310  XZZ=              0.0000  YZZ=             -0.1615
  YYZ=             18.9953  XYZ=             -0.0000
 Hexadecapole moment (field-independent basis, Debye-Ang**3):
 XXXX=            -50.8946 YYYY=           -340.4874 ZZZZ=           -477.7201 XXXY=              0.0000
 XXXZ=             -0.0000 YYYX=              0.0000 YYYZ=              0.3626 ZZZX=             -0.0000
 ZZZY=              0.7014 XXYY=            -69.2259 XXZZ=            -89.7492 YYZZ=           -127.3474
 XXYZ=              0.1047 YYXZ=             -0.0000 ZZXY=              0.0000
 N-N= 2.448934922789D+02 E-N=-3.713355954814D+03  KE= 1.355036622198D+03
 There are a total of       89716 grid points.
 ElSum from          density=       56.0000001610
 ElSum from atomic densities=       56.0000006926

 Hirshfeld populations at iteration   1 (CX, CA, CB, DipXYZ):
               1          2          3          4          5          6
     1  C    0.000001   2.959750   2.959750   0.000000  -0.001032  -0.136761
     2  Cl   0.000016   8.502284   8.502284   0.000000  -0.062255  -0.022244
     3  Cl   0.000016   8.507188   8.507188  -0.000000   0.060405  -0.018162
     4  S    0.000011   8.030778   8.030778   0.000000   0.003942   0.157613
       Tot   0.000044  28.000000  28.000000   0.000000   0.001060  -0.019555

 Dip from Atomic Chgs              0.000000  -0.028041  -0.151657
         Total Dipole              0.000000  -0.026981  -0.171212

 Hirshfeld charges, spin densities, dipoles, and CM5 charges using IRadAn=      5:
              Q-H        S-H        Dx         Dy         Dz        Q-CM5   
     1  C    0.080499   0.000000   0.000000  -0.001032  -0.136761   0.098900
     2  Cl  -0.004568   0.000000   0.000000  -0.062255  -0.022244  -0.003089
     3  Cl  -0.014376   0.000000  -0.000000   0.060405  -0.018162  -0.012906
     4  S   -0.061556   0.000000   0.000000   0.003942   0.157613  -0.082905
       Tot  -0.000000   0.000000   0.000000   0.001060  -0.019555  -0.000000
 Hirshfeld charges with hydrogens summed into heavy atoms:
              Q-H       Q-CM5   
     1  C    0.080499   0.098900
     2  Cl  -0.004568  -0.003089
     3  Cl  -0.014376  -0.012906
     4  S   -0.061556  -0.082905
 
 EQQ= 0.000000000000E+00 EQD= 0.000000000000E+00 EDD=-0.673317792639E-03
 EQQ+QD+DD=-0.673317792639E-03
 
 Breneman (CHELPG) radii used.
 Generate Potential Derived Charges using the Breneman model, NDens= 1.
 Grid spacing= 0.300 Box extension= 2.800
 NStep X,Y,Z=   20     30     29   Total possible points=       17400
 Number of Points to Fit=    4408

 **********************************************************************

            Electrostatic Properties Using The CC Density.

 **********************************************************************

       Atomic Center    1 is at   0.000000 -0.010000 -0.522914
       Atomic Center    2 is at   0.000000 -1.430735 -1.500900
       Atomic Center    3 is at   0.000000  1.430735 -1.500900
       Atomic Center    4 is at   0.000000  0.000000  1.081815
    4408 points will be used for fitting atomic charges
 Fitting point charges to electrostatic potential
 The dipole moment will be constrained to the correct value
 Charges from ESP fit, RMS=   0.00699 RRMS=   0.92769:
 ESP charges:
               1
     1  C    0.127151
     2  Cl  -0.017416
     3  Cl  -0.026507
     4  S   -0.083227
 Sum of ESP charges =  -0.00000
 ESP charges with hydrogens summed into heavy atoms:
               1
     1  C    0.127151
     2  Cl  -0.017416
     3  Cl  -0.026507
     4  S   -0.083227
 Charge=  -0.00000 Dipole=     0.0000    -0.0686    -0.4352 Tot=     0.4405
 -----------------------------------------------------------------

              Electrostatic Properties (Atomic Units)

 -----------------------------------------------------------------
    Center     Electric         -------- Electric Field --------
               Potential          X             Y             Z
 -----------------------------------------------------------------
    1 Atom    -14.564550
    2 Atom    -64.375834
    3 Atom    -64.378558
    4 Atom    -59.209804
 -----------------------------------------------------------------
 ******************************Gaussian NBO Version 3.1******************************
             N A T U R A L   A T O M I C   O R B I T A L   A N D
          N A T U R A L   B O N D   O R B I T A L   A N A L Y S I S
 ******************************Gaussian NBO Version 3.1******************************
       /RESON  / : Allow strongly delocalized NBO set

 Analyzing the QCI/CC density

 Job title: cl2cs-wavefunction                                              

 Storage needed:    116194 in NPA (2147483536 available)
 GSVD:  LWork=        8166 too small for GESVD, short by       51245 words or       51245 for optimal perf.


 NATURAL POPULATIONS:  Natural atomic orbital occupancies 
                                                          
   NAO  Atom  No  lang   Type(AO)    Occupancy
 --------------------------------------------
     1    C    1  S      Cor( 1S)     1.99947
     2    C    1  S      Val( 2S)     1.16306
     3    C    1  S      Ryd( 3S)     0.00528
     4    C    1  S      Ryd( 4S)     0.00038
     5    C    1  S      Ryd( 5S)     0.00015
     6    C    1  px     Val( 2p)     1.02115
     7    C    1  px     Ryd( 3p)     0.00803
     8    C    1  px     Ryd( 4p)     0.00051
     9    C    1  px     Ryd( 5p)     0.00022
    10    C    1  py     Val( 2p)     0.95543
    11    C    1  py     Ryd( 3p)     0.02125
    12    C    1  py     Ryd( 5p)     0.00045
    13    C    1  py     Ryd( 4p)     0.00052
    14    C    1  pz     Val( 2p)     1.06805
    15    C    1  pz     Ryd( 3p)     0.02667
    16    C    1  pz     Ryd( 5p)     0.00036
    17    C    1  pz     Ryd( 4p)     0.00046
    18    C    1  dxy    Ryd( 3d)     0.01036
    19    C    1  dxy    Ryd( 4d)     0.00033
    20    C    1  dxy    Ryd( 5d)     0.00018
    21    C    1  dxz    Ryd( 3d)     0.01314
    22    C    1  dxz    Ryd( 4d)     0.00036
    23    C    1  dxz    Ryd( 5d)     0.00026
    24    C    1  dyz    Ryd( 3d)     0.01358
    25    C    1  dyz    Ryd( 4d)     0.00044
    26    C    1  dyz    Ryd( 5d)     0.00018
    27    C    1  dx2y2  Ryd( 3d)     0.00817
    28    C    1  dx2y2  Ryd( 4d)     0.00035
    29    C    1  dx2y2  Ryd( 5d)     0.00032
    30    C    1  dz2    Ryd( 3d)     0.01258
    31    C    1  dz2    Ryd( 4d)     0.00036
    32    C    1  dz2    Ryd( 5d)     0.00015
    33    C    1  f(0)   Ryd( 4f)     0.00480
    34    C    1  f(0)   Ryd( 5f)     0.00032
    35    C    1  f(C1)  Ryd( 4f)     0.00259
    36    C    1  f(C1)  Ryd( 5f)     0.00036
    37    C    1  f(S1)  Ryd( 4f)     0.00327
    38    C    1  f(S1)  Ryd( 5f)     0.00057
    39    C    1  f(C2)  Ryd( 4f)     0.00320
    40    C    1  f(C2)  Ryd( 5f)     0.00032
    41    C    1  f(S2)  Ryd( 4f)     0.00284
    42    C    1  f(S2)  Ryd( 5f)     0.00031
    43    C    1  f(C3)  Ryd( 4f)     0.00215
    44    C    1  f(C3)  Ryd( 5f)     0.00024
    45    C    1  f(S3)  Ryd( 4f)     0.00211
    46    C    1  f(S3)  Ryd( 5f)     0.00024

    47   Cl    2  S      Cor( 1S)     2.00000
    48   Cl    2  S      Cor( 2S)     1.99917
    49   Cl    2  S      Val( 3S)     1.80845
    50   Cl    2  S      Ryd( 4S)     0.00541
    51   Cl    2  S      Ryd( 5S)     0.00034
    52   Cl    2  S      Ryd( 6S)     0.00027
    53   Cl    2  px     Cor( 2p)     2.00002
    54   Cl    2  px     Val( 3p)     1.83446
    55   Cl    2  px     Ryd( 4p)     0.00886
    56   Cl    2  px     Ryd( 5p)     0.00052
    57   Cl    2  px     Ryd( 6p)     0.00010
    58   Cl    2  py     Cor( 2p)     1.99993
    59   Cl    2  py     Val( 3p)     1.43550
    60   Cl    2  py     Ryd( 4p)     0.00601
    61   Cl    2  py     Ryd( 5p)     0.00051
    62   Cl    2  py     Ryd( 6p)     0.00012
    63   Cl    2  pz     Cor( 2p)     1.99998
    64   Cl    2  pz     Val( 3p)     1.69198
    65   Cl    2  pz     Ryd( 4p)     0.00752
    66   Cl    2  pz     Ryd( 5p)     0.00050
    67   Cl    2  pz     Ryd( 6p)     0.00014
    68   Cl    2  dxy    Ryd( 3d)     0.01772
    69   Cl    2  dxy    Ryd( 4d)     0.00050
    70   Cl    2  dxy    Ryd( 5d)     0.00012
    71   Cl    2  dxz    Ryd( 3d)     0.01841
    72   Cl    2  dxz    Ryd( 4d)     0.00061
    73   Cl    2  dxz    Ryd( 5d)     0.00013
    74   Cl    2  dyz    Ryd( 3d)     0.02264
    75   Cl    2  dyz    Ryd( 4d)     0.00046
    76   Cl    2  dyz    Ryd( 5d)     0.00014
    77   Cl    2  dx2y2  Ryd( 3d)     0.01966
    78   Cl    2  dx2y2  Ryd( 4d)     0.00051
    79   Cl    2  dx2y2  Ryd( 5d)     0.00012
    80   Cl    2  dz2    Ryd( 3d)     0.01703
    81   Cl    2  dz2    Ryd( 4d)     0.00050
    82   Cl    2  dz2    Ryd( 5d)     0.00018
    83   Cl    2  f(0)   Ryd( 4f)     0.00130
    84   Cl    2  f(0)   Ryd( 5f)     0.00014
    85   Cl    2  f(C1)  Ryd( 4f)     0.00133
    86   Cl    2  f(C1)  Ryd( 5f)     0.00013
    87   Cl    2  f(S1)  Ryd( 4f)     0.00129
    88   Cl    2  f(S1)  Ryd( 5f)     0.00018
    89   Cl    2  f(C2)  Ryd( 4f)     0.00153
    90   Cl    2  f(C2)  Ryd( 5f)     0.00014
    91   Cl    2  f(S2)  Ryd( 4f)     0.00134
    92   Cl    2  f(S2)  Ryd( 5f)     0.00015
    93   Cl    2  f(C3)  Ryd( 4f)     0.00132
    94   Cl    2  f(C3)  Ryd( 5f)     0.00014
    95   Cl    2  f(S3)  Ryd( 4f)     0.00134
    96   Cl    2  f(S3)  Ryd( 5f)     0.00015

    97   Cl    3  S      Cor( 1S)     2.00000
    98   Cl    3  S      Cor( 2S)     1.99920
    99   Cl    3  S      Val( 3S)     1.81484
   100   Cl    3  S      Ryd( 4S)     0.00536
   101   Cl    3  S      Ryd( 5S)     0.00034
   102   Cl    3  S      Ryd( 6S)     0.00026
   103   Cl    3  px     Cor( 2p)     2.00002
   104   Cl    3  px     Val( 3p)     1.84006
   105   Cl    3  px     Ryd( 4p)     0.00887
   106   Cl    3  px     Ryd( 5p)     0.00052
   107   Cl    3  px     Ryd( 6p)     0.00010
   108   Cl    3  py     Cor( 2p)     1.99994
   109   Cl    3  py     Val( 3p)     1.43146
   110   Cl    3  py     Ryd( 4p)     0.00599
   111   Cl    3  py     Ryd( 5p)     0.00051
   112   Cl    3  py     Ryd( 6p)     0.00012
   113   Cl    3  pz     Cor( 2p)     1.99998
   114   Cl    3  pz     Val( 3p)     1.69822
   115   Cl    3  pz     Ryd( 4p)     0.00755
   116   Cl    3  pz     Ryd( 5p)     0.00050
   117   Cl    3  pz     Ryd( 6p)     0.00013
   118   Cl    3  dxy    Ryd( 3d)     0.01765
   119   Cl    3  dxy    Ryd( 4d)     0.00050
   120   Cl    3  dxy    Ryd( 5d)     0.00012
   121   Cl    3  dxz    Ryd( 3d)     0.01841
   122   Cl    3  dxz    Ryd( 4d)     0.00062
   123   Cl    3  dxz    Ryd( 5d)     0.00013
   124   Cl    3  dyz    Ryd( 3d)     0.02237
   125   Cl    3  dyz    Ryd( 4d)     0.00046
   126   Cl    3  dyz    Ryd( 5d)     0.00014
   127   Cl    3  dx2y2  Ryd( 3d)     0.01962
   128   Cl    3  dx2y2  Ryd( 4d)     0.00051
   129   Cl    3  dx2y2  Ryd( 5d)     0.00012
   130   Cl    3  dz2    Ryd( 3d)     0.01705
   131   Cl    3  dz2    Ryd( 4d)     0.00051
   132   Cl    3  dz2    Ryd( 5d)     0.00018
   133   Cl    3  f(0)   Ryd( 4f)     0.00131
   134   Cl    3  f(0)   Ryd( 5f)     0.00014
   135   Cl    3  f(C1)  Ryd( 4f)     0.00134
   136   Cl    3  f(C1)  Ryd( 5f)     0.00013
   137   Cl    3  f(S1)  Ryd( 4f)     0.00128
   138   Cl    3  f(S1)  Ryd( 5f)     0.00018
   139   Cl    3  f(C2)  Ryd( 4f)     0.00152
   140   Cl    3  f(C2)  Ryd( 5f)     0.00015
   141   Cl    3  f(S2)  Ryd( 4f)     0.00134
   142   Cl    3  f(S2)  Ryd( 5f)     0.00015
   143   Cl    3  f(C3)  Ryd( 4f)     0.00132
   144   Cl    3  f(C3)  Ryd( 5f)     0.00015
   145   Cl    3  f(S3)  Ryd( 4f)     0.00134
   146   Cl    3  f(S3)  Ryd( 5f)     0.00015

   147    S    4  S      Cor( 1S)     2.00000
   148    S    4  S      Cor( 2S)     1.99839
   149    S    4  S      Val( 3S)     1.70558
   150    S    4  S      Ryd( 4S)     0.00835
   151    S    4  S      Ryd( 5S)     0.00038
   152    S    4  S      Ryd( 6S)     0.00023
   153    S    4  px     Cor( 2p)     1.99989
   154    S    4  px     Val( 3p)     1.15885
   155    S    4  px     Ryd( 4p)     0.00481
   156    S    4  px     Ryd( 5p)     0.00032
   157    S    4  px     Ryd( 6p)     0.00011
   158    S    4  py     Cor( 2p)     2.00000
   159    S    4  py     Val( 3p)     1.77961
   160    S    4  py     Ryd( 4p)     0.01023
   161    S    4  py     Ryd( 5p)     0.00047
   162    S    4  py     Ryd( 6p)     0.00014
   163    S    4  pz     Cor( 2p)     1.99966
   164    S    4  pz     Val( 3p)     1.04399
   165    S    4  pz     Ryd( 4p)     0.00516
   166    S    4  pz     Ryd( 5p)     0.00046
   167    S    4  pz     Ryd( 6p)     0.00009
   168    S    4  dxy    Ryd( 3d)     0.01613
   169    S    4  dxy    Ryd( 4d)     0.00053
   170    S    4  dxy    Ryd( 5d)     0.00009
   171    S    4  dxz    Ryd( 3d)     0.01692
   172    S    4  dxz    Ryd( 4d)     0.00035
   173    S    4  dxz    Ryd( 5d)     0.00008
   174    S    4  dyz    Ryd( 3d)     0.01391
   175    S    4  dyz    Ryd( 4d)     0.00037
   176    S    4  dyz    Ryd( 5d)     0.00028
   177    S    4  dx2y2  Ryd( 3d)     0.01566
   178    S    4  dx2y2  Ryd( 4d)     0.00054
   179    S    4  dx2y2  Ryd( 5d)     0.00010
   180    S    4  dz2    Ryd( 3d)     0.02151
   181    S    4  dz2    Ryd( 4d)     0.00041
   182    S    4  dz2    Ryd( 5d)     0.00010
   183    S    4  f(0)   Ryd( 4f)     0.00121
   184    S    4  f(0)   Ryd( 5f)     0.00021
   185    S    4  f(C1)  Ryd( 4f)     0.00094
   186    S    4  f(C1)  Ryd( 5f)     0.00015
   187    S    4  f(S1)  Ryd( 4f)     0.00109
   188    S    4  f(S1)  Ryd( 5f)     0.00016
   189    S    4  f(C2)  Ryd( 4f)     0.00091
   190    S    4  f(C2)  Ryd( 5f)     0.00014
   191    S    4  f(S2)  Ryd( 4f)     0.00095
   192    S    4  f(S2)  Ryd( 5f)     0.00012
   193    S    4  f(C3)  Ryd( 4f)     0.00136
   194    S    4  f(C3)  Ryd( 5f)     0.00013
   195    S    4  f(S3)  Ryd( 4f)     0.00136
   196    S    4  f(S3)  Ryd( 5f)     0.00013

 WARNING:  1 low occupancy (<1.9990e) core orbital  found on  S    4


 Summary of Natural Population Analysis:                  
                                                          
                                       Natural Population 
                Natural  -----------------------------------------------
    Atom  No    Charge         Core      Valence    Rydberg      Total
 -----------------------------------------------------------------------
      C    1   -0.35550      1.99947     4.20769    0.14835     6.35550
     Cl    2    0.09095      9.99910     6.77039    0.13956    16.90905
     Cl    3    0.07712      9.99914     6.78458    0.13916    16.92288
      S    4    0.18744      9.99794     5.68803    0.12659    15.81256
 =======================================================================
   * Total *    0.00000     31.99565    23.45069    0.55366    56.00000

                                 Natural Population      
 --------------------------------------------------------
   Core                      31.99565 ( 99.9864% of  32)
   Valence                   23.45069 ( 97.7112% of  24)
   Natural Minimal Basis     55.44634 ( 99.0113% of  56)
   Natural Rydberg Basis      0.55366 (  0.9887% of  56)
 --------------------------------------------------------

    Atom  No          Natural Electron Configuration
 ----------------------------------------------------------------------------
      C    1      [core]2S( 1.16)2p( 3.04)3S( 0.01)3p( 0.06)3d( 0.06)4f( 0.02)
     Cl    2      [core]3S( 1.81)3p( 4.96)4S( 0.01)3d( 0.10)4p( 0.02)4f( 0.01)
     Cl    3      [core]3S( 1.81)3p( 4.97)4S( 0.01)3d( 0.10)4p( 0.02)4f( 0.01)
      S    4      [core]3S( 1.71)3p( 3.98)4S( 0.01)3d( 0.08)4p( 0.02)4f( 0.01)


 NBO analysis skipped by request.
 Unable to Open any file for archive entry.
 1\1\GINC-TRAPISTA\SP\RQCISD-FC\Aug-CC-pVTZ\C1Cl2S1\WAGNER\04-Sep-2022\
 0\\# qcisd/aug-cc-pvtz nosymm density=current pop=(chelpg,hirshfeld,np
 a,dipole)\\cl2cs-wavefunction\\0,1\C,0,0.,-0.01,-0.522914\Cl,0,0.,-1.4
 30735,-1.5009\Cl,0,0.,1.430735,-1.5009\S,0,0.,0.,1.081815\\Version=EM6
 4L-G16RevC.01\HF=-1354.4259699\MP2=-1355.1503531\MP3=-1355.1829501\MP4
 D=-1355.2047306\MP4DQ=-1355.1798428\MP4SDQ=-1355.1866668\QCISD=-1355.1
 841807\RMSD=4.516e-09\Dipole=0.,-0.0269806,-0.1712113\Quadrupole=-0.11
 80362,-0.2215777,0.3396139,0.,0.,0.1098094\PG=CS [SG(C1Cl2S1)]\\@
 The archive entry for this job was punched.


 IT IS THE GODS' CUSTOM TO BRING LOW ALL THINGS OF SURPASSING GREATNESS.
     -- HERODOTUS
 IT IS THE LOFTY PINE THAT BY THE STORM IS OFTENER TOSSED;
 TOWERS FALL WITH HEAVIER CRASH WHICH HIGHER SOAR.
     -- HORACE
 THE BIGGER THEY COME, THE HARDER THEY FALL.
     -- BOB FITZSIMONS HEAVYWEIGHT CHAMPION, 1897-1899
 Job cpu time:       0 days  7 hours  7 minutes 53.1 seconds.
 Elapsed time:       0 days  0 hours 27 minutes  5.0 seconds.
 File lengths (MBytes):  RWF=  23427 Int=      0 D2E=      0 Chk=      4 Scr=      1
 Normal termination of Gaussian 16 at Sun Sep  4 08:36:53 2022.
