 Entering Gaussian System, Link 0=/home/wagner/chemistry/gaussian/g16/g16
 Input=GAUSSIAN.com
 Output=GAUSSIAN.log
 Initial command:
 /home/wagner/chemistry/gaussian/g16/l1.exe "/home/wagner/chemistry/gaussian/work/Gau-13726.inp" -scrdir="/home/wagner/chemistry/gaussian/work/"
 Entering Link 1 = /home/wagner/chemistry/gaussian/g16/l1.exe PID=     13728.
  
 Copyright (c) 1988-2019, Gaussian, Inc.  All Rights Reserved.
  
 This is part of the Gaussian(R) 16 program.  It is based on
 the Gaussian(R) 09 system (copyright 2009, Gaussian, Inc.),
 the Gaussian(R) 03 system (copyright 2003, Gaussian, Inc.),
 the Gaussian(R) 98 system (copyright 1998, Gaussian, Inc.),
 the Gaussian(R) 94 system (copyright 1995, Gaussian, Inc.),
 the Gaussian 92(TM) system (copyright 1992, Gaussian, Inc.),
 the Gaussian 90(TM) system (copyright 1990, Gaussian, Inc.),
 the Gaussian 88(TM) system (copyright 1988, Gaussian, Inc.),
 the Gaussian 86(TM) system (copyright 1986, Carnegie Mellon
 University), and the Gaussian 82(TM) system (copyright 1983,
 Carnegie Mellon University). Gaussian is a federally registered
 trademark of Gaussian, Inc.
  
 This software contains proprietary and confidential information,
 including trade secrets, belonging to Gaussian, Inc.
  
 This software is provided under written license and may be
 used, copied, transmitted, or stored only in accord with that
 written license.
  
 The following legend is applicable only to US Government
 contracts under FAR:
  
                    RESTRICTED RIGHTS LEGEND
  
 Use, reproduction and disclosure by the US Government is
 subject to restrictions as set forth in subparagraphs (a)
 and (c) of the Commercial Computer Software - Restricted
 Rights clause in FAR 52.227-19.
  
 Gaussian, Inc.
 340 Quinnipiac St., Bldg. 40, Wallingford CT 06492
  
  
 ---------------------------------------------------------------
 Warning -- This program may not be used in any manner that
 competes with the business of Gaussian, Inc. or will provide
 assistance to any competitor of Gaussian, Inc.  The licensee
 of this program is prohibited from giving any competitor of
 Gaussian, Inc. access to this program.  By using this program,
 the user acknowledges that Gaussian, Inc. is engaged in the
 business of creating and licensing software in the field of
 computational chemistry and represents and warrants to the
 licensee that it is not a competitor of Gaussian, Inc. and that
 it will not use this program in any manner prohibited above.
 ---------------------------------------------------------------
  

 Cite this work as:
 Gaussian 16, Revision C.01,
 M. J. Frisch, G. W. Trucks, H. B. Schlegel, G. E. Scuseria, 
 M. A. Robb, J. R. Cheeseman, G. Scalmani, V. Barone, 
 G. A. Petersson, H. Nakatsuji, X. Li, M. Caricato, A. V. Marenich, 
 J. Bloino, B. G. Janesko, R. Gomperts, B. Mennucci, H. P. Hratchian, 
 J. V. Ortiz, A. F. Izmaylov, J. L. Sonnenberg, D. Williams-Young, 
 F. Ding, F. Lipparini, F. Egidi, J. Goings, B. Peng, A. Petrone, 
 T. Henderson, D. Ranasinghe, V. G. Zakrzewski, J. Gao, N. Rega, 
 G. Zheng, W. Liang, M. Hada, M. Ehara, K. Toyota, R. Fukuda, 
 J. Hasegawa, M. Ishida, T. Nakajima, Y. Honda, O. Kitao, H. Nakai, 
 T. Vreven, K. Throssell, J. A. Montgomery, Jr., J. E. Peralta, 
 F. Ogliaro, M. J. Bearpark, J. J. Heyd, E. N. Brothers, K. N. Kudin, 
 V. N. Staroverov, T. A. Keith, R. Kobayashi, J. Normand, 
 K. Raghavachari, A. P. Rendell, J. C. Burant, S. S. Iyengar, 
 J. Tomasi, M. Cossi, J. M. Millam, M. Klene, C. Adamo, R. Cammi, 
 J. W. Ochterski, R. L. Martin, K. Morokuma, O. Farkas, 
 J. B. Foresman, and D. J. Fox, Gaussian, Inc., Wallingford CT, 2019.
 
 ******************************************
 Gaussian 16:  EM64L-G16RevC.01  3-Jul-2019
                 6-Sep-2022 
 ******************************************
 %nproc=16
 Will use up to   16 processors via shared memory.
 %mem=16GB
 ----------------------------------------------------------------------
 # qcisd/aug-cc-pvtz nosymm density=current pop=(chelpg,hirshfeld,npa,d
 ipole)
 ----------------------------------------------------------------------
 1/30=1,38=1,172=1/1;
 2/12=2,15=1,17=6,18=5,40=1/2;
 3/5=16,6=1,7=10,11=9,25=1,30=1,71=1/1,2,3;
 4//1;
 5/5=2,38=5/2;
 8/6=4,9=120000,10=1/1,4;
 9/5=8,15=1/13;
 11/28=-7,31=1,32=3,42=3/11;
 10/5=6,13=10,31=1/2;
 6/7=2,8=2,9=2,10=2,15=24,20=3,22=-1,40=-1,79=1/1,2,7;
 99/5=1,9=1/99;
 ------------------
 br2cs-wavefunction
 ------------------
 Symbolic Z-matrix:
 Charge =  0 Multiplicity = 1
 C                     0.        0.       -0.51945 
 S                     0.        0.        1.08369 
 Br                    0.       -1.56852  -1.57857 
 Br                    0.        1.55852  -1.57857 
 
                          Input orientation:                          
 ---------------------------------------------------------------------
 Center     Atomic      Atomic             Coordinates (Angstroms)
 Number     Number       Type             X           Y           Z
 ---------------------------------------------------------------------
      1          6           0        0.000000    0.000000   -0.519451
      2         16           0        0.000000    0.000000    1.083692
      3         35           0        0.000000   -1.568516   -1.578570
      4         35           0        0.000000    1.558516   -1.578570
 ---------------------------------------------------------------------
                    Distance matrix (angstroms):
                    1          2          3          4
     1  C    0.000000
     2  S    1.603143   0.000000
     3  Br   1.892611   3.089965   0.000000
     4  Br   1.884331   3.084900   3.127032   0.000000
 Symmetry turned off by external request.
 Stoichiometry    CBr2S
 Framework group  CS[SG(CBr2S)]
 Deg. of freedom     5
 Full point group                 CS      NOp   2
 Rotational constants (GHZ):           2.6233783           1.3097934           0.8736165
 Standard basis: Aug-CC-pVTZ (5D, 7F)
   214 basis functions,   620 primitive gaussians,   252 cartesian basis functions
    46 alpha electrons       46 beta electrons
       nuclear repulsion energy       548.6467210832 Hartrees.
 NAtoms=    4 NActive=    4 NUniq=    4 SFac= 1.00D+00 NAtFMM=   60 NAOKFM=F Big=F
 Integral buffers will be    131072 words long.
 Raffenetti 1 integral format.
 Two-electron integral symmetry is turned off.
 One-electron integrals computed using PRISM.
 NBasis=   214 RedAO= T EigKep=  7.85D-05  NBF=   214
 NBsUse=   214 1.00D-06 EigRej= -1.00D+00 NBFU=   214
 ExpMin= 3.51D-02 ExpMax= 1.06D+07 ExpMxC= 1.21D+04 IAcc=3 IRadAn=         5 AccDes= 0.00D+00
 Harris functional with IExCor=  205 and IRadAn=       5 diagonalized for initial guess.
 HarFok:  IExCor=  205 AccDes= 0.00D+00 IRadAn=         5 IDoV= 1 UseB2=F ITyADJ=14
 ICtDFT=  3500011 ScaDFX=  1.000000  1.000000  1.000000  1.000000
 FoFCou: FMM=F IPFlag=           0 FMFlag=      100000 FMFlg1=           0
         NFxFlg=           0 DoJE=T BraDBF=F KetDBF=T FulRan=T
         wScrn=  0.000000 ICntrl=       500 IOpCl=  0 I1Cent=   200000004 NGrid=           0
         NMat0=    1 NMatS0=      1 NMatT0=    0 NMatD0=    1 NMtDS0=    0 NMtDT0=    0
 Symmetry not used in FoFCou.
 Keep R1 ints in memory in canonical form, NReq=277853564.
 Requested convergence on RMS density matrix=1.00D-08 within 128 cycles.
 Requested convergence on MAX density matrix=1.00D-06.
 Requested convergence on             energy=1.00D-06.
 No special actions if energy rises.
 SCF Done:  E(RHF) =  -5580.30868077     A.U. after   14 cycles
            NFock= 14  Conv=0.27D-08     -V/T= 2.0000
 ExpMin= 3.51D-02 ExpMax= 1.06D+07 ExpMxC= 1.21D+04 IAcc=3 IRadAn=         5 AccDes= 0.00D+00
 HarFok:  IExCor=  205 AccDes= 0.00D+00 IRadAn=         5 IDoV=-2 UseB2=F ITyADJ=14
 ICtDFT= 12500011 ScaDFX=  1.000000  1.000000  1.000000  1.000000
 GSVD:  LWork=        -768 too small for GESVD, short by        3240 words or        3240 for optimal perf.
 Range of M.O.s used for correlation:    25   214
 NBasis=   214 NAE=    46 NBE=    46 NFC=    24 NFV=     0
 NROrb=    190 NOA=    22 NOB=    22 NVA=   168 NVB=   168

 **** Warning!!: The largest alpha MO coefficient is  0.30799171D+02

 Semi-Direct transformation.
 ModeAB=           2 MOrb=            22 LenV=    2146185975
 LASXX=     69628944 LTotXX=    69628944 LenRXX=    69628944
 LTotAB=    70719517 MaxLAS=   133250040 LenRXY=   133250040
 NonZer=   139257888 LenScr=   209707008 LnRSAI=           0
 LnScr1=           0 LExtra=           0 Total=    412585992
 MaxDsk=          -1 SrtSym=           F ITran=            4
 JobTyp=0 Pass  1:  I=   1 to  22.
 (rs|ai) integrals will be sorted in core.
 Spin components of T(2) and E(2):
     alpha-alpha T2 =       0.4285032655D-01 E2=     -0.1154344511D+00
     alpha-beta  T2 =       0.2164322396D+00 E2=     -0.5792527950D+00
     beta-beta   T2 =       0.4285032655D-01 E2=     -0.1154344511D+00
 ANorm=    0.1141110377D+01
 E2 =    -0.8101216973D+00 EUMP2 =    -0.55811188024707D+04
 Keep R2 and R3 ints in memory in canonical form, NReq=542493993.
 CIDS: In Core Option IDoMem=           1.
 Iterations=  50 Convergence= 0.100D-07
 Produce multiple copies of IABC intergrals
 Iteration Nr.   1
 **********************
 DD1Dir will call FoFMem   1 times, MxPair=       506
 NAB=   253 NAA=     0 NBB=     0.
 MP4(R+Q)=  0.23447977D-01
 E3=       -0.12167557D-01        EUMP3=      -0.55811309700D+04
 E4(DQ)=   -0.49436937D-03        UMP4(DQ)=   -0.55811314644D+04
 E4(SDQ)=  -0.10144966D-01        UMP4(SDQ)=  -0.55811411150D+04
 DE(Corr)= -0.79884128     E(Corr)=     -5581.1075221    
 NORM(A)=   0.11408966D+01
 Iteration Nr.   2
 **********************
 DD1Dir will call FoFMem   1 times, MxPair=       506
 NAB=   253 NAA=     0 NBB=     0.
 DE(Corr)= -0.82755305     E(CORR)=     -5581.1362338     Delta=-2.87D-02
 NORM(A)=   0.11530509D+01
 Iteration Nr.   3
 **********************
 DD1Dir will call FoFMem   1 times, MxPair=       506
 NAB=   253 NAA=     0 NBB=     0.
 DE(Corr)= -0.82615875     E(CORR)=     -5581.1348395     Delta= 1.39D-03
 NORM(A)=   0.11558709D+01
 Iteration Nr.   4
 **********************
 DD1Dir will call FoFMem   1 times, MxPair=       506
 NAB=   253 NAA=     0 NBB=     0.
 DE(Corr)= -0.82849836     E(CORR)=     -5581.1371791     Delta=-2.34D-03
 NORM(A)=   0.11571693D+01
 Iteration Nr.   5
 **********************
 DD1Dir will call FoFMem   1 times, MxPair=       506
 NAB=   253 NAA=     0 NBB=     0.
 DE(Corr)= -0.82880543     E(CORR)=     -5581.1374862     Delta=-3.07D-04
 NORM(A)=   0.11578008D+01
 Iteration Nr.   6
 **********************
 DD1Dir will call FoFMem   1 times, MxPair=       506
 NAB=   253 NAA=     0 NBB=     0.
 DE(Corr)= -0.82886958     E(CORR)=     -5581.1375504     Delta=-6.42D-05
 NORM(A)=   0.11578796D+01
 Iteration Nr.   7
 **********************
 DD1Dir will call FoFMem   1 times, MxPair=       506
 NAB=   253 NAA=     0 NBB=     0.
 DE(Corr)= -0.82888123     E(CORR)=     -5581.1375620     Delta=-1.16D-05
 NORM(A)=   0.11578958D+01
 Iteration Nr.   8
 **********************
 DD1Dir will call FoFMem   1 times, MxPair=       506
 NAB=   253 NAA=     0 NBB=     0.
 DE(Corr)= -0.82887743     E(CORR)=     -5581.1375582     Delta= 3.80D-06
 NORM(A)=   0.11579039D+01
 Iteration Nr.   9
 **********************
 DD1Dir will call FoFMem   1 times, MxPair=       506
 NAB=   253 NAA=     0 NBB=     0.
 DE(Corr)= -0.82887903     E(CORR)=     -5581.1375598     Delta=-1.60D-06
 NORM(A)=   0.11579045D+01
 Iteration Nr.  10
 **********************
 DD1Dir will call FoFMem   1 times, MxPair=       506
 NAB=   253 NAA=     0 NBB=     0.
 DE(Corr)= -0.82887919     E(CORR)=     -5581.1375600     Delta=-1.56D-07
 NORM(A)=   0.11579081D+01
 Iteration Nr.  11
 **********************
 DD1Dir will call FoFMem   1 times, MxPair=       506
 NAB=   253 NAA=     0 NBB=     0.
 DE(Corr)= -0.82888071     E(CORR)=     -5581.1375615     Delta=-1.53D-06
 NORM(A)=   0.11579100D+01
 Iteration Nr.  12
 **********************
 DD1Dir will call FoFMem   1 times, MxPair=       506
 NAB=   253 NAA=     0 NBB=     0.
 DE(Corr)= -0.82888080     E(CORR)=     -5581.1375616     Delta=-8.56D-08
 NORM(A)=   0.11579116D+01
 Iteration Nr.  13
 **********************
 DD1Dir will call FoFMem   1 times, MxPair=       506
 NAB=   253 NAA=     0 NBB=     0.
 DE(Corr)= -0.82888142     E(CORR)=     -5581.1375622     Delta=-6.19D-07
 NORM(A)=   0.11579125D+01
 Iteration Nr.  14
 **********************
 DD1Dir will call FoFMem   1 times, MxPair=       506
 NAB=   253 NAA=     0 NBB=     0.
 DE(Corr)= -0.82888143     E(CORR)=     -5581.1375622     Delta=-1.12D-08
 NORM(A)=   0.11579130D+01
 Iteration Nr.  15
 **********************
 DD1Dir will call FoFMem   1 times, MxPair=       506
 NAB=   253 NAA=     0 NBB=     0.
 DE(Corr)= -0.82888154     E(CORR)=     -5581.1375623     Delta=-1.13D-07
 NORM(A)=   0.11579132D+01
 Iteration Nr.  16
 **********************
 DD1Dir will call FoFMem   1 times, MxPair=       506
 NAB=   253 NAA=     0 NBB=     0.
 DE(Corr)= -0.82888157     E(CORR)=     -5581.1375623     Delta=-2.76D-08
 NORM(A)=   0.11579132D+01
 Iteration Nr.  17
 **********************
 DD1Dir will call FoFMem   1 times, MxPair=       506
 NAB=   253 NAA=     0 NBB=     0.
 DE(Corr)= -0.82888156     E(CORR)=     -5581.1375623     Delta= 1.22D-08
 NORM(A)=   0.11579133D+01
 Iteration Nr.  18
 **********************
 DD1Dir will call FoFMem   1 times, MxPair=       506
 NAB=   253 NAA=     0 NBB=     0.
 DE(Corr)= -0.82888157     E(CORR)=     -5581.1375623     Delta=-1.60D-08
 NORM(A)=   0.11579133D+01
 Iteration Nr.  19
 **********************
 DD1Dir will call FoFMem   1 times, MxPair=       506
 NAB=   253 NAA=     0 NBB=     0.
 DE(Corr)= -0.82888157     E(CORR)=     -5581.1375623     Delta= 4.49D-09
 NORM(A)=   0.11579133D+01
 Wavefunction amplitudes converged. E(Corr)=     -5581.1375623    
 Largest amplitude= 7.68D-02

 Z-amplitude iterations

 Iteration Nr.   1
 **********************
 DD1Dir will call FoFMem   1 times, MxPair=       506
 NAB=   253 NAA=     0 NBB=     0.
 DE(Z)= -0.79827452     E(Z)=     -5581.1069553     Delta= 3.06D-02
 NORM(A)=   0.11580379D+01
 Iteration Nr.   2
 **********************
 DD1Dir will call FoFMem   1 times, MxPair=       506
 NAB=   253 NAA=     0 NBB=     0.
 DE(Z)= -0.79827545     E(Z)=     -5581.1069562     Delta=-9.31D-07
 NORM(A)=   0.11580319D+01
 Iteration Nr.   3
 **********************
 DD1Dir will call FoFMem   1 times, MxPair=       506
 NAB=   253 NAA=     0 NBB=     0.
 DE(Z)= -0.79827529     E(Z)=     -5581.1069561     Delta= 1.62D-07
 NORM(A)=   0.11582057D+01
 Iteration Nr.   4
 **********************
 DD1Dir will call FoFMem   1 times, MxPair=       506
 NAB=   253 NAA=     0 NBB=     0.
 DE(Z)= -0.79827672     E(Z)=     -5581.1069575     Delta=-1.43D-06
 NORM(A)=   0.11583554D+01
 Iteration Nr.   5
 **********************
 DD1Dir will call FoFMem   1 times, MxPair=       506
 NAB=   253 NAA=     0 NBB=     0.
 DE(Z)= -0.79827864     E(Z)=     -5581.1069594     Delta=-1.92D-06
 NORM(A)=   0.11446879D+01
 Iteration Nr.   6
 **********************
 DD1Dir will call FoFMem   1 times, MxPair=       506
 NAB=   253 NAA=     0 NBB=     0.
 DE(Z)= -0.79815575     E(Z)=     -5581.1068365     Delta= 1.23D-04
 NORM(A)=   0.11446877D+01
 Iteration Nr.   7
 **********************
 DD1Dir will call FoFMem   1 times, MxPair=       506
 NAB=   253 NAA=     0 NBB=     0.
 DE(Z)= -0.79815330     E(Z)=     -5581.1068341     Delta= 2.45D-06
 NORM(A)=   0.11446870D+01
 Iteration Nr.   8
 **********************
 DD1Dir will call FoFMem   1 times, MxPair=       506
 NAB=   253 NAA=     0 NBB=     0.
 DE(Z)= -0.79815395     E(Z)=     -5581.1068347     Delta=-6.51D-07
 NORM(A)=   0.11446867D+01
 Iteration Nr.   9
 **********************
 DD1Dir will call FoFMem   1 times, MxPair=       506
 NAB=   253 NAA=     0 NBB=     0.
 DE(Z)= -0.79815314     E(Z)=     -5581.1068339     Delta= 8.12D-07
 NORM(A)=   0.11446870D+01
 Iteration Nr.  10
 **********************
 DD1Dir will call FoFMem   1 times, MxPair=       506
 NAB=   253 NAA=     0 NBB=     0.
 DE(Z)= -0.79815309     E(Z)=     -5581.1068339     Delta= 5.35D-08
 NORM(A)=   0.11446873D+01
 Iteration Nr.  11
 **********************
 DD1Dir will call FoFMem   1 times, MxPair=       506
 NAB=   253 NAA=     0 NBB=     0.
 DE(Z)= -0.79815317     E(Z)=     -5581.1068339     Delta=-8.03D-08
 NORM(A)=   0.11446875D+01
 Iteration Nr.  12
 **********************
 DD1Dir will call FoFMem   1 times, MxPair=       506
 NAB=   253 NAA=     0 NBB=     0.
 DE(Z)= -0.79815314     E(Z)=     -5581.1068339     Delta= 2.40D-08
 NORM(A)=   0.11446876D+01
 Iteration Nr.  13
 **********************
 DD1Dir will call FoFMem   1 times, MxPair=       506
 NAB=   253 NAA=     0 NBB=     0.
 DE(Z)= -0.79815318     E(Z)=     -5581.1068340     Delta=-4.04D-08
 NORM(A)=   0.11446876D+01
 Iteration Nr.  14
 **********************
 DD1Dir will call FoFMem   1 times, MxPair=       506
 NAB=   253 NAA=     0 NBB=     0.
 DE(Z)= -0.79815318     E(Z)=     -5581.1068340     Delta= 5.19D-09
 NORM(A)=   0.11446876D+01
 Z-amplitudes converged.
 Discarding MO integrals.
          Differentiating once with respect to electric field.
                with respect to dipole field.
          Electric field/nuclear overlap derivatives assumed to be zero.
 Keep R1 ints in memory in canonical form, NReq=277860022.
          There are     1 degrees of freedom in the 1st order CPHF.  IDoFFX=0 NUNeed=     1.
 LinEq1:  Iter=  0 NonCon=     1 RMS=1.78D-03 Max=6.60D-02 NDo=     1
 AX will form     1 AO Fock derivatives at one time.
 LinEq1:  Iter=  1 NonCon=     1 RMS=8.39D-04 Max=1.80D-02 NDo=     1
 LinEq1:  Iter=  2 NonCon=     1 RMS=3.80D-04 Max=1.47D-02 NDo=     1
 LinEq1:  Iter=  3 NonCon=     1 RMS=1.25D-04 Max=4.29D-03 NDo=     1
 LinEq1:  Iter=  4 NonCon=     1 RMS=4.82D-05 Max=9.45D-04 NDo=     1
 LinEq1:  Iter=  5 NonCon=     1 RMS=9.55D-06 Max=1.70D-04 NDo=     1
 LinEq1:  Iter=  6 NonCon=     1 RMS=3.27D-06 Max=8.29D-05 NDo=     1
 LinEq1:  Iter=  7 NonCon=     1 RMS=7.17D-07 Max=2.34D-05 NDo=     1
 LinEq1:  Iter=  8 NonCon=     1 RMS=1.41D-07 Max=4.27D-06 NDo=     1
 LinEq1:  Iter=  9 NonCon=     1 RMS=3.43D-08 Max=1.00D-06 NDo=     1
 LinEq1:  Iter= 10 NonCon=     1 RMS=9.49D-09 Max=2.06D-07 NDo=     1
 LinEq1:  Iter= 11 NonCon=     1 RMS=1.97D-09 Max=5.01D-08 NDo=     1
 LinEq1:  Iter= 12 NonCon=     1 RMS=3.79D-10 Max=9.00D-09 NDo=     1
 LinEq1:  Iter= 13 NonCon=     1 RMS=1.00D-10 Max=1.35D-09 NDo=     1
 LinEq1:  Iter= 14 NonCon=     0 RMS=2.82D-11 Max=4.97D-10 NDo=     1
 Linear equations converged to 1.000D-10 1.000D-09 after    14 iterations.
 End of Minotr F.D. properties file   721 does not exist.
 End of Minotr F.D. properties file   722 does not exist.
 End of Minotr F.D. properties file   788 does not exist.

 **********************************************************************

            Population analysis using the CC Density.

 **********************************************************************

 Alpha  occ. eigenvalues -- -490.06397-490.06319 -91.97983 -65.20383 -65.20301
 Alpha  occ. eigenvalues --  -58.55915 -58.55835 -58.55766 -58.55747 -58.55684
 Alpha  occ. eigenvalues --  -58.55665 -11.43357  -9.87696  -9.87607  -8.98255
 Alpha  occ. eigenvalues --   -7.48890  -7.48800  -7.48164  -7.48083  -7.48073
 Alpha  occ. eigenvalues --   -7.47994  -6.66322  -6.66237  -6.66081  -3.23297
 Alpha  occ. eigenvalues --   -3.23207  -3.22937  -3.22848  -3.22826  -3.22739
 Alpha  occ. eigenvalues --   -3.21905  -3.21902  -3.21815  -3.21813  -1.16918
 Alpha  occ. eigenvalues --   -1.04196  -1.01499  -0.74054  -0.59777  -0.58389
 Alpha  occ. eigenvalues --   -0.54131  -0.46291  -0.44554  -0.42841  -0.39689
 Alpha  occ. eigenvalues --   -0.37168
 Alpha virt. eigenvalues --    0.01310   0.04699   0.05711   0.06068   0.08410
 Alpha virt. eigenvalues --    0.08959   0.09164   0.10089   0.11084   0.11456
 Alpha virt. eigenvalues --    0.12062   0.13420   0.14450   0.15437   0.15754
 Alpha virt. eigenvalues --    0.16999   0.18616   0.22163   0.23675   0.23984
 Alpha virt. eigenvalues --    0.24140   0.27625   0.29941   0.30900   0.33028
 Alpha virt. eigenvalues --    0.33971   0.34208   0.35587   0.35931   0.36826
 Alpha virt. eigenvalues --    0.37252   0.39651   0.40109   0.42907   0.43676
 Alpha virt. eigenvalues --    0.46292   0.48048   0.48094   0.48429   0.48684
 Alpha virt. eigenvalues --    0.48807   0.51302   0.57645   0.58794   0.59050
 Alpha virt. eigenvalues --    0.60643   0.65421   0.66441   0.68529   0.70409
 Alpha virt. eigenvalues --    0.71734   0.74678   0.75276   0.76078   0.76426
 Alpha virt. eigenvalues --    0.77072   0.78401   0.78564   0.78574   0.80042
 Alpha virt. eigenvalues --    0.81394   0.81427   0.85022   0.86060   0.88482
 Alpha virt. eigenvalues --    0.89113   0.89977   0.91734   0.93600   0.94939
 Alpha virt. eigenvalues --    0.95678   1.01200   1.01871   1.03334   1.03848
 Alpha virt. eigenvalues --    1.04553   1.04669   1.14689   1.15188   1.15982
 Alpha virt. eigenvalues --    1.17511   1.19045   1.19955   1.22433   1.26176
 Alpha virt. eigenvalues --    1.27805   1.32648   1.35108   1.38852   1.45604
 Alpha virt. eigenvalues --    1.46967   1.49411   1.51818   1.52541   1.53324
 Alpha virt. eigenvalues --    1.53925   1.54666   1.63625   1.72126   1.72368
 Alpha virt. eigenvalues --    1.74212   1.74382   1.91954   1.98004   2.07417
 Alpha virt. eigenvalues --    2.09724   2.14032   2.16413   2.17764   2.19319
 Alpha virt. eigenvalues --    2.21338   2.24507   2.27481   2.27557   2.28356
 Alpha virt. eigenvalues --    2.28603   2.29135   2.30044   2.32372   2.32575
 Alpha virt. eigenvalues --    2.32706   2.33775   2.34092   2.35529   2.36412
 Alpha virt. eigenvalues --    2.36707   2.37110   2.38080   2.39412   2.40880
 Alpha virt. eigenvalues --    2.41368   2.42634   2.43399   2.46401   2.46690
 Alpha virt. eigenvalues --    2.53305   2.53856   2.55206   2.57123   2.60325
 Alpha virt. eigenvalues --    2.62346   2.68986   2.70663   2.71948   2.89725
 Alpha virt. eigenvalues --    2.91600   2.93783   3.07658   3.30512   3.38986
 Alpha virt. eigenvalues --    3.59062   3.64738   3.65576   3.67196   3.76132
 Alpha virt. eigenvalues --    3.77379   3.84094   3.87249   3.90308   4.05721
 Alpha virt. eigenvalues --    4.06149   4.14260   4.16166   4.18966   5.07662
 Alpha virt. eigenvalues --    5.11371   6.44275   9.48346
          Condensed to atoms (all electrons):
               1          2          3          4
     1  C    6.386765  -0.032918  -0.091586  -0.100000
     2  S   -0.032918  16.459810  -0.189078  -0.190831
     3  Br  -0.091586  -0.189078  35.319525  -0.138535
     4  Br  -0.100000  -0.190831  -0.138535  35.319793
 Mulliken charges:
               1
     1  C   -0.162262
     2  S   -0.046984
     3  Br   0.099673
     4  Br   0.109573
 Sum of Mulliken charges =  -0.00000
 Mulliken charges with hydrogens summed into heavy atoms:
               1
     1  C   -0.162262
     2  S   -0.046984
     3  Br   0.099673
     4  Br   0.109573
 Electronic spatial extent (au):  <R**2>=           1427.7088
 Charge=             -0.0000 electrons
 Dipole moment (field-independent basis, Debye):
    X=             -0.0000    Y=              0.0286    Z=             -0.4931  Tot=              0.4940
 Quadrupole moment (field-independent basis, Debye-Ang):
   XX=            -54.9426   YY=            -53.8262   ZZ=            -53.7508
   XY=              0.0000   XZ=              0.0000   YZ=             -0.0487
 Traceless Quadrupole moment (field-independent basis, Debye-Ang):
   XX=             -0.7694   YY=              0.3470   ZZ=              0.4224
   XY=              0.0000   XZ=              0.0000   YZ=             -0.0487
 Octapole moment (field-independent basis, Debye-Ang**2):
  XXX=             -0.0000  YYY=              0.6255  ZZZ=            141.1213  XYY=             -0.0000
  XXY=              0.2242  XXZ=             47.7418  XZZ=             -0.0000  YZZ=              0.2970
  YYZ=             35.3491  XYZ=             -0.0000
 Hexadecapole moment (field-independent basis, Debye-Ang**3):
 XXXX=            -67.2116 YYYY=           -569.3147 ZZZZ=           -700.1516 XXXY=             -0.0000
 XXXZ=             -0.0000 YYYX=             -0.0000 YYYZ=             -0.9243 ZZZX=             -0.0000
 ZZZY=             -1.1670 XXYY=           -112.9262 XXZZ=           -130.4594 YYZZ=           -194.3479
 XXYZ=             -0.3538 YYXZ=              0.0000 ZZXY=              0.0000
 N-N= 5.486467210832D+02 E-N=-1.443849622738D+04  KE= 5.579860416606D+03
 There are a total of      107126 grid points.
 ElSum from          density=       92.0000010205
 ElSum from atomic densities=       92.0000001877

 Hirshfeld populations at iteration   1 (CX, CA, CB, DipXYZ):
               1          2          3          4          5          6
     1  C    0.000001   2.983205   2.983205   0.000000  -0.000117  -0.108459
     2  S    0.000013   8.028379   8.028379   0.000000  -0.000300   0.160564
     3  Br   0.000023  17.495183  17.495183  -0.000000  -0.063229  -0.013471
     4  Br   0.000023  17.493233  17.493233   0.000000   0.063582  -0.014336
       Tot   0.000061  46.000001  46.000001  -0.000000  -0.000065   0.024298

 Dip from Atomic Chgs              0.000000   0.011302  -0.218314
         Total Dipole             -0.000000   0.011237  -0.194016

 Hirshfeld charges, spin densities, dipoles, and CM5 charges using IRadAn=      5:
              Q-H        S-H        Dx         Dy         Dz        Q-CM5   
     1  C    0.033590   0.000000   0.000000  -0.000117  -0.108459   0.023724
     2  S   -0.056758   0.000000   0.000000  -0.000300   0.160564  -0.081402
     3  Br   0.009634   0.000000  -0.000000  -0.063229  -0.013471   0.026723
     4  Br   0.013533   0.000000   0.000000   0.063582  -0.014336   0.030953
       Tot  -0.000001   0.000000  -0.000000  -0.000065   0.024298  -0.000001
 Hirshfeld charges with hydrogens summed into heavy atoms:
              Q-H       Q-CM5   
     1  C    0.033590   0.023724
     2  S   -0.056758  -0.081402
     3  Br   0.009634   0.026723
     4  Br   0.013533   0.030953
 
 EQQ= 0.000000000000E+00 EQD= 0.000000000000E+00 EDD=-0.600986515042E-03
 EQQ+QD+DD=-0.600986515042E-03
 
 Breneman (CHELPG) radii used.
 GetVDW:  no radius for atom   3 atomic number  35.
 Error termination via Lnk1e in /home/wagner/chemistry/gaussian/g16/l602.exe at Tue Sep  6 12:23:34 2022.
 Job cpu time:       0 days 13 hours 58 minutes  8.6 seconds.
 Elapsed time:       0 days  0 hours 52 minutes 56.3 seconds.
 File lengths (MBytes):  RWF=  31411 Int=      0 D2E=      0 Chk=      2 Scr=      1
