 Entering Gaussian System, Link 0=/home/wagner/chemistry/gaussian/g16/g16
 Input=GAUSSIAN.com
 Output=GAUSSIAN.log
 Initial command:
 /home/wagner/chemistry/gaussian/g16/l1.exe "/home/wagner/chemistry/gaussian/work/Gau-14423.inp" -scrdir="/home/wagner/chemistry/gaussian/work/"
 Entering Link 1 = /home/wagner/chemistry/gaussian/g16/l1.exe PID=     14425.
  
 Copyright (c) 1988-2019, Gaussian, Inc.  All Rights Reserved.
  
 This is part of the Gaussian(R) 16 program.  It is based on
 the Gaussian(R) 09 system (copyright 2009, Gaussian, Inc.),
 the Gaussian(R) 03 system (copyright 2003, Gaussian, Inc.),
 the Gaussian(R) 98 system (copyright 1998, Gaussian, Inc.),
 the Gaussian(R) 94 system (copyright 1995, Gaussian, Inc.),
 the Gaussian 92(TM) system (copyright 1992, Gaussian, Inc.),
 the Gaussian 90(TM) system (copyright 1990, Gaussian, Inc.),
 the Gaussian 88(TM) system (copyright 1988, Gaussian, Inc.),
 the Gaussian 86(TM) system (copyright 1986, Carnegie Mellon
 University), and the Gaussian 82(TM) system (copyright 1983,
 Carnegie Mellon University). Gaussian is a federally registered
 trademark of Gaussian, Inc.
  
 This software contains proprietary and confidential information,
 including trade secrets, belonging to Gaussian, Inc.
  
 This software is provided under written license and may be
 used, copied, transmitted, or stored only in accord with that
 written license.
  
 The following legend is applicable only to US Government
 contracts under FAR:
  
                    RESTRICTED RIGHTS LEGEND
  
 Use, reproduction and disclosure by the US Government is
 subject to restrictions as set forth in subparagraphs (a)
 and (c) of the Commercial Computer Software - Restricted
 Rights clause in FAR 52.227-19.
  
 Gaussian, Inc.
 340 Quinnipiac St., Bldg. 40, Wallingford CT 06492
  
  
 ---------------------------------------------------------------
 Warning -- This program may not be used in any manner that
 competes with the business of Gaussian, Inc. or will provide
 assistance to any competitor of Gaussian, Inc.  The licensee
 of this program is prohibited from giving any competitor of
 Gaussian, Inc. access to this program.  By using this program,
 the user acknowledges that Gaussian, Inc. is engaged in the
 business of creating and licensing software in the field of
 computational chemistry and represents and warrants to the
 licensee that it is not a competitor of Gaussian, Inc. and that
 it will not use this program in any manner prohibited above.
 ---------------------------------------------------------------
  

 Cite this work as:
 Gaussian 16, Revision C.01,
 M. J. Frisch, G. W. Trucks, H. B. Schlegel, G. E. Scuseria, 
 M. A. Robb, J. R. Cheeseman, G. Scalmani, V. Barone, 
 G. A. Petersson, H. Nakatsuji, X. Li, M. Caricato, A. V. Marenich, 
 J. Bloino, B. G. Janesko, R. Gomperts, B. Mennucci, H. P. Hratchian, 
 J. V. Ortiz, A. F. Izmaylov, J. L. Sonnenberg, D. Williams-Young, 
 F. Ding, F. Lipparini, F. Egidi, J. Goings, B. Peng, A. Petrone, 
 T. Henderson, D. Ranasinghe, V. G. Zakrzewski, J. Gao, N. Rega, 
 G. Zheng, W. Liang, M. Hada, M. Ehara, K. Toyota, R. Fukuda, 
 J. Hasegawa, M. Ishida, T. Nakajima, Y. Honda, O. Kitao, H. Nakai, 
 T. Vreven, K. Throssell, J. A. Montgomery, Jr., J. E. Peralta, 
 F. Ogliaro, M. J. Bearpark, J. J. Heyd, E. N. Brothers, K. N. Kudin, 
 V. N. Staroverov, T. A. Keith, R. Kobayashi, J. Normand, 
 K. Raghavachari, A. P. Rendell, J. C. Burant, S. S. Iyengar, 
 J. Tomasi, M. Cossi, J. M. Millam, M. Klene, C. Adamo, R. Cammi, 
 J. W. Ochterski, R. L. Martin, K. Morokuma, O. Farkas, 
 J. B. Foresman, and D. J. Fox, Gaussian, Inc., Wallingford CT, 2019.
 
 ******************************************
 Gaussian 16:  EM64L-G16RevC.01  3-Jul-2019
                 6-Sep-2022 
 ******************************************
 %nproc=16
 Will use up to   16 processors via shared memory.
 %mem=16GB
 ----------------------------------------------------------------------
 # qcisd/aug-cc-pvtz nosymm density=current pop=(chelpg,hirshfeld,npa,d
 ipole)
 ----------------------------------------------------------------------
 1/30=1,38=1,172=1/1;
 2/12=2,15=1,17=6,18=5,40=1/2;
 3/5=16,6=1,7=10,11=9,25=1,30=1,71=1/1,2,3;
 4//1;
 5/5=2,38=5/2;
 8/6=4,9=120000,10=1/1,4;
 9/5=8,15=1/13;
 11/28=-7,31=1,32=3,42=3/11;
 10/5=6,13=10,31=1/2;
 6/7=2,8=2,9=2,10=2,15=24,20=3,22=-1,40=-1,79=1/1,2,7;
 99/5=1,9=1/99;
 ------------------
 br2cs-wavefunction
 ------------------
 Symbolic Z-matrix:
 Charge =  0 Multiplicity = 1
 C                     0.        0.       -0.51945 
 S                     0.        0.        1.08369 
 Br                    0.       -1.56852  -1.57857 
 Br                    0.        1.56852  -1.56857 
 
                          Input orientation:                          
 ---------------------------------------------------------------------
 Center     Atomic      Atomic             Coordinates (Angstroms)
 Number     Number       Type             X           Y           Z
 ---------------------------------------------------------------------
      1          6           0        0.000000    0.000000   -0.519451
      2         16           0        0.000000    0.000000    1.083692
      3         35           0        0.000000   -1.568516   -1.578570
      4         35           0        0.000000    1.568516   -1.568570
 ---------------------------------------------------------------------
                    Distance matrix (angstroms):
                    1          2          3          4
     1  C    0.000000
     2  S    1.603143   0.000000
     3  Br   1.892611   3.089965   0.000000
     4  Br   1.887033   3.081353   3.137048   0.000000
 Symmetry turned off by external request.
 Stoichiometry    CBr2S
 Framework group  CS[SG(CBr2S)]
 Deg. of freedom     5
 Full point group                 CS      NOp   2
 Rotational constants (GHZ):           2.6338697           1.3014355           0.8710408
 Standard basis: Aug-CC-pVTZ (5D, 7F)
   214 basis functions,   620 primitive gaussians,   252 cartesian basis functions
    46 alpha electrons       46 beta electrons
       nuclear repulsion energy       548.0110159031 Hartrees.
 NAtoms=    4 NActive=    4 NUniq=    4 SFac= 1.00D+00 NAtFMM=   60 NAOKFM=F Big=F
 Integral buffers will be    131072 words long.
 Raffenetti 1 integral format.
 Two-electron integral symmetry is turned off.
 One-electron integrals computed using PRISM.
 NBasis=   214 RedAO= T EigKep=  7.87D-05  NBF=   214
 NBsUse=   214 1.00D-06 EigRej= -1.00D+00 NBFU=   214
 ExpMin= 3.51D-02 ExpMax= 1.06D+07 ExpMxC= 1.21D+04 IAcc=3 IRadAn=         5 AccDes= 0.00D+00
 Harris functional with IExCor=  205 and IRadAn=       5 diagonalized for initial guess.
 HarFok:  IExCor=  205 AccDes= 0.00D+00 IRadAn=         5 IDoV= 1 UseB2=F ITyADJ=14
 ICtDFT=  3500011 ScaDFX=  1.000000  1.000000  1.000000  1.000000
 FoFCou: FMM=F IPFlag=           0 FMFlag=      100000 FMFlg1=           0
         NFxFlg=           0 DoJE=T BraDBF=F KetDBF=T FulRan=T
         wScrn=  0.000000 ICntrl=       500 IOpCl=  0 I1Cent=   200000004 NGrid=           0
         NMat0=    1 NMatS0=      1 NMatT0=    0 NMatD0=    1 NMtDS0=    0 NMtDT0=    0
 Symmetry not used in FoFCou.
 Keep R1 ints in memory in canonical form, NReq=277853506.
 Requested convergence on RMS density matrix=1.00D-08 within 128 cycles.
 Requested convergence on MAX density matrix=1.00D-06.
 Requested convergence on             energy=1.00D-06.
 No special actions if energy rises.
 SCF Done:  E(RHF) =  -5580.30871103     A.U. after   14 cycles
            NFock= 14  Conv=0.28D-08     -V/T= 2.0000
 ExpMin= 3.51D-02 ExpMax= 1.06D+07 ExpMxC= 1.21D+04 IAcc=3 IRadAn=         5 AccDes= 0.00D+00
 HarFok:  IExCor=  205 AccDes= 0.00D+00 IRadAn=         5 IDoV=-2 UseB2=F ITyADJ=14
 ICtDFT= 12500011 ScaDFX=  1.000000  1.000000  1.000000  1.000000
 GSVD:  LWork=        -768 too small for GESVD, short by        3240 words or        3240 for optimal perf.
 Range of M.O.s used for correlation:    25   214
 NBasis=   214 NAE=    46 NBE=    46 NFC=    24 NFV=     0
 NROrb=    190 NOA=    22 NOB=    22 NVA=   168 NVB=   168

 **** Warning!!: The largest alpha MO coefficient is  0.30790026D+02

 Semi-Direct transformation.
 ModeAB=           2 MOrb=            22 LenV=    2146186059
 LASXX=     69628944 LTotXX=    69628944 LenRXX=    69628944
 LTotAB=    70719517 MaxLAS=   133250040 LenRXY=   133250040
 NonZer=   139257888 LenScr=   209707008 LnRSAI=           0
 LnScr1=           0 LExtra=           0 Total=    412585992
 MaxDsk=          -1 SrtSym=           F ITran=            4
 JobTyp=0 Pass  1:  I=   1 to  22.
 (rs|ai) integrals will be sorted in core.
 Spin components of T(2) and E(2):
     alpha-alpha T2 =       0.4284939698D-01 E2=     -0.1154095095D+00
     alpha-beta  T2 =       0.2164909309D+00 E2=     -0.5792483398D+00
     beta-beta   T2 =       0.4284939698D-01 E2=     -0.1154095095D+00
 ANorm=    0.1141135279D+01
 E2 =    -0.8100673589D+00 EUMP2 =    -0.55811187783920D+04
 Keep R2 and R3 ints in memory in canonical form, NReq=542493935.
 CIDS: In Core Option IDoMem=           1.
 Iterations=  50 Convergence= 0.100D-07
 Produce multiple copies of IABC intergrals
 Iteration Nr.   1
 **********************
 DD1Dir will call FoFMem   1 times, MxPair=       506
 NAB=   253 NAA=     0 NBB=     0.
 MP4(R+Q)=  0.23453852D-01
 E3=       -0.12196796D-01        EUMP3=      -0.55811309752D+04
 E4(DQ)=   -0.49821981D-03        UMP4(DQ)=   -0.55811314734D+04
 E4(SDQ)=  -0.10149826D-01        UMP4(SDQ)=  -0.55811411250D+04
 DE(Corr)= -0.79881030     E(Corr)=     -5581.1075213    
 NORM(A)=   0.11409322D+01
 Iteration Nr.   2
 **********************
 DD1Dir will call FoFMem   1 times, MxPair=       506
 NAB=   253 NAA=     0 NBB=     0.
 DE(Corr)= -0.82752896     E(CORR)=     -5581.1362400     Delta=-2.87D-02
 NORM(A)=   0.11530972D+01
 Iteration Nr.   3
 **********************
 DD1Dir will call FoFMem   1 times, MxPair=       506
 NAB=   253 NAA=     0 NBB=     0.
 DE(Corr)= -0.82613602     E(CORR)=     -5581.1348471     Delta= 1.39D-03
 NORM(A)=   0.11559207D+01
 Iteration Nr.   4
 **********************
 DD1Dir will call FoFMem   1 times, MxPair=       506
 NAB=   253 NAA=     0 NBB=     0.
 DE(Corr)= -0.82847774     E(CORR)=     -5581.1371888     Delta=-2.34D-03
 NORM(A)=   0.11572208D+01
 Iteration Nr.   5
 **********************
 DD1Dir will call FoFMem   1 times, MxPair=       506
 NAB=   253 NAA=     0 NBB=     0.
 DE(Corr)= -0.82878515     E(CORR)=     -5581.1374962     Delta=-3.07D-04
 NORM(A)=   0.11578532D+01
 Iteration Nr.   6
 **********************
 DD1Dir will call FoFMem   1 times, MxPair=       506
 NAB=   253 NAA=     0 NBB=     0.
 DE(Corr)= -0.82884942     E(CORR)=     -5581.1375605     Delta=-6.43D-05
 NORM(A)=   0.11579321D+01
 Iteration Nr.   7
 **********************
 DD1Dir will call FoFMem   1 times, MxPair=       506
 NAB=   253 NAA=     0 NBB=     0.
 DE(Corr)= -0.82886110     E(CORR)=     -5581.1375721     Delta=-1.17D-05
 NORM(A)=   0.11579485D+01
 Iteration Nr.   8
 **********************
 DD1Dir will call FoFMem   1 times, MxPair=       506
 NAB=   253 NAA=     0 NBB=     0.
 DE(Corr)= -0.82885725     E(CORR)=     -5581.1375683     Delta= 3.85D-06
 NORM(A)=   0.11579567D+01
 Iteration Nr.   9
 **********************
 DD1Dir will call FoFMem   1 times, MxPair=       506
 NAB=   253 NAA=     0 NBB=     0.
 DE(Corr)= -0.82885891     E(CORR)=     -5581.1375699     Delta=-1.66D-06
 NORM(A)=   0.11579573D+01
 Iteration Nr.  10
 **********************
 DD1Dir will call FoFMem   1 times, MxPair=       506
 NAB=   253 NAA=     0 NBB=     0.
 DE(Corr)= -0.82885904     E(CORR)=     -5581.1375701     Delta=-1.31D-07
 NORM(A)=   0.11579610D+01
 Iteration Nr.  11
 **********************
 DD1Dir will call FoFMem   1 times, MxPair=       506
 NAB=   253 NAA=     0 NBB=     0.
 DE(Corr)= -0.82886059     E(CORR)=     -5581.1375716     Delta=-1.55D-06
 NORM(A)=   0.11579629D+01
 Iteration Nr.  12
 **********************
 DD1Dir will call FoFMem   1 times, MxPair=       506
 NAB=   253 NAA=     0 NBB=     0.
 DE(Corr)= -0.82886067     E(CORR)=     -5581.1375717     Delta=-8.25D-08
 NORM(A)=   0.11579644D+01
 Iteration Nr.  13
 **********************
 DD1Dir will call FoFMem   1 times, MxPair=       506
 NAB=   253 NAA=     0 NBB=     0.
 DE(Corr)= -0.82886129     E(CORR)=     -5581.1375723     Delta=-6.23D-07
 NORM(A)=   0.11579654D+01
 Iteration Nr.  14
 **********************
 DD1Dir will call FoFMem   1 times, MxPair=       506
 NAB=   253 NAA=     0 NBB=     0.
 DE(Corr)= -0.82886130     E(CORR)=     -5581.1375723     Delta=-1.15D-08
 NORM(A)=   0.11579658D+01
 Iteration Nr.  15
 **********************
 DD1Dir will call FoFMem   1 times, MxPair=       506
 NAB=   253 NAA=     0 NBB=     0.
 DE(Corr)= -0.82886142     E(CORR)=     -5581.1375725     Delta=-1.14D-07
 NORM(A)=   0.11579661D+01
 Iteration Nr.  16
 **********************
 DD1Dir will call FoFMem   1 times, MxPair=       506
 NAB=   253 NAA=     0 NBB=     0.
 DE(Corr)= -0.82886144     E(CORR)=     -5581.1375725     Delta=-2.78D-08
 NORM(A)=   0.11579661D+01
 Iteration Nr.  17
 **********************
 DD1Dir will call FoFMem   1 times, MxPair=       506
 NAB=   253 NAA=     0 NBB=     0.
 DE(Corr)= -0.82886143     E(CORR)=     -5581.1375725     Delta= 1.26D-08
 NORM(A)=   0.11579661D+01
 Iteration Nr.  18
 **********************
 DD1Dir will call FoFMem   1 times, MxPair=       506
 NAB=   253 NAA=     0 NBB=     0.
 DE(Corr)= -0.82886145     E(CORR)=     -5581.1375725     Delta=-1.56D-08
 NORM(A)=   0.11579661D+01
 Iteration Nr.  19
 **********************
 DD1Dir will call FoFMem   1 times, MxPair=       506
 NAB=   253 NAA=     0 NBB=     0.
 DE(Corr)= -0.82886145     E(CORR)=     -5581.1375725     Delta= 2.92D-09
 NORM(A)=   0.11579662D+01
 Wavefunction amplitudes converged. E(Corr)=     -5581.1375725    
 Largest amplitude= 7.68D-02

 Z-amplitude iterations

 Iteration Nr.   1
 **********************
 DD1Dir will call FoFMem   1 times, MxPair=       506
 NAB=   253 NAA=     0 NBB=     0.
 DE(Z)= -0.79823934     E(Z)=     -5581.1069504     Delta= 3.06D-02
 NORM(A)=   0.11580248D+01
 Iteration Nr.   2
 **********************
 DD1Dir will call FoFMem   1 times, MxPair=       506
 NAB=   253 NAA=     0 NBB=     0.
 DE(Z)= -0.79823978     E(Z)=     -5581.1069508     Delta=-4.37D-07
 NORM(A)=   0.11580324D+01
 Iteration Nr.   3
 **********************
 DD1Dir will call FoFMem   1 times, MxPair=       506
 NAB=   253 NAA=     0 NBB=     0.
 DE(Z)= -0.79823977     E(Z)=     -5581.1069508     Delta= 9.27D-09
 NORM(A)=   0.11580421D+01
 Iteration Nr.   4
 **********************
 DD1Dir will call FoFMem   1 times, MxPair=       506
 NAB=   253 NAA=     0 NBB=     0.
 DE(Z)= -0.79823991     E(Z)=     -5581.1069509     Delta=-1.43D-07
 NORM(A)=   0.11581453D+01
 Iteration Nr.   5
 **********************
 DD1Dir will call FoFMem   1 times, MxPair=       506
 NAB=   253 NAA=     0 NBB=     0.
 DE(Z)= -0.79824101     E(Z)=     -5581.1069520     Delta=-1.09D-06
 NORM(A)=   0.11447303D+01
 Iteration Nr.   6
 **********************
 DD1Dir will call FoFMem   1 times, MxPair=       506
 NAB=   253 NAA=     0 NBB=     0.
 DE(Z)= -0.79812080     E(Z)=     -5581.1068318     Delta= 1.20D-04
 NORM(A)=   0.11447304D+01
 Iteration Nr.   7
 **********************
 DD1Dir will call FoFMem   1 times, MxPair=       506
 NAB=   253 NAA=     0 NBB=     0.
 DE(Z)= -0.79811780     E(Z)=     -5581.1068288     Delta= 3.00D-06
 NORM(A)=   0.11447295D+01
 Iteration Nr.   8
 **********************
 DD1Dir will call FoFMem   1 times, MxPair=       506
 NAB=   253 NAA=     0 NBB=     0.
 DE(Z)= -0.79811880     E(Z)=     -5581.1068298     Delta=-9.97D-07
 NORM(A)=   0.11447295D+01
 Iteration Nr.   9
 **********************
 DD1Dir will call FoFMem   1 times, MxPair=       506
 NAB=   253 NAA=     0 NBB=     0.
 DE(Z)= -0.79811811     E(Z)=     -5581.1068291     Delta= 6.89D-07
 NORM(A)=   0.11447295D+01
 Iteration Nr.  10
 **********************
 DD1Dir will call FoFMem   1 times, MxPair=       506
 NAB=   253 NAA=     0 NBB=     0.
 DE(Z)= -0.79811804     E(Z)=     -5581.1068291     Delta= 7.44D-08
 NORM(A)=   0.11447298D+01
 Iteration Nr.  11
 **********************
 DD1Dir will call FoFMem   1 times, MxPair=       506
 NAB=   253 NAA=     0 NBB=     0.
 DE(Z)= -0.79811807     E(Z)=     -5581.1068291     Delta=-3.24D-08
 NORM(A)=   0.11447300D+01
 Iteration Nr.  12
 **********************
 DD1Dir will call FoFMem   1 times, MxPair=       506
 NAB=   253 NAA=     0 NBB=     0.
 DE(Z)= -0.79811806     E(Z)=     -5581.1068291     Delta= 5.89D-09
 NORM(A)=   0.11447301D+01
 Z-amplitudes converged.
 Discarding MO integrals.
          Differentiating once with respect to electric field.
                with respect to dipole field.
          Electric field/nuclear overlap derivatives assumed to be zero.
 Keep R1 ints in memory in canonical form, NReq=277859909.
          There are     1 degrees of freedom in the 1st order CPHF.  IDoFFX=0 NUNeed=     1.
 LinEq1:  Iter=  0 NonCon=     1 RMS=1.78D-03 Max=6.59D-02 NDo=     1
 AX will form     1 AO Fock derivatives at one time.
 LinEq1:  Iter=  1 NonCon=     1 RMS=8.39D-04 Max=1.80D-02 NDo=     1
 LinEq1:  Iter=  2 NonCon=     1 RMS=3.80D-04 Max=1.47D-02 NDo=     1
 LinEq1:  Iter=  3 NonCon=     1 RMS=1.25D-04 Max=4.29D-03 NDo=     1
 LinEq1:  Iter=  4 NonCon=     1 RMS=4.83D-05 Max=9.47D-04 NDo=     1
 LinEq1:  Iter=  5 NonCon=     1 RMS=9.54D-06 Max=1.71D-04 NDo=     1
 LinEq1:  Iter=  6 NonCon=     1 RMS=3.28D-06 Max=8.41D-05 NDo=     1
 LinEq1:  Iter=  7 NonCon=     1 RMS=7.21D-07 Max=2.34D-05 NDo=     1
 LinEq1:  Iter=  8 NonCon=     1 RMS=1.42D-07 Max=4.27D-06 NDo=     1
 LinEq1:  Iter=  9 NonCon=     1 RMS=3.45D-08 Max=1.01D-06 NDo=     1
 LinEq1:  Iter= 10 NonCon=     1 RMS=9.58D-09 Max=2.11D-07 NDo=     1
 LinEq1:  Iter= 11 NonCon=     1 RMS=1.99D-09 Max=4.97D-08 NDo=     1
 LinEq1:  Iter= 12 NonCon=     1 RMS=4.13D-10 Max=9.48D-09 NDo=     1
 LinEq1:  Iter= 13 NonCon=     1 RMS=1.27D-10 Max=1.78D-09 NDo=     1
 LinEq1:  Iter= 14 NonCon=     0 RMS=3.02D-11 Max=5.31D-10 NDo=     1
 Linear equations converged to 1.000D-10 1.000D-09 after    14 iterations.
 End of Minotr F.D. properties file   721 does not exist.
 End of Minotr F.D. properties file   722 does not exist.
 End of Minotr F.D. properties file   788 does not exist.

 **********************************************************************

            Population analysis using the CC Density.

 **********************************************************************

 Alpha  occ. eigenvalues -- -490.06378-490.06359 -91.97975 -65.20362 -65.20339
 Alpha  occ. eigenvalues --  -58.55895 -58.55873 -58.55745 -58.55726 -58.55722
 Alpha  occ. eigenvalues --  -58.55704 -11.43364  -9.87672  -9.87644  -8.98247
 Alpha  occ. eigenvalues --   -7.48866  -7.48837  -7.48139  -7.48109  -7.48059
 Alpha  occ. eigenvalues --   -7.48031  -6.66315  -6.66230  -6.66074  -3.23273
 Alpha  occ. eigenvalues --   -3.23245  -3.22913  -3.22885  -3.22804  -3.22777
 Alpha  occ. eigenvalues --   -3.21881  -3.21878  -3.21851  -3.21848  -1.16871
 Alpha  occ. eigenvalues --   -1.04209  -1.01463  -0.74041  -0.59779  -0.58348
 Alpha  occ. eigenvalues --   -0.54101  -0.46245  -0.44574  -0.42907  -0.39682
 Alpha  occ. eigenvalues --   -0.37151
 Alpha virt. eigenvalues --    0.01311   0.04684   0.05708   0.06072   0.08396
 Alpha virt. eigenvalues --    0.08956   0.09171   0.10091   0.11083   0.11461
 Alpha virt. eigenvalues --    0.12033   0.13415   0.14438   0.15462   0.15754
 Alpha virt. eigenvalues --    0.16987   0.18628   0.22160   0.23679   0.23993
 Alpha virt. eigenvalues --    0.24131   0.27587   0.29938   0.30869   0.33032
 Alpha virt. eigenvalues --    0.33995   0.34203   0.35558   0.35947   0.36814
 Alpha virt. eigenvalues --    0.37295   0.39644   0.40107   0.42903   0.43664
 Alpha virt. eigenvalues --    0.46308   0.47989   0.48176   0.48439   0.48749
 Alpha virt. eigenvalues --    0.48877   0.51274   0.57601   0.58718   0.58979
 Alpha virt. eigenvalues --    0.60659   0.65443   0.66473   0.68542   0.70401
 Alpha virt. eigenvalues --    0.71719   0.74670   0.75275   0.76094   0.76451
 Alpha virt. eigenvalues --    0.77091   0.78356   0.78547   0.78665   0.80070
 Alpha virt. eigenvalues --    0.81325   0.81402   0.85015   0.85994   0.88446
 Alpha virt. eigenvalues --    0.89132   0.89960   0.91673   0.93670   0.94799
 Alpha virt. eigenvalues --    0.95692   1.01182   1.01767   1.03435   1.03742
 Alpha virt. eigenvalues --    1.04526   1.04653   1.14683   1.15251   1.16053
 Alpha virt. eigenvalues --    1.17574   1.19020   1.19690   1.22408   1.26149
 Alpha virt. eigenvalues --    1.27789   1.32648   1.35225   1.38646   1.45523
 Alpha virt. eigenvalues --    1.46877   1.49482   1.51863   1.52445   1.53330
 Alpha virt. eigenvalues --    1.53884   1.54712   1.63508   1.72000   1.72333
 Alpha virt. eigenvalues --    1.74195   1.74453   1.92067   1.98009   2.07419
 Alpha virt. eigenvalues --    2.09732   2.13926   2.16446   2.17733   2.19259
 Alpha virt. eigenvalues --    2.21357   2.24525   2.27552   2.27577   2.28316
 Alpha virt. eigenvalues --    2.28571   2.29126   2.29992   2.32352   2.32618
 Alpha virt. eigenvalues --    2.32679   2.33826   2.34135   2.35491   2.36365
 Alpha virt. eigenvalues --    2.36711   2.37048   2.38126   2.39420   2.40861
 Alpha virt. eigenvalues --    2.41246   2.42646   2.43347   2.46393   2.46737
 Alpha virt. eigenvalues --    2.53225   2.53895   2.54991   2.57056   2.60407
 Alpha virt. eigenvalues --    2.62239   2.68889   2.70449   2.71866   2.89693
 Alpha virt. eigenvalues --    2.91595   2.93722   3.07481   3.30507   3.38558
 Alpha virt. eigenvalues --    3.59169   3.64796   3.65435   3.67189   3.76091
 Alpha virt. eigenvalues --    3.77343   3.84035   3.87198   3.90527   4.05719
 Alpha virt. eigenvalues --    4.06134   4.14229   4.16042   4.18758   5.07242
 Alpha virt. eigenvalues --    5.10577   6.44024   9.48072
          Condensed to atoms (all electrons):
               1          2          3          4
     1  C    6.384331  -0.028399  -0.095294  -0.097505
     2  S   -0.028399  16.454914  -0.189070  -0.190987
     3  Br  -0.095294  -0.189070  35.319259  -0.136494
     4  Br  -0.097505  -0.190987  -0.136494  35.316993
 Mulliken charges:
               1
     1  C   -0.163133
     2  S   -0.046458
     3  Br   0.101599
     4  Br   0.107992
 Sum of Mulliken charges =  -0.00000
 Mulliken charges with hydrogens summed into heavy atoms:
               1
     1  C   -0.163133
     2  S   -0.046458
     3  Br   0.101599
     4  Br   0.107992
 Electronic spatial extent (au):  <R**2>=           1427.6874
 Charge=             -0.0000 electrons
 Dipole moment (field-independent basis, Debye):
    X=              0.0000    Y=              0.0161    Z=             -0.4890  Tot=              0.4893
 Quadrupole moment (field-independent basis, Debye-Ang):
   XX=            -54.9471   YY=            -53.7847   ZZ=            -53.7927
   XY=              0.0000   XZ=             -0.0000   YZ=             -0.0060
 Traceless Quadrupole moment (field-independent basis, Debye-Ang):
   XX=             -0.7722   YY=              0.3901   ZZ=              0.3821
   XY=              0.0000   XZ=             -0.0000   YZ=             -0.0060
 Octapole moment (field-independent basis, Debye-Ang**2):
  XXX=              0.0000  YYY=              0.1212  ZZZ=            140.7256  XYY=              0.0000
  XXY=              0.0239  XXZ=             47.5721  XZZ=             -0.0000  YZZ=             -0.0128
  YYZ=             35.1358  XYZ=             -0.0000
 Hexadecapole moment (field-independent basis, Debye-Ang**3):
 XXXX=            -67.2232 YYYY=           -571.9278 ZZZZ=           -697.3058 XXXY=              0.0000
 XXXZ=             -0.0000 YYYX=              0.0000 YYYZ=             -0.9227 ZZZX=             -0.0000
 ZZZY=             -0.6735 XXYY=           -113.4992 XXZZ=           -129.9114 YYZZ=           -194.4733
 XXYZ=             -0.3130 YYXZ=             -0.0000 ZZXY=              0.0000
 N-N= 5.480110159031D+02 E-N=-1.443721908878D+04  KE= 5.579855130088D+03
 There are a total of      107126 grid points.
 ElSum from          density=       92.0000012420
 ElSum from atomic densities=       92.0000004388

 Hirshfeld populations at iteration   1 (CX, CA, CB, DipXYZ):
               1          2          3          4          5          6
     1  C    0.000001   2.983142   2.983142   0.000000  -0.000335  -0.108978
     2  S    0.000013   8.028432   8.028432   0.000000   0.000891   0.160331
     3  Br   0.000023  17.494672  17.494672  -0.000000  -0.064481  -0.013155
     4  Br   0.000023  17.493755  17.493755   0.000000   0.064818  -0.012232
       Tot   0.000061  46.000001  46.000001  -0.000000   0.000892   0.025966

 Dip from Atomic Chgs              0.000000   0.005435  -0.218361
         Total Dipole             -0.000000   0.006328  -0.192395

 Hirshfeld charges, spin densities, dipoles, and CM5 charges using IRadAn=      5:
              Q-H        S-H        Dx         Dy         Dz        Q-CM5   
     1  C    0.033715   0.000000   0.000000  -0.000335  -0.108978   0.023946
     2  S   -0.056864   0.000000   0.000000   0.000891   0.160331  -0.081533
     3  Br   0.010657   0.000000  -0.000000  -0.064481  -0.013155   0.027747
     4  Br   0.012491   0.000000   0.000000   0.064818  -0.012232   0.029840
       Tot  -0.000001   0.000000  -0.000000   0.000892   0.025966  -0.000001
 Hirshfeld charges with hydrogens summed into heavy atoms:
              Q-H       Q-CM5   
     1  C    0.033715   0.023946
     2  S   -0.056864  -0.081533
     3  Br   0.010657   0.027747
     4  Br   0.012491   0.029840
 
 EQQ= 0.000000000000E+00 EQD= 0.000000000000E+00 EDD=-0.607506925855E-03
 EQQ+QD+DD=-0.607506925855E-03
 
 Breneman (CHELPG) radii used.
 GetVDW:  no radius for atom   3 atomic number  35.
 Error termination via Lnk1e in /home/wagner/chemistry/gaussian/g16/l602.exe at Tue Sep  6 13:17:12 2022.
 Job cpu time:       0 days 14 hours  8 minutes  1.5 seconds.
 Elapsed time:       0 days  0 hours 53 minutes 30.5 seconds.
 File lengths (MBytes):  RWF=  31411 Int=      0 D2E=      0 Chk=      2 Scr=      1
