 Entering Gaussian System, Link 0=/home/wagner/chemistry/gaussian/g16/g16
 Input=GAUSSIAN.com
 Output=GAUSSIAN.log
 Initial command:
 /home/wagner/chemistry/gaussian/g16/l1.exe "/home/wagner/chemistry/gaussian/work/Gau-10367.inp" -scrdir="/home/wagner/chemistry/gaussian/work/"
 Entering Link 1 = /home/wagner/chemistry/gaussian/g16/l1.exe PID=     10369.
  
 Copyright (c) 1988-2019, Gaussian, Inc.  All Rights Reserved.
  
 This is part of the Gaussian(R) 16 program.  It is based on
 the Gaussian(R) 09 system (copyright 2009, Gaussian, Inc.),
 the Gaussian(R) 03 system (copyright 2003, Gaussian, Inc.),
 the Gaussian(R) 98 system (copyright 1998, Gaussian, Inc.),
 the Gaussian(R) 94 system (copyright 1995, Gaussian, Inc.),
 the Gaussian 92(TM) system (copyright 1992, Gaussian, Inc.),
 the Gaussian 90(TM) system (copyright 1990, Gaussian, Inc.),
 the Gaussian 88(TM) system (copyright 1988, Gaussian, Inc.),
 the Gaussian 86(TM) system (copyright 1986, Carnegie Mellon
 University), and the Gaussian 82(TM) system (copyright 1983,
 Carnegie Mellon University). Gaussian is a federally registered
 trademark of Gaussian, Inc.
  
 This software contains proprietary and confidential information,
 including trade secrets, belonging to Gaussian, Inc.
  
 This software is provided under written license and may be
 used, copied, transmitted, or stored only in accord with that
 written license.
  
 The following legend is applicable only to US Government
 contracts under FAR:
  
                    RESTRICTED RIGHTS LEGEND
  
 Use, reproduction and disclosure by the US Government is
 subject to restrictions as set forth in subparagraphs (a)
 and (c) of the Commercial Computer Software - Restricted
 Rights clause in FAR 52.227-19.
  
 Gaussian, Inc.
 340 Quinnipiac St., Bldg. 40, Wallingford CT 06492
  
  
 ---------------------------------------------------------------
 Warning -- This program may not be used in any manner that
 competes with the business of Gaussian, Inc. or will provide
 assistance to any competitor of Gaussian, Inc.  The licensee
 of this program is prohibited from giving any competitor of
 Gaussian, Inc. access to this program.  By using this program,
 the user acknowledges that Gaussian, Inc. is engaged in the
 business of creating and licensing software in the field of
 computational chemistry and represents and warrants to the
 licensee that it is not a competitor of Gaussian, Inc. and that
 it will not use this program in any manner prohibited above.
 ---------------------------------------------------------------
  

 Cite this work as:
 Gaussian 16, Revision C.01,
 M. J. Frisch, G. W. Trucks, H. B. Schlegel, G. E. Scuseria, 
 M. A. Robb, J. R. Cheeseman, G. Scalmani, V. Barone, 
 G. A. Petersson, H. Nakatsuji, X. Li, M. Caricato, A. V. Marenich, 
 J. Bloino, B. G. Janesko, R. Gomperts, B. Mennucci, H. P. Hratchian, 
 J. V. Ortiz, A. F. Izmaylov, J. L. Sonnenberg, D. Williams-Young, 
 F. Ding, F. Lipparini, F. Egidi, J. Goings, B. Peng, A. Petrone, 
 T. Henderson, D. Ranasinghe, V. G. Zakrzewski, J. Gao, N. Rega, 
 G. Zheng, W. Liang, M. Hada, M. Ehara, K. Toyota, R. Fukuda, 
 J. Hasegawa, M. Ishida, T. Nakajima, Y. Honda, O. Kitao, H. Nakai, 
 T. Vreven, K. Throssell, J. A. Montgomery, Jr., J. E. Peralta, 
 F. Ogliaro, M. J. Bearpark, J. J. Heyd, E. N. Brothers, K. N. Kudin, 
 V. N. Staroverov, T. A. Keith, R. Kobayashi, J. Normand, 
 K. Raghavachari, A. P. Rendell, J. C. Burant, S. S. Iyengar, 
 J. Tomasi, M. Cossi, J. M. Millam, M. Klene, C. Adamo, R. Cammi, 
 J. W. Ochterski, R. L. Martin, K. Morokuma, O. Farkas, 
 J. B. Foresman, and D. J. Fox, Gaussian, Inc., Wallingford CT, 2019.
 
 ******************************************
 Gaussian 16:  EM64L-G16RevC.01  3-Jul-2019
                 6-Sep-2022 
 ******************************************
 %nproc=16
 Will use up to   16 processors via shared memory.
 %mem=16GB
 ----------------------------------------------------------------------
 # qcisd/aug-cc-pvtz nosymm density=current pop=(chelpg,hirshfeld,npa,d
 ipole)
 ----------------------------------------------------------------------
 1/30=1,38=1,172=1/1;
 2/12=2,15=1,17=6,18=5,40=1/2;
 3/5=16,6=1,7=10,11=9,25=1,30=1,71=1/1,2,3;
 4//1;
 5/5=2,38=5/2;
 8/6=4,9=120000,10=1/1,4;
 9/5=8,15=1/13;
 11/28=-7,31=1,32=3,42=3/11;
 10/5=6,13=10,31=1/2;
 6/7=2,8=2,9=2,10=2,15=24,20=3,22=-1,40=-1,79=1/1,2,7;
 99/5=1,9=1/99;
 ------------------
 br2cs-wavefunction
 ------------------
 Symbolic Z-matrix:
 Charge =  0 Multiplicity = 1
 C                     0.        0.       -0.51945 
 S                     0.        0.        1.08369 
 Br                    0.       -1.56852  -1.58857 
 Br                    0.        1.56852  -1.57857 
 
                          Input orientation:                          
 ---------------------------------------------------------------------
 Center     Atomic      Atomic             Coordinates (Angstroms)
 Number     Number       Type             X           Y           Z
 ---------------------------------------------------------------------
      1          6           0        0.000000    0.000000   -0.519451
      2         16           0        0.000000    0.000000    1.083692
      3         35           0        0.000000   -1.568516   -1.588570
      4         35           0        0.000000    1.568516   -1.578570
 ---------------------------------------------------------------------
                    Distance matrix (angstroms):
                    1          2          3          4
     1  C    0.000000
     2  S    1.603143   0.000000
     3  Br   1.898225   3.098585   0.000000
     4  Br   1.892611   3.089965   3.137048   0.000000
 Symmetry turned off by external request.
 Stoichiometry    CBr2S
 Framework group  CS[SG(CBr2S)]
 Deg. of freedom     5
 Full point group                 CS      NOp   2
 Rotational constants (GHZ):           2.6130313           1.3014353           0.8687496
 Standard basis: Aug-CC-pVTZ (5D, 7F)
   214 basis functions,   620 primitive gaussians,   252 cartesian basis functions
    46 alpha electrons       46 beta electrons
       nuclear repulsion energy       547.1289734387 Hartrees.
 NAtoms=    4 NActive=    4 NUniq=    4 SFac= 1.00D+00 NAtFMM=   60 NAOKFM=F Big=F
 Integral buffers will be    131072 words long.
 Raffenetti 1 integral format.
 Two-electron integral symmetry is turned off.
 One-electron integrals computed using PRISM.
 NBasis=   214 RedAO= T EigKep=  7.91D-05  NBF=   214
 NBsUse=   214 1.00D-06 EigRej= -1.00D+00 NBFU=   214
 ExpMin= 3.51D-02 ExpMax= 1.06D+07 ExpMxC= 1.21D+04 IAcc=3 IRadAn=         5 AccDes= 0.00D+00
 Harris functional with IExCor=  205 and IRadAn=       5 diagonalized for initial guess.
 HarFok:  IExCor=  205 AccDes= 0.00D+00 IRadAn=         5 IDoV= 1 UseB2=F ITyADJ=14
 ICtDFT=  3500011 ScaDFX=  1.000000  1.000000  1.000000  1.000000
 FoFCou: FMM=F IPFlag=           0 FMFlag=      100000 FMFlg1=           0
         NFxFlg=           0 DoJE=T BraDBF=F KetDBF=T FulRan=T
         wScrn=  0.000000 ICntrl=       500 IOpCl=  0 I1Cent=   200000004 NGrid=           0
         NMat0=    1 NMatS0=      1 NMatT0=    0 NMatD0=    1 NMtDS0=    0 NMtDT0=    0
 Symmetry not used in FoFCou.
 Keep R1 ints in memory in canonical form, NReq=277853319.
 Requested convergence on RMS density matrix=1.00D-08 within 128 cycles.
 Requested convergence on MAX density matrix=1.00D-06.
 Requested convergence on             energy=1.00D-06.
 No special actions if energy rises.
 SCF Done:  E(RHF) =  -5580.30861935     A.U. after   14 cycles
            NFock= 14  Conv=0.29D-08     -V/T= 2.0000
 ExpMin= 3.51D-02 ExpMax= 1.06D+07 ExpMxC= 1.21D+04 IAcc=3 IRadAn=         5 AccDes= 0.00D+00
 HarFok:  IExCor=  205 AccDes= 0.00D+00 IRadAn=         5 IDoV=-2 UseB2=F ITyADJ=14
 ICtDFT= 12500011 ScaDFX=  1.000000  1.000000  1.000000  1.000000
 GSVD:  LWork=        -768 too small for GESVD, short by        3240 words or        3240 for optimal perf.
 Range of M.O.s used for correlation:    25   214
 NBasis=   214 NAE=    46 NBE=    46 NFC=    24 NFV=     0
 NROrb=    190 NOA=    22 NOB=    22 NVA=   168 NVB=   168

 **** Warning!!: The largest alpha MO coefficient is  0.30729846D+02

 Semi-Direct transformation.
 ModeAB=           2 MOrb=            22 LenV=    2146186143
 LASXX=     69628944 LTotXX=    69628944 LenRXX=    69628944
 LTotAB=    70719517 MaxLAS=   133250040 LenRXY=   133250040
 NonZer=   139257888 LenScr=   209707008 LnRSAI=           0
 LnScr1=           0 LExtra=           0 Total=    412585992
 MaxDsk=          -1 SrtSym=           F ITran=            4
 JobTyp=0 Pass  1:  I=   1 to  22.
 (rs|ai) integrals will be sorted in core.
 Spin components of T(2) and E(2):
     alpha-alpha T2 =       0.4290025451D-01 E2=     -0.1153913044D+00
     alpha-beta  T2 =       0.2168280935D+00 E2=     -0.5793620619D+00
     beta-beta   T2 =       0.4290025451D-01 E2=     -0.1153913044D+00
 ANorm=    0.1141327561D+01
 E2 =    -0.8101446706D+00 EUMP2 =    -0.55811187640247D+04
 Keep R2 and R3 ints in memory in canonical form, NReq=542493748.
 CIDS: In Core Option IDoMem=           1.
 Iterations=  50 Convergence= 0.100D-07
 Produce multiple copies of IABC intergrals
 Iteration Nr.   1
 **********************
 DD1Dir will call FoFMem   1 times, MxPair=       506
 NAB=   253 NAA=     0 NBB=     0.
 MP4(R+Q)=  0.23495758D-01
 E3=       -0.12158505D-01        EUMP3=      -0.55811309225D+04
 E4(DQ)=   -0.52214672D-03        UMP4(DQ)=   -0.55811314447D+04
 E4(SDQ)=  -0.10221376D-01        UMP4(SDQ)=  -0.55811411439D+04
 DE(Corr)= -0.79880742     E(Corr)=     -5581.1074268    
 NORM(A)=   0.11411084D+01
 Iteration Nr.   2
 **********************
 DD1Dir will call FoFMem   1 times, MxPair=       506
 NAB=   253 NAA=     0 NBB=     0.
 DE(Corr)= -0.82762751     E(CORR)=     -5581.1362469     Delta=-2.88D-02
 NORM(A)=   0.11533195D+01
 Iteration Nr.   3
 **********************
 DD1Dir will call FoFMem   1 times, MxPair=       506
 NAB=   253 NAA=     0 NBB=     0.
 DE(Corr)= -0.82620475     E(CORR)=     -5581.1348241     Delta= 1.42D-03
 NORM(A)=   0.11561689D+01
 Iteration Nr.   4
 **********************
 DD1Dir will call FoFMem   1 times, MxPair=       506
 NAB=   253 NAA=     0 NBB=     0.
 DE(Corr)= -0.82856540     E(CORR)=     -5581.1371848     Delta=-2.36D-03
 NORM(A)=   0.11574827D+01
 Iteration Nr.   5
 **********************
 DD1Dir will call FoFMem   1 times, MxPair=       506
 NAB=   253 NAA=     0 NBB=     0.
 DE(Corr)= -0.82887634     E(CORR)=     -5581.1374957     Delta=-3.11D-04
 NORM(A)=   0.11581244D+01
 Iteration Nr.   6
 **********************
 DD1Dir will call FoFMem   1 times, MxPair=       506
 NAB=   253 NAA=     0 NBB=     0.
 DE(Corr)= -0.82894153     E(CORR)=     -5581.1375609     Delta=-6.52D-05
 NORM(A)=   0.11582057D+01
 Iteration Nr.   7
 **********************
 DD1Dir will call FoFMem   1 times, MxPair=       506
 NAB=   253 NAA=     0 NBB=     0.
 DE(Corr)= -0.82895351     E(CORR)=     -5581.1375729     Delta=-1.20D-05
 NORM(A)=   0.11582229D+01
 Iteration Nr.   8
 **********************
 DD1Dir will call FoFMem   1 times, MxPair=       506
 NAB=   253 NAA=     0 NBB=     0.
 DE(Corr)= -0.82894960     E(CORR)=     -5581.1375689     Delta= 3.91D-06
 NORM(A)=   0.11582315D+01
 Iteration Nr.   9
 **********************
 DD1Dir will call FoFMem   1 times, MxPair=       506
 NAB=   253 NAA=     0 NBB=     0.
 DE(Corr)= -0.82895131     E(CORR)=     -5581.1375707     Delta=-1.72D-06
 NORM(A)=   0.11582322D+01
 Iteration Nr.  10
 **********************
 DD1Dir will call FoFMem   1 times, MxPair=       506
 NAB=   253 NAA=     0 NBB=     0.
 DE(Corr)= -0.82895142     E(CORR)=     -5581.1375708     Delta=-1.07D-07
 NORM(A)=   0.11582360D+01
 Iteration Nr.  11
 **********************
 DD1Dir will call FoFMem   1 times, MxPair=       506
 NAB=   253 NAA=     0 NBB=     0.
 DE(Corr)= -0.82895304     E(CORR)=     -5581.1375724     Delta=-1.62D-06
 NORM(A)=   0.11582380D+01
 Iteration Nr.  12
 **********************
 DD1Dir will call FoFMem   1 times, MxPair=       506
 NAB=   253 NAA=     0 NBB=     0.
 DE(Corr)= -0.82895311     E(CORR)=     -5581.1375725     Delta=-7.49D-08
 NORM(A)=   0.11582396D+01
 Iteration Nr.  13
 **********************
 DD1Dir will call FoFMem   1 times, MxPair=       506
 NAB=   253 NAA=     0 NBB=     0.
 DE(Corr)= -0.82895376     E(CORR)=     -5581.1375731     Delta=-6.49D-07
 NORM(A)=   0.11582406D+01
 Iteration Nr.  14
 **********************
 DD1Dir will call FoFMem   1 times, MxPair=       506
 NAB=   253 NAA=     0 NBB=     0.
 DE(Corr)= -0.82895377     E(CORR)=     -5581.1375731     Delta=-1.20D-08
 NORM(A)=   0.11582410D+01
 Iteration Nr.  15
 **********************
 DD1Dir will call FoFMem   1 times, MxPair=       506
 NAB=   253 NAA=     0 NBB=     0.
 DE(Corr)= -0.82895389     E(CORR)=     -5581.1375732     Delta=-1.18D-07
 NORM(A)=   0.11582412D+01
 Iteration Nr.  16
 **********************
 DD1Dir will call FoFMem   1 times, MxPair=       506
 NAB=   253 NAA=     0 NBB=     0.
 DE(Corr)= -0.82895392     E(CORR)=     -5581.1375733     Delta=-2.97D-08
 NORM(A)=   0.11582413D+01
 Iteration Nr.  17
 **********************
 DD1Dir will call FoFMem   1 times, MxPair=       506
 NAB=   253 NAA=     0 NBB=     0.
 DE(Corr)= -0.82895391     E(CORR)=     -5581.1375733     Delta= 1.32D-08
 NORM(A)=   0.11582413D+01
 Iteration Nr.  18
 **********************
 DD1Dir will call FoFMem   1 times, MxPair=       506
 NAB=   253 NAA=     0 NBB=     0.
 DE(Corr)= -0.82895392     E(CORR)=     -5581.1375733     Delta=-1.64D-08
 NORM(A)=   0.11582413D+01
 Iteration Nr.  19
 **********************
 DD1Dir will call FoFMem   1 times, MxPair=       506
 NAB=   253 NAA=     0 NBB=     0.
 DE(Corr)= -0.82895392     E(CORR)=     -5581.1375733     Delta= 3.36D-09
 NORM(A)=   0.11582414D+01
 Wavefunction amplitudes converged. E(Corr)=     -5581.1375733    
 Largest amplitude= 7.66D-02

 Z-amplitude iterations

 Iteration Nr.   1
 **********************
 DD1Dir will call FoFMem   1 times, MxPair=       506
 NAB=   253 NAA=     0 NBB=     0.
 DE(Z)= -0.79825605     E(Z)=     -5581.1068754     Delta= 3.07D-02
 NORM(A)=   0.11583512D+01
 Iteration Nr.   2
 **********************
 DD1Dir will call FoFMem   1 times, MxPair=       506
 NAB=   253 NAA=     0 NBB=     0.
 DE(Z)= -0.79825683     E(Z)=     -5581.1068762     Delta=-7.86D-07
 NORM(A)=   0.11583441D+01
 Iteration Nr.   3
 **********************
 DD1Dir will call FoFMem   1 times, MxPair=       506
 NAB=   253 NAA=     0 NBB=     0.
 DE(Z)= -0.79825668     E(Z)=     -5581.1068760     Delta= 1.49D-07
 NORM(A)=   0.11584332D+01
 Iteration Nr.   4
 **********************
 DD1Dir will call FoFMem   1 times, MxPair=       506
 NAB=   253 NAA=     0 NBB=     0.
 DE(Z)= -0.79825744     E(Z)=     -5581.1068768     Delta=-7.52D-07
 NORM(A)=   0.11585904D+01
 Iteration Nr.   5
 **********************
 DD1Dir will call FoFMem   1 times, MxPair=       506
 NAB=   253 NAA=     0 NBB=     0.
 DE(Z)= -0.79825920     E(Z)=     -5581.1068786     Delta=-1.77D-06
 NORM(A)=   0.11449553D+01
 Iteration Nr.   6
 **********************
 DD1Dir will call FoFMem   1 times, MxPair=       506
 NAB=   253 NAA=     0 NBB=     0.
 DE(Z)= -0.79814050     E(Z)=     -5581.1067599     Delta= 1.19D-04
 NORM(A)=   0.11449555D+01
 Iteration Nr.   7
 **********************
 DD1Dir will call FoFMem   1 times, MxPair=       506
 NAB=   253 NAA=     0 NBB=     0.
 DE(Z)= -0.79813796     E(Z)=     -5581.1067573     Delta= 2.55D-06
 NORM(A)=   0.11449547D+01
 Iteration Nr.   8
 **********************
 DD1Dir will call FoFMem   1 times, MxPair=       506
 NAB=   253 NAA=     0 NBB=     0.
 DE(Z)= -0.79813876     E(Z)=     -5581.1067581     Delta=-8.03D-07
 NORM(A)=   0.11449544D+01
 Iteration Nr.   9
 **********************
 DD1Dir will call FoFMem   1 times, MxPair=       506
 NAB=   253 NAA=     0 NBB=     0.
 DE(Z)= -0.79813791     E(Z)=     -5581.1067573     Delta= 8.47D-07
 NORM(A)=   0.11449545D+01
 Iteration Nr.  10
 **********************
 DD1Dir will call FoFMem   1 times, MxPair=       506
 NAB=   253 NAA=     0 NBB=     0.
 DE(Z)= -0.79813780     E(Z)=     -5581.1067572     Delta= 1.08D-07
 NORM(A)=   0.11449548D+01
 Iteration Nr.  11
 **********************
 DD1Dir will call FoFMem   1 times, MxPair=       506
 NAB=   253 NAA=     0 NBB=     0.
 DE(Z)= -0.79813787     E(Z)=     -5581.1067572     Delta=-7.06D-08
 NORM(A)=   0.11449550D+01
 Iteration Nr.  12
 **********************
 DD1Dir will call FoFMem   1 times, MxPair=       506
 NAB=   253 NAA=     0 NBB=     0.
 DE(Z)= -0.79813786     E(Z)=     -5581.1067572     Delta= 1.63D-08
 NORM(A)=   0.11449548D+01
 Iteration Nr.  13
 **********************
 DD1Dir will call FoFMem   1 times, MxPair=       506
 NAB=   253 NAA=     0 NBB=     0.
 DE(Z)= -0.79813779     E(Z)=     -5581.1067571     Delta= 6.41D-08
 NORM(A)=   0.11449549D+01
 Iteration Nr.  14
 **********************
 DD1Dir will call FoFMem   1 times, MxPair=       506
 NAB=   253 NAA=     0 NBB=     0.
 DE(Z)= -0.79813780     E(Z)=     -5581.1067572     Delta=-8.63D-09
 NORM(A)=   0.11449548D+01
 Iteration Nr.  15
 **********************
 DD1Dir will call FoFMem   1 times, MxPair=       506
 NAB=   253 NAA=     0 NBB=     0.
 DE(Z)= -0.79813788     E(Z)=     -5581.1067572     Delta=-7.36D-08
 NORM(A)=   0.11449554D+01
 Iteration Nr.  16
 **********************
 DD1Dir will call FoFMem   1 times, MxPair=       506
 NAB=   253 NAA=     0 NBB=     0.
 DE(Z)= -0.79813777     E(Z)=     -5581.1067571     Delta= 1.04D-07
 NORM(A)=   0.11449547D+01
 Iteration Nr.  17
 **********************
 DD1Dir will call FoFMem   1 times, MxPair=       506
 NAB=   253 NAA=     0 NBB=     0.
 DE(Z)= -0.79813789     E(Z)=     -5581.1067572     Delta=-1.21D-07
 NORM(A)=   0.11449550D+01
 Iteration Nr.  18
 **********************
 DD1Dir will call FoFMem   1 times, MxPair=       506
 NAB=   253 NAA=     0 NBB=     0.
 DE(Z)= -0.79813789     E(Z)=     -5581.1067572     Delta= 3.97D-09
 NORM(A)=   0.11449552D+01
 Z-amplitudes converged.
 Discarding MO integrals.
          Differentiating once with respect to electric field.
                with respect to dipole field.
          Electric field/nuclear overlap derivatives assumed to be zero.
 Keep R1 ints in memory in canonical form, NReq=277859735.
          There are     1 degrees of freedom in the 1st order CPHF.  IDoFFX=0 NUNeed=     1.
 LinEq1:  Iter=  0 NonCon=     1 RMS=1.78D-03 Max=6.60D-02 NDo=     1
 AX will form     1 AO Fock derivatives at one time.
 LinEq1:  Iter=  1 NonCon=     1 RMS=8.43D-04 Max=1.82D-02 NDo=     1
 LinEq1:  Iter=  2 NonCon=     1 RMS=3.83D-04 Max=1.47D-02 NDo=     1
 LinEq1:  Iter=  3 NonCon=     1 RMS=1.25D-04 Max=4.37D-03 NDo=     1
 LinEq1:  Iter=  4 NonCon=     1 RMS=4.85D-05 Max=9.09D-04 NDo=     1
 LinEq1:  Iter=  5 NonCon=     1 RMS=9.59D-06 Max=1.73D-04 NDo=     1
 LinEq1:  Iter=  6 NonCon=     1 RMS=3.23D-06 Max=7.28D-05 NDo=     1
 LinEq1:  Iter=  7 NonCon=     1 RMS=6.95D-07 Max=2.04D-05 NDo=     1
 LinEq1:  Iter=  8 NonCon=     1 RMS=1.35D-07 Max=3.91D-06 NDo=     1
 LinEq1:  Iter=  9 NonCon=     1 RMS=3.28D-08 Max=1.04D-06 NDo=     1
 LinEq1:  Iter= 10 NonCon=     1 RMS=9.26D-09 Max=2.08D-07 NDo=     1
 LinEq1:  Iter= 11 NonCon=     1 RMS=2.00D-09 Max=4.96D-08 NDo=     1
 LinEq1:  Iter= 12 NonCon=     1 RMS=4.16D-10 Max=9.42D-09 NDo=     1
 LinEq1:  Iter= 13 NonCon=     1 RMS=1.28D-10 Max=1.81D-09 NDo=     1
 LinEq1:  Iter= 14 NonCon=     0 RMS=3.07D-11 Max=5.50D-10 NDo=     1
 Linear equations converged to 1.000D-10 1.000D-09 after    14 iterations.
 End of Minotr F.D. properties file   721 does not exist.
 End of Minotr F.D. properties file   722 does not exist.
 End of Minotr F.D. properties file   788 does not exist.

 **********************************************************************

            Population analysis using the CC Density.

 **********************************************************************

 Alpha  occ. eigenvalues -- -490.06362-490.06343 -91.98071 -65.20343 -65.20319
 Alpha  occ. eigenvalues --  -58.55877 -58.55854 -58.55726 -58.55707 -58.55702
 Alpha  occ. eigenvalues --  -58.55684 -11.43457  -9.87648  -9.87619  -8.98337
 Alpha  occ. eigenvalues --   -7.48841  -7.48812  -7.48113  -7.48083  -7.48034
 Alpha  occ. eigenvalues --   -7.48005  -6.66404  -6.66319  -6.66164  -3.23249
 Alpha  occ. eigenvalues --   -3.23219  -3.22889  -3.22860  -3.22781  -3.22753
 Alpha  occ. eigenvalues --   -3.21855  -3.21852  -3.21824  -3.21822  -1.16714
 Alpha  occ. eigenvalues --   -1.04090  -1.01515  -0.74025  -0.59644  -0.58344
 Alpha  occ. eigenvalues --   -0.54003  -0.46272  -0.44537  -0.42827  -0.39756
 Alpha  occ. eigenvalues --   -0.37213
 Alpha virt. eigenvalues --    0.01295   0.04637   0.05714   0.06054   0.08364
 Alpha virt. eigenvalues --    0.08952   0.09135   0.10094   0.11090   0.11450
 Alpha virt. eigenvalues --    0.11972   0.13414   0.14414   0.15441   0.15755
 Alpha virt. eigenvalues --    0.17000   0.18540   0.22141   0.23646   0.23997
 Alpha virt. eigenvalues --    0.24122   0.27601   0.29886   0.30872   0.32987
 Alpha virt. eigenvalues --    0.33975   0.34212   0.35544   0.35900   0.36810
 Alpha virt. eigenvalues --    0.37302   0.39627   0.40100   0.42834   0.43631
 Alpha virt. eigenvalues --    0.46280   0.48027   0.48064   0.48397   0.48667
 Alpha virt. eigenvalues --    0.48856   0.51281   0.57658   0.58802   0.59049
 Alpha virt. eigenvalues --    0.60579   0.65452   0.66515   0.68486   0.70393
 Alpha virt. eigenvalues --    0.71705   0.74658   0.75278   0.76049   0.76418
 Alpha virt. eigenvalues --    0.77013   0.78374   0.78565   0.78612   0.79966
 Alpha virt. eigenvalues --    0.81345   0.81436   0.84978   0.85954   0.88325
 Alpha virt. eigenvalues --    0.89038   0.89915   0.91562   0.93563   0.94937
 Alpha virt. eigenvalues --    0.95627   1.01165   1.01771   1.03196   1.03688
 Alpha virt. eigenvalues --    1.04533   1.04591   1.14614   1.15081   1.15823
 Alpha virt. eigenvalues --    1.17383   1.19016   1.19751   1.22368   1.26046
 Alpha virt. eigenvalues --    1.27713   1.32510   1.35038   1.38757   1.45343
 Alpha virt. eigenvalues --    1.46748   1.49455   1.51858   1.52372   1.53106
 Alpha virt. eigenvalues --    1.53789   1.54503   1.63564   1.71926   1.72242
 Alpha virt. eigenvalues --    1.74007   1.74302   1.91916   1.97922   2.07346
 Alpha virt. eigenvalues --    2.09665   2.13939   2.16440   2.17772   2.19214
 Alpha virt. eigenvalues --    2.21308   2.24489   2.27507   2.27544   2.28327
 Alpha virt. eigenvalues --    2.28584   2.29177   2.30019   2.32315   2.32505
 Alpha virt. eigenvalues --    2.32656   2.33707   2.34098   2.35504   2.36228
 Alpha virt. eigenvalues --    2.36680   2.37115   2.37921   2.39420   2.40927
 Alpha virt. eigenvalues --    2.41239   2.42621   2.43294   2.46248   2.46629
 Alpha virt. eigenvalues --    2.53108   2.53659   2.54948   2.56945   2.59940
 Alpha virt. eigenvalues --    2.62027   2.68516   2.70347   2.71584   2.89542
 Alpha virt. eigenvalues --    2.91314   2.93074   3.07446   3.30427   3.38468
 Alpha virt. eigenvalues --    3.58755   3.64441   3.65251   3.66866   3.75930
 Alpha virt. eigenvalues --    3.77269   3.83883   3.87187   3.89612   4.05476
 Alpha virt. eigenvalues --    4.06076   4.13794   4.15900   4.19074   5.05980
 Alpha virt. eigenvalues --    5.09882   6.43931   9.47391
          Condensed to atoms (all electrons):
               1          2          3          4
     1  C    6.369084  -0.033753  -0.087777  -0.089965
     2  S   -0.033753  16.449090  -0.185427  -0.187318
     3  Br  -0.087777  -0.185427  35.312724  -0.136426
     4  Br  -0.089965  -0.187318  -0.136426  35.310433
 Mulliken charges:
               1
     1  C   -0.157589
     2  S   -0.042593
     3  Br   0.096906
     4  Br   0.103276
 Sum of Mulliken charges =  -0.00000
 Mulliken charges with hydrogens summed into heavy atoms:
               1
     1  C   -0.157589
     2  S   -0.042593
     3  Br   0.096906
     4  Br   0.103276
 Electronic spatial extent (au):  <R**2>=           1435.6147
 Charge=             -0.0000 electrons
 Dipole moment (field-independent basis, Debye):
    X=              0.0000    Y=              0.0163    Z=             -0.4574  Tot=              0.4577
 Quadrupole moment (field-independent basis, Debye-Ang):
   XX=            -54.9667   YY=            -53.8534   ZZ=            -53.7519
   XY=             -0.0000   XZ=             -0.0000   YZ=             -0.0070
 Traceless Quadrupole moment (field-independent basis, Debye-Ang):
   XX=             -0.7760   YY=              0.3373   ZZ=              0.4388
   XY=             -0.0000   XZ=             -0.0000   YZ=             -0.0070
 Octapole moment (field-independent basis, Debye-Ang**2):
  XXX=              0.0000  YYY=              0.1225  ZZZ=            141.7939  XYY=              0.0000
  XXY=              0.0240  XXZ=             47.9849  XZZ=              0.0000  YZZ=             -0.0109
  YYZ=             35.5553  XYZ=              0.0000
 Hexadecapole moment (field-independent basis, Debye-Ang**3):
 XXXX=            -67.2774 YYYY=           -572.7586 ZZZZ=           -703.6260 XXXY=             -0.0000
 XXXZ=             -0.0000 YYYX=             -0.0000 YYYZ=             -0.9300 ZZZX=             -0.0000
 ZZZY=             -0.6768 XXYY=           -113.5736 XXZZ=           -131.0934 YYZZ=           -195.3407
 XXYZ=             -0.3139 YYXZ=             -0.0000 ZZXY=             -0.0000
 N-N= 5.471289734387D+02 E-N=-1.443544987966D+04  KE= 5.579836904927D+03
 There are a total of      107126 grid points.
 ElSum from          density=       92.0000016498
 ElSum from atomic densities=       92.0000007172

 Hirshfeld populations at iteration   1 (CX, CA, CB, DipXYZ):
               1          2          3          4          5          6
     1  C    0.000001   2.982631   2.982631   0.000000  -0.000332  -0.108612
     2  S    0.000013   8.027212   8.027212   0.000000   0.000871   0.163177
     3  Br   0.000023  17.495544  17.495544  -0.000000  -0.063936  -0.015485
     4  Br   0.000023  17.494614  17.494614  -0.000000   0.064284  -0.014581
       Tot   0.000061  46.000001  46.000001  -0.000000   0.000886   0.024500

 Dip from Atomic Chgs              0.000000   0.005512  -0.204442
         Total Dipole             -0.000000   0.006398  -0.179942

 Hirshfeld charges, spin densities, dipoles, and CM5 charges using IRadAn=      5:
              Q-H        S-H        Dx         Dy         Dz        Q-CM5   
     1  C    0.034738   0.000000   0.000000  -0.000332  -0.108612   0.025363
     2  S   -0.054424   0.000000   0.000000   0.000871   0.163177  -0.078971
     3  Br   0.008912   0.000000  -0.000000  -0.063936  -0.015485   0.025745
     4  Br   0.010772   0.000000  -0.000000   0.064284  -0.014581   0.027862
       Tot  -0.000002   0.000000  -0.000000   0.000886   0.024500  -0.000002
 Hirshfeld charges with hydrogens summed into heavy atoms:
              Q-H       Q-CM5   
     1  C    0.034738   0.025363
     2  S   -0.054424  -0.078971
     3  Br   0.008912   0.025745
     4  Br   0.010772   0.027862
 
 EQQ= 0.000000000000E+00 EQD= 0.000000000000E+00 EDD=-0.609556709591E-03
 EQQ+QD+DD=-0.609556709591E-03
 
 Breneman (CHELPG) radii used.
 GetVDW:  no radius for atom   3 atomic number  35.
 Error termination via Lnk1e in /home/wagner/chemistry/gaussian/g16/l602.exe at Tue Sep  6 08:41:50 2022.
 Job cpu time:       0 days 14 hours 39 minutes 19.7 seconds.
 Elapsed time:       0 days  0 hours 55 minutes 30.3 seconds.
 File lengths (MBytes):  RWF=  31411 Int=      0 D2E=      0 Chk=      2 Scr=      1
