 Entering Gaussian System, Link 0=/home/wagner/chemistry/gaussian/g16/g16
 Input=GAUSSIAN.com
 Output=GAUSSIAN.log
 Initial command:
 /home/wagner/chemistry/gaussian/g16/l1.exe "/home/wagner/chemistry/gaussian/work/Gau-79931.inp" -scrdir="/home/wagner/chemistry/gaussian/work/"
 Entering Link 1 = /home/wagner/chemistry/gaussian/g16/l1.exe PID=     79933.
  
 Copyright (c) 1988-2019, Gaussian, Inc.  All Rights Reserved.
  
 This is part of the Gaussian(R) 16 program.  It is based on
 the Gaussian(R) 09 system (copyright 2009, Gaussian, Inc.),
 the Gaussian(R) 03 system (copyright 2003, Gaussian, Inc.),
 the Gaussian(R) 98 system (copyright 1998, Gaussian, Inc.),
 the Gaussian(R) 94 system (copyright 1995, Gaussian, Inc.),
 the Gaussian 92(TM) system (copyright 1992, Gaussian, Inc.),
 the Gaussian 90(TM) system (copyright 1990, Gaussian, Inc.),
 the Gaussian 88(TM) system (copyright 1988, Gaussian, Inc.),
 the Gaussian 86(TM) system (copyright 1986, Carnegie Mellon
 University), and the Gaussian 82(TM) system (copyright 1983,
 Carnegie Mellon University). Gaussian is a federally registered
 trademark of Gaussian, Inc.
  
 This software contains proprietary and confidential information,
 including trade secrets, belonging to Gaussian, Inc.
  
 This software is provided under written license and may be
 used, copied, transmitted, or stored only in accord with that
 written license.
  
 The following legend is applicable only to US Government
 contracts under FAR:
  
                    RESTRICTED RIGHTS LEGEND
  
 Use, reproduction and disclosure by the US Government is
 subject to restrictions as set forth in subparagraphs (a)
 and (c) of the Commercial Computer Software - Restricted
 Rights clause in FAR 52.227-19.
  
 Gaussian, Inc.
 340 Quinnipiac St., Bldg. 40, Wallingford CT 06492
  
  
 ---------------------------------------------------------------
 Warning -- This program may not be used in any manner that
 competes with the business of Gaussian, Inc. or will provide
 assistance to any competitor of Gaussian, Inc.  The licensee
 of this program is prohibited from giving any competitor of
 Gaussian, Inc. access to this program.  By using this program,
 the user acknowledges that Gaussian, Inc. is engaged in the
 business of creating and licensing software in the field of
 computational chemistry and represents and warrants to the
 licensee that it is not a competitor of Gaussian, Inc. and that
 it will not use this program in any manner prohibited above.
 ---------------------------------------------------------------
  

 Cite this work as:
 Gaussian 16, Revision C.01,
 M. J. Frisch, G. W. Trucks, H. B. Schlegel, G. E. Scuseria, 
 M. A. Robb, J. R. Cheeseman, G. Scalmani, V. Barone, 
 G. A. Petersson, H. Nakatsuji, X. Li, M. Caricato, A. V. Marenich, 
 J. Bloino, B. G. Janesko, R. Gomperts, B. Mennucci, H. P. Hratchian, 
 J. V. Ortiz, A. F. Izmaylov, J. L. Sonnenberg, D. Williams-Young, 
 F. Ding, F. Lipparini, F. Egidi, J. Goings, B. Peng, A. Petrone, 
 T. Henderson, D. Ranasinghe, V. G. Zakrzewski, J. Gao, N. Rega, 
 G. Zheng, W. Liang, M. Hada, M. Ehara, K. Toyota, R. Fukuda, 
 J. Hasegawa, M. Ishida, T. Nakajima, Y. Honda, O. Kitao, H. Nakai, 
 T. Vreven, K. Throssell, J. A. Montgomery, Jr., J. E. Peralta, 
 F. Ogliaro, M. J. Bearpark, J. J. Heyd, E. N. Brothers, K. N. Kudin, 
 V. N. Staroverov, T. A. Keith, R. Kobayashi, J. Normand, 
 K. Raghavachari, A. P. Rendell, J. C. Burant, S. S. Iyengar, 
 J. Tomasi, M. Cossi, J. M. Millam, M. Klene, C. Adamo, R. Cammi, 
 J. W. Ochterski, R. L. Martin, K. Morokuma, O. Farkas, 
 J. B. Foresman, and D. J. Fox, Gaussian, Inc., Wallingford CT, 2019.
 
 ******************************************
 Gaussian 16:  EM64L-G16RevC.01  3-Jul-2019
                 5-Sep-2022 
 ******************************************
 %nproc=16
 Will use up to   16 processors via shared memory.
 %mem=16GB
 ----------------------------------------------------------------------
 # qcisd/aug-cc-pvtz nosymm density=current pop=(chelpg,hirshfeld,npa,d
 ipole)
 ----------------------------------------------------------------------
 1/30=1,38=1,172=1/1;
 2/12=2,15=1,17=6,18=5,40=1/2;
 3/5=16,6=1,7=10,11=9,25=1,30=1,71=1/1,2,3;
 4//1;
 5/5=2,38=5/2;
 8/6=4,9=120000,10=1/1,4;
 9/5=8,15=1/13;
 11/28=-7,31=1,32=3,42=3/11;
 10/5=6,13=10,31=1/2;
 6/7=2,8=2,9=2,10=2,15=24,20=3,22=-1,40=-1,79=1/1,2,7;
 99/5=1,9=1/99;
 ------------------
 br2cs-wavefunction
 ------------------
 Symbolic Z-matrix:
 Charge =  0 Multiplicity = 1
 C                    -0.01      0.       -0.51945 
 S                     0.        0.        1.08369 
 Br                    0.       -1.56852  -1.57857 
 Br                    0.        1.56852  -1.57857 
 
                          Input orientation:                          
 ---------------------------------------------------------------------
 Center     Atomic      Atomic             Coordinates (Angstroms)
 Number     Number       Type             X           Y           Z
 ---------------------------------------------------------------------
      1          6           0       -0.010000    0.000000   -0.519451
      2         16           0        0.000000    0.000000    1.083692
      3         35           0        0.000000   -1.568516   -1.578570
      4         35           0        0.000000    1.568516   -1.578570
 ---------------------------------------------------------------------
                    Distance matrix (angstroms):
                    1          2          3          4
     1  C    0.000000
     2  S    1.603174   0.000000
     3  Br   1.892637   3.089965   0.000000
     4  Br   1.892637   3.089965   3.137032   0.000000
 Symmetry turned off by external request.
 Stoichiometry    CBr2S
 Framework group  CS[SG(CS),X(Br2)]
 Deg. of freedom     4
 Full point group                 CS      NOp   2
 Rotational constants (GHZ):           2.6233526           1.3014580           0.8699009
 Standard basis: Aug-CC-pVTZ (5D, 7F)
   214 basis functions,   620 primitive gaussians,   252 cartesian basis functions
    46 alpha electrons       46 beta electrons
       nuclear repulsion energy       547.5682223139 Hartrees.
 NAtoms=    4 NActive=    4 NUniq=    4 SFac= 1.00D+00 NAtFMM=   60 NAOKFM=F Big=F
 Integral buffers will be    131072 words long.
 Raffenetti 1 integral format.
 Two-electron integral symmetry is turned off.
 One-electron integrals computed using PRISM.
 NBasis=   214 RedAO= T EigKep=  7.89D-05  NBF=   214
 NBsUse=   214 1.00D-06 EigRej= -1.00D+00 NBFU=   214
 ExpMin= 3.51D-02 ExpMax= 1.06D+07 ExpMxC= 1.21D+04 IAcc=3 IRadAn=         5 AccDes= 0.00D+00
 Harris functional with IExCor=  205 and IRadAn=       5 diagonalized for initial guess.
 HarFok:  IExCor=  205 AccDes= 0.00D+00 IRadAn=         5 IDoV= 1 UseB2=F ITyADJ=14
 ICtDFT=  3500011 ScaDFX=  1.000000  1.000000  1.000000  1.000000
 FoFCou: FMM=F IPFlag=           0 FMFlag=      100000 FMFlg1=           0
         NFxFlg=           0 DoJE=T BraDBF=F KetDBF=T FulRan=T
         wScrn=  0.000000 ICntrl=       500 IOpCl=  0 I1Cent=   200000004 NGrid=           0
         NMat0=    1 NMatS0=      1 NMatT0=    0 NMatD0=    1 NMtDS0=    0 NMtDT0=    0
 Symmetry not used in FoFCou.
 Keep R1 ints in memory in canonical form, NReq=277853477.
 Requested convergence on RMS density matrix=1.00D-08 within 128 cycles.
 Requested convergence on MAX density matrix=1.00D-06.
 Requested convergence on             energy=1.00D-06.
 No special actions if energy rises.
 SCF Done:  E(RHF) =  -5580.30866354     A.U. after   14 cycles
            NFock= 14  Conv=0.30D-08     -V/T= 2.0000
 ExpMin= 3.51D-02 ExpMax= 1.06D+07 ExpMxC= 1.21D+04 IAcc=3 IRadAn=         5 AccDes= 0.00D+00
 HarFok:  IExCor=  205 AccDes= 0.00D+00 IRadAn=         5 IDoV=-2 UseB2=F ITyADJ=14
 ICtDFT= 12500011 ScaDFX=  1.000000  1.000000  1.000000  1.000000
 GSVD:  LWork=        -768 too small for GESVD, short by        3240 words or        3240 for optimal perf.
 Range of M.O.s used for correlation:    25   214
 NBasis=   214 NAE=    46 NBE=    46 NFC=    24 NFV=     0
 NROrb=    190 NOA=    22 NOB=    22 NVA=   168 NVB=   168

 **** Warning!!: The largest alpha MO coefficient is  0.30764894D+02

 Semi-Direct transformation.
 ModeAB=           2 MOrb=            22 LenV=    2146186115
 LASXX=     69628944 LTotXX=    69628944 LenRXX=    69628944
 LTotAB=    70719517 MaxLAS=   133250040 LenRXY=   133250040
 NonZer=   139257888 LenScr=   209707008 LnRSAI=           0
 LnScr1=           0 LExtra=           0 Total=    412585992
 MaxDsk=          -1 SrtSym=           F ITran=            4
 JobTyp=0 Pass  1:  I=   1 to  22.
 (rs|ai) integrals will be sorted in core.
 Spin components of T(2) and E(2):
     alpha-alpha T2 =       0.4287516309D-01 E2=     -0.1154002562D+00
     alpha-beta  T2 =       0.2166630949D+00 E2=     -0.5793071932D+00
     beta-beta   T2 =       0.4287516309D-01 E2=     -0.1154002562D+00
 ANorm=    0.1141233290D+01
 E2 =    -0.8101077056D+00 EUMP2 =    -0.55811187712414D+04
 Keep R2 and R3 ints in memory in canonical form, NReq=542493906.
 CIDS: In Core Option IDoMem=           1.
 Iterations=  50 Convergence= 0.100D-07
 Produce multiple copies of IABC intergrals
 Iteration Nr.   1
 **********************
 DD1Dir will call FoFMem   1 times, MxPair=       506
 NAB=   253 NAA=     0 NBB=     0.
 MP4(R+Q)=  0.23475245D-01
 E3=       -0.12177476D-01        EUMP3=      -0.55811309487D+04
 E4(DQ)=   -0.51048932D-03        UMP4(DQ)=   -0.55811314592D+04
 E4(SDQ)=  -0.10186178D-01        UMP4(SDQ)=  -0.55811411349D+04
 DE(Corr)= -0.79880994     E(Corr)=     -5581.1074735    
 NORM(A)=   0.11410221D+01
 Iteration Nr.   2
 **********************
 DD1Dir will call FoFMem   1 times, MxPair=       506
 NAB=   253 NAA=     0 NBB=     0.
 DE(Corr)= -0.82758015     E(CORR)=     -5581.1362437     Delta=-2.88D-02
 NORM(A)=   0.11532108D+01
 Iteration Nr.   3
 **********************
 DD1Dir will call FoFMem   1 times, MxPair=       506
 NAB=   253 NAA=     0 NBB=     0.
 DE(Corr)= -0.82617222     E(CORR)=     -5581.1348358     Delta= 1.41D-03
 NORM(A)=   0.11560474D+01
 Iteration Nr.   4
 **********************
 DD1Dir will call FoFMem   1 times, MxPair=       506
 NAB=   253 NAA=     0 NBB=     0.
 DE(Corr)= -0.82852355     E(CORR)=     -5581.1371871     Delta=-2.35D-03
 NORM(A)=   0.11573545D+01
 Iteration Nr.   5
 **********************
 DD1Dir will call FoFMem   1 times, MxPair=       506
 NAB=   253 NAA=     0 NBB=     0.
 DE(Corr)= -0.82883275     E(CORR)=     -5581.1374963     Delta=-3.09D-04
 NORM(A)=   0.11579916D+01
 Iteration Nr.   6
 **********************
 DD1Dir will call FoFMem   1 times, MxPair=       506
 NAB=   253 NAA=     0 NBB=     0.
 DE(Corr)= -0.82889749     E(CORR)=     -5581.1375610     Delta=-6.47D-05
 NORM(A)=   0.11580717D+01
 Iteration Nr.   7
 **********************
 DD1Dir will call FoFMem   1 times, MxPair=       506
 NAB=   253 NAA=     0 NBB=     0.
 DE(Corr)= -0.82890931     E(CORR)=     -5581.1375728     Delta=-1.18D-05
 NORM(A)=   0.11580885D+01
 Iteration Nr.   8
 **********************
 DD1Dir will call FoFMem   1 times, MxPair=       506
 NAB=   253 NAA=     0 NBB=     0.
 DE(Corr)= -0.82890543     E(CORR)=     -5581.1375690     Delta= 3.88D-06
 NORM(A)=   0.11580968D+01
 Iteration Nr.   9
 **********************
 DD1Dir will call FoFMem   1 times, MxPair=       506
 NAB=   253 NAA=     0 NBB=     0.
 DE(Corr)= -0.82890712     E(CORR)=     -5581.1375707     Delta=-1.69D-06
 NORM(A)=   0.11580975D+01
 Iteration Nr.  10
 **********************
 DD1Dir will call FoFMem   1 times, MxPair=       506
 NAB=   253 NAA=     0 NBB=     0.
 DE(Corr)= -0.82890724     E(CORR)=     -5581.1375708     Delta=-1.17D-07
 NORM(A)=   0.11581012D+01
 Iteration Nr.  11
 **********************
 DD1Dir will call FoFMem   1 times, MxPair=       506
 NAB=   253 NAA=     0 NBB=     0.
 DE(Corr)= -0.82890882     E(CORR)=     -5581.1375724     Delta=-1.58D-06
 NORM(A)=   0.11581032D+01
 Iteration Nr.  12
 **********************
 DD1Dir will call FoFMem   1 times, MxPair=       506
 NAB=   253 NAA=     0 NBB=     0.
 DE(Corr)= -0.82890890     E(CORR)=     -5581.1375724     Delta=-7.85D-08
 NORM(A)=   0.11581047D+01
 Iteration Nr.  13
 **********************
 DD1Dir will call FoFMem   1 times, MxPair=       506
 NAB=   253 NAA=     0 NBB=     0.
 DE(Corr)= -0.82890953     E(CORR)=     -5581.1375731     Delta=-6.35D-07
 NORM(A)=   0.11581057D+01
 Iteration Nr.  14
 **********************
 DD1Dir will call FoFMem   1 times, MxPair=       506
 NAB=   253 NAA=     0 NBB=     0.
 DE(Corr)= -0.82890955     E(CORR)=     -5581.1375731     Delta=-1.19D-08
 NORM(A)=   0.11581062D+01
 Iteration Nr.  15
 **********************
 DD1Dir will call FoFMem   1 times, MxPair=       506
 NAB=   253 NAA=     0 NBB=     0.
 DE(Corr)= -0.82890966     E(CORR)=     -5581.1375732     Delta=-1.15D-07
 NORM(A)=   0.11581064D+01
 Iteration Nr.  16
 **********************
 DD1Dir will call FoFMem   1 times, MxPair=       506
 NAB=   253 NAA=     0 NBB=     0.
 DE(Corr)= -0.82890969     E(CORR)=     -5581.1375732     Delta=-2.83D-08
 NORM(A)=   0.11581065D+01
 Iteration Nr.  17
 **********************
 DD1Dir will call FoFMem   1 times, MxPair=       506
 NAB=   253 NAA=     0 NBB=     0.
 DE(Corr)= -0.82890968     E(CORR)=     -5581.1375732     Delta= 1.51D-08
 NORM(A)=   0.11581065D+01
 Iteration Nr.  18
 **********************
 DD1Dir will call FoFMem   1 times, MxPair=       506
 NAB=   253 NAA=     0 NBB=     0.
 DE(Corr)= -0.82890969     E(CORR)=     -5581.1375732     Delta=-1.44D-08
 NORM(A)=   0.11581065D+01
 Iteration Nr.  19
 **********************
 DD1Dir will call FoFMem   1 times, MxPair=       506
 NAB=   253 NAA=     0 NBB=     0.
 DE(Corr)= -0.82890969     E(CORR)=     -5581.1375732     Delta=-3.47D-09
 NORM(A)=   0.11581065D+01
 Wavefunction amplitudes converged. E(Corr)=     -5581.1375732    
 Largest amplitude= 7.67D-02

 Z-amplitude iterations

 Iteration Nr.   1
 **********************
 DD1Dir will call FoFMem   1 times, MxPair=       506
 NAB=   253 NAA=     0 NBB=     0.
 DE(Z)= -0.79824882     E(Z)=     -5581.1069124     Delta= 3.07D-02
 NORM(A)=   0.11579478D+01
 Iteration Nr.   2
 **********************
 DD1Dir will call FoFMem   1 times, MxPair=       506
 NAB=   253 NAA=     0 NBB=     0.
 DE(Z)= -0.79824766     E(Z)=     -5581.1069112     Delta= 1.16D-06
 NORM(A)=   0.11579142D+01
 Iteration Nr.   3
 **********************
 DD1Dir will call FoFMem   1 times, MxPair=       506
 NAB=   253 NAA=     0 NBB=     0.
 DE(Z)= -0.79824760     E(Z)=     -5581.1069111     Delta= 5.78D-08
 NORM(A)=   0.11577384D+01
 Iteration Nr.   4
 **********************
 DD1Dir will call FoFMem   1 times, MxPair=       506
 NAB=   253 NAA=     0 NBB=     0.
 DE(Z)= -0.79824610     E(Z)=     -5581.1069096     Delta= 1.50D-06
 NORM(A)=   0.11576380D+01
 Iteration Nr.   5
 **********************
 DD1Dir will call FoFMem   1 times, MxPair=       506
 NAB=   253 NAA=     0 NBB=     0.
 DE(Z)= -0.79824451     E(Z)=     -5581.1069080     Delta= 1.59D-06
 NORM(A)=   0.11448449D+01
 Iteration Nr.   6
 **********************
 DD1Dir will call FoFMem   1 times, MxPair=       506
 NAB=   253 NAA=     0 NBB=     0.
 DE(Z)= -0.79813177     E(Z)=     -5581.1067953     Delta= 1.13D-04
 NORM(A)=   0.11448441D+01
 Iteration Nr.   7
 **********************
 DD1Dir will call FoFMem   1 times, MxPair=       506
 NAB=   253 NAA=     0 NBB=     0.
 DE(Z)= -0.79812919     E(Z)=     -5581.1067927     Delta= 2.57D-06
 NORM(A)=   0.11448437D+01
 Iteration Nr.   8
 **********************
 DD1Dir will call FoFMem   1 times, MxPair=       506
 NAB=   253 NAA=     0 NBB=     0.
 DE(Z)= -0.79812984     E(Z)=     -5581.1067934     Delta=-6.43D-07
 NORM(A)=   0.11448438D+01
 Iteration Nr.   9
 **********************
 DD1Dir will call FoFMem   1 times, MxPair=       506
 NAB=   253 NAA=     0 NBB=     0.
 DE(Z)= -0.79812911     E(Z)=     -5581.1067926     Delta= 7.28D-07
 NORM(A)=   0.11448442D+01
 Iteration Nr.  10
 **********************
 DD1Dir will call FoFMem   1 times, MxPair=       506
 NAB=   253 NAA=     0 NBB=     0.
 DE(Z)= -0.79812911     E(Z)=     -5581.1067926     Delta=-2.98D-10
 NORM(A)=   0.11448445D+01
 Iteration Nr.  11
 **********************
 DD1Dir will call FoFMem   1 times, MxPair=       506
 NAB=   253 NAA=     0 NBB=     0.
 DE(Z)= -0.79812919     E(Z)=     -5581.1067927     Delta=-8.06D-08
 NORM(A)=   0.11448447D+01
 Iteration Nr.  12
 **********************
 DD1Dir will call FoFMem   1 times, MxPair=       506
 NAB=   253 NAA=     0 NBB=     0.
 DE(Z)= -0.79812916     E(Z)=     -5581.1067927     Delta= 2.66D-08
 NORM(A)=   0.11448449D+01
 Iteration Nr.  13
 **********************
 DD1Dir will call FoFMem   1 times, MxPair=       506
 NAB=   253 NAA=     0 NBB=     0.
 DE(Z)= -0.79812918     E(Z)=     -5581.1067927     Delta=-1.42D-08
 NORM(A)=   0.11448452D+01
 Iteration Nr.  14
 **********************
 DD1Dir will call FoFMem   1 times, MxPair=       506
 NAB=   253 NAA=     0 NBB=     0.
 DE(Z)= -0.79812929     E(Z)=     -5581.1067928     Delta=-1.10D-07
 NORM(A)=   0.11448447D+01
 Iteration Nr.  15
 **********************
 DD1Dir will call FoFMem   1 times, MxPair=       506
 NAB=   253 NAA=     0 NBB=     0.
 DE(Z)= -0.79812917     E(Z)=     -5581.1067927     Delta= 1.13D-07
 NORM(A)=   0.11448448D+01
 Iteration Nr.  16
 **********************
 DD1Dir will call FoFMem   1 times, MxPair=       506
 NAB=   253 NAA=     0 NBB=     0.
 DE(Z)= -0.79812918     E(Z)=     -5581.1067927     Delta=-5.81D-09
 NORM(A)=   0.11448448D+01
 Z-amplitudes converged.
 Discarding MO integrals.
          Differentiating once with respect to electric field.
                with respect to dipole field.
          Electric field/nuclear overlap derivatives assumed to be zero.
 Keep R1 ints in memory in canonical form, NReq=277859851.
          There are     1 degrees of freedom in the 1st order CPHF.  IDoFFX=0 NUNeed=     1.
 LinEq1:  Iter=  0 NonCon=     1 RMS=1.78D-03 Max=6.60D-02 NDo=     1
 AX will form     1 AO Fock derivatives at one time.
 LinEq1:  Iter=  1 NonCon=     1 RMS=8.41D-04 Max=1.81D-02 NDo=     1
 LinEq1:  Iter=  2 NonCon=     1 RMS=3.81D-04 Max=1.47D-02 NDo=     1
 LinEq1:  Iter=  3 NonCon=     1 RMS=1.25D-04 Max=4.33D-03 NDo=     1
 LinEq1:  Iter=  4 NonCon=     1 RMS=4.84D-05 Max=9.28D-04 NDo=     1
 LinEq1:  Iter=  5 NonCon=     1 RMS=9.57D-06 Max=1.72D-04 NDo=     1
 LinEq1:  Iter=  6 NonCon=     1 RMS=3.25D-06 Max=7.86D-05 NDo=     1
 LinEq1:  Iter=  7 NonCon=     1 RMS=7.08D-07 Max=2.20D-05 NDo=     1
 LinEq1:  Iter=  8 NonCon=     1 RMS=1.38D-07 Max=4.12D-06 NDo=     1
 LinEq1:  Iter=  9 NonCon=     1 RMS=3.37D-08 Max=1.03D-06 NDo=     1
 LinEq1:  Iter= 10 NonCon=     1 RMS=9.44D-09 Max=2.07D-07 NDo=     1
 LinEq1:  Iter= 11 NonCon=     1 RMS=1.98D-09 Max=4.95D-08 NDo=     1
 LinEq1:  Iter= 12 NonCon=     1 RMS=3.83D-10 Max=9.04D-09 NDo=     1
 LinEq1:  Iter= 13 NonCon=     1 RMS=9.86D-11 Max=1.98D-09 NDo=     1
 LinEq1:  Iter= 14 NonCon=     0 RMS=2.68D-11 Max=4.87D-10 NDo=     1
 Linear equations converged to 1.000D-10 1.000D-09 after    14 iterations.
 End of Minotr F.D. properties file   721 does not exist.
 End of Minotr F.D. properties file   722 does not exist.
 End of Minotr F.D. properties file   788 does not exist.

 **********************************************************************

            Population analysis using the CC Density.

 **********************************************************************

 Alpha  occ. eigenvalues -- -490.06361-490.06361 -91.98023 -65.20341 -65.20341
 Alpha  occ. eigenvalues --  -58.55875 -58.55875 -58.55724 -58.55724 -58.55705
 Alpha  occ. eigenvalues --  -58.55705 -11.43411  -9.87646  -9.87645  -8.98293
 Alpha  occ. eigenvalues --   -7.48839  -7.48839  -7.48111  -7.48111  -7.48032
 Alpha  occ. eigenvalues --   -7.48032  -6.66360  -6.66275  -6.66119  -3.23247
 Alpha  occ. eigenvalues --   -3.23246  -3.22887  -3.22886  -3.22779  -3.22778
 Alpha  occ. eigenvalues --   -3.21853  -3.21852  -3.21850  -3.21849  -1.16790
 Alpha  occ. eigenvalues --   -1.04150  -1.01489  -0.74033  -0.59711  -0.58346
 Alpha  occ. eigenvalues --   -0.54051  -0.46258  -0.44556  -0.42867  -0.39719
 Alpha  occ. eigenvalues --   -0.37183
 Alpha virt. eigenvalues --    0.01300   0.04662   0.05711   0.06063   0.08380
 Alpha virt. eigenvalues --    0.08954   0.09153   0.10092   0.11087   0.11454
 Alpha virt. eigenvalues --    0.12004   0.13414   0.14425   0.15447   0.15758
 Alpha virt. eigenvalues --    0.16995   0.18582   0.22150   0.23634   0.23995
 Alpha virt. eigenvalues --    0.24155   0.27595   0.29911   0.30870   0.33010
 Alpha virt. eigenvalues --    0.33984   0.34207   0.35552   0.35924   0.36811
 Alpha virt. eigenvalues --    0.37300   0.39634   0.40104   0.42870   0.43646
 Alpha virt. eigenvalues --    0.46295   0.47985   0.48135   0.48333   0.48785
 Alpha virt. eigenvalues --    0.48872   0.51280   0.57627   0.58768   0.59006
 Alpha virt. eigenvalues --    0.60621   0.65443   0.66495   0.68514   0.70396
 Alpha virt. eigenvalues --    0.71712   0.74658   0.75271   0.76072   0.76433
 Alpha virt. eigenvalues --    0.77051   0.78215   0.78555   0.78797   0.80024
 Alpha virt. eigenvalues --    0.81372   0.81387   0.84997   0.85970   0.88386
 Alpha virt. eigenvalues --    0.89044   0.89966   0.91614   0.93616   0.94862
 Alpha virt. eigenvalues --    0.95661   1.01175   1.01772   1.03324   1.03697
 Alpha virt. eigenvalues --    1.04537   1.04615   1.14648   1.15164   1.15943
 Alpha virt. eigenvalues --    1.17474   1.19007   1.19719   1.22388   1.26098
 Alpha virt. eigenvalues --    1.27761   1.32581   1.35128   1.38703   1.45437
 Alpha virt. eigenvalues --    1.46807   1.49467   1.51863   1.52408   1.53198
 Alpha virt. eigenvalues --    1.53843   1.54615   1.63534   1.71963   1.72279
 Alpha virt. eigenvalues --    1.74101   1.74378   1.91992   1.97963   2.07383
 Alpha virt. eigenvalues --    2.09698   2.13931   2.16443   2.17751   2.19239
 Alpha virt. eigenvalues --    2.21336   2.24503   2.27543   2.27548   2.28320
 Alpha virt. eigenvalues --    2.28569   2.29159   2.30004   2.32332   2.32558
 Alpha virt. eigenvalues --    2.32672   2.33751   2.34129   2.35498   2.36296
 Alpha virt. eigenvalues --    2.36681   2.37096   2.37992   2.39458   2.40896
 Alpha virt. eigenvalues --    2.41238   2.42633   2.43320   2.46324   2.46679
 Alpha virt. eigenvalues --    2.53170   2.53746   2.54971   2.57010   2.60183
 Alpha virt. eigenvalues --    2.62123   2.68684   2.70394   2.71738   2.89625
 Alpha virt. eigenvalues --    2.91446   2.93392   3.07457   3.30480   3.38461
 Alpha virt. eigenvalues --    3.58961   3.64603   3.65354   3.67032   3.76002
 Alpha virt. eigenvalues --    3.77305   3.83951   3.87194   3.90072   4.05604
 Alpha virt. eigenvalues --    4.06100   4.14020   4.15959   4.18901   5.06671
 Alpha virt. eigenvalues --    5.10155   6.43950   9.47677
          Condensed to atoms (all electrons):
               1          2          3          4
     1  C    6.376428  -0.030992  -0.092522  -0.092522
     2  S   -0.030992  16.451626  -0.188082  -0.188082
     3  Br  -0.092522  -0.188082  35.314562  -0.136389
     4  Br  -0.092522  -0.188082  -0.136389  35.314562
 Mulliken charges:
               1
     1  C   -0.160392
     2  S   -0.044469
     3  Br   0.102431
     4  Br   0.102431
 Sum of Mulliken charges =  -0.00000
 Mulliken charges with hydrogens summed into heavy atoms:
               1
     1  C   -0.160392
     2  S   -0.044469
     3  Br   0.102431
     4  Br   0.102431
 Electronic spatial extent (au):  <R**2>=           1431.6409
 Charge=             -0.0000 electrons
 Dipole moment (field-independent basis, Debye):
    X=              0.0081    Y=              0.0000    Z=             -0.4732  Tot=              0.4733
 Quadrupole moment (field-independent basis, Debye-Ang):
   XX=            -54.9567   YY=            -53.8196   ZZ=            -53.7724
   XY=              0.0000   XZ=             -0.0061   YZ=             -0.0000
 Traceless Quadrupole moment (field-independent basis, Debye-Ang):
   XX=             -0.7738   YY=              0.3633   ZZ=              0.4105
   XY=              0.0000   XZ=             -0.0061   YZ=             -0.0000
 Octapole moment (field-independent basis, Debye-Ang**2):
  XXX=              0.1919  YYY=              0.0000  ZZZ=            141.2599  XYY=              0.1491
  XXY=             -0.0000  XXZ=             47.7783  XZZ=              0.1453  YZZ=              0.0000
  YYZ=             35.3456  XYZ=             -0.0000
 Hexadecapole moment (field-independent basis, Debye-Ang**3):
 XXXX=            -67.2533 YYYY=           -572.3476 ZZZZ=           -700.4580 XXXY=              0.0000
 XXXZ=             -0.0847 YYYX=              0.0000 YYYZ=             -0.0000 ZZZX=             -0.2220
 ZZZY=              0.0000 XXYY=           -113.5368 XXZZ=           -130.5004 YYZZ=           -194.9057
 XXYZ=             -0.0000 YYXZ=             -0.2233 ZZXY=              0.0000
 N-N= 5.475682223139D+02 E-N=-1.443633083200D+04  KE= 5.579845827333D+03
 There are a total of      107126 grid points.
 ElSum from          density=       92.0000014509
 ElSum from atomic densities=       92.0000005856

 Hirshfeld populations at iteration   1 (CX, CA, CB, DipXYZ):
               1          2          3          4          5          6
     1  C    0.000001   2.982884   2.982884  -0.002464  -0.000000  -0.108790
     2  S    0.000013   8.027818   8.027818   0.003096  -0.000000   0.161742
     3  Br   0.000023  17.494650  17.494650   0.001602  -0.064373  -0.013867
     4  Br   0.000023  17.494650  17.494650   0.001602   0.064373  -0.013867
       Tot   0.000061  46.000001  46.000001   0.003837   0.000000   0.025219

 Dip from Atomic Chgs             -0.000647  -0.000000  -0.211383
         Total Dipole              0.003190   0.000000  -0.186164

 Hirshfeld charges, spin densities, dipoles, and CM5 charges using IRadAn=      5:
              Q-H        S-H        Dx         Dy         Dz        Q-CM5   
     1  C    0.034233   0.000000  -0.002464  -0.000000  -0.108790   0.024662
     2  S   -0.055636   0.000000   0.003096  -0.000000   0.161742  -0.080242
     3  Br   0.010701   0.000000   0.001602  -0.064373  -0.013867   0.027790
     4  Br   0.010701   0.000000   0.001602   0.064373  -0.013867   0.027790
       Tot  -0.000001   0.000000   0.003837   0.000000   0.025219  -0.000001
 Hirshfeld charges with hydrogens summed into heavy atoms:
              Q-H       Q-CM5   
     1  C    0.034233   0.024662
     2  S   -0.055636  -0.080242
     3  Br   0.010701   0.027790
     4  Br   0.010701   0.027790
 
 EQQ= 0.000000000000E+00 EQD= 0.000000000000E+00 EDD=-0.608747358597E-03
 EQQ+QD+DD=-0.608747358597E-03
 
 Breneman (CHELPG) radii used.
 GetVDW:  no radius for atom   3 atomic number  35.
 Error termination via Lnk1e in /home/wagner/chemistry/gaussian/g16/l602.exe at Mon Sep  5 17:46:59 2022.
 Job cpu time:       0 days 14 hours 37 minutes 17.1 seconds.
 Elapsed time:       0 days  0 hours 55 minutes 32.1 seconds.
 File lengths (MBytes):  RWF=  31411 Int=      0 D2E=      0 Chk=      2 Scr=      1
