 Entering Gaussian System, Link 0=/home/wagner/chemistry/gaussian/g16/g16
 Input=GAUSSIAN.com
 Output=GAUSSIAN.log
 Initial command:
 /home/wagner/chemistry/gaussian/g16/l1.exe "/home/wagner/chemistry/gaussian/work/Gau-11211.inp" -scrdir="/home/wagner/chemistry/gaussian/work/"
 Entering Link 1 = /home/wagner/chemistry/gaussian/g16/l1.exe PID=     11213.
  
 Copyright (c) 1988-2019, Gaussian, Inc.  All Rights Reserved.
  
 This is part of the Gaussian(R) 16 program.  It is based on
 the Gaussian(R) 09 system (copyright 2009, Gaussian, Inc.),
 the Gaussian(R) 03 system (copyright 2003, Gaussian, Inc.),
 the Gaussian(R) 98 system (copyright 1998, Gaussian, Inc.),
 the Gaussian(R) 94 system (copyright 1995, Gaussian, Inc.),
 the Gaussian 92(TM) system (copyright 1992, Gaussian, Inc.),
 the Gaussian 90(TM) system (copyright 1990, Gaussian, Inc.),
 the Gaussian 88(TM) system (copyright 1988, Gaussian, Inc.),
 the Gaussian 86(TM) system (copyright 1986, Carnegie Mellon
 University), and the Gaussian 82(TM) system (copyright 1983,
 Carnegie Mellon University). Gaussian is a federally registered
 trademark of Gaussian, Inc.
  
 This software contains proprietary and confidential information,
 including trade secrets, belonging to Gaussian, Inc.
  
 This software is provided under written license and may be
 used, copied, transmitted, or stored only in accord with that
 written license.
  
 The following legend is applicable only to US Government
 contracts under FAR:
  
                    RESTRICTED RIGHTS LEGEND
  
 Use, reproduction and disclosure by the US Government is
 subject to restrictions as set forth in subparagraphs (a)
 and (c) of the Commercial Computer Software - Restricted
 Rights clause in FAR 52.227-19.
  
 Gaussian, Inc.
 340 Quinnipiac St., Bldg. 40, Wallingford CT 06492
  
  
 ---------------------------------------------------------------
 Warning -- This program may not be used in any manner that
 competes with the business of Gaussian, Inc. or will provide
 assistance to any competitor of Gaussian, Inc.  The licensee
 of this program is prohibited from giving any competitor of
 Gaussian, Inc. access to this program.  By using this program,
 the user acknowledges that Gaussian, Inc. is engaged in the
 business of creating and licensing software in the field of
 computational chemistry and represents and warrants to the
 licensee that it is not a competitor of Gaussian, Inc. and that
 it will not use this program in any manner prohibited above.
 ---------------------------------------------------------------
  

 Cite this work as:
 Gaussian 16, Revision C.01,
 M. J. Frisch, G. W. Trucks, H. B. Schlegel, G. E. Scuseria, 
 M. A. Robb, J. R. Cheeseman, G. Scalmani, V. Barone, 
 G. A. Petersson, H. Nakatsuji, X. Li, M. Caricato, A. V. Marenich, 
 J. Bloino, B. G. Janesko, R. Gomperts, B. Mennucci, H. P. Hratchian, 
 J. V. Ortiz, A. F. Izmaylov, J. L. Sonnenberg, D. Williams-Young, 
 F. Ding, F. Lipparini, F. Egidi, J. Goings, B. Peng, A. Petrone, 
 T. Henderson, D. Ranasinghe, V. G. Zakrzewski, J. Gao, N. Rega, 
 G. Zheng, W. Liang, M. Hada, M. Ehara, K. Toyota, R. Fukuda, 
 J. Hasegawa, M. Ishida, T. Nakajima, Y. Honda, O. Kitao, H. Nakai, 
 T. Vreven, K. Throssell, J. A. Montgomery, Jr., J. E. Peralta, 
 F. Ogliaro, M. J. Bearpark, J. J. Heyd, E. N. Brothers, K. N. Kudin, 
 V. N. Staroverov, T. A. Keith, R. Kobayashi, J. Normand, 
 K. Raghavachari, A. P. Rendell, J. C. Burant, S. S. Iyengar, 
 J. Tomasi, M. Cossi, J. M. Millam, M. Klene, C. Adamo, R. Cammi, 
 J. W. Ochterski, R. L. Martin, K. Morokuma, O. Farkas, 
 J. B. Foresman, and D. J. Fox, Gaussian, Inc., Wallingford CT, 2019.
 
 ******************************************
 Gaussian 16:  EM64L-G16RevC.01  3-Jul-2019
                 6-Sep-2022 
 ******************************************
 %nproc=16
 Will use up to   16 processors via shared memory.
 %mem=16GB
 ----------------------------------------------------------------------
 # qcisd/aug-cc-pvtz nosymm density=current pop=(chelpg,hirshfeld,npa,d
 ipole)
 ----------------------------------------------------------------------
 1/30=1,38=1,172=1/1;
 2/12=2,15=1,17=6,18=5,40=1/2;
 3/5=16,6=1,7=10,11=9,25=1,30=1,71=1/1,2,3;
 4//1;
 5/5=2,38=5/2;
 8/6=4,9=120000,10=1/1,4;
 9/5=8,15=1/13;
 11/28=-7,31=1,32=3,42=3/11;
 10/5=6,13=10,31=1/2;
 6/7=2,8=2,9=2,10=2,15=24,20=3,22=-1,40=-1,79=1/1,2,7;
 99/5=1,9=1/99;
 ------------------
 br2cs-wavefunction
 ------------------
 Symbolic Z-matrix:
 Charge =  0 Multiplicity = 1
 C                     0.        0.       -0.51945 
 S                     0.        0.        1.08369 
 Br                    0.       -1.56852  -1.57857 
 Br                    0.01      1.56852  -1.57857 
 
                          Input orientation:                          
 ---------------------------------------------------------------------
 Center     Atomic      Atomic             Coordinates (Angstroms)
 Number     Number       Type             X           Y           Z
 ---------------------------------------------------------------------
      1          6           0        0.000000    0.000000   -0.519451
      2         16           0        0.000000    0.000000    1.083692
      3         35           0        0.000000   -1.568516   -1.578570
      4         35           0        0.010000    1.568516   -1.578570
 ---------------------------------------------------------------------
                    Distance matrix (angstroms):
                    1          2          3          4
     1  C    0.000000
     2  S    1.603143   0.000000
     3  Br   1.892611   3.089965   0.000000
     4  Br   1.892637   3.089981   3.137048   0.000000
 Symmetry turned off by external request.
 Stoichiometry    CBr2S
 Framework group  C1[X(CBr2S)]
 Deg. of freedom     6
 Full point group                 C1      NOp   1
 Rotational constants (GHZ):           2.6233562           1.3014481           0.8698939
 Standard basis: Aug-CC-pVTZ (5D, 7F)
   214 basis functions,   620 primitive gaussians,   252 cartesian basis functions
    46 alpha electrons       46 beta electrons
       nuclear repulsion energy       547.5681062574 Hartrees.
 NAtoms=    4 NActive=    4 NUniq=    4 SFac= 1.00D+00 NAtFMM=   60 NAOKFM=F Big=F
 Integral buffers will be    131072 words long.
 Raffenetti 1 integral format.
 Two-electron integral symmetry is turned off.
 One-electron integrals computed using PRISM.
 NBasis=   214 RedAO= T EigKep=  7.89D-05  NBF=   214
 NBsUse=   214 1.00D-06 EigRej= -1.00D+00 NBFU=   214
 ExpMin= 3.51D-02 ExpMax= 1.06D+07 ExpMxC= 1.21D+04 IAcc=3 IRadAn=         5 AccDes= 0.00D+00
 Harris functional with IExCor=  205 and IRadAn=       5 diagonalized for initial guess.
 HarFok:  IExCor=  205 AccDes= 0.00D+00 IRadAn=         5 IDoV= 1 UseB2=F ITyADJ=14
 ICtDFT=  3500011 ScaDFX=  1.000000  1.000000  1.000000  1.000000
 FoFCou: FMM=F IPFlag=           0 FMFlag=      100000 FMFlg1=           0
         NFxFlg=           0 DoJE=T BraDBF=F KetDBF=T FulRan=T
         wScrn=  0.000000 ICntrl=       500 IOpCl=  0 I1Cent=   200000004 NGrid=           0
         NMat0=    1 NMatS0=      1 NMatT0=    0 NMatD0=    1 NMtDS0=    0 NMtDT0=    0
 Symmetry not used in FoFCou.
 Keep R1 ints in memory in canonical form, NReq=277853477.
 Requested convergence on RMS density matrix=1.00D-08 within 128 cycles.
 Requested convergence on MAX density matrix=1.00D-06.
 Requested convergence on             energy=1.00D-06.
 No special actions if energy rises.
 SCF Done:  E(RHF) =  -5580.30867929     A.U. after   14 cycles
            NFock= 14  Conv=0.30D-08     -V/T= 2.0000
 ExpMin= 3.51D-02 ExpMax= 1.06D+07 ExpMxC= 1.21D+04 IAcc=3 IRadAn=         5 AccDes= 0.00D+00
 HarFok:  IExCor=  205 AccDes= 0.00D+00 IRadAn=         5 IDoV=-2 UseB2=F ITyADJ=14
 ICtDFT= 12500011 ScaDFX=  1.000000  1.000000  1.000000  1.000000
 GSVD:  LWork=        -768 too small for GESVD, short by        3240 words or        3240 for optimal perf.
 Range of M.O.s used for correlation:    25   214
 NBasis=   214 NAE=    46 NBE=    46 NFC=    24 NFV=     0
 NROrb=    190 NOA=    22 NOB=    22 NVA=   168 NVB=   168

 **** Warning!!: The largest alpha MO coefficient is  0.30763837D+02

 Semi-Direct transformation.
 ModeAB=           2 MOrb=            22 LenV=    2146186115
 LASXX=     69628944 LTotXX=    69628944 LenRXX=    69628944
 LTotAB=    70719517 MaxLAS=   133250040 LenRXY=   133250040
 NonZer=   139257888 LenScr=   209707008 LnRSAI=           0
 LnScr1=           0 LExtra=           0 Total=    412585992
 MaxDsk=          -1 SrtSym=           F ITran=            4
 JobTyp=0 Pass  1:  I=   1 to  22.
 (rs|ai) integrals will be sorted in core.
 Spin components of T(2) and E(2):
     alpha-alpha T2 =       0.4287467548D-01 E2=     -0.1154000253D+00
     alpha-beta  T2 =       0.2166589648D+00 E2=     -0.5793042792D+00
     beta-beta   T2 =       0.4287467548D-01 E2=     -0.1154000253D+00
 ANorm=    0.1141231053D+01
 E2 =    -0.8101043298D+00 EUMP2 =    -0.55811187836222D+04
 Keep R2 and R3 ints in memory in canonical form, NReq=542493906.
 CIDS: In Core Option IDoMem=           1.
 Iterations=  50 Convergence= 0.100D-07
 Produce multiple copies of IABC intergrals
 Iteration Nr.   1
 **********************
 DD1Dir will call FoFMem   1 times, MxPair=       506
 NAB=   253 NAA=     0 NBB=     0.
 MP4(R+Q)=  0.23474602D-01
 E3=       -0.12178117D-01        EUMP3=      -0.55811309617D+04
 E4(DQ)=   -0.51032246D-03        UMP4(DQ)=   -0.55811314721D+04
 E4(SDQ)=  -0.10185661D-01        UMP4(SDQ)=  -0.55811411474D+04
 DE(Corr)= -0.79880784     E(Corr)=     -5581.1074871    
 NORM(A)=   0.11410202D+01
 Iteration Nr.   2
 **********************
 DD1Dir will call FoFMem   1 times, MxPair=       506
 NAB=   253 NAA=     0 NBB=     0.
 DE(Corr)= -0.82757702     E(CORR)=     -5581.1362563     Delta=-2.88D-02
 NORM(A)=   0.11532082D+01
 Iteration Nr.   3
 **********************
 DD1Dir will call FoFMem   1 times, MxPair=       506
 NAB=   253 NAA=     0 NBB=     0.
 DE(Corr)= -0.82616927     E(CORR)=     -5581.1348486     Delta= 1.41D-03
 NORM(A)=   0.11560446D+01
 Iteration Nr.   4
 **********************
 DD1Dir will call FoFMem   1 times, MxPair=       506
 NAB=   253 NAA=     0 NBB=     0.
 DE(Corr)= -0.82852043     E(CORR)=     -5581.1371997     Delta=-2.35D-03
 NORM(A)=   0.11573515D+01
 Iteration Nr.   5
 **********************
 DD1Dir will call FoFMem   1 times, MxPair=       506
 NAB=   253 NAA=     0 NBB=     0.
 DE(Corr)= -0.82882959     E(CORR)=     -5581.1375089     Delta=-3.09D-04
 NORM(A)=   0.11579885D+01
 Iteration Nr.   6
 **********************
 DD1Dir will call FoFMem   1 times, MxPair=       506
 NAB=   253 NAA=     0 NBB=     0.
 DE(Corr)= -0.82889432     E(CORR)=     -5581.1375736     Delta=-6.47D-05
 NORM(A)=   0.11580685D+01
 Iteration Nr.   7
 **********************
 DD1Dir will call FoFMem   1 times, MxPair=       506
 NAB=   253 NAA=     0 NBB=     0.
 DE(Corr)= -0.82890614     E(CORR)=     -5581.1375854     Delta=-1.18D-05
 NORM(A)=   0.11580853D+01
 Iteration Nr.   8
 **********************
 DD1Dir will call FoFMem   1 times, MxPair=       506
 NAB=   253 NAA=     0 NBB=     0.
 DE(Corr)= -0.82890226     E(CORR)=     -5581.1375815     Delta= 3.88D-06
 NORM(A)=   0.11580937D+01
 Iteration Nr.   9
 **********************
 DD1Dir will call FoFMem   1 times, MxPair=       506
 NAB=   253 NAA=     0 NBB=     0.
 DE(Corr)= -0.82890395     E(CORR)=     -5581.1375832     Delta=-1.69D-06
 NORM(A)=   0.11580943D+01
 Iteration Nr.  10
 **********************
 DD1Dir will call FoFMem   1 times, MxPair=       506
 NAB=   253 NAA=     0 NBB=     0.
 DE(Corr)= -0.82890407     E(CORR)=     -5581.1375834     Delta=-1.16D-07
 NORM(A)=   0.11580981D+01
 Iteration Nr.  11
 **********************
 DD1Dir will call FoFMem   1 times, MxPair=       506
 NAB=   253 NAA=     0 NBB=     0.
 DE(Corr)= -0.82890565     E(CORR)=     -5581.1375849     Delta=-1.58D-06
 NORM(A)=   0.11581000D+01
 Iteration Nr.  12
 **********************
 DD1Dir will call FoFMem   1 times, MxPair=       506
 NAB=   253 NAA=     0 NBB=     0.
 DE(Corr)= -0.82890573     E(CORR)=     -5581.1375850     Delta=-7.82D-08
 NORM(A)=   0.11581016D+01
 Iteration Nr.  13
 **********************
 DD1Dir will call FoFMem   1 times, MxPair=       506
 NAB=   253 NAA=     0 NBB=     0.
 DE(Corr)= -0.82890636     E(CORR)=     -5581.1375857     Delta=-6.35D-07
 NORM(A)=   0.11581026D+01
 Iteration Nr.  14
 **********************
 DD1Dir will call FoFMem   1 times, MxPair=       506
 NAB=   253 NAA=     0 NBB=     0.
 DE(Corr)= -0.82890637     E(CORR)=     -5581.1375857     Delta=-1.20D-08
 NORM(A)=   0.11581030D+01
 Iteration Nr.  15
 **********************
 DD1Dir will call FoFMem   1 times, MxPair=       506
 NAB=   253 NAA=     0 NBB=     0.
 DE(Corr)= -0.82890649     E(CORR)=     -5581.1375858     Delta=-1.15D-07
 NORM(A)=   0.11581032D+01
 Iteration Nr.  16
 **********************
 DD1Dir will call FoFMem   1 times, MxPair=       506
 NAB=   253 NAA=     0 NBB=     0.
 DE(Corr)= -0.82890652     E(CORR)=     -5581.1375858     Delta=-2.82D-08
 NORM(A)=   0.11581036D+01
 Iteration Nr.  17
 **********************
 DD1Dir will call FoFMem   1 times, MxPair=       506
 NAB=   253 NAA=     0 NBB=     0.
 DE(Corr)= -0.82890644     E(CORR)=     -5581.1375857     Delta= 7.90D-08
 NORM(A)=   0.11581034D+01
 Iteration Nr.  18
 **********************
 DD1Dir will call FoFMem   1 times, MxPair=       506
 NAB=   253 NAA=     0 NBB=     0.
 DE(Corr)= -0.82890648     E(CORR)=     -5581.1375858     Delta=-4.45D-08
 NORM(A)=   0.11581033D+01
 Iteration Nr.  19
 **********************
 DD1Dir will call FoFMem   1 times, MxPair=       506
 NAB=   253 NAA=     0 NBB=     0.
 DE(Corr)= -0.82890650     E(CORR)=     -5581.1375858     Delta=-1.76D-08
 NORM(A)=   0.11581033D+01
 Iteration Nr.  20
 **********************
 DD1Dir will call FoFMem   1 times, MxPair=       506
 NAB=   253 NAA=     0 NBB=     0.
 DE(Corr)= -0.82890655     E(CORR)=     -5581.1375858     Delta=-5.03D-08
 NORM(A)=   0.11581033D+01
 Iteration Nr.  21
 **********************
 DD1Dir will call FoFMem   1 times, MxPair=       506
 NAB=   253 NAA=     0 NBB=     0.
 DE(Corr)= -0.82890652     E(CORR)=     -5581.1375858     Delta= 2.80D-08
 NORM(A)=   0.11581033D+01
 Iteration Nr.  22
 **********************
 DD1Dir will call FoFMem   1 times, MxPair=       506
 NAB=   253 NAA=     0 NBB=     0.
 DE(Corr)= -0.82890648     E(CORR)=     -5581.1375858     Delta= 4.16D-08
 NORM(A)=   0.11581033D+01
 Iteration Nr.  23
 **********************
 DD1Dir will call FoFMem   1 times, MxPair=       506
 NAB=   253 NAA=     0 NBB=     0.
 DE(Corr)= -0.82890650     E(CORR)=     -5581.1375858     Delta=-2.38D-08
 NORM(A)=   0.11581033D+01
 Iteration Nr.  24
 **********************
 DD1Dir will call FoFMem   1 times, MxPair=       506
 NAB=   253 NAA=     0 NBB=     0.
 DE(Corr)= -0.82890653     E(CORR)=     -5581.1375858     Delta=-2.19D-08
 NORM(A)=   0.11581034D+01
 Iteration Nr.  25
 **********************
 DD1Dir will call FoFMem   1 times, MxPair=       506
 NAB=   253 NAA=     0 NBB=     0.
 DE(Corr)= -0.82890653     E(CORR)=     -5581.1375858     Delta=-3.60D-09
 NORM(A)=   0.11581034D+01
 Wavefunction amplitudes converged. E(Corr)=     -5581.1375858    
 Largest amplitude= 7.67D-02

 Z-amplitude iterations

 Iteration Nr.   1
 **********************
 DD1Dir will call FoFMem   1 times, MxPair=       506
 NAB=   253 NAA=     0 NBB=     0.
 DE(Z)= -0.79824677     E(Z)=     -5581.1069261     Delta= 3.07D-02
 NORM(A)=   0.11582252D+01
 Iteration Nr.   2
 **********************
 DD1Dir will call FoFMem   1 times, MxPair=       506
 NAB=   253 NAA=     0 NBB=     0.
 DE(Z)= -0.79824766     E(Z)=     -5581.1069270     Delta=-8.91D-07
 NORM(A)=   0.11579142D+01
 Iteration Nr.   3
 **********************
 DD1Dir will call FoFMem   1 times, MxPair=       506
 NAB=   253 NAA=     0 NBB=     0.
 DE(Z)= -0.79824557     E(Z)=     -5581.1069249     Delta= 2.09D-06
 NORM(A)=   0.11584837D+01
 Iteration Nr.   4
 **********************
 DD1Dir will call FoFMem   1 times, MxPair=       506
 NAB=   253 NAA=     0 NBB=     0.
 DE(Z)= -0.79824958     E(Z)=     -5581.1069289     Delta=-4.01D-06
 NORM(A)=   0.11576917D+01
 Iteration Nr.   5
 **********************
 DD1Dir will call FoFMem   1 times, MxPair=       506
 NAB=   253 NAA=     0 NBB=     0.
 DE(Z)= -0.79824296     E(Z)=     -5581.1069223     Delta= 6.62D-06
 NORM(A)=   0.11448419D+01
 Iteration Nr.   6
 **********************
 DD1Dir will call FoFMem   1 times, MxPair=       506
 NAB=   253 NAA=     0 NBB=     0.
 DE(Z)= -0.79813098     E(Z)=     -5581.1068103     Delta= 1.12D-04
 NORM(A)=   0.11448411D+01
 Iteration Nr.   7
 **********************
 DD1Dir will call FoFMem   1 times, MxPair=       506
 NAB=   253 NAA=     0 NBB=     0.
 DE(Z)= -0.79812445     E(Z)=     -5581.1068037     Delta= 6.53D-06
 NORM(A)=   0.11448409D+01
 Iteration Nr.   8
 **********************
 DD1Dir will call FoFMem   1 times, MxPair=       506
 NAB=   253 NAA=     0 NBB=     0.
 DE(Z)= -0.79812720     E(Z)=     -5581.1068065     Delta=-2.75D-06
 NORM(A)=   0.11448415D+01
 Iteration Nr.   9
 **********************
 DD1Dir will call FoFMem   1 times, MxPair=       506
 NAB=   253 NAA=     0 NBB=     0.
 DE(Z)= -0.79812705     E(Z)=     -5581.1068063     Delta= 1.50D-07
 NORM(A)=   0.11448419D+01
 Iteration Nr.  10
 **********************
 DD1Dir will call FoFMem   1 times, MxPair=       506
 NAB=   253 NAA=     0 NBB=     0.
 DE(Z)= -0.79812699     E(Z)=     -5581.1068063     Delta= 5.89D-08
 NORM(A)=   0.11448422D+01
 Iteration Nr.  11
 **********************
 DD1Dir will call FoFMem   1 times, MxPair=       506
 NAB=   253 NAA=     0 NBB=     0.
 DE(Z)= -0.79812704     E(Z)=     -5581.1068063     Delta=-4.66D-08
 NORM(A)=   0.11448423D+01
 Iteration Nr.  12
 **********************
 DD1Dir will call FoFMem   1 times, MxPair=       506
 NAB=   253 NAA=     0 NBB=     0.
 DE(Z)= -0.79812702     E(Z)=     -5581.1068063     Delta= 1.32D-08
 NORM(A)=   0.11448423D+01
 Iteration Nr.  13
 **********************
 DD1Dir will call FoFMem   1 times, MxPair=       506
 NAB=   253 NAA=     0 NBB=     0.
 DE(Z)= -0.79812702     E(Z)=     -5581.1068063     Delta= 6.79D-09
 NORM(A)=   0.11448423D+01
 Z-amplitudes converged.
 Discarding MO integrals.
          Differentiating once with respect to electric field.
                with respect to dipole field.
          Electric field/nuclear overlap derivatives assumed to be zero.
 Keep R1 ints in memory in canonical form, NReq=277859851.
          There are     1 degrees of freedom in the 1st order CPHF.  IDoFFX=0 NUNeed=     1.
 LinEq1:  Iter=  0 NonCon=     1 RMS=1.78D-03 Max=6.60D-02 NDo=     1
 AX will form     1 AO Fock derivatives at one time.
 LinEq1:  Iter=  1 NonCon=     1 RMS=8.41D-04 Max=1.81D-02 NDo=     1
 LinEq1:  Iter=  2 NonCon=     1 RMS=3.81D-04 Max=1.47D-02 NDo=     1
 LinEq1:  Iter=  3 NonCon=     1 RMS=1.25D-04 Max=4.33D-03 NDo=     1
 LinEq1:  Iter=  4 NonCon=     1 RMS=4.84D-05 Max=9.28D-04 NDo=     1
 LinEq1:  Iter=  5 NonCon=     1 RMS=9.56D-06 Max=1.72D-04 NDo=     1
 LinEq1:  Iter=  6 NonCon=     1 RMS=3.25D-06 Max=7.85D-05 NDo=     1
 LinEq1:  Iter=  7 NonCon=     1 RMS=7.08D-07 Max=2.19D-05 NDo=     1
 LinEq1:  Iter=  8 NonCon=     1 RMS=1.38D-07 Max=4.12D-06 NDo=     1
 LinEq1:  Iter=  9 NonCon=     1 RMS=3.37D-08 Max=1.03D-06 NDo=     1
 LinEq1:  Iter= 10 NonCon=     1 RMS=9.42D-09 Max=2.07D-07 NDo=     1
 LinEq1:  Iter= 11 NonCon=     1 RMS=1.96D-09 Max=4.93D-08 NDo=     1
 LinEq1:  Iter= 12 NonCon=     1 RMS=3.61D-10 Max=8.76D-09 NDo=     1
 LinEq1:  Iter= 13 NonCon=     1 RMS=7.26D-11 Max=1.15D-09 NDo=     1
 LinEq1:  Iter= 14 NonCon=     0 RMS=2.10D-11 Max=4.12D-10 NDo=     1
 Linear equations converged to 1.000D-10 1.000D-09 after    14 iterations.
 End of Minotr F.D. properties file   721 does not exist.
 End of Minotr F.D. properties file   722 does not exist.
 End of Minotr F.D. properties file   788 does not exist.

 **********************************************************************

            Population analysis using the CC Density.

 **********************************************************************

 Alpha  occ. eigenvalues -- -490.06361-490.06360 -91.98023 -65.20341 -65.20341
 Alpha  occ. eigenvalues --  -58.55875 -58.55875 -58.55724 -58.55724 -58.55705
 Alpha  occ. eigenvalues --  -58.55705 -11.43411  -9.87646  -9.87645  -8.98292
 Alpha  occ. eigenvalues --   -7.48840  -7.48839  -7.48111  -7.48111  -7.48032
 Alpha  occ. eigenvalues --   -7.48032  -6.66360  -6.66275  -6.66119  -3.23247
 Alpha  occ. eigenvalues --   -3.23246  -3.22887  -3.22886  -3.22779  -3.22778
 Alpha  occ. eigenvalues --   -3.21853  -3.21852  -3.21850  -3.21849  -1.16791
 Alpha  occ. eigenvalues --   -1.04150  -1.01489  -0.74033  -0.59711  -0.58346
 Alpha  occ. eigenvalues --   -0.54051  -0.46258  -0.44556  -0.42867  -0.39719
 Alpha  occ. eigenvalues --   -0.37182
 Alpha virt. eigenvalues --    0.01303   0.04662   0.05711   0.06063   0.08381
 Alpha virt. eigenvalues --    0.08954   0.09153   0.10092   0.11087   0.11455
 Alpha virt. eigenvalues --    0.12003   0.13414   0.14425   0.15451   0.15755
 Alpha virt. eigenvalues --    0.16993   0.18584   0.22151   0.23660   0.23995
 Alpha virt. eigenvalues --    0.24129   0.27594   0.29911   0.30870   0.33010
 Alpha virt. eigenvalues --    0.33985   0.34208   0.35552   0.35923   0.36811
 Alpha virt. eigenvalues --    0.37299   0.39635   0.40103   0.42869   0.43647
 Alpha virt. eigenvalues --    0.46295   0.48008   0.48124   0.48408   0.48712
 Alpha virt. eigenvalues --    0.48865   0.51277   0.57629   0.58766   0.59008
 Alpha virt. eigenvalues --    0.60619   0.65447   0.66494   0.68514   0.70397
 Alpha virt. eigenvalues --    0.71713   0.74663   0.75276   0.76073   0.76435
 Alpha virt. eigenvalues --    0.77051   0.78345   0.78555   0.78660   0.80019
 Alpha virt. eigenvalues --    0.81370   0.81383   0.84997   0.85975   0.88385
 Alpha virt. eigenvalues --    0.89081   0.89940   0.91615   0.93616   0.94866
 Alpha virt. eigenvalues --    0.95660   1.01175   1.01772   1.03322   1.03703
 Alpha virt. eigenvalues --    1.04534   1.04617   1.14649   1.15166   1.15944
 Alpha virt. eigenvalues --    1.17473   1.19017   1.19719   1.22387   1.26097
 Alpha virt. eigenvalues --    1.27754   1.32580   1.35128   1.38702   1.45439
 Alpha virt. eigenvalues --    1.46808   1.49471   1.51863   1.52408   1.53215
 Alpha virt. eigenvalues --    1.53839   1.54603   1.63536   1.71966   1.72288
 Alpha virt. eigenvalues --    1.74100   1.74375   1.91993   1.97966   2.07383
 Alpha virt. eigenvalues --    2.09699   2.13932   2.16444   2.17752   2.19236
 Alpha virt. eigenvalues --    2.21332   2.24507   2.27542   2.27548   2.28321
 Alpha virt. eigenvalues --    2.28576   2.29152   2.30005   2.32333   2.32562
 Alpha virt. eigenvalues --    2.32668   2.33763   2.34117   2.35498   2.36296
 Alpha virt. eigenvalues --    2.36693   2.37083   2.38020   2.39424   2.40894
 Alpha virt. eigenvalues --    2.41241   2.42634   2.43321   2.46320   2.46682
 Alpha virt. eigenvalues --    2.53171   2.53774   2.54968   2.57000   2.60179
 Alpha virt. eigenvalues --    2.62122   2.68699   2.70396   2.71728   2.89628
 Alpha virt. eigenvalues --    2.91448   2.93392   3.07463   3.30470   3.38508
 Alpha virt. eigenvalues --    3.58963   3.64616   3.65344   3.67028   3.76009
 Alpha virt. eigenvalues --    3.77306   3.83958   3.87193   3.90071   4.05598
 Alpha virt. eigenvalues --    4.06104   4.14011   4.15965   4.18913   5.06685
 Alpha virt. eigenvalues --    5.10145   6.43975   9.47721
          Condensed to atoms (all electrons):
               1          2          3          4
     1  C    6.376564  -0.031105  -0.092588  -0.092562
     2  S   -0.031105  16.451993  -0.188185  -0.188179
     3  Br  -0.092588  -0.188185  35.314787  -0.136447
     4  Br  -0.092562  -0.188179  -0.136447  35.314786
 Mulliken charges:
               1
     1  C   -0.160309
     2  S   -0.044525
     3  Br   0.102433
     4  Br   0.102401
 Sum of Mulliken charges =  -0.00000
 Mulliken charges with hydrogens summed into heavy atoms:
               1
     1  C   -0.160309
     2  S   -0.044525
     3  Br   0.102433
     4  Br   0.102401
 Electronic spatial extent (au):  <R**2>=           1431.6509
 Charge=             -0.0000 electrons
 Dipole moment (field-independent basis, Debye):
    X=              0.0033    Y=             -0.0001    Z=             -0.4732  Tot=              0.4732
 Quadrupole moment (field-independent basis, Debye-Ang):
   XX=            -54.9569   YY=            -53.8192   ZZ=            -53.7721
   XY=              0.0036   XZ=             -0.0050   YZ=              0.0002
 Traceless Quadrupole moment (field-independent basis, Debye-Ang):
   XX=             -0.7742   YY=              0.3635   ZZ=              0.4106
   XY=              0.0036   XZ=             -0.0050   YZ=              0.0002
 Octapole moment (field-independent basis, Debye-Ang**2):
  XXX=             -0.5470  YYY=             -0.0007  ZZZ=            141.2598  XYY=             -0.1310
  XXY=              0.0002  XXZ=             47.7782  XZZ=             -0.1515  YZZ=             -0.0005
  YYZ=             35.3451  XYZ=             -0.0396
 Hexadecapole moment (field-independent basis, Debye-Ang**3):
 XXXX=            -67.2614 YYYY=           -572.3441 ZZZZ=           -700.4556 XXXY=             -0.8714
 XXXZ=              0.8752 YYYX=             -0.7387 YYYZ=              0.0014 ZZZX=              0.8009
 ZZZY=              0.0012 XXYY=           -113.5374 XXZZ=           -130.5014 YYZZ=           -194.9040
 XXYZ=             -0.0007 YYXZ=              0.1575 ZZXY=             -0.2053
 N-N= 5.475681062574D+02 E-N=-1.443633066369D+04  KE= 5.579845914048D+03
 There are a total of      107126 grid points.
 ElSum from          density=       92.0000014555
 ElSum from atomic densities=       92.0000005888

 Hirshfeld populations at iteration   1 (CX, CA, CB, DipXYZ):
               1          2          3          4          5          6
     1  C    0.000001   2.982886   2.982886  -0.000538   0.000002  -0.108796
     2  S    0.000013   8.027820   8.027820   0.000628  -0.000001   0.161762
     3  Br   0.000023  17.494644  17.494644   0.000303  -0.064382  -0.013868
     4  Br   0.000023  17.494651  17.494651   0.000714   0.064377  -0.013865
       Tot   0.000061  46.000001  46.000001   0.001108  -0.000003   0.025233

 Dip from Atomic Chgs              0.000202  -0.000037  -0.211412
         Total Dipole              0.001310  -0.000040  -0.186179

 Hirshfeld charges, spin densities, dipoles, and CM5 charges using IRadAn=      5:
              Q-H        S-H        Dx         Dy         Dz        Q-CM5   
     1  C    0.034228   0.000000  -0.000538   0.000002  -0.108796   0.024658
     2  S   -0.055640   0.000000   0.000628  -0.000001   0.161762  -0.080248
     3  Br   0.010711   0.000000   0.000303  -0.064382  -0.013868   0.027801
     4  Br   0.010699   0.000000   0.000714   0.064377  -0.013865   0.027787
       Tot  -0.000001   0.000000   0.001108  -0.000003   0.025233  -0.000001
 Hirshfeld charges with hydrogens summed into heavy atoms:
              Q-H       Q-CM5   
     1  C    0.034228   0.024658
     2  S   -0.055640  -0.080248
     3  Br   0.010711   0.027801
     4  Br   0.010699   0.027787
 
 EQQ= 0.000000000000E+00 EQD= 0.000000000000E+00 EDD=-0.608534794046E-03
 EQQ+QD+DD=-0.608534794046E-03
 
 Breneman (CHELPG) radii used.
 GetVDW:  no radius for atom   3 atomic number  35.
 Error termination via Lnk1e in /home/wagner/chemistry/gaussian/g16/l602.exe at Tue Sep  6 09:38:47 2022.
 Job cpu time:       0 days 15 hours  1 minutes  2.1 seconds.
 Elapsed time:       0 days  0 hours 56 minutes 49.0 seconds.
 File lengths (MBytes):  RWF=  31411 Int=      0 D2E=      0 Chk=      2 Scr=      1
