 Entering Gaussian System, Link 0=/home/wagner/chemistry/gaussian/g16/g16
 Input=GAUSSIAN.com
 Output=GAUSSIAN.log
 Initial command:
 /home/wagner/chemistry/gaussian/g16/l1.exe "/home/wagner/chemistry/gaussian/work/Gau-1606.inp" -scrdir="/home/wagner/chemistry/gaussian/work/"
 Entering Link 1 = /home/wagner/chemistry/gaussian/g16/l1.exe PID=      1608.
  
 Copyright (c) 1988-2019, Gaussian, Inc.  All Rights Reserved.
  
 This is part of the Gaussian(R) 16 program.  It is based on
 the Gaussian(R) 09 system (copyright 2009, Gaussian, Inc.),
 the Gaussian(R) 03 system (copyright 2003, Gaussian, Inc.),
 the Gaussian(R) 98 system (copyright 1998, Gaussian, Inc.),
 the Gaussian(R) 94 system (copyright 1995, Gaussian, Inc.),
 the Gaussian 92(TM) system (copyright 1992, Gaussian, Inc.),
 the Gaussian 90(TM) system (copyright 1990, Gaussian, Inc.),
 the Gaussian 88(TM) system (copyright 1988, Gaussian, Inc.),
 the Gaussian 86(TM) system (copyright 1986, Carnegie Mellon
 University), and the Gaussian 82(TM) system (copyright 1983,
 Carnegie Mellon University). Gaussian is a federally registered
 trademark of Gaussian, Inc.
  
 This software contains proprietary and confidential information,
 including trade secrets, belonging to Gaussian, Inc.
  
 This software is provided under written license and may be
 used, copied, transmitted, or stored only in accord with that
 written license.
  
 The following legend is applicable only to US Government
 contracts under FAR:
  
                    RESTRICTED RIGHTS LEGEND
  
 Use, reproduction and disclosure by the US Government is
 subject to restrictions as set forth in subparagraphs (a)
 and (c) of the Commercial Computer Software - Restricted
 Rights clause in FAR 52.227-19.
  
 Gaussian, Inc.
 340 Quinnipiac St., Bldg. 40, Wallingford CT 06492
  
  
 ---------------------------------------------------------------
 Warning -- This program may not be used in any manner that
 competes with the business of Gaussian, Inc. or will provide
 assistance to any competitor of Gaussian, Inc.  The licensee
 of this program is prohibited from giving any competitor of
 Gaussian, Inc. access to this program.  By using this program,
 the user acknowledges that Gaussian, Inc. is engaged in the
 business of creating and licensing software in the field of
 computational chemistry and represents and warrants to the
 licensee that it is not a competitor of Gaussian, Inc. and that
 it will not use this program in any manner prohibited above.
 ---------------------------------------------------------------
  

 Cite this work as:
 Gaussian 16, Revision C.01,
 M. J. Frisch, G. W. Trucks, H. B. Schlegel, G. E. Scuseria, 
 M. A. Robb, J. R. Cheeseman, G. Scalmani, V. Barone, 
 G. A. Petersson, H. Nakatsuji, X. Li, M. Caricato, A. V. Marenich, 
 J. Bloino, B. G. Janesko, R. Gomperts, B. Mennucci, H. P. Hratchian, 
 J. V. Ortiz, A. F. Izmaylov, J. L. Sonnenberg, D. Williams-Young, 
 F. Ding, F. Lipparini, F. Egidi, J. Goings, B. Peng, A. Petrone, 
 T. Henderson, D. Ranasinghe, V. G. Zakrzewski, J. Gao, N. Rega, 
 G. Zheng, W. Liang, M. Hada, M. Ehara, K. Toyota, R. Fukuda, 
 J. Hasegawa, M. Ishida, T. Nakajima, Y. Honda, O. Kitao, H. Nakai, 
 T. Vreven, K. Throssell, J. A. Montgomery, Jr., J. E. Peralta, 
 F. Ogliaro, M. J. Bearpark, J. J. Heyd, E. N. Brothers, K. N. Kudin, 
 V. N. Staroverov, T. A. Keith, R. Kobayashi, J. Normand, 
 K. Raghavachari, A. P. Rendell, J. C. Burant, S. S. Iyengar, 
 J. Tomasi, M. Cossi, J. M. Millam, M. Klene, C. Adamo, R. Cammi, 
 J. W. Ochterski, R. L. Martin, K. Morokuma, O. Farkas, 
 J. B. Foresman, and D. J. Fox, Gaussian, Inc., Wallingford CT, 2019.
 
 ******************************************
 Gaussian 16:  EM64L-G16RevC.01  3-Jul-2019
                 5-Sep-2022 
 ******************************************
 %nproc=16
 Will use up to   16 processors via shared memory.
 %mem=16GB
 ----------------------------------------------------------------------
 # qcisd/aug-cc-pvtz nosymm density=current pop=(chelpg,hirshfeld,npa,d
 ipole)
 ----------------------------------------------------------------------
 1/30=1,38=1,172=1/1;
 2/12=2,15=1,17=6,18=5,40=1/2;
 3/5=16,6=1,7=10,11=9,25=1,30=1,71=1/1,2,3;
 4//1;
 5/5=2,38=5/2;
 8/6=4,9=120000,10=1/1,4;
 9/5=8,15=1/13;
 11/28=-7,31=1,32=3,42=3/11;
 10/5=6,13=10,31=1/2;
 6/7=2,8=2,9=2,10=2,15=24,20=3,22=-1,40=-1,79=1/1,2,7;
 99/5=1,9=1/99;
 ------------------
 br2cs-wavefunction
 ------------------
 Symbolic Z-matrix:
 Charge =  0 Multiplicity = 1
 C                     0.        0.       -0.52945 
 S                     0.        0.        1.08369 
 Br                    0.       -1.56852  -1.57857 
 Br                    0.        1.56852  -1.57857 
 
                          Input orientation:                          
 ---------------------------------------------------------------------
 Center     Atomic      Atomic             Coordinates (Angstroms)
 Number     Number       Type             X           Y           Z
 ---------------------------------------------------------------------
      1          6           0        0.000000    0.000000   -0.529451
      2         16           0        0.000000    0.000000    1.083692
      3         35           0        0.000000   -1.568516   -1.578570
      4         35           0        0.000000    1.568516   -1.578570
 ---------------------------------------------------------------------
                    Distance matrix (angstroms):
                    1          2          3          4
     1  C    0.000000
     2  S    1.613143   0.000000
     3  Br   1.887033   3.089965   0.000000
     4  Br   1.887033   3.089965   3.137032   0.000000
 Symmetry turned off by external request.
 Stoichiometry    CBr2S
 Framework group  C2V[C2(CS),SGV(Br2)]
 Deg. of freedom     3
 Full point group                 C2V     NOp   4
 Rotational constants (GHZ):           2.6252310           1.3014617           0.8701057
 Standard basis: Aug-CC-pVTZ (5D, 7F)
   214 basis functions,   620 primitive gaussians,   252 cartesian basis functions
    46 alpha electrons       46 beta electrons
       nuclear repulsion energy       547.7211582202 Hartrees.
 NAtoms=    4 NActive=    4 NUniq=    4 SFac= 1.00D+00 NAtFMM=   60 NAOKFM=F Big=F
 Integral buffers will be    131072 words long.
 Raffenetti 1 integral format.
 Two-electron integral symmetry is turned off.
 One-electron integrals computed using PRISM.
 NBasis=   214 RedAO= T EigKep=  8.00D-05  NBF=   214
 NBsUse=   214 1.00D-06 EigRej= -1.00D+00 NBFU=   214
 ExpMin= 3.51D-02 ExpMax= 1.06D+07 ExpMxC= 1.21D+04 IAcc=3 IRadAn=         5 AccDes= 0.00D+00
 Harris functional with IExCor=  205 and IRadAn=       5 diagonalized for initial guess.
 HarFok:  IExCor=  205 AccDes= 0.00D+00 IRadAn=         5 IDoV= 1 UseB2=F ITyADJ=14
 ICtDFT=  3500011 ScaDFX=  1.000000  1.000000  1.000000  1.000000
 FoFCou: FMM=F IPFlag=           0 FMFlag=      100000 FMFlg1=           0
         NFxFlg=           0 DoJE=T BraDBF=F KetDBF=T FulRan=T
         wScrn=  0.000000 ICntrl=       500 IOpCl=  0 I1Cent=   200000004 NGrid=           0
         NMat0=    1 NMatS0=      1 NMatT0=    0 NMatD0=    1 NMtDS0=    0 NMtDT0=    0
 Symmetry not used in FoFCou.
 Keep R1 ints in memory in canonical form, NReq=277853506.
 Requested convergence on RMS density matrix=1.00D-08 within 128 cycles.
 Requested convergence on MAX density matrix=1.00D-06.
 Requested convergence on             energy=1.00D-06.
 No special actions if energy rises.
 SCF Done:  E(RHF) =  -5580.30833953     A.U. after   14 cycles
            NFock= 14  Conv=0.30D-08     -V/T= 2.0000
 ExpMin= 3.51D-02 ExpMax= 1.06D+07 ExpMxC= 1.21D+04 IAcc=3 IRadAn=         5 AccDes= 0.00D+00
 HarFok:  IExCor=  205 AccDes= 0.00D+00 IRadAn=         5 IDoV=-2 UseB2=F ITyADJ=14
 ICtDFT= 12500011 ScaDFX=  1.000000  1.000000  1.000000  1.000000
 GSVD:  LWork=        -768 too small for GESVD, short by        3240 words or        3240 for optimal perf.
 Range of M.O.s used for correlation:    25   214
 NBasis=   214 NAE=    46 NBE=    46 NFC=    24 NFV=     0
 NROrb=    190 NOA=    22 NOB=    22 NVA=   168 NVB=   168

 **** Warning!!: The largest alpha MO coefficient is  0.30835661D+02

 Semi-Direct transformation.
 ModeAB=           2 MOrb=            22 LenV=    2146186059
 LASXX=     69628944 LTotXX=    69628944 LenRXX=    69628944
 LTotAB=    70719517 MaxLAS=   133250040 LenRXY=   133250040
 NonZer=   139257888 LenScr=   209707008 LnRSAI=           0
 LnScr1=           0 LExtra=           0 Total=    412585992
 MaxDsk=          -1 SrtSym=           F ITran=            4
 JobTyp=0 Pass  1:  I=   1 to  22.
 (rs|ai) integrals will be sorted in core.
 Spin components of T(2) and E(2):
     alpha-alpha T2 =       0.4292399168D-01 E2=     -0.1154478415D+00
     alpha-beta  T2 =       0.2169315867D+00 E2=     -0.5795162505D+00
     beta-beta   T2 =       0.4292399168D-01 E2=     -0.1154478415D+00
 ANorm=    0.1141393696D+01
 E2 =    -0.8104119334D+00 EUMP2 =    -0.55811187514670D+04
 Keep R2 and R3 ints in memory in canonical form, NReq=542493935.
 CIDS: In Core Option IDoMem=           1.
 Iterations=  50 Convergence= 0.100D-07
 Produce multiple copies of IABC intergrals
 Iteration Nr.   1
 **********************
 DD1Dir will call FoFMem   1 times, MxPair=       506
 NAB=   253 NAA=     0 NBB=     0.
 MP4(R+Q)=  0.23516323D-01
 E3=       -0.12053945D-01        EUMP3=      -0.55811308054D+04
 E4(DQ)=   -0.52906913D-03        UMP4(DQ)=   -0.55811313345D+04
 E4(SDQ)=  -0.10262319D-01        UMP4(SDQ)=  -0.55811410677D+04
 DE(Corr)= -0.79894956     E(Corr)=     -5581.1072891    
 NORM(A)=   0.11411276D+01
 Iteration Nr.   2
 **********************
 DD1Dir will call FoFMem   1 times, MxPair=       506
 NAB=   253 NAA=     0 NBB=     0.
 DE(Corr)= -0.82783623     E(CORR)=     -5581.1361758     Delta=-2.89D-02
 NORM(A)=   0.11533631D+01
 Iteration Nr.   3
 **********************
 DD1Dir will call FoFMem   1 times, MxPair=       506
 NAB=   253 NAA=     0 NBB=     0.
 DE(Corr)= -0.82639228     E(CORR)=     -5581.1347318     Delta= 1.44D-03
 NORM(A)=   0.11562358D+01
 Iteration Nr.   4
 **********************
 DD1Dir will call FoFMem   1 times, MxPair=       506
 NAB=   253 NAA=     0 NBB=     0.
 DE(Corr)= -0.82876437     E(CORR)=     -5581.1371039     Delta=-2.37D-03
 NORM(A)=   0.11575659D+01
 Iteration Nr.   5
 **********************
 DD1Dir will call FoFMem   1 times, MxPair=       506
 NAB=   253 NAA=     0 NBB=     0.
 DE(Corr)= -0.82907881     E(CORR)=     -5581.1374183     Delta=-3.14D-04
 NORM(A)=   0.11582125D+01
 Iteration Nr.   6
 **********************
 DD1Dir will call FoFMem   1 times, MxPair=       506
 NAB=   253 NAA=     0 NBB=     0.
 DE(Corr)= -0.82914410     E(CORR)=     -5581.1374836     Delta=-6.53D-05
 NORM(A)=   0.11582923D+01
 Iteration Nr.   7
 **********************
 DD1Dir will call FoFMem   1 times, MxPair=       506
 NAB=   253 NAA=     0 NBB=     0.
 DE(Corr)= -0.82915585     E(CORR)=     -5581.1374954     Delta=-1.17D-05
 NORM(A)=   0.11583065D+01
 Iteration Nr.   8
 **********************
 DD1Dir will call FoFMem   1 times, MxPair=       506
 NAB=   253 NAA=     0 NBB=     0.
 DE(Corr)= -0.82915252     E(CORR)=     -5581.1374921     Delta= 3.33D-06
 NORM(A)=   0.11583148D+01
 Iteration Nr.   9
 **********************
 DD1Dir will call FoFMem   1 times, MxPair=       506
 NAB=   253 NAA=     0 NBB=     0.
 DE(Corr)= -0.82915349     E(CORR)=     -5581.1374930     Delta=-9.63D-07
 NORM(A)=   0.11583146D+01
 Iteration Nr.  10
 **********************
 DD1Dir will call FoFMem   1 times, MxPair=       506
 NAB=   253 NAA=     0 NBB=     0.
 DE(Corr)= -0.82915398     E(CORR)=     -5581.1374935     Delta=-4.98D-07
 NORM(A)=   0.11583181D+01
 Iteration Nr.  11
 **********************
 DD1Dir will call FoFMem   1 times, MxPair=       506
 NAB=   253 NAA=     0 NBB=     0.
 DE(Corr)= -0.82915527     E(CORR)=     -5581.1374948     Delta=-1.29D-06
 NORM(A)=   0.11583199D+01
 Iteration Nr.  12
 **********************
 DD1Dir will call FoFMem   1 times, MxPair=       506
 NAB=   253 NAA=     0 NBB=     0.
 DE(Corr)= -0.82915543     E(CORR)=     -5581.1374950     Delta=-1.61D-07
 NORM(A)=   0.11583214D+01
 Iteration Nr.  13
 **********************
 DD1Dir will call FoFMem   1 times, MxPair=       506
 NAB=   253 NAA=     0 NBB=     0.
 DE(Corr)= -0.82915602     E(CORR)=     -5581.1374956     Delta=-5.90D-07
 NORM(A)=   0.11583224D+01
 Iteration Nr.  14
 **********************
 DD1Dir will call FoFMem   1 times, MxPair=       506
 NAB=   253 NAA=     0 NBB=     0.
 DE(Corr)= -0.82915603     E(CORR)=     -5581.1374956     Delta=-1.15D-08
 NORM(A)=   0.11583228D+01
 Iteration Nr.  15
 **********************
 DD1Dir will call FoFMem   1 times, MxPair=       506
 NAB=   253 NAA=     0 NBB=     0.
 DE(Corr)= -0.82915615     E(CORR)=     -5581.1374957     Delta=-1.15D-07
 NORM(A)=   0.11583230D+01
 Iteration Nr.  16
 **********************
 DD1Dir will call FoFMem   1 times, MxPair=       506
 NAB=   253 NAA=     0 NBB=     0.
 DE(Corr)= -0.82915617     E(CORR)=     -5581.1374957     Delta=-2.40D-08
 NORM(A)=   0.11583231D+01
 Iteration Nr.  17
 **********************
 DD1Dir will call FoFMem   1 times, MxPair=       506
 NAB=   253 NAA=     0 NBB=     0.
 DE(Corr)= -0.82915616     E(CORR)=     -5581.1374957     Delta= 1.06D-08
 NORM(A)=   0.11583231D+01
 Iteration Nr.  18
 **********************
 DD1Dir will call FoFMem   1 times, MxPair=       506
 NAB=   253 NAA=     0 NBB=     0.
 DE(Corr)= -0.82915618     E(CORR)=     -5581.1374957     Delta=-1.42D-08
 NORM(A)=   0.11583231D+01
 Iteration Nr.  19
 **********************
 DD1Dir will call FoFMem   1 times, MxPair=       506
 NAB=   253 NAA=     0 NBB=     0.
 DE(Corr)= -0.82915617     E(CORR)=     -5581.1374957     Delta= 1.04D-08
 NORM(A)=   0.11583231D+01
 Iteration Nr.  20
 **********************
 DD1Dir will call FoFMem   1 times, MxPair=       506
 NAB=   253 NAA=     0 NBB=     0.
 DE(Corr)= -0.82915617     E(CORR)=     -5581.1374957     Delta=-4.33D-09
 NORM(A)=   0.11583231D+01
 Wavefunction amplitudes converged. E(Corr)=     -5581.1374957    
 Largest amplitude= 7.89D-02

 Z-amplitude iterations

 Iteration Nr.   1
 **********************
 DD1Dir will call FoFMem   1 times, MxPair=       506
 NAB=   253 NAA=     0 NBB=     0.
 DE(Z)= -0.79842456     E(Z)=     -5581.1067641     Delta= 3.07D-02
 NORM(A)=   0.11586383D+01
 Iteration Nr.   2
 **********************
 DD1Dir will call FoFMem   1 times, MxPair=       506
 NAB=   253 NAA=     0 NBB=     0.
 DE(Z)= -0.79842651     E(Z)=     -5581.1067660     Delta=-1.95D-06
 NORM(A)=   0.11585161D+01
 Iteration Nr.   3
 **********************
 DD1Dir will call FoFMem   1 times, MxPair=       506
 NAB=   253 NAA=     0 NBB=     0.
 DE(Z)= -0.79842562     E(Z)=     -5581.1067652     Delta= 8.90D-07
 NORM(A)=   0.11588642D+01
 Iteration Nr.   4
 **********************
 DD1Dir will call FoFMem   1 times, MxPair=       506
 NAB=   253 NAA=     0 NBB=     0.
 DE(Z)= -0.79842803     E(Z)=     -5581.1067676     Delta=-2.41D-06
 NORM(A)=   0.11755723D+01
 Iteration Nr.   5
 **********************
 DD1Dir will call FoFMem   1 times, MxPair=       506
 NAB=   253 NAA=     0 NBB=     0.
 DE(Z)= -0.79856397     E(Z)=     -5581.1069035     Delta=-1.36D-04
 NORM(A)=   0.11450012D+01
 Iteration Nr.   6
 **********************
 DD1Dir will call FoFMem   1 times, MxPair=       506
 NAB=   253 NAA=     0 NBB=     0.
 DE(Z)= -0.79831910     E(Z)=     -5581.1066586     Delta= 2.45D-04
 NORM(A)=   0.11450002D+01
 Iteration Nr.   7
 **********************
 DD1Dir will call FoFMem   1 times, MxPair=       506
 NAB=   253 NAA=     0 NBB=     0.
 DE(Z)= -0.79831526     E(Z)=     -5581.1066548     Delta= 3.84D-06
 NORM(A)=   0.11449989D+01
 Iteration Nr.   8
 **********************
 DD1Dir will call FoFMem   1 times, MxPair=       506
 NAB=   253 NAA=     0 NBB=     0.
 DE(Z)= -0.79831656     E(Z)=     -5581.1066561     Delta=-1.30D-06
 NORM(A)=   0.11449997D+01
 Iteration Nr.   9
 **********************
 DD1Dir will call FoFMem   1 times, MxPair=       506
 NAB=   253 NAA=     0 NBB=     0.
 DE(Z)= -0.79831634     E(Z)=     -5581.1066559     Delta= 2.21D-07
 NORM(A)=   0.11450004D+01
 Iteration Nr.  10
 **********************
 DD1Dir will call FoFMem   1 times, MxPair=       506
 NAB=   253 NAA=     0 NBB=     0.
 DE(Z)= -0.79831623     E(Z)=     -5581.1066558     Delta= 1.09D-07
 NORM(A)=   0.11450009D+01
 Iteration Nr.  11
 **********************
 DD1Dir will call FoFMem   1 times, MxPair=       506
 NAB=   253 NAA=     0 NBB=     0.
 DE(Z)= -0.79831639     E(Z)=     -5581.1066559     Delta=-1.59D-07
 NORM(A)=   0.11450011D+01
 Iteration Nr.  12
 **********************
 DD1Dir will call FoFMem   1 times, MxPair=       506
 NAB=   253 NAA=     0 NBB=     0.
 DE(Z)= -0.79831636     E(Z)=     -5581.1066559     Delta= 2.74D-08
 NORM(A)=   0.11450012D+01
 Iteration Nr.  13
 **********************
 DD1Dir will call FoFMem   1 times, MxPair=       506
 NAB=   253 NAA=     0 NBB=     0.
 DE(Z)= -0.79831639     E(Z)=     -5581.1066559     Delta=-3.29D-08
 NORM(A)=   0.11450012D+01
 Iteration Nr.  14
 **********************
 DD1Dir will call FoFMem   1 times, MxPair=       506
 NAB=   253 NAA=     0 NBB=     0.
 DE(Z)= -0.79831638     E(Z)=     -5581.1066559     Delta= 1.50D-08
 NORM(A)=   0.11450012D+01
 Iteration Nr.  15
 **********************
 DD1Dir will call FoFMem   1 times, MxPair=       506
 NAB=   253 NAA=     0 NBB=     0.
 DE(Z)= -0.79831638     E(Z)=     -5581.1066559     Delta= 1.97D-10
 NORM(A)=   0.11450013D+01
 Z-amplitudes converged.
 Discarding MO integrals.
          Differentiating once with respect to electric field.
                with respect to dipole field.
          Electric field/nuclear overlap derivatives assumed to be zero.
 Keep R1 ints in memory in canonical form, NReq=277859909.
          There are     1 degrees of freedom in the 1st order CPHF.  IDoFFX=0 NUNeed=     1.
 LinEq1:  Iter=  0 NonCon=     1 RMS=1.78D-03 Max=6.64D-02 NDo=     1
 AX will form     1 AO Fock derivatives at one time.
 LinEq1:  Iter=  1 NonCon=     1 RMS=8.38D-04 Max=1.81D-02 NDo=     1
 LinEq1:  Iter=  2 NonCon=     1 RMS=3.83D-04 Max=1.51D-02 NDo=     1
 LinEq1:  Iter=  3 NonCon=     1 RMS=1.26D-04 Max=4.13D-03 NDo=     1
 LinEq1:  Iter=  4 NonCon=     1 RMS=4.94D-05 Max=1.18D-03 NDo=     1
 LinEq1:  Iter=  5 NonCon=     1 RMS=9.81D-06 Max=1.80D-04 NDo=     1
 LinEq1:  Iter=  6 NonCon=     1 RMS=3.73D-06 Max=1.39D-04 NDo=     1
 LinEq1:  Iter=  7 NonCon=     1 RMS=8.86D-07 Max=3.39D-05 NDo=     1
 LinEq1:  Iter=  8 NonCon=     1 RMS=1.73D-07 Max=4.46D-06 NDo=     1
 LinEq1:  Iter=  9 NonCon=     1 RMS=3.94D-08 Max=7.06D-07 NDo=     1
 LinEq1:  Iter= 10 NonCon=     1 RMS=1.03D-08 Max=2.49D-07 NDo=     1
 LinEq1:  Iter= 11 NonCon=     1 RMS=2.02D-09 Max=5.22D-08 NDo=     1
 LinEq1:  Iter= 12 NonCon=     1 RMS=3.66D-10 Max=8.86D-09 NDo=     1
 LinEq1:  Iter= 13 NonCon=     1 RMS=6.89D-11 Max=1.16D-09 NDo=     1
 LinEq1:  Iter= 14 NonCon=     0 RMS=1.94D-11 Max=4.00D-10 NDo=     1
 Linear equations converged to 1.000D-10 1.000D-09 after    14 iterations.
 End of Minotr F.D. properties file   721 does not exist.
 End of Minotr F.D. properties file   722 does not exist.
 End of Minotr F.D. properties file   788 does not exist.

 **********************************************************************

            Population analysis using the CC Density.

 **********************************************************************

 Alpha  occ. eigenvalues -- -490.06446-490.06446 -91.97958 -65.20429 -65.20429
 Alpha  occ. eigenvalues --  -58.55962 -58.55962 -58.55812 -58.55812 -58.55793
 Alpha  occ. eigenvalues --  -58.55793 -11.43474  -9.87738  -9.87737  -8.98189
 Alpha  occ. eigenvalues --   -7.48932  -7.48931  -7.48205  -7.48204  -7.48124
 Alpha  occ. eigenvalues --   -7.48123  -6.66252  -6.66172  -6.66017  -3.23340
 Alpha  occ. eigenvalues --   -3.23339  -3.22980  -3.22979  -3.22869  -3.22869
 Alpha  occ. eigenvalues --   -3.21946  -3.21945  -3.21943  -3.21942  -1.16818
 Alpha  occ. eigenvalues --   -1.04315  -1.01228  -0.74135  -0.59790  -0.58283
 Alpha  occ. eigenvalues --   -0.54065  -0.46236  -0.44633  -0.42995  -0.39533
 Alpha  occ. eigenvalues --   -0.37121
 Alpha virt. eigenvalues --    0.01218   0.04678   0.05689   0.06097   0.08384
 Alpha virt. eigenvalues --    0.08938   0.09212   0.10072   0.11071   0.11475
 Alpha virt. eigenvalues --    0.12048   0.13417   0.14449   0.15454   0.15763
 Alpha virt. eigenvalues --    0.16992   0.18639   0.22146   0.23695   0.23957
 Alpha virt. eigenvalues --    0.24154   0.27530   0.29969   0.30831   0.33005
 Alpha virt. eigenvalues --    0.33972   0.34193   0.35537   0.35972   0.36781
 Alpha virt. eigenvalues --    0.37289   0.39647   0.40109   0.42925   0.43668
 Alpha virt. eigenvalues --    0.46208   0.47984   0.48255   0.48465   0.48728
 Alpha virt. eigenvalues --    0.48831   0.51195   0.57566   0.58677   0.58972
 Alpha virt. eigenvalues --    0.60780   0.65379   0.66403   0.68542   0.70443
 Alpha virt. eigenvalues --    0.71737   0.74665   0.75280   0.76095   0.76405
 Alpha virt. eigenvalues --    0.77147   0.78323   0.78493   0.78672   0.80101
 Alpha virt. eigenvalues --    0.81302   0.81372   0.84962   0.86011   0.88427
 Alpha virt. eigenvalues --    0.89175   0.89805   0.91688   0.93634   0.94759
 Alpha virt. eigenvalues --    0.95494   1.01243   1.01711   1.03353   1.03630
 Alpha virt. eigenvalues --    1.04449   1.04664   1.14570   1.15219   1.16006
 Alpha virt. eigenvalues --    1.17490   1.19090   1.19615   1.22462   1.26074
 Alpha virt. eigenvalues --    1.27819   1.32609   1.35166   1.38557   1.45598
 Alpha virt. eigenvalues --    1.46881   1.49484   1.51898   1.52432   1.53217
 Alpha virt. eigenvalues --    1.53536   1.54786   1.63346   1.71882   1.72249
 Alpha virt. eigenvalues --    1.74200   1.74295   1.92169   1.97980   2.07538
 Alpha virt. eigenvalues --    2.09829   2.13901   2.16316   2.17647   2.19217
 Alpha virt. eigenvalues --    2.21339   2.24480   2.27427   2.27514   2.28274
 Alpha virt. eigenvalues --    2.28516   2.29052   2.29927   2.32459   2.32557
 Alpha virt. eigenvalues --    2.32611   2.33768   2.34054   2.35466   2.36326
 Alpha virt. eigenvalues --    2.36723   2.36986   2.37958   2.39379   2.40790
 Alpha virt. eigenvalues --    2.41167   2.42663   2.43276   2.46300   2.46657
 Alpha virt. eigenvalues --    2.53117   2.53780   2.54756   2.57014   2.60553
 Alpha virt. eigenvalues --    2.62269   2.68916   2.70324   2.72036   2.89073
 Alpha virt. eigenvalues --    2.90860   2.93359   3.06556   3.31012   3.38257
 Alpha virt. eigenvalues --    3.59169   3.64906   3.65653   3.67220   3.75986
 Alpha virt. eigenvalues --    3.77095   3.83935   3.86511   3.90822   4.05542
 Alpha virt. eigenvalues --    4.05929   4.13963   4.15048   4.18181   5.07556
 Alpha virt. eigenvalues --    5.10580   6.40231   9.40134
          Condensed to atoms (all electrons):
               1          2          3          4
     1  C    6.393969  -0.021252  -0.102507  -0.102507
     2  S   -0.021252  16.448560  -0.188339  -0.188339
     3  Br  -0.102507  -0.188339  35.316951  -0.135271
     4  Br  -0.102507  -0.188339  -0.135271  35.316951
 Mulliken charges:
               1
     1  C   -0.167702
     2  S   -0.050631
     3  Br   0.109166
     4  Br   0.109166
 Sum of Mulliken charges =  -0.00000
 Mulliken charges with hydrogens summed into heavy atoms:
               1
     1  C   -0.167702
     2  S   -0.050631
     3  Br   0.109166
     4  Br   0.109166
 Electronic spatial extent (au):  <R**2>=           1431.7925
 Charge=             -0.0000 electrons
 Dipole moment (field-independent basis, Debye):
    X=              0.0000    Y=              0.0000    Z=             -0.5504  Tot=              0.5504
 Quadrupole moment (field-independent basis, Debye-Ang):
   XX=            -54.9666   YY=            -53.7191   ZZ=            -53.7673
   XY=             -0.0000   XZ=              0.0000   YZ=             -0.0000
 Traceless Quadrupole moment (field-independent basis, Debye-Ang):
   XX=             -0.8156   YY=              0.4319   ZZ=              0.3837
   XY=             -0.0000   XZ=              0.0000   YZ=             -0.0000
 Octapole moment (field-independent basis, Debye-Ang**2):
  XXX=              0.0000  YYY=              0.0000  ZZZ=            141.2762  XYY=              0.0000
  XXY=              0.0000  XXZ=             47.7315  XZZ=             -0.0000  YZZ=              0.0000
  YYZ=             35.1801  XYZ=              0.0000
 Hexadecapole moment (field-independent basis, Debye-Ang**3):
 XXXX=            -67.2791 YYYY=           -571.1947 ZZZZ=           -700.9502 XXXY=             -0.0000
 XXXZ=             -0.0000 YYYX=             -0.0000 YYYZ=             -0.0000 ZZZX=             -0.0000
 ZZZY=             -0.0000 XXYY=           -113.4327 XXZZ=           -130.5397 YYZZ=           -194.8375
 XXYZ=             -0.0000 YYXZ=             -0.0000 ZZXY=              0.0000
 N-N= 5.477211582202D+02 E-N=-1.443658956163D+04  KE= 5.579834488500D+03
 There are a total of      107126 grid points.
 ElSum from          density=       92.0000010871
 ElSum from atomic densities=       92.0000004093

 Hirshfeld populations at iteration   1 (CX, CA, CB, DipXYZ):
               1          2          3          4          5          6
     1  C    0.000001   2.982930   2.982930   0.000000   0.000000  -0.108538
     2  S    0.000013   8.030740   8.030740   0.000000   0.000000   0.159032
     3  Br   0.000023  17.493165  17.493165  -0.000000  -0.066608  -0.012700
     4  Br   0.000023  17.493165  17.493165  -0.000000   0.066608  -0.012700
       Tot   0.000061  46.000001  46.000001  -0.000000  -0.000000   0.025093

 Dip from Atomic Chgs              0.000000   0.000000  -0.241614
         Total Dipole             -0.000000   0.000000  -0.216520

 Hirshfeld charges, spin densities, dipoles, and CM5 charges using IRadAn=      5:
              Q-H        S-H        Dx         Dy         Dz        Q-CM5   
     1  C    0.034139   0.000000   0.000000   0.000000  -0.108538   0.023711
     2  S   -0.061479   0.000000   0.000000   0.000000   0.159032  -0.085626
     3  Br   0.013669   0.000000  -0.000000  -0.066608  -0.012700   0.030957
     4  Br   0.013669   0.000000  -0.000000   0.066608  -0.012700   0.030957
       Tot  -0.000001   0.000000  -0.000000  -0.000000   0.025093  -0.000001
 Hirshfeld charges with hydrogens summed into heavy atoms:
              Q-H       Q-CM5   
     1  C    0.034139   0.023711
     2  S   -0.061479  -0.085626
     3  Br   0.013669   0.030957
     4  Br   0.013669   0.030957
 
 EQQ= 0.000000000000E+00 EQD= 0.000000000000E+00 EDD=-0.589341185599E-03
 EQQ+QD+DD=-0.589341185599E-03
 
 Breneman (CHELPG) radii used.
 GetVDW:  no radius for atom   3 atomic number  35.
 Error termination via Lnk1e in /home/wagner/chemistry/gaussian/g16/l602.exe at Mon Sep  5 21:28:41 2022.
 Job cpu time:       0 days 15 hours 12 minutes 22.2 seconds.
 Elapsed time:       0 days  0 hours 57 minutes 41.6 seconds.
 File lengths (MBytes):  RWF=  31411 Int=      0 D2E=      0 Chk=      2 Scr=      1
