 Entering Gaussian System, Link 0=/home/wagner/chemistry/gaussian/g16/g16
 Input=GAUSSIAN.com
 Output=GAUSSIAN.log
 Initial command:
 /home/wagner/chemistry/gaussian/g16/l1.exe "/home/wagner/chemistry/gaussian/work/Gau-6034.inp" -scrdir="/home/wagner/chemistry/gaussian/work/"
 Entering Link 1 = /home/wagner/chemistry/gaussian/g16/l1.exe PID=      6036.
  
 Copyright (c) 1988-2019, Gaussian, Inc.  All Rights Reserved.
  
 This is part of the Gaussian(R) 16 program.  It is based on
 the Gaussian(R) 09 system (copyright 2009, Gaussian, Inc.),
 the Gaussian(R) 03 system (copyright 2003, Gaussian, Inc.),
 the Gaussian(R) 98 system (copyright 1998, Gaussian, Inc.),
 the Gaussian(R) 94 system (copyright 1995, Gaussian, Inc.),
 the Gaussian 92(TM) system (copyright 1992, Gaussian, Inc.),
 the Gaussian 90(TM) system (copyright 1990, Gaussian, Inc.),
 the Gaussian 88(TM) system (copyright 1988, Gaussian, Inc.),
 the Gaussian 86(TM) system (copyright 1986, Carnegie Mellon
 University), and the Gaussian 82(TM) system (copyright 1983,
 Carnegie Mellon University). Gaussian is a federally registered
 trademark of Gaussian, Inc.
  
 This software contains proprietary and confidential information,
 including trade secrets, belonging to Gaussian, Inc.
  
 This software is provided under written license and may be
 used, copied, transmitted, or stored only in accord with that
 written license.
  
 The following legend is applicable only to US Government
 contracts under FAR:
  
                    RESTRICTED RIGHTS LEGEND
  
 Use, reproduction and disclosure by the US Government is
 subject to restrictions as set forth in subparagraphs (a)
 and (c) of the Commercial Computer Software - Restricted
 Rights clause in FAR 52.227-19.
  
 Gaussian, Inc.
 340 Quinnipiac St., Bldg. 40, Wallingford CT 06492
  
  
 ---------------------------------------------------------------
 Warning -- This program may not be used in any manner that
 competes with the business of Gaussian, Inc. or will provide
 assistance to any competitor of Gaussian, Inc.  The licensee
 of this program is prohibited from giving any competitor of
 Gaussian, Inc. access to this program.  By using this program,
 the user acknowledges that Gaussian, Inc. is engaged in the
 business of creating and licensing software in the field of
 computational chemistry and represents and warrants to the
 licensee that it is not a competitor of Gaussian, Inc. and that
 it will not use this program in any manner prohibited above.
 ---------------------------------------------------------------
  

 Cite this work as:
 Gaussian 16, Revision C.01,
 M. J. Frisch, G. W. Trucks, H. B. Schlegel, G. E. Scuseria, 
 M. A. Robb, J. R. Cheeseman, G. Scalmani, V. Barone, 
 G. A. Petersson, H. Nakatsuji, X. Li, M. Caricato, A. V. Marenich, 
 J. Bloino, B. G. Janesko, R. Gomperts, B. Mennucci, H. P. Hratchian, 
 J. V. Ortiz, A. F. Izmaylov, J. L. Sonnenberg, D. Williams-Young, 
 F. Ding, F. Lipparini, F. Egidi, J. Goings, B. Peng, A. Petrone, 
 T. Henderson, D. Ranasinghe, V. G. Zakrzewski, J. Gao, N. Rega, 
 G. Zheng, W. Liang, M. Hada, M. Ehara, K. Toyota, R. Fukuda, 
 J. Hasegawa, M. Ishida, T. Nakajima, Y. Honda, O. Kitao, H. Nakai, 
 T. Vreven, K. Throssell, J. A. Montgomery, Jr., J. E. Peralta, 
 F. Ogliaro, M. J. Bearpark, J. J. Heyd, E. N. Brothers, K. N. Kudin, 
 V. N. Staroverov, T. A. Keith, R. Kobayashi, J. Normand, 
 K. Raghavachari, A. P. Rendell, J. C. Burant, S. S. Iyengar, 
 J. Tomasi, M. Cossi, J. M. Millam, M. Klene, C. Adamo, R. Cammi, 
 J. W. Ochterski, R. L. Martin, K. Morokuma, O. Farkas, 
 J. B. Foresman, and D. J. Fox, Gaussian, Inc., Wallingford CT, 2019.
 
 ******************************************
 Gaussian 16:  EM64L-G16RevC.01  3-Jul-2019
                 6-Sep-2022 
 ******************************************
 %nproc=16
 Will use up to   16 processors via shared memory.
 %mem=16GB
 ----------------------------------------------------------------------
 # qcisd/aug-cc-pvtz nosymm density=current pop=(chelpg,hirshfeld,npa,d
 ipole)
 ----------------------------------------------------------------------
 1/30=1,38=1,172=1/1;
 2/12=2,15=1,17=6,18=5,40=1/2;
 3/5=16,6=1,7=10,11=9,25=1,30=1,71=1/1,2,3;
 4//1;
 5/5=2,38=5/2;
 8/6=4,9=120000,10=1/1,4;
 9/5=8,15=1/13;
 11/28=-7,31=1,32=3,42=3/11;
 10/5=6,13=10,31=1/2;
 6/7=2,8=2,9=2,10=2,15=24,20=3,22=-1,40=-1,79=1/1,2,7;
 99/5=1,9=1/99;
 ------------------
 br2cs-wavefunction
 ------------------
 Symbolic Z-matrix:
 Charge =  0 Multiplicity = 1
 C                     0.        0.       -0.51945 
 S                     0.        0.        1.09369 
 Br                    0.       -1.56852  -1.57857 
 Br                    0.        1.56852  -1.57857 
 
                          Input orientation:                          
 ---------------------------------------------------------------------
 Center     Atomic      Atomic             Coordinates (Angstroms)
 Number     Number       Type             X           Y           Z
 ---------------------------------------------------------------------
      1          6           0        0.000000    0.000000   -0.519451
      2         16           0        0.000000    0.000000    1.093692
      3         35           0        0.000000   -1.568516   -1.578570
      4         35           0        0.000000    1.568516   -1.578570
 ---------------------------------------------------------------------
                    Distance matrix (angstroms):
                    1          2          3          4
     1  C    0.000000
     2  S    1.613143   0.000000
     3  Br   1.892611   3.098585   0.000000
     4  Br   1.892611   3.098585   3.137032   0.000000
 Symmetry turned off by external request.
 Stoichiometry    CBr2S
 Framework group  C2V[C2(CS),SGV(Br2)]
 Deg. of freedom     3
 Full point group                 C2V     NOp   4
 Rotational constants (GHZ):           2.6045069           1.3014617           0.8678170
 Standard basis: Aug-CC-pVTZ (5D, 7F)
   214 basis functions,   620 primitive gaussians,   252 cartesian basis functions
    46 alpha electrons       46 beta electrons
       nuclear repulsion energy       546.8404474314 Hartrees.
 NAtoms=    4 NActive=    4 NUniq=    4 SFac= 1.00D+00 NAtFMM=   60 NAOKFM=F Big=F
 Integral buffers will be    131072 words long.
 Raffenetti 1 integral format.
 Two-electron integral symmetry is turned off.
 One-electron integrals computed using PRISM.
 NBasis=   214 RedAO= T EigKep=  8.04D-05  NBF=   214
 NBsUse=   214 1.00D-06 EigRej= -1.00D+00 NBFU=   214
 ExpMin= 3.51D-02 ExpMax= 1.06D+07 ExpMxC= 1.21D+04 IAcc=3 IRadAn=         5 AccDes= 0.00D+00
 Harris functional with IExCor=  205 and IRadAn=       5 diagonalized for initial guess.
 HarFok:  IExCor=  205 AccDes= 0.00D+00 IRadAn=         5 IDoV= 1 UseB2=F ITyADJ=14
 ICtDFT=  3500011 ScaDFX=  1.000000  1.000000  1.000000  1.000000
 FoFCou: FMM=F IPFlag=           0 FMFlag=      100000 FMFlg1=           0
         NFxFlg=           0 DoJE=T BraDBF=F KetDBF=T FulRan=T
         wScrn=  0.000000 ICntrl=       500 IOpCl=  0 I1Cent=   200000004 NGrid=           0
         NMat0=    1 NMatS0=      1 NMatT0=    0 NMatD0=    1 NMtDS0=    0 NMtDT0=    0
 Symmetry not used in FoFCou.
 Keep R1 ints in memory in canonical form, NReq=277853248.
 Requested convergence on RMS density matrix=1.00D-08 within 128 cycles.
 Requested convergence on MAX density matrix=1.00D-06.
 Requested convergence on             energy=1.00D-06.
 No special actions if energy rises.
 SCF Done:  E(RHF) =  -5580.30825796     A.U. after   14 cycles
            NFock= 14  Conv=0.30D-08     -V/T= 2.0000
 ExpMin= 3.51D-02 ExpMax= 1.06D+07 ExpMxC= 1.21D+04 IAcc=3 IRadAn=         5 AccDes= 0.00D+00
 HarFok:  IExCor=  205 AccDes= 0.00D+00 IRadAn=         5 IDoV=-2 UseB2=F ITyADJ=14
 ICtDFT= 12500011 ScaDFX=  1.000000  1.000000  1.000000  1.000000
 GSVD:  LWork=        -768 too small for GESVD, short by        3240 words or        3240 for optimal perf.
 Range of M.O.s used for correlation:    25   214
 NBasis=   214 NAE=    46 NBE=    46 NFC=    24 NFV=     0
 NROrb=    190 NOA=    22 NOB=    22 NVA=   168 NVB=   168

 **** Warning!!: The largest alpha MO coefficient is  0.30763063D+02

 Semi-Direct transformation.
 ModeAB=           2 MOrb=            22 LenV=    2146186171
 LASXX=     69628944 LTotXX=    69628944 LenRXX=    69628944
 LTotAB=    70719517 MaxLAS=   133250040 LenRXY=   133250040
 NonZer=   139257888 LenScr=   209707008 LnRSAI=           0
 LnScr1=           0 LExtra=           0 Total=    412585992
 MaxDsk=          -1 SrtSym=           F ITran=            4
 JobTyp=0 Pass  1:  I=   1 to  22.
 (rs|ai) integrals will be sorted in core.
 Spin components of T(2) and E(2):
     alpha-alpha T2 =       0.4297431759D-01 E2=     -0.1154287182D+00
     alpha-beta  T2 =       0.2172666810D+00 E2=     -0.5796278865D+00
     beta-beta   T2 =       0.4297431759D-01 E2=     -0.1154287182D+00
 ANorm=    0.1141584564D+01
 E2 =    -0.8104853228D+00 EUMP2 =    -0.55811187432792D+04
 Keep R2 and R3 ints in memory in canonical form, NReq=542493677.
 CIDS: In Core Option IDoMem=           1.
 Iterations=  50 Convergence= 0.100D-07
 Produce multiple copies of IABC intergrals
 Iteration Nr.   1
 **********************
 DD1Dir will call FoFMem   1 times, MxPair=       506
 NAB=   253 NAA=     0 NBB=     0.
 MP4(R+Q)=  0.23557369D-01
 E3=       -0.12016377D-01        EUMP3=      -0.55811307597D+04
 E4(DQ)=   -0.55428161D-03        UMP4(DQ)=   -0.55811313139D+04
 E4(SDQ)=  -0.10335721D-01        UMP4(SDQ)=  -0.55811410954D+04
 DE(Corr)= -0.79894433     E(Corr)=     -5581.1072023    
 NORM(A)=   0.11413034D+01
 Iteration Nr.   2
 **********************
 DD1Dir will call FoFMem   1 times, MxPair=       506
 NAB=   253 NAA=     0 NBB=     0.
 DE(Corr)= -0.82793317     E(CORR)=     -5581.1361911     Delta=-2.90D-02
 NORM(A)=   0.11535851D+01
 Iteration Nr.   3
 **********************
 DD1Dir will call FoFMem   1 times, MxPair=       506
 NAB=   253 NAA=     0 NBB=     0.
 DE(Corr)= -0.82645904     E(CORR)=     -5581.1347170     Delta= 1.47D-03
 NORM(A)=   0.11564841D+01
 Iteration Nr.   4
 **********************
 DD1Dir will call FoFMem   1 times, MxPair=       506
 NAB=   253 NAA=     0 NBB=     0.
 DE(Corr)= -0.82885030     E(CORR)=     -5581.1371083     Delta=-2.39D-03
 NORM(A)=   0.11578282D+01
 Iteration Nr.   5
 **********************
 DD1Dir will call FoFMem   1 times, MxPair=       506
 NAB=   253 NAA=     0 NBB=     0.
 DE(Corr)= -0.82916833     E(CORR)=     -5581.1374263     Delta=-3.18D-04
 NORM(A)=   0.11584839D+01
 Iteration Nr.   6
 **********************
 DD1Dir will call FoFMem   1 times, MxPair=       506
 NAB=   253 NAA=     0 NBB=     0.
 DE(Corr)= -0.82923454     E(CORR)=     -5581.1374925     Delta=-6.62D-05
 NORM(A)=   0.11585659D+01
 Iteration Nr.   7
 **********************
 DD1Dir will call FoFMem   1 times, MxPair=       506
 NAB=   253 NAA=     0 NBB=     0.
 DE(Corr)= -0.82924656     E(CORR)=     -5581.1375045     Delta=-1.20D-05
 NORM(A)=   0.11585808D+01
 Iteration Nr.   8
 **********************
 DD1Dir will call FoFMem   1 times, MxPair=       506
 NAB=   253 NAA=     0 NBB=     0.
 DE(Corr)= -0.82924319     E(CORR)=     -5581.1375012     Delta= 3.37D-06
 NORM(A)=   0.11585895D+01
 Iteration Nr.   9
 **********************
 DD1Dir will call FoFMem   1 times, MxPair=       506
 NAB=   253 NAA=     0 NBB=     0.
 DE(Corr)= -0.82924420     E(CORR)=     -5581.1375022     Delta=-1.00D-06
 NORM(A)=   0.11585894D+01
 Iteration Nr.  10
 **********************
 DD1Dir will call FoFMem   1 times, MxPair=       506
 NAB=   253 NAA=     0 NBB=     0.
 DE(Corr)= -0.82924468     E(CORR)=     -5581.1375026     Delta=-4.83D-07
 NORM(A)=   0.11585930D+01
 Iteration Nr.  11
 **********************
 DD1Dir will call FoFMem   1 times, MxPair=       506
 NAB=   253 NAA=     0 NBB=     0.
 DE(Corr)= -0.82924603     E(CORR)=     -5581.1375040     Delta=-1.35D-06
 NORM(A)=   0.11585949D+01
 Iteration Nr.  12
 **********************
 DD1Dir will call FoFMem   1 times, MxPair=       506
 NAB=   253 NAA=     0 NBB=     0.
 DE(Corr)= -0.82924619     E(CORR)=     -5581.1375041     Delta=-1.54D-07
 NORM(A)=   0.11585965D+01
 Iteration Nr.  13
 **********************
 DD1Dir will call FoFMem   1 times, MxPair=       506
 NAB=   253 NAA=     0 NBB=     0.
 DE(Corr)= -0.82924680     E(CORR)=     -5581.1375048     Delta=-6.18D-07
 NORM(A)=   0.11585975D+01
 Iteration Nr.  14
 **********************
 DD1Dir will call FoFMem   1 times, MxPair=       506
 NAB=   253 NAA=     0 NBB=     0.
 DE(Corr)= -0.82924681     E(CORR)=     -5581.1375048     Delta=-1.11D-08
 NORM(A)=   0.11585979D+01
 Iteration Nr.  15
 **********************
 DD1Dir will call FoFMem   1 times, MxPair=       506
 NAB=   253 NAA=     0 NBB=     0.
 DE(Corr)= -0.82924693     E(CORR)=     -5581.1375049     Delta=-1.19D-07
 NORM(A)=   0.11585981D+01
 Iteration Nr.  16
 **********************
 DD1Dir will call FoFMem   1 times, MxPair=       506
 NAB=   253 NAA=     0 NBB=     0.
 DE(Corr)= -0.82924696     E(CORR)=     -5581.1375049     Delta=-2.58D-08
 NORM(A)=   0.11585982D+01
 Iteration Nr.  17
 **********************
 DD1Dir will call FoFMem   1 times, MxPair=       506
 NAB=   253 NAA=     0 NBB=     0.
 DE(Corr)= -0.82924695     E(CORR)=     -5581.1375049     Delta= 1.12D-08
 NORM(A)=   0.11585982D+01
 Iteration Nr.  18
 **********************
 DD1Dir will call FoFMem   1 times, MxPair=       506
 NAB=   253 NAA=     0 NBB=     0.
 DE(Corr)= -0.82924696     E(CORR)=     -5581.1375049     Delta=-1.50D-08
 NORM(A)=   0.11585982D+01
 Iteration Nr.  19
 **********************
 DD1Dir will call FoFMem   1 times, MxPair=       506
 NAB=   253 NAA=     0 NBB=     0.
 DE(Corr)= -0.82924695     E(CORR)=     -5581.1375049     Delta= 1.08D-08
 NORM(A)=   0.11585982D+01
 Iteration Nr.  20
 **********************
 DD1Dir will call FoFMem   1 times, MxPair=       506
 NAB=   253 NAA=     0 NBB=     0.
 DE(Corr)= -0.82924696     E(CORR)=     -5581.1375049     Delta=-5.52D-09
 NORM(A)=   0.11585982D+01
 Wavefunction amplitudes converged. E(Corr)=     -5581.1375049    
 Largest amplitude= 7.88D-02

 Z-amplitude iterations

 Iteration Nr.   1
 **********************
 DD1Dir will call FoFMem   1 times, MxPair=       506
 NAB=   253 NAA=     0 NBB=     0.
 DE(Z)= -0.79844023     E(Z)=     -5581.1066982     Delta= 3.08D-02
 NORM(A)=   0.11594479D+01
 Iteration Nr.   2
 **********************
 DD1Dir will call FoFMem   1 times, MxPair=       506
 NAB=   253 NAA=     0 NBB=     0.
 DE(Z)= -0.79844525     E(Z)=     -5581.1067032     Delta=-5.02D-06
 NORM(A)=   0.11600779D+01
 Iteration Nr.   3
 **********************
 DD1Dir will call FoFMem   1 times, MxPair=       506
 NAB=   253 NAA=     0 NBB=     0.
 DE(Z)= -0.79844799     E(Z)=     -5581.1067059     Delta=-2.74D-06
 NORM(A)=   0.11591450D+01
 Iteration Nr.   4
 **********************
 DD1Dir will call FoFMem   1 times, MxPair=       506
 NAB=   253 NAA=     0 NBB=     0.
 DE(Z)= -0.79844360     E(Z)=     -5581.1067016     Delta= 4.39D-06
 NORM(A)=   0.11550987D+01
 Iteration Nr.   5
 **********************
 DD1Dir will call FoFMem   1 times, MxPair=       506
 NAB=   253 NAA=     0 NBB=     0.
 DE(Z)= -0.79841175     E(Z)=     -5581.1066697     Delta= 3.18D-05
 NORM(A)=   0.11452264D+01
 Iteration Nr.   6
 **********************
 DD1Dir will call FoFMem   1 times, MxPair=       506
 NAB=   253 NAA=     0 NBB=     0.
 DE(Z)= -0.79833769     E(Z)=     -5581.1065956     Delta= 7.41D-05
 NORM(A)=   0.11452262D+01
 Iteration Nr.   7
 **********************
 DD1Dir will call FoFMem   1 times, MxPair=       506
 NAB=   253 NAA=     0 NBB=     0.
 DE(Z)= -0.79833264     E(Z)=     -5581.1065906     Delta= 5.05D-06
 NORM(A)=   0.11452243D+01
 Iteration Nr.   8
 **********************
 DD1Dir will call FoFMem   1 times, MxPair=       506
 NAB=   253 NAA=     0 NBB=     0.
 DE(Z)= -0.79833516     E(Z)=     -5581.1065931     Delta=-2.52D-06
 NORM(A)=   0.11452256D+01
 Iteration Nr.   9
 **********************
 DD1Dir will call FoFMem   1 times, MxPair=       506
 NAB=   253 NAA=     0 NBB=     0.
 DE(Z)= -0.79833495     E(Z)=     -5581.1065929     Delta= 2.13D-07
 NORM(A)=   0.11452260D+01
 Iteration Nr.  10
 **********************
 DD1Dir will call FoFMem   1 times, MxPair=       506
 NAB=   253 NAA=     0 NBB=     0.
 DE(Z)= -0.79833493     E(Z)=     -5581.1065929     Delta= 2.26D-08
 NORM(A)=   0.11452263D+01
 Iteration Nr.  11
 **********************
 DD1Dir will call FoFMem   1 times, MxPair=       506
 NAB=   253 NAA=     0 NBB=     0.
 DE(Z)= -0.79833496     E(Z)=     -5581.1065929     Delta=-3.33D-08
 NORM(A)=   0.11452264D+01
 Iteration Nr.  12
 **********************
 DD1Dir will call FoFMem   1 times, MxPair=       506
 NAB=   253 NAA=     0 NBB=     0.
 DE(Z)= -0.79833492     E(Z)=     -5581.1065929     Delta= 4.06D-08
 NORM(A)=   0.11452265D+01
 Iteration Nr.  13
 **********************
 DD1Dir will call FoFMem   1 times, MxPair=       506
 NAB=   253 NAA=     0 NBB=     0.
 DE(Z)= -0.79833495     E(Z)=     -5581.1065929     Delta=-3.57D-08
 NORM(A)=   0.11452265D+01
 Iteration Nr.  14
 **********************
 DD1Dir will call FoFMem   1 times, MxPair=       506
 NAB=   253 NAA=     0 NBB=     0.
 DE(Z)= -0.79833494     E(Z)=     -5581.1065929     Delta= 1.43D-08
 NORM(A)=   0.11452265D+01
 Iteration Nr.  15
 **********************
 DD1Dir will call FoFMem   1 times, MxPair=       506
 NAB=   253 NAA=     0 NBB=     0.
 DE(Z)= -0.79833495     E(Z)=     -5581.1065929     Delta=-7.28D-09
 NORM(A)=   0.11452265D+01
 Z-amplitudes converged.
 Discarding MO integrals.
          Differentiating once with respect to electric field.
                with respect to dipole field.
          Electric field/nuclear overlap derivatives assumed to be zero.
 Keep R1 ints in memory in canonical form, NReq=277859735.
          There are     1 degrees of freedom in the 1st order CPHF.  IDoFFX=0 NUNeed=     1.
 LinEq1:  Iter=  0 NonCon=     1 RMS=1.79D-03 Max=6.65D-02 NDo=     1
 AX will form     1 AO Fock derivatives at one time.
 LinEq1:  Iter=  1 NonCon=     1 RMS=8.42D-04 Max=1.83D-02 NDo=     1
 LinEq1:  Iter=  2 NonCon=     1 RMS=3.85D-04 Max=1.51D-02 NDo=     1
 LinEq1:  Iter=  3 NonCon=     1 RMS=1.27D-04 Max=4.21D-03 NDo=     1
 LinEq1:  Iter=  4 NonCon=     1 RMS=4.95D-05 Max=1.14D-03 NDo=     1
 LinEq1:  Iter=  5 NonCon=     1 RMS=9.81D-06 Max=1.73D-04 NDo=     1
 LinEq1:  Iter=  6 NonCon=     1 RMS=3.65D-06 Max=1.29D-04 NDo=     1
 LinEq1:  Iter=  7 NonCon=     1 RMS=8.61D-07 Max=3.27D-05 NDo=     1
 LinEq1:  Iter=  8 NonCon=     1 RMS=1.69D-07 Max=4.60D-06 NDo=     1
 LinEq1:  Iter=  9 NonCon=     1 RMS=3.91D-08 Max=7.61D-07 NDo=     1
 LinEq1:  Iter= 10 NonCon=     1 RMS=1.03D-08 Max=2.52D-07 NDo=     1
 LinEq1:  Iter= 11 NonCon=     1 RMS=2.05D-09 Max=5.35D-08 NDo=     1
 LinEq1:  Iter= 12 NonCon=     1 RMS=3.68D-10 Max=8.79D-09 NDo=     1
 LinEq1:  Iter= 13 NonCon=     1 RMS=6.34D-11 Max=1.02D-09 NDo=     1
 LinEq1:  Iter= 14 NonCon=     0 RMS=1.76D-11 Max=3.83D-10 NDo=     1
 Linear equations converged to 1.000D-10 1.000D-09 after    14 iterations.
 End of Minotr F.D. properties file   721 does not exist.
 End of Minotr F.D. properties file   722 does not exist.
 End of Minotr F.D. properties file   788 does not exist.

 **********************************************************************

            Population analysis using the CC Density.

 **********************************************************************

 Alpha  occ. eigenvalues -- -490.06431-490.06431 -91.98054 -65.20409 -65.20409
 Alpha  occ. eigenvalues --  -58.55944 -58.55944 -58.55793 -58.55793 -58.55774
 Alpha  occ. eigenvalues --  -58.55774 -11.43567  -9.87713  -9.87713  -8.98278
 Alpha  occ. eigenvalues --   -7.48907  -7.48906  -7.48179  -7.48179  -7.48099
 Alpha  occ. eigenvalues --   -7.48098  -6.66341  -6.66262  -6.66106  -3.23315
 Alpha  occ. eigenvalues --   -3.23314  -3.22955  -3.22955  -3.22846  -3.22845
 Alpha  occ. eigenvalues --   -3.21919  -3.21919  -3.21917  -3.21916  -1.16658
 Alpha  occ. eigenvalues --   -1.04196  -1.01282  -0.74119  -0.59654  -0.58278
 Alpha  occ. eigenvalues --   -0.53966  -0.46265  -0.44597  -0.42916  -0.39608
 Alpha  occ. eigenvalues --   -0.37183
 Alpha virt. eigenvalues --    0.01202   0.04631   0.05695   0.06080   0.08353
 Alpha virt. eigenvalues --    0.08934   0.09177   0.10074   0.11078   0.11464
 Alpha virt. eigenvalues --    0.11987   0.13416   0.14427   0.15433   0.15764
 Alpha virt. eigenvalues --    0.17005   0.18550   0.22127   0.23660   0.23962
 Alpha virt. eigenvalues --    0.24145   0.27546   0.29916   0.30834   0.32958
 Alpha virt. eigenvalues --    0.33953   0.34202   0.35524   0.35925   0.36777
 Alpha virt. eigenvalues --    0.37297   0.39630   0.40102   0.42854   0.43635
 Alpha virt. eigenvalues --    0.46183   0.48023   0.48138   0.48423   0.48646
 Alpha virt. eigenvalues --    0.48810   0.51200   0.57624   0.58763   0.59046
 Alpha virt. eigenvalues --    0.60701   0.65388   0.66444   0.68484   0.70437
 Alpha virt. eigenvalues --    0.71721   0.74654   0.75285   0.76050   0.76375
 Alpha virt. eigenvalues --    0.77065   0.78342   0.78510   0.78616   0.79998
 Alpha virt. eigenvalues --    0.81363   0.81366   0.84925   0.85971   0.88305
 Alpha virt. eigenvalues --    0.89082   0.89761   0.91576   0.93526   0.94897
 Alpha virt. eigenvalues --    0.95428   1.01228   1.01713   1.03111   1.03580
 Alpha virt. eigenvalues --    1.04461   1.04599   1.14502   1.15048   1.15776
 Alpha virt. eigenvalues --    1.17298   1.19084   1.19675   1.22424   1.25971
 Alpha virt. eigenvalues --    1.27740   1.32468   1.34985   1.38670   1.45424
 Alpha virt. eigenvalues --    1.46750   1.49457   1.51879   1.52359   1.52995
 Alpha virt. eigenvalues --    1.53444   1.54574   1.63406   1.71806   1.72157
 Alpha virt. eigenvalues --    1.74013   1.74148   1.92022   1.97893   2.07465
 Alpha virt. eigenvalues --    2.09762   2.13913   2.16312   2.17685   2.19171
 Alpha virt. eigenvalues --    2.21290   2.24444   2.27418   2.27443   2.28285
 Alpha virt. eigenvalues --    2.28527   2.29105   2.29954   2.32423   2.32446
 Alpha virt. eigenvalues --    2.32590   2.33651   2.34017   2.35479   2.36188
 Alpha virt. eigenvalues --    2.36693   2.37052   2.37754   2.39381   2.40854
 Alpha virt. eigenvalues --    2.41159   2.42636   2.43222   2.46158   2.46548
 Alpha virt. eigenvalues --    2.53002   2.53549   2.54712   2.56896   2.60084
 Alpha virt. eigenvalues --    2.62062   2.68542   2.70223   2.71747   2.89046
 Alpha virt. eigenvalues --    2.90459   2.92711   3.06518   3.30941   3.38168
 Alpha virt. eigenvalues --    3.58752   3.64548   3.65482   3.66898   3.75823
 Alpha virt. eigenvalues --    3.77023   3.83781   3.86498   3.89912   4.05295
 Alpha virt. eigenvalues --    4.05879   4.13715   4.14713   4.18500   5.06277
 Alpha virt. eigenvalues --    5.09891   6.40125   9.39429
          Condensed to atoms (all electrons):
               1          2          3          4
     1  C    6.378455  -0.026661  -0.094827  -0.094827
     2  S   -0.026661  16.442923  -0.184754  -0.184754
     3  Br  -0.094827  -0.184754  35.310321  -0.135188
     4  Br  -0.094827  -0.184754  -0.135188  35.310321
 Mulliken charges:
               1
     1  C   -0.162140
     2  S   -0.046754
     3  Br   0.104447
     4  Br   0.104447
 Sum of Mulliken charges =  -0.00000
 Mulliken charges with hydrogens summed into heavy atoms:
               1
     1  C   -0.162140
     2  S   -0.046754
     3  Br   0.104447
     4  Br   0.104447
 Electronic spatial extent (au):  <R**2>=           1432.8543
 Charge=             -0.0000 electrons
 Dipole moment (field-independent basis, Debye):
    X=             -0.0000    Y=              0.0000    Z=             -0.5190  Tot=              0.5190
 Quadrupole moment (field-independent basis, Debye-Ang):
   XX=            -54.9862   YY=            -53.7877   ZZ=            -53.7363
   XY=              0.0000   XZ=              0.0000   YZ=             -0.0000
 Traceless Quadrupole moment (field-independent basis, Debye-Ang):
   XX=             -0.8162   YY=              0.3824   ZZ=              0.4338
   XY=              0.0000   XZ=              0.0000   YZ=             -0.0000
 Octapole moment (field-independent basis, Debye-Ang**2):
  XXX=             -0.0000  YYY=              0.0000  ZZZ=            140.7302  XYY=             -0.0000
  XXY=             -0.0000  XXZ=             47.5945  XZZ=              0.0000  YZZ=              0.0000
  YYZ=             35.0598  XYZ=             -0.0000
 Hexadecapole moment (field-independent basis, Debye-Ang**3):
 XXXX=            -67.3329 YYYY=           -572.0219 ZZZZ=           -701.6233 XXXY=              0.0000
 XXXZ=              0.0000 YYYX=              0.0000 YYYZ=             -0.0000 ZZZX=              0.0000
 ZZZY=             -0.0000 XXYY=           -113.5069 XXZZ=           -130.7673 YYZZ=           -194.9968
 XXYZ=             -0.0000 YYXZ=              0.0000 ZZXY=              0.0000
 N-N= 5.468404474314D+02 E-N=-1.443482291254D+04  KE= 5.579816209473D+03
 There are a total of      107126 grid points.
 ElSum from          density=       92.0000015235
 ElSum from atomic densities=       92.0000007159

 Hirshfeld populations at iteration   1 (CX, CA, CB, DipXYZ):
               1          2          3          4          5          6
     1  C    0.000001   2.982419   2.982419   0.000000   0.000000  -0.108172
     2  S    0.000013   8.029526   8.029526   0.000000  -0.000000   0.161870
     3  Br   0.000023  17.494028  17.494028  -0.000000  -0.066072  -0.015037
     4  Br   0.000023  17.494028  17.494028  -0.000000   0.066072  -0.015037
       Tot   0.000061  46.000001  46.000001  -0.000000   0.000000   0.023624

 Dip from Atomic Chgs              0.000000  -0.000000  -0.227826
         Total Dipole             -0.000000   0.000000  -0.204202

 Hirshfeld charges, spin densities, dipoles, and CM5 charges using IRadAn=      5:
              Q-H        S-H        Dx         Dy         Dz        Q-CM5   
     1  C    0.035163   0.000000   0.000000   0.000000  -0.108172   0.025130
     2  S   -0.059053   0.000000   0.000000  -0.000000   0.161870  -0.083078
     3  Br   0.011944   0.000000  -0.000000  -0.066072  -0.015037   0.028974
     4  Br   0.011944   0.000000  -0.000000   0.066072  -0.015037   0.028974
       Tot  -0.000002   0.000000  -0.000000   0.000000   0.023624  -0.000002
 Hirshfeld charges with hydrogens summed into heavy atoms:
              Q-H       Q-CM5   
     1  C    0.035163   0.025130
     2  S   -0.059053  -0.083078
     3  Br   0.011944   0.028974
     4  Br   0.011944   0.028974
 
 EQQ= 0.000000000000E+00 EQD= 0.000000000000E+00 EDD=-0.591115008919E-03
 EQQ+QD+DD=-0.591115008919E-03
 
 Breneman (CHELPG) radii used.
 GetVDW:  no radius for atom   3 atomic number  35.
 Error termination via Lnk1e in /home/wagner/chemistry/gaussian/g16/l602.exe at Tue Sep  6 02:09:59 2022.
 Job cpu time:       0 days 14 hours 42 minutes 59.6 seconds.
 Elapsed time:       0 days  0 hours 55 minutes 48.2 seconds.
 File lengths (MBytes):  RWF=  31411 Int=      0 D2E=      0 Chk=      2 Scr=      1
