 Entering Gaussian System, Link 0=/home/wagner/chemistry/gaussian/g16/g16
 Input=GAUSSIAN.com
 Output=GAUSSIAN.log
 Initial command:
 /home/wagner/chemistry/gaussian/g16/l1.exe "/home/wagner/chemistry/gaussian/work/Gau-5347.inp" -scrdir="/home/wagner/chemistry/gaussian/work/"
 Entering Link 1 = /home/wagner/chemistry/gaussian/g16/l1.exe PID=      5349.
  
 Copyright (c) 1988-2019, Gaussian, Inc.  All Rights Reserved.
  
 This is part of the Gaussian(R) 16 program.  It is based on
 the Gaussian(R) 09 system (copyright 2009, Gaussian, Inc.),
 the Gaussian(R) 03 system (copyright 2003, Gaussian, Inc.),
 the Gaussian(R) 98 system (copyright 1998, Gaussian, Inc.),
 the Gaussian(R) 94 system (copyright 1995, Gaussian, Inc.),
 the Gaussian 92(TM) system (copyright 1992, Gaussian, Inc.),
 the Gaussian 90(TM) system (copyright 1990, Gaussian, Inc.),
 the Gaussian 88(TM) system (copyright 1988, Gaussian, Inc.),
 the Gaussian 86(TM) system (copyright 1986, Carnegie Mellon
 University), and the Gaussian 82(TM) system (copyright 1983,
 Carnegie Mellon University). Gaussian is a federally registered
 trademark of Gaussian, Inc.
  
 This software contains proprietary and confidential information,
 including trade secrets, belonging to Gaussian, Inc.
  
 This software is provided under written license and may be
 used, copied, transmitted, or stored only in accord with that
 written license.
  
 The following legend is applicable only to US Government
 contracts under FAR:
  
                    RESTRICTED RIGHTS LEGEND
  
 Use, reproduction and disclosure by the US Government is
 subject to restrictions as set forth in subparagraphs (a)
 and (c) of the Commercial Computer Software - Restricted
 Rights clause in FAR 52.227-19.
  
 Gaussian, Inc.
 340 Quinnipiac St., Bldg. 40, Wallingford CT 06492
  
  
 ---------------------------------------------------------------
 Warning -- This program may not be used in any manner that
 competes with the business of Gaussian, Inc. or will provide
 assistance to any competitor of Gaussian, Inc.  The licensee
 of this program is prohibited from giving any competitor of
 Gaussian, Inc. access to this program.  By using this program,
 the user acknowledges that Gaussian, Inc. is engaged in the
 business of creating and licensing software in the field of
 computational chemistry and represents and warrants to the
 licensee that it is not a competitor of Gaussian, Inc. and that
 it will not use this program in any manner prohibited above.
 ---------------------------------------------------------------
  

 Cite this work as:
 Gaussian 16, Revision C.01,
 M. J. Frisch, G. W. Trucks, H. B. Schlegel, G. E. Scuseria, 
 M. A. Robb, J. R. Cheeseman, G. Scalmani, V. Barone, 
 G. A. Petersson, H. Nakatsuji, X. Li, M. Caricato, A. V. Marenich, 
 J. Bloino, B. G. Janesko, R. Gomperts, B. Mennucci, H. P. Hratchian, 
 J. V. Ortiz, A. F. Izmaylov, J. L. Sonnenberg, D. Williams-Young, 
 F. Ding, F. Lipparini, F. Egidi, J. Goings, B. Peng, A. Petrone, 
 T. Henderson, D. Ranasinghe, V. G. Zakrzewski, J. Gao, N. Rega, 
 G. Zheng, W. Liang, M. Hada, M. Ehara, K. Toyota, R. Fukuda, 
 J. Hasegawa, M. Ishida, T. Nakajima, Y. Honda, O. Kitao, H. Nakai, 
 T. Vreven, K. Throssell, J. A. Montgomery, Jr., J. E. Peralta, 
 F. Ogliaro, M. J. Bearpark, J. J. Heyd, E. N. Brothers, K. N. Kudin, 
 V. N. Staroverov, T. A. Keith, R. Kobayashi, J. Normand, 
 K. Raghavachari, A. P. Rendell, J. C. Burant, S. S. Iyengar, 
 J. Tomasi, M. Cossi, J. M. Millam, M. Klene, C. Adamo, R. Cammi, 
 J. W. Ochterski, R. L. Martin, K. Morokuma, O. Farkas, 
 J. B. Foresman, and D. J. Fox, Gaussian, Inc., Wallingford CT, 2019.
 
 ******************************************
 Gaussian 16:  EM64L-G16RevC.01  3-Jul-2019
                 6-Sep-2022 
 ******************************************
 %nproc=16
 Will use up to   16 processors via shared memory.
 %mem=16GB
 ----------------------------------------------------------------------
 # qcisd/aug-cc-pvtz nosymm density=current pop=(chelpg,hirshfeld,npa,d
 ipole)
 ----------------------------------------------------------------------
 1/30=1,38=1,172=1/1;
 2/12=2,15=1,17=6,18=5,40=1/2;
 3/5=16,6=1,7=10,11=9,25=1,30=1,71=1/1,2,3;
 4//1;
 5/5=2,38=5/2;
 8/6=4,9=120000,10=1/1,4;
 9/5=8,15=1/13;
 11/28=-7,31=1,32=3,42=3/11;
 10/5=6,13=10,31=1/2;
 6/7=2,8=2,9=2,10=2,15=24,20=3,22=-1,40=-1,79=1/1,2,7;
 99/5=1,9=1/99;
 ------------------
 br2cs-wavefunction
 ------------------
 Symbolic Z-matrix:
 Charge =  0 Multiplicity = 1
 C                     0.        0.       -0.51945 
 S                     0.       -0.01      1.08369 
 Br                    0.       -1.56852  -1.57857 
 Br                    0.        1.56852  -1.57857 
 
                          Input orientation:                          
 ---------------------------------------------------------------------
 Center     Atomic      Atomic             Coordinates (Angstroms)
 Number     Number       Type             X           Y           Z
 ---------------------------------------------------------------------
      1          6           0        0.000000    0.000000   -0.519451
      2         16           0        0.000000   -0.010000    1.083692
      3         35           0        0.000000   -1.568516   -1.578570
      4         35           0        0.000000    1.568516   -1.578570
 ---------------------------------------------------------------------
                    Distance matrix (angstroms):
                    1          2          3          4
     1  C    0.000000
     2  S    1.603174   0.000000
     3  Br   1.892611   3.084900   0.000000
     4  Br   1.892611   3.095053   3.137032   0.000000
 Symmetry turned off by external request.
 Stoichiometry    CBr2S
 Framework group  CS[SG(CBr2S)]
 Deg. of freedom     5
 Full point group                 CS      NOp   2
 Rotational constants (GHZ):           2.6234017           1.3014443           0.8698969
 Standard basis: Aug-CC-pVTZ (5D, 7F)
   214 basis functions,   620 primitive gaussians,   252 cartesian basis functions
    46 alpha electrons       46 beta electrons
       nuclear repulsion energy       547.5696335027 Hartrees.
 NAtoms=    4 NActive=    4 NUniq=    4 SFac= 1.00D+00 NAtFMM=   60 NAOKFM=F Big=F
 Integral buffers will be    131072 words long.
 Raffenetti 1 integral format.
 Two-electron integral symmetry is turned off.
 One-electron integrals computed using PRISM.
 NBasis=   214 RedAO= T EigKep=  7.89D-05  NBF=   214
 NBsUse=   214 1.00D-06 EigRej= -1.00D+00 NBFU=   214
 ExpMin= 3.51D-02 ExpMax= 1.06D+07 ExpMxC= 1.21D+04 IAcc=3 IRadAn=         5 AccDes= 0.00D+00
 Harris functional with IExCor=  205 and IRadAn=       5 diagonalized for initial guess.
 HarFok:  IExCor=  205 AccDes= 0.00D+00 IRadAn=         5 IDoV= 1 UseB2=F ITyADJ=14
 ICtDFT=  3500011 ScaDFX=  1.000000  1.000000  1.000000  1.000000
 FoFCou: FMM=F IPFlag=           0 FMFlag=      100000 FMFlg1=           0
         NFxFlg=           0 DoJE=T BraDBF=F KetDBF=T FulRan=T
         wScrn=  0.000000 ICntrl=       500 IOpCl=  0 I1Cent=   200000004 NGrid=           0
         NMat0=    1 NMatS0=      1 NMatT0=    0 NMatD0=    1 NMtDS0=    0 NMtDT0=    0
 Symmetry not used in FoFCou.
 Keep R1 ints in memory in canonical form, NReq=277853419.
 Requested convergence on RMS density matrix=1.00D-08 within 128 cycles.
 Requested convergence on MAX density matrix=1.00D-06.
 Requested convergence on             energy=1.00D-06.
 No special actions if energy rises.
 SCF Done:  E(RHF) =  -5580.30867130     A.U. after   14 cycles
            NFock= 14  Conv=0.30D-08     -V/T= 2.0000
 ExpMin= 3.51D-02 ExpMax= 1.06D+07 ExpMxC= 1.21D+04 IAcc=3 IRadAn=         5 AccDes= 0.00D+00
 HarFok:  IExCor=  205 AccDes= 0.00D+00 IRadAn=         5 IDoV=-2 UseB2=F ITyADJ=14
 ICtDFT= 12500011 ScaDFX=  1.000000  1.000000  1.000000  1.000000
 GSVD:  LWork=        -768 too small for GESVD, short by        3240 words or        3240 for optimal perf.
 Range of M.O.s used for correlation:    25   214
 NBasis=   214 NAE=    46 NBE=    46 NFC=    24 NFV=     0
 NROrb=    190 NOA=    22 NOB=    22 NVA=   168 NVB=   168

 **** Warning!!: The largest alpha MO coefficient is  0.30758640D+02

 Semi-Direct transformation.
 ModeAB=           2 MOrb=            22 LenV=    2146186101
 LASXX=     69628944 LTotXX=    69628944 LenRXX=    69628944
 LTotAB=    70719517 MaxLAS=   133250040 LenRXY=   133250040
 NonZer=   139257888 LenScr=   209707008 LnRSAI=           0
 LnScr1=           0 LExtra=           0 Total=    412585992
 MaxDsk=          -1 SrtSym=           F ITran=            4
 JobTyp=0 Pass  1:  I=   1 to  22.
 (rs|ai) integrals will be sorted in core.
 Spin components of T(2) and E(2):
     alpha-alpha T2 =       0.4287493469D-01 E2=     -0.1154002897D+00
     alpha-beta  T2 =       0.2166602688D+00 E2=     -0.5793054495D+00
     beta-beta   T2 =       0.4287493469D-01 E2=     -0.1154002897D+00
 ANorm=    0.1141231851D+01
 E2 =    -0.8101060288D+00 EUMP2 =    -0.55811187773246D+04
 Keep R2 and R3 ints in memory in canonical form, NReq=542493848.
 CIDS: In Core Option IDoMem=           1.
 Iterations=  50 Convergence= 0.100D-07
 Produce multiple copies of IABC intergrals
 Iteration Nr.   1
 **********************
 DD1Dir will call FoFMem   1 times, MxPair=       506
 NAB=   253 NAA=     0 NBB=     0.
 MP4(R+Q)=  0.23474795D-01
 E3=       -0.12177525D-01        EUMP3=      -0.55811309548D+04
 E4(DQ)=   -0.51041397D-03        UMP4(DQ)=   -0.55811314653D+04
 E4(SDQ)=  -0.10186030D-01        UMP4(SDQ)=  -0.55811411409D+04
 DE(Corr)= -0.79880876     E(Corr)=     -5581.1074801    
 NORM(A)=   0.11410208D+01
 Iteration Nr.   2
 **********************
 DD1Dir will call FoFMem   1 times, MxPair=       506
 NAB=   253 NAA=     0 NBB=     0.
 DE(Corr)= -0.82757849     E(CORR)=     -5581.1362498     Delta=-2.88D-02
 NORM(A)=   0.11532090D+01
 Iteration Nr.   3
 **********************
 DD1Dir will call FoFMem   1 times, MxPair=       506
 NAB=   253 NAA=     0 NBB=     0.
 DE(Corr)= -0.82617058     E(CORR)=     -5581.1348419     Delta= 1.41D-03
 NORM(A)=   0.11560455D+01
 Iteration Nr.   4
 **********************
 DD1Dir will call FoFMem   1 times, MxPair=       506
 NAB=   253 NAA=     0 NBB=     0.
 DE(Corr)= -0.82852184     E(CORR)=     -5581.1371931     Delta=-2.35D-03
 NORM(A)=   0.11573525D+01
 Iteration Nr.   5
 **********************
 DD1Dir will call FoFMem   1 times, MxPair=       506
 NAB=   253 NAA=     0 NBB=     0.
 DE(Corr)= -0.82883103     E(CORR)=     -5581.1375023     Delta=-3.09D-04
 NORM(A)=   0.11579896D+01
 Iteration Nr.   6
 **********************
 DD1Dir will call FoFMem   1 times, MxPair=       506
 NAB=   253 NAA=     0 NBB=     0.
 DE(Corr)= -0.82889576     E(CORR)=     -5581.1375671     Delta=-6.47D-05
 NORM(A)=   0.11580697D+01
 Iteration Nr.   7
 **********************
 DD1Dir will call FoFMem   1 times, MxPair=       506
 NAB=   253 NAA=     0 NBB=     0.
 DE(Corr)= -0.82890758     E(CORR)=     -5581.1375789     Delta=-1.18D-05
 NORM(A)=   0.11580865D+01
 Iteration Nr.   8
 **********************
 DD1Dir will call FoFMem   1 times, MxPair=       506
 NAB=   253 NAA=     0 NBB=     0.
 DE(Corr)= -0.82890370     E(CORR)=     -5581.1375750     Delta= 3.88D-06
 NORM(A)=   0.11580948D+01
 Iteration Nr.   9
 **********************
 DD1Dir will call FoFMem   1 times, MxPair=       506
 NAB=   253 NAA=     0 NBB=     0.
 DE(Corr)= -0.82890539     E(CORR)=     -5581.1375767     Delta=-1.69D-06
 NORM(A)=   0.11580955D+01
 Iteration Nr.  10
 **********************
 DD1Dir will call FoFMem   1 times, MxPair=       506
 NAB=   253 NAA=     0 NBB=     0.
 DE(Corr)= -0.82890551     E(CORR)=     -5581.1375768     Delta=-1.19D-07
 NORM(A)=   0.11580992D+01
 Iteration Nr.  11
 **********************
 DD1Dir will call FoFMem   1 times, MxPair=       506
 NAB=   253 NAA=     0 NBB=     0.
 DE(Corr)= -0.82890709     E(CORR)=     -5581.1375784     Delta=-1.58D-06
 NORM(A)=   0.11581012D+01
 Iteration Nr.  12
 **********************
 DD1Dir will call FoFMem   1 times, MxPair=       506
 NAB=   253 NAA=     0 NBB=     0.
 DE(Corr)= -0.82890717     E(CORR)=     -5581.1375785     Delta=-7.88D-08
 NORM(A)=   0.11581027D+01
 Iteration Nr.  13
 **********************
 DD1Dir will call FoFMem   1 times, MxPair=       506
 NAB=   253 NAA=     0 NBB=     0.
 DE(Corr)= -0.82890781     E(CORR)=     -5581.1375791     Delta=-6.35D-07
 NORM(A)=   0.11581037D+01
 Iteration Nr.  14
 **********************
 DD1Dir will call FoFMem   1 times, MxPair=       506
 NAB=   253 NAA=     0 NBB=     0.
 DE(Corr)= -0.82890782     E(CORR)=     -5581.1375791     Delta=-1.20D-08
 NORM(A)=   0.11581042D+01
 Iteration Nr.  15
 **********************
 DD1Dir will call FoFMem   1 times, MxPair=       506
 NAB=   253 NAA=     0 NBB=     0.
 DE(Corr)= -0.82890793     E(CORR)=     -5581.1375792     Delta=-1.16D-07
 NORM(A)=   0.11581044D+01
 Iteration Nr.  16
 **********************
 DD1Dir will call FoFMem   1 times, MxPair=       506
 NAB=   253 NAA=     0 NBB=     0.
 DE(Corr)= -0.82890796     E(CORR)=     -5581.1375793     Delta=-2.88D-08
 NORM(A)=   0.11581045D+01
 Iteration Nr.  17
 **********************
 DD1Dir will call FoFMem   1 times, MxPair=       506
 NAB=   253 NAA=     0 NBB=     0.
 DE(Corr)= -0.82890795     E(CORR)=     -5581.1375792     Delta= 1.27D-08
 NORM(A)=   0.11581045D+01
 Iteration Nr.  18
 **********************
 DD1Dir will call FoFMem   1 times, MxPair=       506
 NAB=   253 NAA=     0 NBB=     0.
 DE(Corr)= -0.82890797     E(CORR)=     -5581.1375793     Delta=-1.66D-08
 NORM(A)=   0.11581045D+01
 Iteration Nr.  19
 **********************
 DD1Dir will call FoFMem   1 times, MxPair=       506
 NAB=   253 NAA=     0 NBB=     0.
 DE(Corr)= -0.82890796     E(CORR)=     -5581.1375793     Delta= 4.80D-09
 NORM(A)=   0.11581045D+01
 Wavefunction amplitudes converged. E(Corr)=     -5581.1375793    
 Largest amplitude= 7.67D-02

 Z-amplitude iterations

 Iteration Nr.   1
 **********************
 DD1Dir will call FoFMem   1 times, MxPair=       506
 NAB=   253 NAA=     0 NBB=     0.
 DE(Z)= -0.79824788     E(Z)=     -5581.1069192     Delta= 3.07D-02
 NORM(A)=   0.11582130D+01
 Iteration Nr.   2
 **********************
 DD1Dir will call FoFMem   1 times, MxPair=       506
 NAB=   253 NAA=     0 NBB=     0.
 DE(Z)= -0.79824867     E(Z)=     -5581.1069200     Delta=-7.93D-07
 NORM(A)=   0.11582375D+01
 Iteration Nr.   3
 **********************
 DD1Dir will call FoFMem   1 times, MxPair=       506
 NAB=   253 NAA=     0 NBB=     0.
 DE(Z)= -0.79824872     E(Z)=     -5581.1069200     Delta=-4.87D-08
 NORM(A)=   0.11582924D+01
 Iteration Nr.   4
 **********************
 DD1Dir will call FoFMem   1 times, MxPair=       506
 NAB=   253 NAA=     0 NBB=     0.
 DE(Z)= -0.79824927     E(Z)=     -5581.1069206     Delta=-5.44D-07
 NORM(A)=   0.11585408D+01
 Iteration Nr.   5
 **********************
 DD1Dir will call FoFMem   1 times, MxPair=       506
 NAB=   253 NAA=     0 NBB=     0.
 DE(Z)= -0.79825188     E(Z)=     -5581.1069232     Delta=-2.61D-06
 NORM(A)=   0.11448434D+01
 Iteration Nr.   6
 **********************
 DD1Dir will call FoFMem   1 times, MxPair=       506
 NAB=   253 NAA=     0 NBB=     0.
 DE(Z)= -0.79813074     E(Z)=     -5581.1068020     Delta= 1.21D-04
 NORM(A)=   0.11448439D+01
 Iteration Nr.   7
 **********************
 DD1Dir will call FoFMem   1 times, MxPair=       506
 NAB=   253 NAA=     0 NBB=     0.
 DE(Z)= -0.79812802     E(Z)=     -5581.1067993     Delta= 2.72D-06
 NORM(A)=   0.11448429D+01
 Iteration Nr.   8
 **********************
 DD1Dir will call FoFMem   1 times, MxPair=       506
 NAB=   253 NAA=     0 NBB=     0.
 DE(Z)= -0.79812897     E(Z)=     -5581.1068003     Delta=-9.45D-07
 NORM(A)=   0.11448427D+01
 Iteration Nr.   9
 **********************
 DD1Dir will call FoFMem   1 times, MxPair=       506
 NAB=   253 NAA=     0 NBB=     0.
 DE(Z)= -0.79812820     E(Z)=     -5581.1067995     Delta= 7.67D-07
 NORM(A)=   0.11448427D+01
 Iteration Nr.  10
 **********************
 DD1Dir will call FoFMem   1 times, MxPair=       506
 NAB=   253 NAA=     0 NBB=     0.
 DE(Z)= -0.79812810     E(Z)=     -5581.1067994     Delta= 9.94D-08
 NORM(A)=   0.11448429D+01
 Iteration Nr.  11
 **********************
 DD1Dir will call FoFMem   1 times, MxPair=       506
 NAB=   253 NAA=     0 NBB=     0.
 DE(Z)= -0.79812814     E(Z)=     -5581.1067994     Delta=-4.03D-08
 NORM(A)=   0.11448431D+01
 Iteration Nr.  12
 **********************
 DD1Dir will call FoFMem   1 times, MxPair=       506
 NAB=   253 NAA=     0 NBB=     0.
 DE(Z)= -0.79812813     E(Z)=     -5581.1067994     Delta= 9.84D-09
 NORM(A)=   0.11448433D+01
 Z-amplitudes converged.
 Discarding MO integrals.
          Differentiating once with respect to electric field.
                with respect to dipole field.
          Electric field/nuclear overlap derivatives assumed to be zero.
 Keep R1 ints in memory in canonical form, NReq=277859822.
          There are     1 degrees of freedom in the 1st order CPHF.  IDoFFX=0 NUNeed=     1.
 LinEq1:  Iter=  0 NonCon=     1 RMS=1.78D-03 Max=6.60D-02 NDo=     1
 AX will form     1 AO Fock derivatives at one time.
 LinEq1:  Iter=  1 NonCon=     1 RMS=8.41D-04 Max=1.81D-02 NDo=     1
 LinEq1:  Iter=  2 NonCon=     1 RMS=3.81D-04 Max=1.47D-02 NDo=     1
 LinEq1:  Iter=  3 NonCon=     1 RMS=1.25D-04 Max=4.33D-03 NDo=     1
 LinEq1:  Iter=  4 NonCon=     1 RMS=4.84D-05 Max=9.29D-04 NDo=     1
 LinEq1:  Iter=  5 NonCon=     1 RMS=9.57D-06 Max=1.72D-04 NDo=     1
 LinEq1:  Iter=  6 NonCon=     1 RMS=3.25D-06 Max=7.86D-05 NDo=     1
 LinEq1:  Iter=  7 NonCon=     1 RMS=7.08D-07 Max=2.20D-05 NDo=     1
 LinEq1:  Iter=  8 NonCon=     1 RMS=1.38D-07 Max=4.12D-06 NDo=     1
 LinEq1:  Iter=  9 NonCon=     1 RMS=3.37D-08 Max=1.03D-06 NDo=     1
 LinEq1:  Iter= 10 NonCon=     1 RMS=9.46D-09 Max=2.07D-07 NDo=     1
 LinEq1:  Iter= 11 NonCon=     1 RMS=2.01D-09 Max=4.99D-08 NDo=     1
 LinEq1:  Iter= 12 NonCon=     1 RMS=4.24D-10 Max=9.63D-09 NDo=     1
 LinEq1:  Iter= 13 NonCon=     1 RMS=1.32D-10 Max=1.91D-09 NDo=     1
 LinEq1:  Iter= 14 NonCon=     0 RMS=3.05D-11 Max=5.43D-10 NDo=     1
 Linear equations converged to 1.000D-10 1.000D-09 after    14 iterations.
 End of Minotr F.D. properties file   721 does not exist.
 End of Minotr F.D. properties file   722 does not exist.
 End of Minotr F.D. properties file   788 does not exist.

 **********************************************************************

            Population analysis using the CC Density.

 **********************************************************************

 Alpha  occ. eigenvalues -- -490.06393-490.06328 -91.98023 -65.20373 -65.20309
 Alpha  occ. eigenvalues --  -58.55907 -58.55843 -58.55755 -58.55737 -58.55692
 Alpha  occ. eigenvalues --  -58.55674 -11.43411  -9.87677  -9.87615  -8.98292
 Alpha  occ. eigenvalues --   -7.48870  -7.48809  -7.48142  -7.48081  -7.48063
 Alpha  occ. eigenvalues --   -7.48002  -6.66359  -6.66274  -6.66119  -3.23278
 Alpha  occ. eigenvalues --   -3.23216  -3.22918  -3.22856  -3.22810  -3.22748
 Alpha  occ. eigenvalues --   -3.21883  -3.21880  -3.21823  -3.21820  -1.16791
 Alpha  occ. eigenvalues --   -1.04151  -1.01488  -0.74033  -0.59711  -0.58346
 Alpha  occ. eigenvalues --   -0.54051  -0.46259  -0.44556  -0.42867  -0.39719
 Alpha  occ. eigenvalues --   -0.37182
 Alpha virt. eigenvalues --    0.01303   0.04661   0.05711   0.06063   0.08380
 Alpha virt. eigenvalues --    0.08954   0.09153   0.10092   0.11087   0.11455
 Alpha virt. eigenvalues --    0.12003   0.13414   0.14426   0.15451   0.15754
 Alpha virt. eigenvalues --    0.16993   0.18584   0.22150   0.23662   0.23995
 Alpha virt. eigenvalues --    0.24127   0.27594   0.29912   0.30870   0.33010
 Alpha virt. eigenvalues --    0.33985   0.34208   0.35550   0.35924   0.36812
 Alpha virt. eigenvalues --    0.37298   0.39636   0.40103   0.42868   0.43647
 Alpha virt. eigenvalues --    0.46293   0.48009   0.48106   0.48413   0.48722
 Alpha virt. eigenvalues --    0.48871   0.51277   0.57629   0.58730   0.59044
 Alpha virt. eigenvalues --    0.60619   0.65447   0.66494   0.68513   0.70396
 Alpha virt. eigenvalues --    0.71712   0.74664   0.75277   0.76070   0.76433
 Alpha virt. eigenvalues --    0.77052   0.78360   0.78563   0.78636   0.80017
 Alpha virt. eigenvalues --    0.81308   0.81448   0.84996   0.85974   0.88386
 Alpha virt. eigenvalues --    0.89084   0.89934   0.91620   0.93614   0.94871
 Alpha virt. eigenvalues --    0.95659   1.01174   1.01767   1.03300   1.03732
 Alpha virt. eigenvalues --    1.04533   1.04618   1.14646   1.15166   1.15928
 Alpha virt. eigenvalues --    1.17488   1.19019   1.19721   1.22388   1.26097
 Alpha virt. eigenvalues --    1.27752   1.32575   1.35133   1.38703   1.45439
 Alpha virt. eigenvalues --    1.46808   1.49468   1.51864   1.52405   1.53222
 Alpha virt. eigenvalues --    1.53835   1.54604   1.63537   1.71965   1.72288
 Alpha virt. eigenvalues --    1.74100   1.74375   1.91990   1.97964   2.07382
 Alpha virt. eigenvalues --    2.09698   2.13933   2.16442   2.17753   2.19237
 Alpha virt. eigenvalues --    2.21332   2.24507   2.27541   2.27546   2.28321
 Alpha virt. eigenvalues --    2.28580   2.29152   2.30006   2.32333   2.32555
 Alpha virt. eigenvalues --    2.32669   2.33771   2.34116   2.35496   2.36290
 Alpha virt. eigenvalues --    2.36703   2.37082   2.38022   2.39422   2.40894
 Alpha virt. eigenvalues --    2.41241   2.42634   2.43321   2.46318   2.46680
 Alpha virt. eigenvalues --    2.53168   2.53777   2.54970   2.56998   2.60172
 Alpha virt. eigenvalues --    2.62127   2.68705   2.70395   2.71734   2.89611
 Alpha virt. eigenvalues --    2.91445   2.93404   3.07462   3.30468   3.38519
 Alpha virt. eigenvalues --    3.58963   3.64616   3.65348   3.67028   3.76005
 Alpha virt. eigenvalues --    3.77309   3.83960   3.87191   3.90071   4.05568
 Alpha virt. eigenvalues --    4.06131   4.14000   4.15947   4.18937   5.06691
 Alpha virt. eigenvalues --    5.10148   6.43972   9.47700
          Condensed to atoms (all electrons):
               1          2          3          4
     1  C    6.376639  -0.031076  -0.089295  -0.095946
     2  S   -0.031076  16.451985  -0.188908  -0.187467
     3  Br  -0.089295  -0.188908  35.312476  -0.136454
     4  Br  -0.095946  -0.187467  -0.136454  35.317190
 Mulliken charges:
               1
     1  C   -0.160322
     2  S   -0.044534
     3  Br   0.102181
     4  Br   0.102676
 Sum of Mulliken charges =  -0.00000
 Mulliken charges with hydrogens summed into heavy atoms:
               1
     1  C   -0.160322
     2  S   -0.044534
     3  Br   0.102181
     4  Br   0.102676
 Electronic spatial extent (au):  <R**2>=           1431.6440
 Charge=             -0.0000 electrons
 Dipole moment (field-independent basis, Debye):
    X=             -0.0000    Y=              0.0092    Z=             -0.4735  Tot=              0.4735
 Quadrupole moment (field-independent basis, Debye-Ang):
   XX=            -54.9570   YY=            -53.8187   ZZ=            -53.7723
   XY=             -0.0000   XZ=              0.0000   YZ=             -0.0507
 Traceless Quadrupole moment (field-independent basis, Debye-Ang):
   XX=             -0.7743   YY=              0.3639   ZZ=              0.4104
   XY=             -0.0000   XZ=              0.0000   YZ=             -0.0507
 Octapole moment (field-independent basis, Debye-Ang**2):
  XXX=             -0.0000  YYY=              0.4512  ZZZ=            141.2585  XYY=              0.0000
  XXY=              0.1296  XXZ=             47.7782  XZZ=              0.0000  YZZ=              0.1506
  YYZ=             35.3449  XYZ=              0.0000
 Hexadecapole moment (field-independent basis, Debye-Ang**3):
 XXXX=            -67.2505 YYYY=           -572.3494 ZZZZ=           -700.4570 XXXY=             -0.0000
 XXXZ=              0.0000 YYYX=             -0.0000 YYYZ=              0.3224 ZZZX=              0.0000
 ZZZY=              0.0413 XXYY=           -113.5374 XXZZ=           -130.5003 YYZZ=           -194.9030
 XXYZ=              0.0966 YYXZ=              0.0000 ZZXY=             -0.0000
 N-N= 5.475696335027D+02 E-N=-1.443633358341D+04  KE= 5.579845883847D+03
 There are a total of      107126 grid points.
 ElSum from          density=       92.0000014604
 ElSum from atomic densities=       92.0000005929

 Hirshfeld populations at iteration   1 (CX, CA, CB, DipXYZ):
               1          2          3          4          5          6
     1  C    0.000001   2.982885   2.982885   0.000000   0.001181  -0.108788
     2  S    0.000013   8.027828   8.027828   0.000000  -0.003126   0.161737
     3  Br   0.000023  17.495029  17.495029  -0.000000  -0.064407  -0.012805
     4  Br   0.000023  17.494259  17.494259  -0.000000   0.064364  -0.014924
       Tot   0.000061  46.000001  46.000001  -0.000000  -0.001987   0.025220

 Dip from Atomic Chgs              0.000000   0.005613  -0.211488
         Total Dipole             -0.000000   0.003626  -0.186268

 Hirshfeld charges, spin densities, dipoles, and CM5 charges using IRadAn=      5:
              Q-H        S-H        Dx         Dy         Dz        Q-CM5   
     1  C    0.034230   0.000000   0.000000   0.001181  -0.108788   0.024658
     2  S   -0.055656   0.000000   0.000000  -0.003126   0.161737  -0.080263
     3  Br   0.009943   0.000000  -0.000000  -0.064407  -0.012805   0.027068
     4  Br   0.011481   0.000000  -0.000000   0.064364  -0.014924   0.028535
       Tot  -0.000001   0.000000  -0.000000  -0.001987   0.025220  -0.000001
 Hirshfeld charges with hydrogens summed into heavy atoms:
              Q-H       Q-CM5   
     1  C    0.034230   0.024658
     2  S   -0.055656  -0.080263
     3  Br   0.009943   0.027068
     4  Br   0.011481   0.028535
 
 EQQ= 0.000000000000E+00 EQD= 0.000000000000E+00 EDD=-0.608465256383E-03
 EQQ+QD+DD=-0.608465256383E-03
 
 Breneman (CHELPG) radii used.
 GetVDW:  no radius for atom   3 atomic number  35.
 Error termination via Lnk1e in /home/wagner/chemistry/gaussian/g16/l602.exe at Tue Sep  6 01:14:03 2022.
 Job cpu time:       0 days 14 hours  4 minutes 18.8 seconds.
 Elapsed time:       0 days  0 hours 53 minutes 22.6 seconds.
 File lengths (MBytes):  RWF=  31411 Int=      0 D2E=      0 Chk=      2 Scr=      1
