 Entering Gaussian System, Link 0=/home/wagner/chemistry/gaussian/g16/g16
 Input=GAUSSIAN.com
 Output=GAUSSIAN.log
 Initial command:
 /home/wagner/chemistry/gaussian/g16/l1.exe "/home/wagner/chemistry/gaussian/work/Gau-2879.inp" -scrdir="/home/wagner/chemistry/gaussian/work/"
 Entering Link 1 = /home/wagner/chemistry/gaussian/g16/l1.exe PID=      2881.
  
 Copyright (c) 1988-2019, Gaussian, Inc.  All Rights Reserved.
  
 This is part of the Gaussian(R) 16 program.  It is based on
 the Gaussian(R) 09 system (copyright 2009, Gaussian, Inc.),
 the Gaussian(R) 03 system (copyright 2003, Gaussian, Inc.),
 the Gaussian(R) 98 system (copyright 1998, Gaussian, Inc.),
 the Gaussian(R) 94 system (copyright 1995, Gaussian, Inc.),
 the Gaussian 92(TM) system (copyright 1992, Gaussian, Inc.),
 the Gaussian 90(TM) system (copyright 1990, Gaussian, Inc.),
 the Gaussian 88(TM) system (copyright 1988, Gaussian, Inc.),
 the Gaussian 86(TM) system (copyright 1986, Carnegie Mellon
 University), and the Gaussian 82(TM) system (copyright 1983,
 Carnegie Mellon University). Gaussian is a federally registered
 trademark of Gaussian, Inc.
  
 This software contains proprietary and confidential information,
 including trade secrets, belonging to Gaussian, Inc.
  
 This software is provided under written license and may be
 used, copied, transmitted, or stored only in accord with that
 written license.
  
 The following legend is applicable only to US Government
 contracts under FAR:
  
                    RESTRICTED RIGHTS LEGEND
  
 Use, reproduction and disclosure by the US Government is
 subject to restrictions as set forth in subparagraphs (a)
 and (c) of the Commercial Computer Software - Restricted
 Rights clause in FAR 52.227-19.
  
 Gaussian, Inc.
 340 Quinnipiac St., Bldg. 40, Wallingford CT 06492
  
  
 ---------------------------------------------------------------
 Warning -- This program may not be used in any manner that
 competes with the business of Gaussian, Inc. or will provide
 assistance to any competitor of Gaussian, Inc.  The licensee
 of this program is prohibited from giving any competitor of
 Gaussian, Inc. access to this program.  By using this program,
 the user acknowledges that Gaussian, Inc. is engaged in the
 business of creating and licensing software in the field of
 computational chemistry and represents and warrants to the
 licensee that it is not a competitor of Gaussian, Inc. and that
 it will not use this program in any manner prohibited above.
 ---------------------------------------------------------------
  

 Cite this work as:
 Gaussian 16, Revision C.01,
 M. J. Frisch, G. W. Trucks, H. B. Schlegel, G. E. Scuseria, 
 M. A. Robb, J. R. Cheeseman, G. Scalmani, V. Barone, 
 G. A. Petersson, H. Nakatsuji, X. Li, M. Caricato, A. V. Marenich, 
 J. Bloino, B. G. Janesko, R. Gomperts, B. Mennucci, H. P. Hratchian, 
 J. V. Ortiz, A. F. Izmaylov, J. L. Sonnenberg, D. Williams-Young, 
 F. Ding, F. Lipparini, F. Egidi, J. Goings, B. Peng, A. Petrone, 
 T. Henderson, D. Ranasinghe, V. G. Zakrzewski, J. Gao, N. Rega, 
 G. Zheng, W. Liang, M. Hada, M. Ehara, K. Toyota, R. Fukuda, 
 J. Hasegawa, M. Ishida, T. Nakajima, Y. Honda, O. Kitao, H. Nakai, 
 T. Vreven, K. Throssell, J. A. Montgomery, Jr., J. E. Peralta, 
 F. Ogliaro, M. J. Bearpark, J. J. Heyd, E. N. Brothers, K. N. Kudin, 
 V. N. Staroverov, T. A. Keith, R. Kobayashi, J. Normand, 
 K. Raghavachari, A. P. Rendell, J. C. Burant, S. S. Iyengar, 
 J. Tomasi, M. Cossi, J. M. Millam, M. Klene, C. Adamo, R. Cammi, 
 J. W. Ochterski, R. L. Martin, K. Morokuma, O. Farkas, 
 J. B. Foresman, and D. J. Fox, Gaussian, Inc., Wallingford CT, 2019.
 
 ******************************************
 Gaussian 16:  EM64L-G16RevC.01  3-Jul-2019
                 5-Sep-2022 
 ******************************************
 %nproc=16
 Will use up to   16 processors via shared memory.
 %mem=16GB
 ----------------------------------------------------------------------
 # qcisd/aug-cc-pvtz nosymm density=current pop=(chelpg,hirshfeld,npa,d
 ipole)
 ----------------------------------------------------------------------
 1/30=1,38=1,172=1/1;
 2/12=2,15=1,17=6,18=5,40=1/2;
 3/5=16,6=1,7=10,11=9,25=1,30=1,71=1/1,2,3;
 4//1;
 5/5=2,38=5/2;
 8/6=4,9=120000,10=1/1,4;
 9/5=8,15=1/13;
 11/28=-7,31=1,32=3,42=3/11;
 10/5=6,13=10,31=1/2;
 6/7=2,8=2,9=2,10=2,15=24,20=3,22=-1,40=-1,79=1/1,2,7;
 99/5=1,9=1/99;
 ------------------
 br2cs-wavefunction
 ------------------
 Symbolic Z-matrix:
 Charge =  0 Multiplicity = 1
 C                     0.        0.       -0.51945 
 S                     0.01      0.        1.08369 
 Br                    0.       -1.56852  -1.57857 
 Br                    0.        1.56852  -1.57857 
 
                          Input orientation:                          
 ---------------------------------------------------------------------
 Center     Atomic      Atomic             Coordinates (Angstroms)
 Number     Number       Type             X           Y           Z
 ---------------------------------------------------------------------
      1          6           0        0.000000    0.000000   -0.519451
      2         16           0        0.010000    0.000000    1.083692
      3         35           0        0.000000   -1.568516   -1.578570
      4         35           0        0.000000    1.568516   -1.578570
 ---------------------------------------------------------------------
                    Distance matrix (angstroms):
                    1          2          3          4
     1  C    0.000000
     2  S    1.603174   0.000000
     3  Br   1.892611   3.089981   0.000000
     4  Br   1.892611   3.089981   3.137032   0.000000
 Symmetry turned off by external request.
 Stoichiometry    CBr2S
 Framework group  CS[SG(CS),X(Br2)]
 Deg. of freedom     4
 Full point group                 CS      NOp   2
 Rotational constants (GHZ):           2.6233313           1.3014611           0.8698971
 Standard basis: Aug-CC-pVTZ (5D, 7F)
   214 basis functions,   620 primitive gaussians,   252 cartesian basis functions
    46 alpha electrons       46 beta electrons
       nuclear repulsion energy       547.5688570539 Hartrees.
 NAtoms=    4 NActive=    4 NUniq=    4 SFac= 1.00D+00 NAtFMM=   60 NAOKFM=F Big=F
 Integral buffers will be    131072 words long.
 Raffenetti 1 integral format.
 Two-electron integral symmetry is turned off.
 One-electron integrals computed using PRISM.
 NBasis=   214 RedAO= T EigKep=  7.89D-05  NBF=   214
 NBsUse=   214 1.00D-06 EigRej= -1.00D+00 NBFU=   214
 ExpMin= 3.51D-02 ExpMax= 1.06D+07 ExpMxC= 1.21D+04 IAcc=3 IRadAn=         5 AccDes= 0.00D+00
 Harris functional with IExCor=  205 and IRadAn=       5 diagonalized for initial guess.
 HarFok:  IExCor=  205 AccDes= 0.00D+00 IRadAn=         5 IDoV= 1 UseB2=F ITyADJ=14
 ICtDFT=  3500011 ScaDFX=  1.000000  1.000000  1.000000  1.000000
 FoFCou: FMM=F IPFlag=           0 FMFlag=      100000 FMFlg1=           0
         NFxFlg=           0 DoJE=T BraDBF=F KetDBF=T FulRan=T
         wScrn=  0.000000 ICntrl=       500 IOpCl=  0 I1Cent=   200000004 NGrid=           0
         NMat0=    1 NMatS0=      1 NMatT0=    0 NMatD0=    1 NMtDS0=    0 NMtDT0=    0
 Symmetry not used in FoFCou.
 Keep R1 ints in memory in canonical form, NReq=277853477.
 Requested convergence on RMS density matrix=1.00D-08 within 128 cycles.
 Requested convergence on MAX density matrix=1.00D-06.
 Requested convergence on             energy=1.00D-06.
 No special actions if energy rises.
 SCF Done:  E(RHF) =  -5580.30867730     A.U. after   14 cycles
            NFock= 14  Conv=0.30D-08     -V/T= 2.0000
 ExpMin= 3.51D-02 ExpMax= 1.06D+07 ExpMxC= 1.21D+04 IAcc=3 IRadAn=         5 AccDes= 0.00D+00
 HarFok:  IExCor=  205 AccDes= 0.00D+00 IRadAn=         5 IDoV=-2 UseB2=F ITyADJ=14
 ICtDFT= 12500011 ScaDFX=  1.000000  1.000000  1.000000  1.000000
 GSVD:  LWork=        -768 too small for GESVD, short by        3240 words or        3240 for optimal perf.
 Range of M.O.s used for correlation:    25   214
 NBasis=   214 NAE=    46 NBE=    46 NFC=    24 NFV=     0
 NROrb=    190 NOA=    22 NOB=    22 NVA=   168 NVB=   168

 **** Warning!!: The largest alpha MO coefficient is  0.30764135D+02

 Semi-Direct transformation.
 ModeAB=           2 MOrb=            22 LenV=    2146186115
 LASXX=     69628944 LTotXX=    69628944 LenRXX=    69628944
 LTotAB=    70719517 MaxLAS=   133250040 LenRXY=   133250040
 NonZer=   139257888 LenScr=   209707008 LnRSAI=           0
 LnScr1=           0 LExtra=           0 Total=    412585992
 MaxDsk=          -1 SrtSym=           F ITran=            4
 JobTyp=0 Pass  1:  I=   1 to  22.
 (rs|ai) integrals will be sorted in core.
 Spin components of T(2) and E(2):
     alpha-alpha T2 =       0.4287488839D-01 E2=     -0.1154001997D+00
     alpha-beta  T2 =       0.2166602009D+00 E2=     -0.5793051871D+00
     beta-beta   T2 =       0.4287488839D-01 E2=     -0.1154001997D+00
 ANorm=    0.1141231781D+01
 E2 =    -0.8101055866D+00 EUMP2 =    -0.55811187828835D+04
 Keep R2 and R3 ints in memory in canonical form, NReq=542493906.
 CIDS: In Core Option IDoMem=           1.
 Iterations=  50 Convergence= 0.100D-07
 Produce multiple copies of IABC intergrals
 Iteration Nr.   1
 **********************
 DD1Dir will call FoFMem   1 times, MxPair=       506
 NAB=   253 NAA=     0 NBB=     0.
 MP4(R+Q)=  0.23474787D-01
 E3=       -0.12177647D-01        EUMP3=      -0.55811309605D+04
 E4(DQ)=   -0.51040432D-03        UMP4(DQ)=   -0.55811314709D+04
 E4(SDQ)=  -0.10185966D-01        UMP4(SDQ)=  -0.55811411465D+04
 DE(Corr)= -0.79880845     E(Corr)=     -5581.1074857    
 NORM(A)=   0.11410207D+01
 Iteration Nr.   2
 **********************
 DD1Dir will call FoFMem   1 times, MxPair=       506
 NAB=   253 NAA=     0 NBB=     0.
 DE(Corr)= -0.82757810     E(CORR)=     -5581.1362554     Delta=-2.88D-02
 NORM(A)=   0.11532089D+01
 Iteration Nr.   3
 **********************
 DD1Dir will call FoFMem   1 times, MxPair=       506
 NAB=   253 NAA=     0 NBB=     0.
 DE(Corr)= -0.82617021     E(CORR)=     -5581.1348475     Delta= 1.41D-03
 NORM(A)=   0.11560454D+01
 Iteration Nr.   4
 **********************
 DD1Dir will call FoFMem   1 times, MxPair=       506
 NAB=   253 NAA=     0 NBB=     0.
 DE(Corr)= -0.82852145     E(CORR)=     -5581.1371987     Delta=-2.35D-03
 NORM(A)=   0.11573524D+01
 Iteration Nr.   5
 **********************
 DD1Dir will call FoFMem   1 times, MxPair=       506
 NAB=   253 NAA=     0 NBB=     0.
 DE(Corr)= -0.82883063     E(CORR)=     -5581.1375079     Delta=-3.09D-04
 NORM(A)=   0.11579895D+01
 Iteration Nr.   6
 **********************
 DD1Dir will call FoFMem   1 times, MxPair=       506
 NAB=   253 NAA=     0 NBB=     0.
 DE(Corr)= -0.82889536     E(CORR)=     -5581.1375727     Delta=-6.47D-05
 NORM(A)=   0.11580695D+01
 Iteration Nr.   7
 **********************
 DD1Dir will call FoFMem   1 times, MxPair=       506
 NAB=   253 NAA=     0 NBB=     0.
 DE(Corr)= -0.82890718     E(CORR)=     -5581.1375845     Delta=-1.18D-05
 NORM(A)=   0.11580863D+01
 Iteration Nr.   8
 **********************
 DD1Dir will call FoFMem   1 times, MxPair=       506
 NAB=   253 NAA=     0 NBB=     0.
 DE(Corr)= -0.82890330     E(CORR)=     -5581.1375806     Delta= 3.88D-06
 NORM(A)=   0.11580947D+01
 Iteration Nr.   9
 **********************
 DD1Dir will call FoFMem   1 times, MxPair=       506
 NAB=   253 NAA=     0 NBB=     0.
 DE(Corr)= -0.82890499     E(CORR)=     -5581.1375823     Delta=-1.69D-06
 NORM(A)=   0.11580953D+01
 Iteration Nr.  10
 **********************
 DD1Dir will call FoFMem   1 times, MxPair=       506
 NAB=   253 NAA=     0 NBB=     0.
 DE(Corr)= -0.82890511     E(CORR)=     -5581.1375824     Delta=-1.17D-07
 NORM(A)=   0.11580990D+01
 Iteration Nr.  11
 **********************
 DD1Dir will call FoFMem   1 times, MxPair=       506
 NAB=   253 NAA=     0 NBB=     0.
 DE(Corr)= -0.82890669     E(CORR)=     -5581.1375840     Delta=-1.58D-06
 NORM(A)=   0.11581010D+01
 Iteration Nr.  12
 **********************
 DD1Dir will call FoFMem   1 times, MxPair=       506
 NAB=   253 NAA=     0 NBB=     0.
 DE(Corr)= -0.82890677     E(CORR)=     -5581.1375841     Delta=-7.85D-08
 NORM(A)=   0.11581026D+01
 Iteration Nr.  13
 **********************
 DD1Dir will call FoFMem   1 times, MxPair=       506
 NAB=   253 NAA=     0 NBB=     0.
 DE(Corr)= -0.82890740     E(CORR)=     -5581.1375847     Delta=-6.35D-07
 NORM(A)=   0.11581036D+01
 Iteration Nr.  14
 **********************
 DD1Dir will call FoFMem   1 times, MxPair=       506
 NAB=   253 NAA=     0 NBB=     0.
 DE(Corr)= -0.82890741     E(CORR)=     -5581.1375847     Delta=-1.20D-08
 NORM(A)=   0.11581040D+01
 Iteration Nr.  15
 **********************
 DD1Dir will call FoFMem   1 times, MxPair=       506
 NAB=   253 NAA=     0 NBB=     0.
 DE(Corr)= -0.82890753     E(CORR)=     -5581.1375848     Delta=-1.15D-07
 NORM(A)=   0.11581042D+01
 Iteration Nr.  16
 **********************
 DD1Dir will call FoFMem   1 times, MxPair=       506
 NAB=   253 NAA=     0 NBB=     0.
 DE(Corr)= -0.82890756     E(CORR)=     -5581.1375849     Delta=-2.83D-08
 NORM(A)=   0.11581043D+01
 Iteration Nr.  17
 **********************
 DD1Dir will call FoFMem   1 times, MxPair=       506
 NAB=   253 NAA=     0 NBB=     0.
 DE(Corr)= -0.82890754     E(CORR)=     -5581.1375848     Delta= 1.33D-08
 NORM(A)=   0.11581043D+01
 Iteration Nr.  18
 **********************
 DD1Dir will call FoFMem   1 times, MxPair=       506
 NAB=   253 NAA=     0 NBB=     0.
 DE(Corr)= -0.82890756     E(CORR)=     -5581.1375849     Delta=-1.45D-08
 NORM(A)=   0.11581043D+01
 Iteration Nr.  19
 **********************
 DD1Dir will call FoFMem   1 times, MxPair=       506
 NAB=   253 NAA=     0 NBB=     0.
 DE(Corr)= -0.82890756     E(CORR)=     -5581.1375849     Delta=-1.99D-09
 NORM(A)=   0.11581043D+01
 Wavefunction amplitudes converged. E(Corr)=     -5581.1375849    
 Largest amplitude= 7.67D-02

 Z-amplitude iterations

 Iteration Nr.   1
 **********************
 DD1Dir will call FoFMem   1 times, MxPair=       506
 NAB=   253 NAA=     0 NBB=     0.
 DE(Z)= -0.79824750     E(Z)=     -5581.1069248     Delta= 3.07D-02
 NORM(A)=   0.11579667D+01
 Iteration Nr.   2
 **********************
 DD1Dir will call FoFMem   1 times, MxPair=       506
 NAB=   253 NAA=     0 NBB=     0.
 DE(Z)= -0.79824650     E(Z)=     -5581.1069238     Delta= 1.01D-06
 NORM(A)=   0.11579787D+01
 Iteration Nr.   3
 **********************
 DD1Dir will call FoFMem   1 times, MxPair=       506
 NAB=   253 NAA=     0 NBB=     0.
 DE(Z)= -0.79824671     E(Z)=     -5581.1069240     Delta=-2.11D-07
 NORM(A)=   0.11578406D+01
 Iteration Nr.   4
 **********************
 DD1Dir will call FoFMem   1 times, MxPair=       506
 NAB=   253 NAA=     0 NBB=     0.
 DE(Z)= -0.79824556     E(Z)=     -5581.1069229     Delta= 1.15D-06
 NORM(A)=   0.11576863D+01
 Iteration Nr.   5
 **********************
 DD1Dir will call FoFMem   1 times, MxPair=       506
 NAB=   253 NAA=     0 NBB=     0.
 DE(Z)= -0.79824366     E(Z)=     -5581.1069210     Delta= 1.90D-06
 NORM(A)=   0.11448433D+01
 Iteration Nr.   6
 **********************
 DD1Dir will call FoFMem   1 times, MxPair=       506
 NAB=   253 NAA=     0 NBB=     0.
 DE(Z)= -0.79813040     E(Z)=     -5581.1068077     Delta= 1.13D-04
 NORM(A)=   0.11448433D+01
 Iteration Nr.   7
 **********************
 DD1Dir will call FoFMem   1 times, MxPair=       506
 NAB=   253 NAA=     0 NBB=     0.
 DE(Z)= -0.79812791     E(Z)=     -5581.1068052     Delta= 2.48D-06
 NORM(A)=   0.11448425D+01
 Iteration Nr.   8
 **********************
 DD1Dir will call FoFMem   1 times, MxPair=       506
 NAB=   253 NAA=     0 NBB=     0.
 DE(Z)= -0.79812861     E(Z)=     -5581.1068059     Delta=-6.96D-07
 NORM(A)=   0.11448423D+01
 Iteration Nr.   9
 **********************
 DD1Dir will call FoFMem   1 times, MxPair=       506
 NAB=   253 NAA=     0 NBB=     0.
 DE(Z)= -0.79812778     E(Z)=     -5581.1068051     Delta= 8.33D-07
 NORM(A)=   0.11448424D+01
 Iteration Nr.  10
 **********************
 DD1Dir will call FoFMem   1 times, MxPair=       506
 NAB=   253 NAA=     0 NBB=     0.
 DE(Z)= -0.79812770     E(Z)=     -5581.1068050     Delta= 7.72D-08
 NORM(A)=   0.11448427D+01
 Iteration Nr.  11
 **********************
 DD1Dir will call FoFMem   1 times, MxPair=       506
 NAB=   253 NAA=     0 NBB=     0.
 DE(Z)= -0.79812778     E(Z)=     -5581.1068051     Delta=-8.09D-08
 NORM(A)=   0.11448430D+01
 Iteration Nr.  12
 **********************
 DD1Dir will call FoFMem   1 times, MxPair=       506
 NAB=   253 NAA=     0 NBB=     0.
 DE(Z)= -0.79812776     E(Z)=     -5581.1068051     Delta= 2.18D-08
 NORM(A)=   0.11448431D+01
 Iteration Nr.  13
 **********************
 DD1Dir will call FoFMem   1 times, MxPair=       506
 NAB=   253 NAA=     0 NBB=     0.
 DE(Z)= -0.79812779     E(Z)=     -5581.1068051     Delta=-2.91D-08
 NORM(A)=   0.11448431D+01
 Iteration Nr.  14
 **********************
 DD1Dir will call FoFMem   1 times, MxPair=       506
 NAB=   253 NAA=     0 NBB=     0.
 DE(Z)= -0.79812780     E(Z)=     -5581.1068051     Delta=-1.01D-08
 NORM(A)=   0.11448431D+01
 Iteration Nr.  15
 **********************
 DD1Dir will call FoFMem   1 times, MxPair=       506
 NAB=   253 NAA=     0 NBB=     0.
 DE(Z)= -0.79812779     E(Z)=     -5581.1068051     Delta= 5.23D-09
 NORM(A)=   0.11448431D+01
 Z-amplitudes converged.
 Discarding MO integrals.
          Differentiating once with respect to electric field.
                with respect to dipole field.
          Electric field/nuclear overlap derivatives assumed to be zero.
 Keep R1 ints in memory in canonical form, NReq=277859851.
          There are     1 degrees of freedom in the 1st order CPHF.  IDoFFX=0 NUNeed=     1.
 LinEq1:  Iter=  0 NonCon=     1 RMS=1.78D-03 Max=6.60D-02 NDo=     1
 AX will form     1 AO Fock derivatives at one time.
 LinEq1:  Iter=  1 NonCon=     1 RMS=8.41D-04 Max=1.81D-02 NDo=     1
 LinEq1:  Iter=  2 NonCon=     1 RMS=3.81D-04 Max=1.47D-02 NDo=     1
 LinEq1:  Iter=  3 NonCon=     1 RMS=1.25D-04 Max=4.33D-03 NDo=     1
 LinEq1:  Iter=  4 NonCon=     1 RMS=4.84D-05 Max=9.29D-04 NDo=     1
 LinEq1:  Iter=  5 NonCon=     1 RMS=9.57D-06 Max=1.72D-04 NDo=     1
 LinEq1:  Iter=  6 NonCon=     1 RMS=3.25D-06 Max=7.86D-05 NDo=     1
 LinEq1:  Iter=  7 NonCon=     1 RMS=7.08D-07 Max=2.20D-05 NDo=     1
 LinEq1:  Iter=  8 NonCon=     1 RMS=1.38D-07 Max=4.12D-06 NDo=     1
 LinEq1:  Iter=  9 NonCon=     1 RMS=3.37D-08 Max=1.03D-06 NDo=     1
 LinEq1:  Iter= 10 NonCon=     1 RMS=9.43D-09 Max=2.07D-07 NDo=     1
 LinEq1:  Iter= 11 NonCon=     1 RMS=1.96D-09 Max=4.93D-08 NDo=     1
 LinEq1:  Iter= 12 NonCon=     1 RMS=3.63D-10 Max=8.78D-09 NDo=     1
 LinEq1:  Iter= 13 NonCon=     1 RMS=7.51D-11 Max=1.15D-09 NDo=     1
 LinEq1:  Iter= 14 NonCon=     0 RMS=2.19D-11 Max=4.23D-10 NDo=     1
 Linear equations converged to 1.000D-10 1.000D-09 after    14 iterations.
 End of Minotr F.D. properties file   721 does not exist.
 End of Minotr F.D. properties file   722 does not exist.
 End of Minotr F.D. properties file   788 does not exist.

 **********************************************************************

            Population analysis using the CC Density.

 **********************************************************************

 Alpha  occ. eigenvalues -- -490.06361-490.06361 -91.98023 -65.20341 -65.20341
 Alpha  occ. eigenvalues --  -58.55875 -58.55875 -58.55724 -58.55724 -58.55705
 Alpha  occ. eigenvalues --  -58.55705 -11.43411  -9.87646  -9.87646  -8.98292
 Alpha  occ. eigenvalues --   -7.48840  -7.48839  -7.48112  -7.48111  -7.48033
 Alpha  occ. eigenvalues --   -7.48032  -6.66359  -6.66275  -6.66119  -3.23247
 Alpha  occ. eigenvalues --   -3.23246  -3.22887  -3.22886  -3.22779  -3.22779
 Alpha  occ. eigenvalues --   -3.21853  -3.21852  -3.21850  -3.21850  -1.16791
 Alpha  occ. eigenvalues --   -1.04150  -1.01489  -0.74033  -0.59711  -0.58346
 Alpha  occ. eigenvalues --   -0.54051  -0.46258  -0.44556  -0.42867  -0.39719
 Alpha  occ. eigenvalues --   -0.37182
 Alpha virt. eigenvalues --    0.01302   0.04662   0.05711   0.06063   0.08380
 Alpha virt. eigenvalues --    0.08954   0.09153   0.10092   0.11087   0.11455
 Alpha virt. eigenvalues --    0.12004   0.13414   0.14426   0.15451   0.15755
 Alpha virt. eigenvalues --    0.16993   0.18584   0.22150   0.23658   0.23995
 Alpha virt. eigenvalues --    0.24131   0.27594   0.29912   0.30870   0.33010
 Alpha virt. eigenvalues --    0.33984   0.34208   0.35552   0.35923   0.36811
 Alpha virt. eigenvalues --    0.37299   0.39635   0.40103   0.42869   0.43647
 Alpha virt. eigenvalues --    0.46294   0.48006   0.48125   0.48401   0.48719
 Alpha virt. eigenvalues --    0.48865   0.51277   0.57629   0.58766   0.59008
 Alpha virt. eigenvalues --    0.60619   0.65446   0.66494   0.68514   0.70397
 Alpha virt. eigenvalues --    0.71713   0.74663   0.75276   0.76073   0.76435
 Alpha virt. eigenvalues --    0.77051   0.78332   0.78555   0.78674   0.80019
 Alpha virt. eigenvalues --    0.81370   0.81383   0.84997   0.85975   0.88385
 Alpha virt. eigenvalues --    0.89078   0.89942   0.91615   0.93616   0.94866
 Alpha virt. eigenvalues --    0.95659   1.01175   1.01772   1.03322   1.03702
 Alpha virt. eigenvalues --    1.04534   1.04617   1.14649   1.15165   1.15944
 Alpha virt. eigenvalues --    1.17473   1.19017   1.19720   1.22388   1.26097
 Alpha virt. eigenvalues --    1.27755   1.32580   1.35128   1.38702   1.45439
 Alpha virt. eigenvalues --    1.46808   1.49471   1.51863   1.52408   1.53214
 Alpha virt. eigenvalues --    1.53838   1.54604   1.63535   1.71965   1.72287
 Alpha virt. eigenvalues --    1.74100   1.74375   1.91994   1.97965   2.07383
 Alpha virt. eigenvalues --    2.09699   2.13932   2.16444   2.17752   2.19236
 Alpha virt. eigenvalues --    2.21333   2.24506   2.27542   2.27548   2.28321
 Alpha virt. eigenvalues --    2.28576   2.29153   2.30005   2.32334   2.32562
 Alpha virt. eigenvalues --    2.32669   2.33762   2.34118   2.35498   2.36296
 Alpha virt. eigenvalues --    2.36692   2.37084   2.38017   2.39426   2.40894
 Alpha virt. eigenvalues --    2.41241   2.42634   2.43321   2.46320   2.46682
 Alpha virt. eigenvalues --    2.53171   2.53771   2.54968   2.57001   2.60180
 Alpha virt. eigenvalues --    2.62122   2.68699   2.70396   2.71729   2.89627
 Alpha virt. eigenvalues --    2.91445   2.93391   3.07460   3.30472   3.38504
 Alpha virt. eigenvalues --    3.58963   3.64615   3.65346   3.67029   3.76008
 Alpha virt. eigenvalues --    3.77305   3.83957   3.87191   3.90073   4.05598
 Alpha virt. eigenvalues --    4.06103   4.14013   4.15960   4.18911   5.06686
 Alpha virt. eigenvalues --    5.10148   6.43962   9.47695
          Condensed to atoms (all electrons):
               1          2          3          4
     1  C    6.376596  -0.031079  -0.092593  -0.092593
     2  S   -0.031079  16.451960  -0.188172  -0.188172
     3  Br  -0.092593  -0.188172  35.314774  -0.136442
     4  Br  -0.092593  -0.188172  -0.136442  35.314774
 Mulliken charges:
               1
     1  C   -0.160331
     2  S   -0.044536
     3  Br   0.102434
     4  Br   0.102434
 Sum of Mulliken charges =  -0.00000
 Mulliken charges with hydrogens summed into heavy atoms:
               1
     1  C   -0.160331
     2  S   -0.044536
     3  Br   0.102434
     4  Br   0.102434
 Electronic spatial extent (au):  <R**2>=           1431.6440
 Charge=             -0.0000 electrons
 Dipole moment (field-independent basis, Debye):
    X=              0.0014    Y=              0.0000    Z=             -0.4735  Tot=              0.4735
 Quadrupole moment (field-independent basis, Debye-Ang):
   XX=            -54.9569   YY=            -53.8190   ZZ=            -53.7720
   XY=              0.0000   XZ=             -0.0008   YZ=              0.0000
 Traceless Quadrupole moment (field-independent basis, Debye-Ang):
   XX=             -0.7743   YY=              0.3636   ZZ=              0.4106
   XY=              0.0000   XZ=             -0.0008   YZ=              0.0000
 Octapole moment (field-independent basis, Debye-Ang**2):
  XXX=             -0.3629  YYY=              0.0000  ZZZ=            141.2586  XYY=             -0.1270
  XXY=              0.0000  XXZ=             47.7784  XZZ=             -0.0893  YZZ=             -0.0000
  YYZ=             35.3443  XYZ=             -0.0000
 Hexadecapole moment (field-independent basis, Debye-Ang**3):
 XXXX=            -67.2576 YYYY=           -572.3421 ZZZZ=           -700.4540 XXXY=              0.0000
 XXXZ=             -0.4018 YYYX=              0.0000 YYYZ=              0.0000 ZZZX=             -0.4112
 ZZZY=              0.0000 XXYY=           -113.5378 XXZZ=           -130.5011 YYZZ=           -194.9028
 XXYZ=              0.0000 YYXZ=             -0.1849 ZZXY=              0.0000
 N-N= 5.475688570539D+02 E-N=-1.443633202706D+04  KE= 5.579845867612D+03
 There are a total of      107126 grid points.
 ElSum from          density=       92.0000014607
 ElSum from atomic densities=       92.0000005929

 Hirshfeld populations at iteration   1 (CX, CA, CB, DipXYZ):
               1          2          3          4          5          6
     1  C    0.000001   2.982885   2.982885  -0.001389   0.000000  -0.108788
     2  S    0.000013   8.027828   8.027828   0.001840   0.000000   0.161748
     3  Br   0.000023  17.494644  17.494644   0.000585  -0.064384  -0.013870
     4  Br   0.000023  17.494644  17.494644   0.000585   0.064384  -0.013870
       Tot   0.000061  46.000001  46.000001   0.001621   0.000000   0.025221

 Dip from Atomic Chgs             -0.001052   0.000000  -0.211485
         Total Dipole              0.000569   0.000000  -0.186265

 Hirshfeld charges, spin densities, dipoles, and CM5 charges using IRadAn=      5:
              Q-H        S-H        Dx         Dy         Dz        Q-CM5   
     1  C    0.034229   0.000000  -0.001389   0.000000  -0.108788   0.024656
     2  S   -0.055655   0.000000   0.001840   0.000000   0.161748  -0.080261
     3  Br   0.010712   0.000000   0.000585  -0.064384  -0.013870   0.027802
     4  Br   0.010712   0.000000   0.000585   0.064384  -0.013870   0.027802
       Tot  -0.000001   0.000000   0.001621   0.000000   0.025221  -0.000001
 Hirshfeld charges with hydrogens summed into heavy atoms:
              Q-H       Q-CM5   
     1  C    0.034229   0.024656
     2  S   -0.055655  -0.080261
     3  Br   0.010712   0.027802
     4  Br   0.010712   0.027802
 
 EQQ= 0.000000000000E+00 EQD= 0.000000000000E+00 EDD=-0.608485370899E-03
 EQQ+QD+DD=-0.608485370899E-03
 
 Breneman (CHELPG) radii used.
 GetVDW:  no radius for atom   3 atomic number  35.
 Error termination via Lnk1e in /home/wagner/chemistry/gaussian/g16/l602.exe at Mon Sep  5 22:26:19 2022.
 Job cpu time:       0 days 15 hours  8 minutes 27.0 seconds.
 Elapsed time:       0 days  0 hours 57 minutes 29.6 seconds.
 File lengths (MBytes):  RWF=  31411 Int=      0 D2E=      0 Chk=      2 Scr=      1
