 Entering Gaussian System, Link 0=/home/wagner/chemistry/gaussian/g16/g16
 Input=GAUSSIAN.com
 Output=GAUSSIAN.log
 Initial command:
 /home/wagner/chemistry/gaussian/g16/l1.exe "/home/wagner/chemistry/gaussian/work/Gau-9068.inp" -scrdir="/home/wagner/chemistry/gaussian/work/"
 Entering Link 1 = /home/wagner/chemistry/gaussian/g16/l1.exe PID=      9070.
  
 Copyright (c) 1988-2019, Gaussian, Inc.  All Rights Reserved.
  
 This is part of the Gaussian(R) 16 program.  It is based on
 the Gaussian(R) 09 system (copyright 2009, Gaussian, Inc.),
 the Gaussian(R) 03 system (copyright 2003, Gaussian, Inc.),
 the Gaussian(R) 98 system (copyright 1998, Gaussian, Inc.),
 the Gaussian(R) 94 system (copyright 1995, Gaussian, Inc.),
 the Gaussian 92(TM) system (copyright 1992, Gaussian, Inc.),
 the Gaussian 90(TM) system (copyright 1990, Gaussian, Inc.),
 the Gaussian 88(TM) system (copyright 1988, Gaussian, Inc.),
 the Gaussian 86(TM) system (copyright 1986, Carnegie Mellon
 University), and the Gaussian 82(TM) system (copyright 1983,
 Carnegie Mellon University). Gaussian is a federally registered
 trademark of Gaussian, Inc.
  
 This software contains proprietary and confidential information,
 including trade secrets, belonging to Gaussian, Inc.
  
 This software is provided under written license and may be
 used, copied, transmitted, or stored only in accord with that
 written license.
  
 The following legend is applicable only to US Government
 contracts under FAR:
  
                    RESTRICTED RIGHTS LEGEND
  
 Use, reproduction and disclosure by the US Government is
 subject to restrictions as set forth in subparagraphs (a)
 and (c) of the Commercial Computer Software - Restricted
 Rights clause in FAR 52.227-19.
  
 Gaussian, Inc.
 340 Quinnipiac St., Bldg. 40, Wallingford CT 06492
  
  
 ---------------------------------------------------------------
 Warning -- This program may not be used in any manner that
 competes with the business of Gaussian, Inc. or will provide
 assistance to any competitor of Gaussian, Inc.  The licensee
 of this program is prohibited from giving any competitor of
 Gaussian, Inc. access to this program.  By using this program,
 the user acknowledges that Gaussian, Inc. is engaged in the
 business of creating and licensing software in the field of
 computational chemistry and represents and warrants to the
 licensee that it is not a competitor of Gaussian, Inc. and that
 it will not use this program in any manner prohibited above.
 ---------------------------------------------------------------
  

 Cite this work as:
 Gaussian 16, Revision C.01,
 M. J. Frisch, G. W. Trucks, H. B. Schlegel, G. E. Scuseria, 
 M. A. Robb, J. R. Cheeseman, G. Scalmani, V. Barone, 
 G. A. Petersson, H. Nakatsuji, X. Li, M. Caricato, A. V. Marenich, 
 J. Bloino, B. G. Janesko, R. Gomperts, B. Mennucci, H. P. Hratchian, 
 J. V. Ortiz, A. F. Izmaylov, J. L. Sonnenberg, D. Williams-Young, 
 F. Ding, F. Lipparini, F. Egidi, J. Goings, B. Peng, A. Petrone, 
 T. Henderson, D. Ranasinghe, V. G. Zakrzewski, J. Gao, N. Rega, 
 G. Zheng, W. Liang, M. Hada, M. Ehara, K. Toyota, R. Fukuda, 
 J. Hasegawa, M. Ishida, T. Nakajima, Y. Honda, O. Kitao, H. Nakai, 
 T. Vreven, K. Throssell, J. A. Montgomery, Jr., J. E. Peralta, 
 F. Ogliaro, M. J. Bearpark, J. J. Heyd, E. N. Brothers, K. N. Kudin, 
 V. N. Staroverov, T. A. Keith, R. Kobayashi, J. Normand, 
 K. Raghavachari, A. P. Rendell, J. C. Burant, S. S. Iyengar, 
 J. Tomasi, M. Cossi, J. M. Millam, M. Klene, C. Adamo, R. Cammi, 
 J. W. Ochterski, R. L. Martin, K. Morokuma, O. Farkas, 
 J. B. Foresman, and D. J. Fox, Gaussian, Inc., Wallingford CT, 2019.
 
 ******************************************
 Gaussian 16:  EM64L-G16RevC.01  3-Jul-2019
                 6-Sep-2022 
 ******************************************
 %nproc=16
 Will use up to   16 processors via shared memory.
 %mem=16GB
 ----------------------------------------------------------------------
 # qcisd/aug-cc-pvtz nosymm density=current pop=(chelpg,hirshfeld,npa,d
 ipole)
 ----------------------------------------------------------------------
 1/30=1,38=1,172=1/1;
 2/12=2,15=1,17=6,18=5,40=1/2;
 3/5=16,6=1,7=10,11=9,25=1,30=1,71=1/1,2,3;
 4//1;
 5/5=2,38=5/2;
 8/6=4,9=120000,10=1/1,4;
 9/5=8,15=1/13;
 11/28=-7,31=1,32=3,42=3/11;
 10/5=6,13=10,31=1/2;
 6/7=2,8=2,9=2,10=2,15=24,20=3,22=-1,40=-1,79=1/1,2,7;
 99/5=1,9=1/99;
 ------------------
 br2cs-wavefunction
 ------------------
 Symbolic Z-matrix:
 Charge =  0 Multiplicity = 1
 C                     0.        0.       -0.51945 
 S                     0.        0.        1.08369 
 Br                    0.       -1.57852  -1.57857 
 Br                    0.        1.56852  -1.57857 
 
                          Input orientation:                          
 ---------------------------------------------------------------------
 Center     Atomic      Atomic             Coordinates (Angstroms)
 Number     Number       Type             X           Y           Z
 ---------------------------------------------------------------------
      1          6           0        0.000000    0.000000   -0.519451
      2         16           0        0.000000    0.000000    1.083692
      3         35           0        0.000000   -1.578516   -1.578570
      4         35           0        0.000000    1.568516   -1.578570
 ---------------------------------------------------------------------
                    Distance matrix (angstroms):
                    1          2          3          4
     1  C    0.000000
     2  S    1.603143   0.000000
     3  Br   1.900907   3.095053   0.000000
     4  Br   1.892611   3.089965   3.147032   0.000000
 Symmetry turned off by external request.
 Stoichiometry    CBr2S
 Framework group  CS[SG(CBr2S)]
 Deg. of freedom     5
 Full point group                 CS      NOp   2
 Rotational constants (GHZ):           2.6233780           1.2931985           0.8662025
 Standard basis: Aug-CC-pVTZ (5D, 7F)
   214 basis functions,   620 primitive gaussians,   252 cartesian basis functions
    46 alpha electrons       46 beta electrons
       nuclear repulsion energy       546.4999449333 Hartrees.
 NAtoms=    4 NActive=    4 NUniq=    4 SFac= 1.00D+00 NAtFMM=   60 NAOKFM=F Big=F
 Integral buffers will be    131072 words long.
 Raffenetti 1 integral format.
 Two-electron integral symmetry is turned off.
 One-electron integrals computed using PRISM.
 NBasis=   214 RedAO= T EigKep=  7.92D-05  NBF=   214
 NBsUse=   214 1.00D-06 EigRej= -1.00D+00 NBFU=   214
 ExpMin= 3.51D-02 ExpMax= 1.06D+07 ExpMxC= 1.21D+04 IAcc=3 IRadAn=         5 AccDes= 0.00D+00
 Harris functional with IExCor=  205 and IRadAn=       5 diagonalized for initial guess.
 HarFok:  IExCor=  205 AccDes= 0.00D+00 IRadAn=         5 IDoV= 1 UseB2=F ITyADJ=14
 ICtDFT=  3500011 ScaDFX=  1.000000  1.000000  1.000000  1.000000
 FoFCou: FMM=F IPFlag=           0 FMFlag=      100000 FMFlg1=           0
         NFxFlg=           0 DoJE=T BraDBF=F KetDBF=T FulRan=T
         wScrn=  0.000000 ICntrl=       500 IOpCl=  0 I1Cent=   200000004 NGrid=           0
         NMat0=    1 NMatS0=      1 NMatT0=    0 NMatD0=    1 NMtDS0=    0 NMtDT0=    0
 Symmetry not used in FoFCou.
 Keep R1 ints in memory in canonical form, NReq=277853361.
 Requested convergence on RMS density matrix=1.00D-08 within 128 cycles.
 Requested convergence on MAX density matrix=1.00D-06.
 Requested convergence on             energy=1.00D-06.
 No special actions if energy rises.
 SCF Done:  E(RHF) =  -5580.30862617     A.U. after   14 cycles
            NFock= 14  Conv=0.29D-08     -V/T= 2.0000
 ExpMin= 3.51D-02 ExpMax= 1.06D+07 ExpMxC= 1.21D+04 IAcc=3 IRadAn=         5 AccDes= 0.00D+00
 HarFok:  IExCor=  205 AccDes= 0.00D+00 IRadAn=         5 IDoV=-2 UseB2=F ITyADJ=14
 ICtDFT= 12500011 ScaDFX=  1.000000  1.000000  1.000000  1.000000
 GSVD:  LWork=        -768 too small for GESVD, short by        3240 words or        3240 for optimal perf.
 Range of M.O.s used for correlation:    25   214
 NBasis=   214 NAE=    46 NBE=    46 NFC=    24 NFV=     0
 NROrb=    190 NOA=    22 NOB=    22 NVA=   168 NVB=   168

 **** Warning!!: The largest alpha MO coefficient is  0.30713565D+02

 Semi-Direct transformation.
 ModeAB=           2 MOrb=            22 LenV=    2146186143
 LASXX=     69628944 LTotXX=    69628944 LenRXX=    69628944
 LTotAB=    70719517 MaxLAS=   133250040 LenRXY=   133250040
 NonZer=   139257888 LenScr=   209707008 LnRSAI=           0
 LnScr1=           0 LExtra=           0 Total=    412585992
 MaxDsk=          -1 SrtSym=           F ITran=            4
 JobTyp=0 Pass  1:  I=   1 to  22.
 (rs|ai) integrals will be sorted in core.
 Spin components of T(2) and E(2):
     alpha-alpha T2 =       0.4289961526D-01 E2=     -0.1153672226D+00
     alpha-beta  T2 =       0.2168878894D+00 E2=     -0.5793594084D+00
     beta-beta   T2 =       0.4289961526D-01 E2=     -0.1153672226D+00
 ANorm=    0.1141353197D+01
 E2 =    -0.8100938536D+00 EUMP2 =    -0.55811187200220D+04
 Keep R2 and R3 ints in memory in canonical form, NReq=542493790.
 CIDS: In Core Option IDoMem=           1.
 Iterations=  50 Convergence= 0.100D-07
 Produce multiple copies of IABC intergrals
 Iteration Nr.   1
 **********************
 DD1Dir will call FoFMem   1 times, MxPair=       506
 NAB=   253 NAA=     0 NBB=     0.
 MP4(R+Q)=  0.23502037D-01
 E3=       -0.12186670D-01        EUMP3=      -0.55811309067D+04
 E4(DQ)=   -0.52576468D-03        UMP4(DQ)=   -0.55811314325D+04
 E4(SDQ)=  -0.10225990D-01        UMP4(SDQ)=  -0.55811411327D+04
 DE(Corr)= -0.79877849     E(Corr)=     -5581.1074047    
 NORM(A)=   0.11411441D+01
 Iteration Nr.   2
 **********************
 DD1Dir will call FoFMem   1 times, MxPair=       506
 NAB=   253 NAA=     0 NBB=     0.
 DE(Corr)= -0.82760569     E(CORR)=     -5581.1362319     Delta=-2.88D-02
 NORM(A)=   0.11533660D+01
 Iteration Nr.   3
 **********************
 DD1Dir will call FoFMem   1 times, MxPair=       506
 NAB=   253 NAA=     0 NBB=     0.
 DE(Corr)= -0.82618418     E(CORR)=     -5581.1348103     Delta= 1.42D-03
 NORM(A)=   0.11562188D+01
 Iteration Nr.   4
 **********************
 DD1Dir will call FoFMem   1 times, MxPair=       506
 NAB=   253 NAA=     0 NBB=     0.
 DE(Corr)= -0.82854694     E(CORR)=     -5581.1371731     Delta=-2.36D-03
 NORM(A)=   0.11575343D+01
 Iteration Nr.   5
 **********************
 DD1Dir will call FoFMem   1 times, MxPair=       506
 NAB=   253 NAA=     0 NBB=     0.
 DE(Corr)= -0.82885823     E(CORR)=     -5581.1374844     Delta=-3.11D-04
 NORM(A)=   0.11581771D+01
 Iteration Nr.   6
 **********************
 DD1Dir will call FoFMem   1 times, MxPair=       506
 NAB=   253 NAA=     0 NBB=     0.
 DE(Corr)= -0.82892354     E(CORR)=     -5581.1375497     Delta=-6.53D-05
 NORM(A)=   0.11582586D+01
 Iteration Nr.   7
 **********************
 DD1Dir will call FoFMem   1 times, MxPair=       506
 NAB=   253 NAA=     0 NBB=     0.
 DE(Corr)= -0.82893555     E(CORR)=     -5581.1375617     Delta=-1.20D-05
 NORM(A)=   0.11582760D+01
 Iteration Nr.   8
 **********************
 DD1Dir will call FoFMem   1 times, MxPair=       506
 NAB=   253 NAA=     0 NBB=     0.
 DE(Corr)= -0.82893159     E(CORR)=     -5581.1375578     Delta= 3.96D-06
 NORM(A)=   0.11582846D+01
 Iteration Nr.   9
 **********************
 DD1Dir will call FoFMem   1 times, MxPair=       506
 NAB=   253 NAA=     0 NBB=     0.
 DE(Corr)= -0.82893336     E(CORR)=     -5581.1375595     Delta=-1.78D-06
 NORM(A)=   0.11582853D+01
 Iteration Nr.  10
 **********************
 DD1Dir will call FoFMem   1 times, MxPair=       506
 NAB=   253 NAA=     0 NBB=     0.
 DE(Corr)= -0.82893344     E(CORR)=     -5581.1375596     Delta=-7.98D-08
 NORM(A)=   0.11582892D+01
 Iteration Nr.  11
 **********************
 DD1Dir will call FoFMem   1 times, MxPair=       506
 NAB=   253 NAA=     0 NBB=     0.
 DE(Corr)= -0.82893508     E(CORR)=     -5581.1375613     Delta=-1.64D-06
 NORM(A)=   0.11582912D+01
 Iteration Nr.  12
 **********************
 DD1Dir will call FoFMem   1 times, MxPair=       506
 NAB=   253 NAA=     0 NBB=     0.
 DE(Corr)= -0.82893516     E(CORR)=     -5581.1375613     Delta=-7.10D-08
 NORM(A)=   0.11582928D+01
 Iteration Nr.  13
 **********************
 DD1Dir will call FoFMem   1 times, MxPair=       506
 NAB=   253 NAA=     0 NBB=     0.
 DE(Corr)= -0.82893581     E(CORR)=     -5581.1375620     Delta=-6.54D-07
 NORM(A)=   0.11582938D+01
 Iteration Nr.  14
 **********************
 DD1Dir will call FoFMem   1 times, MxPair=       506
 NAB=   253 NAA=     0 NBB=     0.
 DE(Corr)= -0.82893582     E(CORR)=     -5581.1375620     Delta=-1.23D-08
 NORM(A)=   0.11582942D+01
 Iteration Nr.  15
 **********************
 DD1Dir will call FoFMem   1 times, MxPair=       506
 NAB=   253 NAA=     0 NBB=     0.
 DE(Corr)= -0.82893594     E(CORR)=     -5581.1375621     Delta=-1.18D-07
 NORM(A)=   0.11582945D+01
 Iteration Nr.  16
 **********************
 DD1Dir will call FoFMem   1 times, MxPair=       506
 NAB=   253 NAA=     0 NBB=     0.
 DE(Corr)= -0.82893597     E(CORR)=     -5581.1375621     Delta=-3.01D-08
 NORM(A)=   0.11582945D+01
 Iteration Nr.  17
 **********************
 DD1Dir will call FoFMem   1 times, MxPair=       506
 NAB=   253 NAA=     0 NBB=     0.
 DE(Corr)= -0.82893596     E(CORR)=     -5581.1375621     Delta= 1.31D-08
 NORM(A)=   0.11582945D+01
 Iteration Nr.  18
 **********************
 DD1Dir will call FoFMem   1 times, MxPair=       506
 NAB=   253 NAA=     0 NBB=     0.
 DE(Corr)= -0.82893597     E(CORR)=     -5581.1375621     Delta=-1.77D-08
 NORM(A)=   0.11582946D+01
 Iteration Nr.  19
 **********************
 DD1Dir will call FoFMem   1 times, MxPair=       506
 NAB=   253 NAA=     0 NBB=     0.
 DE(Corr)= -0.82893597     E(CORR)=     -5581.1375621     Delta= 5.28D-09
 NORM(A)=   0.11582946D+01
 Wavefunction amplitudes converged. E(Corr)=     -5581.1375621    
 Largest amplitude= 7.66D-02

 Z-amplitude iterations

 Iteration Nr.   1
 **********************
 DD1Dir will call FoFMem   1 times, MxPair=       506
 NAB=   253 NAA=     0 NBB=     0.
 DE(Z)= -0.79822263     E(Z)=     -5581.1068488     Delta= 3.07D-02
 NORM(A)=   0.11583976D+01
 Iteration Nr.   2
 **********************
 DD1Dir will call FoFMem   1 times, MxPair=       506
 NAB=   253 NAA=     0 NBB=     0.
 DE(Z)= -0.79822336     E(Z)=     -5581.1068495     Delta=-7.35D-07
 NORM(A)=   0.11584399D+01
 Iteration Nr.   3
 **********************
 DD1Dir will call FoFMem   1 times, MxPair=       506
 NAB=   253 NAA=     0 NBB=     0.
 DE(Z)= -0.79822352     E(Z)=     -5581.1068497     Delta=-1.62D-07
 NORM(A)=   0.11585120D+01
 Iteration Nr.   4
 **********************
 DD1Dir will call FoFMem   1 times, MxPair=       506
 NAB=   253 NAA=     0 NBB=     0.
 DE(Z)= -0.79822420     E(Z)=     -5581.1068504     Delta=-6.72D-07
 NORM(A)=   0.11587507D+01
 Iteration Nr.   5
 **********************
 DD1Dir will call FoFMem   1 times, MxPair=       506
 NAB=   253 NAA=     0 NBB=     0.
 DE(Z)= -0.79822674     E(Z)=     -5581.1068529     Delta=-2.54D-06
 NORM(A)=   0.11449979D+01
 Iteration Nr.   6
 **********************
 DD1Dir will call FoFMem   1 times, MxPair=       506
 NAB=   253 NAA=     0 NBB=     0.
 DE(Z)= -0.79810726     E(Z)=     -5581.1067334     Delta= 1.19D-04
 NORM(A)=   0.11449981D+01
 Iteration Nr.   7
 **********************
 DD1Dir will call FoFMem   1 times, MxPair=       506
 NAB=   253 NAA=     0 NBB=     0.
 DE(Z)= -0.79810462     E(Z)=     -5581.1067308     Delta= 2.64D-06
 NORM(A)=   0.11449972D+01
 Iteration Nr.   8
 **********************
 DD1Dir will call FoFMem   1 times, MxPair=       506
 NAB=   253 NAA=     0 NBB=     0.
 DE(Z)= -0.79810545     E(Z)=     -5581.1067316     Delta=-8.28D-07
 NORM(A)=   0.11449971D+01
 Iteration Nr.   9
 **********************
 DD1Dir will call FoFMem   1 times, MxPair=       506
 NAB=   253 NAA=     0 NBB=     0.
 DE(Z)= -0.79810468     E(Z)=     -5581.1067309     Delta= 7.67D-07
 NORM(A)=   0.11449971D+01
 Iteration Nr.  10
 **********************
 DD1Dir will call FoFMem   1 times, MxPair=       506
 NAB=   253 NAA=     0 NBB=     0.
 DE(Z)= -0.79810459     E(Z)=     -5581.1067308     Delta= 9.41D-08
 NORM(A)=   0.11449974D+01
 Iteration Nr.  11
 **********************
 DD1Dir will call FoFMem   1 times, MxPair=       506
 NAB=   253 NAA=     0 NBB=     0.
 DE(Z)= -0.79810465     E(Z)=     -5581.1067308     Delta=-5.69D-08
 NORM(A)=   0.11449976D+01
 Iteration Nr.  12
 **********************
 DD1Dir will call FoFMem   1 times, MxPair=       506
 NAB=   253 NAA=     0 NBB=     0.
 DE(Z)= -0.79810464     E(Z)=     -5581.1067308     Delta= 1.15D-08
 NORM(A)=   0.11449978D+01
 Iteration Nr.  13
 **********************
 DD1Dir will call FoFMem   1 times, MxPair=       506
 NAB=   253 NAA=     0 NBB=     0.
 DE(Z)= -0.79810468     E(Z)=     -5581.1067309     Delta=-4.79D-08
 NORM(A)=   0.11449979D+01
 Iteration Nr.  14
 **********************
 DD1Dir will call FoFMem   1 times, MxPair=       506
 NAB=   253 NAA=     0 NBB=     0.
 DE(Z)= -0.79810467     E(Z)=     -5581.1067308     Delta= 1.02D-08
 NORM(A)=   0.11449979D+01
 Iteration Nr.  15
 **********************
 DD1Dir will call FoFMem   1 times, MxPair=       506
 NAB=   253 NAA=     0 NBB=     0.
 DE(Z)= -0.79810467     E(Z)=     -5581.1067308     Delta=-3.28D-10
 NORM(A)=   0.11449978D+01
 Z-amplitudes converged.
 Discarding MO integrals.
          Differentiating once with respect to electric field.
                with respect to dipole field.
          Electric field/nuclear overlap derivatives assumed to be zero.
 Keep R1 ints in memory in canonical form, NReq=277859619.
          There are     1 degrees of freedom in the 1st order CPHF.  IDoFFX=0 NUNeed=     1.
 LinEq1:  Iter=  0 NonCon=     1 RMS=1.78D-03 Max=6.60D-02 NDo=     1
 AX will form     1 AO Fock derivatives at one time.
 LinEq1:  Iter=  1 NonCon=     1 RMS=8.43D-04 Max=1.82D-02 NDo=     1
 LinEq1:  Iter=  2 NonCon=     1 RMS=3.83D-04 Max=1.48D-02 NDo=     1
 LinEq1:  Iter=  3 NonCon=     1 RMS=1.25D-04 Max=4.37D-03 NDo=     1
 LinEq1:  Iter=  4 NonCon=     1 RMS=4.85D-05 Max=9.12D-04 NDo=     1
 LinEq1:  Iter=  5 NonCon=     1 RMS=9.59D-06 Max=1.74D-04 NDo=     1
 LinEq1:  Iter=  6 NonCon=     1 RMS=3.24D-06 Max=7.40D-05 NDo=     1
 LinEq1:  Iter=  7 NonCon=     1 RMS=7.00D-07 Max=2.05D-05 NDo=     1
 LinEq1:  Iter=  8 NonCon=     1 RMS=1.35D-07 Max=3.90D-06 NDo=     1
 LinEq1:  Iter=  9 NonCon=     1 RMS=3.29D-08 Max=1.05D-06 NDo=     1
 LinEq1:  Iter= 10 NonCon=     1 RMS=9.31D-09 Max=2.08D-07 NDo=     1
 LinEq1:  Iter= 11 NonCon=     1 RMS=1.98D-09 Max=4.86D-08 NDo=     1
 LinEq1:  Iter= 12 NonCon=     1 RMS=3.90D-10 Max=9.01D-09 NDo=     1
 LinEq1:  Iter= 13 NonCon=     1 RMS=1.07D-10 Max=1.45D-09 NDo=     1
 LinEq1:  Iter= 14 NonCon=     0 RMS=2.91D-11 Max=5.20D-10 NDo=     1
 Linear equations converged to 1.000D-10 1.000D-09 after    14 iterations.
 End of Minotr F.D. properties file   721 does not exist.
 End of Minotr F.D. properties file   722 does not exist.
 End of Minotr F.D. properties file   788 does not exist.

 **********************************************************************

            Population analysis using the CC Density.

 **********************************************************************

 Alpha  occ. eigenvalues -- -490.06402-490.06324 -91.98062 -65.20381 -65.20299
 Alpha  occ. eigenvalues --  -58.55915 -58.55834 -58.55764 -58.55745 -58.55681
 Alpha  occ. eigenvalues --  -58.55663 -11.43464  -9.87684  -9.87596  -8.98330
 Alpha  occ. eigenvalues --   -7.48878  -7.48789  -7.48149  -7.48070  -7.48059
 Alpha  occ. eigenvalues --   -7.47982  -6.66396  -6.66312  -6.66156  -3.23286
 Alpha  occ. eigenvalues --   -3.23196  -3.22926  -3.22836  -3.22818  -3.22731
 Alpha  occ. eigenvalues --   -3.21890  -3.21887  -3.21800  -3.21798  -1.16670
 Alpha  occ. eigenvalues --   -1.04104  -1.01479  -0.74013  -0.59647  -0.58304
 Alpha  occ. eigenvalues --   -0.53974  -0.46226  -0.44556  -0.42891  -0.39749
 Alpha  occ. eigenvalues --   -0.37197
 Alpha virt. eigenvalues --    0.01296   0.04621   0.05710   0.06058   0.08349
 Alpha virt. eigenvalues --    0.08949   0.09143   0.10096   0.11089   0.11455
 Alpha virt. eigenvalues --    0.11946   0.13409   0.14401   0.15465   0.15755
 Alpha virt. eigenvalues --    0.16987   0.18552   0.22138   0.23651   0.24004
 Alpha virt. eigenvalues --    0.24116   0.27564   0.29882   0.30841   0.32992
 Alpha virt. eigenvalues --    0.33998   0.34208   0.35517   0.35915   0.36798
 Alpha virt. eigenvalues --    0.37345   0.39620   0.40098   0.42829   0.43620
 Alpha virt. eigenvalues --    0.46297   0.47969   0.48150   0.48408   0.48722
 Alpha virt. eigenvalues --    0.48922   0.51255   0.57614   0.58734   0.58970
 Alpha virt. eigenvalues --    0.60595   0.65473   0.66545   0.68500   0.70385
 Alpha virt. eigenvalues --    0.71691   0.74651   0.75276   0.76065   0.76446
 Alpha virt. eigenvalues --    0.77031   0.78324   0.78542   0.78715   0.79994
 Alpha virt. eigenvalues --    0.81338   0.81346   0.84972   0.85892   0.88285
 Alpha virt. eigenvalues --    0.89054   0.89900   0.91500   0.93635   0.94795
 Alpha virt. eigenvalues --    0.95641   1.01147   1.01671   1.03312   1.03564
 Alpha virt. eigenvalues --    1.04497   1.04586   1.14605   1.15143   1.15905
 Alpha virt. eigenvalues --    1.17436   1.18992   1.19486   1.22340   1.26019
 Alpha virt. eigenvalues --    1.27700   1.32510   1.35147   1.38555   1.45259
 Alpha virt. eigenvalues --    1.46664   1.49532   1.51907   1.52274   1.53109
 Alpha virt. eigenvalues --    1.53746   1.54546   1.63451   1.71793   1.72201
 Alpha virt. eigenvalues --    1.73995   1.74381   1.92030   1.97929   2.07348
 Alpha virt. eigenvalues --    2.09675   2.13833   2.16470   2.17743   2.19153
 Alpha virt. eigenvalues --    2.21323   2.24508   2.27537   2.27602   2.28286
 Alpha virt. eigenvalues --    2.28554   2.29168   2.29967   2.32296   2.32549
 Alpha virt. eigenvalues --    2.32630   2.33753   2.34139   2.35467   2.36178
 Alpha virt. eigenvalues --    2.36686   2.37054   2.37968   2.39431   2.40904
 Alpha virt. eigenvalues --    2.41122   2.42636   2.43243   2.46239   2.46677
 Alpha virt. eigenvalues --    2.53038   2.53697   2.54733   2.56874   2.60001
 Alpha virt. eigenvalues --    2.61908   2.68426   2.70146   2.71518   2.89524
 Alpha virt. eigenvalues --    2.91298   2.93017   3.07273   3.30411   3.38035
 Alpha virt. eigenvalues --    3.58850   3.64492   3.65121   3.66865   3.75884
 Alpha virt. eigenvalues --    3.77245   3.83825   3.87138   3.89829   4.05411
 Alpha virt. eigenvalues --    4.06140   4.13742   4.15787   4.18884   5.05443
 Alpha virt. eigenvalues --    5.09240   6.43684   9.47159
          Condensed to atoms (all electrons):
               1          2          3          4
     1  C    6.366742  -0.029260  -0.085389  -0.093559
     2  S   -0.029260  16.444213  -0.185592  -0.187295
     3  Br  -0.085389  -0.185592  35.309986  -0.134428
     4  Br  -0.093559  -0.187295  -0.134428  35.310106
 Mulliken charges:
               1
     1  C   -0.158534
     2  S   -0.042067
     3  Br   0.095424
     4  Br   0.105177
 Sum of Mulliken charges =  -0.00000
 Mulliken charges with hydrogens summed into heavy atoms:
               1
     1  C   -0.158534
     2  S   -0.042067
     3  Br   0.095424
     4  Br   0.105177
 Electronic spatial extent (au):  <R**2>=           1435.5933
 Charge=             -0.0000 electrons
 Dipole moment (field-independent basis, Debye):
    X=             -0.0000    Y=              0.0288    Z=             -0.4535  Tot=              0.4544
 Quadrupole moment (field-independent basis, Debye-Ang):
   XX=            -54.9711   YY=            -53.8129   ZZ=            -53.7930
   XY=              0.0000   XZ=              0.0000   YZ=             -0.0491
 Traceless Quadrupole moment (field-independent basis, Debye-Ang):
   XX=             -0.7787   YY=              0.3794   ZZ=              0.3993
   XY=              0.0000   XZ=              0.0000   YZ=             -0.0491
 Octapole moment (field-independent basis, Debye-Ang**2):
  XXX=             -0.0000  YYY=              0.6277  ZZZ=            141.3968  XYY=             -0.0000
  XXY=              0.2244  XXZ=             47.8146  XZZ=             -0.0000  YZZ=              0.2983
  YYZ=             35.3424  XYZ=             -0.0000
 Hexadecapole moment (field-independent basis, Debye-Ang**3):
 XXXX=            -67.2888 YYYY=           -575.4007 ZZZZ=           -700.7553 XXXY=             -0.0000
 XXXZ=              0.0000 YYYX=              0.0000 YYYZ=             -0.9282 ZZZX=              0.0000
 ZZZY=             -1.1704 XXYY=           -114.1513 XXZZ=           -130.5404 YYZZ=           -195.4672
 XXYZ=             -0.3541 YYXZ=             -0.0000 ZZXY=             -0.0000
 N-N= 5.464999449333D+02 E-N=-1.443418618564D+04  KE= 5.579831851372D+03
 There are a total of      107126 grid points.
 ElSum from          density=       92.0000018499
 ElSum from atomic densities=       92.0000009603

 Hirshfeld populations at iteration   1 (CX, CA, CB, DipXYZ):
               1          2          3          4          5          6
     1  C    0.000001   2.982572   2.982572   0.000000  -0.000109  -0.109121
     2  S    0.000013   8.027264   8.027264   0.000000  -0.000294   0.162951
     3  Br   0.000023  17.496057  17.496057  -0.000000  -0.065178  -0.013412
     4  Br   0.000023  17.494107  17.494107  -0.000000   0.065511  -0.014264
       Tot   0.000061  46.000001  46.000001  -0.000000  -0.000070   0.026154

 Dip from Atomic Chgs              0.000000   0.011410  -0.204564
         Total Dipole             -0.000000   0.011340  -0.178410

 Hirshfeld charges, spin densities, dipoles, and CM5 charges using IRadAn=      5:
              Q-H        S-H        Dx         Dy         Dz        Q-CM5   
     1  C    0.034856   0.000000   0.000000  -0.000109  -0.109121   0.025574
     2  S   -0.054529   0.000000   0.000000  -0.000294   0.162951  -0.079101
     3  Br   0.007886   0.000000  -0.000000  -0.065178  -0.013412   0.024650
     4  Br   0.011786   0.000000  -0.000000   0.065511  -0.014264   0.028875
       Tot  -0.000002   0.000000  -0.000000  -0.000070   0.026154  -0.000002
 Hirshfeld charges with hydrogens summed into heavy atoms:
              Q-H       Q-CM5   
     1  C    0.034856   0.025574
     2  S   -0.054529  -0.079101
     3  Br   0.007886   0.024650
     4  Br   0.011786   0.028875
 
 EQQ= 0.000000000000E+00 EQD= 0.000000000000E+00 EDD=-0.615915930663E-03
 EQQ+QD+DD=-0.615915930663E-03
 
 Breneman (CHELPG) radii used.
 GetVDW:  no radius for atom   3 atomic number  35.
 Error termination via Lnk1e in /home/wagner/chemistry/gaussian/g16/l602.exe at Tue Sep  6 06:50:03 2022.
 Job cpu time:       0 days 14 hours 29 minutes 35.9 seconds.
 Elapsed time:       0 days  0 hours 54 minutes 51.6 seconds.
 File lengths (MBytes):  RWF=  31411 Int=      0 D2E=      0 Chk=      2 Scr=      1
