 Entering Gaussian System, Link 0=/home/wagner/chemistry/gaussian/g16/g16
 Input=GAUSSIAN.com
 Output=GAUSSIAN.log
 Initial command:
 /home/wagner/chemistry/gaussian/g16/l1.exe "/home/wagner/chemistry/gaussian/work/Gau-6666.inp" -scrdir="/home/wagner/chemistry/gaussian/work/"
 Entering Link 1 = /home/wagner/chemistry/gaussian/g16/l1.exe PID=      6668.
  
 Copyright (c) 1988-2019, Gaussian, Inc.  All Rights Reserved.
  
 This is part of the Gaussian(R) 16 program.  It is based on
 the Gaussian(R) 09 system (copyright 2009, Gaussian, Inc.),
 the Gaussian(R) 03 system (copyright 2003, Gaussian, Inc.),
 the Gaussian(R) 98 system (copyright 1998, Gaussian, Inc.),
 the Gaussian(R) 94 system (copyright 1995, Gaussian, Inc.),
 the Gaussian 92(TM) system (copyright 1992, Gaussian, Inc.),
 the Gaussian 90(TM) system (copyright 1990, Gaussian, Inc.),
 the Gaussian 88(TM) system (copyright 1988, Gaussian, Inc.),
 the Gaussian 86(TM) system (copyright 1986, Carnegie Mellon
 University), and the Gaussian 82(TM) system (copyright 1983,
 Carnegie Mellon University). Gaussian is a federally registered
 trademark of Gaussian, Inc.
  
 This software contains proprietary and confidential information,
 including trade secrets, belonging to Gaussian, Inc.
  
 This software is provided under written license and may be
 used, copied, transmitted, or stored only in accord with that
 written license.
  
 The following legend is applicable only to US Government
 contracts under FAR:
  
                    RESTRICTED RIGHTS LEGEND
  
 Use, reproduction and disclosure by the US Government is
 subject to restrictions as set forth in subparagraphs (a)
 and (c) of the Commercial Computer Software - Restricted
 Rights clause in FAR 52.227-19.
  
 Gaussian, Inc.
 340 Quinnipiac St., Bldg. 40, Wallingford CT 06492
  
  
 ---------------------------------------------------------------
 Warning -- This program may not be used in any manner that
 competes with the business of Gaussian, Inc. or will provide
 assistance to any competitor of Gaussian, Inc.  The licensee
 of this program is prohibited from giving any competitor of
 Gaussian, Inc. access to this program.  By using this program,
 the user acknowledges that Gaussian, Inc. is engaged in the
 business of creating and licensing software in the field of
 computational chemistry and represents and warrants to the
 licensee that it is not a competitor of Gaussian, Inc. and that
 it will not use this program in any manner prohibited above.
 ---------------------------------------------------------------
  

 Cite this work as:
 Gaussian 16, Revision C.01,
 M. J. Frisch, G. W. Trucks, H. B. Schlegel, G. E. Scuseria, 
 M. A. Robb, J. R. Cheeseman, G. Scalmani, V. Barone, 
 G. A. Petersson, H. Nakatsuji, X. Li, M. Caricato, A. V. Marenich, 
 J. Bloino, B. G. Janesko, R. Gomperts, B. Mennucci, H. P. Hratchian, 
 J. V. Ortiz, A. F. Izmaylov, J. L. Sonnenberg, D. Williams-Young, 
 F. Ding, F. Lipparini, F. Egidi, J. Goings, B. Peng, A. Petrone, 
 T. Henderson, D. Ranasinghe, V. G. Zakrzewski, J. Gao, N. Rega, 
 G. Zheng, W. Liang, M. Hada, M. Ehara, K. Toyota, R. Fukuda, 
 J. Hasegawa, M. Ishida, T. Nakajima, Y. Honda, O. Kitao, H. Nakai, 
 T. Vreven, K. Throssell, J. A. Montgomery, Jr., J. E. Peralta, 
 F. Ogliaro, M. J. Bearpark, J. J. Heyd, E. N. Brothers, K. N. Kudin, 
 V. N. Staroverov, T. A. Keith, R. Kobayashi, J. Normand, 
 K. Raghavachari, A. P. Rendell, J. C. Burant, S. S. Iyengar, 
 J. Tomasi, M. Cossi, J. M. Millam, M. Klene, C. Adamo, R. Cammi, 
 J. W. Ochterski, R. L. Martin, K. Morokuma, O. Farkas, 
 J. B. Foresman, and D. J. Fox, Gaussian, Inc., Wallingford CT, 2019.
 
 ******************************************
 Gaussian 16:  EM64L-G16RevC.01  3-Jul-2019
                 6-Sep-2022 
 ******************************************
 %nproc=16
 Will use up to   16 processors via shared memory.
 %mem=16GB
 ----------------------------------------------------------------------
 # qcisd/aug-cc-pvtz nosymm density=current pop=(chelpg,hirshfeld,npa,d
 ipole)
 ----------------------------------------------------------------------
 1/30=1,38=1,172=1/1;
 2/12=2,15=1,17=6,18=5,40=1/2;
 3/5=16,6=1,7=10,11=9,25=1,30=1,71=1/1,2,3;
 4//1;
 5/5=2,38=5/2;
 8/6=4,9=120000,10=1/1,4;
 9/5=8,15=1/13;
 11/28=-7,31=1,32=3,42=3/11;
 10/5=6,13=10,31=1/2;
 6/7=2,8=2,9=2,10=2,15=24,20=3,22=-1,40=-1,79=1/1,2,7;
 99/5=1,9=1/99;
 ------------------
 br2cs-wavefunction
 ------------------
 Symbolic Z-matrix:
 Charge =  0 Multiplicity = 1
 C                     0.        0.       -0.51945 
 S                     0.        0.        1.07369 
 Br                    0.       -1.56852  -1.57857 
 Br                    0.        1.56852  -1.57857 
 
                          Input orientation:                          
 ---------------------------------------------------------------------
 Center     Atomic      Atomic             Coordinates (Angstroms)
 Number     Number       Type             X           Y           Z
 ---------------------------------------------------------------------
      1          6           0        0.000000    0.000000   -0.519451
      2         16           0        0.000000    0.000000    1.073692
      3         35           0        0.000000   -1.568516   -1.578570
      4         35           0        0.000000    1.568516   -1.578570
 ---------------------------------------------------------------------
                    Distance matrix (angstroms):
                    1          2          3          4
     1  C    0.000000
     2  S    1.593143   0.000000
     3  Br   1.892611   3.081353   0.000000
     4  Br   1.892611   3.081353   3.137032   0.000000
 Symmetry turned off by external request.
 Stoichiometry    CBr2S
 Framework group  C2V[C2(CS),SGV(Br2)]
 Deg. of freedom     3
 Full point group                 C2V     NOp   4
 Rotational constants (GHZ):           2.6424298           1.3014617           0.8719867
 Standard basis: Aug-CC-pVTZ (5D, 7F)
   214 basis functions,   620 primitive gaussians,   252 cartesian basis functions
    46 alpha electrons       46 beta electrons
       nuclear repulsion energy       548.3054394352 Hartrees.
 NAtoms=    4 NActive=    4 NUniq=    4 SFac= 1.00D+00 NAtFMM=   60 NAOKFM=F Big=F
 Integral buffers will be    131072 words long.
 Raffenetti 1 integral format.
 Two-electron integral symmetry is turned off.
 One-electron integrals computed using PRISM.
 NBasis=   214 RedAO= T EigKep=  7.74D-05  NBF=   214
 NBsUse=   214 1.00D-06 EigRej= -1.00D+00 NBFU=   214
 ExpMin= 3.51D-02 ExpMax= 1.06D+07 ExpMxC= 1.21D+04 IAcc=3 IRadAn=         5 AccDes= 0.00D+00
 Harris functional with IExCor=  205 and IRadAn=       5 diagonalized for initial guess.
 HarFok:  IExCor=  205 AccDes= 0.00D+00 IRadAn=         5 IDoV= 1 UseB2=F ITyADJ=14
 ICtDFT=  3500011 ScaDFX=  1.000000  1.000000  1.000000  1.000000
 FoFCou: FMM=F IPFlag=           0 FMFlag=      100000 FMFlg1=           0
         NFxFlg=           0 DoJE=T BraDBF=F KetDBF=T FulRan=T
         wScrn=  0.000000 ICntrl=       500 IOpCl=  0 I1Cent=   200000004 NGrid=           0
         NMat0=    1 NMatS0=      1 NMatT0=    0 NMatD0=    1 NMtDS0=    0 NMtDT0=    0
 Symmetry not used in FoFCou.
 Keep R1 ints in memory in canonical form, NReq=277853535.
 Requested convergence on RMS density matrix=1.00D-08 within 128 cycles.
 Requested convergence on MAX density matrix=1.00D-06.
 Requested convergence on             energy=1.00D-06.
 No special actions if energy rises.
 SCF Done:  E(RHF) =  -5580.30894571     A.U. after   14 cycles
            NFock= 14  Conv=0.30D-08     -V/T= 2.0000
 ExpMin= 3.51D-02 ExpMax= 1.06D+07 ExpMxC= 1.21D+04 IAcc=3 IRadAn=         5 AccDes= 0.00D+00
 HarFok:  IExCor=  205 AccDes= 0.00D+00 IRadAn=         5 IDoV=-2 UseB2=F ITyADJ=14
 ICtDFT= 12500011 ScaDFX=  1.000000  1.000000  1.000000  1.000000
 GSVD:  LWork=        -768 too small for GESVD, short by        3240 words or        3240 for optimal perf.
 Range of M.O.s used for correlation:    25   214
 NBasis=   214 NAE=    46 NBE=    46 NFC=    24 NFV=     0
 NROrb=    190 NOA=    22 NOB=    22 NVA=   168 NVB=   168

 **** Warning!!: The largest alpha MO coefficient is  0.30713629D+02

 Semi-Direct transformation.
 ModeAB=           2 MOrb=            22 LenV=    2146186073
 LASXX=     69628944 LTotXX=    69628944 LenRXX=    69628944
 LTotAB=    70719517 MaxLAS=   133250040 LenRXY=   133250040
 NonZer=   139257888 LenScr=   209707008 LnRSAI=           0
 LnScr1=           0 LExtra=           0 Total=    412585992
 MaxDsk=          -1 SrtSym=           F ITran=            4
 JobTyp=0 Pass  1:  I=   1 to  22.
 (rs|ai) integrals will be sorted in core.
 Spin components of T(2) and E(2):
     alpha-alpha T2 =       0.4277591513D-01 E2=     -0.1153723563D+00
     alpha-beta  T2 =       0.2160532200D+00 E2=     -0.5789809360D+00
     beta-beta   T2 =       0.4277591513D-01 E2=     -0.1153723563D+00
 ANorm=    0.1140879069D+01
 E2 =    -0.8097256486D+00 EUMP2 =    -0.55811186713632D+04
 Keep R2 and R3 ints in memory in canonical form, NReq=542493964.
 CIDS: In Core Option IDoMem=           1.
 Iterations=  50 Convergence= 0.100D-07
 Produce multiple copies of IABC intergrals
 Iteration Nr.   1
 **********************
 DD1Dir will call FoFMem   1 times, MxPair=       506
 NAB=   253 NAA=     0 NBB=     0.
 MP4(R+Q)=  0.23392593D-01
 E3=       -0.12337093D-01        EUMP3=      -0.55811310085D+04
 E4(DQ)=   -0.46620187D-03        UMP4(DQ)=   -0.55811314747D+04
 E4(SDQ)=  -0.10038553D-01        UMP4(SDQ)=  -0.55811410470D+04
 DE(Corr)= -0.79867015     E(Corr)=     -5581.1076159    
 NORM(A)=   0.11407386D+01
 Iteration Nr.   2
 **********************
 DD1Dir will call FoFMem   1 times, MxPair=       506
 NAB=   253 NAA=     0 NBB=     0.
 DE(Corr)= -0.82722398     E(CORR)=     -5581.1361697     Delta=-2.86D-02
 NORM(A)=   0.11528347D+01
 Iteration Nr.   3
 **********************
 DD1Dir will call FoFMem   1 times, MxPair=       506
 NAB=   253 NAA=     0 NBB=     0.
 DE(Corr)= -0.82588064     E(CORR)=     -5581.1348264     Delta= 1.34D-03
 NORM(A)=   0.11556121D+01
 Iteration Nr.   4
 **********************
 DD1Dir will call FoFMem   1 times, MxPair=       506
 NAB=   253 NAA=     0 NBB=     0.
 DE(Corr)= -0.82819315     E(CORR)=     -5581.1371389     Delta=-2.31D-03
 NORM(A)=   0.11568851D+01
 Iteration Nr.   5
 **********************
 DD1Dir will call FoFMem   1 times, MxPair=       506
 NAB=   253 NAA=     0 NBB=     0.
 DE(Corr)= -0.82849405     E(CORR)=     -5581.1374398     Delta=-3.01D-04
 NORM(A)=   0.11575058D+01
 Iteration Nr.   6
 **********************
 DD1Dir will call FoFMem   1 times, MxPair=       506
 NAB=   253 NAA=     0 NBB=     0.
 DE(Corr)= -0.82855749     E(CORR)=     -5581.1375032     Delta=-6.34D-05
 NORM(A)=   0.11575846D+01
 Iteration Nr.   7
 **********************
 DD1Dir will call FoFMem   1 times, MxPair=       506
 NAB=   253 NAA=     0 NBB=     0.
 DE(Corr)= -0.82856916     E(CORR)=     -5581.1375149     Delta=-1.17D-05
 NORM(A)=   0.11576035D+01
 Iteration Nr.   8
 **********************
 DD1Dir will call FoFMem   1 times, MxPair=       506
 NAB=   253 NAA=     0 NBB=     0.
 DE(Corr)= -0.82856478     E(CORR)=     -5581.1375105     Delta= 4.38D-06
 NORM(A)=   0.11576115D+01
 Iteration Nr.   9
 **********************
 DD1Dir will call FoFMem   1 times, MxPair=       506
 NAB=   253 NAA=     0 NBB=     0.
 DE(Corr)= -0.82856718     E(CORR)=     -5581.1375129     Delta=-2.40D-06
 NORM(A)=   0.11576130D+01
 Iteration Nr.  10
 **********************
 DD1Dir will call FoFMem   1 times, MxPair=       506
 NAB=   253 NAA=     0 NBB=     0.
 DE(Corr)= -0.82856692     E(CORR)=     -5581.1375126     Delta= 2.59D-07
 NORM(A)=   0.11576168D+01
 Iteration Nr.  11
 **********************
 DD1Dir will call FoFMem   1 times, MxPair=       506
 NAB=   253 NAA=     0 NBB=     0.
 DE(Corr)= -0.82856872     E(CORR)=     -5581.1375144     Delta=-1.80D-06
 NORM(A)=   0.11576188D+01
 Iteration Nr.  12
 **********************
 DD1Dir will call FoFMem   1 times, MxPair=       506
 NAB=   253 NAA=     0 NBB=     0.
 DE(Corr)= -0.82856874     E(CORR)=     -5581.1375145     Delta=-2.09D-08
 NORM(A)=   0.11576203D+01
 Iteration Nr.  13
 **********************
 DD1Dir will call FoFMem   1 times, MxPair=       506
 NAB=   253 NAA=     0 NBB=     0.
 DE(Corr)= -0.82856937     E(CORR)=     -5581.1375151     Delta=-6.34D-07
 NORM(A)=   0.11576213D+01
 Iteration Nr.  14
 **********************
 DD1Dir will call FoFMem   1 times, MxPair=       506
 NAB=   253 NAA=     0 NBB=     0.
 DE(Corr)= -0.82856939     E(CORR)=     -5581.1375151     Delta=-1.68D-08
 NORM(A)=   0.11576217D+01
 Iteration Nr.  15
 **********************
 DD1Dir will call FoFMem   1 times, MxPair=       506
 NAB=   253 NAA=     0 NBB=     0.
 DE(Corr)= -0.82856950     E(CORR)=     -5581.1375152     Delta=-1.10D-07
 NORM(A)=   0.11576219D+01
 Iteration Nr.  16
 **********************
 DD1Dir will call FoFMem   1 times, MxPair=       506
 NAB=   253 NAA=     0 NBB=     0.
 DE(Corr)= -0.82856953     E(CORR)=     -5581.1375152     Delta=-3.11D-08
 NORM(A)=   0.11576220D+01
 Iteration Nr.  17
 **********************
 DD1Dir will call FoFMem   1 times, MxPair=       506
 NAB=   253 NAA=     0 NBB=     0.
 DE(Corr)= -0.82856952     E(CORR)=     -5581.1375152     Delta= 1.30D-08
 NORM(A)=   0.11576220D+01
 Iteration Nr.  18
 **********************
 DD1Dir will call FoFMem   1 times, MxPair=       506
 NAB=   253 NAA=     0 NBB=     0.
 DE(Corr)= -0.82856954     E(CORR)=     -5581.1375153     Delta=-1.80D-08
 NORM(A)=   0.11576220D+01
 Iteration Nr.  19
 **********************
 DD1Dir will call FoFMem   1 times, MxPair=       506
 NAB=   253 NAA=     0 NBB=     0.
 DE(Corr)= -0.82856951     E(CORR)=     -5581.1375152     Delta= 2.98D-08
 NORM(A)=   0.11576216D+01
 Iteration Nr.  20
 **********************
 DD1Dir will call FoFMem   1 times, MxPair=       506
 NAB=   253 NAA=     0 NBB=     0.
 DE(Corr)= -0.82856974     E(CORR)=     -5581.1375155     Delta=-2.29D-07
 NORM(A)=   0.11576220D+01
 Iteration Nr.  21
 **********************
 DD1Dir will call FoFMem   1 times, MxPair=       506
 NAB=   253 NAA=     0 NBB=     0.
 DE(Corr)= -0.82856953     E(CORR)=     -5581.1375152     Delta= 2.07D-07
 NORM(A)=   0.11576220D+01
 Iteration Nr.  22
 **********************
 DD1Dir will call FoFMem   1 times, MxPair=       506
 NAB=   253 NAA=     0 NBB=     0.
 DE(Corr)= -0.82856953     E(CORR)=     -5581.1375152     Delta=-7.50D-10
 NORM(A)=   0.11576221D+01
 Wavefunction amplitudes converged. E(Corr)=     -5581.1375152    
 Largest amplitude= 7.46D-02

 Z-amplitude iterations

 Iteration Nr.   1
 **********************
 DD1Dir will call FoFMem   1 times, MxPair=       506
 NAB=   253 NAA=     0 NBB=     0.
 DE(Z)= -0.79805276     E(Z)=     -5581.1069985     Delta= 3.05D-02
 NORM(A)=   0.11583954D+01
 Iteration Nr.   2
 **********************
 DD1Dir will call FoFMem   1 times, MxPair=       506
 NAB=   253 NAA=     0 NBB=     0.
 DE(Z)= -0.79805945     E(Z)=     -5581.1070052     Delta=-6.69D-06
 NORM(A)=   0.11578701D+01
 Iteration Nr.   3
 **********************
 DD1Dir will call FoFMem   1 times, MxPair=       506
 NAB=   253 NAA=     0 NBB=     0.
 DE(Z)= -0.79805459     E(Z)=     -5581.1070003     Delta= 4.86D-06
 NORM(A)=   0.11586701D+01
 Iteration Nr.   4
 **********************
 DD1Dir will call FoFMem   1 times, MxPair=       506
 NAB=   253 NAA=     0 NBB=     0.
 DE(Z)= -0.79806171     E(Z)=     -5581.1070074     Delta=-7.12D-06
 NORM(A)=   0.11586427D+01
 Iteration Nr.   5
 **********************
 DD1Dir will call FoFMem   1 times, MxPair=       506
 NAB=   253 NAA=     0 NBB=     0.
 DE(Z)= -0.79806321     E(Z)=     -5581.1070089     Delta=-1.50D-06
 NORM(A)=   0.11444680D+01
 Iteration Nr.   6
 **********************
 DD1Dir will call FoFMem   1 times, MxPair=       506
 NAB=   253 NAA=     0 NBB=     0.
 DE(Z)= -0.79792159     E(Z)=     -5581.1068673     Delta= 1.42D-04
 NORM(A)=   0.11444670D+01
 Iteration Nr.   7
 **********************
 DD1Dir will call FoFMem   1 times, MxPair=       506
 NAB=   253 NAA=     0 NBB=     0.
 DE(Z)= -0.79791894     E(Z)=     -5581.1068647     Delta= 2.65D-06
 NORM(A)=   0.11444667D+01
 Iteration Nr.   8
 **********************
 DD1Dir will call FoFMem   1 times, MxPair=       506
 NAB=   253 NAA=     0 NBB=     0.
 DE(Z)= -0.79791969     E(Z)=     -5581.1068654     Delta=-7.53D-07
 NORM(A)=   0.11444666D+01
 Iteration Nr.   9
 **********************
 DD1Dir will call FoFMem   1 times, MxPair=       506
 NAB=   253 NAA=     0 NBB=     0.
 DE(Z)= -0.79791906     E(Z)=     -5581.1068648     Delta= 6.32D-07
 NORM(A)=   0.11444670D+01
 Iteration Nr.  10
 **********************
 DD1Dir will call FoFMem   1 times, MxPair=       506
 NAB=   253 NAA=     0 NBB=     0.
 DE(Z)= -0.79791911     E(Z)=     -5581.1068648     Delta=-5.46D-08
 NORM(A)=   0.11444672D+01
 Iteration Nr.  11
 **********************
 DD1Dir will call FoFMem   1 times, MxPair=       506
 NAB=   253 NAA=     0 NBB=     0.
 DE(Z)= -0.79791914     E(Z)=     -5581.1068649     Delta=-2.83D-08
 NORM(A)=   0.11444674D+01
 Iteration Nr.  12
 **********************
 DD1Dir will call FoFMem   1 times, MxPair=       506
 NAB=   253 NAA=     0 NBB=     0.
 DE(Z)= -0.79791913     E(Z)=     -5581.1068648     Delta= 1.16D-08
 NORM(A)=   0.11444675D+01
 Iteration Nr.  13
 **********************
 DD1Dir will call FoFMem   1 times, MxPair=       506
 NAB=   253 NAA=     0 NBB=     0.
 DE(Z)= -0.79791916     E(Z)=     -5581.1068649     Delta=-2.66D-08
 NORM(A)=   0.11444675D+01
 Iteration Nr.  14
 **********************
 DD1Dir will call FoFMem   1 times, MxPair=       506
 NAB=   253 NAA=     0 NBB=     0.
 DE(Z)= -0.79791915     E(Z)=     -5581.1068649     Delta= 7.93D-09
 NORM(A)=   0.11444675D+01
 Z-amplitudes converged.
 Discarding MO integrals.
          Differentiating once with respect to electric field.
                with respect to dipole field.
          Electric field/nuclear overlap derivatives assumed to be zero.
 Keep R1 ints in memory in canonical form, NReq=277859851.
          There are     1 degrees of freedom in the 1st order CPHF.  IDoFFX=0 NUNeed=     1.
 LinEq1:  Iter=  0 NonCon=     1 RMS=1.77D-03 Max=6.54D-02 NDo=     1
 AX will form     1 AO Fock derivatives at one time.
 LinEq1:  Iter=  1 NonCon=     1 RMS=8.40D-04 Max=1.78D-02 NDo=     1
 LinEq1:  Iter=  2 NonCon=     1 RMS=3.78D-04 Max=1.43D-02 NDo=     1
 LinEq1:  Iter=  3 NonCon=     1 RMS=1.23D-04 Max=4.43D-03 NDo=     1
 LinEq1:  Iter=  4 NonCon=     1 RMS=4.74D-05 Max=8.32D-04 NDo=     1
 LinEq1:  Iter=  5 NonCon=     1 RMS=9.51D-06 Max=2.14D-04 NDo=     1
 LinEq1:  Iter=  6 NonCon=     1 RMS=3.04D-06 Max=6.27D-05 NDo=     1
 LinEq1:  Iter=  7 NonCon=     1 RMS=6.19D-07 Max=1.45D-05 NDo=     1
 LinEq1:  Iter=  8 NonCon=     1 RMS=1.12D-07 Max=2.64D-06 NDo=     1
 LinEq1:  Iter=  9 NonCon=     1 RMS=2.34D-08 Max=4.62D-07 NDo=     1
 LinEq1:  Iter= 10 NonCon=     1 RMS=4.48D-09 Max=8.01D-08 NDo=     1
 LinEq1:  Iter= 11 NonCon=     1 RMS=8.70D-10 Max=1.74D-08 NDo=     1
 LinEq1:  Iter= 12 NonCon=     1 RMS=1.59D-10 Max=4.32D-09 NDo=     1
 LinEq1:  Iter= 13 NonCon=     1 RMS=5.33D-11 Max=2.34D-09 NDo=     1
 LinEq1:  Iter= 14 NonCon=     0 RMS=1.53D-11 Max=3.65D-10 NDo=     1
 Linear equations converged to 1.000D-10 1.000D-09 after    14 iterations.
 End of Minotr F.D. properties file   721 does not exist.
 End of Minotr F.D. properties file   722 does not exist.
 End of Minotr F.D. properties file   788 does not exist.

 **********************************************************************

            Population analysis using the CC Density.

 **********************************************************************

 Alpha  occ. eigenvalues -- -490.06290-490.06290 -91.97989 -65.20272 -65.20272
 Alpha  occ. eigenvalues --  -58.55806 -58.55806 -58.55655 -58.55655 -58.55636
 Alpha  occ. eigenvalues --  -58.55636 -11.43252  -9.87579  -9.87578  -8.98305
 Alpha  occ. eigenvalues --   -7.48772  -7.48771  -7.48044  -7.48044  -7.47966
 Alpha  occ. eigenvalues --   -7.47966  -6.66377  -6.66286  -6.66130  -3.23179
 Alpha  occ. eigenvalues --   -3.23178  -3.22818  -3.22818  -3.22712  -3.22711
 Alpha  occ. eigenvalues --   -3.21786  -3.21786  -3.21784  -3.21783  -1.16934
 Alpha  occ. eigenvalues --   -1.04105  -1.01692  -0.73947  -0.59773  -0.58415
 Alpha  occ. eigenvalues --   -0.54142  -0.46251  -0.44515  -0.42818  -0.39829
 Alpha  occ. eigenvalues --   -0.37180
 Alpha virt. eigenvalues --    0.01404   0.04691   0.05727   0.06046   0.08408
 Alpha virt. eigenvalues --    0.08975   0.09128   0.10110   0.11095   0.11447
 Alpha virt. eigenvalues --    0.12020   0.13413   0.14424   0.15469   0.15745
 Alpha virt. eigenvalues --    0.16981   0.18617   0.22170   0.23664   0.24029
 Alpha virt. eigenvalues --    0.24107   0.27640   0.29908   0.30907   0.33053
 Alpha virt. eigenvalues --    0.34024   0.34213   0.35580   0.35921   0.36846
 Alpha virt. eigenvalues --    0.37304   0.39641   0.40105   0.42884   0.43658
 Alpha virt. eigenvalues --    0.46405   0.47997   0.48109   0.48411   0.48759
 Alpha virt. eigenvalues --    0.48918   0.51356   0.57635   0.58770   0.58970
 Alpha virt. eigenvalues --    0.60535   0.65508   0.66547   0.68539   0.70362
 Alpha virt. eigenvalues --    0.71702   0.74673   0.75270   0.76096   0.76494
 Alpha virt. eigenvalues --    0.77038   0.78389   0.78601   0.78661   0.80039
 Alpha virt. eigenvalues --    0.81376   0.81403   0.85069   0.85979   0.88464
 Alpha virt. eigenvalues --    0.89088   0.90116   0.91655   0.93705   0.94836
 Alpha virt. eigenvalues --    0.95892   1.01118   1.01830   1.03535   1.03831
 Alpha virt. eigenvalues --    1.04607   1.04637   1.14797   1.15282   1.16112
 Alpha virt. eigenvalues --    1.17648   1.18948   1.19765   1.22351   1.26226
 Alpha virt. eigenvalues --    1.27754   1.32691   1.35282   1.38734   1.45451
 Alpha virt. eigenvalues --    1.46866   1.49482   1.51831   1.52457   1.53441
 Alpha virt. eigenvalues --    1.54248   1.54630   1.63673   1.72150   1.72421
 Alpha virt. eigenvalues --    1.74182   1.74599   1.91964   1.98056   2.07299
 Alpha virt. eigenvalues --    2.09635   2.13958   2.16578   2.17820   2.19303
 Alpha virt. eigenvalues --    2.21375   2.24572   2.27640   2.27674   2.28359
 Alpha virt. eigenvalues --    2.28626   2.29198   2.30056   2.32236   2.32686
 Alpha virt. eigenvalues --    2.32746   2.33879   2.34219   2.35516   2.36403
 Alpha virt. eigenvalues --    2.36700   2.37112   2.38306   2.39461   2.40933
 Alpha virt. eigenvalues --    2.41326   2.42633   2.43419   2.46489   2.46824
 Alpha virt. eigenvalues --    2.53329   2.54012   2.55217   2.57103   2.60286
 Alpha virt. eigenvalues --    2.62187   2.68864   2.70572   2.71712   2.90010
 Alpha virt. eigenvalues --    2.92638   2.94078   3.08411   3.29977   3.38850
 Alpha virt. eigenvalues --    3.59180   3.64686   3.65223   3.67159   3.76202
 Alpha virt. eigenvalues --    3.77581   3.84134   3.87910   3.90231   4.05911
 Alpha virt. eigenvalues --    4.06331   4.14104   4.17529   4.19340   5.07109
 Alpha virt. eigenvalues --    5.10408   6.47877   9.56443
          Condensed to atoms (all electrons):
               1          2          3          4
     1  C    6.374311  -0.035290  -0.090270  -0.090270
     2  S   -0.035290  16.461074  -0.191730  -0.191730
     3  Br  -0.090270  -0.191730  35.319330  -0.137733
     4  Br  -0.090270  -0.191730  -0.137733  35.319330
 Mulliken charges:
               1
     1  C   -0.158481
     2  S   -0.042325
     3  Br   0.100403
     4  Br   0.100403
 Sum of Mulliken charges =  -0.00000
 Mulliken charges with hydrogens summed into heavy atoms:
               1
     1  C   -0.158481
     2  S   -0.042325
     3  Br   0.100403
     4  Br   0.100403
 Electronic spatial extent (au):  <R**2>=           1430.4346
 Charge=             -0.0000 electrons
 Dipole moment (field-independent basis, Debye):
    X=              0.0000    Y=              0.0000    Z=             -0.4272  Tot=              0.4272
 Quadrupole moment (field-independent basis, Debye-Ang):
   XX=            -54.9274   YY=            -53.8510   ZZ=            -53.8086
   XY=             -0.0000   XZ=              0.0000   YZ=              0.0000
 Traceless Quadrupole moment (field-independent basis, Debye-Ang):
   XX=             -0.7317   YY=              0.3446   ZZ=              0.3871
   XY=             -0.0000   XZ=              0.0000   YZ=              0.0000
 Octapole moment (field-independent basis, Debye-Ang**2):
  XXX=             -0.0000  YYY=              0.0000  ZZZ=            141.7903  XYY=              0.0000
  XXY=              0.0000  XXZ=             47.9620  XZZ=             -0.0000  YZZ=             -0.0000
  YYZ=             35.6312  XYZ=              0.0000
 Hexadecapole moment (field-independent basis, Debye-Ang**3):
 XXXX=            -67.1678 YYYY=           -572.6699 ZZZZ=           -699.3070 XXXY=             -0.0000
 XXXZ=              0.0000 YYYX=             -0.0000 YYYZ=              0.0000 ZZZX=              0.0000
 ZZZY=              0.0000 XXYY=           -113.5665 XXZZ=           -130.2371 YYZZ=           -194.8178
 XXYZ=             -0.0000 YYXZ=              0.0000 ZZXY=             -0.0000
 N-N= 5.483054394352D+02 E-N=-1.443785870076D+04  KE= 5.579876732143D+03
 There are a total of      107126 grid points.
 ElSum from          density=       92.0000013665
 ElSum from atomic densities=       92.0000004401

 Hirshfeld populations at iteration   1 (CX, CA, CB, DipXYZ):
               1          2          3          4          5          6
     1  C    0.000001   2.983368   2.983368   0.000000  -0.000000  -0.109451
     2  S    0.000013   8.026094   8.026094   0.000000  -0.000000   0.161701
     3  Br   0.000023  17.495270  17.495270  -0.000000  -0.062658  -0.012674
     4  Br   0.000023  17.495270  17.495270  -0.000000   0.062658  -0.012674
       Tot   0.000061  46.000001  46.000001  -0.000000  -0.000000   0.026902

 Dip from Atomic Chgs              0.000000   0.000000  -0.194988
         Total Dipole             -0.000000   0.000000  -0.168086

 Hirshfeld charges, spin densities, dipoles, and CM5 charges using IRadAn=      5:
              Q-H        S-H        Dx         Dy         Dz        Q-CM5   
     1  C    0.033265   0.000000   0.000000  -0.000000  -0.109451   0.024167
     2  S   -0.052188   0.000000   0.000000  -0.000000   0.161701  -0.077392
     3  Br   0.009461   0.000000  -0.000000  -0.062658  -0.012674   0.026612
     4  Br   0.009461   0.000000  -0.000000   0.062658  -0.012674   0.026612
       Tot  -0.000001   0.000000  -0.000000  -0.000000   0.026902  -0.000001
 Hirshfeld charges with hydrogens summed into heavy atoms:
              Q-H       Q-CM5   
     1  C    0.033265   0.024167
     2  S   -0.052188  -0.077392
     3  Br   0.009461   0.026612
     4  Br   0.009461   0.026612
 
 EQQ= 0.000000000000E+00 EQD= 0.000000000000E+00 EDD=-0.626781499558E-03
 EQQ+QD+DD=-0.626781499558E-03
 
 Breneman (CHELPG) radii used.
 GetVDW:  no radius for atom   3 atomic number  35.
 Error termination via Lnk1e in /home/wagner/chemistry/gaussian/g16/l602.exe at Tue Sep  6 03:06:18 2022.
 Job cpu time:       0 days 14 hours 48 minutes 53.9 seconds.
 Elapsed time:       0 days  0 hours 56 minutes 11.2 seconds.
 File lengths (MBytes):  RWF=  31411 Int=      0 D2E=      0 Chk=      2 Scr=      1
