 Entering Gaussian System, Link 0=/home/wagner/chemistry/gaussian/g16/g16
 Input=GAUSSIAN.com
 Output=GAUSSIAN.log
 Initial command:
 /home/wagner/chemistry/gaussian/g16/l1.exe "/home/wagner/chemistry/gaussian/work/Gau-80658.inp" -scrdir="/home/wagner/chemistry/gaussian/work/"
 Entering Link 1 = /home/wagner/chemistry/gaussian/g16/l1.exe PID=     80660.
  
 Copyright (c) 1988-2019, Gaussian, Inc.  All Rights Reserved.
  
 This is part of the Gaussian(R) 16 program.  It is based on
 the Gaussian(R) 09 system (copyright 2009, Gaussian, Inc.),
 the Gaussian(R) 03 system (copyright 2003, Gaussian, Inc.),
 the Gaussian(R) 98 system (copyright 1998, Gaussian, Inc.),
 the Gaussian(R) 94 system (copyright 1995, Gaussian, Inc.),
 the Gaussian 92(TM) system (copyright 1992, Gaussian, Inc.),
 the Gaussian 90(TM) system (copyright 1990, Gaussian, Inc.),
 the Gaussian 88(TM) system (copyright 1988, Gaussian, Inc.),
 the Gaussian 86(TM) system (copyright 1986, Carnegie Mellon
 University), and the Gaussian 82(TM) system (copyright 1983,
 Carnegie Mellon University). Gaussian is a federally registered
 trademark of Gaussian, Inc.
  
 This software contains proprietary and confidential information,
 including trade secrets, belonging to Gaussian, Inc.
  
 This software is provided under written license and may be
 used, copied, transmitted, or stored only in accord with that
 written license.
  
 The following legend is applicable only to US Government
 contracts under FAR:
  
                    RESTRICTED RIGHTS LEGEND
  
 Use, reproduction and disclosure by the US Government is
 subject to restrictions as set forth in subparagraphs (a)
 and (c) of the Commercial Computer Software - Restricted
 Rights clause in FAR 52.227-19.
  
 Gaussian, Inc.
 340 Quinnipiac St., Bldg. 40, Wallingford CT 06492
  
  
 ---------------------------------------------------------------
 Warning -- This program may not be used in any manner that
 competes with the business of Gaussian, Inc. or will provide
 assistance to any competitor of Gaussian, Inc.  The licensee
 of this program is prohibited from giving any competitor of
 Gaussian, Inc. access to this program.  By using this program,
 the user acknowledges that Gaussian, Inc. is engaged in the
 business of creating and licensing software in the field of
 computational chemistry and represents and warrants to the
 licensee that it is not a competitor of Gaussian, Inc. and that
 it will not use this program in any manner prohibited above.
 ---------------------------------------------------------------
  

 Cite this work as:
 Gaussian 16, Revision C.01,
 M. J. Frisch, G. W. Trucks, H. B. Schlegel, G. E. Scuseria, 
 M. A. Robb, J. R. Cheeseman, G. Scalmani, V. Barone, 
 G. A. Petersson, H. Nakatsuji, X. Li, M. Caricato, A. V. Marenich, 
 J. Bloino, B. G. Janesko, R. Gomperts, B. Mennucci, H. P. Hratchian, 
 J. V. Ortiz, A. F. Izmaylov, J. L. Sonnenberg, D. Williams-Young, 
 F. Ding, F. Lipparini, F. Egidi, J. Goings, B. Peng, A. Petrone, 
 T. Henderson, D. Ranasinghe, V. G. Zakrzewski, J. Gao, N. Rega, 
 G. Zheng, W. Liang, M. Hada, M. Ehara, K. Toyota, R. Fukuda, 
 J. Hasegawa, M. Ishida, T. Nakajima, Y. Honda, O. Kitao, H. Nakai, 
 T. Vreven, K. Throssell, J. A. Montgomery, Jr., J. E. Peralta, 
 F. Ogliaro, M. J. Bearpark, J. J. Heyd, E. N. Brothers, K. N. Kudin, 
 V. N. Staroverov, T. A. Keith, R. Kobayashi, J. Normand, 
 K. Raghavachari, A. P. Rendell, J. C. Burant, S. S. Iyengar, 
 J. Tomasi, M. Cossi, J. M. Millam, M. Klene, C. Adamo, R. Cammi, 
 J. W. Ochterski, R. L. Martin, K. Morokuma, O. Farkas, 
 J. B. Foresman, and D. J. Fox, Gaussian, Inc., Wallingford CT, 2019.
 
 ******************************************
 Gaussian 16:  EM64L-G16RevC.01  3-Jul-2019
                 5-Sep-2022 
 ******************************************
 %nproc=16
 Will use up to   16 processors via shared memory.
 %mem=16GB
 ----------------------------------------------------------------------
 # qcisd/aug-cc-pvtz nosymm density=current pop=(chelpg,hirshfeld,npa,d
 ipole)
 ----------------------------------------------------------------------
 1/30=1,38=1,172=1/1;
 2/12=2,15=1,17=6,18=5,40=1/2;
 3/5=16,6=1,7=10,11=9,25=1,30=1,71=1/1,2,3;
 4//1;
 5/5=2,38=5/2;
 8/6=4,9=120000,10=1/1,4;
 9/5=8,15=1/13;
 11/28=-7,31=1,32=3,42=3/11;
 10/5=6,13=10,31=1/2;
 6/7=2,8=2,9=2,10=2,15=24,20=3,22=-1,40=-1,79=1/1,2,7;
 99/5=1,9=1/99;
 ------------------
 br2cs-wavefunction
 ------------------
 Symbolic Z-matrix:
 Charge =  0 Multiplicity = 1
 C                     0.        0.01     -0.51945 
 S                     0.        0.        1.08369 
 Br                    0.       -1.56852  -1.57857 
 Br                    0.        1.56852  -1.57857 
 
                          Input orientation:                          
 ---------------------------------------------------------------------
 Center     Atomic      Atomic             Coordinates (Angstroms)
 Number     Number       Type             X           Y           Z
 ---------------------------------------------------------------------
      1          6           0        0.000000    0.010000   -0.519451
      2         16           0        0.000000    0.000000    1.083692
      3         35           0        0.000000   -1.568516   -1.578570
      4         35           0        0.000000    1.568516   -1.578570
 ---------------------------------------------------------------------
                    Distance matrix (angstroms):
                    1          2          3          4
     1  C    0.000000
     2  S    1.603174   0.000000
     3  Br   1.900907   3.089965   0.000000
     4  Br   1.884331   3.089965   3.137032   0.000000
 Symmetry turned off by external request.
 Stoichiometry    CBr2S
 Framework group  CS[SG(CBr2S)]
 Deg. of freedom     5
 Full point group                 CS      NOp   2
 Rotational constants (GHZ):           2.6233683           1.3014578           0.8698992
 Standard basis: Aug-CC-pVTZ (5D, 7F)
   214 basis functions,   620 primitive gaussians,   252 cartesian basis functions
    46 alpha electrons       46 beta electrons
       nuclear repulsion energy       547.5715999047 Hartrees.
 NAtoms=    4 NActive=    4 NUniq=    4 SFac= 1.00D+00 NAtFMM=   60 NAOKFM=F Big=F
 Integral buffers will be    131072 words long.
 Raffenetti 1 integral format.
 Two-electron integral symmetry is turned off.
 One-electron integrals computed using PRISM.
 NBasis=   214 RedAO= T EigKep=  7.89D-05  NBF=   214
 NBsUse=   214 1.00D-06 EigRej= -1.00D+00 NBFU=   214
 ExpMin= 3.51D-02 ExpMax= 1.06D+07 ExpMxC= 1.21D+04 IAcc=3 IRadAn=         5 AccDes= 0.00D+00
 Harris functional with IExCor=  205 and IRadAn=       5 diagonalized for initial guess.
 HarFok:  IExCor=  205 AccDes= 0.00D+00 IRadAn=         5 IDoV= 1 UseB2=F ITyADJ=14
 ICtDFT=  3500011 ScaDFX=  1.000000  1.000000  1.000000  1.000000
 FoFCou: FMM=F IPFlag=           0 FMFlag=      100000 FMFlg1=           0
         NFxFlg=           0 DoJE=T BraDBF=F KetDBF=T FulRan=T
         wScrn=  0.000000 ICntrl=       500 IOpCl=  0 I1Cent=   200000004 NGrid=           0
         NMat0=    1 NMatS0=      1 NMatT0=    0 NMatD0=    1 NMtDS0=    0 NMtDT0=    0
 Symmetry not used in FoFCou.
 Keep R1 ints in memory in canonical form, NReq=277853506.
 Requested convergence on RMS density matrix=1.00D-08 within 128 cycles.
 Requested convergence on MAX density matrix=1.00D-06.
 Requested convergence on             energy=1.00D-06.
 No special actions if energy rises.
 SCF Done:  E(RHF) =  -5580.30863323     A.U. after   14 cycles
            NFock= 14  Conv=0.27D-08     -V/T= 2.0000
 ExpMin= 3.51D-02 ExpMax= 1.06D+07 ExpMxC= 1.21D+04 IAcc=3 IRadAn=         5 AccDes= 0.00D+00
 HarFok:  IExCor=  205 AccDes= 0.00D+00 IRadAn=         5 IDoV=-2 UseB2=F ITyADJ=14
 ICtDFT= 12500011 ScaDFX=  1.000000  1.000000  1.000000  1.000000
 GSVD:  LWork=        -768 too small for GESVD, short by        3240 words or        3240 for optimal perf.
 Range of M.O.s used for correlation:    25   214
 NBasis=   214 NAE=    46 NBE=    46 NFC=    24 NFV=     0
 NROrb=    190 NOA=    22 NOB=    22 NVA=   168 NVB=   168

 **** Warning!!: The largest alpha MO coefficient is  0.30747990D+02

 Semi-Direct transformation.
 ModeAB=           2 MOrb=            22 LenV=    2146186101
 LASXX=     69628944 LTotXX=    69628944 LenRXX=    69628944
 LTotAB=    70719517 MaxLAS=   133250040 LenRXY=   133250040
 NonZer=   139257888 LenScr=   209707008 LnRSAI=           0
 LnScr1=           0 LExtra=           0 Total=    412585992
 MaxDsk=          -1 SrtSym=           F ITran=            4
 JobTyp=0 Pass  1:  I=   1 to  22.
 (rs|ai) integrals will be sorted in core.
 Spin components of T(2) and E(2):
     alpha-alpha T2 =       0.4287604149D-01 E2=     -0.1154021019D+00
     alpha-beta  T2 =       0.2166647055D+00 E2=     -0.5793096391D+00
     beta-beta   T2 =       0.4287604149D-01 E2=     -0.1154021019D+00
 ANorm=    0.1141234765D+01
 E2 =    -0.8101138429D+00 EUMP2 =    -0.55811187470761D+04
 Keep R2 and R3 ints in memory in canonical form, NReq=542493935.
 CIDS: In Core Option IDoMem=           1.
 Iterations=  50 Convergence= 0.100D-07
 Produce multiple copies of IABC intergrals
 Iteration Nr.   1
 **********************
 DD1Dir will call FoFMem   1 times, MxPair=       506
 NAB=   253 NAA=     0 NBB=     0.
 MP4(R+Q)=  0.23476104D-01
 E3=       -0.12174848D-01        EUMP3=      -0.55811309219D+04
 E4(DQ)=   -0.50960956D-03        UMP4(DQ)=   -0.55811314315D+04
 E4(SDQ)=  -0.10185571D-01        UMP4(SDQ)=  -0.55811411075D+04
 DE(Corr)= -0.79881259     E(Corr)=     -5581.1074458    
 NORM(A)=   0.11410220D+01
 Iteration Nr.   2
 **********************
 DD1Dir will call FoFMem   1 times, MxPair=       506
 NAB=   253 NAA=     0 NBB=     0.
 DE(Corr)= -0.82758343     E(CORR)=     -5581.1362167     Delta=-2.88D-02
 NORM(A)=   0.11532105D+01
 Iteration Nr.   3
 **********************
 DD1Dir will call FoFMem   1 times, MxPair=       506
 NAB=   253 NAA=     0 NBB=     0.
 DE(Corr)= -0.82617500     E(CORR)=     -5581.1348082     Delta= 1.41D-03
 NORM(A)=   0.11560471D+01
 Iteration Nr.   4
 **********************
 DD1Dir will call FoFMem   1 times, MxPair=       506
 NAB=   253 NAA=     0 NBB=     0.
 DE(Corr)= -0.82852636     E(CORR)=     -5581.1371596     Delta=-2.35D-03
 NORM(A)=   0.11573542D+01
 Iteration Nr.   5
 **********************
 DD1Dir will call FoFMem   1 times, MxPair=       506
 NAB=   253 NAA=     0 NBB=     0.
 DE(Corr)= -0.82883557     E(CORR)=     -5581.1374688     Delta=-3.09D-04
 NORM(A)=   0.11579915D+01
 Iteration Nr.   6
 **********************
 DD1Dir will call FoFMem   1 times, MxPair=       506
 NAB=   253 NAA=     0 NBB=     0.
 DE(Corr)= -0.82890031     E(CORR)=     -5581.1375335     Delta=-6.47D-05
 NORM(A)=   0.11580717D+01
 Iteration Nr.   7
 **********************
 DD1Dir will call FoFMem   1 times, MxPair=       506
 NAB=   253 NAA=     0 NBB=     0.
 DE(Corr)= -0.82891215     E(CORR)=     -5581.1375454     Delta=-1.18D-05
 NORM(A)=   0.11580885D+01
 Iteration Nr.   8
 **********************
 DD1Dir will call FoFMem   1 times, MxPair=       506
 NAB=   253 NAA=     0 NBB=     0.
 DE(Corr)= -0.82890827     E(CORR)=     -5581.1375415     Delta= 3.88D-06
 NORM(A)=   0.11580969D+01
 Iteration Nr.   9
 **********************
 DD1Dir will call FoFMem   1 times, MxPair=       506
 NAB=   253 NAA=     0 NBB=     0.
 DE(Corr)= -0.82890996     E(CORR)=     -5581.1375432     Delta=-1.69D-06
 NORM(A)=   0.11580976D+01
 Iteration Nr.  10
 **********************
 DD1Dir will call FoFMem   1 times, MxPair=       506
 NAB=   253 NAA=     0 NBB=     0.
 DE(Corr)= -0.82891007     E(CORR)=     -5581.1375433     Delta=-1.17D-07
 NORM(A)=   0.11581013D+01
 Iteration Nr.  11
 **********************
 DD1Dir will call FoFMem   1 times, MxPair=       506
 NAB=   253 NAA=     0 NBB=     0.
 DE(Corr)= -0.82891166     E(CORR)=     -5581.1375449     Delta=-1.59D-06
 NORM(A)=   0.11581033D+01
 Iteration Nr.  12
 **********************
 DD1Dir will call FoFMem   1 times, MxPair=       506
 NAB=   253 NAA=     0 NBB=     0.
 DE(Corr)= -0.82891174     E(CORR)=     -5581.1375450     Delta=-7.69D-08
 NORM(A)=   0.11581049D+01
 Iteration Nr.  13
 **********************
 DD1Dir will call FoFMem   1 times, MxPair=       506
 NAB=   253 NAA=     0 NBB=     0.
 DE(Corr)= -0.82891238     E(CORR)=     -5581.1375456     Delta=-6.40D-07
 NORM(A)=   0.11581059D+01
 Iteration Nr.  14
 **********************
 DD1Dir will call FoFMem   1 times, MxPair=       506
 NAB=   253 NAA=     0 NBB=     0.
 DE(Corr)= -0.82891239     E(CORR)=     -5581.1375456     Delta=-1.10D-08
 NORM(A)=   0.11581063D+01
 Iteration Nr.  15
 **********************
 DD1Dir will call FoFMem   1 times, MxPair=       506
 NAB=   253 NAA=     0 NBB=     0.
 DE(Corr)= -0.82891251     E(CORR)=     -5581.1375457     Delta=-1.16D-07
 NORM(A)=   0.11581065D+01
 Iteration Nr.  16
 **********************
 DD1Dir will call FoFMem   1 times, MxPair=       506
 NAB=   253 NAA=     0 NBB=     0.
 DE(Corr)= -0.82891254     E(CORR)=     -5581.1375458     Delta=-2.90D-08
 NORM(A)=   0.11581066D+01
 Iteration Nr.  17
 **********************
 DD1Dir will call FoFMem   1 times, MxPair=       506
 NAB=   253 NAA=     0 NBB=     0.
 DE(Corr)= -0.82891252     E(CORR)=     -5581.1375458     Delta= 1.31D-08
 NORM(A)=   0.11581066D+01
 Iteration Nr.  18
 **********************
 DD1Dir will call FoFMem   1 times, MxPair=       506
 NAB=   253 NAA=     0 NBB=     0.
 DE(Corr)= -0.82891254     E(CORR)=     -5581.1375458     Delta=-1.74D-08
 NORM(A)=   0.11581066D+01
 Iteration Nr.  19
 **********************
 DD1Dir will call FoFMem   1 times, MxPair=       506
 NAB=   253 NAA=     0 NBB=     0.
 DE(Corr)= -0.82891254     E(CORR)=     -5581.1375458     Delta= 6.10D-09
 NORM(A)=   0.11581066D+01
 Wavefunction amplitudes converged. E(Corr)=     -5581.1375458    
 Largest amplitude= 7.67D-02

 Z-amplitude iterations

 Iteration Nr.   1
 **********************
 DD1Dir will call FoFMem   1 times, MxPair=       506
 NAB=   253 NAA=     0 NBB=     0.
 DE(Z)= -0.79825112     E(Z)=     -5581.1068843     Delta= 3.07D-02
 NORM(A)=   0.11582433D+01
 Iteration Nr.   2
 **********************
 DD1Dir will call FoFMem   1 times, MxPair=       506
 NAB=   253 NAA=     0 NBB=     0.
 DE(Z)= -0.79825211     E(Z)=     -5581.1068853     Delta=-9.95D-07
 NORM(A)=   0.11582914D+01
 Iteration Nr.   3
 **********************
 DD1Dir will call FoFMem   1 times, MxPair=       506
 NAB=   253 NAA=     0 NBB=     0.
 DE(Z)= -0.79825228     E(Z)=     -5581.1068855     Delta=-1.70D-07
 NORM(A)=   0.11584597D+01
 Iteration Nr.   4
 **********************
 DD1Dir will call FoFMem   1 times, MxPair=       506
 NAB=   253 NAA=     0 NBB=     0.
 DE(Z)= -0.79825371     E(Z)=     -5581.1068869     Delta=-1.43D-06
 NORM(A)=   0.11585977D+01
 Iteration Nr.   5
 **********************
 DD1Dir will call FoFMem   1 times, MxPair=       506
 NAB=   253 NAA=     0 NBB=     0.
 DE(Z)= -0.79825561     E(Z)=     -5581.1068888     Delta=-1.90D-06
 NORM(A)=   0.11448449D+01
 Iteration Nr.   6
 **********************
 DD1Dir will call FoFMem   1 times, MxPair=       506
 NAB=   253 NAA=     0 NBB=     0.
 DE(Z)= -0.79813429     E(Z)=     -5581.1067675     Delta= 1.21D-04
 NORM(A)=   0.11448442D+01
 Iteration Nr.   7
 **********************
 DD1Dir will call FoFMem   1 times, MxPair=       506
 NAB=   253 NAA=     0 NBB=     0.
 DE(Z)= -0.79813170     E(Z)=     -5581.1067649     Delta= 2.59D-06
 NORM(A)=   0.11448437D+01
 Iteration Nr.   8
 **********************
 DD1Dir will call FoFMem   1 times, MxPair=       506
 NAB=   253 NAA=     0 NBB=     0.
 DE(Z)= -0.79813234     E(Z)=     -5581.1067656     Delta=-6.40D-07
 NORM(A)=   0.11448438D+01
 Iteration Nr.   9
 **********************
 DD1Dir will call FoFMem   1 times, MxPair=       506
 NAB=   253 NAA=     0 NBB=     0.
 DE(Z)= -0.79813161     E(Z)=     -5581.1067648     Delta= 7.30D-07
 NORM(A)=   0.11448441D+01
 Iteration Nr.  10
 **********************
 DD1Dir will call FoFMem   1 times, MxPair=       506
 NAB=   253 NAA=     0 NBB=     0.
 DE(Z)= -0.79813159     E(Z)=     -5581.1067648     Delta= 2.01D-08
 NORM(A)=   0.11448445D+01
 Iteration Nr.  11
 **********************
 DD1Dir will call FoFMem   1 times, MxPair=       506
 NAB=   253 NAA=     0 NBB=     0.
 DE(Z)= -0.79813168     E(Z)=     -5581.1067649     Delta=-8.58D-08
 NORM(A)=   0.11448446D+01
 Iteration Nr.  12
 **********************
 DD1Dir will call FoFMem   1 times, MxPair=       506
 NAB=   253 NAA=     0 NBB=     0.
 DE(Z)= -0.79813165     E(Z)=     -5581.1067649     Delta= 2.62D-08
 NORM(A)=   0.11448448D+01
 Iteration Nr.  13
 **********************
 DD1Dir will call FoFMem   1 times, MxPair=       506
 NAB=   253 NAA=     0 NBB=     0.
 DE(Z)= -0.79813169     E(Z)=     -5581.1067649     Delta=-3.29D-08
 NORM(A)=   0.11448447D+01
 Iteration Nr.  14
 **********************
 DD1Dir will call FoFMem   1 times, MxPair=       506
 NAB=   253 NAA=     0 NBB=     0.
 DE(Z)= -0.79813168     E(Z)=     -5581.1067649     Delta= 8.67D-09
 NORM(A)=   0.11448447D+01
 Z-amplitudes converged.
 Discarding MO integrals.
          Differentiating once with respect to electric field.
                with respect to dipole field.
          Electric field/nuclear overlap derivatives assumed to be zero.
 Keep R1 ints in memory in canonical form, NReq=277859851.
          There are     1 degrees of freedom in the 1st order CPHF.  IDoFFX=0 NUNeed=     1.
 LinEq1:  Iter=  0 NonCon=     1 RMS=1.78D-03 Max=6.60D-02 NDo=     1
 AX will form     1 AO Fock derivatives at one time.
 LinEq1:  Iter=  1 NonCon=     1 RMS=8.41D-04 Max=1.81D-02 NDo=     1
 LinEq1:  Iter=  2 NonCon=     1 RMS=3.81D-04 Max=1.47D-02 NDo=     1
 LinEq1:  Iter=  3 NonCon=     1 RMS=1.25D-04 Max=4.33D-03 NDo=     1
 LinEq1:  Iter=  4 NonCon=     1 RMS=4.84D-05 Max=9.28D-04 NDo=     1
 LinEq1:  Iter=  5 NonCon=     1 RMS=9.57D-06 Max=1.72D-04 NDo=     1
 LinEq1:  Iter=  6 NonCon=     1 RMS=3.25D-06 Max=7.84D-05 NDo=     1
 LinEq1:  Iter=  7 NonCon=     1 RMS=7.09D-07 Max=2.19D-05 NDo=     1
 LinEq1:  Iter=  8 NonCon=     1 RMS=1.38D-07 Max=4.09D-06 NDo=     1
 LinEq1:  Iter=  9 NonCon=     1 RMS=3.37D-08 Max=1.03D-06 NDo=     1
 LinEq1:  Iter= 10 NonCon=     1 RMS=9.42D-09 Max=2.07D-07 NDo=     1
 LinEq1:  Iter= 11 NonCon=     1 RMS=1.97D-09 Max=4.91D-08 NDo=     1
 LinEq1:  Iter= 12 NonCon=     1 RMS=3.65D-10 Max=8.65D-09 NDo=     1
 LinEq1:  Iter= 13 NonCon=     1 RMS=7.67D-11 Max=1.13D-09 NDo=     1
 LinEq1:  Iter= 14 NonCon=     0 RMS=2.37D-11 Max=4.79D-10 NDo=     1
 Linear equations converged to 1.000D-10 1.000D-09 after    14 iterations.
 End of Minotr F.D. properties file   721 does not exist.
 End of Minotr F.D. properties file   722 does not exist.
 End of Minotr F.D. properties file   788 does not exist.

 **********************************************************************

            Population analysis using the CC Density.

 **********************************************************************

 Alpha  occ. eigenvalues -- -490.06470-490.06251 -91.98023 -65.20454 -65.20228
 Alpha  occ. eigenvalues --  -58.55987 -58.55837 -58.55818 -58.55762 -58.55610
 Alpha  occ. eigenvalues --  -58.55592 -11.43411  -9.87765  -9.87527  -8.98292
 Alpha  occ. eigenvalues --   -7.48960  -7.48719  -7.48232  -7.48151  -7.47991
 Alpha  occ. eigenvalues --   -7.47914  -6.66360  -6.66275  -6.66119  -3.23368
 Alpha  occ. eigenvalues --   -3.23125  -3.23007  -3.22896  -3.22767  -3.22661
 Alpha  occ. eigenvalues --   -3.21973  -3.21970  -3.21733  -3.21730  -1.16797
 Alpha  occ. eigenvalues --   -1.04153  -1.01484  -0.74035  -0.59713  -0.58346
 Alpha  occ. eigenvalues --   -0.54055  -0.46258  -0.44554  -0.42865  -0.39718
 Alpha  occ. eigenvalues --   -0.37181
 Alpha virt. eigenvalues --    0.01302   0.04660   0.05711   0.06063   0.08377
 Alpha virt. eigenvalues --    0.08954   0.09154   0.10093   0.11087   0.11456
 Alpha virt. eigenvalues --    0.12003   0.13415   0.14426   0.15451   0.15754
 Alpha virt. eigenvalues --    0.16992   0.18584   0.22150   0.23663   0.23988
 Alpha virt. eigenvalues --    0.24134   0.27595   0.29912   0.30870   0.33011
 Alpha virt. eigenvalues --    0.33984   0.34208   0.35551   0.35922   0.36814
 Alpha virt. eigenvalues --    0.37296   0.39636   0.40104   0.42864   0.43650
 Alpha virt. eigenvalues --    0.46295   0.48010   0.48103   0.48413   0.48723
 Alpha virt. eigenvalues --    0.48869   0.51277   0.57629   0.58702   0.59069
 Alpha virt. eigenvalues --    0.60619   0.65445   0.66493   0.68517   0.70395
 Alpha virt. eigenvalues --    0.71714   0.74665   0.75277   0.76067   0.76433
 Alpha virt. eigenvalues --    0.77054   0.78340   0.78585   0.78634   0.80013
 Alpha virt. eigenvalues --    0.81316   0.81443   0.84997   0.85978   0.88382
 Alpha virt. eigenvalues --    0.89084   0.89930   0.91624   0.93610   0.94873
 Alpha virt. eigenvalues --    0.95662   1.01174   1.01771   1.03308   1.03720
 Alpha virt. eigenvalues --    1.04503   1.04650   1.14633   1.15176   1.15936
 Alpha virt. eigenvalues --    1.17482   1.19018   1.19720   1.22386   1.26097
 Alpha virt. eigenvalues --    1.27753   1.32570   1.35127   1.38706   1.45419
 Alpha virt. eigenvalues --    1.46833   1.49467   1.51869   1.52404   1.53222
 Alpha virt. eigenvalues --    1.53831   1.54600   1.63546   1.71933   1.72268
 Alpha virt. eigenvalues --    1.74114   1.74408   1.91985   1.97965   2.07381
 Alpha virt. eigenvalues --    2.09698   2.13934   2.16431   2.17762   2.19240
 Alpha virt. eigenvalues --    2.21332   2.24505   2.27537   2.27539   2.28321
 Alpha virt. eigenvalues --    2.28586   2.29144   2.30012   2.32332   2.32550
 Alpha virt. eigenvalues --    2.32672   2.33774   2.34115   2.35495   2.36272
 Alpha virt. eigenvalues --    2.36721   2.37082   2.38024   2.39428   2.40891
 Alpha virt. eigenvalues --    2.41245   2.42638   2.43320   2.46318   2.46680
 Alpha virt. eigenvalues --    2.53172   2.53777   2.54968   2.56983   2.60130
 Alpha virt. eigenvalues --    2.62126   2.68728   2.70369   2.71798   2.89604
 Alpha virt. eigenvalues --    2.91433   2.93423   3.07470   3.30443   3.38515
 Alpha virt. eigenvalues --    3.58923   3.64591   3.65392   3.67042   3.75972
 Alpha virt. eigenvalues --    3.77350   3.83953   3.87195   3.90067   4.05379
 Alpha virt. eigenvalues --    4.06317   4.13990   4.15908   4.19018   5.06236
 Alpha virt. eigenvalues --    5.10671   6.43984   9.47775
          Condensed to atoms (all electrons):
               1          2          3          4
     1  C    6.376934  -0.030996  -0.081122  -0.104351
     2  S   -0.030996  16.451904  -0.187190  -0.189205
     3  Br  -0.081122  -0.187190  35.312318  -0.136422
     4  Br  -0.104351  -0.189205  -0.136422  35.317415
 Mulliken charges:
               1
     1  C   -0.160466
     2  S   -0.044514
     3  Br   0.092416
     4  Br   0.112564
 Sum of Mulliken charges =  -0.00000
 Mulliken charges with hydrogens summed into heavy atoms:
               1
     1  C   -0.160466
     2  S   -0.044514
     3  Br   0.092416
     4  Br   0.112564
 Electronic spatial extent (au):  <R**2>=           1431.6406
 Charge=             -0.0000 electrons
 Dipole moment (field-independent basis, Debye):
    X=              0.0000    Y=              0.0666    Z=             -0.4733  Tot=              0.4780
 Quadrupole moment (field-independent basis, Debye-Ang):
   XX=            -54.9569   YY=            -53.8191   ZZ=            -53.7721
   XY=             -0.0000   XZ=             -0.0000   YZ=             -0.1533
 Traceless Quadrupole moment (field-independent basis, Debye-Ang):
   XX=             -0.7742   YY=              0.3636   ZZ=              0.4106
   XY=             -0.0000   XZ=             -0.0000   YZ=             -0.1533
 Octapole moment (field-independent basis, Debye-Ang**2):
  XXX=             -0.0000  YYY=              0.0898  ZZZ=            141.2589  XYY=              0.0000
  XXY=              0.0287  XXZ=             47.7780  XZZ=              0.0000  YZZ=              0.2083
  YYZ=             35.3459  XYZ=              0.0000
 Hexadecapole moment (field-independent basis, Debye-Ang**3):
 XXXX=            -67.2506 YYYY=           -572.3508 ZZZZ=           -700.4562 XXXY=              0.0000
 XXXZ=             -0.0000 YYYX=             -0.0000 YYYZ=             -0.4697 ZZZX=             -0.0000
 ZZZY=             -0.8836 XXYY=           -113.5367 XXZZ=           -130.5002 YYZZ=           -194.9069
 XXYZ=             -0.1336 YYXZ=             -0.0000 ZZXY=             -0.0000
 N-N= 5.475715999047D+02 E-N=-1.443633766396D+04  KE= 5.579846167579D+03
 There are a total of      107126 grid points.
 ElSum from          density=       92.0000014119
 ElSum from atomic densities=       92.0000005557

 Hirshfeld populations at iteration   1 (CX, CA, CB, DipXYZ):
               1          2          3          4          5          6
     1  C    0.000001   2.982886   2.982886   0.000000   0.000956  -0.108786
     2  S    0.000013   8.027822   8.027822   0.000000  -0.003720   0.161744
     3  Br   0.000024  17.496981  17.496981  -0.000000  -0.064059  -0.011951
     4  Br   0.000023  17.492312  17.492312  -0.000000   0.064703  -0.015787
       Tot   0.000061  46.000001  46.000001  -0.000000  -0.002121   0.025219

 Dip from Atomic Chgs              0.000000   0.028327  -0.211434
         Total Dipole             -0.000000   0.026206  -0.186216

 Hirshfeld charges, spin densities, dipoles, and CM5 charges using IRadAn=      5:
              Q-H        S-H        Dx         Dy         Dz        Q-CM5   
     1  C    0.034228   0.000000   0.000000   0.000956  -0.108786   0.024650
     2  S   -0.055644   0.000000   0.000000  -0.003720   0.161744  -0.080251
     3  Br   0.006038   0.000000  -0.000000  -0.064059  -0.011951   0.022839
     4  Br   0.015377   0.000000  -0.000000   0.064703  -0.015787   0.032761
       Tot  -0.000001   0.000000  -0.000000  -0.002121   0.025219  -0.000001
 Hirshfeld charges with hydrogens summed into heavy atoms:
              Q-H       Q-CM5   
     1  C    0.034228   0.024650
     2  S   -0.055644  -0.080251
     3  Br   0.006038   0.022839
     4  Br   0.015377   0.032761
 
 EQQ= 0.000000000000E+00 EQD= 0.000000000000E+00 EDD=-0.608324205058E-03
 EQQ+QD+DD=-0.608324205058E-03
 
 Breneman (CHELPG) radii used.
 GetVDW:  no radius for atom   3 atomic number  35.
 Error termination via Lnk1e in /home/wagner/chemistry/gaussian/g16/l602.exe at Mon Sep  5 18:40:25 2022.
 Job cpu time:       0 days 14 hours  3 minutes 42.2 seconds.
 Elapsed time:       0 days  0 hours 53 minutes 18.7 seconds.
 File lengths (MBytes):  RWF=  31411 Int=      0 D2E=      0 Chk=      2 Scr=      1
