 Entering Gaussian System, Link 0=/home/wagner/chemistry/gaussian/g16/g16
 Input=GAUSSIAN.com
 Output=GAUSSIAN.log
 Initial command:
 /home/wagner/chemistry/gaussian/g16/l1.exe "/home/wagner/chemistry/gaussian/work/Gau-756.inp" -scrdir="/home/wagner/chemistry/gaussian/work/"
 Entering Link 1 = /home/wagner/chemistry/gaussian/g16/l1.exe PID=       758.
  
 Copyright (c) 1988-2019, Gaussian, Inc.  All Rights Reserved.
  
 This is part of the Gaussian(R) 16 program.  It is based on
 the Gaussian(R) 09 system (copyright 2009, Gaussian, Inc.),
 the Gaussian(R) 03 system (copyright 2003, Gaussian, Inc.),
 the Gaussian(R) 98 system (copyright 1998, Gaussian, Inc.),
 the Gaussian(R) 94 system (copyright 1995, Gaussian, Inc.),
 the Gaussian 92(TM) system (copyright 1992, Gaussian, Inc.),
 the Gaussian 90(TM) system (copyright 1990, Gaussian, Inc.),
 the Gaussian 88(TM) system (copyright 1988, Gaussian, Inc.),
 the Gaussian 86(TM) system (copyright 1986, Carnegie Mellon
 University), and the Gaussian 82(TM) system (copyright 1983,
 Carnegie Mellon University). Gaussian is a federally registered
 trademark of Gaussian, Inc.
  
 This software contains proprietary and confidential information,
 including trade secrets, belonging to Gaussian, Inc.
  
 This software is provided under written license and may be
 used, copied, transmitted, or stored only in accord with that
 written license.
  
 The following legend is applicable only to US Government
 contracts under FAR:
  
                    RESTRICTED RIGHTS LEGEND
  
 Use, reproduction and disclosure by the US Government is
 subject to restrictions as set forth in subparagraphs (a)
 and (c) of the Commercial Computer Software - Restricted
 Rights clause in FAR 52.227-19.
  
 Gaussian, Inc.
 340 Quinnipiac St., Bldg. 40, Wallingford CT 06492
  
  
 ---------------------------------------------------------------
 Warning -- This program may not be used in any manner that
 competes with the business of Gaussian, Inc. or will provide
 assistance to any competitor of Gaussian, Inc.  The licensee
 of this program is prohibited from giving any competitor of
 Gaussian, Inc. access to this program.  By using this program,
 the user acknowledges that Gaussian, Inc. is engaged in the
 business of creating and licensing software in the field of
 computational chemistry and represents and warrants to the
 licensee that it is not a competitor of Gaussian, Inc. and that
 it will not use this program in any manner prohibited above.
 ---------------------------------------------------------------
  

 Cite this work as:
 Gaussian 16, Revision C.01,
 M. J. Frisch, G. W. Trucks, H. B. Schlegel, G. E. Scuseria, 
 M. A. Robb, J. R. Cheeseman, G. Scalmani, V. Barone, 
 G. A. Petersson, H. Nakatsuji, X. Li, M. Caricato, A. V. Marenich, 
 J. Bloino, B. G. Janesko, R. Gomperts, B. Mennucci, H. P. Hratchian, 
 J. V. Ortiz, A. F. Izmaylov, J. L. Sonnenberg, D. Williams-Young, 
 F. Ding, F. Lipparini, F. Egidi, J. Goings, B. Peng, A. Petrone, 
 T. Henderson, D. Ranasinghe, V. G. Zakrzewski, J. Gao, N. Rega, 
 G. Zheng, W. Liang, M. Hada, M. Ehara, K. Toyota, R. Fukuda, 
 J. Hasegawa, M. Ishida, T. Nakajima, Y. Honda, O. Kitao, H. Nakai, 
 T. Vreven, K. Throssell, J. A. Montgomery, Jr., J. E. Peralta, 
 F. Ogliaro, M. J. Bearpark, J. J. Heyd, E. N. Brothers, K. N. Kudin, 
 V. N. Staroverov, T. A. Keith, R. Kobayashi, J. Normand, 
 K. Raghavachari, A. P. Rendell, J. C. Burant, S. S. Iyengar, 
 J. Tomasi, M. Cossi, J. M. Millam, M. Klene, C. Adamo, R. Cammi, 
 J. W. Ochterski, R. L. Martin, K. Morokuma, O. Farkas, 
 J. B. Foresman, and D. J. Fox, Gaussian, Inc., Wallingford CT, 2019.
 
 ******************************************
 Gaussian 16:  EM64L-G16RevC.01  3-Jul-2019
                 5-Sep-2022 
 ******************************************
 %nproc=16
 Will use up to   16 processors via shared memory.
 %mem=16GB
 ----------------------------------------------------------------------
 # qcisd/aug-cc-pvtz nosymm density=current pop=(chelpg,hirshfeld,npa,d
 ipole)
 ----------------------------------------------------------------------
 1/30=1,38=1,172=1/1;
 2/12=2,15=1,17=6,18=5,40=1/2;
 3/5=16,6=1,7=10,11=9,25=1,30=1,71=1/1,2,3;
 4//1;
 5/5=2,38=5/2;
 8/6=4,9=120000,10=1/1,4;
 9/5=8,15=1/13;
 11/28=-7,31=1,32=3,42=3/11;
 10/5=6,13=10,31=1/2;
 6/7=2,8=2,9=2,10=2,15=24,20=3,22=-1,40=-1,79=1/1,2,7;
 99/5=1,9=1/99;
 ------------------
 br2cs-wavefunction
 ------------------
 Symbolic Z-matrix:
 Charge =  0 Multiplicity = 1
 C                     0.        0.       -0.50945 
 S                     0.        0.        1.08369 
 Br                    0.       -1.56852  -1.57857 
 Br                    0.        1.56852  -1.57857 
 
                          Input orientation:                          
 ---------------------------------------------------------------------
 Center     Atomic      Atomic             Coordinates (Angstroms)
 Number     Number       Type             X           Y           Z
 ---------------------------------------------------------------------
      1          6           0        0.000000    0.000000   -0.509451
      2         16           0        0.000000    0.000000    1.083692
      3         35           0        0.000000   -1.568516   -1.578570
      4         35           0        0.000000    1.568516   -1.578570
 ---------------------------------------------------------------------
                    Distance matrix (angstroms):
                    1          2          3          4
     1  C    0.000000
     2  S    1.593143   0.000000
     3  Br   1.898225   3.089965   0.000000
     4  Br   1.898225   3.089965   3.137032   0.000000
 Symmetry turned off by external request.
 Stoichiometry    CBr2S
 Framework group  C2V[C2(CS),SGV(Br2)]
 Deg. of freedom     3
 Full point group                 C2V     NOp   4
 Rotational constants (GHZ):           2.6214768           1.3014617           0.8696929
 Standard basis: Aug-CC-pVTZ (5D, 7F)
   214 basis functions,   620 primitive gaussians,   252 cartesian basis functions
    46 alpha electrons       46 beta electrons
       nuclear repulsion energy       547.4220652952 Hartrees.
 NAtoms=    4 NActive=    4 NUniq=    4 SFac= 1.00D+00 NAtFMM=   60 NAOKFM=F Big=F
 Integral buffers will be    131072 words long.
 Raffenetti 1 integral format.
 Two-electron integral symmetry is turned off.
 One-electron integrals computed using PRISM.
 NBasis=   214 RedAO= T EigKep=  7.78D-05  NBF=   214
 NBsUse=   214 1.00D-06 EigRej= -1.00D+00 NBFU=   214
 ExpMin= 3.51D-02 ExpMax= 1.06D+07 ExpMxC= 1.21D+04 IAcc=3 IRadAn=         5 AccDes= 0.00D+00
 Harris functional with IExCor=  205 and IRadAn=       5 diagonalized for initial guess.
 HarFok:  IExCor=  205 AccDes= 0.00D+00 IRadAn=         5 IDoV= 1 UseB2=F ITyADJ=14
 ICtDFT=  3500011 ScaDFX=  1.000000  1.000000  1.000000  1.000000
 FoFCou: FMM=F IPFlag=           0 FMFlag=      100000 FMFlg1=           0
         NFxFlg=           0 DoJE=T BraDBF=F KetDBF=T FulRan=T
         wScrn=  0.000000 ICntrl=       500 IOpCl=  0 I1Cent=   200000004 NGrid=           0
         NMat0=    1 NMatS0=      1 NMatT0=    0 NMatD0=    1 NMtDS0=    0 NMtDT0=    0
 Symmetry not used in FoFCou.
 Keep R1 ints in memory in canonical form, NReq=277853419.
 Requested convergence on RMS density matrix=1.00D-08 within 128 cycles.
 Requested convergence on MAX density matrix=1.00D-06.
 Requested convergence on             energy=1.00D-06.
 No special actions if energy rises.
 SCF Done:  E(RHF) =  -5580.30884417     A.U. after   14 cycles
            NFock= 14  Conv=0.31D-08     -V/T= 2.0000
 ExpMin= 3.51D-02 ExpMax= 1.06D+07 ExpMxC= 1.21D+04 IAcc=3 IRadAn=         5 AccDes= 0.00D+00
 HarFok:  IExCor=  205 AccDes= 0.00D+00 IRadAn=         5 IDoV=-2 UseB2=F ITyADJ=14
 ICtDFT= 12500011 ScaDFX=  1.000000  1.000000  1.000000  1.000000
 GSVD:  LWork=        -768 too small for GESVD, short by        3240 words or        3240 for optimal perf.
 Range of M.O.s used for correlation:    25   214
 NBasis=   214 NAE=    46 NBE=    46 NFC=    24 NFV=     0
 NROrb=    190 NOA=    22 NOB=    22 NVA=   168 NVB=   168

 **** Warning!!: The largest alpha MO coefficient is  0.30665312D+02

 Semi-Direct transformation.
 ModeAB=           2 MOrb=            22 LenV=    2146186129
 LASXX=     69628944 LTotXX=    69628944 LenRXX=    69628944
 LTotAB=    70719517 MaxLAS=   133250040 LenRXY=   133250040
 NonZer=   139257888 LenScr=   209707008 LnRSAI=           0
 LnScr1=           0 LExtra=           0 Total=    412585992
 MaxDsk=          -1 SrtSym=           F ITran=            4
 JobTyp=0 Pass  1:  I=   1 to  22.
 (rs|ai) integrals will be sorted in core.
 Spin components of T(2) and E(2):
     alpha-alpha T2 =       0.4282729349D-01 E2=     -0.1153550621D+00
     alpha-beta  T2 =       0.2163924590D+00 E2=     -0.5790967329D+00
     beta-beta   T2 =       0.4282729349D-01 E2=     -0.1153550621D+00
 ANorm=    0.1141072761D+01
 E2 =    -0.8098068570D+00 EUMP2 =    -0.55811186510269D+04
 Keep R2 and R3 ints in memory in canonical form, NReq=542493848.
 CIDS: In Core Option IDoMem=           1.
 Iterations=  50 Convergence= 0.100D-07
 Produce multiple copies of IABC intergrals
 Iteration Nr.   1
 **********************
 DD1Dir will call FoFMem   1 times, MxPair=       506
 NAB=   253 NAA=     0 NBB=     0.
 MP4(R+Q)=  0.23435368D-01
 E3=       -0.12298110D-01        EUMP3=      -0.55811309491D+04
 E4(DQ)=   -0.48882893D-03        UMP4(DQ)=   -0.55811314380D+04
 E4(SDQ)=  -0.10108214D-01        UMP4(SDQ)=  -0.55811410574D+04
 DE(Corr)= -0.79866960     E(Corr)=     -5581.1075138    
 NORM(A)=   0.11409150D+01
 Iteration Nr.   2
 **********************
 DD1Dir will call FoFMem   1 times, MxPair=       506
 NAB=   253 NAA=     0 NBB=     0.
 DE(Corr)= -0.82732411     E(CORR)=     -5581.1361683     Delta=-2.87D-02
 NORM(A)=   0.11530571D+01
 Iteration Nr.   3
 **********************
 DD1Dir will call FoFMem   1 times, MxPair=       506
 NAB=   253 NAA=     0 NBB=     0.
 DE(Corr)= -0.82595132     E(CORR)=     -5581.1347955     Delta= 1.37D-03
 NORM(A)=   0.11558601D+01
 Iteration Nr.   4
 **********************
 DD1Dir will call FoFMem   1 times, MxPair=       506
 NAB=   253 NAA=     0 NBB=     0.
 DE(Corr)= -0.82828249     E(CORR)=     -5581.1371267     Delta=-2.33D-03
 NORM(A)=   0.11571467D+01
 Iteration Nr.   5
 **********************
 DD1Dir will call FoFMem   1 times, MxPair=       506
 NAB=   253 NAA=     0 NBB=     0.
 DE(Corr)= -0.82858687     E(CORR)=     -5581.1374310     Delta=-3.04D-04
 NORM(A)=   0.11577768D+01
 Iteration Nr.   6
 **********************
 DD1Dir will call FoFMem   1 times, MxPair=       506
 NAB=   253 NAA=     0 NBB=     0.
 DE(Corr)= -0.82865123     E(CORR)=     -5581.1374954     Delta=-6.44D-05
 NORM(A)=   0.11578580D+01
 Iteration Nr.   7
 **********************
 DD1Dir will call FoFMem   1 times, MxPair=       506
 NAB=   253 NAA=     0 NBB=     0.
 DE(Corr)= -0.82866321     E(CORR)=     -5581.1375074     Delta=-1.20D-05
 NORM(A)=   0.11578777D+01
 Iteration Nr.   8
 **********************
 DD1Dir will call FoFMem   1 times, MxPair=       506
 NAB=   253 NAA=     0 NBB=     0.
 DE(Corr)= -0.82865875     E(CORR)=     -5581.1375029     Delta= 4.45D-06
 NORM(A)=   0.11578862D+01
 Iteration Nr.   9
 **********************
 DD1Dir will call FoFMem   1 times, MxPair=       506
 NAB=   253 NAA=     0 NBB=     0.
 DE(Corr)= -0.82866123     E(CORR)=     -5581.1375054     Delta=-2.48D-06
 NORM(A)=   0.11578877D+01
 Iteration Nr.  10
 **********************
 DD1Dir will call FoFMem   1 times, MxPair=       506
 NAB=   253 NAA=     0 NBB=     0.
 DE(Corr)= -0.82866094     E(CORR)=     -5581.1375051     Delta= 2.89D-07
 NORM(A)=   0.11578917D+01
 Iteration Nr.  11
 **********************
 DD1Dir will call FoFMem   1 times, MxPair=       506
 NAB=   253 NAA=     0 NBB=     0.
 DE(Corr)= -0.82866281     E(CORR)=     -5581.1375070     Delta=-1.86D-06
 NORM(A)=   0.11578938D+01
 Iteration Nr.  12
 **********************
 DD1Dir will call FoFMem   1 times, MxPair=       506
 NAB=   253 NAA=     0 NBB=     0.
 DE(Corr)= -0.82866282     E(CORR)=     -5581.1375070     Delta=-1.39D-08
 NORM(A)=   0.11578953D+01
 Iteration Nr.  13
 **********************
 DD1Dir will call FoFMem   1 times, MxPair=       506
 NAB=   253 NAA=     0 NBB=     0.
 DE(Corr)= -0.82866348     E(CORR)=     -5581.1375076     Delta=-6.56D-07
 NORM(A)=   0.11578964D+01
 Iteration Nr.  14
 **********************
 DD1Dir will call FoFMem   1 times, MxPair=       506
 NAB=   253 NAA=     0 NBB=     0.
 DE(Corr)= -0.82866349     E(CORR)=     -5581.1375077     Delta=-1.76D-08
 NORM(A)=   0.11578968D+01
 Iteration Nr.  15
 **********************
 DD1Dir will call FoFMem   1 times, MxPair=       506
 NAB=   253 NAA=     0 NBB=     0.
 DE(Corr)= -0.82866361     E(CORR)=     -5581.1375078     Delta=-1.14D-07
 NORM(A)=   0.11578970D+01
 Iteration Nr.  16
 **********************
 DD1Dir will call FoFMem   1 times, MxPair=       506
 NAB=   253 NAA=     0 NBB=     0.
 DE(Corr)= -0.82866364     E(CORR)=     -5581.1375078     Delta=-3.26D-08
 NORM(A)=   0.11578971D+01
 Iteration Nr.  17
 **********************
 DD1Dir will call FoFMem   1 times, MxPair=       506
 NAB=   253 NAA=     0 NBB=     0.
 DE(Corr)= -0.82866363     E(CORR)=     -5581.1375078     Delta= 1.33D-08
 NORM(A)=   0.11578971D+01
 Iteration Nr.  18
 **********************
 DD1Dir will call FoFMem   1 times, MxPair=       506
 NAB=   253 NAA=     0 NBB=     0.
 DE(Corr)= -0.82866365     E(CORR)=     -5581.1375078     Delta=-1.92D-08
 NORM(A)=   0.11578971D+01
 Iteration Nr.  19
 **********************
 DD1Dir will call FoFMem   1 times, MxPair=       506
 NAB=   253 NAA=     0 NBB=     0.
 DE(Corr)= -0.82866363     E(CORR)=     -5581.1375078     Delta= 1.44D-08
 NORM(A)=   0.11578971D+01
 Iteration Nr.  20
 **********************
 DD1Dir will call FoFMem   1 times, MxPair=       506
 NAB=   253 NAA=     0 NBB=     0.
 DE(Corr)= -0.82866364     E(CORR)=     -5581.1375078     Delta=-7.07D-09
 NORM(A)=   0.11578971D+01
 Wavefunction amplitudes converged. E(Corr)=     -5581.1375078    
 Largest amplitude= 7.44D-02

 Z-amplitude iterations

 Iteration Nr.   1
 **********************
 DD1Dir will call FoFMem   1 times, MxPair=       506
 NAB=   253 NAA=     0 NBB=     0.
 DE(Z)= -0.79807049     E(Z)=     -5581.1069147     Delta= 3.06D-02
 NORM(A)=   0.11579184D+01
 Iteration Nr.   2
 **********************
 DD1Dir will call FoFMem   1 times, MxPair=       506
 NAB=   253 NAA=     0 NBB=     0.
 DE(Z)= -0.79807067     E(Z)=     -5581.1069148     Delta=-1.78D-07
 NORM(A)=   0.11579150D+01
 Iteration Nr.   3
 **********************
 DD1Dir will call FoFMem   1 times, MxPair=       506
 NAB=   253 NAA=     0 NBB=     0.
 DE(Z)= -0.79807061     E(Z)=     -5581.1069148     Delta= 5.04D-08
 NORM(A)=   0.11579134D+01
 Iteration Nr.   4
 **********************
 DD1Dir will call FoFMem   1 times, MxPair=       506
 NAB=   253 NAA=     0 NBB=     0.
 DE(Z)= -0.79807062     E(Z)=     -5581.1069148     Delta=-8.09D-09
 NORM(A)=   0.11579874D+01
 Iteration Nr.   5
 **********************
 DD1Dir will call FoFMem   1 times, MxPair=       506
 NAB=   253 NAA=     0 NBB=     0.
 DE(Z)= -0.79807141     E(Z)=     -5581.1069156     Delta=-7.91D-07
 NORM(A)=   0.11447423D+01
 Iteration Nr.   6
 **********************
 DD1Dir will call FoFMem   1 times, MxPair=       506
 NAB=   253 NAA=     0 NBB=     0.
 DE(Z)= -0.79790496     E(Z)=     -5581.1067491     Delta= 1.66D-04
 NORM(A)=   0.11446862D+01
 Iteration Nr.   7
 **********************
 DD1Dir will call FoFMem   1 times, MxPair=       506
 NAB=   253 NAA=     0 NBB=     0.
 DE(Z)= -0.79794113     E(Z)=     -5581.1067853     Delta=-3.62D-05
 NORM(A)=   0.11446909D+01
 Iteration Nr.   8
 **********************
 DD1Dir will call FoFMem   1 times, MxPair=       506
 NAB=   253 NAA=     0 NBB=     0.
 DE(Z)= -0.79793998     E(Z)=     -5581.1067842     Delta= 1.14D-06
 NORM(A)=   0.11446912D+01
 Iteration Nr.   9
 **********************
 DD1Dir will call FoFMem   1 times, MxPair=       506
 NAB=   253 NAA=     0 NBB=     0.
 DE(Z)= -0.79794028     E(Z)=     -5581.1067844     Delta=-2.95D-07
 NORM(A)=   0.11446916D+01
 Iteration Nr.  10
 **********************
 DD1Dir will call FoFMem   1 times, MxPair=       506
 NAB=   253 NAA=     0 NBB=     0.
 DE(Z)= -0.79794015     E(Z)=     -5581.1067843     Delta= 1.27D-07
 NORM(A)=   0.11446918D+01
 Iteration Nr.  11
 **********************
 DD1Dir will call FoFMem   1 times, MxPair=       506
 NAB=   253 NAA=     0 NBB=     0.
 DE(Z)= -0.79794017     E(Z)=     -5581.1067843     Delta=-1.66D-08
 NORM(A)=   0.11446920D+01
 Iteration Nr.  12
 **********************
 DD1Dir will call FoFMem   1 times, MxPair=       506
 NAB=   253 NAA=     0 NBB=     0.
 DE(Z)= -0.79794017     E(Z)=     -5581.1067843     Delta=-3.83D-09
 NORM(A)=   0.11446921D+01
 Z-amplitudes converged.
 Discarding MO integrals.
          Differentiating once with respect to electric field.
                with respect to dipole field.
          Electric field/nuclear overlap derivatives assumed to be zero.
 Keep R1 ints in memory in canonical form, NReq=277859677.
          There are     1 degrees of freedom in the 1st order CPHF.  IDoFFX=0 NUNeed=     1.
 LinEq1:  Iter=  0 NonCon=     1 RMS=1.78D-03 Max=6.55D-02 NDo=     1
 AX will form     1 AO Fock derivatives at one time.
 LinEq1:  Iter=  1 NonCon=     1 RMS=8.43D-04 Max=1.81D-02 NDo=     1
 LinEq1:  Iter=  2 NonCon=     1 RMS=3.80D-04 Max=1.43D-02 NDo=     1
 LinEq1:  Iter=  3 NonCon=     1 RMS=1.24D-04 Max=4.50D-03 NDo=     1
 LinEq1:  Iter=  4 NonCon=     1 RMS=4.77D-05 Max=8.46D-04 NDo=     1
 LinEq1:  Iter=  5 NonCon=     1 RMS=9.60D-06 Max=2.31D-04 NDo=     1
 LinEq1:  Iter=  6 NonCon=     1 RMS=3.04D-06 Max=6.31D-05 NDo=     1
 LinEq1:  Iter=  7 NonCon=     1 RMS=6.23D-07 Max=1.52D-05 NDo=     1
 LinEq1:  Iter=  8 NonCon=     1 RMS=1.15D-07 Max=2.69D-06 NDo=     1
 LinEq1:  Iter=  9 NonCon=     1 RMS=2.43D-08 Max=4.39D-07 NDo=     1
 LinEq1:  Iter= 10 NonCon=     1 RMS=5.35D-09 Max=1.53D-07 NDo=     1
 LinEq1:  Iter= 11 NonCon=     1 RMS=1.43D-09 Max=4.59D-08 NDo=     1
 LinEq1:  Iter= 12 NonCon=     1 RMS=3.18D-10 Max=9.48D-09 NDo=     1
 LinEq1:  Iter= 13 NonCon=     1 RMS=6.77D-11 Max=1.18D-09 NDo=     1
 LinEq1:  Iter= 14 NonCon=     0 RMS=1.95D-11 Max=5.02D-10 NDo=     1
 Linear equations converged to 1.000D-10 1.000D-09 after    14 iterations.
 End of Minotr F.D. properties file   721 does not exist.
 End of Minotr F.D. properties file   722 does not exist.
 End of Minotr F.D. properties file   788 does not exist.

 **********************************************************************

            Population analysis using the CC Density.

 **********************************************************************

 Alpha  occ. eigenvalues -- -490.06274-490.06274 -91.98086 -65.20252 -65.20252
 Alpha  occ. eigenvalues --  -58.55787 -58.55787 -58.55635 -58.55635 -58.55617
 Alpha  occ. eigenvalues --  -58.55617 -11.43345  -9.87554  -9.87553  -8.98395
 Alpha  occ. eigenvalues --   -7.48747  -7.48747  -7.48018  -7.48018  -7.47941
 Alpha  occ. eigenvalues --   -7.47941  -6.66467  -6.66376  -6.66220  -3.23154
 Alpha  occ. eigenvalues --   -3.23153  -3.22794  -3.22793  -3.22688  -3.22688
 Alpha  occ. eigenvalues --   -3.21760  -3.21759  -3.21757  -3.21757  -1.16780
 Alpha  occ. eigenvalues --   -1.03986  -1.01741  -0.73931  -0.59639  -0.58411
 Alpha  occ. eigenvalues --   -0.54044  -0.46276  -0.44478  -0.42738  -0.39903
 Alpha  occ. eigenvalues --   -0.37241
 Alpha virt. eigenvalues --    0.01388   0.04644   0.05733   0.06028   0.08376
 Alpha virt. eigenvalues --    0.08971   0.09092   0.10113   0.11103   0.11436
 Alpha virt. eigenvalues --    0.11959   0.13411   0.14400   0.15448   0.15746
 Alpha virt. eigenvalues --    0.16994   0.18529   0.22150   0.23632   0.24034
 Alpha virt. eigenvalues --    0.24098   0.27652   0.29856   0.30910   0.33010
 Alpha virt. eigenvalues --    0.34003   0.34222   0.35565   0.35875   0.36844
 Alpha virt. eigenvalues --    0.37310   0.39623   0.40098   0.42815   0.43626
 Alpha virt. eigenvalues --    0.46376   0.48002   0.48036   0.48370   0.48679
 Alpha virt. eigenvalues --    0.48898   0.51364   0.57693   0.58854   0.59036
 Alpha virt. eigenvalues --    0.60456   0.65516   0.66588   0.68485   0.70351
 Alpha virt. eigenvalues --    0.71691   0.74660   0.75270   0.76052   0.76455
 Alpha virt. eigenvalues --    0.76966   0.78406   0.78610   0.78620   0.79934
 Alpha virt. eigenvalues --    0.81369   0.81462   0.85033   0.85940   0.88343
 Alpha virt. eigenvalues --    0.88993   0.90068   0.91545   0.93599   0.94973
 Alpha virt. eigenvalues --    0.95828   1.01101   1.01833   1.03293   1.03780
 Alpha virt. eigenvalues --    1.04572   1.04617   1.14728   1.15113   1.15881
 Alpha virt. eigenvalues --    1.17459   1.18944   1.19825   1.22310   1.26123
 Alpha virt. eigenvalues --    1.27680   1.32556   1.35090   1.38843   1.45263
 Alpha virt. eigenvalues --    1.46739   1.49454   1.51836   1.52384   1.53217
 Alpha virt. eigenvalues --    1.54156   1.54422   1.63726   1.72079   1.72332
 Alpha virt. eigenvalues --    1.73992   1.74444   1.91810   1.97968   2.07225
 Alpha virt. eigenvalues --    2.09567   2.13972   2.16571   2.17859   2.19259
 Alpha virt. eigenvalues --    2.21325   2.24535   2.27570   2.27668   2.28369
 Alpha virt. eigenvalues --    2.28641   2.29247   2.30082   2.32198   2.32569
 Alpha virt. eigenvalues --    2.32722   2.33759   2.34183   2.35529   2.36267
 Alpha virt. eigenvalues --    2.36668   2.37179   2.38099   2.39459   2.41001
 Alpha virt. eigenvalues --    2.41320   2.42609   2.43367   2.46341   2.46717
 Alpha virt. eigenvalues --    2.53209   2.53772   2.55175   2.56997   2.59816
 Alpha virt. eigenvalues --    2.61973   2.68493   2.70469   2.71440   2.89772
 Alpha virt. eigenvalues --    2.92439   2.93429   3.08378   3.29887   3.38758
 Alpha virt. eigenvalues --    3.58770   3.64335   3.65026   3.66836   3.76044
 Alpha virt. eigenvalues --    3.77504   3.83985   3.87899   3.89312   4.05670
 Alpha virt. eigenvalues --    4.06266   4.13643   4.17418   4.19654   5.05834
 Alpha virt. eigenvalues --    5.09738   6.47796   9.55786
          Condensed to atoms (all electrons):
               1          2          3          4
     1  C    6.359328  -0.040583  -0.082894  -0.082894
     2  S   -0.040583  16.455054  -0.188002  -0.188002
     3  Br  -0.082894  -0.188002  35.312865  -0.137681
     4  Br  -0.082894  -0.188002  -0.137681  35.312865
 Mulliken charges:
               1
     1  C   -0.152957
     2  S   -0.038467
     3  Br   0.095712
     4  Br   0.095712
 Sum of Mulliken charges =  -0.00000
 Mulliken charges with hydrogens summed into heavy atoms:
               1
     1  C   -0.152957
     2  S   -0.038467
     3  Br   0.095712
     4  Br   0.095712
 Electronic spatial extent (au):  <R**2>=           1431.4891
 Charge=             -0.0000 electrons
 Dipole moment (field-independent basis, Debye):
    X=             -0.0000    Y=              0.0000    Z=             -0.3952  Tot=              0.3952
 Quadrupole moment (field-independent basis, Debye-Ang):
   XX=            -54.9470   YY=            -53.9199   ZZ=            -53.7769
   XY=              0.0000   XZ=              0.0000   YZ=             -0.0000
 Traceless Quadrupole moment (field-independent basis, Debye-Ang):
   XX=             -0.7324   YY=              0.2947   ZZ=              0.4377
   XY=              0.0000   XZ=              0.0000   YZ=             -0.0000
 Octapole moment (field-independent basis, Debye-Ang**2):
  XXX=             -0.0000  YYY=              0.0000  ZZZ=            141.2466  XYY=             -0.0000
  XXY=             -0.0000  XXZ=             47.8256  XZZ=             -0.0000  YZZ=              0.0000
  YYZ=             35.5142  XYZ=              0.0000
 Hexadecapole moment (field-independent basis, Debye-Ang**3):
 XXXX=            -67.2223 YYYY=           -573.5044 ZZZZ=           -699.9737 XXXY=             -0.0000
 XXXZ=              0.0000 YYYX=             -0.0000 YYYZ=             -0.0000 ZZZX=              0.0000
 ZZZY=             -0.0000 XXYY=           -113.6410 XXZZ=           -130.4622 YYZZ=           -194.9796
 XXYZ=              0.0000 YYXZ=              0.0000 ZZXY=             -0.0000
 N-N= 5.474220652952D+02 E-N=-1.443608693775D+04  KE= 5.579858561245D+03
 There are a total of      107126 grid points.
 ElSum from          density=       92.0000017458
 ElSum from atomic densities=       92.0000006902

 Hirshfeld populations at iteration   1 (CX, CA, CB, DipXYZ):
               1          2          3          4          5          6
     1  C    0.000001   2.982857   2.982857   0.000000   0.000000  -0.109083
     2  S    0.000013   8.024867   8.024867   0.000000   0.000000   0.164556
     3  Br   0.000023  17.496139  17.496139  -0.000000  -0.062114  -0.015017
     4  Br   0.000023  17.496139  17.496139  -0.000000   0.062114  -0.015017
       Tot   0.000061  46.000001  46.000001  -0.000000   0.000000   0.025438

 Dip from Atomic Chgs              0.000000   0.000000  -0.180932
         Total Dipole             -0.000000   0.000000  -0.155493

 Hirshfeld charges, spin densities, dipoles, and CM5 charges using IRadAn=      5:
              Q-H        S-H        Dx         Dy         Dz        Q-CM5   
     1  C    0.034287   0.000000   0.000000   0.000000  -0.109083   0.025581
     2  S   -0.049734   0.000000   0.000000   0.000000   0.164556  -0.074815
     3  Br   0.007723   0.000000  -0.000000  -0.062114  -0.015017   0.024616
     4  Br   0.007723   0.000000  -0.000000   0.062114  -0.015017   0.024616
       Tot  -0.000002   0.000000  -0.000000   0.000000   0.025438  -0.000002
 Hirshfeld charges with hydrogens summed into heavy atoms:
              Q-H       Q-CM5   
     1  C    0.034287   0.025581
     2  S   -0.049734  -0.074815
     3  Br   0.007723   0.024616
     4  Br   0.007723   0.024616
 
 EQQ= 0.000000000000E+00 EQD= 0.000000000000E+00 EDD=-0.629107012570E-03
 EQQ+QD+DD=-0.629107012570E-03
 
 Breneman (CHELPG) radii used.
 GetVDW:  no radius for atom   3 atomic number  35.
 Error termination via Lnk1e in /home/wagner/chemistry/gaussian/g16/l602.exe at Mon Sep  5 20:30:51 2022.
 Job cpu time:       0 days 14 hours 28 minutes 18.3 seconds.
 Elapsed time:       0 days  0 hours 54 minutes 49.4 seconds.
 File lengths (MBytes):  RWF=  31411 Int=      0 D2E=      0 Chk=      2 Scr=      1
