 Entering Gaussian System, Link 0=/home/bruns/programas/chemistry/gaussian/g09/g09
 Input=./f2co/f2co-opt.com
 Output=./f2co/f2co-opt.log
 Initial command:
 /home/bruns/programas/chemistry/gaussian/g09/l1.exe /home/bruns/programas/chemistry/gaussian/work/Gau-59386.inp -scrdir=/home/bruns/programas/chemistry/gaussian/work/
 Entering Link 1 = /home/bruns/programas/chemistry/gaussian/g09/l1.exe PID=     59388.
  
 Copyright (c) 1988,1990,1992,1993,1995,1998,2003,2009,2010,
            Gaussian, Inc.  All Rights Reserved.
  
 This is part of the Gaussian(R) 09 program.  It is based on
 the Gaussian(R) 03 system (copyright 2003, Gaussian, Inc.),
 the Gaussian(R) 98 system (copyright 1998, Gaussian, Inc.),
 the Gaussian(R) 94 system (copyright 1995, Gaussian, Inc.),
 the Gaussian 92(TM) system (copyright 1992, Gaussian, Inc.),
 the Gaussian 90(TM) system (copyright 1990, Gaussian, Inc.),
 the Gaussian 88(TM) system (copyright 1988, Gaussian, Inc.),
 the Gaussian 86(TM) system (copyright 1986, Carnegie Mellon
 University), and the Gaussian 82(TM) system (copyright 1983,
 Carnegie Mellon University). Gaussian is a federally registered
 trademark of Gaussian, Inc.
  
 This software contains proprietary and confidential information,
 including trade secrets, belonging to Gaussian, Inc.
  
 This software is provided under written license and may be
 used, copied, transmitted, or stored only in accord with that
 written license.
  
 The following legend is applicable only to US Government
 contracts under FAR:
  
                    RESTRICTED RIGHTS LEGEND
  
 Use, reproduction and disclosure by the US Government is
 subject to restrictions as set forth in subparagraphs (a)
 and (c) of the Commercial Computer Software - Restricted
 Rights clause in FAR 52.227-19.
  
 Gaussian, Inc.
 340 Quinnipiac St., Bldg. 40, Wallingford CT 06492
  
  
 ---------------------------------------------------------------
 Warning -- This program may not be used in any manner that
 competes with the business of Gaussian, Inc. or will provide
 assistance to any competitor of Gaussian, Inc.  The licensee
 of this program is prohibited from giving any competitor of
 Gaussian, Inc. access to this program.  By using this program,
 the user acknowledges that Gaussian, Inc. is engaged in the
 business of creating and licensing software in the field of
 computational chemistry and represents and warrants to the
 licensee that it is not a competitor of Gaussian, Inc. and that
 it will not use this program in any manner prohibited above.
 ---------------------------------------------------------------
  

 Cite this work as:
 Gaussian 09, Revision B.01,
 M. J. Frisch, G. W. Trucks, H. B. Schlegel, G. E. Scuseria, 
 M. A. Robb, J. R. Cheeseman, G. Scalmani, V. Barone, B. Mennucci, 
 G. A. Petersson, H. Nakatsuji, M. Caricato, X. Li, H. P. Hratchian, 
 A. F. Izmaylov, J. Bloino, G. Zheng, J. L. Sonnenberg, M. Hada, 
 M. Ehara, K. Toyota, R. Fukuda, J. Hasegawa, M. Ishida, T. Nakajima, 
 Y. Honda, O. Kitao, H. Nakai, T. Vreven, J. A. Montgomery, Jr., 
 J. E. Peralta, F. Ogliaro, M. Bearpark, J. J. Heyd, E. Brothers, 
 K. N. Kudin, V. N. Staroverov, T. Keith, R. Kobayashi, J. Normand, 
 K. Raghavachari, A. Rendell, J. C. Burant, S. S. Iyengar, J. Tomasi, 
 M. Cossi, N. Rega, J. M. Millam, M. Klene, J. E. Knox, J. B. Cross, 
 V. Bakken, C. Adamo, J. Jaramillo, R. Gomperts, R. E. Stratmann, 
 O. Yazyev, A. J. Austin, R. Cammi, C. Pomelli, J. W. Ochterski, 
 R. L. Martin, K. Morokuma, V. G. Zakrzewski, G. A. Voth, 
 P. Salvador, J. J. Dannenberg, S. Dapprich, A. D. Daniels, 
 O. Farkas, J. B. Foresman, J. V. Ortiz, J. Cioslowski, 
 and D. J. Fox, Gaussian, Inc., Wallingford CT, 2010.
 
 ******************************************
 Gaussian 09:  EM64L-G09RevB.01 12-Aug-2010
                16-Nov-2021 
 ******************************************
 %nproc=8
 Will use up to    8 processors via shared memory.
 %mem=8GB
 --------------------------------------------
 #opt qcisd/aug-cc-pvtz density=current nosym
 --------------------------------------------
 1/18=20,19=15,38=1/1,3;
 2/9=110,12=2,15=1,17=6,18=5,40=1/2;
 3/5=16,6=1,7=10,11=9,16=1,25=1,30=1,71=1/1,2,3;
 4//1;
 5/5=2,38=5/2;
 8/6=4,9=120000,10=1/1,4;
 9/5=8,15=1/13;
 11/28=-7,29=200,31=1,42=3/11;
 10/5=6,31=1/2;
 6/7=2,8=2,9=2,10=2,22=-1/1;
 7/12=7,30=1/1,2,3,16;
 1/18=20,19=15/3(2);
 2/9=110,15=1/2;
 99//99;
 2/9=110,15=1/2;
 3/5=16,6=1,7=10,11=9,16=1,25=1,30=1,71=1/1,2,3;
 4/5=5,16=3/1;
 5/5=2,38=5/2;
 8/6=4,9=120000,10=1/1,4;
 9/5=8,15=1/13;
 11/28=-7,29=200,31=1,42=3/11;
 10/5=6,31=1/2;
 7/12=7,30=1/1,2,3,16;
 1/18=20,19=15/3(-9);
 2/9=110,15=1/2;
 6/7=2,8=2,9=2,10=2,22=-1/1;
 99//99;
 ----
 f2co
 ----
 Symbolic Z-matrix:
 Charge =  0 Multiplicity = 1
 O                     0.        0.        0.69608 
 C                     0.        0.       -0.56233 
 F                     0.       -1.16913  -1.23733 
 F                     0.        1.16913  -1.23733 
 

 GradGradGradGradGradGradGradGradGradGradGradGradGradGradGradGradGradGrad
 Berny optimization.
 Initialization pass.
                           ----------------------------
                           !    Initial Parameters    !
                           ! (Angstroms and Degrees)  !
 --------------------------                            --------------------------
 ! Name  Definition              Value          Derivative Info.                !
 --------------------------------------------------------------------------------
 ! R1    R(1,2)                  1.2584         estimate D2E/DX2                !
 ! R2    R(2,3)                  1.35           estimate D2E/DX2                !
 ! R3    R(2,4)                  1.35           estimate D2E/DX2                !
 ! A1    A(1,2,3)              120.0            estimate D2E/DX2                !
 ! A2    A(1,2,4)              120.0            estimate D2E/DX2                !
 ! A3    A(3,2,4)              120.0            estimate D2E/DX2                !
 ! D1    D(1,2,4,3)            180.0            estimate D2E/DX2                !
 --------------------------------------------------------------------------------
 Trust Radius=3.00D-01 FncErr=1.00D-07 GrdErr=1.00D-07
 Number of steps in this run=     20 maximum allowed number of steps=    100.
 GradGradGradGradGradGradGradGradGradGradGradGradGradGradGradGradGradGrad

                          Input orientation:                          
 ---------------------------------------------------------------------
 Center     Atomic      Atomic             Coordinates (Angstroms)
 Number     Number       Type             X           Y           Z
 ---------------------------------------------------------------------
      1          8           0        0.000000    0.000000    0.696075
      2          6           0        0.000000    0.000000   -0.562325
      3          9           0        0.000000   -1.169134   -1.237325
      4          9           0        0.000000    1.169134   -1.237325
 ---------------------------------------------------------------------
                    Distance matrix (angstroms):
                    1          2          3          4
     1  O    0.000000
     2  C    1.258400   0.000000
     3  F    2.259405   1.350000   0.000000
     4  F    2.259405   1.350000   2.338269   0.000000
 Symmetry turned off by external request.
 Stoichiometry    CF2O
 Framework group  C2V[C2(CO),SGV(F2)]
 Deg. of freedom     3
 Full point group                 C2V     NOp   4
 Rotational constants (GHZ):     11.9815790      9.7306377      5.3697145
 Standard basis: Aug-CC-pVTZ (5D, 7F)
 Integral buffers will be    131072 words long.
 Raffenetti 1 integral format.
 Two-electron integral symmetry is turned off.
   184 basis functions,   288 primitive gaussians,   220 cartesian basis functions
    16 alpha electrons       16 beta electrons
       nuclear repulsion energy       114.5765428214 Hartrees.
 NAtoms=    4 NActive=    4 NUniq=    4 SFac= 1.00D+00 NAtFMM=   50 NAOKFM=F Big=F
 One-electron integrals computed using PRISM.
 NBasis=   184 RedAO= T  NBF=   184
 NBsUse=   184 1.00D-06 NBFU=   184
 Harris functional with IExCor=  205 diagonalized for initial guess.
 ExpMin= 3.57D-02 ExpMax= 1.95D+04 ExpMxC= 6.65D+02 IAcc=3 IRadAn=         0 AccDes= 0.00D+00
 HarFok:  IExCor=  205 AccDes= 0.00D+00 IRadAn=         0 IDoV= 1
 ScaDFX=  1.000000  1.000000  1.000000  1.000000
 FoFCou: FMM=F IPFlag=           0 FMFlag=      100000 FMFlg1=           0
         NFxFlg=           0 DoJE=T BraDBF=F KetDBF=T FulRan=T
         Omega=  0.000000  0.000000  1.000000  0.000000  0.000000 ICntrl=     500 IOpCl=  0
         NMat0=    1 NMatS0=    1 NMatT0=    0 NMatD0=    1 NMtDS0=    0 NMtDT0=    0
         I1Cent=           4 NGrid=           0.
 Symmetry not used in FoFCou.
 Requested convergence on RMS density matrix=1.00D-08 within 128 cycles.
 Requested convergence on MAX density matrix=1.00D-06.
 Requested convergence on             energy=1.00D-06.
 No special actions if energy rises.
 Keep R1 ints in memory in canonical form, NReq=301063473.
 SCF Done:  E(RHF) =  -311.704122540     A.U. after   11 cycles
             Convg  =    0.8033D-08             -V/T =  2.0032
 ExpMin= 3.57D-02 ExpMax= 1.95D+04 ExpMxC= 6.65D+02 IAcc=3 IRadAn=         5 AccDes= 0.00D+00
 HarFok:  IExCor=  205 AccDes= 0.00D+00 IRadAn=         5 IDoV=-2
 ScaDFX=  1.000000  1.000000  1.000000  1.000000
 DSYEVD returned Info=          93 IAlg= 4 N=    46 NDim=    46 NE2=    23339802 trying DSYEV.
 DSYEVD returned Info=          93 IAlg= 4 N=    46 NDim=    46 NE2=    23339802 trying DSYEV.
 Range of M.O.s used for correlation:     5   184
 NBasis=   184 NAE=    16 NBE=    16 NFC=     4 NFV=     0
 NROrb=    180 NOA=    12 NOB=    12 NVA=   168 NVB=   168

 **** Warning!!: The largest alpha MO coefficient is  0.15570773D+02

 Semi-Direct transformation.
 ModeAB=           2 MOrb=            12 LenV=    1072786245
 LASXX=     33405819 LTotXX=    33405819 LenRXX=    33405819
 LTotAB=    33954012 MaxLAS=    52509600 LenRXY=    52509600
 NonZer=    66811638 LenScr=   100987392 LnRSAI=           0
 LnScr1=           0 LExtra=           0 Total=    186902811
 MaxDsk=          -1 SrtSym=           F ITran=            4
 JobTyp=0 Pass  1:  I=   1 to  12.
 (rs|ai) integrals will be sorted in core.
 Spin components of T(2) and E(2):
     alpha-alpha T2 =       0.2848398462D-01 E2=     -0.1210665119D+00
     alpha-beta  T2 =       0.1482002179D+00 E2=     -0.6702769405D+00
     beta-beta   T2 =       0.2848398462D-01 E2=     -0.1210665119D+00
 ANorm=    0.1097801524D+01
 E2 =    -0.9124099642D+00 EUMP2 =    -0.31261653250456D+03
 R2 and R3 integrals will be kept in memory, NReq=   596397230.
 Iterations=  50 Convergence= 0.100D-07
 Iteration Nr.   1
 **********************
 DD1Dir will call FoFMem   1 times, MxPair=       156
 NAB=    78 NAA=     0 NBB=     0.
 MP4(R+Q)=  0.17678750D-01
 E3=        0.18145609D-01        EUMP3=      -0.31259838690D+03
 E4(DQ)=   -0.53145181D-03        UMP4(DQ)=   -0.31259891835D+03
 E4(SDQ)=  -0.14556135D-01        UMP4(SDQ)=  -0.31261294303D+03
 DE(Corr)= -0.87658560     E(Corr)=     -312.58070815    
 NORM(A)=   0.10913400D+01
 Iteration Nr.   2
 **********************
 DD1Dir will call FoFMem   1 times, MxPair=       156
 NAB=    78 NAA=     0 NBB=     0.
 DE(Corr)= -0.90730761     E(CORR)=     -312.61143015     Delta=-3.07D-02
 NORM(A)=   0.11002169D+01
 Iteration Nr.   3
 **********************
 DD1Dir will call FoFMem   1 times, MxPair=       156
 NAB=    78 NAA=     0 NBB=     0.
 DE(Corr)= -0.90454276     E(CORR)=     -312.60866530     Delta= 2.76D-03
 NORM(A)=   0.11034134D+01
 Iteration Nr.   4
 **********************
 DD1Dir will call FoFMem   1 times, MxPair=       156
 NAB=    78 NAA=     0 NBB=     0.
 DE(Corr)= -0.90756661     E(CORR)=     -312.61168915     Delta=-3.02D-03
 NORM(A)=   0.11046897D+01
 Iteration Nr.   5
 **********************
 DD1Dir will call FoFMem   1 times, MxPair=       156
 NAB=    78 NAA=     0 NBB=     0.
 DE(Corr)= -0.90796951     E(CORR)=     -312.61209205     Delta=-4.03D-04
 NORM(A)=   0.11050165D+01
 Iteration Nr.   6
 **********************
 DD1Dir will call FoFMem   1 times, MxPair=       156
 NAB=    78 NAA=     0 NBB=     0.
 DE(Corr)= -0.90801330     E(CORR)=     -312.61213584     Delta=-4.38D-05
 NORM(A)=   0.11050516D+01
 Iteration Nr.   7
 **********************
 DD1Dir will call FoFMem   1 times, MxPair=       156
 NAB=    78 NAA=     0 NBB=     0.
 DE(Corr)= -0.90801698     E(CORR)=     -312.61213952     Delta=-3.69D-06
 NORM(A)=   0.11050511D+01
 Iteration Nr.   8
 **********************
 DD1Dir will call FoFMem   1 times, MxPair=       156
 NAB=    78 NAA=     0 NBB=     0.
 DE(Corr)= -0.90801630     E(CORR)=     -312.61213884     Delta= 6.82D-07
 NORM(A)=   0.11050537D+01
 Iteration Nr.   9
 **********************
 DD1Dir will call FoFMem   1 times, MxPair=       156
 NAB=    78 NAA=     0 NBB=     0.
 DE(Corr)= -0.90801579     E(CORR)=     -312.61213833     Delta= 5.12D-07
 NORM(A)=   0.11050536D+01
 Iteration Nr.  10
 **********************
 DD1Dir will call FoFMem   1 times, MxPair=       156
 NAB=    78 NAA=     0 NBB=     0.
 DE(Corr)= -0.90801614     E(CORR)=     -312.61213869     Delta=-3.54D-07
 NORM(A)=   0.11050542D+01
 Iteration Nr.  11
 **********************
 DD1Dir will call FoFMem   1 times, MxPair=       156
 NAB=    78 NAA=     0 NBB=     0.
 DE(Corr)= -0.90801647     E(CORR)=     -312.61213901     Delta=-3.22D-07
 NORM(A)=   0.11050547D+01
 Iteration Nr.  12
 **********************
 DD1Dir will call FoFMem   1 times, MxPair=       156
 NAB=    78 NAA=     0 NBB=     0.
 DE(Corr)= -0.90801669     E(CORR)=     -312.61213923     Delta=-2.23D-07
 NORM(A)=   0.11050550D+01
 Iteration Nr.  13
 **********************
 DD1Dir will call FoFMem   1 times, MxPair=       156
 NAB=    78 NAA=     0 NBB=     0.
 DE(Corr)= -0.90801678     E(CORR)=     -312.61213932     Delta=-8.52D-08
 NORM(A)=   0.11050552D+01
 Iteration Nr.  14
 **********************
 DD1Dir will call FoFMem   1 times, MxPair=       156
 NAB=    78 NAA=     0 NBB=     0.
 DE(Corr)= -0.90801683     E(CORR)=     -312.61213937     Delta=-5.84D-08
 NORM(A)=   0.11050553D+01
 Iteration Nr.  15
 **********************
 DD1Dir will call FoFMem   1 times, MxPair=       156
 NAB=    78 NAA=     0 NBB=     0.
 DE(Corr)= -0.90801684     E(CORR)=     -312.61213938     Delta=-1.62D-09
 NORM(A)=   0.11050553D+01
 Iteration Nr.  16
 **********************
 DD1Dir will call FoFMem   1 times, MxPair=       156
 NAB=    78 NAA=     0 NBB=     0.
 DE(Corr)= -0.90801684     E(CORR)=     -312.61213938     Delta=-7.17D-09
 NORM(A)=   0.11050553D+01
 Iteration Nr.  17
 **********************
 DD1Dir will call FoFMem   1 times, MxPair=       156
 NAB=    78 NAA=     0 NBB=     0.
 DE(Corr)= -0.90801684     E(CORR)=     -312.61213938     Delta= 8.72D-10
 NORM(A)=   0.11050553D+01
 Largest amplitude= 8.36D-02

 Z-AMPLITUDE ITERATIONS

 Iteration Nr.   1
 **********************
 DD1Dir will call FoFMem   1 times, MxPair=       156
 NAB=    78 NAA=     0 NBB=     0.
 DE(Z)  -0.88611293D+00          E(Z)=    -0.31259023547D+03
 NORM(A)=   0.11050629D+01
 Iteration Nr.   2
 **********************
 DD1Dir will call FoFMem   1 times, MxPair=       156
 NAB=    78 NAA=     0 NBB=     0.
 DE(Z)  -0.88611268D+00          E(Z)=    -0.31259023522D+03
 NORM(A)=   0.11050631D+01
 Iteration Nr.   3
 **********************
 DD1Dir will call FoFMem   1 times, MxPair=       156
 NAB=    78 NAA=     0 NBB=     0.
 DE(Z)  -0.88611281D+00          E(Z)=    -0.31259023535D+03
 NORM(A)=   0.11050498D+01
 Iteration Nr.   4
 **********************
 DD1Dir will call FoFMem   1 times, MxPair=       156
 NAB=    78 NAA=     0 NBB=     0.
 DE(Z)  -0.88611306D+00          E(Z)=    -0.31259023560D+03
 NORM(A)=   0.11050379D+01
 Iteration Nr.   5
 **********************
 DD1Dir will call FoFMem   1 times, MxPair=       156
 NAB=    78 NAA=     0 NBB=     0.
 DE(Z)  -0.88611320D+00          E(Z)=    -0.31259023574D+03
 NORM(A)=   0.10994549D+01
 Iteration Nr.   6
 **********************
 DD1Dir will call FoFMem   1 times, MxPair=       156
 NAB=    78 NAA=     0 NBB=     0.
 DE(Z)  -0.88621047D+00          E(Z)=    -0.31259033301D+03
 NORM(A)=   0.10994549D+01
 Iteration Nr.   7
 **********************
 DD1Dir will call FoFMem   1 times, MxPair=       156
 NAB=    78 NAA=     0 NBB=     0.
 DE(Z)  -0.88620324D+00          E(Z)=    -0.31259032578D+03
 NORM(A)=   0.10994540D+01
 Iteration Nr.   8
 **********************
 DD1Dir will call FoFMem   1 times, MxPair=       156
 NAB=    78 NAA=     0 NBB=     0.
 DE(Z)  -0.88620532D+00          E(Z)=    -0.31259032786D+03
 NORM(A)=   0.10994539D+01
 Iteration Nr.   9
 **********************
 DD1Dir will call FoFMem   1 times, MxPair=       156
 NAB=    78 NAA=     0 NBB=     0.
 DE(Z)  -0.88620523D+00          E(Z)=    -0.31259032777D+03
 NORM(A)=   0.10994543D+01
 Iteration Nr.  10
 **********************
 DD1Dir will call FoFMem   1 times, MxPair=       156
 NAB=    78 NAA=     0 NBB=     0.
 DE(Z)  -0.88620508D+00          E(Z)=    -0.31259032762D+03
 NORM(A)=   0.10994546D+01
 Iteration Nr.  11
 **********************
 DD1Dir will call FoFMem   1 times, MxPair=       156
 NAB=    78 NAA=     0 NBB=     0.
 DE(Z)  -0.88620528D+00          E(Z)=    -0.31259032782D+03
 NORM(A)=   0.10994546D+01
 Iteration Nr.  12
 **********************
 DD1Dir will call FoFMem   1 times, MxPair=       156
 NAB=    78 NAA=     0 NBB=     0.
 DE(Z)  -0.88620528D+00          E(Z)=    -0.31259032782D+03
 NORM(A)=   0.10994546D+01
 Iteration Nr.  13
 **********************
 DD1Dir will call FoFMem   1 times, MxPair=       156
 NAB=    78 NAA=     0 NBB=     0.
 DE(Z)  -0.88620528D+00          E(Z)=    -0.31259032782D+03
 NORM(A)=   0.10994546D+01
 Iteration Nr.  14
 **********************
 DD1Dir will call FoFMem   1 times, MxPair=       156
 NAB=    78 NAA=     0 NBB=     0.
 DE(Z)  -0.88620529D+00          E(Z)=    -0.31259032783D+03
 NORM(A)=   0.10994546D+01
 Discarding MO integrals.
          IDoAtm=1111
          Differentiating once with respect to electric field.
                with respect to dipole field.
          Differentiating once with respect to nuclear coordinates.
          Keep R1 ints in memory in canonical form, NReq=297441390.
          There are     1 degrees of freedom in the 1st order CPHF.  IDoFFX=0.
 LinEq1:  Iter=  0 NonCon=     1 RMS=3.36D-03 Max=9.10D-02
 AX will form     1 AO Fock derivatives at one time.
 LinEq1:  Iter=  1 NonCon=     1 RMS=9.06D-04 Max=1.52D-02
 LinEq1:  Iter=  2 NonCon=     1 RMS=2.94D-04 Max=4.70D-03
 LinEq1:  Iter=  3 NonCon=     1 RMS=1.37D-04 Max=1.76D-03
 LinEq1:  Iter=  4 NonCon=     1 RMS=4.18D-05 Max=1.17D-03
 LinEq1:  Iter=  5 NonCon=     1 RMS=1.92D-05 Max=3.06D-04
 LinEq1:  Iter=  6 NonCon=     1 RMS=5.86D-06 Max=1.43D-04
 LinEq1:  Iter=  7 NonCon=     1 RMS=1.12D-06 Max=1.70D-05
 LinEq1:  Iter=  8 NonCon=     1 RMS=1.73D-07 Max=1.93D-06
 LinEq1:  Iter=  9 NonCon=     1 RMS=2.85D-08 Max=2.80D-07
 LinEq1:  Iter= 10 NonCon=     1 RMS=5.51D-09 Max=7.06D-08
 LinEq1:  Iter= 11 NonCon=     1 RMS=1.03D-09 Max=1.42D-08
 LinEq1:  Iter= 12 NonCon=     1 RMS=1.23D-10 Max=1.38D-09
 LinEq1:  Iter= 13 NonCon=     0 RMS=1.56D-11 Max=1.96D-10
 Linear equations converged to 1.000D-10 1.000D-09 after    13 iterations.
 End of Minotr Frequency-dependent properties file   721 does not exist.
 End of Minotr Frequency-dependent properties file   722 does not exist.

 **********************************************************************

            Population analysis using the QCI/CC density.

 **********************************************************************

 Alpha  occ. eigenvalues --  -26.41050 -26.41048 -20.62043 -11.56146  -1.74293
 Alpha  occ. eigenvalues --   -1.69430  -1.41827  -0.95365  -0.86135  -0.80686
 Alpha  occ. eigenvalues --   -0.79852  -0.74025  -0.72765  -0.67917  -0.54535
 Alpha  occ. eigenvalues --   -0.54006
 Alpha virt. eigenvalues --    0.05116   0.07199   0.07861   0.07937   0.11377
 Alpha virt. eigenvalues --    0.17131   0.17395   0.19192   0.19744   0.20897
 Alpha virt. eigenvalues --    0.22643   0.25725   0.26433   0.26816   0.27955
 Alpha virt. eigenvalues --    0.30601   0.33494   0.34960   0.38943   0.39711
 Alpha virt. eigenvalues --    0.40412   0.47991   0.49739   0.51681   0.53202
 Alpha virt. eigenvalues --    0.59553   0.63552   0.67579   0.69746   0.79787
 Alpha virt. eigenvalues --    0.80872   0.82961   0.83471   0.92379   0.94224
 Alpha virt. eigenvalues --    0.97508   0.97714   0.99017   1.00794   1.04340
 Alpha virt. eigenvalues --    1.08407   1.09383   1.09751   1.09764   1.12315
 Alpha virt. eigenvalues --    1.14277   1.17278   1.23235   1.24397   1.25476
 Alpha virt. eigenvalues --    1.28048   1.30916   1.32149   1.35204   1.49889
 Alpha virt. eigenvalues --    1.51612   1.52308   1.57025   1.59961   1.61282
 Alpha virt. eigenvalues --    1.65043   1.73001   1.75744   1.85962   2.06711
 Alpha virt. eigenvalues --    2.16489   2.20443   2.25780   2.27601   2.37595
 Alpha virt. eigenvalues --    2.38243   2.41592   2.47087   2.58663   2.61554
 Alpha virt. eigenvalues --    2.61750   2.61893   2.73258   2.74351   2.76921
 Alpha virt. eigenvalues --    2.77897   2.81230   2.85838   2.86036   2.91124
 Alpha virt. eigenvalues --    2.91751   2.92015   2.95428   3.05114   3.05864
 Alpha virt. eigenvalues --    3.06348   3.10095   3.11515   3.11850   3.22973
 Alpha virt. eigenvalues --    3.26093   3.35143   3.35917   3.41228   3.47020
 Alpha virt. eigenvalues --    3.52939   3.54376   3.55439   3.70392   3.78500
 Alpha virt. eigenvalues --    3.87874   3.88514   3.92118   3.96451   4.02323
 Alpha virt. eigenvalues --    4.12024   4.13249   4.18308   4.43545   4.46945
 Alpha virt. eigenvalues --    4.51132   4.64197   4.68836   4.80600   4.98862
 Alpha virt. eigenvalues --    5.13764   5.39828   5.41677   5.44227   5.47962
 Alpha virt. eigenvalues --    6.06069   6.56812   6.57921   6.61654   6.83447
 Alpha virt. eigenvalues --    6.96916   6.97919   6.98697   7.14110   7.16113
 Alpha virt. eigenvalues --    7.34188   7.35041   7.48929   7.65787   7.69340
 Alpha virt. eigenvalues --    8.79369   8.81840   8.82019   8.82274   8.98938
 Alpha virt. eigenvalues --    9.01943   9.07573   9.12908   9.15054   9.19028
 Alpha virt. eigenvalues --    9.21272   9.23753   9.29206   9.30517   9.33210
 Alpha virt. eigenvalues --    9.33797   9.36105   9.50784   9.52424   9.54436
 Alpha virt. eigenvalues --    9.59238   9.78639   9.84859   9.84895  12.93331
 Alpha virt. eigenvalues --   14.08093  14.30397  16.79805
          Condensed to atoms (all electrons):
              1          2          3          4
     1  O    7.974662   0.464119  -0.061020  -0.061020
     2  C    0.464119   4.546495   0.183272   0.183272
     3  F   -0.061020   0.183272   9.051995  -0.021196
     4  F   -0.061020   0.183272  -0.021196   9.051995
 Mulliken atomic charges:
              1
     1  O   -0.316741
     2  C    0.622842
     3  F   -0.153050
     4  F   -0.153050
 Sum of Mulliken atomic charges =   0.00000
 Mulliken charges with hydrogens summed into heavy atoms:
              1
     1  O   -0.316741
     2  C    0.622842
     3  F   -0.153050
     4  F   -0.153050
 Sum of Mulliken charges with hydrogens summed into heavy atoms =   0.00000
 Electronic spatial extent (au):  <R**2>=            253.2292
 Charge=              0.0000 electrons
 Dipole moment (field-independent basis, Debye):
    X=              0.0000    Y=              0.0000    Z=             -1.5046  Tot=              1.5046
 Quadrupole moment (field-independent basis, Debye-Ang):
   XX=            -19.2412   YY=            -21.5019   ZZ=            -21.5868
   XY=              0.0000   XZ=              0.0000   YZ=              0.0000
 Traceless Quadrupole moment (field-independent basis, Debye-Ang):
   XX=              1.5354   YY=             -0.7253   ZZ=             -0.8102
   XY=              0.0000   XZ=              0.0000   YZ=              0.0000
 Octapole moment (field-independent basis, Debye-Ang**2):
  XXX=              0.0000  YYY=              0.0000  ZZZ=             33.9361  XYY=              0.0000
  XXY=              0.0000  XXZ=             10.2917  XZZ=              0.0000  YZZ=              0.0000
  YYZ=             11.7841  XYZ=              0.0000
 Hexadecapole moment (field-independent basis, Debye-Ang**3):
 XXXX=            -14.1080 YYYY=            -92.7867 ZZZZ=           -132.0214 XXXY=              0.0000
 XXXZ=              0.0000 YYYX=              0.0000 YYYZ=              0.0000 ZZZX=              0.0000
 ZZZY=              0.0000 XXYY=            -18.1543 XXZZ=            -23.5464 YYZZ=            -38.5980
 XXYZ=              0.0000 YYXZ=              0.0000 ZZXY=              0.0000
 N-N= 1.145765428214D+02 E-N=-9.707959617169D+02  KE= 3.118487762982D+02
 Calling FoFJK, ICntrl=      2127 FMM=F ISym2X=0 I1Cent= 0 IOpClX= 0 NMat=1 NMatS=1 NMatT=0.
 -------------------------------------------------------------------
 Center     Atomic                   Forces (Hartrees/Bohr)
 Number     Number              X              Y              Z
 -------------------------------------------------------------------
      1        8           0.000000000    0.000000000   -0.116922008
      2        6           0.000000000    0.000000000    0.120046653
      3        9           0.000000000    0.055488406   -0.001562323
      4        9           0.000000000   -0.055488406   -0.001562323
 -------------------------------------------------------------------
 Cartesian Forces:  Max     0.120046653 RMS     0.053420317

 GradGradGradGradGradGradGradGradGradGradGradGradGradGradGradGradGradGrad
 Berny optimization.
 Internal  Forces:  Max     0.116922008 RMS     0.055823371
 Search for a local minimum.
 Step number   1 out of a maximum of   20
 All quantities printed in internal units (Hartrees-Bohrs-Radians)
 Mixed Optimization -- RFO/linear search
 Second derivative matrix not updated -- first step.
 The second derivative matrix:
                          R1        R2        R3        A1        A2
           R1           0.80209
           R2           0.00000   0.55021
           R3           0.00000   0.00000   0.55021
           A1           0.00000   0.00000   0.00000   0.25000
           A2           0.00000   0.00000   0.00000   0.00000   0.25000
           A3           0.00000   0.00000   0.00000   0.00000   0.00000
           D1           0.00000   0.00000   0.00000   0.00000   0.00000
                          A3        D1
           A3           0.25000
           D1           0.00000   0.02089
 ITU=  0
     Eigenvalues ---    0.02089   0.25000   0.25000   0.55021   0.55021
     Eigenvalues ---    0.80209
 RFO step:  Lambda=-3.67245571D-02 EMin= 2.08853423D-02
 Linear search not attempted -- first point.
 Iteration  1 RMS(Cart)=  0.10750660 RMS(Int)=  0.00575167
 Iteration  2 RMS(Cart)=  0.00471356 RMS(Int)=  0.00001044
 Iteration  3 RMS(Cart)=  0.00001285 RMS(Int)=  0.00000000
 Iteration  4 RMS(Cart)=  0.00000000 RMS(Int)=  0.00000000
 Variable       Old X    -DE/DX   Delta X   Delta X   Delta X     New X
                                 (Linear)    (Quad)   (Total)
    R1        2.37803  -0.11692   0.00000  -0.13939  -0.13939   2.23864
    R2        2.55113  -0.04727   0.00000  -0.08054  -0.08054   2.47059
    R3        2.55113  -0.04727   0.00000  -0.08054  -0.08054   2.47059
    A1        2.09440   0.02474   0.00000   0.08630   0.08630   2.18069
    A2        2.09440   0.02474   0.00000   0.08630   0.08630   2.18069
    A3        2.09440  -0.04949   0.00000  -0.17259  -0.17259   1.92180
    D1        3.14159   0.00000   0.00000   0.00000   0.00000   3.14159
         Item               Value     Threshold  Converged?
 Maximum Force            0.116922     0.000450     NO 
 RMS     Force            0.055823     0.000300     NO 
 Maximum Displacement     0.184184     0.001800     NO 
 RMS     Displacement     0.108523     0.001200     NO 
 Predicted change in Energy=-1.977778D-02
 GradGradGradGradGradGradGradGradGradGradGradGradGradGradGradGradGradGrad

                          Input orientation:                          
 ---------------------------------------------------------------------
 Center     Atomic      Atomic             Coordinates (Angstroms)
 Number     Number       Type             X           Y           Z
 ---------------------------------------------------------------------
      1          8           0        0.000000    0.000000    0.677675
      2          6           0        0.000000    0.000000   -0.506963
      3          9           0        0.000000   -1.071668   -1.255806
      4          9           0        0.000000    1.071668   -1.255806
 ---------------------------------------------------------------------
                    Distance matrix (angstroms):
                    1          2          3          4
     1  O    0.000000
     2  C    1.184638   0.000000
     3  F    2.210616   1.307379   0.000000
     4  F    2.210616   1.307379   2.143337   0.000000
 Symmetry turned off by external request.
 Stoichiometry    CF2O
 Framework group  C2V[C2(CO),SGV(F2)]
 Deg. of freedom     3
 Full point group                 C2V     NOp   4
 Rotational constants (GHZ):     11.9235590     11.5810868      5.8749140
 Standard basis: Aug-CC-pVTZ (5D, 7F)
 Integral buffers will be    131072 words long.
 Raffenetti 1 integral format.
 Two-electron integral symmetry is turned off.
   184 basis functions,   288 primitive gaussians,   220 cartesian basis functions
    16 alpha electrons       16 beta electrons
       nuclear repulsion energy       119.6249976434 Hartrees.
 NAtoms=    4 NActive=    4 NUniq=    4 SFac= 1.00D+00 NAtFMM=   50 NAOKFM=F Big=F
 One-electron integrals computed using PRISM.
 NBasis=   184 RedAO= T  NBF=   184
 NBsUse=   184 1.00D-06 NBFU=   184
 Initial guess read from the read-write file.
 B after Tr=     0.000000    0.000000    0.000000
         Rot=    1.000000    0.000000    0.000000    0.000000 Ang=   0.00 deg.
 Harris functional with IExCor=  205 diagonalized for initial guess.
 ExpMin= 3.57D-02 ExpMax= 1.95D+04 ExpMxC= 6.65D+02 IAcc=3 IRadAn=         0 AccDes= 0.00D+00
 HarFok:  IExCor=  205 AccDes= 0.00D+00 IRadAn=         0 IDoV= 1
 ScaDFX=  1.000000  1.000000  1.000000  1.000000
 FoFCou: FMM=F IPFlag=           0 FMFlag=      100000 FMFlg1=           0
         NFxFlg=           0 DoJE=T BraDBF=F KetDBF=T FulRan=T
         Omega=  0.000000  0.000000  1.000000  0.000000  0.000000 ICntrl=     500 IOpCl=  0
         NMat0=    1 NMatS0=    1 NMatT0=    0 NMatD0=    1 NMtDS0=    0 NMtDT0=    0
         I1Cent=           4 NGrid=           0.
 Symmetry not used in FoFCou.
 Requested convergence on RMS density matrix=1.00D-08 within 128 cycles.
 Requested convergence on MAX density matrix=1.00D-06.
 Requested convergence on             energy=1.00D-06.
 No special actions if energy rises.
 Keep R1 ints in memory in canonical form, NReq=301063473.
 SCF Done:  E(RHF) =  -311.739883340     A.U. after   11 cycles
             Convg  =    0.4201D-08             -V/T =  2.0016
 ExpMin= 3.57D-02 ExpMax= 1.95D+04 ExpMxC= 6.65D+02 IAcc=3 IRadAn=         5 AccDes= 0.00D+00
 HarFok:  IExCor=  205 AccDes= 0.00D+00 IRadAn=         5 IDoV=-2
 ScaDFX=  1.000000  1.000000  1.000000  1.000000
 DSYEVD returned Info=          93 IAlg= 4 N=    46 NDim=    46 NE2=    23339802 trying DSYEV.
 DSYEVD returned Info=          93 IAlg= 4 N=    46 NDim=    46 NE2=    23339802 trying DSYEV.
 Range of M.O.s used for correlation:     5   184
 NBasis=   184 NAE=    16 NBE=    16 NFC=     4 NFV=     0
 NROrb=    180 NOA=    12 NOB=    12 NVA=   168 NVB=   168

 **** Warning!!: The largest alpha MO coefficient is  0.15510603D+02

 Semi-Direct transformation.
 ModeAB=           2 MOrb=            12 LenV=    1072785705
 LASXX=     33405819 LTotXX=    33405819 LenRXX=    33405819
 LTotAB=    33954012 MaxLAS=    52509600 LenRXY=    52509600
 NonZer=    66811638 LenScr=   100987392 LnRSAI=           0
 LnScr1=           0 LExtra=           0 Total=    186902811
 MaxDsk=          -1 SrtSym=           F ITran=            4
 JobTyp=0 Pass  1:  I=   1 to  12.
 (rs|ai) integrals will be sorted in core.
 Spin components of T(2) and E(2):
     alpha-alpha T2 =       0.2669344690D-01 E2=     -0.1192267720D+00
     alpha-beta  T2 =       0.1378175709D+00 E2=     -0.6583925500D+00
     beta-beta   T2 =       0.2669344690D-01 E2=     -0.1192267720D+00
 ANorm=    0.1091423137D+01
 E2 =    -0.8968460941D+00 EUMP2 =    -0.31263672943432D+03
 R2 and R3 integrals will be kept in memory, NReq=   596397230.
 Iterations=  50 Convergence= 0.100D-07
 Iteration Nr.   1
 **********************
 DD1Dir will call FoFMem   1 times, MxPair=       156
 NAB=    78 NAA=     0 NBB=     0.
 MP4(R+Q)=  0.16157995D-01
 E3=        0.12823730D-01        EUMP3=      -0.31262390570D+03
 E4(DQ)=    0.40733613D-03        UMP4(DQ)=   -0.31262349837D+03
 E4(SDQ)=  -0.11335313D-01        UMP4(SDQ)=  -0.31263524102D+03
 DE(Corr)= -0.86786437     E(Corr)=     -312.60774771    
 NORM(A)=   0.10862131D+01
 Iteration Nr.   2
 **********************
 DD1Dir will call FoFMem   1 times, MxPair=       156
 NAB=    78 NAA=     0 NBB=     0.
 DE(Corr)= -0.89401764     E(CORR)=     -312.63390098     Delta=-2.62D-02
 NORM(A)=   0.10936169D+01
 Iteration Nr.   3
 **********************
 DD1Dir will call FoFMem   1 times, MxPair=       156
 NAB=    78 NAA=     0 NBB=     0.
 DE(Corr)= -0.89220380     E(CORR)=     -312.63208714     Delta= 1.81D-03
 NORM(A)=   0.10959098D+01
 Iteration Nr.   4
 **********************
 DD1Dir will call FoFMem   1 times, MxPair=       156
 NAB=    78 NAA=     0 NBB=     0.
 DE(Corr)= -0.89455011     E(CORR)=     -312.63443345     Delta=-2.35D-03
 NORM(A)=   0.10967466D+01
 Iteration Nr.   5
 **********************
 DD1Dir will call FoFMem   1 times, MxPair=       156
 NAB=    78 NAA=     0 NBB=     0.
 DE(Corr)= -0.89482380     E(CORR)=     -312.63470714     Delta=-2.74D-04
 NORM(A)=   0.10969368D+01
 Iteration Nr.   6
 **********************
 DD1Dir will call FoFMem   1 times, MxPair=       156
 NAB=    78 NAA=     0 NBB=     0.
 DE(Corr)= -0.89485095     E(CORR)=     -312.63473429     Delta=-2.72D-05
 NORM(A)=   0.10969506D+01
 Iteration Nr.   7
 **********************
 DD1Dir will call FoFMem   1 times, MxPair=       156
 NAB=    78 NAA=     0 NBB=     0.
 DE(Corr)= -0.89485257     E(CORR)=     -312.63473591     Delta=-1.62D-06
 NORM(A)=   0.10969506D+01
 Iteration Nr.   8
 **********************
 DD1Dir will call FoFMem   1 times, MxPair=       156
 NAB=    78 NAA=     0 NBB=     0.
 DE(Corr)= -0.89485154     E(CORR)=     -312.63473488     Delta= 1.04D-06
 NORM(A)=   0.10969512D+01
 Iteration Nr.   9
 **********************
 DD1Dir will call FoFMem   1 times, MxPair=       156
 NAB=    78 NAA=     0 NBB=     0.
 DE(Corr)= -0.89485193     E(CORR)=     -312.63473527     Delta=-3.96D-07
 NORM(A)=   0.10969513D+01
 Iteration Nr.  10
 **********************
 DD1Dir will call FoFMem   1 times, MxPair=       156
 NAB=    78 NAA=     0 NBB=     0.
 DE(Corr)= -0.89485185     E(CORR)=     -312.63473519     Delta= 7.99D-08
 NORM(A)=   0.10969514D+01
 Iteration Nr.  11
 **********************
 DD1Dir will call FoFMem   1 times, MxPair=       156
 NAB=    78 NAA=     0 NBB=     0.
 DE(Corr)= -0.89485227     E(CORR)=     -312.63473561     Delta=-4.15D-07
 NORM(A)=   0.10969517D+01
 Iteration Nr.  12
 **********************
 DD1Dir will call FoFMem   1 times, MxPair=       156
 NAB=    78 NAA=     0 NBB=     0.
 DE(Corr)= -0.89485229     E(CORR)=     -312.63473563     Delta=-1.75D-08
 NORM(A)=   0.10969518D+01
 Iteration Nr.  13
 **********************
 DD1Dir will call FoFMem   1 times, MxPair=       156
 NAB=    78 NAA=     0 NBB=     0.
 DE(Corr)= -0.89485237     E(CORR)=     -312.63473571     Delta=-8.20D-08
 NORM(A)=   0.10969519D+01
 Iteration Nr.  14
 **********************
 DD1Dir will call FoFMem   1 times, MxPair=       156
 NAB=    78 NAA=     0 NBB=     0.
 DE(Corr)= -0.89485238     E(CORR)=     -312.63473572     Delta=-1.03D-08
 NORM(A)=   0.10969519D+01
 Iteration Nr.  15
 **********************
 DD1Dir will call FoFMem   1 times, MxPair=       156
 NAB=    78 NAA=     0 NBB=     0.
 DE(Corr)= -0.89485238     E(CORR)=     -312.63473572     Delta=-4.95D-09
 NORM(A)=   0.10969519D+01
 Iteration Nr.  16
 **********************
 DD1Dir will call FoFMem   1 times, MxPair=       156
 NAB=    78 NAA=     0 NBB=     0.
 DE(Corr)= -0.89485239     E(CORR)=     -312.63473573     Delta=-4.06D-09
 NORM(A)=   0.10969519D+01
 Largest amplitude= 6.20D-02

 Z-AMPLITUDE ITERATIONS

 Iteration Nr.   1
 **********************
 DD1Dir will call FoFMem   1 times, MxPair=       156
 NAB=    78 NAA=     0 NBB=     0.
 DE(Z)  -0.87538771D+00          E(Z)=    -0.31261527105D+03
 NORM(A)=   0.10969505D+01
 Iteration Nr.   2
 **********************
 DD1Dir will call FoFMem   1 times, MxPair=       156
 NAB=    78 NAA=     0 NBB=     0.
 DE(Z)  -0.87538771D+00          E(Z)=    -0.31261527105D+03
 NORM(A)=   0.10969525D+01
 Iteration Nr.   3
 **********************
 DD1Dir will call FoFMem   1 times, MxPair=       156
 NAB=    78 NAA=     0 NBB=     0.
 DE(Z)  -0.87538771D+00          E(Z)=    -0.31261527105D+03
 NORM(A)=   0.10969521D+01
 Iteration Nr.   4
 **********************
 DD1Dir will call FoFMem   1 times, MxPair=       156
 NAB=    78 NAA=     0 NBB=     0.
 DE(Z)  -0.87538771D+00          E(Z)=    -0.31261527105D+03
 NORM(A)=   0.10969522D+01
 Iteration Nr.   5
 **********************
 DD1Dir will call FoFMem   1 times, MxPair=       156
 NAB=    78 NAA=     0 NBB=     0.
 DE(Z)  -0.87538771D+00          E(Z)=    -0.31261527105D+03
 NORM(A)=   0.10924513D+01
 Iteration Nr.   6
 **********************
 DD1Dir will call FoFMem   1 times, MxPair=       156
 NAB=    78 NAA=     0 NBB=     0.
 DE(Z)  -0.87536930D+00          E(Z)=    -0.31261525264D+03
 NORM(A)=   0.10924503D+01
 Iteration Nr.   7
 **********************
 DD1Dir will call FoFMem   1 times, MxPair=       156
 NAB=    78 NAA=     0 NBB=     0.
 DE(Z)  -0.87533883D+00          E(Z)=    -0.31261522217D+03
 NORM(A)=   0.10924304D+01
 Iteration Nr.   8
 **********************
 DD1Dir will call FoFMem   1 times, MxPair=       156
 NAB=    78 NAA=     0 NBB=     0.
 DE(Z)  -0.87534130D+00          E(Z)=    -0.31261522464D+03
 NORM(A)=   0.10924326D+01
 Iteration Nr.   9
 **********************
 DD1Dir will call FoFMem   1 times, MxPair=       156
 NAB=    78 NAA=     0 NBB=     0.
 DE(Z)  -0.87534134D+00          E(Z)=    -0.31261522468D+03
 NORM(A)=   0.10924328D+01
 Iteration Nr.  10
 **********************
 DD1Dir will call FoFMem   1 times, MxPair=       156
 NAB=    78 NAA=     0 NBB=     0.
 DE(Z)  -0.87534190D+00          E(Z)=    -0.31261522524D+03
 NORM(A)=   0.10924331D+01
 Iteration Nr.  11
 **********************
 DD1Dir will call FoFMem   1 times, MxPair=       156
 NAB=    78 NAA=     0 NBB=     0.
 DE(Z)  -0.87534171D+00          E(Z)=    -0.31261522505D+03
 NORM(A)=   0.10924332D+01
 Iteration Nr.  12
 **********************
 DD1Dir will call FoFMem   1 times, MxPair=       156
 NAB=    78 NAA=     0 NBB=     0.
 DE(Z)  -0.87534181D+00          E(Z)=    -0.31261522515D+03
 NORM(A)=   0.10924332D+01
 Iteration Nr.  13
 **********************
 DD1Dir will call FoFMem   1 times, MxPair=       156
 NAB=    78 NAA=     0 NBB=     0.
 DE(Z)  -0.87534178D+00          E(Z)=    -0.31261522512D+03
 NORM(A)=   0.10924332D+01
 Iteration Nr.  14
 **********************
 DD1Dir will call FoFMem   1 times, MxPair=       156
 NAB=    78 NAA=     0 NBB=     0.
 DE(Z)  -0.87534179D+00          E(Z)=    -0.31261522513D+03
 NORM(A)=   0.10924332D+01
 Iteration Nr.  15
 **********************
 DD1Dir will call FoFMem   1 times, MxPair=       156
 NAB=    78 NAA=     0 NBB=     0.
 DE(Z)  -0.87534179D+00          E(Z)=    -0.31261522513D+03
 NORM(A)=   0.10924332D+01
 Discarding MO integrals.
          IDoAtm=1111
          Differentiating once with respect to electric field.
                with respect to dipole field.
          Differentiating once with respect to nuclear coordinates.
          Keep R1 ints in memory in canonical form, NReq=297441390.
          There are     1 degrees of freedom in the 1st order CPHF.  IDoFFX=0.
 LinEq1:  Iter=  0 NonCon=     1 RMS=3.09D-03 Max=8.57D-02
 AX will form     1 AO Fock derivatives at one time.
 LinEq1:  Iter=  1 NonCon=     1 RMS=7.63D-04 Max=1.13D-02
 LinEq1:  Iter=  2 NonCon=     1 RMS=2.28D-04 Max=3.47D-03
 LinEq1:  Iter=  3 NonCon=     1 RMS=1.01D-04 Max=1.52D-03
 LinEq1:  Iter=  4 NonCon=     1 RMS=2.37D-05 Max=3.43D-04
 LinEq1:  Iter=  5 NonCon=     1 RMS=1.09D-05 Max=2.42D-04
 LinEq1:  Iter=  6 NonCon=     1 RMS=2.21D-06 Max=2.79D-05
 LinEq1:  Iter=  7 NonCon=     1 RMS=3.73D-07 Max=7.38D-06
 LinEq1:  Iter=  8 NonCon=     1 RMS=7.84D-08 Max=1.41D-06
 LinEq1:  Iter=  9 NonCon=     1 RMS=1.27D-08 Max=1.93D-07
 LinEq1:  Iter= 10 NonCon=     1 RMS=2.26D-09 Max=2.65D-08
 LinEq1:  Iter= 11 NonCon=     1 RMS=4.55D-10 Max=6.90D-09
 LinEq1:  Iter= 12 NonCon=     0 RMS=5.85D-11 Max=4.63D-10
 Linear equations converged to 1.000D-10 1.000D-09 after    12 iterations.
 End of Minotr Frequency-dependent properties file   721 does not exist.
 End of Minotr Frequency-dependent properties file   722 does not exist.
 Calling FoFJK, ICntrl=      2127 FMM=F ISym2X=0 I1Cent= 0 IOpClX= 0 NMat=1 NMatS=1 NMatT=0.
 -------------------------------------------------------------------
 Center     Atomic                   Forces (Hartrees/Bohr)
 Number     Number              X              Y              Z
 -------------------------------------------------------------------
      1        8           0.000000000    0.000000000   -0.018896345
      2        6           0.000000000    0.000000000    0.028946591
      3        9           0.000000000    0.004534860   -0.005025123
      4        9           0.000000000   -0.004534860   -0.005025123
 -------------------------------------------------------------------
 Cartesian Forces:  Max     0.028946591 RMS     0.010354591

 GradGradGradGradGradGradGradGradGradGradGradGradGradGradGradGradGradGrad
 Berny optimization.
 Using GEDIIS/GDIIS optimizer.
 Internal  Forces:  Max     0.018896345 RMS     0.008799784
 Search for a local minimum.
 Step number   2 out of a maximum of   20
 All quantities printed in internal units (Hartrees-Bohrs-Radians)
 Mixed Optimization -- RFO/linear search
 Update second derivatives using D2CorX and points    1    2
 DE= -2.26D-02 DEPred=-1.98D-02 R= 1.14D+00
 SS=  1.41D+00  RLast= 2.78D-01 DXNew= 5.0454D-01 8.3294D-01
 Trust test= 1.14D+00 RLast= 2.78D-01 DXMaxT set to 5.05D-01
 The second derivative matrix:
                          R1        R2        R3        A1        A2
           R1           0.74235
           R2           0.00022   0.56162
           R3           0.00022   0.01141   0.56162
           A1           0.01059  -0.00048  -0.00048   0.24814
           A2           0.01059  -0.00048  -0.00048  -0.00186   0.24814
           A3          -0.02119   0.00097   0.00097   0.00372   0.00372
           D1           0.00000   0.00000   0.00000   0.00000   0.00000
                          A3        D1
           A3           0.24256
           D1           0.00000   0.02089
 ITU=  1  0
 Use linear search instead of GDIIS.
     Eigenvalues ---    0.02089   0.23749   0.25000   0.55021   0.57304
     Eigenvalues ---    0.74368
 RFO step:  Lambda=-2.30485441D-04 EMin= 2.08853423D-02
 Quartic linear search produced a step of  0.13633.
 Iteration  1 RMS(Cart)=  0.01707960 RMS(Int)=  0.00020621
 Iteration  2 RMS(Cart)=  0.00019161 RMS(Int)=  0.00000000
 Iteration  3 RMS(Cart)=  0.00000000 RMS(Int)=  0.00000000
 Variable       Old X    -DE/DX   Delta X   Delta X   Delta X     New X
                                 (Linear)    (Quad)   (Total)
    R1        2.23864  -0.01890  -0.01900  -0.00457  -0.02357   2.21507
    R2        2.47059  -0.00084  -0.01098   0.01215   0.00117   2.47176
    R3        2.47059  -0.00084  -0.01098   0.01215   0.00117   2.47176
    A1        2.18069   0.00553   0.01176   0.00590   0.01767   2.19836
    A2        2.18069   0.00553   0.01176   0.00590   0.01767   2.19836
    A3        1.92180  -0.01106  -0.02353  -0.01181  -0.03534   1.88646
    D1        3.14159   0.00000   0.00000   0.00000   0.00000   3.14159
         Item               Value     Threshold  Converged?
 Maximum Force            0.018896     0.000450     NO 
 RMS     Force            0.008800     0.000300     NO 
 Maximum Displacement     0.024368     0.001800     NO 
 RMS     Displacement     0.017170     0.001200     NO 
 Predicted change in Energy=-6.257342D-04
 GradGradGradGradGradGradGradGradGradGradGradGradGradGradGradGradGradGrad

                          Input orientation:                          
 ---------------------------------------------------------------------
 Center     Atomic      Atomic             Coordinates (Angstroms)
 Number     Number       Type             X           Y           Z
 ---------------------------------------------------------------------
      1          8           0        0.000000    0.000000    0.677911
      2          6           0        0.000000    0.000000   -0.494254
      3          9           0        0.000000   -1.058773   -1.262278
      4          9           0        0.000000    1.058773   -1.262278
 ---------------------------------------------------------------------
                    Distance matrix (angstroms):
                    1          2          3          4
     1  O    0.000000
     2  C    1.172165   0.000000
     3  F    2.210280   1.307999   0.000000
     4  F    2.210280   1.307999   2.117547   0.000000
 Symmetry turned off by external request.
 Stoichiometry    CF2O
 Framework group  C2V[C2(CO),SGV(F2)]
 Deg. of freedom     3
 Full point group                 C2V     NOp   4
 Rotational constants (GHZ):     11.8649006     11.8245699      5.9223505
 Standard basis: Aug-CC-pVTZ (5D, 7F)
 Integral buffers will be    131072 words long.
 Raffenetti 1 integral format.
 Two-electron integral symmetry is turned off.
   184 basis functions,   288 primitive gaussians,   220 cartesian basis functions
    16 alpha electrons       16 beta electrons
       nuclear repulsion energy       120.0812361182 Hartrees.
 NAtoms=    4 NActive=    4 NUniq=    4 SFac= 1.00D+00 NAtFMM=   50 NAOKFM=F Big=F
 One-electron integrals computed using PRISM.
 NBasis=   184 RedAO= T  NBF=   184
 NBsUse=   184 1.00D-06 NBFU=   184
 Initial guess read from the read-write file.
 B after Tr=     0.000000    0.000000    0.000000
         Rot=    1.000000    0.000000    0.000000    0.000000 Ang=   0.00 deg.
 Harris functional with IExCor=  205 diagonalized for initial guess.
 ExpMin= 3.57D-02 ExpMax= 1.95D+04 ExpMxC= 6.65D+02 IAcc=3 IRadAn=         0 AccDes= 0.00D+00
 HarFok:  IExCor=  205 AccDes= 0.00D+00 IRadAn=         0 IDoV= 1
 ScaDFX=  1.000000  1.000000  1.000000  1.000000
 FoFCou: FMM=F IPFlag=           0 FMFlag=      100000 FMFlg1=           0
         NFxFlg=           0 DoJE=T BraDBF=F KetDBF=T FulRan=T
         Omega=  0.000000  0.000000  1.000000  0.000000  0.000000 ICntrl=     500 IOpCl=  0
         NMat0=    1 NMatS0=    1 NMatT0=    0 NMatD0=    1 NMtDS0=    0 NMtDT0=    0
         I1Cent=           4 NGrid=           0.
 Symmetry not used in FoFCou.
 Requested convergence on RMS density matrix=1.00D-08 within 128 cycles.
 Requested convergence on MAX density matrix=1.00D-06.
 Requested convergence on             energy=1.00D-06.
 No special actions if energy rises.
 Keep R1 ints in memory in canonical form, NReq=301063473.
 SCF Done:  E(RHF) =  -311.741537772     A.U. after    9 cycles
             Convg  =    0.5373D-08             -V/T =  2.0014
 ExpMin= 3.57D-02 ExpMax= 1.95D+04 ExpMxC= 6.65D+02 IAcc=3 IRadAn=         5 AccDes= 0.00D+00
 HarFok:  IExCor=  205 AccDes= 0.00D+00 IRadAn=         5 IDoV=-2
 ScaDFX=  1.000000  1.000000  1.000000  1.000000
 DSYEVD returned Info=          93 IAlg= 4 N=    46 NDim=    46 NE2=    23339802 trying DSYEV.
 Range of M.O.s used for correlation:     5   184
 NBasis=   184 NAE=    16 NBE=    16 NFC=     4 NFV=     0
 NROrb=    180 NOA=    12 NOB=    12 NVA=   168 NVB=   168

 **** Warning!!: The largest alpha MO coefficient is  0.15561950D+02

 Semi-Direct transformation.
 ModeAB=           2 MOrb=            12 LenV=    1072785523
 LASXX=     33405819 LTotXX=    33405819 LenRXX=    33405819
 LTotAB=    33954012 MaxLAS=    52509600 LenRXY=    52509600
 NonZer=    66811638 LenScr=   100987392 LnRSAI=           0
 LnScr1=           0 LExtra=           0 Total=    186902811
 MaxDsk=          -1 SrtSym=           F ITran=            4
 JobTyp=0 Pass  1:  I=   1 to  12.
 (rs|ai) integrals will be sorted in core.
 Spin components of T(2) and E(2):
     alpha-alpha T2 =       0.2653266006D-01 E2=     -0.1190640727D+00
     alpha-beta  T2 =       0.1369033244D+00 E2=     -0.6573971154D+00
     beta-beta   T2 =       0.2653266006D-01 E2=     -0.1190640727D+00
 ANorm=    0.1090856840D+01
 E2 =    -0.8955252608D+00 EUMP2 =    -0.31263706303327D+03
 R2 and R3 integrals will be kept in memory, NReq=   596397230.
 Iterations=  50 Convergence= 0.100D-07
 Iteration Nr.   1
 **********************
 DD1Dir will call FoFMem   1 times, MxPair=       156
 NAB=    78 NAA=     0 NBB=     0.
 MP4(R+Q)=  0.16027542D-01
 E3=        0.12367470D-01        EUMP3=      -0.31262469556D+03
 E4(DQ)=    0.48052389D-03        UMP4(DQ)=   -0.31262421504D+03
 E4(SDQ)=  -0.11071594D-01        UMP4(SDQ)=  -0.31263576716D+03
 DE(Corr)= -0.86713025     E(Corr)=     -312.60866802    
 NORM(A)=   0.10857636D+01
 Iteration Nr.   2
 **********************
 DD1Dir will call FoFMem   1 times, MxPair=       156
 NAB=    78 NAA=     0 NBB=     0.
 DE(Corr)= -0.89289850     E(CORR)=     -312.63443627     Delta=-2.58D-02
 NORM(A)=   0.10930359D+01
 Iteration Nr.   3
 **********************
 DD1Dir will call FoFMem   1 times, MxPair=       156
 NAB=    78 NAA=     0 NBB=     0.
 DE(Corr)= -0.89116067     E(CORR)=     -312.63269844     Delta= 1.74D-03
 NORM(A)=   0.10952528D+01
 Iteration Nr.   4
 **********************
 DD1Dir will call FoFMem   1 times, MxPair=       156
 NAB=    78 NAA=     0 NBB=     0.
 DE(Corr)= -0.89345024     E(CORR)=     -312.63498801     Delta=-2.29D-03
 NORM(A)=   0.10960532D+01
 Iteration Nr.   5
 **********************
 DD1Dir will call FoFMem   1 times, MxPair=       156
 NAB=    78 NAA=     0 NBB=     0.
 DE(Corr)= -0.89371388     E(CORR)=     -312.63525165     Delta=-2.64D-04
 NORM(A)=   0.10962338D+01
 Iteration Nr.   6
 **********************
 DD1Dir will call FoFMem   1 times, MxPair=       156
 NAB=    78 NAA=     0 NBB=     0.
 DE(Corr)= -0.89374005     E(CORR)=     -312.63527782     Delta=-2.62D-05
 NORM(A)=   0.10962468D+01
 Iteration Nr.   7
 **********************
 DD1Dir will call FoFMem   1 times, MxPair=       156
 NAB=    78 NAA=     0 NBB=     0.
 DE(Corr)= -0.89374162     E(CORR)=     -312.63527940     Delta=-1.58D-06
 NORM(A)=   0.10962467D+01
 Iteration Nr.   8
 **********************
 DD1Dir will call FoFMem   1 times, MxPair=       156
 NAB=    78 NAA=     0 NBB=     0.
 DE(Corr)= -0.89374062     E(CORR)=     -312.63527839     Delta= 1.01D-06
 NORM(A)=   0.10962471D+01
 Iteration Nr.   9
 **********************
 DD1Dir will call FoFMem   1 times, MxPair=       156
 NAB=    78 NAA=     0 NBB=     0.
 DE(Corr)= -0.89374101     E(CORR)=     -312.63527878     Delta=-3.91D-07
 NORM(A)=   0.10962471D+01
 Iteration Nr.  10
 **********************
 DD1Dir will call FoFMem   1 times, MxPair=       156
 NAB=    78 NAA=     0 NBB=     0.
 DE(Corr)= -0.89374091     E(CORR)=     -312.63527869     Delta= 9.21D-08
 NORM(A)=   0.10962473D+01
 Iteration Nr.  11
 **********************
 DD1Dir will call FoFMem   1 times, MxPair=       156
 NAB=    78 NAA=     0 NBB=     0.
 DE(Corr)= -0.89374137     E(CORR)=     -312.63527914     Delta=-4.51D-07
 NORM(A)=   0.10962476D+01
 Iteration Nr.  12
 **********************
 DD1Dir will call FoFMem   1 times, MxPair=       156
 NAB=    78 NAA=     0 NBB=     0.
 DE(Corr)= -0.89374140     E(CORR)=     -312.63527917     Delta=-3.26D-08
 NORM(A)=   0.10962478D+01
 Iteration Nr.  13
 **********************
 DD1Dir will call FoFMem   1 times, MxPair=       156
 NAB=    78 NAA=     0 NBB=     0.
 DE(Corr)= -0.89374149     E(CORR)=     -312.63527926     Delta=-9.14D-08
 NORM(A)=   0.10962478D+01
 Iteration Nr.  14
 **********************
 DD1Dir will call FoFMem   1 times, MxPair=       156
 NAB=    78 NAA=     0 NBB=     0.
 DE(Corr)= -0.89374151     E(CORR)=     -312.63527928     Delta=-1.52D-08
 NORM(A)=   0.10962479D+01
 Iteration Nr.  15
 **********************
 DD1Dir will call FoFMem   1 times, MxPair=       156
 NAB=    78 NAA=     0 NBB=     0.
 DE(Corr)= -0.89374151     E(CORR)=     -312.63527929     Delta=-8.22D-09
 NORM(A)=   0.10962479D+01
 Iteration Nr.  16
 **********************
 DD1Dir will call FoFMem   1 times, MxPair=       156
 NAB=    78 NAA=     0 NBB=     0.
 DE(Corr)= -0.89374152     E(CORR)=     -312.63527929     Delta=-4.06D-09
 NORM(A)=   0.10962479D+01
 Largest amplitude= 5.73D-02

 Z-AMPLITUDE ITERATIONS

 Iteration Nr.   1
 **********************
 DD1Dir will call FoFMem   1 times, MxPair=       156
 NAB=    78 NAA=     0 NBB=     0.
 DE(Z)  -0.87448247D+00          E(Z)=    -0.31261602024D+03
 NORM(A)=   0.10962493D+01
 Iteration Nr.   2
 **********************
 DD1Dir will call FoFMem   1 times, MxPair=       156
 NAB=    78 NAA=     0 NBB=     0.
 DE(Z)  -0.87448247D+00          E(Z)=    -0.31261602025D+03
 NORM(A)=   0.10962476D+01
 Iteration Nr.   3
 **********************
 DD1Dir will call FoFMem   1 times, MxPair=       156
 NAB=    78 NAA=     0 NBB=     0.
 DE(Z)  -0.87448246D+00          E(Z)=    -0.31261602024D+03
 NORM(A)=   0.10962476D+01
 Iteration Nr.   4
 **********************
 DD1Dir will call FoFMem   1 times, MxPair=       156
 NAB=    78 NAA=     0 NBB=     0.
 DE(Z)  -0.87448246D+00          E(Z)=    -0.31261602024D+03
 NORM(A)=   0.10962476D+01
 Iteration Nr.   5
 **********************
 DD1Dir will call FoFMem   1 times, MxPair=       156
 NAB=    78 NAA=     0 NBB=     0.
 DE(Z)  -0.87448246D+00          E(Z)=    -0.31261602024D+03
 NORM(A)=   0.10919033D+01
 Iteration Nr.   6
 **********************
 DD1Dir will call FoFMem   1 times, MxPair=       156
 NAB=    78 NAA=     0 NBB=     0.
 DE(Z)  -0.87443017D+00          E(Z)=    -0.31261596794D+03
 NORM(A)=   0.10918519D+01
 Iteration Nr.   7
 **********************
 DD1Dir will call FoFMem   1 times, MxPair=       156
 NAB=    78 NAA=     0 NBB=     0.
 DE(Z)  -0.87444301D+00          E(Z)=    -0.31261598078D+03
 NORM(A)=   0.10918376D+01
 Iteration Nr.   8
 **********************
 DD1Dir will call FoFMem   1 times, MxPair=       156
 NAB=    78 NAA=     0 NBB=     0.
 DE(Z)  -0.87441847D+00          E(Z)=    -0.31261595624D+03
 NORM(A)=   0.10918227D+01
 Iteration Nr.   9
 **********************
 DD1Dir will call FoFMem   1 times, MxPair=       156
 NAB=    78 NAA=     0 NBB=     0.
 DE(Z)  -0.87442507D+00          E(Z)=    -0.31261596284D+03
 NORM(A)=   0.10918223D+01
 Iteration Nr.  10
 **********************
 DD1Dir will call FoFMem   1 times, MxPair=       156
 NAB=    78 NAA=     0 NBB=     0.
 DE(Z)  -0.87442382D+00          E(Z)=    -0.31261596159D+03
 NORM(A)=   0.10918223D+01
 Iteration Nr.  11
 **********************
 DD1Dir will call FoFMem   1 times, MxPair=       156
 NAB=    78 NAA=     0 NBB=     0.
 DE(Z)  -0.87442436D+00          E(Z)=    -0.31261596213D+03
 NORM(A)=   0.10918224D+01
 Iteration Nr.  12
 **********************
 DD1Dir will call FoFMem   1 times, MxPair=       156
 NAB=    78 NAA=     0 NBB=     0.
 DE(Z)  -0.87442427D+00          E(Z)=    -0.31261596204D+03
 NORM(A)=   0.10918225D+01
 Iteration Nr.  13
 **********************
 DD1Dir will call FoFMem   1 times, MxPair=       156
 NAB=    78 NAA=     0 NBB=     0.
 DE(Z)  -0.87442430D+00          E(Z)=    -0.31261596207D+03
 NORM(A)=   0.10918225D+01
 Iteration Nr.  14
 **********************
 DD1Dir will call FoFMem   1 times, MxPair=       156
 NAB=    78 NAA=     0 NBB=     0.
 DE(Z)  -0.87442434D+00          E(Z)=    -0.31261596211D+03
 NORM(A)=   0.10918225D+01
 Iteration Nr.  15
 **********************
 DD1Dir will call FoFMem   1 times, MxPair=       156
 NAB=    78 NAA=     0 NBB=     0.
 DE(Z)  -0.87442432D+00          E(Z)=    -0.31261596209D+03
 NORM(A)=   0.10918225D+01
 Iteration Nr.  16
 **********************
 DD1Dir will call FoFMem   1 times, MxPair=       156
 NAB=    78 NAA=     0 NBB=     0.
 DE(Z)  -0.87442432D+00          E(Z)=    -0.31261596210D+03
 NORM(A)=   0.10918225D+01
 Discarding MO integrals.
          IDoAtm=1111
          Differentiating once with respect to electric field.
                with respect to dipole field.
          Differentiating once with respect to nuclear coordinates.
          Keep R1 ints in memory in canonical form, NReq=297441390.
          There are     1 degrees of freedom in the 1st order CPHF.  IDoFFX=0.
 LinEq1:  Iter=  0 NonCon=     1 RMS=3.07D-03 Max=8.41D-02
 AX will form     1 AO Fock derivatives at one time.
 LinEq1:  Iter=  1 NonCon=     1 RMS=7.51D-04 Max=1.10D-02
 LinEq1:  Iter=  2 NonCon=     1 RMS=2.23D-04 Max=3.35D-03
 LinEq1:  Iter=  3 NonCon=     1 RMS=9.78D-05 Max=1.56D-03
 LinEq1:  Iter=  4 NonCon=     1 RMS=2.25D-05 Max=3.67D-04
 LinEq1:  Iter=  5 NonCon=     1 RMS=1.07D-05 Max=2.88D-04
 LinEq1:  Iter=  6 NonCon=     1 RMS=2.53D-06 Max=4.51D-05
 LinEq1:  Iter=  7 NonCon=     1 RMS=5.15D-07 Max=1.02D-05
 LinEq1:  Iter=  8 NonCon=     1 RMS=9.31D-08 Max=1.22D-06
 LinEq1:  Iter=  9 NonCon=     1 RMS=1.28D-08 Max=1.75D-07
 LinEq1:  Iter= 10 NonCon=     1 RMS=1.89D-09 Max=2.14D-08
 LinEq1:  Iter= 11 NonCon=     1 RMS=3.94D-10 Max=5.89D-09
 LinEq1:  Iter= 12 NonCon=     0 RMS=5.33D-11 Max=4.60D-10
 Linear equations converged to 1.000D-10 1.000D-09 after    12 iterations.
 End of Minotr Frequency-dependent properties file   721 does not exist.
 End of Minotr Frequency-dependent properties file   722 does not exist.
 Calling FoFJK, ICntrl=      2127 FMM=F ISym2X=0 I1Cent= 0 IOpClX= 0 NMat=1 NMatS=1 NMatT=0.
 -------------------------------------------------------------------
 Center     Atomic                   Forces (Hartrees/Bohr)
 Number     Number              X              Y              Z
 -------------------------------------------------------------------
      1        8           0.000000000    0.000000000    0.001189204
      2        6           0.000000000    0.000000000    0.002478090
      3        9           0.000000000   -0.001229442   -0.001833647
      4        9           0.000000000    0.001229442   -0.001833647
 -------------------------------------------------------------------
 Cartesian Forces:  Max     0.002478090 RMS     0.001200788

 GradGradGradGradGradGradGradGradGradGradGradGradGradGradGradGradGradGrad
 Berny optimization.
 Using GEDIIS/GDIIS optimizer.
 Internal  Forces:  Max     0.002071855 RMS     0.001329160
 Search for a local minimum.
 Step number   3 out of a maximum of   20
 All quantities printed in internal units (Hartrees-Bohrs-Radians)
 Mixed Optimization -- RFO/linear search
 Update second derivatives using D2CorX and points    1    2    3
 DE= -5.44D-04 DEPred=-6.26D-04 R= 8.69D-01
 SS=  1.41D+00  RLast= 4.93D-02 DXNew= 8.4853D-01 1.4792D-01
 Trust test= 8.69D-01 RLast= 4.93D-02 DXMaxT set to 5.05D-01
 The second derivative matrix:
                          R1        R2        R3        A1        A2
           R1           0.81949
           R2           0.07252   0.57596
           R3           0.07252   0.02575   0.57596
           A1          -0.00887  -0.01799  -0.01799   0.25301
           A2          -0.00887  -0.01799  -0.01799   0.00301   0.25301
           A3           0.01773   0.03598   0.03598  -0.00603  -0.00603
           D1           0.00000   0.00000   0.00000   0.00000   0.00000
                          A3        D1
           A3           0.26205
           D1           0.00000   0.02089
 ITU=  1  1  0
 Use linear search instead of GDIIS.
     Eigenvalues ---    0.02089   0.25000   0.25680   0.55021   0.56912
     Eigenvalues ---    0.86336
 RFO step:  Lambda=-2.57807199D-05 EMin= 2.08853423D-02
 Quartic linear search produced a step of  0.04214.
 Iteration  1 RMS(Cart)=  0.00323976 RMS(Int)=  0.00000670
 Iteration  2 RMS(Cart)=  0.00000783 RMS(Int)=  0.00000000
 Iteration  3 RMS(Cart)=  0.00000000 RMS(Int)=  0.00000000
 Variable       Old X    -DE/DX   Delta X   Delta X   Delta X     New X
                                 (Linear)    (Quad)   (Total)
    R1        2.21507   0.00119  -0.00099   0.00197   0.00098   2.21605
    R2        2.47176   0.00207   0.00005   0.00378   0.00383   2.47559
    R3        2.47176   0.00207   0.00005   0.00378   0.00383   2.47559
    A1        2.19836   0.00063   0.00074   0.00210   0.00284   2.20120
    A2        2.19836   0.00063   0.00074   0.00210   0.00284   2.20120
    A3        1.88646  -0.00126  -0.00149  -0.00419  -0.00568   1.88079
    D1        3.14159   0.00000   0.00000   0.00000   0.00000   3.14159
         Item               Value     Threshold  Converged?
 Maximum Force            0.002072     0.000450     NO 
 RMS     Force            0.001329     0.000300     NO 
 Maximum Displacement     0.004702     0.001800     NO 
 RMS     Displacement     0.003242     0.001200     NO 
 Predicted change in Energy=-1.398430D-05
 GradGradGradGradGradGradGradGradGradGradGradGradGradGradGradGradGradGrad

                          Input orientation:                          
 ---------------------------------------------------------------------
 Center     Atomic      Atomic             Coordinates (Angstroms)
 Number     Number       Type             X           Y           Z
 ---------------------------------------------------------------------
      1          8           0        0.000000    0.000000    0.680399
      2          6           0        0.000000    0.000000   -0.492284
      3          9           0        0.000000   -1.058227   -1.264507
      4          9           0        0.000000    1.058227   -1.264507
 ---------------------------------------------------------------------
                    Distance matrix (angstroms):
                    1          2          3          4
     1  O    0.000000
     2  C    1.172683   0.000000
     3  F    2.214160   1.310028   0.000000
     4  F    2.214160   1.310028   2.116453   0.000000
 Symmetry turned off by external request.
 Stoichiometry    CF2O
 Framework group  C2V[C2(CO),SGV(F2)]
 Deg. of freedom     3
 Full point group                 C2V     NOp   4
 Rotational constants (GHZ):     11.8771618     11.7648384      5.9103666
 Standard basis: Aug-CC-pVTZ (5D, 7F)
 Integral buffers will be    131072 words long.
 Raffenetti 1 integral format.
 Two-electron integral symmetry is turned off.
   184 basis functions,   288 primitive gaussians,   220 cartesian basis functions
    16 alpha electrons       16 beta electrons
       nuclear repulsion energy       119.9540469302 Hartrees.
 NAtoms=    4 NActive=    4 NUniq=    4 SFac= 1.00D+00 NAtFMM=   50 NAOKFM=F Big=F
 One-electron integrals computed using PRISM.
 NBasis=   184 RedAO= T  NBF=   184
 NBsUse=   184 1.00D-06 NBFU=   184
 Initial guess read from the read-write file.
 B after Tr=     0.000000    0.000000    0.000000
         Rot=    1.000000    0.000000    0.000000    0.000000 Ang=   0.00 deg.
 Requested convergence on RMS density matrix=1.00D-08 within 128 cycles.
 Requested convergence on MAX density matrix=1.00D-06.
 Requested convergence on             energy=1.00D-06.
 No special actions if energy rises.
 Keep R1 ints in memory in canonical form, NReq=301063473.
 SCF Done:  E(RHF) =  -311.741238280     A.U. after    7 cycles
             Convg  =    0.8612D-08             -V/T =  2.0014
 ExpMin= 3.57D-02 ExpMax= 1.95D+04 ExpMxC= 6.65D+02 IAcc=3 IRadAn=         5 AccDes= 0.00D+00
 HarFok:  IExCor=  205 AccDes= 0.00D+00 IRadAn=         5 IDoV=-2
 ScaDFX=  1.000000  1.000000  1.000000  1.000000
 DSYEVD returned Info=          93 IAlg= 4 N=    46 NDim=    46 NE2=    23339802 trying DSYEV.
 DSYEVD returned Info=          93 IAlg= 4 N=    46 NDim=    46 NE2=    23339802 trying DSYEV.
 Range of M.O.s used for correlation:     5   184
 NBasis=   184 NAE=    16 NBE=    16 NFC=     4 NFV=     0
 NROrb=    180 NOA=    12 NOB=    12 NVA=   168 NVB=   168

 **** Warning!!: The largest alpha MO coefficient is  0.15558772D+02

 Semi-Direct transformation.
 ModeAB=           2 MOrb=            12 LenV=    1072785587
 LASXX=     33405819 LTotXX=    33405819 LenRXX=    33405819
 LTotAB=    33954012 MaxLAS=    52509600 LenRXY=    52509600
 NonZer=    66811638 LenScr=   100987392 LnRSAI=           0
 LnScr1=           0 LExtra=           0 Total=    186902811
 MaxDsk=          -1 SrtSym=           F ITran=            4
 JobTyp=0 Pass  1:  I=   1 to  12.
 (rs|ai) integrals will be sorted in core.
 Spin components of T(2) and E(2):
     alpha-alpha T2 =       0.2657494383D-01 E2=     -0.1191114229D+00
     alpha-beta  T2 =       0.1371278279D+00 E2=     -0.6576853852D+00
     beta-beta   T2 =       0.2657494383D-01 E2=     -0.1191114229D+00
 ANorm=    0.1090998495D+01
 E2 =    -0.8959082310D+00 EUMP2 =    -0.31263714651124D+03
 R2 and R3 integrals will be kept in memory, NReq=   596397230.
 Iterations=  50 Convergence= 0.100D-07
 Iteration Nr.   1
 **********************
 DD1Dir will call FoFMem   1 times, MxPair=       156
 NAB=    78 NAA=     0 NBB=     0.
 MP4(R+Q)=  0.16057295D-01
 E3=        0.12505279D-01        EUMP3=      -0.31262464123D+03
 E4(DQ)=    0.45674305D-03        UMP4(DQ)=   -0.31262418449D+03
 E4(SDQ)=  -0.11148161D-01        UMP4(SDQ)=  -0.31263578939D+03
 DE(Corr)= -0.86734566     E(Corr)=     -312.60858394    
 NORM(A)=   0.10858752D+01
 Iteration Nr.   2
 **********************
 DD1Dir will call FoFMem   1 times, MxPair=       156
 NAB=    78 NAA=     0 NBB=     0.
 DE(Corr)= -0.89321658     E(CORR)=     -312.63445486     Delta=-2.59D-02
 NORM(A)=   0.10931760D+01
 Iteration Nr.   3
 **********************
 DD1Dir will call FoFMem   1 times, MxPair=       156
 NAB=    78 NAA=     0 NBB=     0.
 DE(Corr)= -0.89145719     E(CORR)=     -312.63269547     Delta= 1.76D-03
 NORM(A)=   0.10954084D+01
 Iteration Nr.   4
 **********************
 DD1Dir will call FoFMem   1 times, MxPair=       156
 NAB=    78 NAA=     0 NBB=     0.
 DE(Corr)= -0.89376051     E(CORR)=     -312.63499879     Delta=-2.30D-03
 NORM(A)=   0.10962154D+01
 Iteration Nr.   5
 **********************
 DD1Dir will call FoFMem   1 times, MxPair=       156
 NAB=    78 NAA=     0 NBB=     0.
 DE(Corr)= -0.89402644     E(CORR)=     -312.63526472     Delta=-2.66D-04
 NORM(A)=   0.10963980D+01
 Iteration Nr.   6
 **********************
 DD1Dir will call FoFMem   1 times, MxPair=       156
 NAB=    78 NAA=     0 NBB=     0.
 DE(Corr)= -0.89405293     E(CORR)=     -312.63529121     Delta=-2.65D-05
 NORM(A)=   0.10964112D+01
 Iteration Nr.   7
 **********************
 DD1Dir will call FoFMem   1 times, MxPair=       156
 NAB=    78 NAA=     0 NBB=     0.
 DE(Corr)= -0.89405454     E(CORR)=     -312.63529282     Delta=-1.62D-06
 NORM(A)=   0.10964111D+01
 Iteration Nr.   8
 **********************
 DD1Dir will call FoFMem   1 times, MxPair=       156
 NAB=    78 NAA=     0 NBB=     0.
 DE(Corr)= -0.89405353     E(CORR)=     -312.63529181     Delta= 1.02D-06
 NORM(A)=   0.10964116D+01
 Iteration Nr.   9
 **********************
 DD1Dir will call FoFMem   1 times, MxPair=       156
 NAB=    78 NAA=     0 NBB=     0.
 DE(Corr)= -0.89405393     E(CORR)=     -312.63529221     Delta=-4.03D-07
 NORM(A)=   0.10964116D+01
 Iteration Nr.  10
 **********************
 DD1Dir will call FoFMem   1 times, MxPair=       156
 NAB=    78 NAA=     0 NBB=     0.
 DE(Corr)= -0.89405383     E(CORR)=     -312.63529211     Delta= 1.02D-07
 NORM(A)=   0.10964117D+01
 Iteration Nr.  11
 **********************
 DD1Dir will call FoFMem   1 times, MxPair=       156
 NAB=    78 NAA=     0 NBB=     0.
 DE(Corr)= -0.89405430     E(CORR)=     -312.63529258     Delta=-4.68D-07
 NORM(A)=   0.10964120D+01
 Iteration Nr.  12
 **********************
 DD1Dir will call FoFMem   1 times, MxPair=       156
 NAB=    78 NAA=     0 NBB=     0.
 DE(Corr)= -0.89405433     E(CORR)=     -312.63529261     Delta=-3.17D-08
 NORM(A)=   0.10964122D+01
 Iteration Nr.  13
 **********************
 DD1Dir will call FoFMem   1 times, MxPair=       156
 NAB=    78 NAA=     0 NBB=     0.
 DE(Corr)= -0.89405442     E(CORR)=     -312.63529270     Delta=-9.49D-08
 NORM(A)=   0.10964123D+01
 Iteration Nr.  14
 **********************
 DD1Dir will call FoFMem   1 times, MxPair=       156
 NAB=    78 NAA=     0 NBB=     0.
 DE(Corr)= -0.89405444     E(CORR)=     -312.63529272     Delta=-1.57D-08
 NORM(A)=   0.10964123D+01
 Iteration Nr.  15
 **********************
 DD1Dir will call FoFMem   1 times, MxPair=       156
 NAB=    78 NAA=     0 NBB=     0.
 DE(Corr)= -0.89405445     E(CORR)=     -312.63529273     Delta=-8.71D-09
 NORM(A)=   0.10964123D+01
 Iteration Nr.  16
 **********************
 DD1Dir will call FoFMem   1 times, MxPair=       156
 NAB=    78 NAA=     0 NBB=     0.
 DE(Corr)= -0.89405445     E(CORR)=     -312.63529273     Delta=-4.11D-09
 NORM(A)=   0.10964123D+01
 Largest amplitude= 5.79D-02

 Z-AMPLITUDE ITERATIONS

 Iteration Nr.   1
 **********************
 DD1Dir will call FoFMem   1 times, MxPair=       156
 NAB=    78 NAA=     0 NBB=     0.
 DE(Z)  -0.87475094D+00          E(Z)=    -0.31261598922D+03
 NORM(A)=   0.10964087D+01
 Iteration Nr.   2
 **********************
 DD1Dir will call FoFMem   1 times, MxPair=       156
 NAB=    78 NAA=     0 NBB=     0.
 DE(Z)  -0.87475093D+00          E(Z)=    -0.31261598921D+03
 NORM(A)=   0.10964133D+01
 Iteration Nr.   3
 **********************
 DD1Dir will call FoFMem   1 times, MxPair=       156
 NAB=    78 NAA=     0 NBB=     0.
 DE(Z)  -0.87475095D+00          E(Z)=    -0.31261598923D+03
 NORM(A)=   0.10964118D+01
 Iteration Nr.   4
 **********************
 DD1Dir will call FoFMem   1 times, MxPair=       156
 NAB=    78 NAA=     0 NBB=     0.
 DE(Z)  -0.87475094D+00          E(Z)=    -0.31261598922D+03
 NORM(A)=   0.10964125D+01
 Iteration Nr.   5
 **********************
 DD1Dir will call FoFMem   1 times, MxPair=       156
 NAB=    78 NAA=     0 NBB=     0.
 DE(Z)  -0.87475094D+00          E(Z)=    -0.31261598922D+03
 NORM(A)=   0.10919926D+01
 Iteration Nr.   6
 **********************
 DD1Dir will call FoFMem   1 times, MxPair=       156
 NAB=    78 NAA=     0 NBB=     0.
 DE(Z)  -0.87471711D+00          E(Z)=    -0.31261595539D+03
 NORM(A)=   0.10919795D+01
 Iteration Nr.   7
 **********************
 DD1Dir will call FoFMem   1 times, MxPair=       156
 NAB=    78 NAA=     0 NBB=     0.
 DE(Z)  -0.87468803D+00          E(Z)=    -0.31261592631D+03
 NORM(A)=   0.10919718D+01
 Iteration Nr.   8
 **********************
 DD1Dir will call FoFMem   1 times, MxPair=       156
 NAB=    78 NAA=     0 NBB=     0.
 DE(Z)  -0.87469686D+00          E(Z)=    -0.31261593514D+03
 NORM(A)=   0.10919697D+01
 Iteration Nr.   9
 **********************
 DD1Dir will call FoFMem   1 times, MxPair=       156
 NAB=    78 NAA=     0 NBB=     0.
 DE(Z)  -0.87469376D+00          E(Z)=    -0.31261593204D+03
 NORM(A)=   0.10919697D+01
 Iteration Nr.  10
 **********************
 DD1Dir will call FoFMem   1 times, MxPair=       156
 NAB=    78 NAA=     0 NBB=     0.
 DE(Z)  -0.87469439D+00          E(Z)=    -0.31261593267D+03
 NORM(A)=   0.10919700D+01
 Iteration Nr.  11
 **********************
 DD1Dir will call FoFMem   1 times, MxPair=       156
 NAB=    78 NAA=     0 NBB=     0.
 DE(Z)  -0.87469439D+00          E(Z)=    -0.31261593267D+03
 NORM(A)=   0.10919700D+01
 Iteration Nr.  12
 **********************
 DD1Dir will call FoFMem   1 times, MxPair=       156
 NAB=    78 NAA=     0 NBB=     0.
 DE(Z)  -0.87469440D+00          E(Z)=    -0.31261593268D+03
 NORM(A)=   0.10919700D+01
 Iteration Nr.  13
 **********************
 DD1Dir will call FoFMem   1 times, MxPair=       156
 NAB=    78 NAA=     0 NBB=     0.
 DE(Z)  -0.87469441D+00          E(Z)=    -0.31261593269D+03
 NORM(A)=   0.10919701D+01
 Iteration Nr.  14
 **********************
 DD1Dir will call FoFMem   1 times, MxPair=       156
 NAB=    78 NAA=     0 NBB=     0.
 DE(Z)  -0.87469439D+00          E(Z)=    -0.31261593267D+03
 NORM(A)=   0.10919701D+01
 Iteration Nr.  15
 **********************
 DD1Dir will call FoFMem   1 times, MxPair=       156
 NAB=    78 NAA=     0 NBB=     0.
 DE(Z)  -0.87469440D+00          E(Z)=    -0.31261593268D+03
 NORM(A)=   0.10919701D+01
 Discarding MO integrals.
          IDoAtm=1111
          Differentiating once with respect to electric field.
                with respect to dipole field.
          Differentiating once with respect to nuclear coordinates.
          Keep R1 ints in memory in canonical form, NReq=297441390.
          There are     1 degrees of freedom in the 1st order CPHF.  IDoFFX=0.
 LinEq1:  Iter=  0 NonCon=     1 RMS=3.07D-03 Max=8.45D-02
 AX will form     1 AO Fock derivatives at one time.
 LinEq1:  Iter=  1 NonCon=     1 RMS=7.55D-04 Max=1.10D-02
 LinEq1:  Iter=  2 NonCon=     1 RMS=2.24D-04 Max=3.37D-03
 LinEq1:  Iter=  3 NonCon=     1 RMS=9.87D-05 Max=1.57D-03
 LinEq1:  Iter=  4 NonCon=     1 RMS=2.28D-05 Max=3.71D-04
 LinEq1:  Iter=  5 NonCon=     1 RMS=1.09D-05 Max=2.95D-04
 LinEq1:  Iter=  6 NonCon=     1 RMS=2.58D-06 Max=4.67D-05
 LinEq1:  Iter=  7 NonCon=     1 RMS=5.28D-07 Max=1.03D-05
 LinEq1:  Iter=  8 NonCon=     1 RMS=9.42D-08 Max=1.22D-06
 LinEq1:  Iter=  9 NonCon=     1 RMS=1.29D-08 Max=1.78D-07
 LinEq1:  Iter= 10 NonCon=     1 RMS=1.85D-09 Max=2.10D-08
 LinEq1:  Iter= 11 NonCon=     1 RMS=3.88D-10 Max=5.74D-09
 LinEq1:  Iter= 12 NonCon=     0 RMS=5.36D-11 Max=4.70D-10
 Linear equations converged to 1.000D-10 1.000D-09 after    12 iterations.
 End of Minotr Frequency-dependent properties file   721 does not exist.
 End of Minotr Frequency-dependent properties file   722 does not exist.
 Calling FoFJK, ICntrl=      2127 FMM=F ISym2X=0 I1Cent= 0 IOpClX= 0 NMat=1 NMatS=1 NMatT=0.
 -------------------------------------------------------------------
 Center     Atomic                   Forces (Hartrees/Bohr)
 Number     Number              X              Y              Z
 -------------------------------------------------------------------
      1        8           0.000000001    0.000000000   -0.000756954
      2        6          -0.000000002    0.000000000    0.000847183
      3        9           0.000000001   -0.000400352   -0.000045114
      4        9           0.000000001    0.000400352   -0.000045114
 -------------------------------------------------------------------
 Cartesian Forces:  Max     0.000847183 RMS     0.000366894

 GradGradGradGradGradGradGradGradGradGradGradGradGradGradGradGradGradGrad
 Berny optimization.
 Using GEDIIS/GDIIS optimizer.
 Internal  Forces:  Max     0.000756954 RMS     0.000374294
 Search for a local minimum.
 Step number   4 out of a maximum of   20
 All quantities printed in internal units (Hartrees-Bohrs-Radians)
 Mixed Optimization -- En-DIIS/RFO-DIIS
 Update second derivatives using D2CorX and points    1    2    3    4
 DE= -1.34D-05 DEPred=-1.40D-05 R= 9.61D-01
 SS=  1.41D+00  RLast= 8.87D-03 DXNew= 8.4853D-01 2.6617D-02
 Trust test= 9.61D-01 RLast= 8.87D-03 DXMaxT set to 5.05D-01
 The second derivative matrix:
                          R1        R2        R3        A1        A2
           R1           0.87148
           R2           0.10242   0.52255
           R3           0.10242  -0.02767   0.52255
           A1           0.01807  -0.01616  -0.01616   0.26110
           A2           0.01807  -0.01616  -0.01616   0.01110   0.26110
           A3          -0.03615   0.03231   0.03231  -0.02220  -0.02220
           D1           0.00000   0.00000   0.00000   0.00000   0.00000
                          A3        D1
           A3           0.29439
           D1           0.00000   0.02089
 ITU=  1  1  1  0
 Use linear search instead of GDIIS.
     Eigenvalues ---    0.02089   0.25000   0.28715   0.47409   0.55021
     Eigenvalues ---    0.92170
 RFO step:  Lambda=-1.70886794D-06 EMin= 2.08853423D-02
 Quartic linear search produced a step of -0.03018.
 Iteration  1 RMS(Cart)=  0.00076834 RMS(Int)=  0.00000015
 Iteration  2 RMS(Cart)=  0.00000014 RMS(Int)=  0.00000000
 Variable       Old X    -DE/DX   Delta X   Delta X   Delta X     New X
                                 (Linear)    (Quad)   (Total)
    R1        2.21605  -0.00076  -0.00003  -0.00099  -0.00102   2.21503
    R2        2.47559   0.00035  -0.00012   0.00096   0.00084   2.47644
    R3        2.47559   0.00035  -0.00012   0.00096   0.00084   2.47644
    A1        2.20120  -0.00016  -0.00009  -0.00029  -0.00038   2.20082
    A2        2.20120  -0.00016  -0.00009  -0.00029  -0.00038   2.20082
    A3        1.88079   0.00033   0.00017   0.00058   0.00075   1.88154
    D1        3.14159   0.00000   0.00000   0.00000   0.00000   3.14159
         Item               Value     Threshold  Converged?
 Maximum Force            0.000757     0.000450     NO 
 RMS     Force            0.000374     0.000300     NO 
 Maximum Displacement     0.001231     0.001800     YES
 RMS     Displacement     0.000768     0.001200     YES
 Predicted change in Energy=-8.674652D-07
 GradGradGradGradGradGradGradGradGradGradGradGradGradGradGradGradGradGrad

                          Input orientation:                          
 ---------------------------------------------------------------------
 Center     Atomic      Atomic             Coordinates (Angstroms)
 Number     Number       Type             X           Y           Z
 ---------------------------------------------------------------------
      1          8           0        0.000000    0.000000    0.679927
      2          6           0        0.000000    0.000000   -0.492216
      3          9           0        0.000000   -1.058878   -1.264305
      4          9           0        0.000000    1.058878   -1.264305
 ---------------------------------------------------------------------
                    Distance matrix (angstroms):
                    1          2          3          4
     1  O    0.000000
     2  C    1.172143   0.000000
     3  F    2.213879   1.310475   0.000000
     4  F    2.213879   1.310475   2.117756   0.000000
 Symmetry turned off by external request.
 Stoichiometry    CF2O
 Framework group  CS[SG(CO),X(F2)]
 Deg. of freedom     4
 Full point group                 CS      NOp   2
 Rotational constants (GHZ):     11.8625564     11.7728581      5.9087685
 Standard basis: Aug-CC-pVTZ (5D, 7F)
 Integral buffers will be    131072 words long.
 Raffenetti 1 integral format.
 Two-electron integral symmetry is turned off.
   184 basis functions,   288 primitive gaussians,   220 cartesian basis functions
    16 alpha electrons       16 beta electrons
       nuclear repulsion energy       119.9410512776 Hartrees.
 NAtoms=    4 NActive=    4 NUniq=    4 SFac= 1.00D+00 NAtFMM=   50 NAOKFM=F Big=F
 One-electron integrals computed using PRISM.
 NBasis=   184 RedAO= T  NBF=   184
 NBsUse=   184 1.00D-06 NBFU=   184
 Initial guess read from the read-write file.
 B after Tr=     0.000000    0.000000    0.000000
         Rot=    1.000000    0.000000    0.000000    0.000000 Ang=   0.00 deg.
 Requested convergence on RMS density matrix=1.00D-08 within 128 cycles.
 Requested convergence on MAX density matrix=1.00D-06.
 Requested convergence on             energy=1.00D-06.
 No special actions if energy rises.
[...]
 NORM(A)=   0.10954068D+01
 Iteration Nr.   4
 **********************
 DD1Dir will call FoFMem   1 times, MxPair=       156
 NAB=    78 NAA=     0 NBB=     0.
 DE(Corr)= -0.89375989     E(CORR)=     -312.63499958     Delta=-2.30D-03
 NORM(A)=   0.10962131D+01
 Iteration Nr.   5
 **********************
 DD1Dir will call FoFMem   1 times, MxPair=       156
 NAB=    78 NAA=     0 NBB=     0.
 DE(Corr)= -0.89402569     E(CORR)=     -312.63526538     Delta=-2.66D-04
 NORM(A)=   0.10963956D+01
 Iteration Nr.   6
 **********************
 DD1Dir will call FoFMem   1 times, MxPair=       156
 NAB=    78 NAA=     0 NBB=     0.
 DE(Corr)= -0.89405218     E(CORR)=     -312.63529187     Delta=-2.65D-05
 NORM(A)=   0.10964089D+01
 Iteration Nr.   7
 **********************
 DD1Dir will call FoFMem   1 times, MxPair=       156
 NAB=    78 NAA=     0 NBB=     0.
 DE(Corr)= -0.89405380     E(CORR)=     -312.63529349     Delta=-1.62D-06
 NORM(A)=   0.10964087D+01
 Iteration Nr.   8
 **********************
 DD1Dir will call FoFMem   1 times, MxPair=       156
 NAB=    78 NAA=     0 NBB=     0.
 DE(Corr)= -0.89405279     E(CORR)=     -312.63529248     Delta= 1.01D-06
 NORM(A)=   0.10964091D+01
 Iteration Nr.   9
 **********************
 DD1Dir will call FoFMem   1 times, MxPair=       156
 NAB=    78 NAA=     0 NBB=     0.
 DE(Corr)= -0.89405319     E(CORR)=     -312.63529288     Delta=-3.99D-07
 NORM(A)=   0.10964091D+01
 Iteration Nr.  10
 **********************
 DD1Dir will call FoFMem   1 times, MxPair=       156
 NAB=    78 NAA=     0 NBB=     0.
 DE(Corr)= -0.89405309     E(CORR)=     -312.63529278     Delta= 1.00D-07
 NORM(A)=   0.10964093D+01
 Iteration Nr.  11
 **********************
 DD1Dir will call FoFMem   1 times, MxPair=       156
 NAB=    78 NAA=     0 NBB=     0.
 DE(Corr)= -0.89405356     E(CORR)=     -312.63529325     Delta=-4.71D-07
 NORM(A)=   0.10964096D+01
 Iteration Nr.  12
 **********************
 DD1Dir will call FoFMem   1 times, MxPair=       156
 NAB=    78 NAA=     0 NBB=     0.
 DE(Corr)= -0.89405359     E(CORR)=     -312.63529328     Delta=-3.37D-08
 NORM(A)=   0.10964098D+01
 Iteration Nr.  13
 **********************
 DD1Dir will call FoFMem   1 times, MxPair=       156
 NAB=    78 NAA=     0 NBB=     0.
 DE(Corr)= -0.89405369     E(CORR)=     -312.63529338     Delta=-9.62D-08
 NORM(A)=   0.10964099D+01
 Iteration Nr.  14
 **********************
 DD1Dir will call FoFMem   1 times, MxPair=       156
 NAB=    78 NAA=     0 NBB=     0.
 DE(Corr)= -0.89405371     E(CORR)=     -312.63529340     Delta=-1.60D-08
 NORM(A)=   0.10964099D+01
 Iteration Nr.  15
 **********************
 DD1Dir will call FoFMem   1 times, MxPair=       156
 NAB=    78 NAA=     0 NBB=     0.
 DE(Corr)= -0.89405371     E(CORR)=     -312.63529341     Delta=-8.87D-09
 NORM(A)=   0.10964099D+01
 Iteration Nr.  16
 **********************
 DD1Dir will call FoFMem   1 times, MxPair=       156
 NAB=    78 NAA=     0 NBB=     0.
 DE(Corr)= -0.89405372     E(CORR)=     -312.63529341     Delta=-4.20D-09
 NORM(A)=   0.10964099D+01
 Largest amplitude= 5.78D-02

 Z-AMPLITUDE ITERATIONS

 Iteration Nr.   1
 **********************
 DD1Dir will call FoFMem   1 times, MxPair=       156
 NAB=    78 NAA=     0 NBB=     0.
 DE(Z)  -0.87475078D+00          E(Z)=    -0.31261599047D+03
 NORM(A)=   0.10964119D+01
 Iteration Nr.   2
 **********************
 DD1Dir will call FoFMem   1 times, MxPair=       156
 NAB=    78 NAA=     0 NBB=     0.
 DE(Z)  -0.87475079D+00          E(Z)=    -0.31261599048D+03
 NORM(A)=   0.10964103D+01
 Iteration Nr.   3
 **********************
 DD1Dir will call FoFMem   1 times, MxPair=       156
 NAB=    78 NAA=     0 NBB=     0.
 DE(Z)  -0.87475079D+00          E(Z)=    -0.31261599048D+03
 NORM(A)=   0.10964098D+01
 Iteration Nr.   4
 **********************
 DD1Dir will call FoFMem   1 times, MxPair=       156
 NAB=    78 NAA=     0 NBB=     0.
 DE(Z)  -0.87475078D+00          E(Z)=    -0.31261599047D+03
 NORM(A)=   0.10964099D+01
 Iteration Nr.   5
 **********************
 DD1Dir will call FoFMem   1 times, MxPair=       156
 NAB=    78 NAA=     0 NBB=     0.
 DE(Z)  -0.87475078D+00          E(Z)=    -0.31261599047D+03
 NORM(A)=   0.10918503D+01
 Iteration Nr.   6
 **********************
 DD1Dir will call FoFMem   1 times, MxPair=       156
 NAB=    78 NAA=     0 NBB=     0.
 DE(Z)  -0.87475200D+00          E(Z)=    -0.31261599169D+03
 NORM(A)=   0.10919880D+01
 Iteration Nr.   7
 **********************
 DD1Dir will call FoFMem   1 times, MxPair=       156
 NAB=    78 NAA=     0 NBB=     0.
 DE(Z)  -0.87465638D+00          E(Z)=    -0.31261589608D+03
 NORM(A)=   0.10919599D+01
 Iteration Nr.   8
 **********************
 DD1Dir will call FoFMem   1 times, MxPair=       156
 NAB=    78 NAA=     0 NBB=     0.
 DE(Z)  -0.87469596D+00          E(Z)=    -0.31261593565D+03
 NORM(A)=   0.10919674D+01
 Iteration Nr.   9
 **********************
 DD1Dir will call FoFMem   1 times, MxPair=       156
 NAB=    78 NAA=     0 NBB=     0.
 DE(Z)  -0.87469324D+00          E(Z)=    -0.31261593293D+03
 NORM(A)=   0.10919680D+01
 Iteration Nr.  10
 **********************
 DD1Dir will call FoFMem   1 times, MxPair=       156
 NAB=    78 NAA=     0 NBB=     0.
 DE(Z)  -0.87469397D+00          E(Z)=    -0.31261593366D+03
 NORM(A)=   0.10919682D+01
 Iteration Nr.  11
 **********************
 DD1Dir will call FoFMem   1 times, MxPair=       156
 NAB=    78 NAA=     0 NBB=     0.
 DE(Z)  -0.87469390D+00          E(Z)=    -0.31261593359D+03
 NORM(A)=   0.10919683D+01
 Iteration Nr.  12
 **********************
 DD1Dir will call FoFMem   1 times, MxPair=       156
 NAB=    78 NAA=     0 NBB=     0.
 DE(Z)  -0.87469391D+00          E(Z)=    -0.31261593360D+03
 NORM(A)=   0.10919683D+01
 Iteration Nr.  13
 **********************
 DD1Dir will call FoFMem   1 times, MxPair=       156
 NAB=    78 NAA=     0 NBB=     0.
 DE(Z)  -0.87469393D+00          E(Z)=    -0.31261593362D+03
 NORM(A)=   0.10919683D+01
 Iteration Nr.  14
 **********************
 DD1Dir will call FoFMem   1 times, MxPair=       156
 NAB=    78 NAA=     0 NBB=     0.
 DE(Z)  -0.87469392D+00          E(Z)=    -0.31261593362D+03
 NORM(A)=   0.10919683D+01
 Iteration Nr.  15
 **********************
 DD1Dir will call FoFMem   1 times, MxPair=       156
 NAB=    78 NAA=     0 NBB=     0.
 DE(Z)  -0.87469393D+00          E(Z)=    -0.31261593362D+03
 NORM(A)=   0.10919683D+01
 Discarding MO integrals.
          IDoAtm=1111
          Differentiating once with respect to electric field.
                with respect to dipole field.
          Differentiating once with respect to nuclear coordinates.
          Keep R1 ints in memory in canonical form, NReq=297441390.
          There are     1 degrees of freedom in the 1st order CPHF.  IDoFFX=0.
 LinEq1:  Iter=  0 NonCon=     1 RMS=3.07D-03 Max=8.45D-02
 AX will form     1 AO Fock derivatives at one time.
 LinEq1:  Iter=  1 NonCon=     1 RMS=7.55D-04 Max=1.11D-02
 LinEq1:  Iter=  2 NonCon=     1 RMS=2.24D-04 Max=3.37D-03
 LinEq1:  Iter=  3 NonCon=     1 RMS=9.87D-05 Max=1.57D-03
 LinEq1:  Iter=  4 NonCon=     1 RMS=2.27D-05 Max=3.72D-04
 LinEq1:  Iter=  5 NonCon=     1 RMS=1.09D-05 Max=2.98D-04
 LinEq1:  Iter=  6 NonCon=     1 RMS=2.61D-06 Max=4.75D-05
 LinEq1:  Iter=  7 NonCon=     1 RMS=5.33D-07 Max=1.03D-05
 LinEq1:  Iter=  8 NonCon=     1 RMS=9.45D-08 Max=1.21D-06
 LinEq1:  Iter=  9 NonCon=     1 RMS=1.30D-08 Max=1.78D-07
 LinEq1:  Iter= 10 NonCon=     1 RMS=1.87D-09 Max=2.11D-08
 LinEq1:  Iter= 11 NonCon=     1 RMS=3.90D-10 Max=5.76D-09
 LinEq1:  Iter= 12 NonCon=     0 RMS=5.37D-11 Max=4.71D-10
 Linear equations converged to 1.000D-10 1.000D-09 after    12 iterations.
 End of Minotr Frequency-dependent properties file   721 does not exist.
 End of Minotr Frequency-dependent properties file   722 does not exist.
 Calling FoFJK, ICntrl=      2127 FMM=F ISym2X=0 I1Cent= 0 IOpClX= 0 NMat=1 NMatS=1 NMatT=0.
 -------------------------------------------------------------------
 Center     Atomic                   Forces (Hartrees/Bohr)
 Number     Number              X              Y              Z
 -------------------------------------------------------------------
      1        8          -0.000000004    0.000000000    0.000207553
      2        6           0.000000010    0.000000000   -0.000245444
      3        9          -0.000000003    0.000057845    0.000018946
      4        9          -0.000000003   -0.000057845    0.000018946
 -------------------------------------------------------------------
 Cartesian Forces:  Max     0.000245444 RMS     0.000096060

 GradGradGradGradGradGradGradGradGradGradGradGradGradGradGradGradGradGrad
 Berny optimization.
 Using GEDIIS/GDIIS optimizer.
 Internal  Forces:  Max     0.000207553 RMS     0.000085544
 Search for a local minimum.
 Step number   5 out of a maximum of   20
 All quantities printed in internal units (Hartrees-Bohrs-Radians)
 Mixed Optimization -- En-DIIS/RFO-DIIS
 Swaping is turned off.
 Update second derivatives using D2CorX and points    1    2    3    4    5
 DE= -6.77D-07 DEPred=-8.67D-07 R= 7.81D-01
 Trust test= 7.81D-01 RLast= 1.82D-03 DXMaxT set to 5.05D-01
 The second derivative matrix:
                          R1        R2        R3        A1        A2
           R1           0.98342
           R2           0.06353   0.53073
           R3           0.06353  -0.01948   0.53073
           A1           0.03033  -0.01811  -0.01811   0.26096
           A2           0.03033  -0.01811  -0.01811   0.01096   0.26096
           A3          -0.06066   0.03622   0.03622  -0.02192  -0.02192
           D1           0.00000   0.00000   0.00000   0.00000   0.00000
                          A3        D1
           A3           0.29384
           D1           0.00000   0.02089
 ITU=  0  1  1  1  0
     Eigenvalues ---    0.02089   0.25000   0.28369   0.52118   0.55021
     Eigenvalues ---    1.00555
 En-DIIS/RFO-DIIS IScMMF=        0 using points:     5    4
 RFO step:  Lambda=-5.66035949D-08.
 DidBck=F Rises=F RFO-DIIS coefs:    0.83431    0.16569
 Iteration  1 RMS(Cart)=  0.00009404 RMS(Int)=  0.00000000
 Iteration  2 RMS(Cart)=  0.00000000 RMS(Int)=  0.00000000
 Variable       Old X    -DE/DX   Delta X   Delta X   Delta X     New X
                                  (DIIS)     (GDIIS)  (Total)
    R1        2.21503   0.00021   0.00017   0.00006   0.00023   2.21526
    R2        2.47644  -0.00006  -0.00014   0.00000  -0.00014   2.47630
    R3        2.47644  -0.00006  -0.00014   0.00000  -0.00014   2.47630
    A1        2.20082   0.00002   0.00006  -0.00005   0.00001   2.20084
    A2        2.20082   0.00002   0.00006  -0.00005   0.00001   2.20084
    A3        1.88154  -0.00003  -0.00012   0.00010  -0.00002   1.88151
    D1        3.14159   0.00000   0.00000   0.00000   0.00000  -3.14159
         Item               Value     Threshold  Converged?
 Maximum Force            0.000208     0.000450     YES
 RMS     Force            0.000086     0.000300     YES
 Maximum Displacement     0.000141     0.001800     YES
 RMS     Displacement     0.000094     0.001200     YES
 Predicted change in Energy=-3.212677D-08
 Optimization completed.
    -- Stationary point found.
                           ----------------------------
                           !   Optimized Parameters   !
                           ! (Angstroms and Degrees)  !
 --------------------------                            --------------------------
 ! Name  Definition              Value          Derivative Info.                !
 --------------------------------------------------------------------------------
 ! R1    R(1,2)                  1.1721         -DE/DX =    0.0002              !
 ! R2    R(2,3)                  1.3105         -DE/DX =   -0.0001              !
 ! R3    R(2,4)                  1.3105         -DE/DX =   -0.0001              !
 ! A1    A(1,2,3)              126.098          -DE/DX =    0.0                 !
 ! A2    A(1,2,4)              126.098          -DE/DX =    0.0                 !
 ! A3    A(3,2,4)              107.8041         -DE/DX =    0.0                 !
 ! D1    D(1,2,4,3)           -180.0            -DE/DX =    0.0                 !
 --------------------------------------------------------------------------------
 GradGradGradGradGradGradGradGradGradGradGradGradGradGradGradGradGradGrad

                          Input orientation:                          
 ---------------------------------------------------------------------
 Center     Atomic      Atomic             Coordinates (Angstroms)
 Number     Number       Type             X           Y           Z
 ---------------------------------------------------------------------
      1          8           0        0.000000    0.000000    0.679927
      2          6           0        0.000000    0.000000   -0.492216
      3          9           0        0.000000   -1.058878   -1.264305
      4          9           0        0.000000    1.058878   -1.264305
 ---------------------------------------------------------------------
                    Distance matrix (angstroms):
                    1          2          3          4
     1  O    0.000000
     2  C    1.172143   0.000000
     3  F    2.213879   1.310475   0.000000
     4  F    2.213879   1.310475   2.117756   0.000000
 Symmetry turned off by external request.
 Stoichiometry    CF2O
 Framework group  CS[SG(CO),X(F2)]
 Deg. of freedom     4
 Full point group                 CS      NOp   2
 Rotational constants (GHZ):     11.8625564     11.7728581      5.9087685

 **********************************************************************

            Population analysis using the QCI/CC density.

 **********************************************************************

 Alpha  occ. eigenvalues --  -26.39320 -26.39317 -20.62020 -11.53392  -1.76377
 Alpha  occ. eigenvalues --   -1.68672  -1.47833  -0.95857  -0.86621  -0.81835
 Alpha  occ. eigenvalues --   -0.80635  -0.72758  -0.70590  -0.70517  -0.57651
 Alpha  occ. eigenvalues --   -0.55832
 Alpha virt. eigenvalues --    0.05517   0.07195   0.07794   0.07908   0.15335
 Alpha virt. eigenvalues --    0.17098   0.17196   0.19387   0.19972   0.21580
 Alpha virt. eigenvalues --    0.24816   0.24867   0.26163   0.26400   0.28488
 Alpha virt. eigenvalues --    0.31149   0.34849   0.36132   0.38927   0.41644
 Alpha virt. eigenvalues --    0.44482   0.48614   0.50000   0.52365   0.53574
 Alpha virt. eigenvalues --    0.62891   0.66643   0.69290   0.72304   0.78662
 Alpha virt. eigenvalues --    0.81167   0.81739   0.84772   0.91211   0.93360
 Alpha virt. eigenvalues --    0.96339   0.97293   1.03061   1.04429   1.06900
 Alpha virt. eigenvalues --    1.07453   1.10101   1.10333   1.10733   1.14123
 Alpha virt. eigenvalues --    1.14376   1.18942   1.21738   1.24218   1.26913
 Alpha virt. eigenvalues --    1.28117   1.29868   1.37094   1.40956   1.50227
 Alpha virt. eigenvalues --    1.51639   1.52545   1.55885   1.65652   1.67625
 Alpha virt. eigenvalues --    1.69265   1.75897   1.78391   1.79702   2.03908
 Alpha virt. eigenvalues --    2.22592   2.27757   2.28265   2.33547   2.35665
 Alpha virt. eigenvalues --    2.41257   2.48923   2.55052   2.59586   2.61953
 Alpha virt. eigenvalues --    2.67121   2.70616   2.73193   2.73676   2.77226
 Alpha virt. eigenvalues --    2.80215   2.81826   2.83530   2.88476   2.92358
 Alpha virt. eigenvalues --    2.94332   2.94513   2.94659   3.06098   3.08179
 Alpha virt. eigenvalues --    3.10235   3.10284   3.12250   3.20378   3.23210
 Alpha virt. eigenvalues --    3.31542   3.36252   3.39134   3.46230   3.52591
 Alpha virt. eigenvalues --    3.56044   3.60055   3.63428   3.78938   3.81177
 Alpha virt. eigenvalues --    3.95043   4.00409   4.01884   4.03406   4.07662
 Alpha virt. eigenvalues --    4.21239   4.21332   4.40372   4.41403   4.53192
 Alpha virt. eigenvalues --    4.60129   4.75388   4.77281   4.83438   5.26574
 Alpha virt. eigenvalues --    5.33934   5.46049   5.47038   5.56742   5.74209
 Alpha virt. eigenvalues --    6.12029   6.56991   6.58328   6.68905   6.89026
 Alpha virt. eigenvalues --    7.10471   7.13527   7.18849   7.21295   7.24331
 Alpha virt. eigenvalues --    7.39356   7.50334   7.60653   7.69729   7.69940
 Alpha virt. eigenvalues --    8.78675   8.80136   8.84985   8.86881   9.00267
 Alpha virt. eigenvalues --    9.02642   9.11750   9.13076   9.19416   9.25893
 Alpha virt. eigenvalues --    9.26913   9.30296   9.33125   9.33359   9.33821
 Alpha virt. eigenvalues --    9.35107   9.37106   9.56164   9.61366   9.62768
 Alpha virt. eigenvalues --    9.66524   9.75639   9.87652   9.95854  13.36516
 Alpha virt. eigenvalues --   15.05950  16.18579  17.35768
          Condensed to atoms (all electrons):
              1          2          3          4
     1  O    7.946839   0.500016  -0.079667  -0.079667
     2  C    0.500016   4.519564   0.185127   0.185127
     3  F   -0.079667   0.185127   9.104377  -0.048515
     4  F   -0.079667   0.185127  -0.048515   9.104377
 Mulliken atomic charges:
              1
     1  O   -0.287521
     2  C    0.610166
     3  F   -0.161322
     4  F   -0.161322
 Sum of Mulliken atomic charges =   0.00000
 Mulliken charges with hydrogens summed into heavy atoms:
              1
     1  O   -0.287521
     2  C    0.610166
     3  F   -0.161322
     4  F   -0.161322
 Sum of Mulliken charges with hydrogens summed into heavy atoms =   0.00000
 Electronic spatial extent (au):  <R**2>=            239.4176
 Charge=              0.0000 electrons
 Dipole moment (field-independent basis, Debye):
    X=              0.0000    Y=              0.0000    Z=             -1.0334  Tot=              1.0334
 Quadrupole moment (field-independent basis, Debye-Ang):
   XX=            -18.9049   YY=            -21.3170   ZZ=            -21.9184
   XY=              0.0000   XZ=              0.0000   YZ=              0.0000
 Traceless Quadrupole moment (field-independent basis, Debye-Ang):
   XX=              1.8085   YY=             -0.6035   ZZ=             -1.2050
   XY=              0.0000   XZ=              0.0000   YZ=              0.0000
 Octapole moment (field-independent basis, Debye-Ang**2):
  XXX=              0.0000  YYY=              0.0000  ZZZ=             34.2714  XYY=              0.0000
  XXY=              0.0000  XXZ=             10.3473  XZZ=              0.0000  YZZ=              0.0000
  YYZ=             12.0138  XYZ=              0.0000
 Hexadecapole moment (field-independent basis, Debye-Ang**3):
 XXXX=            -13.4823 YYYY=            -79.9306 ZZZZ=           -132.3927 XXXY=              0.0000
 XXXZ=              0.0000 YYYX=              0.0000 YYYZ=              0.0000 ZZZX=              0.0000
 ZZZY=              0.0000 XXYY=            -15.6413 XXZZ=            -23.5676 YYZZ=            -36.1537
 XXYZ=              0.0000 YYXZ=              0.0000 ZZXY=              0.0000
 N-N= 1.199410512776D+02 E-N=-9.819255889212D+02  KE= 3.123814755652D+02
 1\1\GINC-TRAPISTA\FOpt\RQCISD-FC\Aug-CC-pVTZ\C1F2O1\BRUNS\16-Nov-2021\
 0\\#opt qcisd/aug-cc-pvtz density=current nosym\\f2co\\0,1\O,0.0000000
 071,0.,0.6799269506\C,-0.0000000178,0.,-0.4922162769\F,0.0000000054,-1
 .0588779477,-1.2643053369\F,0.0000000054,1.0588779477,-1.2643053369\\V
 ersion=EM64L-G09RevB.01\HF=-311.7412397\MP2=-312.6371437\MP3=-312.6246
 444\MP4D=-312.6402441\MP4DQ=-312.6241872\MP4SDQ=-312.6357903\QCISD=-31
 2.6352934\RMSD=6.933e-09\RMSF=9.606e-05\Dipole=0.,0.,-0.4065526\Quadru
 pole=1.3445923,-0.4487089,-0.8958834,0.,0.,0.\PG=CS [SG(C1O1),X(F2)]\\
 @


 KNOWING HOW CONTENTED, FREE, AND JOYFUL IS LIFE IN
 THE REALMS OF SCIENCE, ONE FERVENTLY WISHES THAT
 MANY WOULD ENTER HER PORTALS.
   --  DMITRI IVANOVICH MENDELEEV
 "FIRST PRINCIPLES OF CHEMISTRY", LONGMANS, GREEN,
 AND CO.  LONDON, 1891
 Job cpu time:  0 days 10 hours 25 minutes  4.5 seconds.
 File lengths (MBytes):  RWF=  17493 Int=      0 D2E=      0 Chk=      4 Scr=      1
 Normal termination of Gaussian 09 at Tue Nov 16 19:16:10 2021.
