 br2cs-wavefunction
GAUSSIAN            214 MOL ORBITALS    620 PRIMITIVES        4 NUCLEI
  C    1    (CENTRE  1)   0.00000000  0.00000000 -0.98162013  CHARGE =  6.0
  S    2    (CENTRE  2)   0.00000000  0.00000000  2.04788109  CHARGE = 16.0
  Br   3    (CENTRE  3)   0.00000000 -2.96406568 -2.98306498  CHARGE = 35.0
  Br   4    (CENTRE  4)   0.01889726  2.96406568 -2.98306498  CHARGE = 35.0
CENTRE ASSIGNMENTS    1  1  1  1  1  1  1  1  1  1  1  1  1  1  1  1  1  1  1  1
CENTRE ASSIGNMENTS    1  1  1  1  1  1  1  1  1  1  1  1  1  1  1  1  1  1  1  1
CENTRE ASSIGNMENTS    1  1  1  1  1  1  1  1  1  1  1  1  1  1  1  1  1  1  1  1
CENTRE ASSIGNMENTS    1  1  1  1  1  1  1  1  1  1  1  1  2  2  2  2  2  2  2  2
CENTRE ASSIGNMENTS    2  2  2  2  2  2  2  2  2  2  2  2  2  2  2  2  2  2  2  2
CENTRE ASSIGNMENTS    2  2  2  2  2  2  2  2  2  2  2  2  2  2  2  2  2  2  2  2
CENTRE ASSIGNMENTS    2  2  2  2  2  2  2  2  2  2  2  2  2  2  2  2  2  2  2  2
CENTRE ASSIGNMENTS    2  2  2  2  2  2  2  2  2  2  2  2  2  2  2  2  2  2  2  2
CENTRE ASSIGNMENTS    2  2  2  2  2  2  2  2  2  2  2  2  2  2  2  2  2  2  2  2
CENTRE ASSIGNMENTS    2  2  2  2  2  2  3  3  3  3  3  3  3  3  3  3  3  3  3  3
CENTRE ASSIGNMENTS    3  3  3  3  3  3  3  3  3  3  3  3  3  3  3  3  3  3  3  3
CENTRE ASSIGNMENTS    3  3  3  3  3  3  3  3  3  3  3  3  3  3  3  3  3  3  3  3
CENTRE ASSIGNMENTS    3  3  3  3  3  3  3  3  3  3  3  3  3  3  3  3  3  3  3  3
CENTRE ASSIGNMENTS    3  3  3  3  3  3  3  3  3  3  3  3  3  3  3  3  3  3  3  3
CENTRE ASSIGNMENTS    3  3  3  3  3  3  3  3  3  3  3  3  3  3  3  3  3  3  3  3
CENTRE ASSIGNMENTS    3  3  3  3  3  3  3  3  3  3  3  3  3  3  3  3  3  3  3  3
CENTRE ASSIGNMENTS    3  3  3  3  3  3  3  3  3  3  3  3  3  3  3  3  3  3  3  3
CENTRE ASSIGNMENTS    3  3  3  3  3  3  3  3  3  3  3  3  3  3  3  3  3  3  3  3
CENTRE ASSIGNMENTS    3  3  3  3  3  3  3  3  3  3  3  3  3  3  3  3  3  3  3  3
CENTRE ASSIGNMENTS    3  3  3  3  3  3  3  3  3  3  3  3  3  3  3  3  3  3  3  3
CENTRE ASSIGNMENTS    3  3  3  4  4  4  4  4  4  4  4  4  4  4  4  4  4  4  4  4
CENTRE ASSIGNMENTS    4  4  4  4  4  4  4  4  4  4  4  4  4  4  4  4  4  4  4  4
CENTRE ASSIGNMENTS    4  4  4  4  4  4  4  4  4  4  4  4  4  4  4  4  4  4  4  4
CENTRE ASSIGNMENTS    4  4  4  4  4  4  4  4  4  4  4  4  4  4  4  4  4  4  4  4
CENTRE ASSIGNMENTS    4  4  4  4  4  4  4  4  4  4  4  4  4  4  4  4  4  4  4  4
CENTRE ASSIGNMENTS    4  4  4  4  4  4  4  4  4  4  4  4  4  4  4  4  4  4  4  4
CENTRE ASSIGNMENTS    4  4  4  4  4  4  4  4  4  4  4  4  4  4  4  4  4  4  4  4
CENTRE ASSIGNMENTS    4  4  4  4  4  4  4  4  4  4  4  4  4  4  4  4  4  4  4  4
CENTRE ASSIGNMENTS    4  4  4  4  4  4  4  4  4  4  4  4  4  4  4  4  4  4  4  4
CENTRE ASSIGNMENTS    4  4  4  4  4  4  4  4  4  4  4  4  4  4  4  4  4  4  4  4
CENTRE ASSIGNMENTS    4  4  4  4  4  4  4  4  4  4  4  4  4  4  4  4  4  4  4  4
TYPE ASSIGNMENTS      1  1  1  1  1  1  1  1  1  1  1  1  1  1  1  1  2  2  2  3
TYPE ASSIGNMENTS      3  3  4  4  4  2  3  4  2  3  4  2  3  4  5  6  7  8  9 10
TYPE ASSIGNMENTS      5  6  7  8  9 10  5  6  7  8  9 10 11 12 13 17 14 15 18 19
TYPE ASSIGNMENTS     16 20 11 12 13 17 14 15 18 19 16 20  1  1  1  1  1  1  1  1
TYPE ASSIGNMENTS      1  1  1  1  1  1  1  1  1  1  1  1  1  1  1  1  1  1  1  1
TYPE ASSIGNMENTS      1  1  1  2  2  2  2  2  2  3  3  3  3  3  3  4  4  4  4  4
TYPE ASSIGNMENTS      4  2  2  2  2  2  2  3  3  3  3  3  3  4  4  4  4  4  4  2
TYPE ASSIGNMENTS      3  4  2  3  4  2  3  4  5  6  7  8  9 10  5  6  7  8  9 10
TYPE ASSIGNMENTS      5  6  7  8  9 10 11 12 13 17 14 15 18 19 16 20 11 12 13 17
TYPE ASSIGNMENTS     14 15 18 19 16 20  1  1  1  1  1  1  1  1  1  1  1  1  1  1
TYPE ASSIGNMENTS      1  1  1  1  1  1  1  1  1  1  1  1  1  1  1  1  1  1  1  1
TYPE ASSIGNMENTS      1  1  1  1  1  1  1  1  1  1  1  1  1  1  1  1  2  2  2  2
TYPE ASSIGNMENTS      2  2  2  2  2  3  3  3  3  3  3  3  3  3  4  4  4  4  4  4
TYPE ASSIGNMENTS      4  4  4  2  2  2  2  2  2  2  2  2  3  3  3  3  3  3  3  3
TYPE ASSIGNMENTS      3  4  4  4  4  4  4  4  4  4  2  2  2  2  2  2  2  2  3  3
TYPE ASSIGNMENTS      3  3  3  3  3  3  4  4  4  4  4  4  4  4  2  3  4  2  3  4
TYPE ASSIGNMENTS      2  3  4  5  5  5  5  5  5  5  6  6  6  6  6  6  6  7  7  7
TYPE ASSIGNMENTS      7  7  7  7  8  8  8  8  8  8  8  9  9  9  9  9  9  9 10 10
TYPE ASSIGNMENTS     10 10 10 10 10  5  6  7  8  9 10  5  6  7  8  9 10  5  6  7
TYPE ASSIGNMENTS      8  9 10 11 12 13 17 14 15 18 19 16 20 11 12 13 17 14 15 18
TYPE ASSIGNMENTS     19 16 20  1  1  1  1  1  1  1  1  1  1  1  1  1  1  1  1  1
TYPE ASSIGNMENTS      1  1  1  1  1  1  1  1  1  1  1  1  1  1  1  1  1  1  1  1
TYPE ASSIGNMENTS      1  1  1  1  1  1  1  1  1  1  1  1  1  2  2  2  2  2  2  2
TYPE ASSIGNMENTS      2  2  3  3  3  3  3  3  3  3  3  4  4  4  4  4  4  4  4  4
TYPE ASSIGNMENTS      2  2  2  2  2  2  2  2  2  3  3  3  3  3  3  3  3  3  4  4
TYPE ASSIGNMENTS      4  4  4  4  4  4  4  2  2  2  2  2  2  2  2  3  3  3  3  3
TYPE ASSIGNMENTS      3  3  3  4  4  4  4  4  4  4  4  2  3  4  2  3  4  2  3  4
TYPE ASSIGNMENTS      5  5  5  5  5  5  5  6  6  6  6  6  6  6  7  7  7  7  7  7
TYPE ASSIGNMENTS      7  8  8  8  8  8  8  8  9  9  9  9  9  9  9 10 10 10 10 10
TYPE ASSIGNMENTS     10 10  5  6  7  8  9 10  5  6  7  8  9 10  5  6  7  8  9 10
TYPE ASSIGNMENTS     11 12 13 17 14 15 18 19 16 20 11 12 13 17 14 15 18 19 16 20
EXPONENTS  0.8236000D+04 0.1235000D+04 0.2808000D+03 0.7927000D+02 0.2559000D+02
EXPONENTS  0.8997000D+01 0.3319000D+01 0.2808000D+03 0.7927000D+02 0.2559000D+02
EXPONENTS  0.8997000D+01 0.3319000D+01 0.3643000D+00 0.9059000D+00 0.1285000D+00
EXPONENTS  0.4402000D-01 0.1871000D+02 0.4133000D+01 0.1200000D+01 0.1871000D+02
EXPONENTS  0.4133000D+01 0.1200000D+01 0.1871000D+02 0.4133000D+01 0.1200000D+01
EXPONENTS  0.3827000D+00 0.3827000D+00 0.3827000D+00 0.1209000D+00 0.1209000D+00
EXPONENTS  0.1209000D+00 0.3569000D-01 0.3569000D-01 0.3569000D-01 0.1097000D+01
EXPONENTS  0.1097000D+01 0.1097000D+01 0.1097000D+01 0.1097000D+01 0.1097000D+01
EXPONENTS  0.3180000D+00 0.3180000D+00 0.3180000D+00 0.3180000D+00 0.3180000D+00
EXPONENTS  0.3180000D+00 0.1000000D+00 0.1000000D+00 0.1000000D+00 0.1000000D+00
EXPONENTS  0.1000000D+00 0.1000000D+00 0.7610000D+00 0.7610000D+00 0.7610000D+00
EXPONENTS  0.7610000D+00 0.7610000D+00 0.7610000D+00 0.7610000D+00 0.7610000D+00
EXPONENTS  0.7610000D+00 0.7610000D+00 0.2680000D+00 0.2680000D+00 0.2680000D+00
EXPONENTS  0.2680000D+00 0.2680000D+00 0.2680000D+00 0.2680000D+00 0.2680000D+00
EXPONENTS  0.2680000D+00 0.2680000D+00 0.3741000D+06 0.5605000D+05 0.1276000D+05
EXPONENTS  0.3615000D+04 0.1183000D+04 0.4288000D+03 0.1678000D+03 0.6947000D+02
EXPONENTS  0.2984000D+02 0.1272000D+02 0.5244000D+01 0.3615000D+04 0.1183000D+04
EXPONENTS  0.4288000D+03 0.1678000D+03 0.6947000D+02 0.2984000D+02 0.1272000D+02
EXPONENTS  0.5244000D+01 0.2219000D+01 0.1183000D+04 0.1678000D+03 0.6947000D+02
EXPONENTS  0.2984000D+02 0.1272000D+02 0.5244000D+01 0.2219000D+01 0.3490000D+00
EXPONENTS  0.7767000D+00 0.1322000D+00 0.4970000D-01 0.5744000D+03 0.1358000D+03
EXPONENTS  0.4319000D+02 0.1587000D+02 0.6208000D+01 0.2483000D+01 0.5744000D+03
EXPONENTS  0.1358000D+03 0.4319000D+02 0.1587000D+02 0.6208000D+01 0.2483000D+01
EXPONENTS  0.5744000D+03 0.1358000D+03 0.4319000D+02 0.1587000D+02 0.6208000D+01
EXPONENTS  0.2483000D+01 0.1358000D+03 0.4319000D+02 0.1587000D+02 0.6208000D+01
EXPONENTS  0.2483000D+01 0.3229000D+00 0.1358000D+03 0.4319000D+02 0.1587000D+02
EXPONENTS  0.6208000D+01 0.2483000D+01 0.3229000D+00 0.1358000D+03 0.4319000D+02
EXPONENTS  0.1587000D+02 0.6208000D+01 0.2483000D+01 0.3229000D+00 0.8688000D+00
EXPONENTS  0.8688000D+00 0.8688000D+00 0.1098000D+00 0.1098000D+00 0.1098000D+00
EXPONENTS  0.3510000D-01 0.3510000D-01 0.3510000D-01 0.2690000D+00 0.2690000D+00
EXPONENTS  0.2690000D+00 0.2690000D+00 0.2690000D+00 0.2690000D+00 0.8190000D+00
EXPONENTS  0.8190000D+00 0.8190000D+00 0.8190000D+00 0.8190000D+00 0.8190000D+00
EXPONENTS  0.1010000D+00 0.1010000D+00 0.1010000D+00 0.1010000D+00 0.1010000D+00
EXPONENTS  0.1010000D+00 0.5570000D+00 0.5570000D+00 0.5570000D+00 0.5570000D+00
EXPONENTS  0.5570000D+00 0.5570000D+00 0.5570000D+00 0.5570000D+00 0.5570000D+00
EXPONENTS  0.5570000D+00 0.2180000D+00 0.2180000D+00 0.2180000D+00 0.2180000D+00
EXPONENTS  0.2180000D+00 0.2180000D+00 0.2180000D+00 0.2180000D+00 0.2180000D+00
EXPONENTS  0.2180000D+00 0.1063900D+08 0.1593400D+07 0.3626100D+06 0.1027000D+06
EXPONENTS  0.3350100D+05 0.1209300D+05 0.4715900D+04 0.1955600D+04 0.8526100D+03
EXPONENTS  0.3876700D+03 0.1826800D+03 0.8824500D+02 0.3926300D+02 0.9405700D+01
EXPONENTS  0.1899500D+01 0.3350100D+05 0.1209300D+05 0.4715900D+04 0.1955600D+04
EXPONENTS  0.8526100D+03 0.3876700D+03 0.1826800D+03 0.8824500D+02 0.3926300D+02
EXPONENTS  0.1923400D+02 0.9405700D+01 0.1899500D+01 0.4715900D+04 0.8526100D+03
EXPONENTS  0.3876700D+03 0.1826800D+03 0.8824500D+02 0.3926300D+02 0.1923400D+02
EXPONENTS  0.9405700D+01 0.4160100D+01 0.1899500D+01 0.4715900D+04 0.8526100D+03
EXPONENTS  0.3876700D+03 0.8824500D+02 0.3926300D+02 0.1923400D+02 0.9405700D+01
EXPONENTS  0.4160100D+01 0.1899500D+01 0.3011400D+00 0.6047200D+00 0.1251500D+00
EXPONENTS  0.4559300D-01 0.8676500D+04 0.2055900D+04 0.6662300D+03 0.2531000D+03
EXPONENTS  0.1061200D+03 0.4724200D+02 0.2182500D+02 0.9968400D+01 0.1998200D+01
EXPONENTS  0.8676500D+04 0.2055900D+04 0.6662300D+03 0.2531000D+03 0.1061200D+03
EXPONENTS  0.4724200D+02 0.2182500D+02 0.9968400D+01 0.1998200D+01 0.8676500D+04
EXPONENTS  0.2055900D+04 0.6662300D+03 0.2531000D+03 0.1061200D+03 0.4724200D+02
EXPONENTS  0.2182500D+02 0.9968400D+01 0.1998200D+01 0.8676500D+04 0.6662300D+03
EXPONENTS  0.2531000D+03 0.1061200D+03 0.4724200D+02 0.2182500D+02 0.9968400D+01
EXPONENTS  0.4517100D+01 0.1998200D+01 0.8676500D+04 0.6662300D+03 0.2531000D+03
EXPONENTS  0.1061200D+03 0.4724200D+02 0.2182500D+02 0.9968400D+01 0.4517100D+01
EXPONENTS  0.1998200D+01 0.8676500D+04 0.6662300D+03 0.2531000D+03 0.1061200D+03
EXPONENTS  0.4724200D+02 0.2182500D+02 0.9968400D+01 0.4517100D+01 0.1998200D+01
EXPONENTS  0.6662300D+03 0.1061200D+03 0.4724200D+02 0.2182500D+02 0.9968400D+01
EXPONENTS  0.4517100D+01 0.1998200D+01 0.2814500D+00 0.6662300D+03 0.1061200D+03
EXPONENTS  0.4724200D+02 0.2182500D+02 0.9968400D+01 0.4517100D+01 0.1998200D+01
EXPONENTS  0.2814500D+00 0.6662300D+03 0.1061200D+03 0.4724200D+02 0.2182500D+02
EXPONENTS  0.9968400D+01 0.4517100D+01 0.1998200D+01 0.2814500D+00 0.7098800D+00
EXPONENTS  0.7098800D+00 0.7098800D+00 0.1020400D+00 0.1020400D+00 0.1020400D+00
EXPONENTS  0.3514200D-01 0.3514200D-01 0.3514200D-01 0.4038300D+03 0.1211700D+03
EXPONENTS  0.4634500D+02 0.1972100D+02 0.8862400D+01 0.3996200D+01 0.1763600D+01
EXPONENTS  0.4038300D+03 0.1211700D+03 0.4634500D+02 0.1972100D+02 0.8862400D+01
EXPONENTS  0.3996200D+01 0.1763600D+01 0.4038300D+03 0.1211700D+03 0.4634500D+02
EXPONENTS  0.1972100D+02 0.8862400D+01 0.3996200D+01 0.1763600D+01 0.4038300D+03
EXPONENTS  0.1211700D+03 0.4634500D+02 0.1972100D+02 0.8862400D+01 0.3996200D+01
EXPONENTS  0.1763600D+01 0.4038300D+03 0.1211700D+03 0.4634500D+02 0.1972100D+02
EXPONENTS  0.8862400D+01 0.3996200D+01 0.1763600D+01 0.4038300D+03 0.1211700D+03
EXPONENTS  0.4634500D+02 0.1972100D+02 0.8862400D+01 0.3996200D+01 0.1763600D+01
EXPONENTS  0.7061900D+00 0.7061900D+00 0.7061900D+00 0.7061900D+00 0.7061900D+00
EXPONENTS  0.7061900D+00 0.2639000D+00 0.2639000D+00 0.2639000D+00 0.2639000D+00
EXPONENTS  0.2639000D+00 0.2639000D+00 0.1047000D+00 0.1047000D+00 0.1047000D+00
EXPONENTS  0.1047000D+00 0.1047000D+00 0.1047000D+00 0.5515000D+00 0.5515000D+00
EXPONENTS  0.5515000D+00 0.5515000D+00 0.5515000D+00 0.5515000D+00 0.5515000D+00
EXPONENTS  0.5515000D+00 0.5515000D+00 0.5515000D+00 0.2580000D+00 0.2580000D+00
EXPONENTS  0.2580000D+00 0.2580000D+00 0.2580000D+00 0.2580000D+00 0.2580000D+00
EXPONENTS  0.2580000D+00 0.2580000D+00 0.2580000D+00 0.1063900D+08 0.1593400D+07
EXPONENTS  0.3626100D+06 0.1027000D+06 0.3350100D+05 0.1209300D+05 0.4715900D+04
EXPONENTS  0.1955600D+04 0.8526100D+03 0.3876700D+03 0.1826800D+03 0.8824500D+02
EXPONENTS  0.3926300D+02 0.9405700D+01 0.1899500D+01 0.3350100D+05 0.1209300D+05
EXPONENTS  0.4715900D+04 0.1955600D+04 0.8526100D+03 0.3876700D+03 0.1826800D+03
EXPONENTS  0.8824500D+02 0.3926300D+02 0.1923400D+02 0.9405700D+01 0.1899500D+01
EXPONENTS  0.4715900D+04 0.8526100D+03 0.3876700D+03 0.1826800D+03 0.8824500D+02
EXPONENTS  0.3926300D+02 0.1923400D+02 0.9405700D+01 0.4160100D+01 0.1899500D+01
EXPONENTS  0.4715900D+04 0.8526100D+03 0.3876700D+03 0.8824500D+02 0.3926300D+02
EXPONENTS  0.1923400D+02 0.9405700D+01 0.4160100D+01 0.1899500D+01 0.3011400D+00
EXPONENTS  0.6047200D+00 0.1251500D+00 0.4559300D-01 0.8676500D+04 0.2055900D+04
EXPONENTS  0.6662300D+03 0.2531000D+03 0.1061200D+03 0.4724200D+02 0.2182500D+02
EXPONENTS  0.9968400D+01 0.1998200D+01 0.8676500D+04 0.2055900D+04 0.6662300D+03
EXPONENTS  0.2531000D+03 0.1061200D+03 0.4724200D+02 0.2182500D+02 0.9968400D+01
EXPONENTS  0.1998200D+01 0.8676500D+04 0.2055900D+04 0.6662300D+03 0.2531000D+03
EXPONENTS  0.1061200D+03 0.4724200D+02 0.2182500D+02 0.9968400D+01 0.1998200D+01
EXPONENTS  0.8676500D+04 0.6662300D+03 0.2531000D+03 0.1061200D+03 0.4724200D+02
EXPONENTS  0.2182500D+02 0.9968400D+01 0.4517100D+01 0.1998200D+01 0.8676500D+04
EXPONENTS  0.6662300D+03 0.2531000D+03 0.1061200D+03 0.4724200D+02 0.2182500D+02
EXPONENTS  0.9968400D+01 0.4517100D+01 0.1998200D+01 0.8676500D+04 0.6662300D+03
EXPONENTS  0.2531000D+03 0.1061200D+03 0.4724200D+02 0.2182500D+02 0.9968400D+01
EXPONENTS  0.4517100D+01 0.1998200D+01 0.6662300D+03 0.1061200D+03 0.4724200D+02
EXPONENTS  0.2182500D+02 0.9968400D+01 0.4517100D+01 0.1998200D+01 0.2814500D+00
EXPONENTS  0.6662300D+03 0.1061200D+03 0.4724200D+02 0.2182500D+02 0.9968400D+01
EXPONENTS  0.4517100D+01 0.1998200D+01 0.2814500D+00 0.6662300D+03 0.1061200D+03
EXPONENTS  0.4724200D+02 0.2182500D+02 0.9968400D+01 0.4517100D+01 0.1998200D+01
EXPONENTS  0.2814500D+00 0.7098800D+00 0.7098800D+00 0.7098800D+00 0.1020400D+00
EXPONENTS  0.1020400D+00 0.1020400D+00 0.3514200D-01 0.3514200D-01 0.3514200D-01
EXPONENTS  0.4038300D+03 0.1211700D+03 0.4634500D+02 0.1972100D+02 0.8862400D+01
EXPONENTS  0.3996200D+01 0.1763600D+01 0.4038300D+03 0.1211700D+03 0.4634500D+02
EXPONENTS  0.1972100D+02 0.8862400D+01 0.3996200D+01 0.1763600D+01 0.4038300D+03
EXPONENTS  0.1211700D+03 0.4634500D+02 0.1972100D+02 0.8862400D+01 0.3996200D+01
EXPONENTS  0.1763600D+01 0.4038300D+03 0.1211700D+03 0.4634500D+02 0.1972100D+02
EXPONENTS  0.8862400D+01 0.3996200D+01 0.1763600D+01 0.4038300D+03 0.1211700D+03
EXPONENTS  0.4634500D+02 0.1972100D+02 0.8862400D+01 0.3996200D+01 0.1763600D+01
EXPONENTS  0.4038300D+03 0.1211700D+03 0.4634500D+02 0.1972100D+02 0.8862400D+01
EXPONENTS  0.3996200D+01 0.1763600D+01 0.7061900D+00 0.7061900D+00 0.7061900D+00
EXPONENTS  0.7061900D+00 0.7061900D+00 0.7061900D+00 0.2639000D+00 0.2639000D+00
EXPONENTS  0.2639000D+00 0.2639000D+00 0.2639000D+00 0.2639000D+00 0.1047000D+00
EXPONENTS  0.1047000D+00 0.1047000D+00 0.1047000D+00 0.1047000D+00 0.1047000D+00
EXPONENTS  0.5515000D+00 0.5515000D+00 0.5515000D+00 0.5515000D+00 0.5515000D+00
EXPONENTS  0.5515000D+00 0.5515000D+00 0.5515000D+00 0.5515000D+00 0.5515000D+00
EXPONENTS  0.2580000D+00 0.2580000D+00 0.2580000D+00 0.2580000D+00 0.2580000D+00
EXPONENTS  0.2580000D+00 0.2580000D+00 0.2580000D+00 0.2580000D+00 0.2580000D+00
MO    1     MO 0.0        OCC NO =    2.0000283  ORB. ENERGY =    0.000000
 -0.73653127D-06 -0.13730427D-05 -0.23206292D-05 -0.34883385D-05 -0.42847990D-05
 -0.36162192D-05 -0.13597929D-05 -0.11753289D-09 -0.87848555D-09 -0.32831011D-08
 -0.91593409D-08 -0.12270992D-07  0.14489753D-07 -0.59767035D-07 -0.65440107D-07
 -0.15734493D-07 -0.83443765D-05 -0.78233834D-05 -0.55707150D-05 -0.26176040D-02
 -0.24541701D-02 -0.17475153D-02  0.11759037D-06  0.11024844D-06  0.78503460D-07
 -0.17571779D-05 -0.55122248D-03  0.92405724D-08  0.41037528D-05  0.12873904D-02
  0.17844507D-07  0.25666831D-06  0.80520685D-04  0.16733695D-08 -0.23879908D-09
 -0.25640776D-08  0.28028767D-08 -0.21468379D-07 -0.37880074D-05 -0.11883252D-02
  0.50985824D-08  0.17052987D-08 -0.68038811D-08  0.12328879D-05  0.50185579D-08
  0.15824565D-05  0.46592461D-08 -0.30661856D-08 -0.15930605D-08  0.13829095D-05
 -0.10243902D-05 -0.32135530D-03  0.87704827D-06  0.11230938D-03 -0.36586585D-09
 -0.68006175D-06  0.27513103D-03  0.25704588D-08 -0.19510831D-05 -0.61205917D-03
 -0.14728613D-08  0.10998746D-05 -0.43986844D-06 -0.68582239D-04  0.18696921D-08
  0.22388833D-06 -0.13798706D-03 -0.33671119D-08  0.10957170D-05  0.34373378D-03
 -0.22419644D-08 -0.62524168D-06 -0.20682153D-05 -0.38667369D-05 -0.66828706D-05
 -0.10809268D-04 -0.16337847D-04 -0.22500597D-04 -0.26300458D-04 -0.22730634D-04
 -0.10608505D-04 -0.14372197D-05  0.10512032D-07 -0.25724705D-07 -0.33068850D-06
 -0.12063041D-05 -0.40700402D-05 -0.89396344D-05 -0.11547569D-04  0.18557926D-05
  0.15567894D-04  0.85434597D-05 -0.22926300D-09 -0.26114481D-08 -0.54223076D-08
 -0.14909969D-07  0.19332487D-08  0.67416088D-07  0.16814643D-06 -0.13918918D-06
  0.46842619D-06  0.22189659D-08 -0.37518933D-08  0.30935125D-01  0.40585125D-01
  0.44513098D-01  0.36624036D-01  0.19306110D-01  0.50230866D-02  0.97045011D+01
  0.12731754D+02  0.13963978D+02  0.11489141D+02  0.60564217D+01  0.15757670D+01
  0.14547997D-03  0.19086145D-03  0.20933371D-03  0.17223347D-03  0.90791691D-04
  0.23622290D-04  0.28227422D-06  0.10132411D-04  0.16075325D-04  0.19088955D-04
  0.28886620D-05 -0.21023141D-04  0.88550845D-04  0.31785885D-02  0.50429103D-02
  0.59883013D-02  0.90618782D-03 -0.65950652D-02  0.13000080D-08  0.46664607D-07
  0.74034568D-07  0.87913779D-07  0.13303672D-07 -0.96821632D-07  0.21451979D-03
  0.67295910D-01  0.10481455D-05 -0.10229150D-05 -0.32090192D-03 -0.84599079D-08
 -0.89360392D-07 -0.28033774D-04 -0.14986778D-09 -0.58791844D-08 -0.29840984D-08
  0.88632828D-08 -0.89699402D-07  0.24483387D-05  0.76806217D-03  0.36492791D-08
 -0.58349146D-08  0.21856355D-08  0.24694130D-06 -0.23223173D-05 -0.72853987D-03
 -0.90349922D-09  0.52315614D-09  0.38034308D-09 -0.24089296D-06 -0.13190648D-06
 -0.41377343D-04  0.44147847D-06  0.35476669D-05 -0.12689629D-08 -0.84904116D-06
  0.13849098D-03  0.77755791D-09 -0.47539424D-06 -0.14913398D-03  0.30293309D-08
 -0.81688243D-06  0.90551466D-08  0.32000550D-04 -0.76351390D-09  0.28791282D-06
  0.28417202D-05  0.20293827D-08 -0.31507826D-06 -0.98843370D-04  0.26115900D-09
  0.29916482D-06  0.36939275D-03  0.69488341D-03  0.12028787D-02  0.19717491D-02
  0.30887750D-02  0.46426802D-02  0.66354814D-02  0.88085872D-02  0.10258236D-01
  0.94210031D-02  0.55071949D-02  0.14450558D-02  0.82159450D-04  0.14335941D-05
  0.14430755D-06  0.18588671D-04  0.53698387D-04  0.24611233D-03  0.72854609D-03
  0.21128049D-02  0.43916600D-02  0.62823218D-02  0.18013423D-02 -0.71984052D-02
 -0.69601614D-02 -0.15191616D-02  0.21989405D-04  0.12200290D-04  0.56916874D-04
  0.11550857D-03  0.45269819D-03  0.31766904D-03 -0.20687810D-02 -0.64104421D-02
 -0.78414063D-03  0.56036993D-02  0.26298159D-02 -0.96432302D-06 -0.13220103D-05
  0.25346136D-05  0.53868873D-05 -0.20363941D-04 -0.65851813D-04 -0.22902259D-04
  0.22400903D-03  0.49965627D-03 -0.33155670D-03 -0.56645694D-04  0.15391529D-02
  0.47886807D-03 -0.95383828D-03 -0.13686156D-02 -0.18121735D-02 -0.20927449D-02
 -0.19403692D-02 -0.12565571D-02 -0.44338773D-03 -0.51088845D-04  0.83463478D-07
  0.11929294D+01  0.17116757D+01  0.22664168D+01  0.26173169D+01  0.24267463D+01
  0.15715284D+01  0.55452825D+00  0.63894885D-01 -0.10438461D-03  0.10397635D+01
  0.14919054D+01  0.19754207D+01  0.22812670D+01  0.21151648D+01  0.13697523D+01
  0.48332971D+00  0.55691115D-01 -0.90982172D-04  0.59082565D-05 -0.16845492D-04
 -0.82225012D-04 -0.17038586D-03 -0.21381744D-03 -0.33907600D-04  0.27447056D-03
  0.23937813D-03  0.61535709D-04 -0.72371594D-02  0.20634431D-01  0.10071931D+00
  0.20870956D+00  0.26190990D+00  0.41534200D-01 -0.33620531D+00 -0.29321978D+00
 -0.75376508D-01 -0.64249476D-02  0.18318670D-01  0.89415785D-01  0.18528651D+00
  0.23251628D+00  0.36872900D-01 -0.29847367D+00 -0.26031231D+00 -0.66917154D-01
  0.85635143D-07  0.12098010D-06 -0.56291407D-07  0.11280851D-06  0.12383849D-06
  0.33427891D-06  0.10534012D-06 -0.22616747D-06 -0.73473121D-04 -0.10379833D-03
  0.48296823D-04 -0.96787289D-04 -0.10625078D-03 -0.28680416D-03 -0.90379567D-04
  0.19404685D-03  0.57997136D-04  0.81934809D-04 -0.38123839D-04  0.76400533D-04
  0.83870684D-04  0.22639326D-03  0.71342499D-04 -0.15317386D-03  0.34001612D-05
 -0.31192242D-02 -0.28954702D-02  0.23617373D-06  0.38457549D-03  0.16655653D-03
 -0.31438565D-07  0.14776794D-04  0.12340815D-04  0.14805953D+00  0.15492835D+00
  0.13200724D+00  0.86936750D-01  0.40066560D-01  0.11997996D-01  0.20413573D-02
 -0.14934280D+00 -0.15627115D+00 -0.13315139D+00 -0.87690254D-01 -0.40413827D-01
 -0.12101986D-01 -0.20590503D-02  0.12832714D-02  0.13428052D-02  0.11441419D-02
  0.75350396D-03  0.34726754D-03  0.10398983D-03  0.17692988D-04  0.24965102D-03
  0.26123289D-03  0.22258441D-03  0.14658866D-03  0.67558349D-04  0.20230457D-04
  0.34420407D-05 -0.76818654D-04 -0.80382444D-04 -0.68490145D-04 -0.45105938D-04
 -0.20787984D-04 -0.62249954D-05 -0.10591302D-05 -0.47834013D+00 -0.50053141D+00
 -0.42647955D+00 -0.28086903D+00 -0.12944417D+00 -0.38762267D-01 -0.65950711D-02
  0.65192860D-04 -0.11687131D-03  0.51678454D-04  0.94947482D-06 -0.42176412D-06
 -0.35258460D-03 -0.54739646D-04  0.57010352D-04 -0.22707061D-05 -0.62010695D-06
 -0.14065222D-06  0.93783641D-04 -0.15694215D-04  0.18611833D-04 -0.29176177D-05
 -0.10911631D-06  0.13942822D-06  0.63876748D-04 -0.31041102D-07  0.27891726D-04
  0.31892102D-04  0.75478877D-06 -0.51887421D-04 -0.39848940D-04 -0.66166546D-06
 -0.31787757D-04 -0.55827367D-04  0.78102693D-07  0.56346687D-07 -0.17045103D-05
 -0.13804201D-05 -0.43918958D-06  0.12489811D-04  0.22892836D-05  0.27014951D-06
 -0.73762800D-05  0.18519767D-05 -0.33801657D-07 -0.36952241D-03 -0.69512731D-03
 -0.12033009D-02 -0.19724412D-02 -0.30898592D-02 -0.46443098D-02 -0.66378105D-02
 -0.88116790D-02 -0.10261837D-01 -0.94243099D-02 -0.55091279D-02 -0.14455630D-02
 -0.82188288D-04 -0.14340973D-05 -0.14435820D-06 -0.18594876D-04 -0.53716310D-04
 -0.24619447D-03 -0.72878925D-03 -0.21135101D-02 -0.43931258D-02 -0.62844186D-02
 -0.18019435D-02  0.72008077D-02  0.69624844D-02  0.15196686D-02 -0.21996744D-04
 -0.12204037D-04 -0.56934356D-04 -0.11554405D-03 -0.45283723D-03 -0.31776660D-03
  0.20694164D-02  0.64124110D-02  0.78438147D-03 -0.56054204D-02 -0.26306236D-02
  0.96433210D-06  0.13220228D-05 -0.25346374D-05 -0.53869380D-05  0.20364133D-04
  0.65852433D-04  0.22902474D-04 -0.22401114D-03 -0.49966097D-03  0.33155982D-03
  0.56611069D-04 -0.15391063D-02 -0.47885026D-03  0.85593331D-02  0.12281365D-01
  0.16261663D-01  0.18779390D-01  0.17412036D-01  0.11275801D-01  0.39787701D-02
  0.45844925D-03 -0.74896522D-06  0.11929366D+01  0.17116860D+01  0.22664305D+01
  0.26173327D+01  0.24267610D+01  0.15715379D+01  0.55453160D+00  0.63895271D-01
 -0.10438524D-03 -0.10397517D+01 -0.14918884D+01 -0.19753981D+01 -0.22812410D+01
 -0.21151406D+01 -0.13697367D+01 -0.48332420D+00 -0.55690480D-01  0.90981135D-04
 -0.52048703D-04  0.14840012D-03  0.72436009D-03  0.15010119D-02  0.18836217D-02
  0.29870853D-03 -0.24179446D-02 -0.21087983D-02 -0.54209797D-03 -0.72372252D-02
  0.20634618D-01  0.10072023D+00  0.20871146D+00  0.26191228D+00  0.41534577D-01
 -0.33620837D+00 -0.29322244D+00 -0.75377193D-01  0.64248732D-02 -0.18318458D-01
 -0.89414749D-01 -0.18528436D+00 -0.23251359D+00 -0.36872473D-01  0.29847021D+00
  0.26030930D+00  0.66916379D-01 -0.55399151D-06 -0.78264535D-06  0.36416079D-06
 -0.72978166D-06 -0.80113692D-06 -0.21625196D-05 -0.68146708D-06  0.14631243D-05
 -0.73460964D-04 -0.10378116D-03  0.48288832D-04 -0.96771274D-04 -0.10623320D-03
 -0.28675670D-03 -0.90364613D-04  0.19401474D-03 -0.57995991D-04 -0.81933192D-04
  0.38123086D-04 -0.76399024D-04 -0.83869028D-04 -0.22638880D-03 -0.71341091D-04
  0.15317084D-03 -0.23286795D-04 -0.31192660D-02  0.28954343D-02  0.22155673D-05
  0.38455972D-03 -0.16655101D-03  0.12564327D-06  0.14775805D-04 -0.12340552D-04
 -0.14803049D+00 -0.15489795D+00 -0.13198135D+00 -0.86919696D-01 -0.40058700D-01
 -0.11995642D-01 -0.20409569D-02  0.14931731D+00  0.15624448D+00  0.13312866D+00
  0.87675285D-01  0.40406929D-01  0.12099920D-01  0.20586988D-02 -0.12868240D-02
 -0.13465227D-02 -0.11473094D-02 -0.75558997D-03 -0.34822892D-03 -0.10427771D-03
 -0.17741969D-04  0.40413136D-02  0.42287993D-02  0.36031633D-02  0.23729554D-02
  0.10936245D-02  0.32748763D-03  0.55719244D-04 -0.29724839D-02 -0.31103841D-02
 -0.26502137D-02 -0.17453661D-02 -0.80438727D-03 -0.24087507D-03 -0.40982851D-04
 -0.47829026D+00 -0.50047923D+00 -0.42643509D+00 -0.28083974D+00 -0.12943068D+00
 -0.38758226D-01 -0.65943835D-02 -0.65167827D-04  0.11684527D-03 -0.51677444D-04
  0.32704869D-05 -0.18258529D-05 -0.35254194D-03  0.54732154D-04 -0.57004304D-04
  0.22721495D-05 -0.20449407D-05  0.73857474D-06  0.93786115D-04  0.15692474D-04
 -0.18610499D-04  0.29180254D-05 -0.54652858D-06  0.26781419D-06  0.63876215D-04
 -0.29977824D-06  0.27894102D-04 -0.31889089D-04  0.44037282D-06 -0.51889180D-04
  0.39846881D-04  0.45896189D-06 -0.31793125D-04  0.55820387D-04  0.28176644D-06
  0.23292750D-07 -0.17069535D-05  0.13805625D-05  0.24727719D-06  0.12493843D-04
 -0.22884886D-05 -0.31715544D-06 -0.73729828D-05 -0.18531988D-05 -0.28246202D-07
MO    2     MO 0.0        OCC NO =    2.0000240  ORB. ENERGY =    0.000000
 -0.58964137D-01 -0.10992103D+00 -0.18578152D+00 -0.27926427D+00 -0.34302614D+00
 -0.28950196D+00 -0.10886030D+00 -0.10359421D-04 -0.77430252D-04 -0.28937453D-03
 -0.80730988D-03 -0.10815727D-02  0.12771357D-02 -0.44808799D-02 -0.17442252D-02
 -0.31722824D-03  0.16992079D-05  0.15931154D-05  0.11343931D-05  0.50475945D-07
  0.47324407D-07  0.33697797D-07  0.22937097D-02  0.21504987D-02  0.15312832D-02
  0.28233505D-06  0.12126239D-07 -0.21677367D-03  0.52638819D-06 -0.30760096D-07
 -0.96652041D-03 -0.62743923D-07 -0.15771790D-08  0.10759460D-05  0.12463662D-03
  0.11493716D-04 -0.13613034D-03 -0.72131824D-06  0.12069208D-05  0.66615613D-08
  0.11848370D-03  0.12835117D-03 -0.24683487D-03  0.62894963D-07  0.11830884D-06
  0.18878660D-08  0.23564057D-04  0.10023354D-03 -0.12379760D-03  0.48878012D-06
  0.14658025D-06  0.90349167D-08 -0.10090171D-06 -0.38087460D-08 -0.97814796D-05
  0.39374890D-06 -0.15075977D-08 -0.90597428D-04 -0.91043762D-07  0.12933836D-07
  0.11994187D-03  0.13422550D-05  0.14069883D-07  0.20768349D-08  0.13250548D-04
 -0.21691049D-06  0.11387140D-08  0.44744938D-04  0.17470085D-06 -0.73692186D-08
 -0.84496581D-04 -0.82396180D-06 -0.12703234D+00 -0.23749975D+00 -0.41047017D+00
 -0.66391857D+00 -0.10034907D+01 -0.13820145D+01 -0.16154066D+01 -0.13961436D+01
 -0.65158750D+00 -0.88275809D-01  0.64566198D-03 -0.15829227D-02 -0.20348312D-01
 -0.74227716D-01 -0.25044248D+00 -0.55008405D+00 -0.71055855D+00  0.11419281D+00
  0.95794191D+00  0.52570616D+00 -0.12725632D-04 -0.14495286D-03 -0.30097440D-03
 -0.82760315D-03  0.10730825D-03  0.37420446D-02  0.93332534D-02 -0.77259320D-02
  0.29339453D-01  0.18108329D-02  0.12896379D-03 -0.62076942D-02 -0.81441418D-02
 -0.89323610D-02 -0.73492775D-02 -0.38741212D-02 -0.10079735D-02 -0.16425027D-03
 -0.21548701D-03 -0.23634262D-03 -0.19445559D-03 -0.10250593D-03 -0.26670114D-04
  0.62312659D+01  0.81750666D+01  0.89662788D+01  0.73771841D+01  0.38888320D+01
  0.10118009D+01 -0.45169988D-07 -0.16214052D-05 -0.25724000D-05 -0.30546461D-05
 -0.46224848D-06  0.33641578D-05 -0.14480678D-08 -0.51979306D-07 -0.82466472D-07
 -0.97926406D-07 -0.14818846D-07  0.10784879D-06  0.57977845D-04  0.20811513D-02
  0.33017987D-02  0.39207847D-02  0.59331807D-03 -0.43180577D-02 -0.42789553D-04
 -0.11615646D-05  0.45895499D-01 -0.89045879D-07  0.64133083D-09 -0.77424346D-03
  0.33561374D-07  0.39775641D-09 -0.50007970D-05 -0.24706492D-03 -0.13341002D-03
  0.38047494D-03  0.72460573D-06 -0.62900147D-07 -0.12906511D-07  0.21031280D-03
 -0.39860365D-03  0.18829085D-03 -0.38821444D-05  0.78177280D-06  0.61427042D-08
 -0.54234709D-05 -0.30839551D-04  0.36263022D-04 -0.16203511D-06  0.82856596D-07
  0.13307398D-08 -0.94249308D-07  0.28278369D-09 -0.74221177D-04 -0.93001145D-08
 -0.15939645D-08  0.20819940D-03  0.29204804D-06  0.74561345D-09  0.14464133D-04
 -0.12351385D-05  0.19398581D-07 -0.62669853D-09 -0.20807176D-04  0.18262175D-07
 -0.10848482D-09  0.19386093D-04 -0.76457919D-07  0.19885804D-08  0.43035434D-04
  0.15077052D-06  0.58125785D-03  0.10934336D-02  0.18927893D-02  0.31026452D-02
  0.48603410D-02  0.73054879D-02  0.10441260D-01  0.13860750D-01  0.16141844D-01
  0.14824416D-01  0.86658448D-02  0.22738671D-02  0.12928198D-03  0.22558315D-05
  0.22707510D-06  0.27636559D-04  0.79835649D-04  0.36590554D-03  0.10831601D-02
  0.31411958D-02  0.65292655D-02  0.93401919D-02  0.26781313D-02 -0.10702171D-01
 -0.10347964D-01 -0.22586014D-02  0.32692572D-04  0.17526064D-04  0.81762715D-04
  0.16593136D-03  0.65031387D-03  0.45634064D-03 -0.29718630D-02 -0.92087830D-02
 -0.11264404D-02  0.80498740D-02  0.37778056D-02 -0.20725100D-06 -0.28412468D-06
  0.54473574D-06  0.11577426D-05 -0.43765908D-05 -0.14152783D-04 -0.49221226D-05
  0.48143720D-04  0.10738545D-03 -0.71257719D-04  0.82836712D-04 -0.29145632D-03
  0.76379525D-04  0.55484282D-03  0.79611663D-03  0.10541320D-02  0.12173390D-02
  0.11287028D-02  0.73093278D-03  0.25791636D-03  0.29718118D-04 -0.48550275D-07
  0.25611124D+00  0.36748140D+00  0.48657933D+00  0.56191443D+00  0.52100065D+00
  0.33739303D+00  0.11905224D+00  0.13717658D-01 -0.22410439D-04  0.32133760D+00
  0.46107149D+00  0.61050126D+00  0.70502269D+00  0.65368899D+00  0.42332022D+00
  0.14937243D+00  0.17211268D-01 -0.28117925D-04 -0.35848989D-05  0.10221185D-04