 Entering Gaussian System, Link 0=/home/bruns/programas/chemistry/gaussian/g09/g09
 Input=GAUSSIAN.com
 Output=GAUSSIAN.log
 Initial command:
 /home/bruns/programas/chemistry/gaussian/g09/l1.exe /home/bruns/programas/chemistry/gaussian/work/Gau-16948.inp -scrdir=/home/bruns/programas/chemistry/gaussian/work/
 Entering Link 1 = /home/bruns/programas/chemistry/gaussian/g09/l1.exe PID=     16950.
  
 Copyright (c) 1988,1990,1992,1993,1995,1998,2003,2009,2010,
            Gaussian, Inc.  All Rights Reserved.
  
 This is part of the Gaussian(R) 09 program.  It is based on
 the Gaussian(R) 03 system (copyright 2003, Gaussian, Inc.),
 the Gaussian(R) 98 system (copyright 1998, Gaussian, Inc.),
 the Gaussian(R) 94 system (copyright 1995, Gaussian, Inc.),
 the Gaussian 92(TM) system (copyright 1992, Gaussian, Inc.),
 the Gaussian 90(TM) system (copyright 1990, Gaussian, Inc.),
 the Gaussian 88(TM) system (copyright 1988, Gaussian, Inc.),
 the Gaussian 86(TM) system (copyright 1986, Carnegie Mellon
 University), and the Gaussian 82(TM) system (copyright 1983,
 Carnegie Mellon University). Gaussian is a federally registered
 trademark of Gaussian, Inc.
  
 This software contains proprietary and confidential information,
 including trade secrets, belonging to Gaussian, Inc.
  
 This software is provided under written license and may be
 used, copied, transmitted, or stored only in accord with that
 written license.
  
 The following legend is applicable only to US Government
 contracts under FAR:
  
                    RESTRICTED RIGHTS LEGEND
  
 Use, reproduction and disclosure by the US Government is
 subject to restrictions as set forth in subparagraphs (a)
 and (c) of the Commercial Computer Software - Restricted
 Rights clause in FAR 52.227-19.
  
 Gaussian, Inc.
 340 Quinnipiac St., Bldg. 40, Wallingford CT 06492
  
  
 ---------------------------------------------------------------
 Warning -- This program may not be used in any manner that
 competes with the business of Gaussian, Inc. or will provide
 assistance to any competitor of Gaussian, Inc.  The licensee
 of this program is prohibited from giving any competitor of
 Gaussian, Inc. access to this program.  By using this program,
 the user acknowledges that Gaussian, Inc. is engaged in the
 business of creating and licensing software in the field of
 computational chemistry and represents and warrants to the
 licensee that it is not a competitor of Gaussian, Inc. and that
 it will not use this program in any manner prohibited above.
 ---------------------------------------------------------------
  

 Cite this work as:
 Gaussian 09, Revision B.01,
 M. J. Frisch, G. W. Trucks, H. B. Schlegel, G. E. Scuseria, 
 M. A. Robb, J. R. Cheeseman, G. Scalmani, V. Barone, B. Mennucci, 
 G. A. Petersson, H. Nakatsuji, M. Caricato, X. Li, H. P. Hratchian, 
 A. F. Izmaylov, J. Bloino, G. Zheng, J. L. Sonnenberg, M. Hada, 
 M. Ehara, K. Toyota, R. Fukuda, J. Hasegawa, M. Ishida, T. Nakajima, 
 Y. Honda, O. Kitao, H. Nakai, T. Vreven, J. A. Montgomery, Jr., 
 J. E. Peralta, F. Ogliaro, M. Bearpark, J. J. Heyd, E. Brothers, 
 K. N. Kudin, V. N. Staroverov, T. Keith, R. Kobayashi, J. Normand, 
 K. Raghavachari, A. Rendell, J. C. Burant, S. S. Iyengar, J. Tomasi, 
 M. Cossi, N. Rega, J. M. Millam, M. Klene, J. E. Knox, J. B. Cross, 
 V. Bakken, C. Adamo, J. Jaramillo, R. Gomperts, R. E. Stratmann, 
 O. Yazyev, A. J. Austin, R. Cammi, C. Pomelli, J. W. Ochterski, 
 R. L. Martin, K. Morokuma, V. G. Zakrzewski, G. A. Voth, 
 P. Salvador, J. J. Dannenberg, S. Dapprich, A. D. Daniels, 
 O. Farkas, J. B. Foresman, J. V. Ortiz, J. Cioslowski, 
 and D. J. Fox, Gaussian, Inc., Wallingford CT, 2010.
 
 ******************************************
 Gaussian 09:  EM64L-G09RevB.01 12-Aug-2010
                29-Nov-2021 
 ******************************************
 %nproc=8
 Will use up to    8 processors via shared memory.
 %mem=8GB
 -----------------------------------------------------
 # qcisd/aug-cc-pvtz nosymm density=current output=wfn
 -----------------------------------------------------
 1/30=1,38=1/1;
 2/12=2,15=1,17=6,18=5,40=1/2;
 3/5=16,6=1,7=10,11=9,16=1,25=1,30=1,71=1/1,2,3;
 4//1;
 5/5=2,38=5/2;
 8/6=4,9=120000,10=1/1,4;
 9/5=8,15=1/13;
 11/28=-7,31=1,32=3,42=3/11;
 10/5=6,13=10,31=1/2;
 6/7=2,8=2,9=2,10=2,22=-1,31=1/1;
 99/5=1,6=1100,9=1/99;
 ------------------
 br2cs-wavefunction
 ------------------
 Symbolic Z-matrix:
 Charge =  0 Multiplicity = 1
 C                     0.        0.       -0.51945 
 S                     0.        0.        1.08369 
 Br                    0.       -1.56852  -1.57857 
 Br                    0.        1.57852  -1.57857 
 
                          Input orientation:                          
 ---------------------------------------------------------------------
 Center     Atomic      Atomic             Coordinates (Angstroms)
 Number     Number       Type             X           Y           Z
 ---------------------------------------------------------------------
      1          6           0        0.000000    0.000000   -0.519451
      2         16           0        0.000000    0.000000    1.083692
      3         35           0        0.000000   -1.568516   -1.578570
      4         35           0        0.000000    1.578516   -1.578570
 ---------------------------------------------------------------------
                    Distance matrix (angstroms):
                    1          2          3          4
     1  C    0.000000
     2  S    1.603143   0.000000
     3  Br   1.892611   3.089965   0.000000
     4  Br   1.900907   3.095053   3.147032   0.000000
 Symmetry turned off by external request.
 Stoichiometry    CBr2S
 Framework group  CS[SG(CBr2S)]
 Deg. of freedom     5
 Full point group                 CS      NOp   2
 Rotational constants (GHZ):      2.6233780      1.2931985      0.8662025
 Standard basis: Aug-CC-pVTZ (5D, 7F)
 Integral buffers will be    131072 words long.
 Raffenetti 1 integral format.
 Two-electron integral symmetry is turned off.
   214 basis functions,   620 primitive gaussians,   252 cartesian basis functions
    46 alpha electrons       46 beta electrons
       nuclear repulsion energy       546.4999425270 Hartrees.
 NAtoms=    4 NActive=    4 NUniq=    4 SFac= 1.00D+00 NAtFMM=   50 NAOKFM=F Big=F
 One-electron integrals computed using PRISM.
 NBasis=   214 RedAO= T  NBF=   214
 NBsUse=   214 1.00D-06 NBFU=   214
 Harris functional with IExCor=  205 diagonalized for initial guess.
 ExpMin= 3.51D-02 ExpMax= 1.06D+07 ExpMxC= 1.21D+04 IAcc=3 IRadAn=         0 AccDes= 0.00D+00
 HarFok:  IExCor=  205 AccDes= 0.00D+00 IRadAn=         0 IDoV= 1
 ScaDFX=  1.000000  1.000000  1.000000  1.000000
 FoFCou: FMM=F IPFlag=           0 FMFlag=      100000 FMFlg1=           0
         NFxFlg=           0 DoJE=T BraDBF=F KetDBF=T FulRan=T
         Omega=  0.000000  0.000000  1.000000  0.000000  0.000000 ICntrl=     500 IOpCl=  0
         NMat0=    1 NMatS0=    1 NMatT0=    0 NMatD0=    1 NMtDS0=    0 NMtDT0=    0
         I1Cent=           4 NGrid=           0.
 Symmetry not used in FoFCou.
 Requested convergence on RMS density matrix=1.00D-08 within 128 cycles.
 Requested convergence on MAX density matrix=1.00D-06.
 Requested convergence on             energy=1.00D-06.
 No special actions if energy rises.
 Keep R1 ints in memory in canonical form, NReq=516428601.
 SCF Done:  E(RHF) =  -5580.30862617     A.U. after   14 cycles
             Convg  =    0.3174D-08             -V/T =  2.0000
 ExpMin= 3.51D-02 ExpMax= 1.06D+07 ExpMxC= 1.21D+04 IAcc=3 IRadAn=         5 AccDes= 0.00D+00
 HarFok:  IExCor=  205 AccDes= 0.00D+00 IRadAn=         5 IDoV=-2
 ScaDFX=  1.000000  1.000000  1.000000  1.000000
 Range of M.O.s used for correlation:    25   214
 NBasis=   214 NAE=    46 NBE=    46 NFC=    24 NFV=     0
 NROrb=    190 NOA=    22 NOB=    22 NVA=   168 NVB=   168

 **** Warning!!: The largest alpha MO coefficient is  0.30713566D+02

 Semi-Direct transformation.
 ModeAB=           2 MOrb=            22 LenV=    1072457111
 LASXX=     69628944 LTotXX=    69628944 LenRXX=    69628944
 LTotAB=    70719517 MaxLAS=   133250040 LenRXY=   133250040
 NonZer=   139257888 LenScr=   209707008 LnRSAI=           0
 LnScr1=           0 LExtra=           0 Total=    412585992
 MaxDsk=          -1 SrtSym=           F ITran=            4
 JobTyp=0 Pass  1:  I=   1 to  22.
 (rs|ai) integrals will be sorted in core.
 Spin components of T(2) and E(2):
     alpha-alpha T2 =       0.4289961546D-01 E2=     -0.1153672226D+00
     alpha-beta  T2 =       0.2168878905D+00 E2=     -0.5793594087D+00
     beta-beta   T2 =       0.4289961546D-01 E2=     -0.1153672226D+00
 ANorm=    0.1141353197D+01
 E2 =    -0.8100938538D+00 EUMP2 =    -0.55811187200229D+04
 R2 and R3 integrals will be kept in memory, NReq=  1024335774.
 Iterations=  50 Convergence= 0.100D-07
 Iteration Nr.   1
 **********************
 DD1Dir will call FoFMem   1 times, MxPair=       506
 NAB=   253 NAA=     0 NBB=     0.
 MP4(R+Q)=  0.23502037D-01
 E3=       -0.12186670D-01        EUMP3=      -0.55811309067D+04
 E4(DQ)=   -0.52576472D-03        UMP4(DQ)=   -0.55811314325D+04
 E4(SDQ)=  -0.10225990D-01        UMP4(SDQ)=  -0.55811411327D+04
 DE(Corr)= -0.79877849     E(Corr)=     -5581.1074047    
 NORM(A)=   0.11411441D+01
 Iteration Nr.   2
 **********************
 DD1Dir will call FoFMem   1 times, MxPair=       506
 NAB=   253 NAA=     0 NBB=     0.
 DE(Corr)= -0.82760569     E(CORR)=     -5581.1362319     Delta=-2.88D-02
 NORM(A)=   0.11533660D+01
 Iteration Nr.   3
 **********************
 DD1Dir will call FoFMem   1 times, MxPair=       506
 NAB=   253 NAA=     0 NBB=     0.
 DE(Corr)= -0.82618418     E(CORR)=     -5581.1348103     Delta= 1.42D-03
 NORM(A)=   0.11562188D+01
 Iteration Nr.   4
 **********************
 DD1Dir will call FoFMem   1 times, MxPair=       506
 NAB=   253 NAA=     0 NBB=     0.
 DE(Corr)= -0.82854694     E(CORR)=     -5581.1371731     Delta=-2.36D-03
 NORM(A)=   0.11575343D+01
 Iteration Nr.   5
 **********************
 DD1Dir will call FoFMem   1 times, MxPair=       506
 NAB=   253 NAA=     0 NBB=     0.
 DE(Corr)= -0.82885823     E(CORR)=     -5581.1374844     Delta=-3.11D-04
 NORM(A)=   0.11581771D+01
 Iteration Nr.   6
 **********************
 DD1Dir will call FoFMem   1 times, MxPair=       506
 NAB=   253 NAA=     0 NBB=     0.
 DE(Corr)= -0.82892354     E(CORR)=     -5581.1375497     Delta=-6.53D-05
 NORM(A)=   0.11582586D+01
 Iteration Nr.   7
 **********************
 DD1Dir will call FoFMem   1 times, MxPair=       506
 NAB=   253 NAA=     0 NBB=     0.
 DE(Corr)= -0.82893555     E(CORR)=     -5581.1375617     Delta=-1.20D-05
 NORM(A)=   0.11582760D+01
 Iteration Nr.   8
 **********************
 DD1Dir will call FoFMem   1 times, MxPair=       506
 NAB=   253 NAA=     0 NBB=     0.
 DE(Corr)= -0.82893159     E(CORR)=     -5581.1375578     Delta= 3.96D-06
 NORM(A)=   0.11582846D+01
 Iteration Nr.   9
 **********************
 DD1Dir will call FoFMem   1 times, MxPair=       506
 NAB=   253 NAA=     0 NBB=     0.
 DE(Corr)= -0.82893336     E(CORR)=     -5581.1375595     Delta=-1.78D-06
 NORM(A)=   0.11582853D+01
 Iteration Nr.  10
 **********************
 DD1Dir will call FoFMem   1 times, MxPair=       506
 NAB=   253 NAA=     0 NBB=     0.
 DE(Corr)= -0.82893344     E(CORR)=     -5581.1375596     Delta=-7.98D-08
 NORM(A)=   0.11582892D+01
 Iteration Nr.  11
 **********************
 DD1Dir will call FoFMem   1 times, MxPair=       506
 NAB=   253 NAA=     0 NBB=     0.
 DE(Corr)= -0.82893508     E(CORR)=     -5581.1375613     Delta=-1.64D-06
 NORM(A)=   0.11582912D+01
 Iteration Nr.  12
 **********************
 DD1Dir will call FoFMem   1 times, MxPair=       506
 NAB=   253 NAA=     0 NBB=     0.
 DE(Corr)= -0.82893516     E(CORR)=     -5581.1375613     Delta=-7.10D-08
 NORM(A)=   0.11582928D+01
 Iteration Nr.  13
 **********************
 DD1Dir will call FoFMem   1 times, MxPair=       506
 NAB=   253 NAA=     0 NBB=     0.
 DE(Corr)= -0.82893581     E(CORR)=     -5581.1375620     Delta=-6.54D-07
 NORM(A)=   0.11582938D+01
 Iteration Nr.  14
 **********************
 DD1Dir will call FoFMem   1 times, MxPair=       506
 NAB=   253 NAA=     0 NBB=     0.
 DE(Corr)= -0.82893582     E(CORR)=     -5581.1375620     Delta=-1.22D-08
 NORM(A)=   0.11582942D+01
 Iteration Nr.  15
 **********************
 DD1Dir will call FoFMem   1 times, MxPair=       506
 NAB=   253 NAA=     0 NBB=     0.
 DE(Corr)= -0.82893594     E(CORR)=     -5581.1375621     Delta=-1.18D-07
 NORM(A)=   0.11582945D+01
 Iteration Nr.  16
 **********************
 DD1Dir will call FoFMem   1 times, MxPair=       506
 NAB=   253 NAA=     0 NBB=     0.
 DE(Corr)= -0.82893597     E(CORR)=     -5581.1375621     Delta=-3.00D-08
 NORM(A)=   0.11582945D+01
 Iteration Nr.  17
 **********************
 DD1Dir will call FoFMem   1 times, MxPair=       506
 NAB=   253 NAA=     0 NBB=     0.
 DE(Corr)= -0.82893596     E(CORR)=     -5581.1375621     Delta= 1.32D-08
 NORM(A)=   0.11582945D+01
 Iteration Nr.  18
 **********************
 DD1Dir will call FoFMem   1 times, MxPair=       506
 NAB=   253 NAA=     0 NBB=     0.
 DE(Corr)= -0.82893597     E(CORR)=     -5581.1375621     Delta=-1.75D-08
 NORM(A)=   0.11582946D+01
 Iteration Nr.  19
 **********************
 DD1Dir will call FoFMem   1 times, MxPair=       506
 NAB=   253 NAA=     0 NBB=     0.
 DE(Corr)= -0.82893597     E(CORR)=     -5581.1375621     Delta= 4.30D-09
 NORM(A)=   0.11582946D+01
 Iteration Nr.  20
 **********************
 DD1Dir will call FoFMem   1 times, MxPair=       506
 NAB=   253 NAA=     0 NBB=     0.
 DE(Corr)= -0.82893597     E(CORR)=     -5581.1375621     Delta=-3.24D-09
 NORM(A)=   0.11582946D+01
 Iteration Nr.  21
 **********************
 DD1Dir will call FoFMem   1 times, MxPair=       506
 NAB=   253 NAA=     0 NBB=     0.
 DE(Corr)= -0.82893598     E(CORR)=     -5581.1375621     Delta=-1.61D-09
 NORM(A)=   0.11582944D+01
 Iteration Nr.  22
 **********************
 DD1Dir will call FoFMem   1 times, MxPair=       506
 NAB=   253 NAA=     0 NBB=     0.
 DE(Corr)= -0.82893601     E(CORR)=     -5581.1375622     Delta=-3.28D-08
 NORM(A)=   0.11582946D+01
 Iteration Nr.  23
 **********************
 DD1Dir will call FoFMem   1 times, MxPair=       506
 NAB=   253 NAA=     0 NBB=     0.
 DE(Corr)= -0.82893597     E(CORR)=     -5581.1375621     Delta= 3.31D-08
 NORM(A)=   0.11582946D+01
 Iteration Nr.  24
 **********************
 DD1Dir will call FoFMem   1 times, MxPair=       506
 NAB=   253 NAA=     0 NBB=     0.
 DE(Corr)= -0.82893597     E(CORR)=     -5581.1375621     Delta= 1.92D-09
 NORM(A)=   0.11582946D+01
 Largest amplitude= 7.66D-02

 Z-AMPLITUDE ITERATIONS

 Iteration Nr.   1
 **********************
 DD1Dir will call FoFMem   1 times, MxPair=       506
 NAB=   253 NAA=     0 NBB=     0.
 DE(Z)  -0.79822263D+00          E(Z)=    -0.55811068488D+04
 NORM(A)=   0.11583992D+01
 Iteration Nr.   2
 **********************
 DD1Dir will call FoFMem   1 times, MxPair=       506
 NAB=   253 NAA=     0 NBB=     0.
 DE(Z)  -0.79822337D+00          E(Z)=    -0.55811068495D+04
 NORM(A)=   0.11584472D+01
 Iteration Nr.   3
 **********************
 DD1Dir will call FoFMem   1 times, MxPair=       506
 NAB=   253 NAA=     0 NBB=     0.
 DE(Z)  -0.79822357D+00          E(Z)=    -0.55811068497D+04
 NORM(A)=   0.11588887D+01
 Iteration Nr.   4
 **********************
 DD1Dir will call FoFMem   1 times, MxPair=       506
 NAB=   253 NAA=     0 NBB=     0.
 DE(Z)  -0.79822691D+00          E(Z)=    -0.55811068531D+04
 NORM(A)=   0.11588868D+01
 Iteration Nr.   5
 **********************
 DD1Dir will call FoFMem   1 times, MxPair=       506
 NAB=   253 NAA=     0 NBB=     0.
 DE(Z)  -0.79822797D+00          E(Z)=    -0.55811068541D+04
 NORM(A)=   0.11449979D+01
 Iteration Nr.   6
 **********************
 DD1Dir will call FoFMem   1 times, MxPair=       506
 NAB=   253 NAA=     0 NBB=     0.
 DE(Z)  -0.79810727D+00          E(Z)=    -0.55811067334D+04
 NORM(A)=   0.11449967D+01
 Iteration Nr.   7
 **********************
 DD1Dir will call FoFMem   1 times, MxPair=       506
 NAB=   253 NAA=     0 NBB=     0.
 DE(Z)  -0.79810429D+00          E(Z)=    -0.55811067305D+04
 NORM(A)=   0.11449967D+01
 Iteration Nr.   8
 **********************
 DD1Dir will call FoFMem   1 times, MxPair=       506
 NAB=   253 NAA=     0 NBB=     0.
 DE(Z)  -0.79810524D+00          E(Z)=    -0.55811067314D+04
 NORM(A)=   0.11449968D+01
 Iteration Nr.   9
 **********************
 DD1Dir will call FoFMem   1 times, MxPair=       506
 NAB=   253 NAA=     0 NBB=     0.
 DE(Z)  -0.79810456D+00          E(Z)=    -0.55811067307D+04
 NORM(A)=   0.11449973D+01
 Iteration Nr.  10
 **********************
 DD1Dir will call FoFMem   1 times, MxPair=       506
 NAB=   253 NAA=     0 NBB=     0.
 DE(Z)  -0.79810462D+00          E(Z)=    -0.55811067308D+04
 NORM(A)=   0.11449976D+01
 Iteration Nr.  11
 **********************
 DD1Dir will call FoFMem   1 times, MxPair=       506
 NAB=   253 NAA=     0 NBB=     0.
 DE(Z)  -0.79810467D+00          E(Z)=    -0.55811067308D+04
 NORM(A)=   0.11449977D+01
 Iteration Nr.  12
 **********************
 DD1Dir will call FoFMem   1 times, MxPair=       506
 NAB=   253 NAA=     0 NBB=     0.
 DE(Z)  -0.79810464D+00          E(Z)=    -0.55811067308D+04
 NORM(A)=   0.11449978D+01
 Iteration Nr.  13
 **********************
 DD1Dir will call FoFMem   1 times, MxPair=       506
 NAB=   253 NAA=     0 NBB=     0.
 DE(Z)  -0.79810467D+00          E(Z)=    -0.55811067308D+04
 NORM(A)=   0.11449978D+01
 Iteration Nr.  14
 **********************
 DD1Dir will call FoFMem   1 times, MxPair=       506
 NAB=   253 NAA=     0 NBB=     0.
 DE(Z)  -0.79810466D+00          E(Z)=    -0.55811067308D+04
 NORM(A)=   0.11449978D+01
 Iteration Nr.  15
 **********************
 DD1Dir will call FoFMem   1 times, MxPair=       506
 NAB=   253 NAA=     0 NBB=     0.
 DE(Z)  -0.79810467D+00          E(Z)=    -0.55811067308D+04
 NORM(A)=   0.11449978D+01
 Discarding MO integrals.
          Differentiating once with respect to electric field.
                with respect to dipole field.
          Electric field/nuclear overlap derivatives assumed to be zero.
          Keep R1 ints in memory in canonical form, NReq=510060614.
          There are     1 degrees of freedom in the 1st order CPHF.  IDoFFX=0.
 LinEq1:  Iter=  0 NonCon=     1 RMS=1.78D-03 Max=6.60D-02
 AX will form     1 AO Fock derivatives at one time.
 LinEq1:  Iter=  1 NonCon=     1 RMS=8.43D-04 Max=1.82D-02
 LinEq1:  Iter=  2 NonCon=     1 RMS=3.83D-04 Max=1.48D-02
 LinEq1:  Iter=  3 NonCon=     1 RMS=1.25D-04 Max=4.37D-03
 LinEq1:  Iter=  4 NonCon=     1 RMS=4.85D-05 Max=9.12D-04
 LinEq1:  Iter=  5 NonCon=     1 RMS=9.59D-06 Max=1.74D-04
 LinEq1:  Iter=  6 NonCon=     1 RMS=3.24D-06 Max=7.40D-05
 LinEq1:  Iter=  7 NonCon=     1 RMS=7.00D-07 Max=2.05D-05
 LinEq1:  Iter=  8 NonCon=     1 RMS=1.35D-07 Max=3.90D-06
 LinEq1:  Iter=  9 NonCon=     1 RMS=3.29D-08 Max=1.05D-06
 LinEq1:  Iter= 10 NonCon=     1 RMS=9.31D-09 Max=2.08D-07
 LinEq1:  Iter= 11 NonCon=     1 RMS=1.98D-09 Max=4.86D-08
 LinEq1:  Iter= 12 NonCon=     1 RMS=3.90D-10 Max=9.01D-09
 LinEq1:  Iter= 13 NonCon=     1 RMS=1.07D-10 Max=1.45D-09
 LinEq1:  Iter= 14 NonCon=     0 RMS=2.91D-11 Max=5.20D-10
 Linear equations converged to 1.000D-10 1.000D-09 after    14 iterations.
 End of Minotr Frequency-dependent properties file   721 does not exist.
 End of Minotr Frequency-dependent properties file   722 does not exist.

 **********************************************************************

            Population analysis using the QCI/CC density.

 **********************************************************************

     Natural Orbital Coefficients:
                           1         2         3         4         5
     Eigenvalues --     2.00003   2.00002   2.00002   2.00002   2.00001
   1 1   C  1S         -0.00072  -0.17667   0.31624   0.05276  -0.47225
   2        2S          0.00001   0.00356  -0.00976  -0.00153   0.00728
   3        3S         -0.00003  -0.00677   0.01188   0.00201  -0.01906
   4        4S         -0.00014  -0.01141  -0.01447  -0.00225  -0.00559
   5        5S         -0.00007  -0.00462  -0.00471  -0.00074  -0.00434
   6        6PX         0.00000   0.00000   0.00000   0.00000   0.00000
   7        6PY        -0.00121   0.00001   0.00048  -0.00295   0.00000
   8        6PZ         0.00002   0.00105   0.00148   0.00021   0.00248
   9        7PX         0.00000   0.00000   0.00000   0.00000   0.00000
  10        7PY        -0.00129   0.00001   0.00083  -0.00508  -0.00001
  11        7PZ         0.00001  -0.00051   0.00384   0.00058   0.00055
  12        8PX         0.00000   0.00000   0.00000   0.00000   0.00000
  13        8PY         0.01263  -0.00009   0.00068  -0.00427  -0.00003
  14        8PZ         0.00005  -0.00951   0.00634   0.00103  -0.00859
  15        9PX         0.00000   0.00000   0.00000   0.00000   0.00000
  16        9PY         0.00363  -0.00003  -0.00006   0.00039   0.00003
  17        9PZ         0.00002   0.00004   0.00084   0.00014  -0.00142
  18       10D 0        0.00000  -0.00007   0.00012   0.00002  -0.00003
  19       10D+1        0.00000   0.00000   0.00000   0.00000   0.00000
  20       10D-1       -0.00035   0.00000  -0.00006   0.00035   0.00000
  21       10D+2        0.00000   0.00003   0.00011   0.00002   0.00022
  22       10D-2        0.00000   0.00000   0.00000   0.00000   0.00000
  23       11D 0       -0.00001  -0.00111  -0.00030  -0.00005  -0.00017
  24       11D+1        0.00000   0.00000   0.00000   0.00000   0.00000
  25       11D-1        0.00000   0.00000  -0.00019   0.00113   0.00001
  26       11D+2        0.00000  -0.00002   0.00159   0.00026  -0.00065
  27       11D-2        0.00000   0.00000   0.00000   0.00000   0.00000
  28       12D 0       -0.00002  -0.00422   0.00103   0.00018  -0.00479
  29       12D+1        0.00000   0.00000   0.00000   0.00000   0.00000
  30       12D-1       -0.00631   0.00006  -0.00050   0.00305   0.00003
  31       12D+2       -0.00001  -0.00151   0.00199   0.00033  -0.00200
  32       12D-2        0.00000   0.00000   0.00000   0.00000   0.00000
  33       13F 0        0.00000  -0.00001   0.00001   0.00000   0.00010
  34       13F+1        0.00000   0.00000   0.00000   0.00000   0.00000
  35       13F-1       -0.00031   0.00000   0.00001  -0.00007   0.00000
  36       13F+2        0.00000  -0.00007   0.00001   0.00000  -0.00009
  37       13F-2        0.00000   0.00000   0.00000   0.00000   0.00000
  38       13F+3        0.00000   0.00000   0.00000   0.00000   0.00000
  39       13F-3        0.00006   0.00000   0.00001  -0.00007   0.00000
  40       14F 0        0.00001   0.00017  -0.00011  -0.00002   0.00103
  41       14F+1        0.00000   0.00000   0.00000   0.00000   0.00000
  42       14F-1        0.00183  -0.00001  -0.00011   0.00070   0.00000
  43       14F+2        0.00000   0.00044  -0.00036  -0.00006   0.00105
  44       14F-2        0.00000   0.00000   0.00000   0.00000   0.00000
  45       14F+3        0.00000   0.00000   0.00000   0.00000   0.00000
  46       14F-3       -0.00029   0.00000  -0.00003   0.00021   0.00000
  47 2   S  1S         -0.00113  -0.21723  -0.00921  -0.00191   0.15859
  48        2S          0.00387   0.74241   0.03201   0.00663  -0.54745
  49        3S         -0.00012  -0.02058  -0.00113  -0.00021   0.00850
  50        4S          0.00025   0.04976   0.00211   0.00044  -0.03923
  51        5S          0.00001   0.01158  -0.00114  -0.00022   0.01535
  52        6S         -0.00002   0.00172   0.00023   0.00002   0.00430
  53        7PX         0.00000   0.00000   0.00000   0.00000   0.00000
  54        7PY         0.97039  -0.00590  -0.01477   0.09308  -0.00007
  55        7PZ         0.00465   0.62289   0.02225   0.00266   0.50219
  56        8PX         0.00000   0.00000   0.00000   0.00000   0.00000
  57        8PY        -0.01887   0.00011   0.00021  -0.00122   0.00000
  58        8PZ        -0.00009  -0.01237  -0.00055  -0.00007  -0.00861
  59        9PX         0.00000   0.00000   0.00000   0.00000   0.00000
  60        9PY         0.05629  -0.00035  -0.00090   0.00569   0.00000
  61        9PZ         0.00028   0.03837   0.00145   0.00018   0.03270
  62       10PX         0.00000   0.00000   0.00000   0.00000   0.00000
  63       10PY        -0.00355   0.00000   0.00019  -0.00102  -0.00002
  64       10PZ        -0.00003  -0.00859  -0.00062  -0.00009  -0.00548
  65       11PX         0.00000   0.00000   0.00000   0.00000   0.00000
  66       11PY        -0.00129   0.00001   0.00001  -0.00006  -0.00001
  67       11PZ         0.00000  -0.00023  -0.00020  -0.00003  -0.00028
  68       12D 0        0.00002   0.00230   0.00016   0.00002   0.00227
  69       12D+1        0.00000   0.00000   0.00000   0.00000   0.00000
  70       12D-1        0.00267  -0.00001  -0.00012   0.00069   0.00000
  71       12D+2        0.00000  -0.00040  -0.00006  -0.00001  -0.00009
  72       12D-2        0.00000   0.00000   0.00000   0.00000   0.00000
  73       13D 0        0.00000   0.00016  -0.00015  -0.00002  -0.00021
  74       13D+1        0.00000   0.00000   0.00000   0.00000   0.00000
  75       13D-1       -0.00036   0.00000  -0.00003   0.00018   0.00000
  76       13D+2        0.00000   0.00030   0.00002   0.00000  -0.00018
  77       13D-2        0.00000   0.00000   0.00000   0.00000   0.00000
  78       14D 0        0.00000   0.00122   0.00026   0.00004   0.00047
  79       14D+1        0.00000   0.00000   0.00000   0.00000   0.00000
  80       14D-1       -0.00080   0.00001  -0.00004   0.00020   0.00001
  81       14D+2        0.00000   0.00049  -0.00036  -0.00006   0.00031
  82       14D-2        0.00000   0.00000   0.00000   0.00000   0.00000
  83       15F 0        0.00000  -0.00019   0.00011   0.00002  -0.00017
  84       15F+1        0.00000   0.00000   0.00000   0.00000   0.00000
  85       15F-1       -0.00015   0.00000   0.00002  -0.00011   0.00000
  86       15F+2        0.00000   0.00013   0.00002   0.00000   0.00017
  87       15F-2        0.00000   0.00000   0.00000   0.00000   0.00000
  88       15F+3        0.00000   0.00000   0.00000   0.00000   0.00000
  89       15F-3        0.00011   0.00000   0.00000   0.00000   0.00000
  90       16F 0       -0.00001  -0.00044  -0.00005  -0.00001  -0.00035
  91       16F+1        0.00000   0.00000   0.00000   0.00000   0.00000
  92       16F-1       -0.00084   0.00000   0.00002  -0.00009   0.00000
  93       16F+2        0.00000  -0.00013   0.00012   0.00002  -0.00004
  94       16F-2        0.00000   0.00000   0.00000   0.00000   0.00000
  95       16F+3        0.00000   0.00000   0.00000   0.00000   0.00000
  96       16F-3       -0.00019   0.00000   0.00000   0.00001   0.00000
  97 3   Br 1S          0.00047   0.00074  -0.04531   0.03045  -0.04154
  98        2S         -0.00186  -0.00276   0.16762  -0.11262   0.15451
  99        3S          0.00420   0.00603  -0.35153   0.23498  -0.33180
 100        4S         -0.00097  -0.00020  -0.00092   0.00053  -0.00207
 101        5S         -0.00012   0.00017  -0.01905   0.01264  -0.01611
 102        6S          0.01025  -0.00202   0.00595  -0.00215  -0.00560
 103        7S          0.00684   0.00104   0.00230   0.00093   0.00027
 104        8PX         0.00000   0.00000   0.00000   0.00000   0.00000
 105        8PY         0.02270   0.00480   0.23497  -0.18920  -0.01495
 106        8PZ         0.01990   0.00603   0.14907  -0.11180   0.01339
 107        9PX         0.00000   0.00000   0.00000   0.00000   0.00000
 108        9PY        -0.06012  -0.01240  -0.61095   0.49376   0.05059
 109        9PZ        -0.05372  -0.01645  -0.38802   0.28995  -0.03263
 110       10PX         0.00000   0.00000   0.00000   0.00000   0.00000
 111       10PY         0.00066  -0.00051   0.00276  -0.00045  -0.00076
 112       10PZ        -0.00052  -0.00040   0.00160  -0.00112  -0.00091
 113       11PX         0.00000   0.00000   0.00000   0.00000   0.00000
 114       11PY        -0.00333  -0.00062  -0.02899   0.02331   0.00234
 115       11PZ        -0.00312  -0.00098  -0.01852   0.01367  -0.00161
 116       12PX         0.00000   0.00000   0.00000   0.00000   0.00000
 117       12PY         0.00470   0.00014   0.00139   0.00133   0.00052
 118       12PZ         0.00203  -0.00166   0.00123   0.00046  -0.00219
 119       13PX         0.00000   0.00000   0.00000   0.00000   0.00000
 120       13PY         0.00069   0.00025   0.00043   0.00009   0.00005
 121       13PZ         0.00057   0.00012   0.00017   0.00004   0.00026
 122       14D 0        0.00002  -0.00001   0.00196  -0.00136   0.00092
 123       14D+1        0.00000   0.00000   0.00000   0.00000   0.00000
 124       14D-1       -0.00302  -0.00087  -0.03248   0.02568  -0.00202
 125       14D+2        0.00189   0.00065   0.02076  -0.01631   0.00229
 126       14D-2        0.00000   0.00000   0.00000   0.00000   0.00000
 127       15D 0        0.00006   0.00000   0.00023  -0.00006   0.00006
 128       15D+1        0.00000   0.00000   0.00000   0.00000   0.00000
 129       15D-1       -0.00023  -0.00010  -0.00319   0.00248  -0.00035
 130       15D+2        0.00012   0.00011   0.00216  -0.00158   0.00038
 131       15D-2        0.00000   0.00000   0.00000   0.00000   0.00000
 132       16D 0       -0.00001   0.00020   0.00001  -0.00017   0.00026
 133       16D+1        0.00000   0.00000   0.00000   0.00000   0.00000
 134       16D-1        0.00034   0.00009   0.00117  -0.00039  -0.00032
 135       16D+2       -0.00040  -0.00001  -0.00090   0.00020   0.00009
 136       16D-2        0.00000   0.00000   0.00000   0.00000   0.00000
 137       17D 0       -0.00009  -0.00025   0.00001   0.00018  -0.00036
 138       17D+1        0.00000   0.00000   0.00000   0.00000   0.00000
 139       17D-1        0.00117  -0.00023   0.00066  -0.00015  -0.00029
 140       17D+2       -0.00063  -0.00024  -0.00041  -0.00022  -0.00033
 141       17D-2        0.00000   0.00000   0.00000   0.00000   0.00000
 142       18F 0        0.00008   0.00002   0.00030  -0.00026   0.00004
 143       18F+1        0.00000   0.00000   0.00000   0.00000   0.00000
 144       18F-1       -0.00003   0.00000  -0.00013   0.00011  -0.00004
 145       18F+2        0.00001   0.00004   0.00046  -0.00038   0.00010
 146       18F-2        0.00000   0.00000   0.00000   0.00000   0.00000
 147       18F+3        0.00000   0.00000   0.00000   0.00000   0.00000
 148       18F-3       -0.00007   0.00004   0.00024  -0.00020   0.00007
 149       19F 0       -0.00002   0.00006  -0.00037   0.00027   0.00025
 150       19F+1        0.00000   0.00000   0.00000   0.00000   0.00000
 151       19F-1       -0.00004   0.00006   0.00022  -0.00024   0.00006
 152       19F+2        0.00000  -0.00006  -0.00066   0.00036   0.00002
 153       19F-2        0.00000   0.00000   0.00000   0.00000   0.00000
 154       19F+3        0.00000   0.00000   0.00000   0.00000   0.00000
 155       19F-3        0.00006  -0.00008  -0.00036   0.00012  -0.00012
 156 4   Br 1S         -0.00052   0.00075  -0.03408  -0.04377  -0.03921
 157        2S          0.00205  -0.00277   0.12609   0.16194   0.14586
 158        3S         -0.00459   0.00605  -0.26492  -0.33873  -0.31317
 159        4S          0.00098  -0.00021  -0.00072  -0.00079  -0.00198
 160        5S          0.00010   0.00017  -0.01434  -0.01820  -0.01520
 161        6S         -0.01016  -0.00186   0.00486   0.00379  -0.00537
 162        7S         -0.00676   0.00112   0.00243  -0.00018   0.00016
 163        8PX         0.00000   0.00000   0.00000   0.00000   0.00000
 164        8PY         0.02294  -0.00510  -0.16529  -0.25128   0.01182
 165        8PZ        -0.01983   0.00624   0.10615   0.15067   0.01462
 166        9PX         0.00000   0.00000   0.00000   0.00000   0.00000
 167        9PY        -0.06080   0.01319   0.42937   0.65519  -0.04171
 168        9PZ         0.05353  -0.01702  -0.27661  -0.39126  -0.03614
 169       10PX         0.00000   0.00000   0.00000   0.00000   0.00000
 170       10PY         0.00063   0.00051  -0.00247  -0.00131   0.00076
 171       10PZ         0.00051  -0.00040   0.00117   0.00156  -0.00089
 172       11PX         0.00000   0.00000   0.00000   0.00000   0.00000
 173       11PY        -0.00338   0.00066   0.02040   0.03097  -0.00194
 174       11PZ         0.00310  -0.00101  -0.01324  -0.01851  -0.00177
 175       12PX         0.00000   0.00000   0.00000   0.00000   0.00000
 176       12PY         0.00466  -0.00019  -0.00168   0.00085  -0.00045
 177       12PZ        -0.00201  -0.00162   0.00129  -0.00006  -0.00219
 178       13PX         0.00000   0.00000   0.00000   0.00000   0.00000
 179       13PY         0.00068  -0.00025  -0.00043  -0.00005  -0.00004
 180       13PZ        -0.00057   0.00013   0.00016   0.00001   0.00024
 181       14D 0       -0.00004   0.00000   0.00154   0.00206   0.00093
 182       14D+1        0.00000   0.00000   0.00000   0.00000   0.00000
 183       14D-1       -0.00294   0.00088   0.02231   0.03333   0.00216
 184       14D+2       -0.00184   0.00066   0.01433   0.02128   0.00236
 185       14D-2        0.00000   0.00000   0.00000   0.00000   0.00000
 186       15D 0       -0.00006   0.00000   0.00020   0.00015   0.00006
 187       15D+1        0.00000   0.00000   0.00000   0.00000   0.00000
 188       15D-1       -0.00022   0.00010   0.00221   0.00324   0.00036
 189       15D+2       -0.00011   0.00011   0.00154   0.00211   0.00038
 190       15D-2        0.00000   0.00000   0.00000   0.00000   0.00000
 191       16D 0        0.00001   0.00019  -0.00004   0.00016   0.00026
 192       16D+1        0.00000   0.00000   0.00000   0.00000   0.00000
 193       16D-1        0.00035  -0.00009  -0.00098  -0.00073   0.00032
 194       16D+2        0.00041  -0.00001  -0.00079  -0.00048   0.00010
 195       16D-2        0.00000   0.00000   0.00000   0.00000   0.00000
 196       17D 0        0.00010  -0.00025   0.00006  -0.00017  -0.00036
 197       17D+1        0.00000   0.00000   0.00000   0.00000   0.00000
 198       17D-1        0.00116   0.00022  -0.00057  -0.00033   0.00030
 199       17D+2        0.00064  -0.00024  -0.00045   0.00009  -0.00032
 200       17D-2        0.00000   0.00000   0.00000   0.00000   0.00000
 201       18F 0       -0.00008   0.00002   0.00020   0.00034   0.00005
 202       18F+1        0.00000   0.00000   0.00000   0.00000   0.00000
 203       18F-1       -0.00003   0.00000   0.00008   0.00014   0.00004
 204       18F+2       -0.00001   0.00004   0.00031   0.00049   0.00011
 205       18F-2        0.00000   0.00000   0.00000   0.00000   0.00000
 206       18F+3        0.00000   0.00000   0.00000   0.00000   0.00000
 207       18F-3       -0.00007  -0.00004  -0.00016  -0.00026  -0.00007
 208       19F 0        0.00002   0.00006  -0.00027  -0.00037   0.00024
 209       19F+1        0.00000   0.00000   0.00000   0.00000   0.00000
 210       19F-1       -0.00004  -0.00006  -0.00013  -0.00028  -0.00006
 211       19F+2        0.00000  -0.00006  -0.00051  -0.00054   0.00002
 212       19F-2        0.00000   0.00000   0.00000   0.00000   0.00000
 213       19F+3        0.00000   0.00000   0.00000   0.00000   0.00000
 214       19F-3        0.00006   0.00008   0.00031   0.00022   0.00012
                           6         7         8         9        10
     Eigenvalues --     2.00001   2.00001   2.00001   2.00001   2.00001
   1 1   C  1S         -0.01444   0.07128   0.00000   0.00503  -0.09251
   2        2S          0.00033  -0.00221   0.00000  -0.00008   0.00140
   3        3S         -0.00056   0.00263   0.00000   0.00021  -0.00378
   4        4S         -0.00078   0.00897   0.00000  -0.00008   0.00125
   5        5S         -0.00015   0.00124   0.00000   0.00003  -0.00071
   6        6PX         0.00000   0.00000  -0.00073   0.00000   0.00000
   7        6PY         0.00000   0.00002   0.00000  -0.00032  -0.00002
   8        6PZ         0.00012  -0.00109   0.00000  -0.00002   0.00054
   9        7PX         0.00000   0.00000  -0.00006   0.00000   0.00000
  10        7PY        -0.00015   0.00001   0.00000  -0.00045  -0.00003
  11        7PZ         0.00003  -0.00052   0.00000   0.00001   0.00014
  12        8PX         0.00000   0.00000   0.00155   0.00000   0.00000
  13        8PY        -0.00062  -0.00005   0.00000  -0.00525  -0.00025
  14        8PZ        -0.00035   0.00302   0.00000  -0.00044   0.00938
  15        9PX         0.00000   0.00000  -0.00091   0.00000   0.00000
  16        9PY        -0.00257  -0.00022   0.00000  -0.00117  -0.00004
  17        9PZ        -0.00011   0.00106   0.00000  -0.00008   0.00165
  18       10D 0        0.00001  -0.00008   0.00000   0.00001  -0.00015
  19       10D+1        0.00000   0.00000  -0.00021   0.00000   0.00000
  20       10D-1        0.00013   0.00001   0.00000  -0.00005   0.00000
  21       10D+2        0.00000   0.00008   0.00000   0.00000  -0.00006
  22       10D-2        0.00000   0.00000   0.00000   0.00000   0.00000
  23       11D 0       -0.00003   0.00029   0.00000   0.00001  -0.00029
  24       11D+1        0.00000   0.00000   0.00057   0.00000   0.00000
  25       11D-1        0.00001   0.00000   0.00000  -0.00039  -0.00002
  26       11D+2        0.00001  -0.00027   0.00000   0.00002  -0.00030
  27       11D-2        0.00000   0.00000   0.00000   0.00000   0.00000
  28       12D 0       -0.00020   0.00171   0.00000  -0.00001   0.00017
  29       12D+1        0.00000   0.00000  -0.00133   0.00000   0.00000
  30       12D-1       -0.00098  -0.00009   0.00000   0.00062   0.00002
  31       12D+2       -0.00004   0.00015   0.00000  -0.00002   0.00042
  32       12D-2        0.00000   0.00000  -0.00002   0.00000   0.00000
  33       13F 0        0.00001  -0.00013   0.00000   0.00000  -0.00002
  34       13F+1        0.00000   0.00000  -0.00013   0.00000   0.00000
  35       13F-1       -0.00002   0.00000   0.00000   0.00003   0.00000
  36       13F+2        0.00000  -0.00001   0.00000   0.00000   0.00005
  37       13F-2        0.00000   0.00000   0.00000   0.00000   0.00000
  38       13F+3        0.00000   0.00000   0.00005   0.00000   0.00000
  39       13F-3        0.00002   0.00000   0.00000  -0.00003   0.00000
  40       14F 0        0.00001   0.00004   0.00000  -0.00002   0.00047
  41       14F+1        0.00000   0.00000   0.00095   0.00000   0.00000
  42       14F-1       -0.00001  -0.00001   0.00000  -0.00032  -0.00002
  43       14F+2        0.00001   0.00002   0.00000   0.00001  -0.00033
  44       14F-2        0.00000   0.00000   0.00000   0.00000   0.00000
  45       14F+3        0.00000   0.00000  -0.00031   0.00000   0.00000
  46       14F-3       -0.00002   0.00000   0.00000   0.00022   0.00001
  47 2   S  1S          0.00891  -0.08365   0.00000  -0.00058   0.01609
  48        2S         -0.03074   0.28831   0.00000   0.00205  -0.05634
  49        3S          0.00051  -0.00475   0.00000  -0.00004   0.00096
  50        4S         -0.00220   0.02069   0.00000   0.00015  -0.00407
  51        5S          0.00082  -0.00768   0.00000   0.00030  -0.00613
  52        6S          0.00027  -0.00264   0.00000   0.00020  -0.00415
  53        7PX         0.00000   0.00000   0.72429   0.00000   0.00000
  54        7PY        -0.04530  -0.00412   0.00000   0.02334   0.00144
  55        7PZ         0.02909  -0.28230   0.00000  -0.00150   0.05009
  56        8PX         0.00000   0.00000  -0.00920   0.00000   0.00000
  57        8PY         0.00054   0.00005   0.00000   0.00039   0.00002
  58        8PZ        -0.00052   0.00504   0.00000  -0.00001  -0.00005
  59        9PX         0.00000   0.00000   0.04610   0.00000   0.00000
  60        9PY        -0.00279  -0.00025   0.00000   0.00138   0.00009
  61        9PZ         0.00189  -0.01831   0.00000  -0.00009   0.00320
  62       10PX         0.00000   0.00000   0.00043   0.00000   0.00000
  63       10PY         0.00062   0.00005   0.00000   0.00137   0.00008
  64       10PZ        -0.00034   0.00338   0.00000  -0.00019   0.00392
  65       11PX         0.00000   0.00000  -0.00015   0.00000   0.00000
  66       11PY         0.00047   0.00004   0.00000   0.00011   0.00000
  67       11PZ        -0.00002   0.00019   0.00000  -0.00002   0.00052
  68       12D 0        0.00014  -0.00134   0.00000   0.00000   0.00017
  69       12D+1        0.00000   0.00000   0.00161   0.00000   0.00000
  70       12D-1       -0.00022  -0.00002   0.00000  -0.00045  -0.00002
  71       12D+2        0.00001  -0.00010   0.00000   0.00000   0.00008
  72       12D-2        0.00000   0.00000   0.00000   0.00000   0.00000
  73       13D 0       -0.00001   0.00016   0.00000   0.00000  -0.00004
  74       13D+1        0.00000   0.00000  -0.00017   0.00000   0.00000
  75       13D-1        0.00000   0.00000   0.00000   0.00008   0.00000
  76       13D+2       -0.00001   0.00011   0.00000   0.00000  -0.00005
  77       13D-2        0.00000   0.00000   0.00000   0.00000   0.00000
  78       14D 0        0.00004  -0.00043   0.00000   0.00003  -0.00062
  79       14D+1        0.00000   0.00000  -0.00044   0.00000   0.00000
  80       14D-1       -0.00015  -0.00001   0.00000  -0.00054  -0.00003
  81       14D+2        0.00000   0.00000   0.00000   0.00000  -0.00010
  82       14D-2        0.00000   0.00000   0.00000   0.00000   0.00000
  83       15F 0       -0.00001   0.00003   0.00000   0.00000  -0.00002
  84       15F+1        0.00000   0.00000  -0.00018   0.00000   0.00000
  85       15F-1        0.00004   0.00000   0.00000   0.00006   0.00000
  86       15F+2        0.00001  -0.00006   0.00000   0.00000  -0.00005
  87       15F-2        0.00000   0.00000   0.00000   0.00000   0.00000
  88       15F+3        0.00000   0.00000   0.00011   0.00000   0.00000
  89       15F-3       -0.00001   0.00000   0.00000  -0.00001   0.00000
  90       16F 0       -0.00003   0.00027   0.00000   0.00001  -0.00022
  91       16F+1        0.00000   0.00000  -0.00036   0.00000   0.00000
  92       16F-1        0.00003   0.00000   0.00000   0.00018   0.00001
  93       16F+2       -0.00001   0.00010   0.00000   0.00000   0.00003
  94       16F-2        0.00000   0.00000   0.00000   0.00000   0.00000
  95       16F+3        0.00000   0.00000  -0.00009   0.00000   0.00000
  96       16F-3        0.00004   0.00000   0.00000   0.00002   0.00000
  97 3   Br 1S          0.08937  -0.06577   0.00000  -0.00597   0.00572
  98        2S         -0.33286   0.24507   0.00000   0.02237  -0.02146
  99        3S          0.71790  -0.52962   0.00000  -0.04862   0.04708
 100        4S          0.00219  -0.00137   0.00000  -0.00008  -0.00007
 101        5S          0.03477  -0.02543   0.00000  -0.00231   0.00223
 102        6S          0.00660  -0.00532   0.00000  -0.00334   0.00330
 103        7S         -0.00420   0.00046   0.00000  -0.00212   0.00197
 104        8PX         0.00000   0.00000  -0.17566   0.00000   0.00000
 105        8PY         0.10343  -0.07013   0.00000   0.12123   0.16374
 106        8PZ         0.04358  -0.08604   0.00000  -0.22006  -0.22001
 107        9PX         0.00000   0.00000   0.49671   0.00000   0.00000
 108        9PY        -0.29036   0.19198   0.00000  -0.34237  -0.45548
 109        9PZ        -0.12228   0.23954   0.00000   0.61615   0.61883
 110       10PX         0.00000   0.00000   0.00120   0.00000   0.00000
 111       10PY        -0.00002  -0.00060   0.00000  -0.00133   0.00009
 112       10PZ         0.00022   0.00011   0.00000   0.00084   0.00117
 113       11PX         0.00000   0.00000   0.02233   0.00000   0.00000
 114       11PY        -0.01316   0.00866   0.00000  -0.01522  -0.02017
 115       11PZ        -0.00550   0.01098   0.00000   0.02740   0.02747
 116       12PX         0.00000   0.00000   0.00156   0.00000   0.00000
 117       12PY        -0.00208  -0.00016   0.00000  -0.00354   0.00010
 118       12PZ        -0.00113   0.00121   0.00000   0.00197   0.00336
 119       13PX         0.00000   0.00000   0.00022   0.00000   0.00000
 120       13PY        -0.00042   0.00007   0.00000  -0.00013   0.00047
 121       13PZ        -0.00046  -0.00010   0.00000  -0.00046  -0.00009
 122       14D 0       -0.00052  -0.00164   0.00000  -0.00938  -0.01021
 123       14D+1        0.00000   0.00000  -0.00037   0.00000   0.00000
 124       14D-1       -0.00691   0.00670   0.00000  -0.00369  -0.00765
 125       14D+2        0.00331  -0.00534   0.00000  -0.00663  -0.00522
 126       14D-2        0.00000   0.00000  -0.00011   0.00000   0.00000
 127       15D 0       -0.00006  -0.00011   0.00000  -0.00059  -0.00061
 128       15D+1        0.00000   0.00000  -0.00001   0.00000   0.00000
 129       15D-1       -0.00037   0.00049   0.00000  -0.00023  -0.00048
 130       15D+2        0.00016  -0.00040   0.00000  -0.00044  -0.00029
 131       15D-2        0.00000   0.00000   0.00010   0.00000   0.00000
 132       16D 0       -0.00002  -0.00017   0.00000  -0.00023  -0.00044
 133       16D+1        0.00000   0.00000  -0.00015   0.00000   0.00000
 134       16D-1       -0.00027  -0.00014   0.00000  -0.00018  -0.00019
 135       16D+2        0.00011   0.00003   0.00000  -0.00010  -0.00032
 136       16D-2        0.00000   0.00000  -0.00035   0.00000   0.00000
 137       17D 0       -0.00011   0.00004   0.00000   0.00008  -0.00032
 138       17D+1        0.00000   0.00000  -0.00027   0.00000   0.00000
 139       17D-1       -0.00024  -0.00002   0.00000  -0.00033   0.00023
 140       17D+2        0.00029   0.00022   0.00000   0.00024  -0.00040
 141       17D-2        0.00000   0.00000  -0.00054   0.00000   0.00000
 142       18F 0        0.00009  -0.00008   0.00000   0.00004   0.00010
 143       18F+1        0.00000   0.00000   0.00001   0.00000   0.00000
 144       18F-1       -0.00001   0.00006   0.00000   0.00033   0.00034
 145       18F+2        0.00011  -0.00013   0.00000  -0.00002   0.00002
 146       18F-2        0.00000   0.00000   0.00018   0.00000   0.00000
 147       18F+3        0.00000   0.00000  -0.00019   0.00000   0.00000
 148       18F-3        0.00004  -0.00007   0.00000   0.00013   0.00009
 149       19F 0       -0.00007   0.00002   0.00000  -0.00005  -0.00009
 150       19F+1        0.00000   0.00000  -0.00001   0.00000   0.00000
 151       19F-1       -0.00003  -0.00014   0.00000  -0.00027  -0.00043
 152       19F+2       -0.00003   0.00014   0.00000   0.00000   0.00002
 153       19F-2        0.00000   0.00000  -0.00022   0.00000   0.00000
 154       19F+3        0.00000   0.00000   0.00035   0.00000   0.00000
 155       19F-3        0.00003   0.00010   0.00000  -0.00015  -0.00011
 156 4   Br 1S         -0.07869  -0.07877   0.00000   0.00554   0.00647
 157        2S          0.29306   0.29351   0.00000  -0.02074  -0.02428
 158        3S         -0.63190  -0.63421   0.00000   0.04504   0.05325
 159        4S         -0.00198  -0.00168   0.00000   0.00009  -0.00006
 160        5S         -0.03063  -0.03048   0.00000   0.00214   0.00252
 161        6S         -0.00581  -0.00630   0.00000   0.00304   0.00357
 162        7S          0.00406   0.00115   0.00000   0.00192   0.00211
 163        8PX         0.00000   0.00000  -0.17435   0.00000   0.00000
 164        8PY         0.09169   0.08889   0.00000   0.13481  -0.15193
 165        8PZ        -0.03001  -0.09242   0.00000   0.24072  -0.19830
 166        9PX         0.00000   0.00000   0.49302   0.00000   0.00000
 167        9PY        -0.25817  -0.24421   0.00000  -0.38019   0.42204
 168        9PZ         0.08450   0.25711   0.00000  -0.67415   0.55802
 169       10PX         0.00000   0.00000   0.00120   0.00000   0.00000
 170       10PY        -0.00007   0.00059   0.00000  -0.00133  -0.00022
 171       10PZ        -0.00026   0.00005   0.00000  -0.00094   0.00110
 172       11PX         0.00000   0.00000   0.02216   0.00000   0.00000
 173       11PY        -0.01171  -0.01104   0.00000  -0.01689   0.01869
 174       11PZ         0.00377   0.01177   0.00000  -0.02998   0.02476
 175       12PX         0.00000   0.00000   0.00157   0.00000   0.00000
 176       12PY        -0.00209  -0.00022   0.00000  -0.00353  -0.00040
 177       12PZ         0.00087   0.00137   0.00000  -0.00230   0.00316
 178       13PX         0.00000   0.00000   0.00022   0.00000   0.00000
 179       13PY        -0.00041  -0.00014   0.00000  -0.00009  -0.00048
 180       13PZ         0.00048  -0.00002   0.00000   0.00047  -0.00005
 181       14D 0        0.00075  -0.00155   0.00000   0.01033  -0.00928
 182       14D+1        0.00000   0.00000  -0.00043   0.00000   0.00000
 183       14D-1       -0.00567  -0.00783   0.00000  -0.00445   0.00741
 184       14D+2       -0.00238  -0.00588   0.00000   0.00711  -0.00453
 185       14D-2        0.00000   0.00000   0.00022   0.00000   0.00000
 186       15D 0        0.00007  -0.00010   0.00000   0.00065  -0.00055
 187       15D+1        0.00000   0.00000  -0.00002   0.00000   0.00000
 188       15D-1       -0.00028  -0.00056   0.00000  -0.00028   0.00047
 189       15D+2       -0.00008  -0.00043   0.00000   0.00047  -0.00025
 190       15D-2        0.00000   0.00000  -0.00009   0.00000   0.00000
 191       16D 0        0.00006  -0.00017   0.00000   0.00027  -0.00041
 192       16D+1        0.00000   0.00000  -0.00015   0.00000   0.00000
 193       16D-1       -0.00027   0.00010   0.00000  -0.00020   0.00017
 194       16D+2       -0.00011   0.00002   0.00000   0.00012  -0.00031
 195       16D-2        0.00000   0.00000   0.00034   0.00000   0.00000
 196       17D 0        0.00009   0.00006   0.00000  -0.00005  -0.00032
 197       17D+1        0.00000   0.00000  -0.00026   0.00000   0.00000
 198       17D-1       -0.00023  -0.00002   0.00000  -0.00031  -0.00026
 199       17D+2       -0.00033   0.00017   0.00000  -0.00021  -0.00041
 200       17D-2        0.00000   0.00000   0.00053   0.00000   0.00000
 201       18F 0       -0.00007  -0.00010   0.00000  -0.00005   0.00009
 202       18F+1        0.00000   0.00000   0.00000   0.00000   0.00000
 203       18F-1        0.00000  -0.00006   0.00000   0.00036  -0.00031
 204       18F+2       -0.00009  -0.00015   0.00000   0.00002   0.00002
 205       18F-2        0.00000   0.00000  -0.00018   0.00000   0.00000
 206       18F+3        0.00000   0.00000  -0.00018   0.00000   0.00000
 207       18F-3        0.00003   0.00008   0.00000   0.00014  -0.00008
 208       19F 0        0.00007   0.00004   0.00000   0.00005  -0.00008
 209       19F+1        0.00000   0.00000  -0.00001   0.00000   0.00000
 210       19F-1       -0.00005   0.00013   0.00000  -0.00030   0.00040
 211       19F+2        0.00001   0.00015   0.00000  -0.00001   0.00002
 212       19F-2        0.00000   0.00000   0.00021   0.00000   0.00000
 213       19F+3        0.00000   0.00000   0.00034   0.00000   0.00000
 214       19F-3        0.00005  -0.00009   0.00000  -0.00016   0.00009
                          11        12        13        14        15
     Eigenvalues --     2.00001   2.00000   2.00000   2.00000   2.00000
   1 1   C  1S          0.00000   0.00000   0.76876  -0.00101   0.00021
   2        2S          0.00000   0.00000  -0.00779   0.00001   0.00000
   3        3S          0.00000   0.00000   0.03222  -0.00004   0.00001
   4        4S          0.00000   0.00000  -0.00993  -0.00017   0.00004
   5        5S          0.00000   0.00000  -0.00541   0.00007  -0.00002
   6        6PX         0.00000  -0.00153   0.00000   0.00000   0.00000
   7        6PY         0.00000   0.00000   0.00001   0.00000   0.00000
   8        6PZ         0.00000   0.00000  -0.00058   0.00001   0.00000
   9        7PX        -0.00001  -0.00172   0.00000   0.00000   0.00000
  10        7PY         0.00000   0.00000   0.00003   0.00000  -0.00001
  11        7PZ         0.00000   0.00000   0.00163   0.00002  -0.00001
  12        8PX         0.00000  -0.00154   0.00000   0.00000   0.00000
  13        8PY         0.00000   0.00000   0.00000   0.00009   0.00032
  14        8PZ         0.00000   0.00000  -0.00403  -0.00098   0.00026
  15        9PX         0.00000  -0.00048   0.00000   0.00000   0.00000
  16        9PY         0.00000   0.00000  -0.00001   0.00003   0.00011
  17        9PZ         0.00000   0.00000   0.00069  -0.00017   0.00005
  18       10D 0        0.00000   0.00000   0.00030   0.00000   0.00000
  19       10D+1        0.00000  -0.00008   0.00000   0.00000   0.00000
  20       10D-1        0.00000   0.00000   0.00000   0.00000   0.00000
  21       10D+2        0.00000   0.00000  -0.00026   0.00000   0.00000
  22       10D-2        0.00009   0.00000   0.00000   0.00000   0.00000
  23       11D 0        0.00000   0.00000  -0.00031   0.00001   0.00000
  24       11D+1        0.00000   0.00108   0.00000   0.00000   0.00000
  25       11D-1        0.00000   0.00000  -0.00002   0.00000   0.00001
  26       11D+2        0.00000   0.00000   0.00150   0.00001   0.00000
  27       11D-2        0.00066   0.00001   0.00000   0.00000   0.00000
  28       12D 0        0.00000   0.00000  -0.00405  -0.00010   0.00003
  29       12D+1        0.00000  -0.00147   0.00000   0.00000   0.00000
  30       12D-1        0.00000   0.00000  -0.00001   0.00000  -0.00001
  31       12D+2        0.00000   0.00000  -0.00152  -0.00007   0.00002
  32       12D-2       -0.00006   0.00000   0.00000   0.00000   0.00000
  33       13F 0        0.00000   0.00000   0.00034   0.00001   0.00000
  34       13F+1        0.00000  -0.00008   0.00000   0.00000   0.00000
  35       13F-1        0.00000   0.00000   0.00000   0.00000   0.00001
  36       13F+2        0.00000   0.00000  -0.00007  -0.00001   0.00000
  37       13F-2        0.00000   0.00000   0.00000   0.00000   0.00000
  38       13F+3        0.00000   0.00001   0.00000   0.00000   0.00000
  39       13F-3        0.00000   0.00000   0.00000   0.00000   0.00000
  40       14F 0        0.00000   0.00000  -0.00107  -0.00004   0.00001
  41       14F+1        0.00000   0.00051   0.00000   0.00000   0.00000
  42       14F-1        0.00000   0.00000   0.00000  -0.00001  -0.00006
  43       14F+2        0.00000   0.00000  -0.00086   0.00005  -0.00001
  44       14F-2       -0.00019   0.00000   0.00000   0.00000   0.00000
  45       14F+3        0.00000   0.00019   0.00000   0.00000   0.00000
  46       14F-3        0.00000   0.00000   0.00000  -0.00001  -0.00004
  47 2   S  1S          0.00000   0.00000   0.06081  -0.00218   0.00060
  48        2S          0.00000   0.00000  -0.21166  -0.00005   0.00002
  49        3S          0.00000   0.00000   0.00231  -0.00003   0.00001
  50        4S          0.00000   0.00000  -0.01560   0.00000   0.00000
  51        5S          0.00000   0.00000   0.00955   0.00077  -0.00021
  52        6S          0.00000   0.00000   0.00014   0.00045  -0.00012
  53        7PX        -0.00016   0.64825   0.00000   0.00000   0.00000
  54        7PY         0.00000   0.00000  -0.00125  -0.00001  -0.00006
  55        7PZ         0.00000   0.00000   0.47181  -0.00016   0.00001
  56        8PX         0.00000  -0.00705   0.00000   0.00000   0.00000
  57        8PY         0.00000   0.00000   0.00001   0.00000   0.00002
  58        8PZ         0.00000   0.00000  -0.00544  -0.00007   0.00002
  59        9PX        -0.00001   0.04174   0.00000   0.00000   0.00000
  60        9PY         0.00000   0.00000  -0.00008   0.00000   0.00000
  61        9PZ         0.00000   0.00000   0.03107   0.00000   0.00000
  62       10PX         0.00000   0.00270   0.00000   0.00000   0.00000
  63       10PY         0.00000   0.00000   0.00000  -0.00002  -0.00008
  64       10PZ         0.00000   0.00000  -0.00137  -0.00044   0.00012
  65       11PX         0.00000  -0.00025   0.00000   0.00000   0.00000
  66       11PY         0.00000   0.00000   0.00000   0.00000  -0.00001
  67       11PZ         0.00000   0.00000  -0.00003  -0.00005   0.00001
  68       12D 0        0.00000   0.00000   0.00094   0.00001   0.00000
  69       12D+1        0.00000   0.00123   0.00000   0.00000   0.00000
  70       12D-1        0.00000   0.00000  -0.00001   0.00000   0.00001
  71       12D+2        0.00000   0.00000   0.00029  -0.00002   0.00000
  72       12D-2        0.00004   0.00000   0.00000   0.00000   0.00000
  73       13D 0        0.00000   0.00000  -0.00055   0.00000   0.00000
  74       13D+1        0.00000  -0.00006   0.00000   0.00000   0.00000
  75       13D-1        0.00000   0.00000   0.00000   0.00000  -0.00001
  76       13D+2        0.00000   0.00000  -0.00010   0.00000   0.00000
  77       13D-2        0.00003   0.00000   0.00000   0.00000   0.00000
  78       14D 0        0.00000   0.00000  -0.00002   0.00007  -0.00002
  79       14D+1        0.00000  -0.00109   0.00000   0.00000   0.00000
  80       14D-1        0.00000   0.00000   0.00000   0.00001   0.00004
  81       14D+2        0.00000   0.00000   0.00056   0.00001   0.00000
  82       14D-2        0.00000   0.00000   0.00000   0.00000   0.00000
  83       15F 0        0.00000   0.00000   0.00040   0.00000   0.00000
  84       15F+1        0.00000  -0.00021   0.00000   0.00000   0.00000
  85       15F-1        0.00000   0.00000   0.00000   0.00000   0.00000
  86       15F+2        0.00000   0.00000   0.00011   0.00001   0.00000
  87       15F-2        0.00000   0.00000   0.00000   0.00000   0.00000
  88       15F+3        0.00000   0.00009   0.00000   0.00000   0.00000
  89       15F-3        0.00000   0.00000   0.00000   0.00000   0.00000
  90       16F 0        0.00000   0.00000  -0.00037   0.00002   0.00000
  91       16F+1        0.00000  -0.00012   0.00000   0.00000   0.00000
  92       16F-1        0.00000   0.00000   0.00000   0.00000  -0.00001
  93       16F+2        0.00000   0.00000  -0.00045   0.00000   0.00000
  94       16F-2       -0.00001   0.00000   0.00000   0.00000   0.00000
  95       16F+3        0.00000  -0.00012   0.00000   0.00000   0.00000
  96       16F-3        0.00000   0.00000   0.00000   0.00000   0.00000
  97 3   Br 1S          0.00000   0.00000   0.00152   0.00190   0.01148
  98        2S          0.00000   0.00000  -0.00439  -0.00769  -0.03486
  99        3S          0.00000   0.00000  -0.00627  -0.00092  -0.00317
 100        4S          0.00000   0.00000   0.00065   0.00002  -0.00001
 101        5S          0.00000   0.00000  -0.00048  -0.00002  -0.00010
 102        6S          0.00000   0.00000   0.00082  -0.00031   0.00023
 103        7S          0.00000   0.00000   0.00245  -0.00016   0.00028
 104        8PX         0.26133   0.19736   0.00000   0.00000   0.00000
 105        8PY         0.00000   0.00000  -0.08286  -0.52128  -0.37077
 106        8PZ         0.00000   0.00000  -0.07197   0.69914   0.33986
 107        9PX        -0.73905  -0.55556   0.00000   0.00000   0.00000
 108        9PY         0.00000   0.00000   0.16908   0.00853   0.00478
 109        9PZ         0.00000   0.00000   0.16133  -0.01516  -0.00878
 110       10PX        -0.00124   0.00030   0.00000   0.00000   0.00000
 111       10PY         0.00000   0.00000  -0.00027  -0.00028  -0.00014
 112       10PZ         0.00000   0.00000  -0.00002   0.00029   0.00018
 113       11PX        -0.03300  -0.02420   0.00000   0.00000   0.00000
 114       11PY         0.00000   0.00000   0.00697   0.00076   0.00048
 115       11PZ         0.00000   0.00000   0.00659  -0.00116  -0.00062
 116       12PX        -0.00380  -0.00249   0.00000   0.00000   0.00000
 117       12PY         0.00000   0.00000   0.00191  -0.00011   0.00022
 118       12PZ         0.00000   0.00000  -0.00016  -0.00016   0.00006
 119       13PX         0.00031   0.00038   0.00000   0.00000   0.00000
 120       13PY         0.00000   0.00000   0.00037  -0.00004   0.00003
 121       13PZ         0.00000   0.00000   0.00018   0.00002   0.00004
 122       14D 0        0.00000   0.00000  -0.00135   0.00048   0.00027
 123       14D+1        0.00058   0.00023   0.00000   0.00000   0.00000
 124       14D-1        0.00000   0.00000   0.01058   0.00026   0.00020
 125       14D+2        0.00000   0.00000  -0.00738   0.00028   0.00012
 126       14D-2       -0.00017  -0.00031   0.00000   0.00000   0.00000
 127       15D 0        0.00000   0.00000  -0.00010   0.00001   0.00001
 128       15D+1       -0.00004  -0.00010   0.00000   0.00000   0.00000
 129       15D-1        0.00000   0.00000   0.00092   0.00001   0.00001
 130       15D+2        0.00000   0.00000  -0.00065   0.00001   0.00000
 131       15D-2       -0.00012  -0.00016   0.00000   0.00000   0.00000
 132       16D 0        0.00000   0.00000   0.00013   0.00008   0.00004
 133       16D+1        0.00011   0.00012   0.00000   0.00000   0.00000
 134       16D-1        0.00000   0.00000   0.00098   0.00003   0.00002
 135       16D+2        0.00000   0.00000  -0.00042   0.00006   0.00002
 136       16D-2        0.00019  -0.00001   0.00000   0.00000   0.00000
 137       17D 0        0.00000   0.00000  -0.00025   0.00001  -0.00002
 138       17D+1       -0.00007  -0.00011   0.00000   0.00000   0.00000
 139       17D-1        0.00000   0.00000   0.00011  -0.00003   0.00003
 140       17D+2        0.00000   0.00000  -0.00051   0.00002  -0.00005
 141       17D-2       -0.00013  -0.00036   0.00000   0.00000   0.00000
 142       18F 0        0.00000   0.00000  -0.00012   0.00000   0.00000
 143       18F+1       -0.00002  -0.00002   0.00000   0.00000   0.00000
 144       18F-1        0.00000   0.00000   0.00011  -0.00001   0.00000
 145       18F+2        0.00000   0.00000  -0.00019   0.00000   0.00000
 146       18F-2       -0.00023  -0.00018   0.00000   0.00000   0.00000
 147       18F+3        0.00018   0.00011   0.00000   0.00000   0.00000
 148       18F-3        0.00000   0.00000  -0.00007   0.00000   0.00000
 149       19F 0        0.00000   0.00000  -0.00007   0.00001   0.00001
 150       19F+1        0.00002   0.00005   0.00000   0.00000   0.00000
 151       19F-1        0.00000   0.00000   0.00021   0.00004   0.00002
 152       19F+2        0.00000   0.00000  -0.00021   0.00000   0.00001
 153       19F-2        0.00018   0.00016   0.00000   0.00000   0.00000
 154       19F+3       -0.00014   0.00002   0.00000   0.00000   0.00000
 155       19F-3        0.00000   0.00000  -0.00006   0.00001   0.00001
 156 4   Br 1S          0.00000   0.00000   0.00147  -0.00400  -0.01141
 157        2S          0.00000   0.00000  -0.00421   0.01042   0.03574
 158        3S          0.00000   0.00000  -0.00660   0.00075   0.00329
 159        4S          0.00000   0.00000   0.00063   0.00003   0.00000
 160        5S          0.00000   0.00000  -0.00049   0.00003   0.00010
 161        6S          0.00000   0.00000   0.00078  -0.00038  -0.00004
 162        7S          0.00000   0.00000   0.00245  -0.00028  -0.00016
 163        8PX        -0.26338   0.19575   0.00000   0.00000   0.00000
 164        8PY         0.00000   0.00000   0.08363   0.26303  -0.58312
 165        8PZ         0.00000   0.00000  -0.07238   0.42991  -0.64717
 166        9PX         0.74487  -0.55106   0.00000   0.00000   0.00000
 167        9PY         0.00000   0.00000  -0.17249  -0.00487   0.00841
 168        9PZ         0.00000   0.00000   0.16346  -0.00865   0.01521
 169       10PX         0.00126   0.00029   0.00000   0.00000   0.00000
 170       10PY         0.00000   0.00000   0.00028   0.00017  -0.00026
 171       10PZ         0.00000   0.00000  -0.00004   0.00016  -0.00030
 172       11PX         0.03325  -0.02400   0.00000   0.00000   0.00000
 173       11PY         0.00000   0.00000  -0.00713  -0.00041   0.00080
 174       11PZ         0.00000   0.00000   0.00669  -0.00068   0.00112
 175       12PX         0.00383  -0.00246   0.00000   0.00000   0.00000
 176       12PY         0.00000   0.00000  -0.00191   0.00021   0.00013
 177       12PZ         0.00000   0.00000  -0.00014  -0.00016   0.00003
 178       13PX        -0.00031   0.00037   0.00000   0.00000   0.00000
 179       13PY         0.00000   0.00000  -0.00037   0.00005   0.00000
 180       13PZ         0.00000   0.00000   0.00018   0.00000  -0.00005
 181       14D 0        0.00000   0.00000  -0.00142   0.00028  -0.00048
 182       14D+1       -0.00067   0.00029   0.00000   0.00000   0.00000
 183       14D-1        0.00000   0.00000  -0.01043  -0.00012   0.00031
 184       14D+2        0.00000   0.00000  -0.00733   0.00018  -0.00024
 185       14D-2       -0.00002   0.00019   0.00000   0.00000   0.00000
 186       15D 0        0.00000   0.00000  -0.00010   0.00001  -0.00001
 187       15D+1        0.00003  -0.00009   0.00000   0.00000   0.00000
 188       15D-1        0.00000   0.00000  -0.00090   0.00000   0.00002
 189       15D+2        0.00000   0.00000  -0.00065   0.00001   0.00000
 190       15D-2       -0.00010   0.00014   0.00000   0.00000   0.00000
 191       16D 0        0.00000   0.00000   0.00012   0.00005  -0.00007
 192       16D+1       -0.00011   0.00012   0.00000   0.00000   0.00000
 193       16D-1        0.00000   0.00000  -0.00098  -0.00001   0.00003
 194       16D+2        0.00000   0.00000  -0.00042   0.00004  -0.00005
 195       16D-2        0.00019   0.00001   0.00000   0.00000   0.00000
 196       17D 0        0.00000   0.00000  -0.00024   0.00001   0.00002
 197       17D+1        0.00007  -0.00011   0.00000   0.00000   0.00000
 198       17D-1        0.00000   0.00000  -0.00010   0.00004   0.00001
 199       17D+2        0.00000   0.00000  -0.00052   0.00004   0.00003
 200       17D-2       -0.00013   0.00036   0.00000   0.00000   0.00000
 201       18F 0        0.00000   0.00000  -0.00013   0.00000   0.00000
 202       18F+1        0.00002  -0.00002   0.00000   0.00000   0.00000
 203       18F-1        0.00000   0.00000  -0.00011   0.00001  -0.00001
 204       18F+2        0.00000   0.00000  -0.00019   0.00000   0.00000
 205       18F-2       -0.00023   0.00018   0.00000   0.00000   0.00000
 206       18F+3       -0.00018   0.00011   0.00000   0.00000   0.00000
 207       18F-3        0.00000   0.00000   0.00007   0.00000   0.00000
 208       19F 0        0.00000   0.00000  -0.00007   0.00000  -0.00001
 209       19F+1       -0.00002   0.00005   0.00000   0.00000   0.00000
 210       19F-1        0.00000   0.00000  -0.00021  -0.00003   0.00003
 211       19F+2        0.00000   0.00000  -0.00022   0.00000   0.00000
 212       19F-2        0.00018  -0.00016   0.00000   0.00000   0.00000
 213       19F+3        0.00014   0.00002   0.00000   0.00000   0.00000
 214       19F-3        0.00000   0.00000   0.00006  -0.00001   0.00001
                          16        17        18        19        20
     Eigenvalues --     2.00000   2.00000   2.00000   2.00000   2.00000
   1 1   C  1S          0.00027   0.00000   0.00000   0.02376   0.00038
   2        2S          0.00000   0.00000   0.00000  -0.00022   0.00000
   3        3S          0.00001   0.00000   0.00000   0.00104   0.00002
   4        4S          0.00000   0.00000   0.00000  -0.00136  -0.00001
   5        5S          0.00000   0.00000   0.00000  -0.00063  -0.00001
   6        6PX         0.00000   0.00001   0.00000   0.00000   0.00000
   7        6PY        -0.00003   0.00000   0.00000   0.00000   0.00000
   8        6PZ         0.00000   0.00000   0.00000  -0.00004   0.00000
   9        7PX         0.00000  -0.00002   0.00000   0.00000   0.00000
  10        7PY         0.00006   0.00000   0.00000   0.00000   0.00002
  11        7PZ         0.00000   0.00000   0.00000   0.00007   0.00000
  12        8PX         0.00000  -0.00015  -0.00001   0.00000   0.00000
  13        8PY         0.00061   0.00000   0.00000   0.00000   0.00002
  14        8PZ         0.00000   0.00000   0.00000   0.00052   0.00000
  15        9PX         0.00000   0.00003   0.00000   0.00000   0.00000
  16        9PY         0.00007   0.00000   0.00000   0.00000  -0.00001
  17        9PZ         0.00000   0.00000   0.00000   0.00013   0.00000
  18       10D 0        0.00000   0.00000   0.00000   0.00001   0.00000
  19       10D+1        0.00000   0.00000   0.00000   0.00000   0.00000
  20       10D-1        0.00000   0.00000   0.00000   0.00000   0.00000
  21       10D+2        0.00000   0.00000   0.00000  -0.00001   0.00000
  22       10D-2        0.00000   0.00000   0.00001   0.00000   0.00000
  23       11D 0        0.00000   0.00000   0.00000  -0.00003   0.00000
  24       11D+1        0.00000   0.00002   0.00000   0.00000   0.00000
  25       11D-1       -0.00008   0.00000   0.00000   0.00000  -0.00001
  26       11D+2        0.00000   0.00000   0.00000   0.00014   0.00000
  27       11D-2        0.00000   0.00000  -0.00004   0.00000   0.00000
  28       12D 0        0.00000   0.00000   0.00000   0.00011   0.00000
  29       12D+1        0.00000  -0.00004   0.00000   0.00000   0.00000
  30       12D-1       -0.00042   0.00000   0.00000   0.00000  -0.00005
  31       12D+2        0.00000   0.00000   0.00000   0.00021   0.00000
  32       12D-2        0.00000   0.00000   0.00004   0.00000   0.00000
  33       13F 0        0.00000   0.00000   0.00000   0.00000   0.00000
  34       13F+1        0.00000   0.00000   0.00000   0.00000   0.00000
  35       13F-1        0.00000   0.00000   0.00000   0.00000   0.00000
  36       13F+2        0.00000   0.00000   0.00000   0.00000   0.00000
  37       13F-2        0.00000   0.00000   0.00000   0.00000   0.00000
  38       13F+3        0.00000  -0.00001   0.00000   0.00000   0.00000
  39       13F-3        0.00001   0.00000   0.00000   0.00000   0.00000
  40       14F 0        0.00000   0.00000   0.00000  -0.00001   0.00000
  41       14F+1        0.00000  -0.00002   0.00000   0.00000   0.00000
  42       14F-1       -0.00005   0.00000   0.00000   0.00000  -0.00001
  43       14F+2        0.00000   0.00000   0.00000  -0.00004   0.00000
  44       14F-2        0.00000   0.00000   0.00003   0.00000   0.00000
  45       14F+3        0.00000   0.00004   0.00000   0.00000   0.00000
  46       14F-3       -0.00004   0.00000   0.00000   0.00000  -0.00001
  47 2   S  1S         -0.00010   0.00000   0.00000  -0.03442  -0.00188
  48        2S         -0.00006   0.00000   0.00000  -0.00604  -0.00011
  49        3S          0.00000   0.00000   0.00000   0.00002   0.00000
  50        4S          0.00000   0.00000   0.00000  -0.00043  -0.00001
  51        5S          0.00000   0.00000   0.00000   0.00003   0.00000
  52        6S          0.00000   0.00000   0.00000   0.00003   0.00000
  53        7PX         0.00000  -0.00082  -0.00004   0.00000   0.00000
  54        7PY         0.00056   0.00000   0.00000  -0.00004  -0.00004
  55        7PZ         0.00014   0.00000   0.00000   0.01330   0.00021
  56        8PX         0.00000   0.00001   0.00000   0.00000   0.00000
  57        8PY         0.00000   0.00000   0.00000   0.00000   0.00001
  58        8PZ         0.00000   0.00000   0.00000  -0.00016   0.00000
  59        9PX         0.00000  -0.00005   0.00000   0.00000   0.00000
  60        9PY         0.00004   0.00000   0.00000   0.00000   0.00000
  61        9PZ         0.00001   0.00000   0.00000   0.00089   0.00001
  62       10PX         0.00000   0.00010   0.00001   0.00000   0.00000
  63       10PY         0.00018   0.00000   0.00000   0.00000   0.00001
  64       10PZ         0.00000   0.00000   0.00000  -0.00006   0.00000
  65       11PX         0.00000  -0.00001   0.00000   0.00000   0.00000
  66       11PY         0.00000   0.00000   0.00000   0.00000   0.00000
  67       11PZ         0.00000   0.00000   0.00000  -0.00003   0.00000
  68       12D 0        0.00000   0.00000   0.00000   0.00007   0.00000
  69       12D+1        0.00000  -0.00002   0.00000   0.00000   0.00000
  70       12D-1       -0.00001   0.00000   0.00000   0.00000   0.00000
  71       12D+2        0.00000   0.00000   0.00000  -0.00001   0.00000
  72       12D-2        0.00000   0.00000  -0.00001   0.00000   0.00000
  73       13D 0        0.00000   0.00000   0.00000  -0.00002   0.00000
  74       13D+1        0.00000   0.00000   0.00000   0.00000   0.00000
  75       13D-1        0.00000   0.00000   0.00000   0.00000   0.00000
  76       13D+2        0.00000   0.00000   0.00000   0.00000   0.00000
  77       13D-2        0.00000   0.00000   0.00000   0.00000   0.00000
  78       14D 0        0.00000   0.00000   0.00000   0.00003   0.00000
  79       14D+1        0.00000  -0.00005   0.00000   0.00000   0.00000
  80       14D-1       -0.00004   0.00000   0.00000   0.00000   0.00000
  81       14D+2        0.00000   0.00000   0.00000  -0.00002   0.00000
  82       14D-2        0.00000   0.00000  -0.00001   0.00000   0.00000
  83       15F 0        0.00000   0.00000   0.00000   0.00001   0.00000
  84       15F+1        0.00000   0.00000   0.00000   0.00000   0.00000
  85       15F-1        0.00000   0.00000   0.00000   0.00000   0.00000
  86       15F+2        0.00000   0.00000   0.00000   0.00001   0.00000
  87       15F-2        0.00000   0.00000   0.00000   0.00000   0.00000
  88       15F+3        0.00000   0.00000   0.00000   0.00000   0.00000
  89       15F-3        0.00000   0.00000   0.00000   0.00000   0.00000
  90       16F 0        0.00000   0.00000   0.00000  -0.00002   0.00000
  91       16F+1        0.00000   0.00002   0.00000   0.00000   0.00000
  92       16F-1        0.00000   0.00000   0.00000   0.00000   0.00000
  93       16F+2        0.00000   0.00000   0.00000   0.00000   0.00000
  94       16F-2        0.00000   0.00000   0.00001   0.00000   0.00000
  95       16F+3        0.00000  -0.00001   0.00000   0.00000   0.00000
  96       16F-3        0.00000   0.00000   0.00000   0.00000   0.00000
  97 3   Br 1S         -0.05051   0.00000   0.00000   0.00615   0.20817
  98        2S          0.15795   0.00000   0.00000  -0.02051  -0.67480
  99        3S          0.01474   0.00000   0.00000   0.00683  -0.02870
 100        4S         -0.00014   0.00000   0.00000  -0.00008   0.00019
 101        5S          0.00044   0.00000   0.00000   0.00023  -0.00068
 102        6S          0.00076   0.00000   0.00000   0.00078  -0.00002
 103        7S          0.00008   0.00000   0.00000   0.00029  -0.00003
 104        8PX         0.00000   0.75175  -0.67212   0.00000   0.00000
 105        8PY         0.48600   0.00000   0.00000   0.57724   0.14002
 106        8PZ         0.48371   0.00000   0.00000   0.40250   0.08670
 107        9PX         0.00000  -0.01674   0.01566   0.00000   0.00000
 108        9PY         0.00502   0.00000   0.00000   0.00887  -0.00212
 109        9PZ         0.00017   0.00000   0.00000   0.00575  -0.00127
 110       10PX         0.00000   0.00030  -0.00027   0.00000   0.00000
 111       10PY         0.00026   0.00000   0.00000   0.00036   0.00007
 112       10PZ         0.00029   0.00000   0.00000   0.00023   0.00005
 113       11PX         0.00000  -0.00128   0.00117   0.00000   0.00000
 114       11PY        -0.00023   0.00000   0.00000  -0.00017  -0.00021
 115       11PZ        -0.00042   0.00000   0.00000  -0.00013  -0.00013
 116       12PX         0.00000  -0.00009   0.00013   0.00000   0.00000
 117       12PY         0.00023   0.00000   0.00000   0.00025  -0.00005
 118       12PZ         0.00008   0.00000   0.00000   0.00024  -0.00002
 119       13PX         0.00000   0.00002  -0.00003   0.00000   0.00000
 120       13PY         0.00000   0.00000   0.00000   0.00004   0.00000
 121       13PZ         0.00001   0.00000   0.00000   0.00001   0.00000
 122       14D 0        0.00007   0.00000   0.00000  -0.00001   0.00003
 123       14D+1        0.00000   0.00003  -0.00003   0.00000   0.00000
 124       14D-1       -0.00022   0.00000   0.00000   0.00008  -0.00001
 125       14D+2        0.00024   0.00000   0.00000  -0.00003  -0.00005
 126       14D-2        0.00000  -0.00001   0.00002   0.00000   0.00000
 127       15D 0        0.00000   0.00000   0.00000   0.00000   0.00000
 128       15D+1        0.00000  -0.00001   0.00001   0.00000   0.00000
 129       15D-1       -0.00004   0.00000   0.00000  -0.00002   0.00000
 130       15D+2        0.00003   0.00000   0.00000   0.00002   0.00000
 131       15D-2        0.00000  -0.00002   0.00002   0.00000   0.00000
 132       16D 0        0.00003   0.00000   0.00000  -0.00001   0.00001
 133       16D+1        0.00000   0.00003  -0.00002   0.00000   0.00000
 134       16D-1        0.00010   0.00000   0.00000   0.00014   0.00001
 135       16D+2       -0.00005   0.00000   0.00000  -0.00011  -0.00001
 136       16D-2        0.00000   0.00004  -0.00003   0.00000   0.00000
 137       17D 0       -0.00003   0.00000   0.00000   0.00001   0.00000
 138       17D+1        0.00000   0.00000   0.00002   0.00000   0.00000
 139       17D-1        0.00003   0.00000   0.00000   0.00006  -0.00001
 140       17D+2       -0.00001   0.00000   0.00000  -0.00003   0.00002
 141       17D-2        0.00000   0.00000   0.00002   0.00000   0.00000
 142       18F 0        0.00000   0.00000   0.00000   0.00000   0.00000
 143       18F+1        0.00000   0.00000   0.00000   0.00000   0.00000
 144       18F-1        0.00000   0.00000   0.00000   0.00000   0.00000
 145       18F+2       -0.00001   0.00000   0.00000  -0.00001   0.00000
 146       18F-2        0.00000  -0.00001   0.00000   0.00000   0.00000
 147       18F+3        0.00000   0.00000   0.00000   0.00000   0.00000
 148       18F-3       -0.00001   0.00000   0.00000  -0.00001   0.00000
 149       19F 0       -0.00001   0.00000   0.00000  -0.00002   0.00000
 150       19F+1        0.00000   0.00001   0.00000   0.00000   0.00000
 151       19F-1        0.00002   0.00000   0.00000   0.00001   0.00000
 152       19F+2       -0.00002   0.00000   0.00000  -0.00003   0.00000
 153       19F-2        0.00000   0.00002  -0.00001   0.00000   0.00000
 154       19F+3        0.00000  -0.00002   0.00001   0.00000   0.00000
 155       19F-3        0.00000   0.00000   0.00000  -0.00002   0.00000
 156 4   Br 1S          0.05203   0.00000   0.00000   0.00623  -0.22852
 157        2S         -0.16280   0.00000   0.00000  -0.02087   0.74121
 158        3S         -0.01491   0.00000   0.00000   0.00668   0.03171
 159        4S          0.00014   0.00000   0.00000  -0.00008  -0.00021
 160        5S         -0.00044   0.00000   0.00000   0.00022   0.00075
 161        6S         -0.00076   0.00000   0.00000   0.00077   0.00004
 162        7S         -0.00008   0.00000   0.00000   0.00028   0.00003
 163        8PX         0.00000   0.67185   0.75200   0.00000   0.00000
 164        8PY         0.48803   0.00000   0.00000  -0.57550   0.13964
 165        8PZ        -0.48706   0.00000   0.00000   0.39949  -0.08571
 166        9PX         0.00000  -0.01489  -0.01744   0.00000   0.00000
 167        9PY         0.00491   0.00000   0.00000  -0.00887  -0.00262
 168        9PZ         0.00002   0.00000   0.00000   0.00574   0.00158
 169       10PX         0.00000   0.00027   0.00030   0.00000   0.00000
 170       10PY         0.00027   0.00000   0.00000  -0.00035   0.00007
 171       10PZ        -0.00029   0.00000   0.00000   0.00022  -0.00005
 172       11PX         0.00000  -0.00114  -0.00131   0.00000   0.00000
 173       11PY        -0.00023   0.00000   0.00000   0.00017  -0.00023
 174       11PZ         0.00043   0.00000   0.00000  -0.00012   0.00014
 175       12PX         0.00000  -0.00007  -0.00014   0.00000   0.00000
 176       12PY         0.00023   0.00000   0.00000  -0.00025  -0.00005
 177       12PZ        -0.00008   0.00000   0.00000   0.00023   0.00003
 178       13PX         0.00000   0.00001   0.00003   0.00000   0.00000
 179       13PY         0.00000   0.00000   0.00000  -0.00004   0.00000
 180       13PZ        -0.00001   0.00000   0.00000   0.00001   0.00000
 181       14D 0       -0.00007   0.00000   0.00000  -0.00001  -0.00003
 182       14D+1        0.00000   0.00003   0.00003   0.00000   0.00000
 183       14D-1       -0.00022   0.00000   0.00000  -0.00008  -0.00001
 184       14D+2       -0.00024   0.00000   0.00000  -0.00003   0.00006
 185       14D-2        0.00000   0.00001   0.00001   0.00000   0.00000
 186       15D 0        0.00000   0.00000   0.00000   0.00000   0.00000
[...]
 169       10PX         0.00000   0.00000   0.00000   0.00000  -0.10299
 170       10PY         0.25610  -0.45450  -0.01308   0.15148   0.00000
 171       10PZ        -0.16044   0.16793  -0.10422   0.04161   0.00000
 172       11PX         0.00000   0.00000   0.00000   0.00000   0.03574
 173       11PY         0.01581   0.00139   0.05283  -0.00079   0.00000
 174       11PZ        -0.01010   0.00006  -0.01216  -0.01862   0.00000
 175       12PX         0.00000   0.00000   0.00000   0.00000   0.37490
 176       12PY         8.06524  -5.07622   2.71008  -5.77897   0.00000
 177       12PZ        -3.28577   5.87052  -1.64082   2.55242   0.00000
 178       13PX         0.00000   0.00000   0.00000   0.00000  -2.11273
 179       13PY        -0.50157  -1.10194   1.97655  -3.31647   0.00000
 180       13PZ        -1.69408   0.66963   0.25966   1.14691   0.00000
 181       14D 0        0.00297  -0.00127  -0.00423  -0.00022   0.00000
 182       14D+1        0.00000   0.00000   0.00000   0.00000   0.00095
 183       14D-1        0.00386   0.00105   0.00015   0.00004   0.00000
 184       14D+2        0.00424  -0.00125   0.00248   0.00372   0.00000
 185       14D-2        0.00000   0.00000   0.00000   0.00000  -0.00123
 186       15D 0       -0.03703   0.02310   0.04879   0.00243   0.00000
 187       15D+1        0.00000   0.00000   0.00000   0.00000  -0.01470
 188       15D-1       -0.05355   0.00215  -0.01473   0.01220   0.00000
 189       15D+2       -0.05222   0.02652  -0.03365  -0.03355   0.00000
 190       15D-2        0.00000   0.00000   0.00000   0.00000   0.02431
 191       16D 0        0.23743  -0.16942  -0.24697  -0.02102   0.00000
 192       16D+1        0.00000   0.00000   0.00000   0.00000   0.07115
 193       16D-1        0.45586  -0.36813   0.28513  -0.14177   0.00000
 194       16D+2        0.42839  -0.40270   0.27061   0.09804   0.00000
 195       16D-2        0.00000   0.00000   0.00000   0.00000  -0.12725
 196       17D 0        0.59709   0.81692   0.30159  -0.47308   0.00000
 197       17D+1        0.00000   0.00000   0.00000   0.00000  -0.16163
 198       17D-1        0.99491  -1.71833  -0.04370  -1.42663   0.00000
 199       17D+2        0.79199  -0.46477  -0.05785  -2.00929   0.00000
 200       17D-2        0.00000   0.00000   0.00000   0.00000   0.15437
 201       18F 0       -0.03682  -0.00317   0.02715  -0.00383   0.00000
 202       18F+1        0.00000   0.00000   0.00000   0.00000  -0.01548
 203       18F-1        0.00425  -0.03504   0.00107   0.01244   0.00000
 204       18F+2       -0.00889  -0.01231   0.00058   0.03856   0.00000
 205       18F-2        0.00000   0.00000   0.00000   0.00000   0.00458
 206       18F+3        0.00000   0.00000   0.00000   0.00000   0.04310
 207       18F-3       -0.02228  -0.01540  -0.01329  -0.03400   0.00000
 208       19F 0        0.20232  -0.08806  -0.07260  -0.06669   0.00000
 209       19F+1        0.00000   0.00000   0.00000   0.00000   0.02392
 210       19F-1       -0.02506   0.03127   0.05136  -0.03826   0.00000
 211       19F+2        0.13822  -0.11008   0.01999  -0.19987   0.00000
 212       19F-2        0.00000   0.00000   0.00000   0.00000  -0.01373
 213       19F+3        0.00000   0.00000   0.00000   0.00000  -0.10215
 214       19F-3       -0.00175   0.08964   0.01907   0.17993   0.00000
                         211       212       213       214
     Eigenvalues --     0.00000   0.00000   0.00000   0.00000
   1 1   C  1S         -0.12877  -0.00250   0.02625  -0.01962
   2        2S         -0.61343  -0.01190   0.10488  -0.05944
   3        3S          0.09095   0.00149  -0.06568   0.10984
   4        4S          3.19042   0.16682  -3.57454   1.01671
   5        5S         21.33839   0.30962   2.59803  26.02970
   6        6PX         0.00000   0.00000   0.00000   0.00000
   7        6PY        -0.00001  -0.01517  -0.00014  -0.00025
   8        6PZ        -0.00616  -0.00001  -0.02081   0.01785
   9        7PX         0.00000   0.00000   0.00000   0.00000
  10        7PY         0.00099   0.02531  -0.00033   0.00168
  11        7PZ         0.10625   0.00104   0.01340  -0.17216
  12        8PX         0.00000   0.00000   0.00000   0.00000
  13        8PY         0.10059  -5.90477  -0.04989  -0.01733
  14        8PZ         3.68336   0.06086  -5.09241   0.26567
  15        9PX         0.00000   0.00000   0.00000   0.00000
  16        9PY         0.26518 -19.74886  -0.11373  -0.08880
  17        9PZ         8.47294   0.16600 -12.89896  -0.38566
  18       10D 0        0.00937  -0.00007   0.00959   0.01168
  19       10D+1        0.00000   0.00000   0.00000   0.00000
  20       10D-1        0.00045  -0.01286  -0.00007   0.00005
  21       10D+2       -0.03246  -0.00016   0.01077  -0.03147
  22       10D-2        0.00000   0.00000   0.00000   0.00000
  23       11D 0        0.21209   0.00617  -0.03090  -0.30869
  24       11D+1        0.00000   0.00000   0.00000   0.00000
  25       11D-1       -0.00696   0.25117   0.00076  -0.00168
  26       11D+2        0.15855   0.00007  -0.05608   0.18525
  27       11D-2        0.00000   0.00000   0.00000   0.00000
  28       12D 0        2.89161   0.05918  -0.67051  -0.47207
  29       12D+1        0.00000   0.00000   0.00000   0.00000
  30       12D-1       -0.07154   2.19131   0.00151  -0.01087
  31       12D+2       -0.07764   0.01271  -0.51369  -0.65672
  32       12D-2        0.00000   0.00000   0.00000   0.00000
  33       13F 0       -0.01015   0.00005  -0.01056  -0.02725
  34       13F+1        0.00000   0.00000   0.00000   0.00000
  35       13F-1       -0.00013  -0.00446  -0.00002   0.00000
  36       13F+2       -0.00498   0.00009   0.00719  -0.00782
  37       13F-2        0.00000   0.00000   0.00000   0.00000
  38       13F+3        0.00000   0.00000   0.00000   0.00000
  39       13F-3       -0.00034   0.00859   0.00022   0.00019
  40       14F 0        0.04450   0.00155   0.06833  -0.14004
  41       14F+1        0.00000   0.00000   0.00000   0.00000
  42       14F-1        0.00317  -0.01882  -0.00064   0.00058
  43       14F+2       -0.06823   0.00005  -0.03349  -0.09900
  44       14F-2        0.00000   0.00000   0.00000   0.00000
  45       14F+3        0.00000   0.00000   0.00000   0.00000
  46       14F-3        0.00063  -0.01556  -0.00060  -0.00036
  47 2   S  1S          0.00677   0.00008   0.00249   0.00186
  48        2S          0.11945   0.00110   0.09624   0.01743
  49        3S          0.31496   0.00350   0.16211   0.06901
  50        4S         -0.02982   0.00095  -0.18180  -0.01039
  51        5S         -6.85883  -0.13049   1.48624   1.62574
  52        6S        -11.40225  -0.24578  20.41277 -12.69239
  53        7PX         0.00000   0.00000   0.00000   0.00000
  54        7PY        -0.00023   0.00823   0.00004   0.00002
  55        7PZ         0.01647   0.00025   0.03032  -0.03696
  56        8PX         0.00000   0.00000   0.00000   0.00000
  57        8PY        -0.00339   0.08419   0.00078   0.00025
  58        8PZ         0.50324   0.00913   0.44547  -0.76335
  59        9PX         0.00000   0.00000   0.00000   0.00000
  60        9PY         0.00071  -0.02711  -0.00013  -0.00009
  61        9PZ        -0.03957  -0.00041  -0.10483   0.11276
  62       10PX         0.00000   0.00000   0.00000   0.00000
  63       10PY         0.03196  -0.49770   0.00545   0.00867
  64       10PZ         2.71151   0.07820  -5.98894   2.16080
  65       11PX         0.00000   0.00000   0.00000   0.00000
  66       11PY        -0.06409   5.07329   0.02410   0.01989
  67       11PZ        -1.32347  -0.01562  -2.03145   4.21682
  68       12D 0       -0.61622  -0.01315   0.22516   0.34647
  69       12D+1        0.00000   0.00000   0.00000   0.00000
  70       12D-1       -0.00153   0.13394  -0.00104  -0.00092
  71       12D+2        0.20268   0.00167   0.01339   0.07806
  72       12D-2        0.00000   0.00000   0.00000   0.00000
  73       13D 0        0.10582   0.00179  -0.03520  -0.00996
  74       13D+1        0.00000   0.00000   0.00000   0.00000
  75       13D-1        0.00055  -0.03591   0.00007   0.00015
  76       13D+2       -0.05399  -0.00049   0.00228  -0.01745
  77       13D-2        0.00000   0.00000   0.00000   0.00000
  78       14D 0        1.20966   0.00825   1.69499  -1.20705
  79       14D+1        0.00000   0.00000   0.00000   0.00000
  80       14D-1       -0.00695  -0.26304  -0.00292  -0.00293
  81       14D+2       -0.53240  -0.00785  -0.02432   0.00220
  82       14D-2        0.00000   0.00000   0.00000   0.00000
  83       15F 0        0.03861   0.00026   0.06674  -0.05862
  84       15F+1        0.00000   0.00000   0.00000   0.00000
  85       15F-1        0.00028  -0.01244  -0.00016   0.00011
  86       15F+2       -0.01504  -0.00036  -0.01017   0.01466
  87       15F-2        0.00000   0.00000   0.00000   0.00000
  88       15F+3        0.00000   0.00000   0.00000   0.00000
  89       15F-3        0.00050  -0.03776  -0.00007  -0.00013
  90       16F 0       -0.15655   0.00034  -0.29837   0.08222
  91       16F+1        0.00000   0.00000   0.00000   0.00000
  92       16F-1       -0.00033   0.03229   0.00097   0.00012
  93       16F+2        0.06762   0.00180   0.01639  -0.07496
  94       16F-2        0.00000   0.00000   0.00000   0.00000
  95       16F+3        0.00000   0.00000   0.00000   0.00000
  96       16F-3       -0.00139   0.10173   0.00033   0.00043
  97 3   Br 1S          0.00026  -0.00013  -0.00022   0.00022
  98        2S          0.00234   0.00225   0.00042   0.00084
  99        3S          0.00995   0.00257  -0.00315   0.00595
 100        4S          0.03114   0.03806   0.00771   0.01002
 101        5S          0.00647   0.11556   0.04169  -0.02841
 102        6S          0.35477  -1.96403  -0.43636   0.07155
 103        7S         -4.36818 -21.40182 -10.46643  -7.36864
 104        8PX         0.00000   0.00000   0.00000   0.00000
 105        8PY        -0.00059  -0.00101  -0.00003  -0.00004
 106        8PZ         0.00003  -0.00062  -0.00025  -0.00011
 107        9PX         0.00000   0.00000   0.00000   0.00000
 108        9PY         0.01832   0.01691   0.00539   0.01763
 109        9PZ         0.01382   0.00607   0.01228   0.01080
 110       10PX         0.00000   0.00000   0.00000   0.00000
 111       10PY         0.18476   0.14735   0.06220   0.20393
 112       10PZ         0.16167   0.03984   0.13078   0.12134
 113       11PX         0.00000   0.00000   0.00000   0.00000
 114       11PY        -0.03017  -0.02762  -0.00519  -0.02487
 115       11PZ        -0.02041  -0.01265  -0.01752  -0.01429
 116       12PX         0.00000   0.00000   0.00000   0.00000
 117       12PY        -0.91895  -4.57914  -1.72880  -0.48892
 118       12PZ        -0.15865  -2.68109  -1.58472  -0.63476
 119       13PX         0.00000   0.00000   0.00000   0.00000
 120       13PY        -0.79905  -1.75174  -2.99628  -2.38085
 121       13PZ        -3.03431  -3.46923   0.30935  -1.44686
 122       14D 0        0.00101   0.00012  -0.00146  -0.00059
 123       14D+1        0.00000   0.00000   0.00000   0.00000
 124       14D-1        0.00207   0.00080   0.00087   0.00156
 125       14D+2       -0.00020   0.00099  -0.00071  -0.00070
 126       14D-2        0.00000   0.00000   0.00000   0.00000
 127       15D 0       -0.01224  -0.00361   0.01519   0.01013
 128       15D+1        0.00000   0.00000   0.00000   0.00000
 129       15D-1       -0.02827   0.00613  -0.00808  -0.02317
 130       15D+2       -0.00029  -0.02144   0.00674   0.01255
 131       15D-2        0.00000   0.00000   0.00000   0.00000
 132       16D 0        0.06224   0.01904  -0.05227  -0.06689
 133       16D+1        0.00000   0.00000   0.00000   0.00000
 134       16D-1        0.17603  -0.14881   0.02917   0.19808
 135       16D+2       -0.01448   0.16849  -0.02145  -0.12807
 136       16D-2        0.00000   0.00000   0.00000   0.00000
 137       17D 0       -0.20980   0.17083   0.05778   0.04562
 138       17D+1        0.00000   0.00000   0.00000   0.00000
 139       17D-1       -0.28720  -1.12360  -0.74027  -0.40934
 140       17D+2        0.27671   0.79163   0.48728   0.12102
 141       17D-2        0.00000   0.00000   0.00000   0.00000
 142       18F 0        0.00312  -0.02806   0.00922   0.00230
 143       18F+1        0.00000   0.00000   0.00000   0.00000
 144       18F-1       -0.00030   0.01011   0.00429   0.00261
 145       18F+2        0.01850  -0.01465  -0.01472   0.00298
 146       18F-2        0.00000   0.00000   0.00000   0.00000
 147       18F+3        0.00000   0.00000   0.00000   0.00000
 148       18F-3       -0.02788  -0.02990  -0.00547   0.00464
 149       19F 0       -0.05491   0.12728  -0.00318  -0.02812
 150       19F+1        0.00000   0.00000   0.00000   0.00000
 151       19F-1       -0.00104  -0.05031  -0.02191  -0.00418
 152       19F+2       -0.05775   0.12352   0.06962  -0.04064
 153       19F-2        0.00000   0.00000   0.00000   0.00000
 154       19F+3        0.00000   0.00000   0.00000   0.00000
 155       19F-3        0.06736   0.12297   0.02705  -0.03368
 156 4   Br 1S          0.00025   0.00017  -0.00022   0.00024
 157        2S          0.00243  -0.00203   0.00039   0.00090
 158        3S          0.01011  -0.00136  -0.00316   0.00638
 159        4S          0.03266  -0.03494   0.00715   0.01077
 160        5S          0.01123  -0.11428   0.03995  -0.02882
 161        6S          0.23314   1.90543  -0.41308   0.04122
 162        7S         -4.94851  21.32411 -10.08013  -7.10225
 163        8PX         0.00000   0.00000   0.00000   0.00000
 164        8PY         0.00060  -0.00099   0.00001   0.00004
 165        8PZ         0.00002   0.00061  -0.00025  -0.00012
 166        9PX         0.00000   0.00000   0.00000   0.00000
 167        9PY        -0.01810   0.01712  -0.00503  -0.01709
 168        9PZ         0.01357  -0.00621   0.01218   0.01045
 169       10PX         0.00000   0.00000   0.00000   0.00000
 170       10PY        -0.18152   0.15111  -0.05875  -0.19742
 171       10PZ         0.15800  -0.04195   0.12957   0.11683
 172       11PX         0.00000   0.00000   0.00000   0.00000
 173       11PY         0.02988  -0.02752   0.00463   0.02446
 174       11PZ        -0.02023   0.01255  -0.01748  -0.01411
 175       12PX         0.00000   0.00000   0.00000   0.00000
 176       12PY         1.07957  -4.54069   1.65506   0.47053
 177       12PZ        -0.23949   2.66784  -1.52967  -0.60989
 178       13PX         0.00000   0.00000   0.00000   0.00000
 179       13PY         0.85408  -1.81164   2.94633   2.34828
 180       13PZ        -3.10660   3.38593   0.36118  -1.39548
 181       14D 0        0.00100  -0.00007  -0.00147  -0.00059
 182       14D+1        0.00000   0.00000   0.00000   0.00000
 183       14D-1       -0.00212   0.00082  -0.00085  -0.00156
 184       14D+2       -0.00019  -0.00096  -0.00072  -0.00072
 185       14D-2        0.00000   0.00000   0.00000   0.00000
 186       15D 0       -0.01242   0.00302   0.01532   0.01017
 187       15D+1        0.00000   0.00000   0.00000   0.00000
 188       15D-1        0.02823   0.00594   0.00807   0.02331
 189       15D+2       -0.00073   0.02104   0.00695   0.01289
 190       15D-2        0.00000   0.00000   0.00000   0.00000
 191       16D 0        0.06466  -0.01629  -0.05279  -0.06724
 192       16D+1        0.00000   0.00000   0.00000   0.00000
 193       16D-1       -0.16942  -0.14462  -0.03048  -0.19645
 194       16D+2       -0.00740  -0.16415  -0.02281  -0.12824
 195       16D-2        0.00000   0.00000   0.00000   0.00000
 196       17D 0       -0.19429  -0.17940   0.06100   0.05148
 197       17D+1        0.00000   0.00000   0.00000   0.00000
 198       17D-1        0.32128  -1.12440   0.71753   0.39858
 199       17D+2        0.30396  -0.79072   0.47068   0.11638
 200       17D-2        0.00000   0.00000   0.00000   0.00000
 201       18F 0        0.00223   0.02810   0.00934   0.00236
 202       18F+1        0.00000   0.00000   0.00000   0.00000
 203       18F-1        0.00040   0.00974  -0.00428  -0.00228
 204       18F+2        0.01877   0.01531  -0.01438   0.00355
 205       18F-2        0.00000   0.00000   0.00000   0.00000
 206       18F+3        0.00000   0.00000   0.00000   0.00000
 207       18F-3        0.02812  -0.02928   0.00474  -0.00536
 208       19F 0       -0.04916  -0.12781  -0.00407  -0.02809
 209       19F+1        0.00000   0.00000   0.00000   0.00000
 210       19F-1        0.00082  -0.04860   0.02115   0.00332
 211       19F+2       -0.05437  -0.12454   0.06752  -0.04207
 212       19F-2        0.00000   0.00000   0.00000   0.00000
 213       19F+3        0.00000   0.00000   0.00000   0.00000
 214       19F-3       -0.07051   0.12122  -0.02466   0.03557
          Condensed to atoms (all electrons):
              1          2          3          4
     1  C    6.366743  -0.029260  -0.093560  -0.085389
     2  S   -0.029260  16.444213  -0.187295  -0.185592
     3  Br  -0.093560  -0.187295  35.310106  -0.134428
     4  Br  -0.085389  -0.185592  -0.134428  35.309986
 Mulliken atomic charges:
              1
     1  C   -0.158534
     2  S   -0.042067
     3  Br   0.105177
     4  Br   0.095424
 Sum of Mulliken atomic charges =   0.00000
 Mulliken charges with hydrogens summed into heavy atoms:
              1
     1  C   -0.158534
     2  S   -0.042067
     3  Br   0.105177
     4  Br   0.095424
 Sum of Mulliken charges with hydrogens summed into heavy atoms =   0.00000
 Electronic spatial extent (au):  <R**2>=           1435.5933
 Charge=              0.0000 electrons
 Dipole moment (field-independent basis, Debye):
    X=              0.0000    Y=             -0.0288    Z=             -0.4535  Tot=              0.4544
 Quadrupole moment (field-independent basis, Debye-Ang):
   XX=            -54.9711   YY=            -53.8129   ZZ=            -53.7930
   XY=              0.0000   XZ=              0.0000   YZ=              0.0491
 Traceless Quadrupole moment (field-independent basis, Debye-Ang):
   XX=             -0.7787   YY=              0.3794   ZZ=              0.3993
   XY=              0.0000   XZ=              0.0000   YZ=              0.0491
 Octapole moment (field-independent basis, Debye-Ang**2):
  XXX=              0.0000  YYY=             -0.6277  ZZZ=            141.3968  XYY=              0.0000
  XXY=             -0.2244  XXZ=             47.8146  XZZ=              0.0000  YZZ=             -0.2983
  YYZ=             35.3424  XYZ=              0.0000
 Hexadecapole moment (field-independent basis, Debye-Ang**3):
 XXXX=            -67.2888 YYYY=           -575.4007 ZZZZ=           -700.7553 XXXY=              0.0000
 XXXZ=              0.0000 YYYX=              0.0000 YYYZ=              0.9282 ZZZX=              0.0000
 ZZZY=              1.1704 XXYY=           -114.1513 XXZZ=           -130.5404 YYZZ=           -195.4672
 XXYZ=              0.3541 YYXZ=              0.0000 ZZXY=              0.0000
 N-N= 5.464999425270D+02 E-N=-1.443418618085D+04  KE= 5.579831851359D+03
 1\1\GINC-TRAPISTA\SP\RQCISD-FC\Aug-CC-pVTZ\C1Br2S1\BRUNS\29-Nov-2021\0
 \\# qcisd/aug-cc-pvtz nosymm density=current output=wfn\\br2cs-wavefun
 ction\\0,1\C,0,0.,0.,-0.519451\S,0,0.,0.,1.083692\Br,0,0.,-1.568516,-1
 .57857\Br,0,0.,1.578516,-1.57857\\Version=EM64L-G09RevB.01\HF=-5580.30
 86262\MP2=-5581.11872\MP3=-5581.1309067\MP4D=-5581.1549345\MP4DQ=-5581
 .1314325\MP4SDQ=-5581.1411327\QCISD=-5581.1375621\RMSD=3.174e-09\Dipol
 e=0.,-0.0113395,-0.1784174\Quadrupole=-0.5789558,0.2820794,0.2968764,0
 .,0.,0.0365308\PG=CS [SG(C1Br2S1)]\\@

 Writing a WFN file to GAUSSIAN.wfn.


 In the beginning the Universe was created.
 This has made a lot of people very angry
 and been widely regarded as a bad move.
                               -D.Adams
 Job cpu time:  0 days  5 hours 54 minutes 13.3 seconds.
 File lengths (MBytes):  RWF=  25271 Int=      0 D2E=      0 Chk=      4 Scr=      1
 Normal termination of Gaussian 09 at Mon Nov 29 17:27:41 2021.
