 br2cs-wavefunction
GAUSSIAN            214 MOL ORBITALS    620 PRIMITIVES        4 NUCLEI
  C    1    (CENTRE  1)   0.00000000  0.00000000 -0.98162013  CHARGE =  6.0
  S    2    (CENTRE  2)   0.00000000  0.00000000  2.04788109  CHARGE = 16.0
  Br   3    (CENTRE  3)   0.00000000 -2.98296294 -2.98306498  CHARGE = 35.0
  Br   4    (CENTRE  4)   0.00000000  2.96406568 -2.98306498  CHARGE = 35.0
CENTRE ASSIGNMENTS    1  1  1  1  1  1  1  1  1  1  1  1  1  1  1  1  1  1  1  1
CENTRE ASSIGNMENTS    1  1  1  1  1  1  1  1  1  1  1  1  1  1  1  1  1  1  1  1
CENTRE ASSIGNMENTS    1  1  1  1  1  1  1  1  1  1  1  1  1  1  1  1  1  1  1  1
CENTRE ASSIGNMENTS    1  1  1  1  1  1  1  1  1  1  1  1  2  2  2  2  2  2  2  2
CENTRE ASSIGNMENTS    2  2  2  2  2  2  2  2  2  2  2  2  2  2  2  2  2  2  2  2
CENTRE ASSIGNMENTS    2  2  2  2  2  2  2  2  2  2  2  2  2  2  2  2  2  2  2  2
CENTRE ASSIGNMENTS    2  2  2  2  2  2  2  2  2  2  2  2  2  2  2  2  2  2  2  2
CENTRE ASSIGNMENTS    2  2  2  2  2  2  2  2  2  2  2  2  2  2  2  2  2  2  2  2
CENTRE ASSIGNMENTS    2  2  2  2  2  2  2  2  2  2  2  2  2  2  2  2  2  2  2  2
CENTRE ASSIGNMENTS    2  2  2  2  2  2  3  3  3  3  3  3  3  3  3  3  3  3  3  3
CENTRE ASSIGNMENTS    3  3  3  3  3  3  3  3  3  3  3  3  3  3  3  3  3  3  3  3
CENTRE ASSIGNMENTS    3  3  3  3  3  3  3  3  3  3  3  3  3  3  3  3  3  3  3  3
CENTRE ASSIGNMENTS    3  3  3  3  3  3  3  3  3  3  3  3  3  3  3  3  3  3  3  3
CENTRE ASSIGNMENTS    3  3  3  3  3  3  3  3  3  3  3  3  3  3  3  3  3  3  3  3
CENTRE ASSIGNMENTS    3  3  3  3  3  3  3  3  3  3  3  3  3  3  3  3  3  3  3  3
CENTRE ASSIGNMENTS    3  3  3  3  3  3  3  3  3  3  3  3  3  3  3  3  3  3  3  3
CENTRE ASSIGNMENTS    3  3  3  3  3  3  3  3  3  3  3  3  3  3  3  3  3  3  3  3
CENTRE ASSIGNMENTS    3  3  3  3  3  3  3  3  3  3  3  3  3  3  3  3  3  3  3  3
CENTRE ASSIGNMENTS    3  3  3  3  3  3  3  3  3  3  3  3  3  3  3  3  3  3  3  3
CENTRE ASSIGNMENTS    3  3  3  3  3  3  3  3  3  3  3  3  3  3  3  3  3  3  3  3
CENTRE ASSIGNMENTS    3  3  3  4  4  4  4  4  4  4  4  4  4  4  4  4  4  4  4  4
CENTRE ASSIGNMENTS    4  4  4  4  4  4  4  4  4  4  4  4  4  4  4  4  4  4  4  4
CENTRE ASSIGNMENTS    4  4  4  4  4  4  4  4  4  4  4  4  4  4  4  4  4  4  4  4
CENTRE ASSIGNMENTS    4  4  4  4  4  4  4  4  4  4  4  4  4  4  4  4  4  4  4  4
CENTRE ASSIGNMENTS    4  4  4  4  4  4  4  4  4  4  4  4  4  4  4  4  4  4  4  4
CENTRE ASSIGNMENTS    4  4  4  4  4  4  4  4  4  4  4  4  4  4  4  4  4  4  4  4
CENTRE ASSIGNMENTS    4  4  4  4  4  4  4  4  4  4  4  4  4  4  4  4  4  4  4  4
CENTRE ASSIGNMENTS    4  4  4  4  4  4  4  4  4  4  4  4  4  4  4  4  4  4  4  4
CENTRE ASSIGNMENTS    4  4  4  4  4  4  4  4  4  4  4  4  4  4  4  4  4  4  4  4
CENTRE ASSIGNMENTS    4  4  4  4  4  4  4  4  4  4  4  4  4  4  4  4  4  4  4  4
CENTRE ASSIGNMENTS    4  4  4  4  4  4  4  4  4  4  4  4  4  4  4  4  4  4  4  4
TYPE ASSIGNMENTS      1  1  1  1  1  1  1  1  1  1  1  1  1  1  1  1  2  2  2  3
TYPE ASSIGNMENTS      3  3  4  4  4  2  3  4  2  3  4  2  3  4  5  6  7  8  9 10
TYPE ASSIGNMENTS      5  6  7  8  9 10  5  6  7  8  9 10 11 12 13 17 14 15 18 19
TYPE ASSIGNMENTS     16 20 11 12 13 17 14 15 18 19 16 20  1  1  1  1  1  1  1  1
TYPE ASSIGNMENTS      1  1  1  1  1  1  1  1  1  1  1  1  1  1  1  1  1  1  1  1
TYPE ASSIGNMENTS      1  1  1  2  2  2  2  2  2  3  3  3  3  3  3  4  4  4  4  4
TYPE ASSIGNMENTS      4  2  2  2  2  2  2  3  3  3  3  3  3  4  4  4  4  4  4  2
TYPE ASSIGNMENTS      3  4  2  3  4  2  3  4  5  6  7  8  9 10  5  6  7  8  9 10
TYPE ASSIGNMENTS      5  6  7  8  9 10 11 12 13 17 14 15 18 19 16 20 11 12 13 17
TYPE ASSIGNMENTS     14 15 18 19 16 20  1  1  1  1  1  1  1  1  1  1  1  1  1  1
TYPE ASSIGNMENTS      1  1  1  1  1  1  1  1  1  1  1  1  1  1  1  1  1  1  1  1
TYPE ASSIGNMENTS      1  1  1  1  1  1  1  1  1  1  1  1  1  1  1  1  2  2  2  2
TYPE ASSIGNMENTS      2  2  2  2  2  3  3  3  3  3  3  3  3  3  4  4  4  4  4  4
TYPE ASSIGNMENTS      4  4  4  2  2  2  2  2  2  2  2  2  3  3  3  3  3  3  3  3
TYPE ASSIGNMENTS      3  4  4  4  4  4  4  4  4  4  2  2  2  2  2  2  2  2  3  3
TYPE ASSIGNMENTS      3  3  3  3  3  3  4  4  4  4  4  4  4  4  2  3  4  2  3  4
TYPE ASSIGNMENTS      2  3  4  5  5  5  5  5  5  5  6  6  6  6  6  6  6  7  7  7
TYPE ASSIGNMENTS      7  7  7  7  8  8  8  8  8  8  8  9  9  9  9  9  9  9 10 10
TYPE ASSIGNMENTS     10 10 10 10 10  5  6  7  8  9 10  5  6  7  8  9 10  5  6  7
TYPE ASSIGNMENTS      8  9 10 11 12 13 17 14 15 18 19 16 20 11 12 13 17 14 15 18
TYPE ASSIGNMENTS     19 16 20  1  1  1  1  1  1  1  1  1  1  1  1  1  1  1  1  1
TYPE ASSIGNMENTS      1  1  1  1  1  1  1  1  1  1  1  1  1  1  1  1  1  1  1  1
TYPE ASSIGNMENTS      1  1  1  1  1  1  1  1  1  1  1  1  1  2  2  2  2  2  2  2
TYPE ASSIGNMENTS      2  2  3  3  3  3  3  3  3  3  3  4  4  4  4  4  4  4  4  4
TYPE ASSIGNMENTS      2  2  2  2  2  2  2  2  2  3  3  3  3  3  3  3  3  3  4  4
TYPE ASSIGNMENTS      4  4  4  4  4  4  4  2  2  2  2  2  2  2  2  3  3  3  3  3
TYPE ASSIGNMENTS      3  3  3  4  4  4  4  4  4  4  4  2  3  4  2  3  4  2  3  4
TYPE ASSIGNMENTS      5  5  5  5  5  5  5  6  6  6  6  6  6  6  7  7  7  7  7  7
TYPE ASSIGNMENTS      7  8  8  8  8  8  8  8  9  9  9  9  9  9  9 10 10 10 10 10
TYPE ASSIGNMENTS     10 10  5  6  7  8  9 10  5  6  7  8  9 10  5  6  7  8  9 10
TYPE ASSIGNMENTS     11 12 13 17 14 15 18 19 16 20 11 12 13 17 14 15 18 19 16 20
EXPONENTS  0.8236000D+04 0.1235000D+04 0.2808000D+03 0.7927000D+02 0.2559000D+02
EXPONENTS  0.8997000D+01 0.3319000D+01 0.2808000D+03 0.7927000D+02 0.2559000D+02
EXPONENTS  0.8997000D+01 0.3319000D+01 0.3643000D+00 0.9059000D+00 0.1285000D+00
EXPONENTS  0.4402000D-01 0.1871000D+02 0.4133000D+01 0.1200000D+01 0.1871000D+02
EXPONENTS  0.4133000D+01 0.1200000D+01 0.1871000D+02 0.4133000D+01 0.1200000D+01
EXPONENTS  0.3827000D+00 0.3827000D+00 0.3827000D+00 0.1209000D+00 0.1209000D+00
EXPONENTS  0.1209000D+00 0.3569000D-01 0.3569000D-01 0.3569000D-01 0.1097000D+01
EXPONENTS  0.1097000D+01 0.1097000D+01 0.1097000D+01 0.1097000D+01 0.1097000D+01
EXPONENTS  0.3180000D+00 0.3180000D+00 0.3180000D+00 0.3180000D+00 0.3180000D+00
EXPONENTS  0.3180000D+00 0.1000000D+00 0.1000000D+00 0.1000000D+00 0.1000000D+00
EXPONENTS  0.1000000D+00 0.1000000D+00 0.7610000D+00 0.7610000D+00 0.7610000D+00
EXPONENTS  0.7610000D+00 0.7610000D+00 0.7610000D+00 0.7610000D+00 0.7610000D+00
EXPONENTS  0.7610000D+00 0.7610000D+00 0.2680000D+00 0.2680000D+00 0.2680000D+00
EXPONENTS  0.2680000D+00 0.2680000D+00 0.2680000D+00 0.2680000D+00 0.2680000D+00
EXPONENTS  0.2680000D+00 0.2680000D+00 0.3741000D+06 0.5605000D+05 0.1276000D+05
EXPONENTS  0.3615000D+04 0.1183000D+04 0.4288000D+03 0.1678000D+03 0.6947000D+02
EXPONENTS  0.2984000D+02 0.1272000D+02 0.5244000D+01 0.3615000D+04 0.1183000D+04
EXPONENTS  0.4288000D+03 0.1678000D+03 0.6947000D+02 0.2984000D+02 0.1272000D+02
EXPONENTS  0.5244000D+01 0.2219000D+01 0.1183000D+04 0.1678000D+03 0.6947000D+02
EXPONENTS  0.2984000D+02 0.1272000D+02 0.5244000D+01 0.2219000D+01 0.3490000D+00
EXPONENTS  0.7767000D+00 0.1322000D+00 0.4970000D-01 0.5744000D+03 0.1358000D+03
EXPONENTS  0.4319000D+02 0.1587000D+02 0.6208000D+01 0.2483000D+01 0.5744000D+03
EXPONENTS  0.1358000D+03 0.4319000D+02 0.1587000D+02 0.6208000D+01 0.2483000D+01
EXPONENTS  0.5744000D+03 0.1358000D+03 0.4319000D+02 0.1587000D+02 0.6208000D+01
EXPONENTS  0.2483000D+01 0.1358000D+03 0.4319000D+02 0.1587000D+02 0.6208000D+01
EXPONENTS  0.2483000D+01 0.3229000D+00 0.1358000D+03 0.4319000D+02 0.1587000D+02
EXPONENTS  0.6208000D+01 0.2483000D+01 0.3229000D+00 0.1358000D+03 0.4319000D+02
EXPONENTS  0.1587000D+02 0.6208000D+01 0.2483000D+01 0.3229000D+00 0.8688000D+00
EXPONENTS  0.8688000D+00 0.8688000D+00 0.1098000D+00 0.1098000D+00 0.1098000D+00
EXPONENTS  0.3510000D-01 0.3510000D-01 0.3510000D-01 0.2690000D+00 0.2690000D+00
EXPONENTS  0.2690000D+00 0.2690000D+00 0.2690000D+00 0.2690000D+00 0.8190000D+00
EXPONENTS  0.8190000D+00 0.8190000D+00 0.8190000D+00 0.8190000D+00 0.8190000D+00
EXPONENTS  0.1010000D+00 0.1010000D+00 0.1010000D+00 0.1010000D+00 0.1010000D+00
EXPONENTS  0.1010000D+00 0.5570000D+00 0.5570000D+00 0.5570000D+00 0.5570000D+00
EXPONENTS  0.5570000D+00 0.5570000D+00 0.5570000D+00 0.5570000D+00 0.5570000D+00
EXPONENTS  0.5570000D+00 0.2180000D+00 0.2180000D+00 0.2180000D+00 0.2180000D+00
EXPONENTS  0.2180000D+00 0.2180000D+00 0.2180000D+00 0.2180000D+00 0.2180000D+00
EXPONENTS  0.2180000D+00 0.1063900D+08 0.1593400D+07 0.3626100D+06 0.1027000D+06
EXPONENTS  0.3350100D+05 0.1209300D+05 0.4715900D+04 0.1955600D+04 0.8526100D+03
EXPONENTS  0.3876700D+03 0.1826800D+03 0.8824500D+02 0.3926300D+02 0.9405700D+01
EXPONENTS  0.1899500D+01 0.3350100D+05 0.1209300D+05 0.4715900D+04 0.1955600D+04
EXPONENTS  0.8526100D+03 0.3876700D+03 0.1826800D+03 0.8824500D+02 0.3926300D+02
EXPONENTS  0.1923400D+02 0.9405700D+01 0.1899500D+01 0.4715900D+04 0.8526100D+03
EXPONENTS  0.3876700D+03 0.1826800D+03 0.8824500D+02 0.3926300D+02 0.1923400D+02
EXPONENTS  0.9405700D+01 0.4160100D+01 0.1899500D+01 0.4715900D+04 0.8526100D+03
EXPONENTS  0.3876700D+03 0.8824500D+02 0.3926300D+02 0.1923400D+02 0.9405700D+01
EXPONENTS  0.4160100D+01 0.1899500D+01 0.3011400D+00 0.6047200D+00 0.1251500D+00
EXPONENTS  0.4559300D-01 0.8676500D+04 0.2055900D+04 0.6662300D+03 0.2531000D+03
EXPONENTS  0.1061200D+03 0.4724200D+02 0.2182500D+02 0.9968400D+01 0.1998200D+01
EXPONENTS  0.8676500D+04 0.2055900D+04 0.6662300D+03 0.2531000D+03 0.1061200D+03
EXPONENTS  0.4724200D+02 0.2182500D+02 0.9968400D+01 0.1998200D+01 0.8676500D+04
EXPONENTS  0.2055900D+04 0.6662300D+03 0.2531000D+03 0.1061200D+03 0.4724200D+02
EXPONENTS  0.2182500D+02 0.9968400D+01 0.1998200D+01 0.8676500D+04 0.6662300D+03
EXPONENTS  0.2531000D+03 0.1061200D+03 0.4724200D+02 0.2182500D+02 0.9968400D+01
EXPONENTS  0.4517100D+01 0.1998200D+01 0.8676500D+04 0.6662300D+03 0.2531000D+03
EXPONENTS  0.1061200D+03 0.4724200D+02 0.2182500D+02 0.9968400D+01 0.4517100D+01
EXPONENTS  0.1998200D+01 0.8676500D+04 0.6662300D+03 0.2531000D+03 0.1061200D+03
EXPONENTS  0.4724200D+02 0.2182500D+02 0.9968400D+01 0.4517100D+01 0.1998200D+01
EXPONENTS  0.6662300D+03 0.1061200D+03 0.4724200D+02 0.2182500D+02 0.9968400D+01
EXPONENTS  0.4517100D+01 0.1998200D+01 0.2814500D+00 0.6662300D+03 0.1061200D+03
EXPONENTS  0.4724200D+02 0.2182500D+02 0.9968400D+01 0.4517100D+01 0.1998200D+01
EXPONENTS  0.2814500D+00 0.6662300D+03 0.1061200D+03 0.4724200D+02 0.2182500D+02
EXPONENTS  0.9968400D+01 0.4517100D+01 0.1998200D+01 0.2814500D+00 0.7098800D+00
EXPONENTS  0.7098800D+00 0.7098800D+00 0.1020400D+00 0.1020400D+00 0.1020400D+00
EXPONENTS  0.3514200D-01 0.3514200D-01 0.3514200D-01 0.4038300D+03 0.1211700D+03
EXPONENTS  0.4634500D+02 0.1972100D+02 0.8862400D+01 0.3996200D+01 0.1763600D+01
EXPONENTS  0.4038300D+03 0.1211700D+03 0.4634500D+02 0.1972100D+02 0.8862400D+01
EXPONENTS  0.3996200D+01 0.1763600D+01 0.4038300D+03 0.1211700D+03 0.4634500D+02
EXPONENTS  0.1972100D+02 0.8862400D+01 0.3996200D+01 0.1763600D+01 0.4038300D+03
EXPONENTS  0.1211700D+03 0.4634500D+02 0.1972100D+02 0.8862400D+01 0.3996200D+01
EXPONENTS  0.1763600D+01 0.4038300D+03 0.1211700D+03 0.4634500D+02 0.1972100D+02
EXPONENTS  0.8862400D+01 0.3996200D+01 0.1763600D+01 0.4038300D+03 0.1211700D+03
EXPONENTS  0.4634500D+02 0.1972100D+02 0.8862400D+01 0.3996200D+01 0.1763600D+01
EXPONENTS  0.7061900D+00 0.7061900D+00 0.7061900D+00 0.7061900D+00 0.7061900D+00
EXPONENTS  0.7061900D+00 0.2639000D+00 0.2639000D+00 0.2639000D+00 0.2639000D+00
EXPONENTS  0.2639000D+00 0.2639000D+00 0.1047000D+00 0.1047000D+00 0.1047000D+00
EXPONENTS  0.1047000D+00 0.1047000D+00 0.1047000D+00 0.5515000D+00 0.5515000D+00
EXPONENTS  0.5515000D+00 0.5515000D+00 0.5515000D+00 0.5515000D+00 0.5515000D+00
EXPONENTS  0.5515000D+00 0.5515000D+00 0.5515000D+00 0.2580000D+00 0.2580000D+00
EXPONENTS  0.2580000D+00 0.2580000D+00 0.2580000D+00 0.2580000D+00 0.2580000D+00
EXPONENTS  0.2580000D+00 0.2580000D+00 0.2580000D+00 0.1063900D+08 0.1593400D+07
EXPONENTS  0.3626100D+06 0.1027000D+06 0.3350100D+05 0.1209300D+05 0.4715900D+04
EXPONENTS  0.1955600D+04 0.8526100D+03 0.3876700D+03 0.1826800D+03 0.8824500D+02
EXPONENTS  0.3926300D+02 0.9405700D+01 0.1899500D+01 0.3350100D+05 0.1209300D+05
EXPONENTS  0.4715900D+04 0.1955600D+04 0.8526100D+03 0.3876700D+03 0.1826800D+03
EXPONENTS  0.8824500D+02 0.3926300D+02 0.1923400D+02 0.9405700D+01 0.1899500D+01
EXPONENTS  0.4715900D+04 0.8526100D+03 0.3876700D+03 0.1826800D+03 0.8824500D+02
EXPONENTS  0.3926300D+02 0.1923400D+02 0.9405700D+01 0.4160100D+01 0.1899500D+01
EXPONENTS  0.4715900D+04 0.8526100D+03 0.3876700D+03 0.8824500D+02 0.3926300D+02
EXPONENTS  0.1923400D+02 0.9405700D+01 0.4160100D+01 0.1899500D+01 0.3011400D+00
EXPONENTS  0.6047200D+00 0.1251500D+00 0.4559300D-01 0.8676500D+04 0.2055900D+04
EXPONENTS  0.6662300D+03 0.2531000D+03 0.1061200D+03 0.4724200D+02 0.2182500D+02
EXPONENTS  0.9968400D+01 0.1998200D+01 0.8676500D+04 0.2055900D+04 0.6662300D+03
EXPONENTS  0.2531000D+03 0.1061200D+03 0.4724200D+02 0.2182500D+02 0.9968400D+01
EXPONENTS  0.1998200D+01 0.8676500D+04 0.2055900D+04 0.6662300D+03 0.2531000D+03
EXPONENTS  0.1061200D+03 0.4724200D+02 0.2182500D+02 0.9968400D+01 0.1998200D+01
EXPONENTS  0.8676500D+04 0.6662300D+03 0.2531000D+03 0.1061200D+03 0.4724200D+02
EXPONENTS  0.2182500D+02 0.9968400D+01 0.4517100D+01 0.1998200D+01 0.8676500D+04
EXPONENTS  0.6662300D+03 0.2531000D+03 0.1061200D+03 0.4724200D+02 0.2182500D+02
EXPONENTS  0.9968400D+01 0.4517100D+01 0.1998200D+01 0.8676500D+04 0.6662300D+03
EXPONENTS  0.2531000D+03 0.1061200D+03 0.4724200D+02 0.2182500D+02 0.9968400D+01
EXPONENTS  0.4517100D+01 0.1998200D+01 0.6662300D+03 0.1061200D+03 0.4724200D+02
EXPONENTS  0.2182500D+02 0.9968400D+01 0.4517100D+01 0.1998200D+01 0.2814500D+00
EXPONENTS  0.6662300D+03 0.1061200D+03 0.4724200D+02 0.2182500D+02 0.9968400D+01
EXPONENTS  0.4517100D+01 0.1998200D+01 0.2814500D+00 0.6662300D+03 0.1061200D+03
EXPONENTS  0.4724200D+02 0.2182500D+02 0.9968400D+01 0.4517100D+01 0.1998200D+01
EXPONENTS  0.2814500D+00 0.7098800D+00 0.7098800D+00 0.7098800D+00 0.1020400D+00
EXPONENTS  0.1020400D+00 0.1020400D+00 0.3514200D-01 0.3514200D-01 0.3514200D-01
EXPONENTS  0.4038300D+03 0.1211700D+03 0.4634500D+02 0.1972100D+02 0.8862400D+01
EXPONENTS  0.3996200D+01 0.1763600D+01 0.4038300D+03 0.1211700D+03 0.4634500D+02
EXPONENTS  0.1972100D+02 0.8862400D+01 0.3996200D+01 0.1763600D+01 0.4038300D+03
EXPONENTS  0.1211700D+03 0.4634500D+02 0.1972100D+02 0.8862400D+01 0.3996200D+01
EXPONENTS  0.1763600D+01 0.4038300D+03 0.1211700D+03 0.4634500D+02 0.1972100D+02
EXPONENTS  0.8862400D+01 0.3996200D+01 0.1763600D+01 0.4038300D+03 0.1211700D+03
EXPONENTS  0.4634500D+02 0.1972100D+02 0.8862400D+01 0.3996200D+01 0.1763600D+01
EXPONENTS  0.4038300D+03 0.1211700D+03 0.4634500D+02 0.1972100D+02 0.8862400D+01
EXPONENTS  0.3996200D+01 0.1763600D+01 0.7061900D+00 0.7061900D+00 0.7061900D+00
EXPONENTS  0.7061900D+00 0.7061900D+00 0.7061900D+00 0.2639000D+00 0.2639000D+00
EXPONENTS  0.2639000D+00 0.2639000D+00 0.2639000D+00 0.2639000D+00 0.1047000D+00
EXPONENTS  0.1047000D+00 0.1047000D+00 0.1047000D+00 0.1047000D+00 0.1047000D+00
EXPONENTS  0.5515000D+00 0.5515000D+00 0.5515000D+00 0.5515000D+00 0.5515000D+00
EXPONENTS  0.5515000D+00 0.5515000D+00 0.5515000D+00 0.5515000D+00 0.5515000D+00
EXPONENTS  0.2580000D+00 0.2580000D+00 0.2580000D+00 0.2580000D+00 0.2580000D+00
EXPONENTS  0.2580000D+00 0.2580000D+00 0.2580000D+00 0.2580000D+00 0.2580000D+00
MO    1     MO 0.0        OCC NO =    2.0000283  ORB. ENERGY =    0.000000
  0.23962980D-03  0.44671821D-03  0.75501464D-03  0.11349278D-02  0.13940556D-02
  0.11765337D-02  0.44240740D-03  0.38868946D-07  0.29052129D-06  0.10857444D-05
  0.30290578D-05  0.40581023D-05 -0.47918621D-05  0.19352913D-04  0.20724242D-04
  0.49783526D-05  0.83109271D-13  0.77920224D-13  0.55483841D-13 -0.26357333D-02
 -0.24711675D-02 -0.17596185D-02 -0.37169406D-04 -0.34848680D-04 -0.24814337D-04
  0.22857241D-13 -0.55488083D-03 -0.29089853D-05  0.16308144D-13  0.12830530D-02
 -0.53970094D-05 -0.18996636D-16  0.80342473D-04 -0.52143263D-06  0.50657882D-07
  0.82612214D-06 -0.87678002D-06 -0.20942594D-13  0.12952690D-14 -0.11847794D-02
 -0.38819069D-06 -0.17533163D-05  0.21415070D-05 -0.15552782D-13 -0.82438269D-14
  0.38602587D-06 -0.83393169D-07 -0.43724178D-06  0.52063495D-06 -0.53413392D-15
  0.34048804D-14 -0.31993518D-03  0.17237029D-14  0.11180916D-03  0.10867748D-06
 -0.54721383D-14  0.27454565D-03  0.31566446D-06  0.30102974D-15 -0.60997314D-03
 -0.64169689D-06 -0.25801302D-14 -0.14010079D-14 -0.67578199D-04 -0.58095381D-06
  0.31478807D-14 -0.13806248D-03  0.42121049D-06  0.10551431D-14  0.34079708D-03
  0.13216510D-05  0.35338789D-14  0.66355814D-03  0.12405888D-02  0.21441061D-02
  0.34680033D-02  0.52417709D-02  0.72190038D-02  0.84381364D-02  0.72928081D-02
  0.34035915D-02  0.46111197D-03 -0.33726393D-05  0.82536718D-05  0.10610012D-03
  0.38703799D-03  0.13058566D-02  0.28682470D-02  0.37049928D-02 -0.59542386D-03
 -0.49948985D-02 -0.27411359D-02  0.73433678D-07  0.83645524D-06  0.17367826D-05
  0.47757111D-05 -0.61922579D-06 -0.21593591D-04 -0.53857845D-04  0.44582744D-04
 -0.15034920D-03 -0.10097486D-05  0.11440444D-05 -0.12356190D-09 -0.16210619D-09
 -0.17779540D-09 -0.14628470D-09 -0.77112978D-10 -0.20063346D-10  0.97045396D+01
  0.12731804D+02  0.13964034D+02  0.11489186D+02  0.60564457D+01  0.15757732D+01
 -0.46506193D-01 -0.61013480D-01 -0.66918583D-01 -0.55058594D-01 -0.29023760D-01
 -0.75514365D-02 -0.55664994D-15 -0.19981301D-13 -0.31700835D-13 -0.37643769D-13
 -0.56964945D-14  0.41458019D-13  0.88422863D-04  0.31739945D-02  0.50356218D-02
  0.59796464D-02  0.90487811D-03 -0.65855333D-02 -0.41599023D-06 -0.14932232D-04
 -0.23690360D-04 -0.28131576D-04 -0.42570489D-05  0.30982004D-04 -0.95425127D-12
  0.67303660D-01 -0.33514136D-03 -0.13363904D-13 -0.31958257D-03  0.27648938D-05
  0.23876935D-15 -0.27920591D-04  0.47464244D-07  0.17808475D-05  0.10428823D-05
 -0.28237298D-05 -0.99670093D-15 -0.20072407D-15  0.76512653D-03 -0.91369145D-06
  0.16344165D-05 -0.72072503D-06 -0.29288748D-14 -0.61881739D-14 -0.72525281D-03
  0.42326911D-07  0.80657607D-07 -0.12298452D-06  0.22845664D-15  0.28966372D-14
 -0.41502812D-04 -0.11324163D-14  0.32952080D-05  0.40542125D-06 -0.15545007D-15
  0.13873699D-03 -0.10873933D-05  0.35526991D-14 -0.14862261D-03 -0.12887041D-06
  0.97520070D-15  0.41554938D-15  0.31861293D-04  0.24090596D-06 -0.10789592D-16
  0.26882122D-05 -0.33594419D-06 -0.12358585D-14 -0.98272090D-04 -0.38677368D-06
 -0.34447703D-15  0.41067306D-03  0.77253787D-03  0.13373025D-02  0.21920956D-02
  0.34339512D-02  0.51615080D-02  0.73770083D-02  0.97929625D-02  0.11404612D-01
  0.10473817D-01  0.61226338D-02  0.16065434D-02  0.91340916D-04  0.15938008D-05
  0.16043418D-06  0.20563941D-04  0.59404485D-04  0.27226471D-03  0.80596284D-03
  0.23373157D-02  0.48583266D-02  0.69498939D-02  0.19927565D-02 -0.79633221D-02
 -0.76997620D-02 -0.16805907D-02  0.24326043D-04  0.13382315D-04  0.62431265D-04
  0.12669962D-03  0.49655785D-03  0.34844640D-03 -0.22692148D-02 -0.70315177D-02
 -0.86011208D-03  0.61466136D-02  0.28846056D-02 -0.97217146D-06 -0.13327699D-05
  0.25552423D-05  0.54307301D-05 -0.20529679D-04 -0.66387768D-04 -0.23088656D-04
  0.22583220D-03  0.50372288D-03 -0.33425517D-03 -0.46762901D-04  0.15232178D-02
  0.47515066D-03 -0.10860811D-08 -0.15583643D-08 -0.20634183D-08 -0.23828890D-08
 -0.22093875D-08 -0.14307697D-08 -0.50486025D-09 -0.58171946D-10  0.95035089D-13
  0.11966866D+01  0.17170666D+01  0.22735549D+01  0.26255601D+01  0.24343894D+01
  0.15764779D+01  0.55627474D+00  0.64096122D-01 -0.10471337D-03  0.10348030D+01
  0.14847879D+01  0.19659963D+01  0.22703836D+01  0.21050737D+01  0.13632175D+01
  0.48102384D+00  0.55425423D-01 -0.90548113D-04  0.82624327D-11 -0.23557668D-10
 -0.11498801D-09 -0.23827701D-09 -0.29901413D-09 -0.47418264D-10  0.38383482D-09
  0.33475962D-09  0.86054941D-10 -0.72644511D-02  0.20712244D-01  0.10109913D+00
  0.20949662D+00  0.26289758D+00  0.41690827D-01 -0.33747316D+00 -0.29432552D+00
 -0.75660756D-01 -0.63960787D-02  0.18236360D-01  0.89014018D-01  0.18445397D+00
  0.23147153D+00  0.36707221D-01 -0.29713255D+00 -0.25914267D+00 -0.66616478D-01
 -0.87426629D-14 -0.12351100D-13  0.57469022D-14 -0.11516846D-13 -0.12642919D-13
 -0.34127202D-13 -0.10754383D-13  0.23089889D-13 -0.71172912D-04 -0.10054874D-03
  0.46784803D-04 -0.93757187D-04 -0.10292441D-03 -0.27782523D-03 -0.87550071D-04
  0.18797186D-03  0.57805495D-04  0.81664071D-04 -0.37997865D-04  0.76148081D-04
  0.83593549D-04  0.22564519D-03  0.71106761D-04 -0.15266773D-03  0.28488560D-11
 -0.31376631D-02 -0.28836613D-02  0.25916388D-13  0.38313836D-03  0.16510019D-03
 -0.57202612D-15  0.14763871D-04  0.12272198D-04  0.14314454D+00  0.14978534D+00
  0.12762513D+00  0.84050796D-01  0.38736509D-01  0.11599710D-01  0.19735924D-02
 -0.14642689D+00 -0.15321996D+00 -0.13055161D+00 -0.85978105D-01 -0.39624749D-01
 -0.11865695D-01 -0.20188474D-02  0.32823461D-02  0.34346216D-02  0.29264814D-02
  0.19273092D-02  0.88823945D-03  0.26598474D-03  0.45255049D-04 -0.36468903D-10
 -0.38160777D-10 -0.32515025D-10 -0.21413602D-10 -0.98688916D-11 -0.29552556D-11
 -0.50281168D-12  0.99318057D-10  0.10392565D-09  0.88550212D-10  0.58317009D-10
  0.26876573D-10  0.80482333D-11  0.13693387D-11 -0.46271306D+00 -0.48417936D+00
 -0.41254673D+00 -0.27169321D+00 -0.12521531D+00 -0.37495928D-01 -0.63796143D-02
  0.62026109D-04 -0.11455727D-03  0.52531156D-04 -0.85666543D-14  0.93565118D-13
 -0.33919760D-03 -0.55497189D-04  0.57667642D-04 -0.21704533D-05 -0.65974637D-14
 -0.40480464D-14  0.96297166D-04 -0.15938329D-04  0.19000393D-04 -0.30620633D-05
  0.42975110D-15 -0.39595802D-15  0.63971163D-04 -0.60503945D-14  0.28066618D-04
  0.31092629D-04  0.15076775D-13 -0.52562368D-04 -0.38900240D-04  0.30744083D-14
 -0.31637487D-04 -0.54377647D-04  0.35354354D-13  0.10740197D-14 -0.17606085D-05
 -0.13403355D-05 -0.22940043D-14  0.11994398D-04  0.17041733D-05 -0.92805477D-15
 -0.67125725D-05  0.23168333D-05 -0.67503274D-14 -0.37074140D-03 -0.69742041D-03
 -0.12072703D-02 -0.19789479D-02 -0.31000521D-02 -0.46596305D-02 -0.66597074D-02
 -0.88407471D-02 -0.10295689D-01 -0.94553990D-02 -0.55273015D-02 -0.14503317D-02
 -0.82459412D-04 -0.14388281D-05 -0.14483441D-06 -0.18652989D-04 -0.53884185D-04
 -0.24696388D-03 -0.73106687D-03 -0.21201152D-02 -0.44068553D-02 -0.63040588D-02
 -0.18075750D-02  0.72233119D-02  0.69842437D-02  0.15244179D-02 -0.22065489D-04
 -0.12228407D-04 -0.57048050D-04 -0.11577478D-03 -0.45374151D-03 -0.31840116D-03
  0.20735489D-02  0.64252161D-02  0.78594782D-03 -0.56166140D-02 -0.26358768D-02
  0.96938891D-06  0.13289553D-05 -0.25479287D-05 -0.54151862D-05  0.20470919D-04
  0.66197753D-04  0.23022571D-04 -0.22518582D-03 -0.50228112D-03  0.33329847D-03
  0.57509367D-04 -0.15376664D-02 -0.48074479D-03 -0.11460097D-08 -0.16443529D-08
 -0.21772752D-08 -0.25143738D-08 -0.23312987D-08 -0.15097178D-08 -0.53271781D-09
 -0.61381802D-10  0.10027901D-12  0.11845072D+01  0.16995910D+01  0.22504155D+01
  0.25988382D+01  0.24096131D+01  0.15604331D+01  0.55061319D+00  0.63443777D-01
 -0.10364764D-03 -0.10384323D+01 -0.14899954D+01 -0.19728916D+01 -0.22783464D+01
 -0.21124568D+01 -0.13679986D+01 -0.48271091D+00 -0.55619814D-01  0.90865689D-04
 -0.30190859D-11  0.86079517D-11  0.42016519D-10  0.87066218D-10  0.10925951D-09
  0.17326593D-10 -0.14025292D-09 -0.12232088D-09 -0.31444402D-10 -0.71833913D-02
  0.20481128D-01  0.99971021D-01  0.20715896D+00  0.25996405D+00  0.41225623D-01
 -0.33370749D+00 -0.29104132D+00 -0.74816501D-01  0.64189805D-02 -0.18301657D-01
 -0.89332742D-01 -0.18511443D+00 -0.23230034D+00 -0.36838655D-01  0.29819647D+00
  0.26007055D+00  0.66855006D-01  0.10484810D-13  0.14812299D-13 -0.68920852D-14
  0.13811804D-13  0.15162269D-13  0.40927716D-13  0.12897405D-13 -0.27691002D-13
 -0.74343236D-04 -0.10502758D-03  0.48868784D-04 -0.97933505D-04 -0.10750907D-03
 -0.29020067D-03 -0.91449899D-04  0.19634488D-03 -0.58175779D-04 -0.82187186D-04
  0.38241268D-04 -0.76635862D-04 -0.84129023D-04 -0.22709060D-03 -0.71562249D-04
  0.15364567D-03 -0.10382386D-11 -0.30970030D-02  0.28948969D-02 -0.12184913D-13
  0.38613407D-03 -0.16677050D-03  0.27013142D-15  0.14919495D-04 -0.12355423D-04
 -0.14792676D+00 -0.15478942D+00 -0.13188887D+00 -0.86858791D-01 -0.40030631D-01
 -0.11987237D-01 -0.20395268D-02  0.15016022D+00  0.15712649D+00  0.13388018D+00
  0.88170220D-01  0.40635029D-01  0.12168225D-01  0.20703204D-02 -0.22334582D-02
 -0.23370734D-02 -0.19913116D-02 -0.13114292D-02 -0.60439869D-03 -0.18098817D-03
 -0.30793602D-04  0.36903835D-10  0.38615887D-10  0.32902803D-10  0.21668983D-10
  0.99865892D-11  0.29905003D-11  0.50880827D-12  0.66018437D-10  0.69081181D-10
  0.58860864D-10  0.38764329D-10  0.17865325D-10  0.53498005D-11  0.91022320D-12
 -0.47532870D+00 -0.49738027D+00 -0.42379461D+00 -0.27910079D+00 -0.12862925D+00
 -0.38518236D-01 -0.65535513D-02 -0.65608372D-04  0.11849918D-03 -0.52890810D-04
  0.29986468D-13  0.51174800D-13 -0.35096289D-03  0.55197763D-04 -0.56887155D-04
  0.16893919D-05 -0.59285263D-15 -0.70822413D-15  0.94683457D-04  0.15830912D-04
 -0.18768238D-04  0.29373253D-05  0.17689474D-15 -0.42240195D-15  0.64006424D-04
  0.16104927D-14  0.27639626D-04 -0.32024871D-04 -0.61242363D-14 -0.51867588D-04
  0.39914127D-04  0.12927584D-14 -0.31051290D-04  0.56160487D-04  0.81982131D-14
  0.25798958D-16 -0.16845993D-05  0.12890756D-05  0.42282694D-15  0.12204029D-04
 -0.20090143D-05 -0.50022381D-15 -0.71502315D-05 -0.18582125D-05  0.65529047D-15
MO    2     MO 0.0        OCC NO =    2.0000240  ORB. ENERGY =    0.000000
 -0.58998824D-01 -0.10998569D+00 -0.18589081D+00 -0.27942855D+00 -0.34322793D+00
 -0.28967226D+00 -0.10892434D+00 -0.10367979D-04 -0.77494218D-04 -0.28961359D-03
 -0.80797681D-03 -0.10824662D-02  0.12781907D-02 -0.44813372D-02 -0.17455734D-02
 -0.31620147D-03 -0.90869132D-13 -0.85195587D-13 -0.60664333D-13 -0.18047242D-04
 -0.16920436D-04 -0.12048359D-04  0.22872621D-02  0.21444536D-02  0.15269787D-02
  0.74354999D-14 -0.41716507D-05 -0.21875966D-03  0.15950533D-13  0.92602199D-05
 -0.96640854D-03 -0.30007359D-14  0.56652323D-06  0.99316768D-06  0.12388236D-03
  0.12096746D-04 -0.13597911D-03  0.20786571D-13 -0.58774075D-13 -0.34394108D-05
  0.11874252D-03  0.12828741D-03 -0.24702993D-03  0.68656277D-14  0.17521288D-13
 -0.71986464D-06  0.23543916D-04  0.10008262D-03 -0.12362654D-03  0.36339563D-14
 -0.37252137D-14 -0.30011524D-05  0.75895889D-14  0.81515549D-06 -0.99242578D-05
 -0.27799611D-14  0.15819403D-05 -0.90349785D-04 -0.19988806D-13 -0.40274067D-05
  0.12012256D-03 -0.85671834D-15 -0.53117650D-14 -0.44138139D-06  0.13103528D-04
  0.77425438D-15 -0.85236979D-06  0.44842488D-04  0.15161040D-13  0.21765140D-05
 -0.84153072D-04 -0.70645321D-15 -0.12705301D+00 -0.23753840D+00 -0.41053696D+00
 -0.66402662D+00 -0.10036540D+01 -0.13822394D+01 -0.16156695D+01 -0.13963708D+01
 -0.65169354D+00 -0.88290175D-01  0.64576705D-03 -0.15831674D-02 -0.20351458D-01
 -0.74239192D-01 -0.25048119D+00 -0.55016909D+00 -0.71066840D+00  0.11421046D+00
  0.95809000D+00  0.52578743D+00 -0.12725965D-04 -0.14495666D-03 -0.30098227D-03
 -0.82762481D-03  0.10731106D-03  0.37421425D-02  0.93334977D-02 -0.77261342D-02
  0.29343862D-01  0.18101162D-02  0.12903657D-03  0.54957354D-09  0.72100923D-09
  0.79079109D-09  0.65063909D-09  0.34297993D-09  0.89236927D-10  0.58959818D-01
  0.77351928D-01  0.84838324D-01  0.69802418D-01  0.36795866D-01  0.95735921D-02
  0.62293767D+01  0.81725879D+01  0.89635602D+01  0.73749473D+01  0.38876529D+01
  0.10114942D+01  0.33664752D-14  0.12084175D-12  0.19171847D-12  0.22765980D-12
  0.34450928D-13 -0.25072740D-12  0.50973595D-06  0.18297294D-04  0.29029115D-04
  0.34471184D-04  0.52163987D-05 -0.37963972D-04  0.57972850D-04  0.20809720D-02
  0.33015143D-02  0.39204470D-02  0.59326696D-03 -0.43176858D-02  0.41790486D-11
  0.41577709D-03  0.45880094D-01 -0.15868551D-14 -0.15820601D-06 -0.77408931D-03
  0.38074183D-15 -0.16125536D-06 -0.49808149D-05 -0.24705010D-03 -0.13342238D-03
  0.38047248D-03 -0.67094552D-15  0.39371593D-13  0.42034509D-05  0.21017247D-03
 -0.39878701D-03  0.18861454D-03  0.34338103D-14 -0.34910351D-13 -0.27709933D-05
 -0.54357165D-05 -0.30818196D-04  0.36253912D-04 -0.88762339D-15 -0.12859909D-14
 -0.50287307D-06  0.59165791D-14 -0.79467155D-07 -0.74321132D-04 -0.32813642D-14
  0.78470152D-06  0.20828746D-03 -0.14468373D-13 -0.54630006D-06  0.14675934D-04
 -0.43359812D-14  0.71693194D-15  0.18194549D-06 -0.20800705D-04  0.16113747D-14
  0.12082147D-07  0.19387562D-04 -0.37621705D-14 -0.55791861D-06  0.43014554D-04
  0.17591390D-14  0.58437907D-03  0.10993050D-02  0.19029532D-02  0.31193056D-02
  0.48864399D-02  0.73447167D-02  0.10497327D-01  0.13935179D-01  0.16228522D-01
  0.14904020D-01  0.87123783D-02  0.22860773D-02  0.12997619D-03  0.22679448D-05
  0.22829444D-06  0.27786824D-04  0.80269730D-04  0.36789503D-03  0.10890494D-02
  0.31582750D-02  0.65647663D-02  0.93909761D-02  0.26926928D-02 -0.10760361D-01
 -0.10404228D-01 -0.22708818D-02  0.32870327D-04  0.17621700D-04  0.82208877D-04
  0.16683681D-03  0.65386249D-03  0.45883079D-03 -0.29880798D-02 -0.92590334D-02
 -0.11325871D-02  0.80938004D-02  0.37984203D-02 -0.20830576D-06 -0.28557066D-06
  0.54750804D-06  0.11636346D-05 -0.43988644D-05 -0.14224810D-04 -0.49471726D-05
  0.48388736D-04  0.10793197D-03 -0.71620368D-04  0.84857080D-04 -0.27927360D-03
  0.78779747D-04 -0.24170524D-08 -0.34681095D-08 -0.45920974D-08 -0.53030733D-08
 -0.49169490D-08 -0.31841502D-08 -0.11235567D-08 -0.12946054D-09  0.21149875D-12
  0.26597866D+00  0.38163967D+00  0.50532619D+00  0.58356379D+00  0.54107369D+00
  0.35039206D+00  0.12363906D+00  0.14246170D-01 -0.23273865D-04  0.32566253D+00
  0.46727712D+00  0.61871809D+00  0.71451170D+00  0.66248709D+00  0.42901775D+00
  0.15138286D+00  0.17442918D-01 -0.28496368D-04  0.27739229D-11 -0.79089483D-11