 br2cs-wavefunction
GAUSSIAN            214 MOL ORBITALS    620 PRIMITIVES        4 NUCLEI
  C    1    (CENTRE  1)   0.00000000  0.00000000 -0.98162013  CHARGE =  6.0
  S    2    (CENTRE  2)   0.00000000  0.00000000  2.04788109  CHARGE = 16.0
  Br   3    (CENTRE  3)   0.00000000 -2.96406568 -2.98306498  CHARGE = 35.0
  Br   4    (CENTRE  4)   0.00000000  2.94516841 -2.98306498  CHARGE = 35.0
CENTRE ASSIGNMENTS    1  1  1  1  1  1  1  1  1  1  1  1  1  1  1  1  1  1  1  1
CENTRE ASSIGNMENTS    1  1  1  1  1  1  1  1  1  1  1  1  1  1  1  1  1  1  1  1
CENTRE ASSIGNMENTS    1  1  1  1  1  1  1  1  1  1  1  1  1  1  1  1  1  1  1  1
CENTRE ASSIGNMENTS    1  1  1  1  1  1  1  1  1  1  1  1  2  2  2  2  2  2  2  2
CENTRE ASSIGNMENTS    2  2  2  2  2  2  2  2  2  2  2  2  2  2  2  2  2  2  2  2
CENTRE ASSIGNMENTS    2  2  2  2  2  2  2  2  2  2  2  2  2  2  2  2  2  2  2  2
CENTRE ASSIGNMENTS    2  2  2  2  2  2  2  2  2  2  2  2  2  2  2  2  2  2  2  2
CENTRE ASSIGNMENTS    2  2  2  2  2  2  2  2  2  2  2  2  2  2  2  2  2  2  2  2
CENTRE ASSIGNMENTS    2  2  2  2  2  2  2  2  2  2  2  2  2  2  2  2  2  2  2  2
CENTRE ASSIGNMENTS    2  2  2  2  2  2  3  3  3  3  3  3  3  3  3  3  3  3  3  3
CENTRE ASSIGNMENTS    3  3  3  3  3  3  3  3  3  3  3  3  3  3  3  3  3  3  3  3
CENTRE ASSIGNMENTS    3  3  3  3  3  3  3  3  3  3  3  3  3  3  3  3  3  3  3  3
CENTRE ASSIGNMENTS    3  3  3  3  3  3  3  3  3  3  3  3  3  3  3  3  3  3  3  3
CENTRE ASSIGNMENTS    3  3  3  3  3  3  3  3  3  3  3  3  3  3  3  3  3  3  3  3
CENTRE ASSIGNMENTS    3  3  3  3  3  3  3  3  3  3  3  3  3  3  3  3  3  3  3  3
CENTRE ASSIGNMENTS    3  3  3  3  3  3  3  3  3  3  3  3  3  3  3  3  3  3  3  3
CENTRE ASSIGNMENTS    3  3  3  3  3  3  3  3  3  3  3  3  3  3  3  3  3  3  3  3
CENTRE ASSIGNMENTS    3  3  3  3  3  3  3  3  3  3  3  3  3  3  3  3  3  3  3  3
CENTRE ASSIGNMENTS    3  3  3  3  3  3  3  3  3  3  3  3  3  3  3  3  3  3  3  3
CENTRE ASSIGNMENTS    3  3  3  3  3  3  3  3  3  3  3  3  3  3  3  3  3  3  3  3
CENTRE ASSIGNMENTS    3  3  3  4  4  4  4  4  4  4  4  4  4  4  4  4  4  4  4  4
CENTRE ASSIGNMENTS    4  4  4  4  4  4  4  4  4  4  4  4  4  4  4  4  4  4  4  4
CENTRE ASSIGNMENTS    4  4  4  4  4  4  4  4  4  4  4  4  4  4  4  4  4  4  4  4
CENTRE ASSIGNMENTS    4  4  4  4  4  4  4  4  4  4  4  4  4  4  4  4  4  4  4  4
CENTRE ASSIGNMENTS    4  4  4  4  4  4  4  4  4  4  4  4  4  4  4  4  4  4  4  4
CENTRE ASSIGNMENTS    4  4  4  4  4  4  4  4  4  4  4  4  4  4  4  4  4  4  4  4
CENTRE ASSIGNMENTS    4  4  4  4  4  4  4  4  4  4  4  4  4  4  4  4  4  4  4  4
CENTRE ASSIGNMENTS    4  4  4  4  4  4  4  4  4  4  4  4  4  4  4  4  4  4  4  4
CENTRE ASSIGNMENTS    4  4  4  4  4  4  4  4  4  4  4  4  4  4  4  4  4  4  4  4
CENTRE ASSIGNMENTS    4  4  4  4  4  4  4  4  4  4  4  4  4  4  4  4  4  4  4  4
CENTRE ASSIGNMENTS    4  4  4  4  4  4  4  4  4  4  4  4  4  4  4  4  4  4  4  4
TYPE ASSIGNMENTS      1  1  1  1  1  1  1  1  1  1  1  1  1  1  1  1  2  2  2  3
TYPE ASSIGNMENTS      3  3  4  4  4  2  3  4  2  3  4  2  3  4  5  6  7  8  9 10
TYPE ASSIGNMENTS      5  6  7  8  9 10  5  6  7  8  9 10 11 12 13 17 14 15 18 19
TYPE ASSIGNMENTS     16 20 11 12 13 17 14 15 18 19 16 20  1  1  1  1  1  1  1  1
TYPE ASSIGNMENTS      1  1  1  1  1  1  1  1  1  1  1  1  1  1  1  1  1  1  1  1
TYPE ASSIGNMENTS      1  1  1  2  2  2  2  2  2  3  3  3  3  3  3  4  4  4  4  4
TYPE ASSIGNMENTS      4  2  2  2  2  2  2  3  3  3  3  3  3  4  4  4  4  4  4  2
TYPE ASSIGNMENTS      3  4  2  3  4  2  3  4  5  6  7  8  9 10  5  6  7  8  9 10
TYPE ASSIGNMENTS      5  6  7  8  9 10 11 12 13 17 14 15 18 19 16 20 11 12 13 17
TYPE ASSIGNMENTS     14 15 18 19 16 20  1  1  1  1  1  1  1  1  1  1  1  1  1  1
TYPE ASSIGNMENTS      1  1  1  1  1  1  1  1  1  1  1  1  1  1  1  1  1  1  1  1
TYPE ASSIGNMENTS      1  1  1  1  1  1  1  1  1  1  1  1  1  1  1  1  2  2  2  2
TYPE ASSIGNMENTS      2  2  2  2  2  3  3  3  3  3  3  3  3  3  4  4  4  4  4  4
TYPE ASSIGNMENTS      4  4  4  2  2  2  2  2  2  2  2  2  3  3  3  3  3  3  3  3
TYPE ASSIGNMENTS      3  4  4  4  4  4  4  4  4  4  2  2  2  2  2  2  2  2  3  3
TYPE ASSIGNMENTS      3  3  3  3  3  3  4  4  4  4  4  4  4  4  2  3  4  2  3  4
TYPE ASSIGNMENTS      2  3  4  5  5  5  5  5  5  5  6  6  6  6  6  6  6  7  7  7
TYPE ASSIGNMENTS      7  7  7  7  8  8  8  8  8  8  8  9  9  9  9  9  9  9 10 10
TYPE ASSIGNMENTS     10 10 10 10 10  5  6  7  8  9 10  5  6  7  8  9 10  5  6  7
TYPE ASSIGNMENTS      8  9 10 11 12 13 17 14 15 18 19 16 20 11 12 13 17 14 15 18
TYPE ASSIGNMENTS     19 16 20  1  1  1  1  1  1  1  1  1  1  1  1  1  1  1  1  1
TYPE ASSIGNMENTS      1  1  1  1  1  1  1  1  1  1  1  1  1  1  1  1  1  1  1  1
TYPE ASSIGNMENTS      1  1  1  1  1  1  1  1  1  1  1  1  1  2  2  2  2  2  2  2
TYPE ASSIGNMENTS      2  2  3  3  3  3  3  3  3  3  3  4  4  4  4  4  4  4  4  4
TYPE ASSIGNMENTS      2  2  2  2  2  2  2  2  2  3  3  3  3  3  3  3  3  3  4  4
TYPE ASSIGNMENTS      4  4  4  4  4  4  4  2  2  2  2  2  2  2  2  3  3  3  3  3
TYPE ASSIGNMENTS      3  3  3  4  4  4  4  4  4  4  4  2  3  4  2  3  4  2  3  4
TYPE ASSIGNMENTS      5  5  5  5  5  5  5  6  6  6  6  6  6  6  7  7  7  7  7  7
TYPE ASSIGNMENTS      7  8  8  8  8  8  8  8  9  9  9  9  9  9  9 10 10 10 10 10
TYPE ASSIGNMENTS     10 10  5  6  7  8  9 10  5  6  7  8  9 10  5  6  7  8  9 10
TYPE ASSIGNMENTS     11 12 13 17 14 15 18 19 16 20 11 12 13 17 14 15 18 19 16 20
EXPONENTS  0.8236000D+04 0.1235000D+04 0.2808000D+03 0.7927000D+02 0.2559000D+02
EXPONENTS  0.8997000D+01 0.3319000D+01 0.2808000D+03 0.7927000D+02 0.2559000D+02
EXPONENTS  0.8997000D+01 0.3319000D+01 0.3643000D+00 0.9059000D+00 0.1285000D+00
EXPONENTS  0.4402000D-01 0.1871000D+02 0.4133000D+01 0.1200000D+01 0.1871000D+02
EXPONENTS  0.4133000D+01 0.1200000D+01 0.1871000D+02 0.4133000D+01 0.1200000D+01
EXPONENTS  0.3827000D+00 0.3827000D+00 0.3827000D+00 0.1209000D+00 0.1209000D+00
EXPONENTS  0.1209000D+00 0.3569000D-01 0.3569000D-01 0.3569000D-01 0.1097000D+01
EXPONENTS  0.1097000D+01 0.1097000D+01 0.1097000D+01 0.1097000D+01 0.1097000D+01
EXPONENTS  0.3180000D+00 0.3180000D+00 0.3180000D+00 0.3180000D+00 0.3180000D+00
EXPONENTS  0.3180000D+00 0.1000000D+00 0.1000000D+00 0.1000000D+00 0.1000000D+00
EXPONENTS  0.1000000D+00 0.1000000D+00 0.7610000D+00 0.7610000D+00 0.7610000D+00
EXPONENTS  0.7610000D+00 0.7610000D+00 0.7610000D+00 0.7610000D+00 0.7610000D+00
EXPONENTS  0.7610000D+00 0.7610000D+00 0.2680000D+00 0.2680000D+00 0.2680000D+00
EXPONENTS  0.2680000D+00 0.2680000D+00 0.2680000D+00 0.2680000D+00 0.2680000D+00
EXPONENTS  0.2680000D+00 0.2680000D+00 0.3741000D+06 0.5605000D+05 0.1276000D+05
EXPONENTS  0.3615000D+04 0.1183000D+04 0.4288000D+03 0.1678000D+03 0.6947000D+02
EXPONENTS  0.2984000D+02 0.1272000D+02 0.5244000D+01 0.3615000D+04 0.1183000D+04
EXPONENTS  0.4288000D+03 0.1678000D+03 0.6947000D+02 0.2984000D+02 0.1272000D+02
EXPONENTS  0.5244000D+01 0.2219000D+01 0.1183000D+04 0.1678000D+03 0.6947000D+02
EXPONENTS  0.2984000D+02 0.1272000D+02 0.5244000D+01 0.2219000D+01 0.3490000D+00
EXPONENTS  0.7767000D+00 0.1322000D+00 0.4970000D-01 0.5744000D+03 0.1358000D+03
EXPONENTS  0.4319000D+02 0.1587000D+02 0.6208000D+01 0.2483000D+01 0.5744000D+03
EXPONENTS  0.1358000D+03 0.4319000D+02 0.1587000D+02 0.6208000D+01 0.2483000D+01
EXPONENTS  0.5744000D+03 0.1358000D+03 0.4319000D+02 0.1587000D+02 0.6208000D+01
EXPONENTS  0.2483000D+01 0.1358000D+03 0.4319000D+02 0.1587000D+02 0.6208000D+01
EXPONENTS  0.2483000D+01 0.3229000D+00 0.1358000D+03 0.4319000D+02 0.1587000D+02
EXPONENTS  0.6208000D+01 0.2483000D+01 0.3229000D+00 0.1358000D+03 0.4319000D+02
EXPONENTS  0.1587000D+02 0.6208000D+01 0.2483000D+01 0.3229000D+00 0.8688000D+00
EXPONENTS  0.8688000D+00 0.8688000D+00 0.1098000D+00 0.1098000D+00 0.1098000D+00
EXPONENTS  0.3510000D-01 0.3510000D-01 0.3510000D-01 0.2690000D+00 0.2690000D+00
EXPONENTS  0.2690000D+00 0.2690000D+00 0.2690000D+00 0.2690000D+00 0.8190000D+00
EXPONENTS  0.8190000D+00 0.8190000D+00 0.8190000D+00 0.8190000D+00 0.8190000D+00
EXPONENTS  0.1010000D+00 0.1010000D+00 0.1010000D+00 0.1010000D+00 0.1010000D+00
EXPONENTS  0.1010000D+00 0.5570000D+00 0.5570000D+00 0.5570000D+00 0.5570000D+00
EXPONENTS  0.5570000D+00 0.5570000D+00 0.5570000D+00 0.5570000D+00 0.5570000D+00
EXPONENTS  0.5570000D+00 0.2180000D+00 0.2180000D+00 0.2180000D+00 0.2180000D+00
EXPONENTS  0.2180000D+00 0.2180000D+00 0.2180000D+00 0.2180000D+00 0.2180000D+00
EXPONENTS  0.2180000D+00 0.1063900D+08 0.1593400D+07 0.3626100D+06 0.1027000D+06
EXPONENTS  0.3350100D+05 0.1209300D+05 0.4715900D+04 0.1955600D+04 0.8526100D+03
EXPONENTS  0.3876700D+03 0.1826800D+03 0.8824500D+02 0.3926300D+02 0.9405700D+01
EXPONENTS  0.1899500D+01 0.3350100D+05 0.1209300D+05 0.4715900D+04 0.1955600D+04
EXPONENTS  0.8526100D+03 0.3876700D+03 0.1826800D+03 0.8824500D+02 0.3926300D+02
EXPONENTS  0.1923400D+02 0.9405700D+01 0.1899500D+01 0.4715900D+04 0.8526100D+03
EXPONENTS  0.3876700D+03 0.1826800D+03 0.8824500D+02 0.3926300D+02 0.1923400D+02
EXPONENTS  0.9405700D+01 0.4160100D+01 0.1899500D+01 0.4715900D+04 0.8526100D+03
EXPONENTS  0.3876700D+03 0.8824500D+02 0.3926300D+02 0.1923400D+02 0.9405700D+01
EXPONENTS  0.4160100D+01 0.1899500D+01 0.3011400D+00 0.6047200D+00 0.1251500D+00
EXPONENTS  0.4559300D-01 0.8676500D+04 0.2055900D+04 0.6662300D+03 0.2531000D+03
EXPONENTS  0.1061200D+03 0.4724200D+02 0.2182500D+02 0.9968400D+01 0.1998200D+01
EXPONENTS  0.8676500D+04 0.2055900D+04 0.6662300D+03 0.2531000D+03 0.1061200D+03
EXPONENTS  0.4724200D+02 0.2182500D+02 0.9968400D+01 0.1998200D+01 0.8676500D+04
EXPONENTS  0.2055900D+04 0.6662300D+03 0.2531000D+03 0.1061200D+03 0.4724200D+02
EXPONENTS  0.2182500D+02 0.9968400D+01 0.1998200D+01 0.8676500D+04 0.6662300D+03
EXPONENTS  0.2531000D+03 0.1061200D+03 0.4724200D+02 0.2182500D+02 0.9968400D+01
EXPONENTS  0.4517100D+01 0.1998200D+01 0.8676500D+04 0.6662300D+03 0.2531000D+03
EXPONENTS  0.1061200D+03 0.4724200D+02 0.2182500D+02 0.9968400D+01 0.4517100D+01
EXPONENTS  0.1998200D+01 0.8676500D+04 0.6662300D+03 0.2531000D+03 0.1061200D+03
EXPONENTS  0.4724200D+02 0.2182500D+02 0.9968400D+01 0.4517100D+01 0.1998200D+01
EXPONENTS  0.6662300D+03 0.1061200D+03 0.4724200D+02 0.2182500D+02 0.9968400D+01
EXPONENTS  0.4517100D+01 0.1998200D+01 0.2814500D+00 0.6662300D+03 0.1061200D+03
EXPONENTS  0.4724200D+02 0.2182500D+02 0.9968400D+01 0.4517100D+01 0.1998200D+01
EXPONENTS  0.2814500D+00 0.6662300D+03 0.1061200D+03 0.4724200D+02 0.2182500D+02
EXPONENTS  0.9968400D+01 0.4517100D+01 0.1998200D+01 0.2814500D+00 0.7098800D+00
EXPONENTS  0.7098800D+00 0.7098800D+00 0.1020400D+00 0.1020400D+00 0.1020400D+00
EXPONENTS  0.3514200D-01 0.3514200D-01 0.3514200D-01 0.4038300D+03 0.1211700D+03
EXPONENTS  0.4634500D+02 0.1972100D+02 0.8862400D+01 0.3996200D+01 0.1763600D+01
EXPONENTS  0.4038300D+03 0.1211700D+03 0.4634500D+02 0.1972100D+02 0.8862400D+01
EXPONENTS  0.3996200D+01 0.1763600D+01 0.4038300D+03 0.1211700D+03 0.4634500D+02
EXPONENTS  0.1972100D+02 0.8862400D+01 0.3996200D+01 0.1763600D+01 0.4038300D+03
EXPONENTS  0.1211700D+03 0.4634500D+02 0.1972100D+02 0.8862400D+01 0.3996200D+01
EXPONENTS  0.1763600D+01 0.4038300D+03 0.1211700D+03 0.4634500D+02 0.1972100D+02
EXPONENTS  0.8862400D+01 0.3996200D+01 0.1763600D+01 0.4038300D+03 0.1211700D+03
EXPONENTS  0.4634500D+02 0.1972100D+02 0.8862400D+01 0.3996200D+01 0.1763600D+01
EXPONENTS  0.7061900D+00 0.7061900D+00 0.7061900D+00 0.7061900D+00 0.7061900D+00
EXPONENTS  0.7061900D+00 0.2639000D+00 0.2639000D+00 0.2639000D+00 0.2639000D+00
EXPONENTS  0.2639000D+00 0.2639000D+00 0.1047000D+00 0.1047000D+00 0.1047000D+00
EXPONENTS  0.1047000D+00 0.1047000D+00 0.1047000D+00 0.5515000D+00 0.5515000D+00
EXPONENTS  0.5515000D+00 0.5515000D+00 0.5515000D+00 0.5515000D+00 0.5515000D+00
EXPONENTS  0.5515000D+00 0.5515000D+00 0.5515000D+00 0.2580000D+00 0.2580000D+00
EXPONENTS  0.2580000D+00 0.2580000D+00 0.2580000D+00 0.2580000D+00 0.2580000D+00
EXPONENTS  0.2580000D+00 0.2580000D+00 0.2580000D+00 0.1063900D+08 0.1593400D+07
EXPONENTS  0.3626100D+06 0.1027000D+06 0.3350100D+05 0.1209300D+05 0.4715900D+04
EXPONENTS  0.1955600D+04 0.8526100D+03 0.3876700D+03 0.1826800D+03 0.8824500D+02
EXPONENTS  0.3926300D+02 0.9405700D+01 0.1899500D+01 0.3350100D+05 0.1209300D+05
EXPONENTS  0.4715900D+04 0.1955600D+04 0.8526100D+03 0.3876700D+03 0.1826800D+03
EXPONENTS  0.8824500D+02 0.3926300D+02 0.1923400D+02 0.9405700D+01 0.1899500D+01
EXPONENTS  0.4715900D+04 0.8526100D+03 0.3876700D+03 0.1826800D+03 0.8824500D+02
EXPONENTS  0.3926300D+02 0.1923400D+02 0.9405700D+01 0.4160100D+01 0.1899500D+01
EXPONENTS  0.4715900D+04 0.8526100D+03 0.3876700D+03 0.8824500D+02 0.3926300D+02
EXPONENTS  0.1923400D+02 0.9405700D+01 0.4160100D+01 0.1899500D+01 0.3011400D+00
EXPONENTS  0.6047200D+00 0.1251500D+00 0.4559300D-01 0.8676500D+04 0.2055900D+04
EXPONENTS  0.6662300D+03 0.2531000D+03 0.1061200D+03 0.4724200D+02 0.2182500D+02
EXPONENTS  0.9968400D+01 0.1998200D+01 0.8676500D+04 0.2055900D+04 0.6662300D+03
EXPONENTS  0.2531000D+03 0.1061200D+03 0.4724200D+02 0.2182500D+02 0.9968400D+01
EXPONENTS  0.1998200D+01 0.8676500D+04 0.2055900D+04 0.6662300D+03 0.2531000D+03
EXPONENTS  0.1061200D+03 0.4724200D+02 0.2182500D+02 0.9968400D+01 0.1998200D+01
EXPONENTS  0.8676500D+04 0.6662300D+03 0.2531000D+03 0.1061200D+03 0.4724200D+02
EXPONENTS  0.2182500D+02 0.9968400D+01 0.4517100D+01 0.1998200D+01 0.8676500D+04
EXPONENTS  0.6662300D+03 0.2531000D+03 0.1061200D+03 0.4724200D+02 0.2182500D+02
EXPONENTS  0.9968400D+01 0.4517100D+01 0.1998200D+01 0.8676500D+04 0.6662300D+03
EXPONENTS  0.2531000D+03 0.1061200D+03 0.4724200D+02 0.2182500D+02 0.9968400D+01
EXPONENTS  0.4517100D+01 0.1998200D+01 0.6662300D+03 0.1061200D+03 0.4724200D+02
EXPONENTS  0.2182500D+02 0.9968400D+01 0.4517100D+01 0.1998200D+01 0.2814500D+00
EXPONENTS  0.6662300D+03 0.1061200D+03 0.4724200D+02 0.2182500D+02 0.9968400D+01
EXPONENTS  0.4517100D+01 0.1998200D+01 0.2814500D+00 0.6662300D+03 0.1061200D+03
EXPONENTS  0.4724200D+02 0.2182500D+02 0.9968400D+01 0.4517100D+01 0.1998200D+01
EXPONENTS  0.2814500D+00 0.7098800D+00 0.7098800D+00 0.7098800D+00 0.1020400D+00
EXPONENTS  0.1020400D+00 0.1020400D+00 0.3514200D-01 0.3514200D-01 0.3514200D-01
EXPONENTS  0.4038300D+03 0.1211700D+03 0.4634500D+02 0.1972100D+02 0.8862400D+01
EXPONENTS  0.3996200D+01 0.1763600D+01 0.4038300D+03 0.1211700D+03 0.4634500D+02
EXPONENTS  0.1972100D+02 0.8862400D+01 0.3996200D+01 0.1763600D+01 0.4038300D+03
EXPONENTS  0.1211700D+03 0.4634500D+02 0.1972100D+02 0.8862400D+01 0.3996200D+01
EXPONENTS  0.1763600D+01 0.4038300D+03 0.1211700D+03 0.4634500D+02 0.1972100D+02
EXPONENTS  0.8862400D+01 0.3996200D+01 0.1763600D+01 0.4038300D+03 0.1211700D+03
EXPONENTS  0.4634500D+02 0.1972100D+02 0.8862400D+01 0.3996200D+01 0.1763600D+01
EXPONENTS  0.4038300D+03 0.1211700D+03 0.4634500D+02 0.1972100D+02 0.8862400D+01
EXPONENTS  0.3996200D+01 0.1763600D+01 0.7061900D+00 0.7061900D+00 0.7061900D+00
EXPONENTS  0.7061900D+00 0.7061900D+00 0.7061900D+00 0.2639000D+00 0.2639000D+00
EXPONENTS  0.2639000D+00 0.2639000D+00 0.2639000D+00 0.2639000D+00 0.1047000D+00
EXPONENTS  0.1047000D+00 0.1047000D+00 0.1047000D+00 0.1047000D+00 0.1047000D+00
EXPONENTS  0.5515000D+00 0.5515000D+00 0.5515000D+00 0.5515000D+00 0.5515000D+00
EXPONENTS  0.5515000D+00 0.5515000D+00 0.5515000D+00 0.5515000D+00 0.5515000D+00
EXPONENTS  0.2580000D+00 0.2580000D+00 0.2580000D+00 0.2580000D+00 0.2580000D+00
EXPONENTS  0.2580000D+00 0.2580000D+00 0.2580000D+00 0.2580000D+00 0.2580000D+00
MO    1     MO 0.0        OCC NO =    2.0000284  ORB. ENERGY =    0.000000
  0.22270429D-03  0.41516566D-03  0.70168653D-03  0.10547657D-02  0.12955908D-02
  0.10934329D-02  0.41115933D-03  0.34890695D-07  0.26078633D-06  0.97461807D-06
  0.27190327D-05  0.36427541D-05 -0.43014134D-05  0.18164400D-04  0.20330381D-04
  0.48893125D-05  0.14153563D-12  0.13269865D-12  0.94489342D-13 -0.25990227D-02
 -0.24367489D-02 -0.17351104D-02 -0.36619808D-04 -0.34333398D-04 -0.24447425D-04
  0.23001091D-13 -0.54756518D-03 -0.28882715D-05  0.75552936D-14  0.12916778D-02
 -0.57982616D-05  0.96419223D-15  0.80690498D-04 -0.52876260D-06  0.54530077D-07
  0.82576830D-06 -0.88029838D-06 -0.10583228D-13  0.21303437D-13 -0.11918372D-02
 -0.34446866D-06 -0.17832402D-05  0.21277088D-05 -0.75292638D-14 -0.15863381D-13
  0.28530471D-05 -0.73972922D-07 -0.40480071D-06  0.47877363D-06  0.81805746D-15
  0.43511089D-14 -0.32280240D-03 -0.18625563D-14  0.11279119D-03  0.12083243D-06
  0.40654340D-14  0.27573492D-03  0.27215028D-06  0.15222349D-14 -0.61410848D-03
 -0.63464757D-06 -0.31665393D-14  0.91818418D-15 -0.69593544D-04 -0.59246615D-06
  0.12161766D-14 -0.13791256D-03  0.44065144D-06 -0.39707291D-14  0.34669319D-03
  0.13367470D-05  0.28996440D-14  0.63468912D-03  0.11866152D-02  0.20508238D-02
  0.33171230D-02  0.50137204D-02  0.69049310D-02  0.80710236D-02  0.69755243D-02
  0.32555135D-02  0.44105065D-03 -0.32259080D-05  0.78943928D-05  0.10148163D-03
  0.37019038D-03  0.12490132D-02  0.27433934D-02  0.35437159D-02 -0.56950530D-03
 -0.47774726D-02 -0.26218153D-02  0.70473211D-07  0.80273368D-06  0.16667645D-05
  0.45831790D-05 -0.59426180D-06 -0.20723048D-04 -0.51686574D-04  0.42785397D-04
 -0.14369706D-03 -0.38070667D-06  0.12144781D-05 -0.33238018D-09 -0.43606389D-09
 -0.47826772D-09 -0.39350427D-09 -0.20743308D-09 -0.53970185D-10  0.97041646D+01
  0.12731312D+02  0.13963494D+02  0.11488742D+02  0.60562117D+01  0.15757124D+01
 -0.44799115D-01 -0.58773892D-01 -0.64462239D-01 -0.53037588D-01 -0.27958401D-01
 -0.72742500D-02 -0.18056074D-14 -0.64813416D-13 -0.10282811D-12 -0.12210523D-12
 -0.18477739D-13  0.13447752D-12  0.88673896D-04  0.31830054D-02  0.50499179D-02
  0.59966226D-02  0.90744706D-03 -0.66042297D-02 -0.39987758D-06 -0.14353858D-04
 -0.22772755D-04 -0.27041949D-04 -0.40921596D-05  0.29781971D-04 -0.25452219D-11
  0.67286591D-01 -0.32269434D-03 -0.11191249D-13 -0.32212981D-03  0.25429965D-05
  0.55465454D-16 -0.28143800D-04  0.46355115D-07  0.17293354D-05  0.10089179D-05
 -0.27382533D-05 -0.13117144D-14 -0.17824987D-13  0.77100491D-03 -0.88330608D-06
  0.15344741D-05 -0.65116802D-06  0.50931792D-15  0.10744496D-13 -0.73182721D-03
  0.42707536D-07  0.72909865D-07 -0.11561740D-06 -0.16065282D-15  0.31350302D-14
 -0.41257873D-04 -0.34049768D-14  0.38001876D-05  0.39090810D-06 -0.72258952D-15
  0.13824827D-03 -0.10349026D-05  0.10937520D-13 -0.14964883D-03 -0.13782167D-06
  0.56820892D-15 -0.36172699D-17  0.32140371D-04  0.23819818D-06 -0.61649849D-15
  0.29958790D-05 -0.33912584D-06  0.62735030D-15 -0.99416991D-04 -0.37546869D-06
  0.62597376D-15  0.36823962D-03  0.69271419D-03  0.11991236D-02  0.19655939D-02
  0.30791328D-02  0.46281872D-02  0.66147675D-02  0.87810894D-02  0.10226213D-01
  0.93915936D-02  0.54900031D-02  0.14405448D-02  0.81902973D-04  0.14291188D-05
  0.14385707D-06  0.18533517D-04  0.53539059D-04  0.24538208D-03  0.72638441D-03
  0.21065360D-02  0.43786295D-02  0.62636815D-02  0.17959975D-02 -0.71770468D-02
 -0.69395098D-02 -0.15146541D-02  0.21924160D-04  0.12177850D-04  0.56812190D-04
  0.11529612D-03  0.45186556D-03  0.31708476D-03 -0.20649760D-02 -0.63986516D-02
 -0.78269839D-03  0.55933926D-02  0.26249790D-02 -0.95925158D-06 -0.13150578D-05
  0.25212839D-05  0.53585572D-05 -0.20256846D-04 -0.65505493D-04 -0.22781814D-04
  0.22283095D-03  0.49702854D-03 -0.32981302D-03 -0.55725420D-04  0.15404990D-02
  0.47696496D-03  0.71099381D-08  0.10201700D-07  0.13507993D-07  0.15599381D-07
  0.14463568D-07  0.93664127D-08  0.33050249D-08  0.38081773D-09 -0.62213917D-12
  0.12012196D+01  0.17235708D+01  0.22821670D+01  0.26355057D+01  0.24436108D+01
  0.15824495D+01  0.55838188D+00  0.64338916D-01 -0.10511002D-03  0.10412707D+01
  0.14940680D+01  0.19782841D+01  0.22845738D+01  0.21182307D+01  0.13717378D+01
  0.48403030D+00  0.55771840D-01 -0.91114052D-04  0.35819814D-11 -0.10212867D-10
 -0.49850318D-10 -0.10329934D-09 -0.12963047D-09 -0.20557062D-10  0.16640247D-09
  0.14512708D-09  0.37307075D-10 -0.72900884D-02  0.20785341D-01  0.10145592D+00
  0.21023596D+00  0.26382538D+00  0.41837961D-01 -0.33866415D+00 -0.29536424D+00
 -0.75927774D-01 -0.64320619D-02  0.18338954D-01  0.89514794D-01  0.18549168D+00
  0.23277374D+00  0.36913729D-01 -0.29880416D+00 -0.26060055D+00 -0.66991251D-01
 -0.62576938D-14 -0.88404873D-14  0.41134326D-14 -0.82433577D-14 -0.90493616D-14
 -0.24427063D-13 -0.76976131D-14  0.16526939D-13 -0.72596675D-04 -0.10256015D-03
  0.47720700D-04 -0.95632734D-04 -0.10498334D-03 -0.28338293D-03 -0.89301448D-04
  0.19173211D-03  0.57840188D-04  0.81713083D-04 -0.38020670D-04  0.76193782D-04
  0.83643719D-04  0.22578061D-03  0.71149437D-04 -0.15275935D-03  0.11279612D-11
 -0.31410618D-02 -0.28965018D-02  0.13014549D-13  0.38301237D-03  0.16626891D-03
 -0.46922152D-15  0.14634363D-04  0.12326999D-04  0.14818387D+00  0.15505845D+00
  0.13211810D+00  0.87009756D-01  0.40100206D-01  0.12008072D-01  0.20430716D-02
 -0.14851035D+00 -0.15540008D+00 -0.13240919D+00 -0.87201459D-01 -0.40188556D-01
 -0.12034528D-01 -0.20475729D-02  0.32648455D-03  0.34163090D-03  0.29108781D-03
  0.19170333D-03  0.88350358D-04  0.26456658D-04  0.45013760D-05 -0.19261814D-10
 -0.20155413D-10 -0.17173491D-10 -0.11310042D-10 -0.52124616D-11 -0.15608801D-11
 -0.26557051D-12  0.57494986D-10  0.60162308D-10  0.51261507D-10  0.33759578D-10
  0.15558784D-10  0.46591031D-11  0.79270689D-12 -0.48135336D+00 -0.50368442D+00
 -0.42916609D+00 -0.28263831D+00 -0.13025958D+00 -0.39006443D-01 -0.66366156D-02
  0.64783466D-04 -0.11524694D-03  0.50463470D-04 -0.99652437D-14  0.52299789D-13
 -0.35417721D-03 -0.54279988D-04  0.57127119D-04 -0.28471309D-05 -0.27412705D-15
 -0.77008991D-15  0.92884625D-04 -0.15555310D-04  0.18457941D-04 -0.29026308D-05
  0.13084885D-14  0.64470364D-15  0.63740123D-04 -0.19363051D-14  0.28138791D-04
  0.31758359D-04  0.51935910D-14 -0.51897406D-04 -0.39781632D-04  0.61532436D-15
 -0.32518968D-04 -0.55493445D-04  0.15166776D-13  0.15009252D-16 -0.17243150D-05
 -0.14722904D-05 -0.13421775D-15  0.12772807D-04  0.25683146D-05  0.89189993D-16
 -0.75998618D-05  0.18485566D-05 -0.18899220D-14 -0.32677259D-03 -0.61470847D-03
 -0.10640918D-02 -0.17442507D-02 -0.27323953D-02 -0.41070125D-02 -0.58698863D-02
 -0.77922613D-02 -0.90746513D-02 -0.83340173D-02 -0.48717804D-02 -0.12783268D-02
 -0.72679976D-04 -0.12681874D-05 -0.12765749D-06 -0.16550059D-04 -0.47809307D-04
 -0.21912128D-03 -0.64864673D-03 -0.18810944D-02 -0.39100284D-02 -0.55933421D-02
 -0.16037898D-02  0.64089590D-02  0.61968433D-02  0.13525558D-02 -0.19577836D-04
 -0.10979546D-04 -0.51221852D-04 -0.10395095D-03 -0.40740184D-03 -0.28588352D-03
  0.18617817D-02  0.57690222D-02  0.70568061D-03 -0.50430010D-02 -0.23666802D-02
  0.95634745D-06  0.13110765D-05 -0.25136507D-05 -0.53423342D-05  0.20195518D-04
  0.65307176D-04  0.22712842D-04 -0.22215634D-03 -0.49552379D-03  0.32881451D-03
  0.66713549D-04 -0.15553114D-02 -0.48254636D-03 -0.20103714D-08 -0.28845829D-08
 -0.38194543D-08 -0.44108050D-08 -0.40896480D-08 -0.26484012D-08 -0.93451273D-09
 -0.10767816D-09  0.17591304D-12  0.11898751D+01  0.17072931D+01  0.22606138D+01
  0.26106155D+01  0.24205329D+01  0.15675046D+01  0.55310844D+00  0.63731289D-01
 -0.10411735D-03 -0.10450925D+01 -0.14995518D+01 -0.19855451D+01 -0.22929590D+01
 -0.21260054D+01 -0.13767726D+01 -0.48580688D+00 -0.55976544D-01  0.91448475D-04
 -0.19410459D-11  0.55342675D-11  0.27013472D-10  0.55977050D-10  0.70245672D-10
  0.11139700D-10 -0.90172109D-10 -0.78643153D-10 -0.20216393D-10 -0.72140915D-02
  0.20568660D-01  0.10039827D+00  0.20804432D+00  0.26107508D+00  0.41401813D-01
 -0.33513368D+00 -0.29228516D+00 -0.75136250D-01  0.64559418D-02 -0.18407040D-01
 -0.89847130D-01 -0.18618034D+00 -0.23363795D+00 -0.37050776D-01  0.29991352D+00
  0.26156807D+00  0.67239965D-01  0.91195463D-14  0.12883538D-13 -0.59946428D-14
  0.12013321D-13  0.13187937D-13  0.35598376D-13  0.11217989D-13 -0.24085260D-13
 -0.75772551D-04 -0.10704683D-03  0.49808330D-04 -0.99816364D-04 -0.10957603D-03
 -0.29578004D-03 -0.93208105D-04  0.20011978D-03 -0.58189575D-04 -0.82206676D-04
  0.38250337D-04 -0.76654036D-04 -0.84148974D-04 -0.22714446D-03 -0.71579220D-04
  0.15368211D-03 -0.66142608D-12 -0.31022049D-02  0.29078501D-02 -0.71858559D-14
  0.38595440D-03 -0.16806432D-03 -0.22084000D-15  0.14785331D-04 -0.12408224D-04
 -0.15304611D+00 -0.16014626D+00 -0.13645319D+00 -0.89864741D-01 -0.41415984D-01
 -0.12402083D-01 -0.21101093D-02  0.15219073D+00  0.15925120D+00  0.13569055D+00
  0.89362484D-01  0.41184508D-01  0.12332768D-01  0.20983159D-02  0.85538014D-03
  0.89506315D-03  0.76264171D-03  0.50225722D-03  0.23147540D-03  0.69315683D-04
  0.11793476D-04 -0.16674581D-10 -0.17448153D-10 -0.14866760D-10 -0.97908854D-11
 -0.45123276D-11 -0.13512238D-11 -0.22989927D-12 -0.14586848D-09 -0.15263565D-09
 -0.13005374D-09 -0.85650222D-10 -0.39473637D-10 -0.11820445D-10 -0.20111484D-11
 -0.49424497D+00 -0.51717411D+00 -0.44066002D+00 -0.29020794D+00 -0.13374820D+00
 -0.40051114D-01 -0.68143575D-02 -0.68471848D-04  0.11920730D-03 -0.50735449D-04
 -0.14132239D-13 -0.11504884D-12 -0.36637863D-03  0.53949479D-04 -0.56372347D-04
  0.24228683D-05 -0.27671788D-14  0.55452045D-15  0.91186892D-04  0.15443812D-04
 -0.18215217D-04  0.27714048D-05 -0.57333805D-15 -0.14387511D-15  0.63782073D-04
  0.96370614D-15  0.27704214D-04 -0.32716876D-04 -0.33891642D-14 -0.51132219D-04
  0.40778438D-04  0.49804578D-15 -0.31980424D-04  0.57372191D-04  0.61793721D-14
 -0.30329553D-15 -0.16404596D-05  0.14342226D-05  0.12535046D-14  0.12977254D-04
 -0.28863481D-05 -0.34361806D-15 -0.80558755D-05 -0.14163197D-05 -0.31978636D-15
MO    2     MO 0.0        OCC NO =    2.0000240  ORB. ENERGY =    0.000000
 -0.58928771D-01 -0.10985510D+00 -0.18567009D+00 -0.27909677D+00 -0.34282039D+00
 -0.28932832D+00 -0.10879500D+00 -0.10350709D-04 -0.77365134D-04 -0.28913117D-03
 -0.80663094D-03 -0.10806631D-02  0.12760616D-02 -0.44804047D-02 -0.17426955D-02
 -0.31821179D-03  0.11224853D-13  0.10524013D-13  0.74937240D-14 -0.17026345D-04
 -0.15963281D-04 -0.11366807D-04  0.22996798D-02  0.21560960D-02  0.15352688D-02
 -0.95255221D-14 -0.40026160D-05 -0.21483592D-03 -0.25095262D-14  0.89911204D-05
 -0.96669136D-03 -0.94689521D-16  0.54879281D-06  0.11583115D-05  0.12542265D-03
  0.10883216D-04 -0.13630587D-03  0.11080195D-13  0.18159403D-13 -0.31586651D-05
  0.11823171D-03  0.12841140D-03 -0.24664312D-03  0.11954248D-13  0.53073132D-15
 -0.70135294D-06  0.23582736D-04  0.10039131D-03 -0.12397405D-03 -0.18556770D-14
  0.84104301D-15 -0.29625536D-05 -0.22359147D-14  0.78738366D-06 -0.96481199D-05
  0.84199110D-15  0.15460126D-05 -0.90851085D-04  0.58657531D-14 -0.39081635D-05
  0.11979544D-03 -0.93327674D-15  0.13437104D-14 -0.42781242D-06  0.13395164D-04
 -0.33829826D-15 -0.81472945D-06  0.44647304D-04 -0.36928329D-14  0.20981667D-05
 -0.84832796D-04 -0.28632842D-14 -0.12700990D+00 -0.23745779D+00 -0.41039765D+00
 -0.66380128D+00 -0.10033134D+01 -0.13817703D+01 -0.16151212D+01 -0.13958970D+01
 -0.65147239D+00 -0.88260214D-01  0.64554792D-03 -0.15826563D-02 -0.20344888D-01
 -0.74215227D-01 -0.25040034D+00 -0.54999150D+00 -0.71043900D+00  0.11417359D+00
  0.95778073D+00  0.52561771D+00 -0.12725019D-04 -0.14494588D-03 -0.30095990D-03
 -0.82756328D-03  0.10730308D-03  0.37418643D-02  0.93328037D-02 -0.77255598D-02
  0.29334687D-01  0.18115903D-02  0.12888995D-03 -0.13013607D-09 -0.17073113D-09
 -0.18725510D-09 -0.15406785D-09 -0.81215812D-10 -0.21130827D-10  0.56553875D-01
  0.74195468D-01  0.81376371D-01  0.66954027D-01  0.35294356D-01  0.91829275D-02
  0.62327412D+01  0.81770020D+01  0.89684015D+01  0.73789306D+01  0.38897527D+01
  0.10120405D+01 -0.89940014D-15 -0.32284535D-13 -0.51220225D-13 -0.60822446D-13
 -0.92040392D-14  0.66985273D-13  0.48951314D-06  0.17571383D-04  0.27877440D-04
  0.33103605D-04  0.50094479D-05 -0.36457823D-04  0.57979208D-04  0.20812003D-02
  0.33018764D-02  0.39208769D-02  0.59333203D-03 -0.43181593D-02 -0.97834648D-12
  0.39890230D-03  0.45907959D-01  0.16637789D-14 -0.66031345D-07 -0.77438185D-03
  0.34813899D-15 -0.15551272D-06 -0.50208557D-05 -0.24705996D-03 -0.13339063D-03
  0.38045059D-03  0.72751129D-15 -0.69692118D-14  0.40224393D-05  0.21042649D-03
 -0.39839925D-03  0.18797277D-03  0.29858233D-14  0.31256095D-14 -0.26497768D-05
 -0.54107724D-05 -0.30861348D-04  0.36272121D-04  0.39805335D-15 -0.32551237D-16
 -0.49822421D-06 -0.10823995D-14 -0.79418526D-07 -0.74118354D-04  0.13051377D-15
  0.74423109D-06  0.20810023D-03  0.31166849D-14 -0.50597551D-06  0.14254834D-04
  0.28251427D-14 -0.97542758D-16  0.17481726D-06 -0.20811404D-04 -0.22501247D-15
  0.12619623D-07  0.19380873D-04  0.51764074D-15 -0.53707141D-06  0.43053340D-04
 -0.84339621D-15  0.57955407D-03  0.10902285D-02  0.18872412D-02  0.30935507D-02
  0.48460943D-02  0.72840741D-02  0.10410654D-01  0.13820121D-01  0.16094529D-01
  0.14780963D-01  0.86404435D-02  0.22672020D-02  0.12890303D-03  0.22492192D-05
  0.22640950D-06  0.27559405D-04  0.79612770D-04  0.36488403D-03  0.10801362D-02
  0.31324265D-02  0.65110376D-02  0.93141167D-02  0.26706547D-02 -0.10672294D-01
 -0.10319076D-01 -0.22522960D-02  0.32601304D-04  0.17482029D-04  0.81557280D-04
  0.16551445D-03  0.64867990D-03  0.45519405D-03 -0.29643959D-02 -0.91856453D-02
 -0.11236101D-02  0.80296480D-02  0.37683135D-02 -0.21290768D-06 -0.29187954D-06
  0.55960367D-06  0.11893418D-05 -0.44960449D-05 -0.14539067D-04 -0.50564663D-05
  0.49457747D-04  0.11031642D-03 -0.73202617D-04  0.81248565D-04 -0.28057050D-03
  0.79612181D-04  0.84481723D-09  0.12121866D-08  0.16050471D-08  0.18535500D-08
  0.17185904D-08  0.11129361D-08  0.39270975D-09  0.45249533D-10 -0.73923835D-13
  0.26153267D+00  0.37526035D+00  0.49687937D+00  0.57380919D+00  0.53202933D+00
  0.34453506D+00  0.12157237D+00  0.14008037D-01 -0.22884829D-04  0.32782784D+00
  0.47038402D+00  0.62283191D+00  0.71926245D+00  0.66689193D+00  0.43187027D+00
  0.15238940D+00  0.17558895D-01 -0.28685839D-04 -0.69447076D-11  0.19800598D-10