 br2cs-wavefunction
GAUSSIAN            214 MOL ORBITALS    620 PRIMITIVES        4 NUCLEI
  C    1    (CENTRE  1)   0.00000000  0.00000000 -1.00051739  CHARGE =  6.0
  S    2    (CENTRE  2)   0.00000000  0.00000000  2.04788109  CHARGE = 16.0
  Br   3    (CENTRE  3)   0.00000000 -2.96406568 -2.98306498  CHARGE = 35.0
  Br   4    (CENTRE  4)   0.00000000  2.96406568 -2.98306498  CHARGE = 35.0
CENTRE ASSIGNMENTS    1  1  1  1  1  1  1  1  1  1  1  1  1  1  1  1  1  1  1  1
CENTRE ASSIGNMENTS    1  1  1  1  1  1  1  1  1  1  1  1  1  1  1  1  1  1  1  1
CENTRE ASSIGNMENTS    1  1  1  1  1  1  1  1  1  1  1  1  1  1  1  1  1  1  1  1
CENTRE ASSIGNMENTS    1  1  1  1  1  1  1  1  1  1  1  1  2  2  2  2  2  2  2  2
CENTRE ASSIGNMENTS    2  2  2  2  2  2  2  2  2  2  2  2  2  2  2  2  2  2  2  2
CENTRE ASSIGNMENTS    2  2  2  2  2  2  2  2  2  2  2  2  2  2  2  2  2  2  2  2
CENTRE ASSIGNMENTS    2  2  2  2  2  2  2  2  2  2  2  2  2  2  2  2  2  2  2  2
CENTRE ASSIGNMENTS    2  2  2  2  2  2  2  2  2  2  2  2  2  2  2  2  2  2  2  2
CENTRE ASSIGNMENTS    2  2  2  2  2  2  2  2  2  2  2  2  2  2  2  2  2  2  2  2
CENTRE ASSIGNMENTS    2  2  2  2  2  2  3  3  3  3  3  3  3  3  3  3  3  3  3  3
CENTRE ASSIGNMENTS    3  3  3  3  3  3  3  3  3  3  3  3  3  3  3  3  3  3  3  3
CENTRE ASSIGNMENTS    3  3  3  3  3  3  3  3  3  3  3  3  3  3  3  3  3  3  3  3
CENTRE ASSIGNMENTS    3  3  3  3  3  3  3  3  3  3  3  3  3  3  3  3  3  3  3  3
CENTRE ASSIGNMENTS    3  3  3  3  3  3  3  3  3  3  3  3  3  3  3  3  3  3  3  3
CENTRE ASSIGNMENTS    3  3  3  3  3  3  3  3  3  3  3  3  3  3  3  3  3  3  3  3
CENTRE ASSIGNMENTS    3  3  3  3  3  3  3  3  3  3  3  3  3  3  3  3  3  3  3  3
CENTRE ASSIGNMENTS    3  3  3  3  3  3  3  3  3  3  3  3  3  3  3  3  3  3  3  3
CENTRE ASSIGNMENTS    3  3  3  3  3  3  3  3  3  3  3  3  3  3  3  3  3  3  3  3
CENTRE ASSIGNMENTS    3  3  3  3  3  3  3  3  3  3  3  3  3  3  3  3  3  3  3  3
CENTRE ASSIGNMENTS    3  3  3  3  3  3  3  3  3  3  3  3  3  3  3  3  3  3  3  3
CENTRE ASSIGNMENTS    3  3  3  4  4  4  4  4  4  4  4  4  4  4  4  4  4  4  4  4
CENTRE ASSIGNMENTS    4  4  4  4  4  4  4  4  4  4  4  4  4  4  4  4  4  4  4  4
CENTRE ASSIGNMENTS    4  4  4  4  4  4  4  4  4  4  4  4  4  4  4  4  4  4  4  4
CENTRE ASSIGNMENTS    4  4  4  4  4  4  4  4  4  4  4  4  4  4  4  4  4  4  4  4
CENTRE ASSIGNMENTS    4  4  4  4  4  4  4  4  4  4  4  4  4  4  4  4  4  4  4  4
CENTRE ASSIGNMENTS    4  4  4  4  4  4  4  4  4  4  4  4  4  4  4  4  4  4  4  4
CENTRE ASSIGNMENTS    4  4  4  4  4  4  4  4  4  4  4  4  4  4  4  4  4  4  4  4
CENTRE ASSIGNMENTS    4  4  4  4  4  4  4  4  4  4  4  4  4  4  4  4  4  4  4  4
CENTRE ASSIGNMENTS    4  4  4  4  4  4  4  4  4  4  4  4  4  4  4  4  4  4  4  4
CENTRE ASSIGNMENTS    4  4  4  4  4  4  4  4  4  4  4  4  4  4  4  4  4  4  4  4
CENTRE ASSIGNMENTS    4  4  4  4  4  4  4  4  4  4  4  4  4  4  4  4  4  4  4  4
TYPE ASSIGNMENTS      1  1  1  1  1  1  1  1  1  1  1  1  1  1  1  1  2  2  2  3
TYPE ASSIGNMENTS      3  3  4  4  4  2  3  4  2  3  4  2  3  4  5  6  7  8  9 10
TYPE ASSIGNMENTS      5  6  7  8  9 10  5  6  7  8  9 10 11 12 13 17 14 15 18 19
TYPE ASSIGNMENTS     16 20 11 12 13 17 14 15 18 19 16 20  1  1  1  1  1  1  1  1
TYPE ASSIGNMENTS      1  1  1  1  1  1  1  1  1  1  1  1  1  1  1  1  1  1  1  1
TYPE ASSIGNMENTS      1  1  1  2  2  2  2  2  2  3  3  3  3  3  3  4  4  4  4  4
TYPE ASSIGNMENTS      4  2  2  2  2  2  2  3  3  3  3  3  3  4  4  4  4  4  4  2
TYPE ASSIGNMENTS      3  4  2  3  4  2  3  4  5  6  7  8  9 10  5  6  7  8  9 10
TYPE ASSIGNMENTS      5  6  7  8  9 10 11 12 13 17 14 15 18 19 16 20 11 12 13 17
TYPE ASSIGNMENTS     14 15 18 19 16 20  1  1  1  1  1  1  1  1  1  1  1  1  1  1
TYPE ASSIGNMENTS      1  1  1  1  1  1  1  1  1  1  1  1  1  1  1  1  1  1  1  1
TYPE ASSIGNMENTS      1  1  1  1  1  1  1  1  1  1  1  1  1  1  1  1  2  2  2  2
TYPE ASSIGNMENTS      2  2  2  2  2  3  3  3  3  3  3  3  3  3  4  4  4  4  4  4
TYPE ASSIGNMENTS      4  4  4  2  2  2  2  2  2  2  2  2  3  3  3  3  3  3  3  3
TYPE ASSIGNMENTS      3  4  4  4  4  4  4  4  4  4  2  2  2  2  2  2  2  2  3  3
TYPE ASSIGNMENTS      3  3  3  3  3  3  4  4  4  4  4  4  4  4  2  3  4  2  3  4
TYPE ASSIGNMENTS      2  3  4  5  5  5  5  5  5  5  6  6  6  6  6  6  6  7  7  7
TYPE ASSIGNMENTS      7  7  7  7  8  8  8  8  8  8  8  9  9  9  9  9  9  9 10 10
TYPE ASSIGNMENTS     10 10 10 10 10  5  6  7  8  9 10  5  6  7  8  9 10  5  6  7
TYPE ASSIGNMENTS      8  9 10 11 12 13 17 14 15 18 19 16 20 11 12 13 17 14 15 18
TYPE ASSIGNMENTS     19 16 20  1  1  1  1  1  1  1  1  1  1  1  1  1  1  1  1  1
TYPE ASSIGNMENTS      1  1  1  1  1  1  1  1  1  1  1  1  1  1  1  1  1  1  1  1
TYPE ASSIGNMENTS      1  1  1  1  1  1  1  1  1  1  1  1  1  2  2  2  2  2  2  2
TYPE ASSIGNMENTS      2  2  3  3  3  3  3  3  3  3  3  4  4  4  4  4  4  4  4  4
TYPE ASSIGNMENTS      2  2  2  2  2  2  2  2  2  3  3  3  3  3  3  3  3  3  4  4
TYPE ASSIGNMENTS      4  4  4  4  4  4  4  2  2  2  2  2  2  2  2  3  3  3  3  3
TYPE ASSIGNMENTS      3  3  3  4  4  4  4  4  4  4  4  2  3  4  2  3  4  2  3  4
TYPE ASSIGNMENTS      5  5  5  5  5  5  5  6  6  6  6  6  6  6  7  7  7  7  7  7
TYPE ASSIGNMENTS      7  8  8  8  8  8  8  8  9  9  9  9  9  9  9 10 10 10 10 10
TYPE ASSIGNMENTS     10 10  5  6  7  8  9 10  5  6  7  8  9 10  5  6  7  8  9 10
TYPE ASSIGNMENTS     11 12 13 17 14 15 18 19 16 20 11 12 13 17 14 15 18 19 16 20
EXPONENTS  0.8236000D+04 0.1235000D+04 0.2808000D+03 0.7927000D+02 0.2559000D+02
EXPONENTS  0.8997000D+01 0.3319000D+01 0.2808000D+03 0.7927000D+02 0.2559000D+02
EXPONENTS  0.8997000D+01 0.3319000D+01 0.3643000D+00 0.9059000D+00 0.1285000D+00
EXPONENTS  0.4402000D-01 0.1871000D+02 0.4133000D+01 0.1200000D+01 0.1871000D+02
EXPONENTS  0.4133000D+01 0.1200000D+01 0.1871000D+02 0.4133000D+01 0.1200000D+01
EXPONENTS  0.3827000D+00 0.3827000D+00 0.3827000D+00 0.1209000D+00 0.1209000D+00
EXPONENTS  0.1209000D+00 0.3569000D-01 0.3569000D-01 0.3569000D-01 0.1097000D+01
EXPONENTS  0.1097000D+01 0.1097000D+01 0.1097000D+01 0.1097000D+01 0.1097000D+01
EXPONENTS  0.3180000D+00 0.3180000D+00 0.3180000D+00 0.3180000D+00 0.3180000D+00
EXPONENTS  0.3180000D+00 0.1000000D+00 0.1000000D+00 0.1000000D+00 0.1000000D+00
EXPONENTS  0.1000000D+00 0.1000000D+00 0.7610000D+00 0.7610000D+00 0.7610000D+00
EXPONENTS  0.7610000D+00 0.7610000D+00 0.7610000D+00 0.7610000D+00 0.7610000D+00
EXPONENTS  0.7610000D+00 0.7610000D+00 0.2680000D+00 0.2680000D+00 0.2680000D+00
EXPONENTS  0.2680000D+00 0.2680000D+00 0.2680000D+00 0.2680000D+00 0.2680000D+00
EXPONENTS  0.2680000D+00 0.2680000D+00 0.3741000D+06 0.5605000D+05 0.1276000D+05
EXPONENTS  0.3615000D+04 0.1183000D+04 0.4288000D+03 0.1678000D+03 0.6947000D+02
EXPONENTS  0.2984000D+02 0.1272000D+02 0.5244000D+01 0.3615000D+04 0.1183000D+04
EXPONENTS  0.4288000D+03 0.1678000D+03 0.6947000D+02 0.2984000D+02 0.1272000D+02
EXPONENTS  0.5244000D+01 0.2219000D+01 0.1183000D+04 0.1678000D+03 0.6947000D+02
EXPONENTS  0.2984000D+02 0.1272000D+02 0.5244000D+01 0.2219000D+01 0.3490000D+00
EXPONENTS  0.7767000D+00 0.1322000D+00 0.4970000D-01 0.5744000D+03 0.1358000D+03
EXPONENTS  0.4319000D+02 0.1587000D+02 0.6208000D+01 0.2483000D+01 0.5744000D+03
EXPONENTS  0.1358000D+03 0.4319000D+02 0.1587000D+02 0.6208000D+01 0.2483000D+01
EXPONENTS  0.5744000D+03 0.1358000D+03 0.4319000D+02 0.1587000D+02 0.6208000D+01
EXPONENTS  0.2483000D+01 0.1358000D+03 0.4319000D+02 0.1587000D+02 0.6208000D+01
EXPONENTS  0.2483000D+01 0.3229000D+00 0.1358000D+03 0.4319000D+02 0.1587000D+02
EXPONENTS  0.6208000D+01 0.2483000D+01 0.3229000D+00 0.1358000D+03 0.4319000D+02
EXPONENTS  0.1587000D+02 0.6208000D+01 0.2483000D+01 0.3229000D+00 0.8688000D+00
EXPONENTS  0.8688000D+00 0.8688000D+00 0.1098000D+00 0.1098000D+00 0.1098000D+00
EXPONENTS  0.3510000D-01 0.3510000D-01 0.3510000D-01 0.2690000D+00 0.2690000D+00
EXPONENTS  0.2690000D+00 0.2690000D+00 0.2690000D+00 0.2690000D+00 0.8190000D+00
EXPONENTS  0.8190000D+00 0.8190000D+00 0.8190000D+00 0.8190000D+00 0.8190000D+00
EXPONENTS  0.1010000D+00 0.1010000D+00 0.1010000D+00 0.1010000D+00 0.1010000D+00
EXPONENTS  0.1010000D+00 0.5570000D+00 0.5570000D+00 0.5570000D+00 0.5570000D+00
EXPONENTS  0.5570000D+00 0.5570000D+00 0.5570000D+00 0.5570000D+00 0.5570000D+00
EXPONENTS  0.5570000D+00 0.2180000D+00 0.2180000D+00 0.2180000D+00 0.2180000D+00
EXPONENTS  0.2180000D+00 0.2180000D+00 0.2180000D+00 0.2180000D+00 0.2180000D+00
EXPONENTS  0.2180000D+00 0.1063900D+08 0.1593400D+07 0.3626100D+06 0.1027000D+06
EXPONENTS  0.3350100D+05 0.1209300D+05 0.4715900D+04 0.1955600D+04 0.8526100D+03
EXPONENTS  0.3876700D+03 0.1826800D+03 0.8824500D+02 0.3926300D+02 0.9405700D+01
EXPONENTS  0.1899500D+01 0.3350100D+05 0.1209300D+05 0.4715900D+04 0.1955600D+04
EXPONENTS  0.8526100D+03 0.3876700D+03 0.1826800D+03 0.8824500D+02 0.3926300D+02
EXPONENTS  0.1923400D+02 0.9405700D+01 0.1899500D+01 0.4715900D+04 0.8526100D+03
EXPONENTS  0.3876700D+03 0.1826800D+03 0.8824500D+02 0.3926300D+02 0.1923400D+02
EXPONENTS  0.9405700D+01 0.4160100D+01 0.1899500D+01 0.4715900D+04 0.8526100D+03
EXPONENTS  0.3876700D+03 0.8824500D+02 0.3926300D+02 0.1923400D+02 0.9405700D+01
EXPONENTS  0.4160100D+01 0.1899500D+01 0.3011400D+00 0.6047200D+00 0.1251500D+00
EXPONENTS  0.4559300D-01 0.8676500D+04 0.2055900D+04 0.6662300D+03 0.2531000D+03
EXPONENTS  0.1061200D+03 0.4724200D+02 0.2182500D+02 0.9968400D+01 0.1998200D+01
EXPONENTS  0.8676500D+04 0.2055900D+04 0.6662300D+03 0.2531000D+03 0.1061200D+03
EXPONENTS  0.4724200D+02 0.2182500D+02 0.9968400D+01 0.1998200D+01 0.8676500D+04
EXPONENTS  0.2055900D+04 0.6662300D+03 0.2531000D+03 0.1061200D+03 0.4724200D+02
EXPONENTS  0.2182500D+02 0.9968400D+01 0.1998200D+01 0.8676500D+04 0.6662300D+03
EXPONENTS  0.2531000D+03 0.1061200D+03 0.4724200D+02 0.2182500D+02 0.9968400D+01
EXPONENTS  0.4517100D+01 0.1998200D+01 0.8676500D+04 0.6662300D+03 0.2531000D+03
EXPONENTS  0.1061200D+03 0.4724200D+02 0.2182500D+02 0.9968400D+01 0.4517100D+01
EXPONENTS  0.1998200D+01 0.8676500D+04 0.6662300D+03 0.2531000D+03 0.1061200D+03
EXPONENTS  0.4724200D+02 0.2182500D+02 0.9968400D+01 0.4517100D+01 0.1998200D+01
EXPONENTS  0.6662300D+03 0.1061200D+03 0.4724200D+02 0.2182500D+02 0.9968400D+01
EXPONENTS  0.4517100D+01 0.1998200D+01 0.2814500D+00 0.6662300D+03 0.1061200D+03
EXPONENTS  0.4724200D+02 0.2182500D+02 0.9968400D+01 0.4517100D+01 0.1998200D+01
EXPONENTS  0.2814500D+00 0.6662300D+03 0.1061200D+03 0.4724200D+02 0.2182500D+02
EXPONENTS  0.9968400D+01 0.4517100D+01 0.1998200D+01 0.2814500D+00 0.7098800D+00
EXPONENTS  0.7098800D+00 0.7098800D+00 0.1020400D+00 0.1020400D+00 0.1020400D+00
EXPONENTS  0.3514200D-01 0.3514200D-01 0.3514200D-01 0.4038300D+03 0.1211700D+03
EXPONENTS  0.4634500D+02 0.1972100D+02 0.8862400D+01 0.3996200D+01 0.1763600D+01
EXPONENTS  0.4038300D+03 0.1211700D+03 0.4634500D+02 0.1972100D+02 0.8862400D+01
EXPONENTS  0.3996200D+01 0.1763600D+01 0.4038300D+03 0.1211700D+03 0.4634500D+02
EXPONENTS  0.1972100D+02 0.8862400D+01 0.3996200D+01 0.1763600D+01 0.4038300D+03
EXPONENTS  0.1211700D+03 0.4634500D+02 0.1972100D+02 0.8862400D+01 0.3996200D+01
EXPONENTS  0.1763600D+01 0.4038300D+03 0.1211700D+03 0.4634500D+02 0.1972100D+02
EXPONENTS  0.8862400D+01 0.3996200D+01 0.1763600D+01 0.4038300D+03 0.1211700D+03
EXPONENTS  0.4634500D+02 0.1972100D+02 0.8862400D+01 0.3996200D+01 0.1763600D+01
EXPONENTS  0.7061900D+00 0.7061900D+00 0.7061900D+00 0.7061900D+00 0.7061900D+00
EXPONENTS  0.7061900D+00 0.2639000D+00 0.2639000D+00 0.2639000D+00 0.2639000D+00
EXPONENTS  0.2639000D+00 0.2639000D+00 0.1047000D+00 0.1047000D+00 0.1047000D+00
EXPONENTS  0.1047000D+00 0.1047000D+00 0.1047000D+00 0.5515000D+00 0.5515000D+00
EXPONENTS  0.5515000D+00 0.5515000D+00 0.5515000D+00 0.5515000D+00 0.5515000D+00
EXPONENTS  0.5515000D+00 0.5515000D+00 0.5515000D+00 0.2580000D+00 0.2580000D+00
EXPONENTS  0.2580000D+00 0.2580000D+00 0.2580000D+00 0.2580000D+00 0.2580000D+00
EXPONENTS  0.2580000D+00 0.2580000D+00 0.2580000D+00 0.1063900D+08 0.1593400D+07
EXPONENTS  0.3626100D+06 0.1027000D+06 0.3350100D+05 0.1209300D+05 0.4715900D+04
EXPONENTS  0.1955600D+04 0.8526100D+03 0.3876700D+03 0.1826800D+03 0.8824500D+02
EXPONENTS  0.3926300D+02 0.9405700D+01 0.1899500D+01 0.3350100D+05 0.1209300D+05
EXPONENTS  0.4715900D+04 0.1955600D+04 0.8526100D+03 0.3876700D+03 0.1826800D+03
EXPONENTS  0.8824500D+02 0.3926300D+02 0.1923400D+02 0.9405700D+01 0.1899500D+01
EXPONENTS  0.4715900D+04 0.8526100D+03 0.3876700D+03 0.1826800D+03 0.8824500D+02
EXPONENTS  0.3926300D+02 0.1923400D+02 0.9405700D+01 0.4160100D+01 0.1899500D+01
EXPONENTS  0.4715900D+04 0.8526100D+03 0.3876700D+03 0.8824500D+02 0.3926300D+02
EXPONENTS  0.1923400D+02 0.9405700D+01 0.4160100D+01 0.1899500D+01 0.3011400D+00
EXPONENTS  0.6047200D+00 0.1251500D+00 0.4559300D-01 0.8676500D+04 0.2055900D+04
EXPONENTS  0.6662300D+03 0.2531000D+03 0.1061200D+03 0.4724200D+02 0.2182500D+02
EXPONENTS  0.9968400D+01 0.1998200D+01 0.8676500D+04 0.2055900D+04 0.6662300D+03
EXPONENTS  0.2531000D+03 0.1061200D+03 0.4724200D+02 0.2182500D+02 0.9968400D+01
EXPONENTS  0.1998200D+01 0.8676500D+04 0.2055900D+04 0.6662300D+03 0.2531000D+03
EXPONENTS  0.1061200D+03 0.4724200D+02 0.2182500D+02 0.9968400D+01 0.1998200D+01
EXPONENTS  0.8676500D+04 0.6662300D+03 0.2531000D+03 0.1061200D+03 0.4724200D+02
EXPONENTS  0.2182500D+02 0.9968400D+01 0.4517100D+01 0.1998200D+01 0.8676500D+04
EXPONENTS  0.6662300D+03 0.2531000D+03 0.1061200D+03 0.4724200D+02 0.2182500D+02
EXPONENTS  0.9968400D+01 0.4517100D+01 0.1998200D+01 0.8676500D+04 0.6662300D+03
EXPONENTS  0.2531000D+03 0.1061200D+03 0.4724200D+02 0.2182500D+02 0.9968400D+01
EXPONENTS  0.4517100D+01 0.1998200D+01 0.6662300D+03 0.1061200D+03 0.4724200D+02
EXPONENTS  0.2182500D+02 0.9968400D+01 0.4517100D+01 0.1998200D+01 0.2814500D+00
EXPONENTS  0.6662300D+03 0.1061200D+03 0.4724200D+02 0.2182500D+02 0.9968400D+01
EXPONENTS  0.4517100D+01 0.1998200D+01 0.2814500D+00 0.6662300D+03 0.1061200D+03
EXPONENTS  0.4724200D+02 0.2182500D+02 0.9968400D+01 0.4517100D+01 0.1998200D+01
EXPONENTS  0.2814500D+00 0.7098800D+00 0.7098800D+00 0.7098800D+00 0.1020400D+00
EXPONENTS  0.1020400D+00 0.1020400D+00 0.3514200D-01 0.3514200D-01 0.3514200D-01
EXPONENTS  0.4038300D+03 0.1211700D+03 0.4634500D+02 0.1972100D+02 0.8862400D+01
EXPONENTS  0.3996200D+01 0.1763600D+01 0.4038300D+03 0.1211700D+03 0.4634500D+02
EXPONENTS  0.1972100D+02 0.8862400D+01 0.3996200D+01 0.1763600D+01 0.4038300D+03
EXPONENTS  0.1211700D+03 0.4634500D+02 0.1972100D+02 0.8862400D+01 0.3996200D+01
EXPONENTS  0.1763600D+01 0.4038300D+03 0.1211700D+03 0.4634500D+02 0.1972100D+02
EXPONENTS  0.8862400D+01 0.3996200D+01 0.1763600D+01 0.4038300D+03 0.1211700D+03
EXPONENTS  0.4634500D+02 0.1972100D+02 0.8862400D+01 0.3996200D+01 0.1763600D+01
EXPONENTS  0.4038300D+03 0.1211700D+03 0.4634500D+02 0.1972100D+02 0.8862400D+01
EXPONENTS  0.3996200D+01 0.1763600D+01 0.7061900D+00 0.7061900D+00 0.7061900D+00
EXPONENTS  0.7061900D+00 0.7061900D+00 0.7061900D+00 0.2639000D+00 0.2639000D+00
EXPONENTS  0.2639000D+00 0.2639000D+00 0.2639000D+00 0.2639000D+00 0.1047000D+00
EXPONENTS  0.1047000D+00 0.1047000D+00 0.1047000D+00 0.1047000D+00 0.1047000D+00
EXPONENTS  0.5515000D+00 0.5515000D+00 0.5515000D+00 0.5515000D+00 0.5515000D+00
EXPONENTS  0.5515000D+00 0.5515000D+00 0.5515000D+00 0.5515000D+00 0.5515000D+00
EXPONENTS  0.2580000D+00 0.2580000D+00 0.2580000D+00 0.2580000D+00 0.2580000D+00
EXPONENTS  0.2580000D+00 0.2580000D+00 0.2580000D+00 0.2580000D+00 0.2580000D+00
MO    1     MO 0.0        OCC NO =    2.0000284  ORB. ENERGY =    0.000000
  0.30165098D-10  0.56233819D-10  0.95042816D-10  0.14286708D-09  0.17548662D-09
  0.14810451D-09  0.55691165D-10  0.64298871D-14  0.48059422D-13  0.17960903D-12
  0.50108124D-12  0.67131072D-12 -0.79269278D-12  0.23671039D-11 -0.13316123D-11
 -0.28857925D-12 -0.32702667D-12 -0.30660829D-12 -0.21832337D-12 -0.25167262D-02
 -0.23595908D-02 -0.16801692D-02  0.11219148D-11  0.10518664D-11  0.74899156D-12
 -0.59308235D-13 -0.53268491D-03  0.39161722D-12 -0.10909300D-13  0.12929165D-02
  0.79905817D-13 -0.19251053D-14  0.80345642D-04 -0.37388873D-14 -0.60043397D-13
 -0.38406589D-13  0.98449986D-13 -0.38412569D-15 -0.49790786D-13 -0.11620144D-02
  0.15923956D-12 -0.69589717D-13 -0.89649840D-13  0.20407373D-14  0.42007625D-13
 -0.15802673D-04  0.18581551D-13  0.10876181D-13 -0.29457732D-13  0.87055498D-15
 -0.96236179D-14 -0.31762334D-03  0.64607769D-14  0.11157284D-03  0.38710185D-14
  0.28499295D-14  0.27127100D-03 -0.96281329D-14 -0.22232260D-13 -0.60598953D-03
 -0.19849226D-14  0.21911270D-14 -0.29712837D-14 -0.68213219D-04 -0.13018144D-13
 -0.44493059D-14 -0.13735473D-03 -0.18557001D-13  0.13363157D-13  0.34199439D-03
  0.57611434D-13 -0.78011245D-15  0.72286221D-11  0.13514637D-10  0.23357310D-10
  0.37779486D-10  0.57102429D-10  0.78641867D-10  0.91922766D-10  0.79445870D-10
  0.37077801D-10  0.50232285D-11 -0.36740617D-13  0.28737082D-12  0.36941230D-11
  0.13475630D-10  0.45466440D-10  0.99864704D-10  0.12899796D-09 -0.20731069D-10
 -0.17390903D-09 -0.95439033D-10  0.17396442D-14  0.19815629D-13  0.41144389D-13
  0.11313662D-12 -0.14669462D-13 -0.51155227D-12 -0.12758926D-11  0.10561654D-11
 -0.55459916D-11  0.56112898D-12  0.17449365D-12  0.85285551D-09  0.11188979D-08
  0.12271889D-08  0.10096940D-08  0.53225329D-09  0.13848229D-09  0.97053642D+01
  0.12732886D+02  0.13965220D+02  0.11490162D+02  0.60569603D+01  0.15759072D+01
  0.19999442D-09  0.26238131D-09  0.28777551D-09  0.23677302D-09  0.12481328D-09
  0.32474067D-10  0.45017944D-14  0.16159475D-12  0.25637412D-12  0.30443641D-12
  0.46069252D-13 -0.33528339D-12  0.88440308D-04  0.31746207D-02  0.50366153D-02
  0.59808262D-02  0.90505664D-03 -0.65868326D-02  0.30432359D-14  0.10923887D-12
  0.17331021D-12  0.20580056D-12  0.31143049D-13 -0.22665327D-12  0.65291363D-11
  0.67222765D-01  0.19498836D-11  0.24025696D-13 -0.33097899D-03 -0.14698840D-12
 -0.44506100D-15 -0.28154661D-04 -0.66529143D-14 -0.26190982D-13 -0.50120386D-13
  0.76311367D-13 -0.46287767D-16  0.45469342D-13  0.76007290D-03 -0.45561784D-14
  0.10829314D-12 -0.10373696D-12  0.23844384D-14 -0.29427948D-13 -0.75423591D-03
 -0.59290718D-14 -0.45167083D-14  0.10445780D-13 -0.17475679D-15 -0.62756512D-14
 -0.40839278D-04  0.90862264D-14  0.34910131D-05  0.35863293D-14 -0.53893761D-14
  0.13765662D-03  0.16945674D-14 -0.21869303D-13 -0.14812965D-03 -0.12453555D-13
 -0.28187977D-14  0.21577935D-15  0.31907969D-04 -0.63328136D-14  0.20790174D-14
  0.27497484D-05  0.65730075D-14 -0.27263554D-14 -0.98473657D-04  0.12425433D-13
  0.37906807D-15  0.34273733D-03  0.64474054D-03  0.11160788D-02  0.18294674D-02
  0.28658887D-02  0.43076638D-02  0.61566643D-02  0.81729585D-02  0.95180006D-02
  0.87411824D-02  0.51097951D-02  0.13407804D-02  0.76230815D-04  0.13301457D-05
  0.13389430D-06  0.17319831D-04  0.50032999D-04  0.22931299D-03  0.67881639D-03
  0.19685873D-02  0.40918905D-02  0.58534979D-02  0.16783848D-02 -0.67070505D-02
 -0.64850689D-02 -0.14154654D-02  0.20488434D-04  0.11438321D-04  0.53362131D-04
  0.10829449D-03  0.42442492D-03  0.29782902D-03 -0.19395753D-02 -0.60100779D-02
 -0.73516713D-03  0.52537202D-02  0.24655707D-02 -0.95577728D-06 -0.13102948D-05
  0.25121521D-05  0.53391492D-05 -0.20183478D-04 -0.65268240D-04 -0.22699301D-04
  0.22202389D-03  0.49522837D-03 -0.32861847D-03 -0.65424195D-04  0.15426579D-02
  0.47919500D-03  0.83892978D-09  0.12037390D-08  0.15938617D-08  0.18406328D-08
  0.17066138D-08  0.11051802D-08  0.38997299D-09  0.44934193D-10 -0.73408667D-13
  0.11928737D+01  0.17115957D+01  0.22663109D+01  0.26171946D+01  0.24266329D+01
  0.15714549D+01  0.55450234D+00  0.63891899D-01 -0.10437973D-03  0.10318269D+01
  0.14805176D+01  0.19603421D+01  0.22638539D+01  0.20990195D+01  0.13592969D+01
  0.47964041D+00  0.55266020D-01 -0.90287697D-04 -0.33113083D-11  0.94411299D-11
  0.46083369D-10  0.95493504D-10  0.11983492D-09  0.19003663D-10 -0.15382823D-09
 -0.13416052D-09 -0.34487959D-10 -0.72344556D-02  0.20626722D-01  0.10068168D+00
  0.20863159D+00  0.26181205D+00  0.41518683D-01 -0.33607971D+00 -0.29311023D+00
 -0.75348347D-01 -0.63747575D-02  0.18175569D-01  0.88717292D-01  0.18383910D+00
  0.23069992D+00  0.36584858D-01 -0.29614207D+00 -0.25827882D+00 -0.66394414D-01
 -0.11390293D-13 -0.16091510D-13  0.74872955D-14 -0.15004611D-13 -0.16471704D-13
 -0.44462293D-13 -0.14011243D-13  0.30082437D-13 -0.76005767D-04 -0.10737630D-03
  0.49961633D-04 -0.10012358D-03 -0.10991328D-03 -0.29669040D-03 -0.93494985D-04
  0.20073572D-03  0.57685823D-04  0.81495005D-04 -0.37919200D-04  0.75990435D-04
  0.83420489D-04  0.22517805D-03  0.70959552D-04 -0.15235167D-03 -0.10890026D-11
 -0.31188776D-02 -0.28747580D-02 -0.96304853D-14  0.38717375D-03  0.16449385D-03
  0.95996197D-15  0.14822135D-04  0.12219469D-04  0.15159139D+00  0.15862405D+00
  0.13515618D+00  0.89010564D-01  0.41022319D-01  0.12284200D-01  0.20900524D-02
 -0.15560337D+00 -0.16282216D+00 -0.13873320D+00 -0.91366299D-01 -0.42108007D-01
 -0.12609311D-01 -0.21453673D-02  0.40119867D-02  0.41981118D-02  0.35770160D-02
  0.23557354D-02  0.10856883D-02  0.32511113D-03  0.55314902D-04 -0.33541665D-10
 -0.35097738D-10 -0.29905151D-10 -0.19694803D-10 -0.90767484D-11 -0.27180470D-11
 -0.46245265D-12 -0.10017469D-09 -0.10482202D-09 -0.89313974D-10 -0.58820004D-10
 -0.27108389D-10 -0.81176509D-11 -0.13811495D-11 -0.48485141D+00 -0.50734476D+00
 -0.43228489D+00 -0.28469228D+00 -0.13120620D+00 -0.39289908D-01 -0.66848447D-02
  0.68845620D-04 -0.12346807D-03  0.54622451D-04 -0.36075577D-13 -0.95640424D-13
 -0.36090253D-03 -0.55444289D-04  0.58111374D-04 -0.26670851D-05 -0.29093774D-14
  0.20031871D-14  0.92778762D-04 -0.15790664D-04  0.18943379D-04 -0.31527150D-05
 -0.21251253D-14 -0.64443002D-15  0.63363781D-04  0.21346460D-14  0.27498438D-04
  0.32159151D-04 -0.32864180D-14 -0.51977712D-04 -0.39810728D-04 -0.31175200D-14
 -0.30517603D-04 -0.56666725D-04 -0.16456928D-13  0.27639812D-15 -0.13820455D-05
 -0.11525993D-05 -0.16823897D-14  0.11983800D-04  0.18358549D-05  0.85319529D-15
 -0.78376636D-05  0.16219432D-05  0.33246427D-14 -0.34273744D-03 -0.64474074D-03
 -0.11160791D-02 -0.18294680D-02 -0.28658895D-02 -0.43076652D-02 -0.61566662D-02
 -0.81729610D-02 -0.95180035D-02 -0.87411851D-02 -0.51097966D-02 -0.13407808D-02
 -0.76230838D-04 -0.13301462D-05 -0.13389434D-06 -0.17319832D-04 -0.50033004D-04
 -0.22931301D-03 -0.67881645D-03 -0.19685875D-02 -0.40918909D-02 -0.58534985D-02
 -0.16783850D-02  0.67070512D-02  0.64850696D-02  0.14154656D-02 -0.20488436D-04
 -0.11438321D-04 -0.53362133D-04 -0.10829449D-03 -0.42442494D-03 -0.29782903D-03
  0.19395754D-02  0.60100782D-02  0.73516716D-03 -0.52537205D-02 -0.24655708D-02
  0.95577728D-06  0.13102948D-05 -0.25121521D-05 -0.53391492D-05  0.20183478D-04
  0.65268240D-04  0.22699301D-04 -0.22202389D-03 -0.49522837D-03  0.32861847D-03
  0.65424191D-04 -0.15426579D-02 -0.47919500D-03  0.33917114D-09  0.48665996D-09
  0.64438275D-09  0.74414992D-09  0.68996731D-09  0.44681357D-09  0.15766228D-09
  0.18166456D-10 -0.29678409D-13  0.11928737D+01  0.17115957D+01  0.22663109D+01
  0.26171946D+01  0.24266329D+01  0.15714549D+01  0.55450233D+00  0.63891899D-01
 -0.10437973D-03 -0.10318269D+01 -0.14805176D+01 -0.19603421D+01 -0.22638539D+01
 -0.20990195D+01 -0.13592969D+01 -0.47964042D+00 -0.55266020D-01  0.90287698D-04
 -0.23445338D-11  0.66846834D-11  0.32628799D-10  0.67613077D-10  0.84847738D-10
  0.13455325D-10 -0.10891631D-09 -0.94990815D-10 -0.24418802D-10 -0.72344556D-02
  0.20626722D-01  0.10068168D+00  0.20863159D+00  0.26181205D+00  0.41518683D-01
 -0.33607971D+00 -0.29311023D+00 -0.75348347D-01  0.63747575D-02 -0.18175569D-01
 -0.88717292D-01 -0.18383910D+00 -0.23069992D+00 -0.36584858D-01  0.29614207D+00
  0.25827882D+00  0.66394414D-01 -0.97188497D-14 -0.13730197D-13  0.63885888D-14
 -0.12802792D-13 -0.14054600D-13 -0.37937772D-13 -0.11955194D-13  0.25668056D-13
 -0.76005767D-04 -0.10737630D-03  0.49961632D-04 -0.10012358D-03 -0.10991328D-03
 -0.29669040D-03 -0.93494985D-04  0.20073572D-03 -0.57685823D-04 -0.81495006D-04
  0.37919200D-04 -0.75990435D-04 -0.83420489D-04 -0.22517805D-03 -0.70959552D-04
  0.15235167D-03 -0.76508316D-12 -0.31188775D-02  0.28747580D-02 -0.98417257D-14
  0.38717375D-03 -0.16449385D-03  0.81259108D-15  0.14822135D-04 -0.12219469D-04
 -0.15159139D+00 -0.15862405D+00 -0.13515618D+00 -0.89010563D-01 -0.41022319D-01
 -0.12284200D-01 -0.20900524D-02  0.15560337D+00  0.16282216D+00  0.13873320D+00
  0.91366299D-01  0.42108007D-01  0.12609311D-01  0.21453673D-02 -0.40119869D-02
 -0.41981120D-02 -0.35770162D-02 -0.23557356D-02 -0.10856884D-02 -0.32511114D-03
 -0.55314905D-04  0.21599893D-09  0.22601961D-09  0.19258080D-09  0.12682902D-09
  0.58451718D-10  0.17503462D-10  0.29780656D-11 -0.21159274D-09 -0.22140901D-09
 -0.18865232D-09 -0.12424182D-09 -0.57259354D-10 -0.17146406D-10 -0.29173157D-11
 -0.48485141D+00 -0.50734476D+00 -0.43228489D+00 -0.28469228D+00 -0.13120620D+00
 -0.39289908D-01 -0.66848447D-02 -0.68845620D-04  0.12346807D-03 -0.54622451D-04
  0.18527917D-12 -0.17971773D-12 -0.36090253D-03  0.55444289D-04 -0.58111374D-04
  0.26670851D-05  0.27771340D-14  0.94795776D-15  0.92778762D-04  0.15790664D-04
 -0.18943379D-04  0.31527150D-05  0.32115655D-14 -0.12601395D-14  0.63363781D-04
  0.76018771D-15  0.27498438D-04 -0.32159151D-04 -0.87782616D-15 -0.51977712D-04
  0.39810728D-04 -0.14027370D-14 -0.30517603D-04  0.56666725D-04  0.10356940D-13
  0.71677115D-15 -0.13820455D-05  0.11525993D-05 -0.26713972D-14  0.11983800D-04
 -0.18358549D-05  0.52108373D-15 -0.78376636D-05 -0.16219431D-05 -0.82741130D-15
MO    2     MO 0.0        OCC NO =    2.0000238  ORB. ENERGY =    0.000000
 -0.57359259D-01 -0.10692921D+00 -0.18072494D+00 -0.27166329D+00 -0.33368969D+00
 -0.28162233D+00 -0.10589735D+00 -0.10014591D-04 -0.74852865D-04 -0.27974225D-03
 -0.78043731D-03 -0.10455708D-02  0.12346242D-02 -0.43574050D-02 -0.16642777D-02
 -0.30177343D-03 -0.15619939D-13 -0.14644686D-13 -0.10427889D-13  0.17786904D-11
  0.16676353D-11  0.11874557D-11  0.21779234D-02  0.20419416D-02  0.14539841D-02
  0.29410939D-13  0.64089531D-12 -0.21245270D-03  0.19320135D-13  0.22225716D-12
 -0.94447754D-03 -0.16062671D-14  0.22921799D-14  0.14402078D-05  0.12499436D-03
  0.10877587D-04 -0.13587195D-03  0.77859713D-14 -0.61364223D-13 -0.52295684D-12
  0.11796633D-03  0.12905483D-03 -0.24702117D-03 -0.14672800D-14  0.74912664D-14
 -0.11867042D-12  0.22946745D-04  0.10030117D-03 -0.12324791D-03 -0.13386327D-14
 -0.17945973D-15 -0.60281384D-13  0.63177043D-14 -0.66880961D-14 -0.99227321D-05
 -0.17507837D-14  0.52349616D-13 -0.89274604D-04 -0.17202329D-13 -0.32285327D-13
  0.11904280D-03 -0.61592961D-14 -0.50695682D-14  0.78742569D-15  0.11587966D-04
  0.18038661D-14 -0.11198263D-13  0.46530355D-04  0.13404839D-13  0.88359855D-14
 -0.81294252D-04  0.39235558D-14 -0.12886674D+00 -0.24092934D+00 -0.41639751D+00
 -0.67350581D+00 -0.10179815D+01 -0.14019713D+01 -0.16387337D+01 -0.14163045D+01
 -0.66099668D+00 -0.89550546D-01  0.65498559D-03 -0.16058860D-02 -0.20643503D-01
 -0.75304532D-01 -0.25407562D+00 -0.55806408D+00 -0.72086657D+00  0.11584939D+00
  0.97183869D+00  0.53333254D+00 -0.12814087D-04 -0.14596042D-03 -0.30306644D-03
 -0.83335573D-03  0.10805414D-03  0.37680551D-02  0.93981279D-02 -0.77796342D-02
  0.29776501D-01  0.17306458D-02  0.11559084D-03  0.43176245D-09  0.56644778D-09
  0.62127062D-09  0.51116275D-09  0.26945594D-09  0.70107367D-10  0.72883113D-09
  0.95618500D-09  0.10487280D-08  0.86286181D-09  0.45485168D-09  0.11834385D-09
  0.61188949D+01  0.80276421D+01  0.88045861D+01  0.72441482D+01  0.38187030D+01
  0.99355470D+00  0.27796573D-14  0.99777553D-13  0.15829959D-12  0.18797591D-12
  0.28445709D-13 -0.20702254D-12  0.75644541D-14  0.27153085D-12  0.43079051D-12
  0.51155051D-12  0.77411076D-13 -0.56338330D-12  0.56557225D-04  0.20301573D-02
  0.32208954D-02  0.38247145D-02  0.57878012D-03 -0.42122533D-02  0.32598792D-11
  0.49399407D-11  0.45069704D-01 -0.11052637D-13 -0.26702875D-13 -0.75117737D-03
 -0.15444249D-15 -0.22075518D-14 -0.45793100D-05 -0.24074017D-03 -0.12736534D-03
  0.36810552D-03 -0.13986539D-14  0.32016079D-13  0.30033845D-13  0.21563607D-03
 -0.40193602D-03  0.18629995D-03  0.16313927D-14 -0.30702045D-13 -0.18033804D-12
 -0.49043148D-05 -0.30214095D-04  0.35118410D-04  0.33096381D-15  0.11540966D-14
 -0.40232180D-14  0.43849683D-14 -0.49571193D-14 -0.72809175D-04 -0.30070599D-14
  0.70348564D-14  0.20473557D-03 -0.10147845D-13  0.78365014D-14  0.13691952D-04
  0.20633964D-14  0.83739656D-15  0.29033302D-14 -0.20159601D-04  0.13706604D-14
 -0.96282072D-15  0.18398385D-04 -0.38828500D-14 -0.77471698D-14  0.42080419D-04
  0.26794944D-15  0.57699473D-03  0.10854140D-02  0.18789071D-02  0.30798894D-02
  0.48246938D-02  0.72519073D-02  0.10364680D-01  0.13759091D-01  0.16023455D-01
  0.14715690D-01  0.86022869D-02  0.22571899D-02  0.12833378D-03  0.22392865D-05
  0.22540966D-06  0.27436060D-04  0.79256455D-04  0.36325095D-03  0.10753019D-02
  0.31184070D-02  0.64818968D-02  0.92724304D-02  0.26587019D-02 -0.10624529D-01
 -0.10272892D-01 -0.22422156D-02  0.32455393D-04  0.17406558D-04  0.81205191D-04
  0.16479991D-03  0.64587951D-03  0.45322895D-03 -0.29515984D-02 -0.91459902D-02
 -0.11187594D-02  0.79949835D-02  0.37520455D-02 -0.20034508D-06 -0.27465720D-06
  0.52658429D-06  0.11191648D-05 -0.42307560D-05 -0.13681190D-04 -0.47581098D-05
  0.46539496D-04  0.10380720D-03 -0.68883300D-04  0.82204317D-04 -0.29532971D-03
  0.74101129D-04  0.14431530D-08  0.20707092D-08  0.27418103D-08  0.31663137D-08
  0.29357699D-08  0.19011652D-08  0.67084364D-09  0.77297193D-10 -0.12627987D-12
  0.25607021D+00  0.36742253D+00  0.48650138D+00  0.56182441D+00  0.52091718D+00
  0.33733898D+00  0.11903316D+00  0.13715460D-01 -0.22406849D-04  0.32043558D+00
  0.45977723D+00  0.60878754D+00  0.70304365D+00  0.65185404D+00  0.42213193D+00
  0.14895314D+00  0.17162955D-01 -0.28038996D-04  0.69192101D-11 -0.19727901D-10