 Entering Gaussian System, Link 0=/home/bruns/programas/chemistry/gaussian/g09/g09
 Input=GAUSSIAN.com
 Output=GAUSSIAN.log
 Initial command:
 /home/bruns/programas/chemistry/gaussian/g09/l1.exe /home/bruns/programas/chemistry/gaussian/work/Gau-10308.inp -scrdir=/home/bruns/programas/chemistry/gaussian/work/
 Entering Link 1 = /home/bruns/programas/chemistry/gaussian/g09/l1.exe PID=     10310.
  
 Copyright (c) 1988,1990,1992,1993,1995,1998,2003,2009,2010,
            Gaussian, Inc.  All Rights Reserved.
  
 This is part of the Gaussian(R) 09 program.  It is based on
 the Gaussian(R) 03 system (copyright 2003, Gaussian, Inc.),
 the Gaussian(R) 98 system (copyright 1998, Gaussian, Inc.),
 the Gaussian(R) 94 system (copyright 1995, Gaussian, Inc.),
 the Gaussian 92(TM) system (copyright 1992, Gaussian, Inc.),
 the Gaussian 90(TM) system (copyright 1990, Gaussian, Inc.),
 the Gaussian 88(TM) system (copyright 1988, Gaussian, Inc.),
 the Gaussian 86(TM) system (copyright 1986, Carnegie Mellon
 University), and the Gaussian 82(TM) system (copyright 1983,
 Carnegie Mellon University). Gaussian is a federally registered
 trademark of Gaussian, Inc.
  
 This software contains proprietary and confidential information,
 including trade secrets, belonging to Gaussian, Inc.
  
 This software is provided under written license and may be
 used, copied, transmitted, or stored only in accord with that
 written license.
  
 The following legend is applicable only to US Government
 contracts under FAR:
  
                    RESTRICTED RIGHTS LEGEND
  
 Use, reproduction and disclosure by the US Government is
 subject to restrictions as set forth in subparagraphs (a)
 and (c) of the Commercial Computer Software - Restricted
 Rights clause in FAR 52.227-19.
  
 Gaussian, Inc.
 340 Quinnipiac St., Bldg. 40, Wallingford CT 06492
  
  
 ---------------------------------------------------------------
 Warning -- This program may not be used in any manner that
 competes with the business of Gaussian, Inc. or will provide
 assistance to any competitor of Gaussian, Inc.  The licensee
 of this program is prohibited from giving any competitor of
 Gaussian, Inc. access to this program.  By using this program,
 the user acknowledges that Gaussian, Inc. is engaged in the
 business of creating and licensing software in the field of
 computational chemistry and represents and warrants to the
 licensee that it is not a competitor of Gaussian, Inc. and that
 it will not use this program in any manner prohibited above.
 ---------------------------------------------------------------
  

 Cite this work as:
 Gaussian 09, Revision B.01,
 M. J. Frisch, G. W. Trucks, H. B. Schlegel, G. E. Scuseria, 
 M. A. Robb, J. R. Cheeseman, G. Scalmani, V. Barone, B. Mennucci, 
 G. A. Petersson, H. Nakatsuji, M. Caricato, X. Li, H. P. Hratchian, 
 A. F. Izmaylov, J. Bloino, G. Zheng, J. L. Sonnenberg, M. Hada, 
 M. Ehara, K. Toyota, R. Fukuda, J. Hasegawa, M. Ishida, T. Nakajima, 
 Y. Honda, O. Kitao, H. Nakai, T. Vreven, J. A. Montgomery, Jr., 
 J. E. Peralta, F. Ogliaro, M. Bearpark, J. J. Heyd, E. Brothers, 
 K. N. Kudin, V. N. Staroverov, T. Keith, R. Kobayashi, J. Normand, 
 K. Raghavachari, A. Rendell, J. C. Burant, S. S. Iyengar, J. Tomasi, 
 M. Cossi, N. Rega, J. M. Millam, M. Klene, J. E. Knox, J. B. Cross, 
 V. Bakken, C. Adamo, J. Jaramillo, R. Gomperts, R. E. Stratmann, 
 O. Yazyev, A. J. Austin, R. Cammi, C. Pomelli, J. W. Ochterski, 
 R. L. Martin, K. Morokuma, V. G. Zakrzewski, G. A. Voth, 
 P. Salvador, J. J. Dannenberg, S. Dapprich, A. D. Daniels, 
 O. Farkas, J. B. Foresman, J. V. Ortiz, J. Cioslowski, 
 and D. J. Fox, Gaussian, Inc., Wallingford CT, 2010.
 
 ******************************************
 Gaussian 09:  EM64L-G09RevB.01 12-Aug-2010
                29-Nov-2021 
 ******************************************
 %nproc=8
 Will use up to    8 processors via shared memory.
 %mem=8GB
 -----------------------------------------------------
 # qcisd/aug-cc-pvtz nosymm density=current output=wfn
 -----------------------------------------------------
 1/30=1,38=1/1;
 2/12=2,15=1,17=6,18=5,40=1/2;
 3/5=16,6=1,7=10,11=9,16=1,25=1,30=1,71=1/1,2,3;
 4//1;
 5/5=2,38=5/2;
 8/6=4,9=120000,10=1/1,4;
 9/5=8,15=1/13;
 11/28=-7,31=1,32=3,42=3/11;
 10/5=6,13=10,31=1/2;
 6/7=2,8=2,9=2,10=2,22=-1,31=1/1;
 99/5=1,6=1100,9=1/99;
 ------------------
 br2cs-wavefunction
 ------------------
 Symbolic Z-matrix:
 Charge =  0 Multiplicity = 1
 C                     0.        0.       -0.51945 
 S                     0.        0.        1.09369 
 Br                    0.       -1.56852  -1.57857 
 Br                    0.        1.56852  -1.57857 
 
                          Input orientation:                          
 ---------------------------------------------------------------------
 Center     Atomic      Atomic             Coordinates (Angstroms)
 Number     Number       Type             X           Y           Z
 ---------------------------------------------------------------------
      1          6           0        0.000000    0.000000   -0.519451
      2         16           0        0.000000    0.000000    1.093692
      3         35           0        0.000000   -1.568516   -1.578570
      4         35           0        0.000000    1.568516   -1.578570
 ---------------------------------------------------------------------
                    Distance matrix (angstroms):
                    1          2          3          4
     1  C    0.000000
     2  S    1.613143   0.000000
     3  Br   1.892611   3.098585   0.000000
     4  Br   1.892611   3.098585   3.137032   0.000000
 Symmetry turned off by external request.
 Stoichiometry    CBr2S
 Framework group  C2V[C2(CS),SGV(Br2)]
 Deg. of freedom     3
 Full point group                 C2V     NOp   4
 Rotational constants (GHZ):      2.6045068      1.3014616      0.8678170
 Standard basis: Aug-CC-pVTZ (5D, 7F)
 Integral buffers will be    131072 words long.
 Raffenetti 1 integral format.
 Two-electron integral symmetry is turned off.
   214 basis functions,   620 primitive gaussians,   252 cartesian basis functions
    46 alpha electrons       46 beta electrons
       nuclear repulsion energy       546.8404450236 Hartrees.
 NAtoms=    4 NActive=    4 NUniq=    4 SFac= 1.00D+00 NAtFMM=   50 NAOKFM=F Big=F
 One-electron integrals computed using PRISM.
 NBasis=   214 RedAO= T  NBF=   214
 NBsUse=   214 1.00D-06 NBFU=   214
 Harris functional with IExCor=  205 diagonalized for initial guess.
 ExpMin= 3.51D-02 ExpMax= 1.06D+07 ExpMxC= 1.21D+04 IAcc=3 IRadAn=         0 AccDes= 0.00D+00
 HarFok:  IExCor=  205 AccDes= 0.00D+00 IRadAn=         0 IDoV= 1
 ScaDFX=  1.000000  1.000000  1.000000  1.000000
 FoFCou: FMM=F IPFlag=           0 FMFlag=      100000 FMFlg1=           0
         NFxFlg=           0 DoJE=T BraDBF=F KetDBF=T FulRan=T
         Omega=  0.000000  0.000000  1.000000  0.000000  0.000000 ICntrl=     500 IOpCl=  0
         NMat0=    1 NMatS0=    1 NMatT0=    0 NMatD0=    1 NMtDS0=    0 NMtDT0=    0
         I1Cent=           4 NGrid=           0.
 Symmetry not used in FoFCou.
 Requested convergence on RMS density matrix=1.00D-08 within 128 cycles.
 Requested convergence on MAX density matrix=1.00D-06.
 Requested convergence on             energy=1.00D-06.
 No special actions if energy rises.
 Keep R1 ints in memory in canonical form, NReq=516428601.
 SCF Done:  E(RHF) =  -5580.30825796     A.U. after   14 cycles
             Convg  =    0.3313D-08             -V/T =  2.0000
 ExpMin= 3.51D-02 ExpMax= 1.06D+07 ExpMxC= 1.21D+04 IAcc=3 IRadAn=         5 AccDes= 0.00D+00
 HarFok:  IExCor=  205 AccDes= 0.00D+00 IRadAn=         5 IDoV=-2
 ScaDFX=  1.000000  1.000000  1.000000  1.000000
 DSYEVD returned Info=          89 IAlg= 4 N=    59 NDim=    59 NE2=    18196455 trying DSYEV.
 Range of M.O.s used for correlation:    25   214
 NBasis=   214 NAE=    46 NBE=    46 NFC=    24 NFV=     0
 NROrb=    190 NOA=    22 NOB=    22 NVA=   168 NVB=   168

 **** Warning!!: The largest alpha MO coefficient is  0.30763063D+02

 Semi-Direct transformation.
 ModeAB=           2 MOrb=            22 LenV=    1072457139
 LASXX=     69628944 LTotXX=    69628944 LenRXX=    69628944
 LTotAB=    70719517 MaxLAS=   133250040 LenRXY=   133250040
 NonZer=   139257888 LenScr=   209707008 LnRSAI=           0
 LnScr1=           0 LExtra=           0 Total=    412585992
 MaxDsk=          -1 SrtSym=           F ITran=            4
 JobTyp=0 Pass  1:  I=   1 to  22.
 (rs|ai) integrals will be sorted in core.
 Spin components of T(2) and E(2):
     alpha-alpha T2 =       0.4297431776D-01 E2=     -0.1154287181D+00
     alpha-beta  T2 =       0.2172666823D+00 E2=     -0.5796278871D+00
     beta-beta   T2 =       0.4297431776D-01 E2=     -0.1154287181D+00
 ANorm=    0.1141584564D+01
 E2 =    -0.8104853234D+00 EUMP2 =    -0.55811187432805D+04
 R2 and R3 integrals will be kept in memory, NReq=  1024335774.
 Iterations=  50 Convergence= 0.100D-07
 Iteration Nr.   1
 **********************
 DD1Dir will call FoFMem   1 times, MxPair=       506
 NAB=   253 NAA=     0 NBB=     0.
 MP4(R+Q)=  0.23557369D-01
 E3=       -0.12016377D-01        EUMP3=      -0.55811307597D+04
 E4(DQ)=   -0.55428166D-03        UMP4(DQ)=   -0.55811313139D+04
 E4(SDQ)=  -0.10335721D-01        UMP4(SDQ)=  -0.55811410954D+04
 DE(Corr)= -0.79894433     E(Corr)=     -5581.1072023    
 NORM(A)=   0.11413034D+01
 Iteration Nr.   2
 **********************
 DD1Dir will call FoFMem   1 times, MxPair=       506
 NAB=   253 NAA=     0 NBB=     0.
 DE(Corr)= -0.82793317     E(CORR)=     -5581.1361911     Delta=-2.90D-02
 NORM(A)=   0.11535851D+01
 Iteration Nr.   3
 **********************
 DD1Dir will call FoFMem   1 times, MxPair=       506
 NAB=   253 NAA=     0 NBB=     0.
 DE(Corr)= -0.82645904     E(CORR)=     -5581.1347170     Delta= 1.47D-03
 NORM(A)=   0.11564841D+01
 Iteration Nr.   4
 **********************
 DD1Dir will call FoFMem   1 times, MxPair=       506
 NAB=   253 NAA=     0 NBB=     0.
 DE(Corr)= -0.82885031     E(CORR)=     -5581.1371083     Delta=-2.39D-03
 NORM(A)=   0.11578282D+01
 Iteration Nr.   5
 **********************
 DD1Dir will call FoFMem   1 times, MxPair=       506
 NAB=   253 NAA=     0 NBB=     0.
 DE(Corr)= -0.82916833     E(CORR)=     -5581.1374263     Delta=-3.18D-04
 NORM(A)=   0.11584839D+01
 Iteration Nr.   6
 **********************
 DD1Dir will call FoFMem   1 times, MxPair=       506
 NAB=   253 NAA=     0 NBB=     0.
 DE(Corr)= -0.82923454     E(CORR)=     -5581.1374925     Delta=-6.62D-05
 NORM(A)=   0.11585659D+01
 Iteration Nr.   7
 **********************
 DD1Dir will call FoFMem   1 times, MxPair=       506
 NAB=   253 NAA=     0 NBB=     0.
 DE(Corr)= -0.82924657     E(CORR)=     -5581.1375045     Delta=-1.20D-05
 NORM(A)=   0.11585808D+01
 Iteration Nr.   8
 **********************
 DD1Dir will call FoFMem   1 times, MxPair=       506
 NAB=   253 NAA=     0 NBB=     0.
 DE(Corr)= -0.82924319     E(CORR)=     -5581.1375012     Delta= 3.37D-06
 NORM(A)=   0.11585895D+01
 Iteration Nr.   9
 **********************
 DD1Dir will call FoFMem   1 times, MxPair=       506
 NAB=   253 NAA=     0 NBB=     0.
 DE(Corr)= -0.82924420     E(CORR)=     -5581.1375022     Delta=-1.00D-06
 NORM(A)=   0.11585894D+01
 Iteration Nr.  10
 **********************
 DD1Dir will call FoFMem   1 times, MxPair=       506
 NAB=   253 NAA=     0 NBB=     0.
 DE(Corr)= -0.82924468     E(CORR)=     -5581.1375026     Delta=-4.83D-07
 NORM(A)=   0.11585930D+01
 Iteration Nr.  11
 **********************
 DD1Dir will call FoFMem   1 times, MxPair=       506
 NAB=   253 NAA=     0 NBB=     0.
 DE(Corr)= -0.82924603     E(CORR)=     -5581.1375040     Delta=-1.35D-06
 NORM(A)=   0.11585949D+01
 Iteration Nr.  12
 **********************
 DD1Dir will call FoFMem   1 times, MxPair=       506
 NAB=   253 NAA=     0 NBB=     0.
 DE(Corr)= -0.82924619     E(CORR)=     -5581.1375041     Delta=-1.54D-07
 NORM(A)=   0.11585965D+01
 Iteration Nr.  13
 **********************
 DD1Dir will call FoFMem   1 times, MxPair=       506
 NAB=   253 NAA=     0 NBB=     0.
 DE(Corr)= -0.82924680     E(CORR)=     -5581.1375048     Delta=-6.17D-07
 NORM(A)=   0.11585975D+01
 Iteration Nr.  14
 **********************
 DD1Dir will call FoFMem   1 times, MxPair=       506
 NAB=   253 NAA=     0 NBB=     0.
 DE(Corr)= -0.82924682     E(CORR)=     -5581.1375048     Delta=-1.12D-08
 NORM(A)=   0.11585979D+01
 Iteration Nr.  15
 **********************
 DD1Dir will call FoFMem   1 times, MxPair=       506
 NAB=   253 NAA=     0 NBB=     0.
 DE(Corr)= -0.82924693     E(CORR)=     -5581.1375049     Delta=-1.19D-07
 NORM(A)=   0.11585981D+01
 Iteration Nr.  16
 **********************
 DD1Dir will call FoFMem   1 times, MxPair=       506
 NAB=   253 NAA=     0 NBB=     0.
 DE(Corr)= -0.82924696     E(CORR)=     -5581.1375049     Delta=-2.55D-08
 NORM(A)=   0.11585982D+01
 Iteration Nr.  17
 **********************
 DD1Dir will call FoFMem   1 times, MxPair=       506
 NAB=   253 NAA=     0 NBB=     0.
 DE(Corr)= -0.82924695     E(CORR)=     -5581.1375049     Delta= 1.12D-08
 NORM(A)=   0.11585982D+01
 Iteration Nr.  18
 **********************
 DD1Dir will call FoFMem   1 times, MxPair=       506
 NAB=   253 NAA=     0 NBB=     0.
 DE(Corr)= -0.82924696     E(CORR)=     -5581.1375049     Delta=-1.51D-08
 NORM(A)=   0.11585982D+01
 Iteration Nr.  19
 **********************
 DD1Dir will call FoFMem   1 times, MxPair=       506
 NAB=   253 NAA=     0 NBB=     0.
 DE(Corr)= -0.82924695     E(CORR)=     -5581.1375049     Delta= 9.30D-09
 NORM(A)=   0.11585982D+01
 Iteration Nr.  20
 **********************
 DD1Dir will call FoFMem   1 times, MxPair=       506
 NAB=   253 NAA=     0 NBB=     0.
 DE(Corr)= -0.82924696     E(CORR)=     -5581.1375049     Delta=-4.41D-09
 NORM(A)=   0.11585982D+01
 Iteration Nr.  21
 **********************
 DD1Dir will call FoFMem   1 times, MxPair=       506
 NAB=   253 NAA=     0 NBB=     0.
 DE(Corr)= -0.82924696     E(CORR)=     -5581.1375049     Delta= 1.19D-10
 NORM(A)=   0.11585982D+01
 Largest amplitude= 7.88D-02

 Z-AMPLITUDE ITERATIONS

 Iteration Nr.   1
 **********************
 DD1Dir will call FoFMem   1 times, MxPair=       506
 NAB=   253 NAA=     0 NBB=     0.
 DE(Z)  -0.79844023D+00          E(Z)=    -0.55811066982D+04
 NORM(A)=   0.11591698D+01
 Iteration Nr.   2
 **********************
 DD1Dir will call FoFMem   1 times, MxPair=       506
 NAB=   253 NAA=     0 NBB=     0.
 DE(Z)  -0.79844361D+00          E(Z)=    -0.55811067016D+04
 NORM(A)=   0.11632968D+01
 Iteration Nr.   3
 **********************
 DD1Dir will call FoFMem   1 times, MxPair=       506
 NAB=   253 NAA=     0 NBB=     0.
 DE(Z)  -0.79846474D+00          E(Z)=    -0.55811067227D+04
 NORM(A)=   0.11601753D+01
 Iteration Nr.   4
 **********************
 DD1Dir will call FoFMem   1 times, MxPair=       506
 NAB=   253 NAA=     0 NBB=     0.
 DE(Z)  -0.79844992D+00          E(Z)=    -0.55811067079D+04
 NORM(A)=   0.11803834D+01
 Iteration Nr.   5
 **********************
 DD1Dir will call FoFMem   1 times, MxPair=       506
 NAB=   253 NAA=     0 NBB=     0.
 DE(Z)  -0.79861011D+00          E(Z)=    -0.55811068681D+04
 NORM(A)=   0.11452264D+01
 Iteration Nr.   6
 **********************
 DD1Dir will call FoFMem   1 times, MxPair=       506
 NAB=   253 NAA=     0 NBB=     0.
 DE(Z)  -0.79833769D+00          E(Z)=    -0.55811065956D+04
 NORM(A)=   0.11452264D+01
 Iteration Nr.   7
 **********************
 DD1Dir will call FoFMem   1 times, MxPair=       506
 NAB=   253 NAA=     0 NBB=     0.
 DE(Z)  -0.79833379D+00          E(Z)=    -0.55811065917D+04
 NORM(A)=   0.11452249D+01
 Iteration Nr.   8
 **********************
 DD1Dir will call FoFMem   1 times, MxPair=       506
 NAB=   253 NAA=     0 NBB=     0.
 DE(Z)  -0.79833520D+00          E(Z)=    -0.55811065932D+04
 NORM(A)=   0.11452252D+01
 Iteration Nr.   9
 **********************
 DD1Dir will call FoFMem   1 times, MxPair=       506
 NAB=   253 NAA=     0 NBB=     0.
 DE(Z)  -0.79833487D+00          E(Z)=    -0.55811065928D+04
 NORM(A)=   0.11452256D+01
 Iteration Nr.  10
 **********************
 DD1Dir will call FoFMem   1 times, MxPair=       506
 NAB=   253 NAA=     0 NBB=     0.
 DE(Z)  -0.79833488D+00          E(Z)=    -0.55811065928D+04
 NORM(A)=   0.11452262D+01
 Iteration Nr.  11
 **********************
 DD1Dir will call FoFMem   1 times, MxPair=       506
 NAB=   253 NAA=     0 NBB=     0.
 DE(Z)  -0.79833493D+00          E(Z)=    -0.55811065929D+04
 NORM(A)=   0.11452264D+01
 Iteration Nr.  12
 **********************
 DD1Dir will call FoFMem   1 times, MxPair=       506
 NAB=   253 NAA=     0 NBB=     0.
 DE(Z)  -0.79833491D+00          E(Z)=    -0.55811065929D+04
 NORM(A)=   0.11452265D+01
 Iteration Nr.  13
 **********************
 DD1Dir will call FoFMem   1 times, MxPair=       506
 NAB=   253 NAA=     0 NBB=     0.
 DE(Z)  -0.79833495D+00          E(Z)=    -0.55811065929D+04
 NORM(A)=   0.11452265D+01
 Iteration Nr.  14
 **********************
 DD1Dir will call FoFMem   1 times, MxPair=       506
 NAB=   253 NAA=     0 NBB=     0.
 DE(Z)  -0.79833494D+00          E(Z)=    -0.55811065929D+04
 NORM(A)=   0.11452265D+01
 Iteration Nr.  15
 **********************
 DD1Dir will call FoFMem   1 times, MxPair=       506
 NAB=   253 NAA=     0 NBB=     0.
 DE(Z)  -0.79833495D+00          E(Z)=    -0.55811065929D+04
 NORM(A)=   0.11452265D+01
 Iteration Nr.  16
 **********************
 DD1Dir will call FoFMem   1 times, MxPair=       506
 NAB=   253 NAA=     0 NBB=     0.
 DE(Z)  -0.79833494D+00          E(Z)=    -0.55811065929D+04
 NORM(A)=   0.11452264D+01
 Iteration Nr.  17
 **********************
 DD1Dir will call FoFMem   1 times, MxPair=       506
 NAB=   253 NAA=     0 NBB=     0.
 DE(Z)  -0.79833497D+00          E(Z)=    -0.55811065929D+04
 NORM(A)=   0.11452265D+01
 Iteration Nr.  18
 **********************
 DD1Dir will call FoFMem   1 times, MxPair=       506
 NAB=   253 NAA=     0 NBB=     0.
 DE(Z)  -0.79833494D+00          E(Z)=    -0.55811065929D+04
 NORM(A)=   0.11452265D+01
 Iteration Nr.  19
 **********************
 DD1Dir will call FoFMem   1 times, MxPair=       506
 NAB=   253 NAA=     0 NBB=     0.
 DE(Z)  -0.79833494D+00          E(Z)=    -0.55811065929D+04
 NORM(A)=   0.11452265D+01
 Discarding MO integrals.
          Differentiating once with respect to electric field.
                with respect to dipole field.
          Electric field/nuclear overlap derivatives assumed to be zero.
          Keep R1 ints in memory in canonical form, NReq=510060614.
          There are     1 degrees of freedom in the 1st order CPHF.  IDoFFX=0.
 LinEq1:  Iter=  0 NonCon=     1 RMS=1.79D-03 Max=6.65D-02
 AX will form     1 AO Fock derivatives at one time.
 LinEq1:  Iter=  1 NonCon=     1 RMS=8.42D-04 Max=1.83D-02
 LinEq1:  Iter=  2 NonCon=     1 RMS=3.85D-04 Max=1.51D-02
 LinEq1:  Iter=  3 NonCon=     1 RMS=1.27D-04 Max=4.21D-03
 LinEq1:  Iter=  4 NonCon=     1 RMS=4.95D-05 Max=1.14D-03
 LinEq1:  Iter=  5 NonCon=     1 RMS=9.81D-06 Max=1.73D-04
 LinEq1:  Iter=  6 NonCon=     1 RMS=3.65D-06 Max=1.29D-04
 LinEq1:  Iter=  7 NonCon=     1 RMS=8.61D-07 Max=3.27D-05
 LinEq1:  Iter=  8 NonCon=     1 RMS=1.69D-07 Max=4.60D-06
 LinEq1:  Iter=  9 NonCon=     1 RMS=3.91D-08 Max=7.61D-07
 LinEq1:  Iter= 10 NonCon=     1 RMS=1.03D-08 Max=2.52D-07
 LinEq1:  Iter= 11 NonCon=     1 RMS=2.05D-09 Max=5.35D-08
 LinEq1:  Iter= 12 NonCon=     1 RMS=3.68D-10 Max=8.79D-09
 LinEq1:  Iter= 13 NonCon=     1 RMS=6.34D-11 Max=1.02D-09
 LinEq1:  Iter= 14 NonCon=     0 RMS=1.76D-11 Max=3.83D-10
 Linear equations converged to 1.000D-10 1.000D-09 after    14 iterations.
 End of Minotr Frequency-dependent properties file   721 does not exist.
 End of Minotr Frequency-dependent properties file   722 does not exist.

 **********************************************************************

            Population analysis using the QCI/CC density.

 **********************************************************************

     Natural Orbital Coefficients:
                           1         2         3         4         5
     Eigenvalues --     2.00003   2.00002   2.00002   2.00002   2.00001
   1 1   C  1S          0.00000  -0.17165   0.31789   0.00000   0.44095
   2        2S          0.00000   0.00344  -0.00990   0.00000  -0.00643
   3        3S          0.00000  -0.00658   0.01192   0.00000   0.01787
   4        4S          0.00000  -0.01087  -0.01485   0.00000   0.00268
   5        5S          0.00000  -0.00438  -0.00485   0.00000   0.00368
   6        6PX         0.00000   0.00000   0.00000   0.00000   0.00000
   7        6PY        -0.00116   0.00000   0.00000  -0.00301   0.00000
   8        6PZ         0.00000   0.00099   0.00151   0.00000  -0.00207
   9        7PX         0.00000   0.00000   0.00000   0.00000   0.00000
  10        7PY        -0.00125   0.00000   0.00000  -0.00518   0.00000
  11        7PZ         0.00000  -0.00050   0.00388   0.00000  -0.00035
  12        8PX         0.00000   0.00000   0.00000   0.00000   0.00000
  13        8PY         0.01257   0.00000   0.00000  -0.00432   0.00000
  14        8PZ         0.00000  -0.00928   0.00638   0.00000   0.00759
  15        9PX         0.00000   0.00000   0.00000   0.00000   0.00000
  16        9PY         0.00358   0.00000   0.00000   0.00040   0.00000
  17        9PZ         0.00000   0.00008   0.00083   0.00000   0.00110
  18       10D 0        0.00000  -0.00007   0.00011   0.00000   0.00005
  19       10D+1        0.00000   0.00000   0.00000   0.00000   0.00000
  20       10D-1       -0.00035   0.00000   0.00000   0.00035   0.00000
  21       10D+2        0.00000   0.00003   0.00012   0.00000  -0.00024
  22       10D-2        0.00000   0.00000   0.00000   0.00000   0.00000
  23       11D 0        0.00000  -0.00111  -0.00033   0.00000   0.00010
  24       11D+1        0.00000   0.00000   0.00000   0.00000   0.00000
  25       11D-1       -0.00004   0.00000   0.00000   0.00113   0.00000
  26       11D+2        0.00000  -0.00003   0.00160   0.00000   0.00072
  27       11D-2        0.00000   0.00000   0.00000   0.00000   0.00000
  28       12D 0        0.00000  -0.00416   0.00100   0.00000   0.00420
  29       12D+1        0.00000   0.00000   0.00000   0.00000   0.00000
  30       12D-1       -0.00627   0.00000   0.00000   0.00309   0.00000
  31       12D+2        0.00000  -0.00150   0.00200   0.00000   0.00193
  32       12D-2        0.00000   0.00000   0.00000   0.00000   0.00000
  33       13F 0        0.00000  -0.00001   0.00001   0.00000  -0.00006
  34       13F+1        0.00000   0.00000   0.00000   0.00000   0.00000
  35       13F-1       -0.00031   0.00000   0.00000  -0.00007   0.00000
  36       13F+2        0.00000  -0.00007   0.00001   0.00000   0.00009
  37       13F-2        0.00000   0.00000   0.00000   0.00000   0.00000
  38       13F+3        0.00000   0.00000   0.00000   0.00000   0.00000
  39       13F-3        0.00006   0.00000   0.00000  -0.00007   0.00000
  40       14F 0        0.00000   0.00015  -0.00011   0.00000  -0.00100
  41       14F+1        0.00000   0.00000   0.00000   0.00000   0.00000
  42       14F-1        0.00184   0.00000   0.00000   0.00072   0.00000
  43       14F+2        0.00000   0.00043  -0.00036   0.00000  -0.00103
  44       14F-2        0.00000   0.00000   0.00000   0.00000   0.00000
  45       14F+3        0.00000   0.00000   0.00000   0.00000   0.00000
  46       14F-3       -0.00028   0.00000   0.00000   0.00021   0.00000
  47 2   S  1S          0.00000  -0.22050  -0.00833   0.00000  -0.12667
  48        2S          0.00000   0.75363   0.02898   0.00000   0.43738
  49        3S          0.00000  -0.02073  -0.00106   0.00000  -0.00659
  50        4S          0.00000   0.05053   0.00189   0.00000   0.03135
  51        5S          0.00000   0.01101  -0.00102   0.00000  -0.01265
  52        6S          0.00000   0.00152   0.00029   0.00000  -0.00339
  53        7PX         0.00000   0.00000   0.00000   0.00000   0.00000
  54        7PY         0.97033   0.00000   0.00000   0.09546   0.00000
  55        7PZ         0.00000   0.61120   0.02280   0.00000  -0.41084
  56        8PX         0.00000   0.00000   0.00000   0.00000   0.00000
  57        8PY        -0.01882   0.00000   0.00000  -0.00127   0.00000
  58        8PZ         0.00000  -0.01206  -0.00060   0.00000   0.00693
  59        9PX         0.00000   0.00000   0.00000   0.00000   0.00000
  60        9PY         0.05624   0.00000   0.00000   0.00583   0.00000
  61        9PZ         0.00000   0.03765   0.00149   0.00000  -0.02677
  62       10PX         0.00000   0.00000   0.00000   0.00000   0.00000
  63       10PY        -0.00360   0.00000   0.00000  -0.00107   0.00000
  64       10PZ         0.00000  -0.00832  -0.00069   0.00000   0.00438
  65       11PX         0.00000   0.00000   0.00000   0.00000   0.00000
  66       11PY        -0.00128   0.00000   0.00000  -0.00007   0.00000
  67       11PZ         0.00000  -0.00021  -0.00021   0.00000   0.00021
  68       12D 0        0.00000   0.00222   0.00019   0.00000  -0.00182
  69       12D+1        0.00000   0.00000   0.00000   0.00000   0.00000
  70       12D-1        0.00265   0.00000   0.00000   0.00070   0.00000
  71       12D+2        0.00000  -0.00039  -0.00006   0.00000   0.00012
  72       12D-2        0.00000   0.00000   0.00000   0.00000   0.00000
  73       13D 0        0.00000   0.00016  -0.00015   0.00000   0.00018
  74       13D+1        0.00000   0.00000   0.00000   0.00000   0.00000
  75       13D-1       -0.00037   0.00000   0.00000   0.00018   0.00000
  76       13D+2        0.00000   0.00031   0.00002   0.00000   0.00013
  77       13D-2        0.00000   0.00000   0.00000   0.00000   0.00000
  78       14D 0        0.00000   0.00118   0.00027   0.00000  -0.00033
  79       14D+1        0.00000   0.00000   0.00000   0.00000   0.00000
  80       14D-1       -0.00081   0.00000   0.00000   0.00022   0.00000
  81       14D+2        0.00000   0.00049  -0.00036   0.00000  -0.00031
  82       14D-2        0.00000   0.00000   0.00000   0.00000   0.00000
  83       15F 0        0.00000  -0.00018   0.00010   0.00000   0.00016
  84       15F+1        0.00000   0.00000   0.00000   0.00000   0.00000
  85       15F-1       -0.00015   0.00000   0.00000  -0.00011   0.00000
  86       15F+2        0.00000   0.00012   0.00002   0.00000  -0.00015
  87       15F-2        0.00000   0.00000   0.00000   0.00000   0.00000
  88       15F+3        0.00000   0.00000   0.00000   0.00000   0.00000
  89       15F-3        0.00011   0.00000   0.00000   0.00000   0.00000
  90       16F 0        0.00000  -0.00042  -0.00006   0.00000   0.00026
  91       16F+1        0.00000   0.00000   0.00000   0.00000   0.00000
  92       16F-1       -0.00084   0.00000   0.00000  -0.00009   0.00000
  93       16F+2        0.00000  -0.00013   0.00012   0.00000   0.00002
  94       16F-2        0.00000   0.00000   0.00000   0.00000   0.00000
  95       16F+3        0.00000   0.00000   0.00000   0.00000   0.00000
  96       16F-3       -0.00019   0.00000   0.00000   0.00001   0.00000
  97 3   Br 1S          0.00045   0.00074  -0.03995   0.03723   0.05855
  98        2S         -0.00178  -0.00275   0.14782  -0.13770  -0.21792
  99        3S          0.00404   0.00602  -0.31017   0.28763   0.46887
 100        4S         -0.00096  -0.00019  -0.00082   0.00067   0.00238
 101        5S         -0.00012   0.00017  -0.01682   0.01549   0.02268
 102        6S          0.01020  -0.00194   0.00553  -0.00306   0.00699
 103        7S          0.00675   0.00105   0.00242   0.00056  -0.00036
 104        8PX         0.00000   0.00000   0.00000   0.00000   0.00000
 105        8PY         0.02299   0.00499   0.20278  -0.22271   0.03526
 106        8PZ         0.02008   0.00621   0.13016  -0.13419   0.00907
 107        9PX         0.00000   0.00000   0.00000   0.00000   0.00000
 108        9PY        -0.06087  -0.01288  -0.52702   0.58082  -0.10608
 109        9PZ        -0.05415  -0.01691  -0.33892   0.34828  -0.02978
 110       10PX         0.00000   0.00000   0.00000   0.00000   0.00000
 111       10PY         0.00066  -0.00050   0.00265  -0.00088   0.00090
 112       10PZ        -0.00051  -0.00039   0.00140  -0.00136   0.00087
 113       11PX         0.00000   0.00000   0.00000   0.00000   0.00000
 114       11PY        -0.00337  -0.00064  -0.02502   0.02745  -0.00485
 115       11PZ        -0.00313  -0.00099  -0.01620   0.01646  -0.00127
 116       12PX         0.00000   0.00000   0.00000   0.00000   0.00000
 117       12PY         0.00465   0.00016   0.00157   0.00109  -0.00045
 118       12PZ         0.00202  -0.00163   0.00127   0.00026   0.00183
 119       13PX         0.00000   0.00000   0.00000   0.00000   0.00000
 120       13PY         0.00068   0.00024   0.00044   0.00002  -0.00006
 121       13PZ         0.00056   0.00012   0.00017   0.00001  -0.00022
 122       14D 0        0.00001  -0.00001   0.00162  -0.00155  -0.00055
 123       14D+1        0.00000   0.00000   0.00000   0.00000   0.00000
 124       14D-1       -0.00306  -0.00090  -0.02816   0.03042   0.00003
 125       14D+2        0.00191   0.00066   0.01793  -0.01927  -0.00082
 126       14D-2        0.00000   0.00000   0.00000   0.00000   0.00000
 127       15D 0        0.00006   0.00000   0.00021  -0.00009  -0.00004
 128       15D+1        0.00000   0.00000   0.00000   0.00000   0.00000
 129       15D-1       -0.00023  -0.00010  -0.00278   0.00294   0.00020
 130       15D+2        0.00012   0.00011   0.00189  -0.00189  -0.00026
 131       15D-2        0.00000   0.00000   0.00000   0.00000   0.00000
 132       16D 0       -0.00002   0.00019  -0.00001  -0.00017  -0.00020
 133       16D+1        0.00000   0.00000   0.00000   0.00000   0.00000
 134       16D-1        0.00034   0.00009   0.00109  -0.00057   0.00035
 135       16D+2       -0.00041  -0.00001  -0.00085   0.00034  -0.00010
 136       16D-2        0.00000   0.00000   0.00000   0.00000   0.00000
 137       17D 0       -0.00009  -0.00024   0.00003   0.00017   0.00033
 138       17D+1        0.00000   0.00000   0.00000   0.00000   0.00000
 139       17D-1        0.00116  -0.00022   0.00063  -0.00025   0.00029
 140       17D+2       -0.00062  -0.00023  -0.00044  -0.00015   0.00026
 141       17D-2        0.00000   0.00000   0.00000   0.00000   0.00000
 142       18F 0        0.00008   0.00002   0.00025  -0.00031  -0.00002
 143       18F+1        0.00000   0.00000   0.00000   0.00000   0.00000
 144       18F-1       -0.00004   0.00000  -0.00011   0.00013   0.00003
 145       18F+2        0.00001   0.00004   0.00040  -0.00044  -0.00007
 146       18F-2        0.00000   0.00000   0.00000   0.00000   0.00000
 147       18F+3        0.00000   0.00000   0.00000   0.00000   0.00000
 148       18F-3       -0.00006   0.00003   0.00021  -0.00023  -0.00005
 149       19F 0       -0.00002   0.00006  -0.00032   0.00033  -0.00025
 150       19F+1        0.00000   0.00000   0.00000   0.00000   0.00000
 151       19F-1       -0.00004   0.00006   0.00018  -0.00027  -0.00003
 152       19F+2        0.00000  -0.00006  -0.00059   0.00046  -0.00006
 153       19F-2        0.00000   0.00000   0.00000   0.00000   0.00000
 154       19F+3        0.00000   0.00000   0.00000   0.00000   0.00000
 155       19F-3        0.00006  -0.00008  -0.00034   0.00017   0.00009
 156 4   Br 1S         -0.00045   0.00074  -0.03995  -0.03723   0.05855
 157        2S          0.00178  -0.00275   0.14782   0.13770  -0.21792
 158        3S         -0.00404   0.00602  -0.31017  -0.28763   0.46887
 159        4S          0.00096  -0.00019  -0.00082  -0.00067   0.00238
 160        5S          0.00012   0.00017  -0.01682  -0.01549   0.02268
 161        6S         -0.01020  -0.00194   0.00553   0.00306   0.00699
 162        7S         -0.00675   0.00105   0.00242  -0.00056  -0.00036
 163        8PX         0.00000   0.00000   0.00000   0.00000   0.00000
 164        8PY         0.02299  -0.00499  -0.20278  -0.22271  -0.03526
 165        8PZ        -0.02008   0.00621   0.13016   0.13419   0.00907
 166        9PX         0.00000   0.00000   0.00000   0.00000   0.00000
 167        9PY        -0.06087   0.01288   0.52702   0.58082   0.10608
 168        9PZ         0.05415  -0.01691  -0.33892  -0.34828  -0.02978
 169       10PX         0.00000   0.00000   0.00000   0.00000   0.00000
 170       10PY         0.00066   0.00050  -0.00265  -0.00088  -0.00090
 171       10PZ         0.00051  -0.00039   0.00140   0.00136   0.00087
 172       11PX         0.00000   0.00000   0.00000   0.00000   0.00000
 173       11PY        -0.00337   0.00064   0.02502   0.02745   0.00485
 174       11PZ         0.00313  -0.00099  -0.01620  -0.01646  -0.00127
 175       12PX         0.00000   0.00000   0.00000   0.00000   0.00000
 176       12PY         0.00465  -0.00016  -0.00157   0.00109   0.00045
 177       12PZ        -0.00202  -0.00163   0.00127  -0.00026   0.00183
 178       13PX         0.00000   0.00000   0.00000   0.00000   0.00000
 179       13PY         0.00068  -0.00024  -0.00044   0.00002   0.00006
 180       13PZ        -0.00056   0.00012   0.00017  -0.00001  -0.00022
 181       14D 0       -0.00001  -0.00001   0.00162   0.00155  -0.00055
 182       14D+1        0.00000   0.00000   0.00000   0.00000   0.00000
 183       14D-1       -0.00306   0.00090   0.02816   0.03042  -0.00003
 184       14D+2       -0.00191   0.00066   0.01793   0.01927  -0.00082
 185       14D-2        0.00000   0.00000   0.00000   0.00000   0.00000
 186       15D 0       -0.00006   0.00000   0.00021   0.00009  -0.00004
 187       15D+1        0.00000   0.00000   0.00000   0.00000   0.00000
 188       15D-1       -0.00023   0.00010   0.00278   0.00294  -0.00020
 189       15D+2       -0.00012   0.00011   0.00189   0.00189  -0.00026
 190       15D-2        0.00000   0.00000   0.00000   0.00000   0.00000
 191       16D 0        0.00002   0.00019  -0.00001   0.00017  -0.00020
 192       16D+1        0.00000   0.00000   0.00000   0.00000   0.00000
 193       16D-1        0.00034  -0.00009  -0.00109  -0.00057  -0.00035
 194       16D+2        0.00041  -0.00001  -0.00085  -0.00034  -0.00010
 195       16D-2        0.00000   0.00000   0.00000   0.00000   0.00000
 196       17D 0        0.00009  -0.00024   0.00003  -0.00017   0.00033
 197       17D+1        0.00000   0.00000   0.00000   0.00000   0.00000
 198       17D-1        0.00116   0.00022  -0.00063  -0.00025  -0.00029
 199       17D+2        0.00062  -0.00023  -0.00044   0.00015   0.00026
 200       17D-2        0.00000   0.00000   0.00000   0.00000   0.00000
 201       18F 0       -0.00008   0.00002   0.00025   0.00031  -0.00002
 202       18F+1        0.00000   0.00000   0.00000   0.00000   0.00000
 203       18F-1       -0.00004   0.00000   0.00011   0.00013  -0.00003
 204       18F+2       -0.00001   0.00004   0.00040   0.00044  -0.00007
 205       18F-2        0.00000   0.00000   0.00000   0.00000   0.00000
 206       18F+3        0.00000   0.00000   0.00000   0.00000   0.00000
 207       18F-3       -0.00006  -0.00003  -0.00021  -0.00023   0.00005
 208       19F 0        0.00002   0.00006  -0.00032  -0.00033  -0.00025
 209       19F+1        0.00000   0.00000   0.00000   0.00000   0.00000
 210       19F-1       -0.00004  -0.00006  -0.00018  -0.00027   0.00003
 211       19F+2        0.00000  -0.00006  -0.00059  -0.00046  -0.00006
 212       19F-2        0.00000   0.00000   0.00000   0.00000   0.00000
 213       19F+3        0.00000   0.00000   0.00000   0.00000   0.00000
 214       19F-3        0.00006   0.00008   0.00034   0.00017  -0.00009
                           6         7         8         9        10
     Eigenvalues --     2.00001   2.00001   2.00001   2.00001   2.00001
   1 1   C  1S          0.00000   0.20586   0.00000   0.00000  -0.10000
   2        2S          0.00000  -0.00422   0.00000   0.00000   0.00151
   3        3S          0.00000   0.00807   0.00000   0.00000  -0.00409
   4        4S          0.00000   0.01005   0.00000   0.00000   0.00118
   5        5S          0.00000   0.00230   0.00000   0.00000  -0.00075
   6        6PX         0.00000   0.00000   0.00000  -0.00067   0.00000
   7        6PY         0.00002   0.00000  -0.00032   0.00000   0.00000
   8        6PZ         0.00000  -0.00169   0.00000   0.00000   0.00057
   9        7PX         0.00000   0.00000   0.00000  -0.00001   0.00000
  10        7PY         0.00017   0.00000  -0.00044   0.00000   0.00000
  11        7PZ         0.00000  -0.00058   0.00000   0.00000   0.00015
  12        8PX         0.00000   0.00000   0.00000   0.00157   0.00000
  13        8PY         0.00060   0.00000  -0.00527   0.00000   0.00000
  14        8PZ         0.00000   0.00547   0.00000   0.00000   0.00926
  15        9PX         0.00000   0.00000   0.00000  -0.00090   0.00000
  16        9PY         0.00256   0.00000  -0.00120   0.00000   0.00000
  17        9PZ         0.00000   0.00145   0.00000   0.00000   0.00162
  18       10D 0        0.00000  -0.00006   0.00000   0.00000  -0.00015
  19       10D+1        0.00000   0.00000   0.00000  -0.00021   0.00000
  20       10D-1       -0.00013   0.00000  -0.00005   0.00000   0.00000
  21       10D+2        0.00000   0.00001   0.00000   0.00000  -0.00006
  22       10D-2        0.00000   0.00000   0.00000   0.00000   0.00000
  23       11D 0        0.00000   0.00035   0.00000   0.00000  -0.00029
  24       11D+1        0.00000   0.00000   0.00000   0.00052   0.00000
  25       11D-1       -0.00002   0.00000  -0.00038   0.00000   0.00000
  26       11D+2        0.00000  -0.00007   0.00000   0.00000  -0.00031
  27       11D-2        0.00000   0.00000   0.00000   0.00000   0.00000
  28       12D 0        0.00000   0.00303   0.00000   0.00000   0.00010
  29       12D+1        0.00000   0.00000   0.00000  -0.00135   0.00000
  30       12D-1        0.00099   0.00000   0.00069   0.00000   0.00000
  31       12D+2        0.00000   0.00073   0.00000   0.00000   0.00038
  32       12D-2        0.00000   0.00000   0.00000   0.00000   0.00000
  33       13F 0        0.00000  -0.00015   0.00000   0.00000  -0.00002
  34       13F+1        0.00000   0.00000   0.00000  -0.00013   0.00000
  35       13F-1        0.00002   0.00000   0.00003   0.00000   0.00000
  36       13F+2        0.00000   0.00001   0.00000   0.00000   0.00005
  37       13F-2        0.00000   0.00000   0.00000   0.00000   0.00000
  38       13F+3        0.00000   0.00000   0.00000   0.00005   0.00000
  39       13F-3       -0.00002   0.00000  -0.00003   0.00000   0.00000
  40       14F 0        0.00000  -0.00023   0.00000   0.00000   0.00049
  41       14F+1        0.00000   0.00000   0.00000   0.00094   0.00000
  42       14F-1        0.00000   0.00000  -0.00032   0.00000   0.00000
  43       14F+2        0.00000  -0.00029   0.00000   0.00000  -0.00031
  44       14F-2        0.00000   0.00000   0.00000   0.00000   0.00000
  45       14F+3        0.00000   0.00000   0.00000  -0.00031   0.00000
  46       14F-3        0.00001   0.00000   0.00022   0.00000   0.00000
  47 2   S  1S          0.00000  -0.12122   0.00000   0.00000   0.01710
  48        2S          0.00000   0.41798   0.00000   0.00000  -0.05980
  49        3S          0.00000  -0.00667   0.00000   0.00000   0.00101
  50        4S          0.00000   0.03000   0.00000   0.00000  -0.00431
  51        5S          0.00000  -0.01167   0.00000   0.00000  -0.00591
  52        6S          0.00000  -0.00375   0.00000   0.00000  -0.00410
  53        7PX         0.00000   0.00000   0.00000   0.71309   0.00000
  54        7PY         0.04506   0.00000   0.02319   0.00000   0.00000
  55        7PZ         0.00000  -0.41257   0.00000   0.00000   0.05480
  56        8PX         0.00000   0.00000   0.00000  -0.00902   0.00000
  57        8PY        -0.00053   0.00000   0.00039   0.00000   0.00000
  58        8PZ         0.00000   0.00726   0.00000   0.00000  -0.00011
  59        9PX         0.00000   0.00000   0.00000   0.04536   0.00000
  60        9PY         0.00277   0.00000   0.00137   0.00000   0.00000
  61        9PZ         0.00000  -0.02681   0.00000   0.00000   0.00351
  62       10PX         0.00000   0.00000   0.00000   0.00043   0.00000
  63       10PY        -0.00063   0.00000   0.00131   0.00000   0.00000
  64       10PZ         0.00000   0.00483   0.00000   0.00000   0.00388
  65       11PX         0.00000   0.00000   0.00000  -0.00015   0.00000
  66       11PY        -0.00047   0.00000   0.00012   0.00000   0.00000
  67       11PZ         0.00000   0.00027   0.00000   0.00000   0.00052
  68       12D 0        0.00000  -0.00193   0.00000   0.00000   0.00018
  69       12D+1        0.00000   0.00000   0.00000   0.00156   0.00000
  70       12D-1        0.00022   0.00000  -0.00045   0.00000   0.00000
  71       12D+2        0.00000  -0.00007   0.00000   0.00000   0.00008
  72       12D-2        0.00000   0.00000   0.00000   0.00000   0.00000
  73       13D 0        0.00000   0.00022   0.00000   0.00000  -0.00004
  74       13D+1        0.00000   0.00000   0.00000  -0.00018   0.00000
  75       13D-1       -0.00001   0.00000   0.00008   0.00000   0.00000
  76       13D+2        0.00000   0.00015   0.00000   0.00000  -0.00005
  77       13D-2        0.00000   0.00000   0.00000   0.00000   0.00000
  78       14D 0        0.00000  -0.00055   0.00000   0.00000  -0.00063
  79       14D+1        0.00000   0.00000   0.00000  -0.00044   0.00000
  80       14D-1        0.00015   0.00000  -0.00052   0.00000   0.00000
  81       14D+2        0.00000  -0.00009   0.00000   0.00000  -0.00010
  82       14D-2        0.00000   0.00000   0.00000   0.00000   0.00000
  83       15F 0        0.00000   0.00008   0.00000   0.00000  -0.00002
  84       15F+1        0.00000   0.00000   0.00000  -0.00018   0.00000
  85       15F-1       -0.00004   0.00000   0.00006   0.00000   0.00000
  86       15F+2        0.00000  -0.00011   0.00000   0.00000  -0.00005
  87       15F-2        0.00000   0.00000   0.00000   0.00000   0.00000
  88       15F+3        0.00000   0.00000   0.00000   0.00010   0.00000
  89       15F-3        0.00001   0.00000  -0.00001   0.00000   0.00000
  90       16F 0        0.00000   0.00036   0.00000   0.00000  -0.00022
  91       16F+1        0.00000   0.00000   0.00000  -0.00035   0.00000
  92       16F-1       -0.00003   0.00000   0.00018   0.00000   0.00000
  93       16F+2        0.00000   0.00010   0.00000   0.00000   0.00003
  94       16F-2        0.00000   0.00000   0.00000   0.00000   0.00000
  95       16F+3        0.00000   0.00000   0.00000  -0.00009   0.00000
  96       16F-3       -0.00004   0.00000   0.00002   0.00000   0.00000
  97 3   Br 1S         -0.08442  -0.05898  -0.00580   0.00000   0.00605
  98        2S          0.31442   0.21981   0.02173   0.00000  -0.02268
  99        3S         -0.67802  -0.47555  -0.04721   0.00000   0.04977
 100        4S         -0.00211  -0.00093  -0.00010   0.00000  -0.00008
 101        5S         -0.03286  -0.02282  -0.00225   0.00000   0.00235
 102        6S         -0.00624  -0.00401  -0.00325   0.00000   0.00337
 103        7S          0.00414   0.00077  -0.00207   0.00000   0.00203
 104        8PX         0.00000   0.00000   0.00000  -0.17834   0.00000
 105        8PY        -0.09706  -0.07135   0.12924   0.00000   0.15883
 106        8PZ        -0.03683  -0.09107  -0.23001   0.00000  -0.20836
 107        9PX         0.00000   0.00000   0.00000   0.50427   0.00000
 108        9PY         0.27304   0.19308  -0.36470   0.00000  -0.44144
 109        9PZ         0.10359   0.25225   0.64414   0.00000   0.58634
 110       10PX         0.00000   0.00000   0.00000   0.00119   0.00000
 111       10PY         0.00005  -0.00035  -0.00134   0.00000   0.00014
 112       10PZ        -0.00023   0.00034   0.00088   0.00000   0.00112
 113       11PX         0.00000   0.00000   0.00000   0.02266   0.00000
 114       11PY         0.01238   0.00870  -0.01621   0.00000  -0.01954
 115       11PZ         0.00465   0.01157   0.02865   0.00000   0.02602
 116       12PX         0.00000   0.00000   0.00000   0.00159   0.00000
 117       12PY         0.00208  -0.00008  -0.00357   0.00000   0.00024
 118       12PZ         0.00100   0.00191   0.00212   0.00000   0.00321
 119       13PX         0.00000   0.00000   0.00000   0.00021   0.00000
 120       13PY         0.00042   0.00010  -0.00012   0.00000   0.00048
 121       13PZ         0.00047  -0.00013  -0.00047   0.00000  -0.00006
 122       14D 0        0.00070  -0.00178  -0.00983   0.00000  -0.00972
 123       14D+1        0.00000   0.00000   0.00000  -0.00035   0.00000
 124       14D-1        0.00630   0.00762  -0.00402   0.00000  -0.00755
 125       14D+2       -0.00278  -0.00606  -0.00693   0.00000  -0.00490
 126       14D-2        0.00000   0.00000   0.00000  -0.00009   0.00000
 127       15D 0        0.00007  -0.00012  -0.00062   0.00000  -0.00058
 128       15D+1        0.00000   0.00000   0.00000  -0.00001   0.00000
 129       15D-1        0.00033   0.00060  -0.00025   0.00000  -0.00048
 130       15D+2       -0.00011  -0.00050  -0.00046   0.00000  -0.00027
 131       15D-2        0.00000   0.00000   0.00000   0.00010   0.00000
 132       16D 0        0.00004  -0.00024  -0.00025   0.00000  -0.00042
 133       16D+1        0.00000   0.00000   0.00000  -0.00015   0.00000
 134       16D-1        0.00027  -0.00002  -0.00019   0.00000  -0.00019
 135       16D+2       -0.00011  -0.00001  -0.00012   0.00000  -0.00031
 136       16D-2        0.00000   0.00000   0.00000  -0.00035   0.00000
 137       17D 0        0.00010   0.00015   0.00007   0.00000  -0.00033
 138       17D+1        0.00000   0.00000   0.00000  -0.00027   0.00000
 139       17D-1        0.00023   0.00009  -0.00032   0.00000   0.00024
 140       17D+2       -0.00031   0.00027   0.00022   0.00000  -0.00041
 141       17D-2        0.00000   0.00000   0.00000  -0.00054   0.00000
 142       18F 0       -0.00008  -0.00010   0.00005   0.00000   0.00010
 143       18F+1        0.00000   0.00000   0.00000   0.00001   0.00000
 144       18F-1        0.00001   0.00007   0.00035   0.00000   0.00032
 145       18F+2       -0.00010  -0.00016  -0.00002   0.00000   0.00003
 146       18F-2        0.00000   0.00000   0.00000   0.00018   0.00000
 147       18F+3        0.00000   0.00000   0.00000  -0.00019   0.00000
 148       18F-3       -0.00003  -0.00009   0.00013   0.00000   0.00009
 149       19F 0        0.00007  -0.00004  -0.00005   0.00000  -0.00008
 150       19F+1        0.00000   0.00000   0.00000  -0.00001   0.00000
 151       19F-1        0.00004  -0.00015  -0.00029   0.00000  -0.00041
 152       19F+2        0.00002   0.00013   0.00000   0.00000   0.00001
 153       19F-2        0.00000   0.00000   0.00000  -0.00022   0.00000
 154       19F+3        0.00000   0.00000   0.00000   0.00035   0.00000
 155       19F-3       -0.00004   0.00012  -0.00016   0.00000  -0.00010
 156 4   Br 1S          0.08442  -0.05898   0.00580   0.00000   0.00605
 157        2S         -0.31442   0.21981  -0.02173   0.00000  -0.02268
 158        3S          0.67802  -0.47555   0.04721   0.00000   0.04977
 159        4S          0.00211  -0.00093   0.00010   0.00000  -0.00008
 160        5S          0.03286  -0.02282   0.00225   0.00000   0.00235
 161        6S          0.00624  -0.00401   0.00325   0.00000   0.00337
 162        7S         -0.00414   0.00077   0.00207   0.00000   0.00203
 163        8PX         0.00000   0.00000   0.00000  -0.17834   0.00000
 164        8PY        -0.09706   0.07135   0.12924   0.00000  -0.15883
 165        8PZ         0.03683  -0.09107   0.23001   0.00000  -0.20836
 166        9PX         0.00000   0.00000   0.00000   0.50427   0.00000
 167        9PY         0.27304  -0.19308  -0.36470   0.00000   0.44144
 168        9PZ        -0.10359   0.25225  -0.64414   0.00000   0.58634
 169       10PX         0.00000   0.00000   0.00000   0.00119   0.00000
 170       10PY         0.00005   0.00035  -0.00134   0.00000  -0.00014
 171       10PZ         0.00023   0.00034  -0.00088   0.00000   0.00112
 172       11PX         0.00000   0.00000   0.00000   0.02266   0.00000
 173       11PY         0.01238  -0.00870  -0.01621   0.00000   0.01954
 174       11PZ        -0.00465   0.01157  -0.02865   0.00000   0.02602
 175       12PX         0.00000   0.00000   0.00000   0.00159   0.00000
 176       12PY         0.00208   0.00008  -0.00357   0.00000  -0.00024
 177       12PZ        -0.00100   0.00191  -0.00212   0.00000   0.00321
 178       13PX         0.00000   0.00000   0.00000   0.00021   0.00000
 179       13PY         0.00042  -0.00010  -0.00012   0.00000  -0.00048
 180       13PZ        -0.00047  -0.00013   0.00047   0.00000  -0.00006
 181       14D 0       -0.00070  -0.00178   0.00983   0.00000  -0.00972
 182       14D+1        0.00000   0.00000   0.00000  -0.00035   0.00000
 183       14D-1        0.00630  -0.00762  -0.00402   0.00000   0.00755
 184       14D+2        0.00278  -0.00606   0.00693   0.00000  -0.00490
 185       14D-2        0.00000   0.00000   0.00000   0.00009   0.00000
 186       15D 0       -0.00007  -0.00012   0.00062   0.00000  -0.00058
 187       15D+1        0.00000   0.00000   0.00000  -0.00001   0.00000
 188       15D-1        0.00033  -0.00060  -0.00025   0.00000   0.00048
 189       15D+2        0.00011  -0.00050   0.00046   0.00000  -0.00027
 190       15D-2        0.00000   0.00000   0.00000  -0.00010   0.00000
 191       16D 0       -0.00004  -0.00024   0.00025   0.00000  -0.00042
 192       16D+1        0.00000   0.00000   0.00000  -0.00015   0.00000
 193       16D-1        0.00027   0.00002  -0.00019   0.00000   0.00019
 194       16D+2        0.00011  -0.00001   0.00012   0.00000  -0.00031
 195       16D-2        0.00000   0.00000   0.00000   0.00035   0.00000
 196       17D 0       -0.00010   0.00015  -0.00007   0.00000  -0.00033
 197       17D+1        0.00000   0.00000   0.00000  -0.00027   0.00000
 198       17D-1        0.00023  -0.00009  -0.00032   0.00000  -0.00024
 199       17D+2        0.00031   0.00027  -0.00022   0.00000  -0.00041
 200       17D-2        0.00000   0.00000   0.00000   0.00054   0.00000
 201       18F 0        0.00008  -0.00010  -0.00005   0.00000   0.00010
 202       18F+1        0.00000   0.00000   0.00000   0.00001   0.00000
 203       18F-1        0.00001  -0.00007   0.00035   0.00000  -0.00032
 204       18F+2        0.00010  -0.00016   0.00002   0.00000   0.00003
 205       18F-2        0.00000   0.00000   0.00000  -0.00018   0.00000
 206       18F+3        0.00000   0.00000   0.00000  -0.00019   0.00000
 207       18F-3       -0.00003   0.00009   0.00013   0.00000  -0.00009
 208       19F 0       -0.00007  -0.00004   0.00005   0.00000  -0.00008
 209       19F+1        0.00000   0.00000   0.00000  -0.00001   0.00000
 210       19F-1        0.00004   0.00015  -0.00029   0.00000   0.00041
 211       19F+2       -0.00002   0.00013   0.00000   0.00000   0.00001
 212       19F-2        0.00000   0.00000   0.00000   0.00022   0.00000
 213       19F+3        0.00000   0.00000   0.00000   0.00035   0.00000
 214       19F-3       -0.00004  -0.00012  -0.00016   0.00000   0.00010
                          11        12        13        14        15
     Eigenvalues --     2.00001   2.00000   2.00000   2.00000   2.00000
   1 1   C  1S          0.00000   0.00000   0.76455  -0.00103   0.00000
   2        2S          0.00000   0.00000  -0.00778   0.00001   0.00000
   3        3S          0.00000   0.00000   0.03205  -0.00004   0.00000
   4        4S          0.00000   0.00000  -0.01046  -0.00016   0.00000
   5        5S          0.00000   0.00000  -0.00566   0.00007   0.00000
   6        6PX         0.00000  -0.00153   0.00000   0.00000   0.00000
   7        6PY         0.00000   0.00000   0.00000   0.00000   0.00000
   8        6PZ         0.00000   0.00000  -0.00057   0.00001   0.00000
   9        7PX         0.00000  -0.00173   0.00000   0.00000   0.00000
  10        7PY         0.00000   0.00000   0.00000   0.00000  -0.00001
  11        7PZ         0.00000   0.00000   0.00154   0.00002   0.00000
  12        8PX         0.00000  -0.00151   0.00000   0.00000   0.00000
  13        8PY         0.00000   0.00000   0.00000   0.00000   0.00033
  14        8PZ         0.00000   0.00000  -0.00434  -0.00102   0.00000
  15        9PX         0.00000  -0.00049   0.00000   0.00000   0.00000
  16        9PY         0.00000   0.00000   0.00000   0.00000   0.00012
  17        9PZ         0.00000   0.00000   0.00062  -0.00018   0.00000
  18       10D 0        0.00000   0.00000   0.00029   0.00000   0.00000
  19       10D+1        0.00000  -0.00008   0.00000   0.00000   0.00000
  20       10D-1        0.00000   0.00000   0.00000   0.00000   0.00000
  21       10D+2        0.00000   0.00000  -0.00027   0.00000   0.00000
  22       10D-2       -0.00009   0.00000   0.00000   0.00000   0.00000
  23       11D 0        0.00000   0.00000  -0.00039   0.00001   0.00000
  24       11D+1        0.00000   0.00107   0.00000   0.00000   0.00000
  25       11D-1        0.00000   0.00000   0.00000   0.00000   0.00002
  26       11D+2        0.00000   0.00000   0.00151   0.00001   0.00000
  27       11D-2       -0.00066   0.00000   0.00000   0.00000   0.00000
  28       12D 0        0.00000   0.00000  -0.00418  -0.00010   0.00000
  29       12D+1        0.00000  -0.00149   0.00000   0.00000   0.00000
  30       12D-1        0.00000   0.00000   0.00000   0.00000  -0.00002
  31       12D+2        0.00000   0.00000  -0.00154  -0.00008   0.00000
  32       12D-2        0.00006   0.00000   0.00000   0.00000   0.00000
  33       13F 0        0.00000   0.00000   0.00033   0.00001   0.00000
  34       13F+1        0.00000  -0.00008   0.00000   0.00000   0.00000
  35       13F-1        0.00000   0.00000   0.00000   0.00000   0.00001
  36       13F+2        0.00000   0.00000  -0.00007  -0.00001   0.00000
  37       13F-2        0.00000   0.00000   0.00000   0.00000   0.00000
  38       13F+3        0.00000   0.00001   0.00000   0.00000   0.00000
  39       13F-3        0.00000   0.00000   0.00000   0.00000   0.00000
  40       14F 0        0.00000   0.00000  -0.00110  -0.00004   0.00000
  41       14F+1        0.00000   0.00053   0.00000   0.00000   0.00000
  42       14F-1        0.00000   0.00000   0.00000   0.00000  -0.00006
  43       14F+2        0.00000   0.00000  -0.00086   0.00005   0.00000
  44       14F-2        0.00019   0.00000   0.00000   0.00000   0.00000
  45       14F+3        0.00000   0.00018   0.00000   0.00000   0.00000
  46       14F-3        0.00000   0.00000   0.00000   0.00000  -0.00004
  47 2   S  1S          0.00000   0.00000   0.06143  -0.00213   0.00000
  48        2S          0.00000   0.00000  -0.21374  -0.00006   0.00000
  49        3S          0.00000   0.00000   0.00236  -0.00003   0.00000
  50        4S          0.00000   0.00000  -0.01579   0.00000   0.00000
  51        5S          0.00000   0.00000   0.01008   0.00079   0.00000
  52        6S          0.00000   0.00000   0.00040   0.00046   0.00000
  53        7PX         0.00000   0.66056   0.00000   0.00000   0.00000
  54        7PY         0.00000   0.00000   0.00000   0.00000  -0.00007
  55        7PZ         0.00000   0.00000   0.47972  -0.00015   0.00000
  56        8PX         0.00000  -0.00715   0.00000   0.00000   0.00000
  57        8PY         0.00000   0.00000   0.00000   0.00000   0.00002
  58        8PZ         0.00000   0.00000  -0.00569  -0.00007   0.00000
  59        9PX         0.00000   0.04250   0.00000   0.00000   0.00000
  60        9PY         0.00000   0.00000   0.00000   0.00000   0.00000
  61        9PZ         0.00000   0.00000   0.03161   0.00000   0.00000
  62       10PX         0.00000   0.00270   0.00000   0.00000   0.00000
  63       10PY         0.00000   0.00000   0.00000   0.00000  -0.00008
  64       10PZ         0.00000   0.00000  -0.00165  -0.00045   0.00000
  65       11PX         0.00000  -0.00025   0.00000   0.00000   0.00000
  66       11PY         0.00000   0.00000   0.00000   0.00000  -0.00001
  67       11PZ         0.00000   0.00000  -0.00005  -0.00005   0.00000
  68       12D 0        0.00000   0.00000   0.00104   0.00001   0.00000
  69       12D+1        0.00000   0.00124   0.00000   0.00000   0.00000
  70       12D-1        0.00000   0.00000   0.00000   0.00000   0.00001
  71       12D+2        0.00000   0.00000   0.00028  -0.00002   0.00000
  72       12D-2       -0.00004   0.00000   0.00000   0.00000   0.00000
  73       13D 0        0.00000   0.00000  -0.00054   0.00000   0.00000
  74       13D+1        0.00000  -0.00007   0.00000   0.00000   0.00000
  75       13D-1        0.00000   0.00000   0.00000   0.00000  -0.00001
  76       13D+2        0.00000   0.00000  -0.00010   0.00000   0.00000
  77       13D-2       -0.00003   0.00000   0.00000   0.00000   0.00000
  78       14D 0        0.00000   0.00000   0.00001   0.00007   0.00000
  79       14D+1        0.00000  -0.00110   0.00000   0.00000   0.00000
  80       14D-1        0.00000   0.00000   0.00000   0.00000   0.00004
  81       14D+2        0.00000   0.00000   0.00056   0.00001   0.00000
  82       14D-2        0.00000   0.00000   0.00000   0.00000   0.00000
  83       15F 0        0.00000   0.00000   0.00038   0.00000   0.00000
  84       15F+1        0.00000  -0.00021   0.00000   0.00000   0.00000
  85       15F-1        0.00000   0.00000   0.00000   0.00000   0.00000
  86       15F+2        0.00000   0.00000   0.00011   0.00001   0.00000
  87       15F-2        0.00000   0.00000   0.00000   0.00000   0.00000
  88       15F+3        0.00000   0.00009   0.00000   0.00000   0.00000
  89       15F-3        0.00000   0.00000   0.00000   0.00000   0.00000
  90       16F 0        0.00000   0.00000  -0.00038   0.00002   0.00000
  91       16F+1        0.00000  -0.00012   0.00000   0.00000   0.00000
  92       16F-1        0.00000   0.00000   0.00000   0.00000  -0.00001
  93       16F+2        0.00000   0.00000  -0.00045   0.00000   0.00000
  94       16F-2        0.00001   0.00000   0.00000   0.00000   0.00000
  95       16F+3        0.00000  -0.00012   0.00000   0.00000   0.00000
  96       16F-3        0.00000   0.00000   0.00000   0.00000   0.00000
  97 3   Br 1S          0.00000   0.00000   0.00148  -0.00137   0.01172
  98        2S          0.00000   0.00000  -0.00423   0.00223  -0.03612
  99        3S          0.00000   0.00000  -0.00643  -0.00007  -0.00340
 100        4S          0.00000   0.00000   0.00064   0.00003   0.00000
 101        5S          0.00000   0.00000  -0.00048   0.00000  -0.00011
 102        6S          0.00000   0.00000   0.00079  -0.00036   0.00014
 103        7S          0.00000   0.00000   0.00246  -0.00023   0.00023
 104        8PX        -0.26237   0.19357   0.00000   0.00000   0.00000
 105        8PY         0.00000   0.00000  -0.08179  -0.40936  -0.50038
 106        8PZ         0.00000   0.00000  -0.07236   0.58289   0.50544
 107        9PX         0.74197  -0.54477   0.00000   0.00000   0.00000
 108        9PY         0.00000   0.00000   0.16699   0.00700   0.00685
 109        9PZ         0.00000   0.00000   0.16263  -0.01232  -0.01243
 110       10PX         0.00125   0.00033   0.00000   0.00000   0.00000
 111       10PY         0.00000   0.00000  -0.00026  -0.00024  -0.00021
 112       10PZ         0.00000   0.00000  -0.00002   0.00024   0.00024
 113       11PX         0.03313  -0.02371   0.00000   0.00000   0.00000
 114       11PY         0.00000   0.00000   0.00689   0.00061   0.00067
 115       11PZ         0.00000   0.00000   0.00664  -0.00095  -0.00090
 116       12PX         0.00382  -0.00244   0.00000   0.00000   0.00000
 117       12PY         0.00000   0.00000   0.00192  -0.00016   0.00018
 118       12PZ         0.00000   0.00000  -0.00019  -0.00016   0.00001
 119       13PX        -0.00031   0.00038   0.00000   0.00000   0.00000
 120       13PY         0.00000   0.00000   0.00037  -0.00005   0.00002
 121       13PZ         0.00000   0.00000   0.00019   0.00001   0.00005
 122       14D 0        0.00000   0.00000  -0.00133   0.00040   0.00039
 123       14D+1       -0.00055   0.00020   0.00000   0.00000   0.00000
 124       14D-1        0.00000   0.00000   0.01053   0.00020   0.00027
 125       14D+2        0.00000   0.00000  -0.00735   0.00024   0.00019
 126       14D-2        0.00020  -0.00033   0.00000   0.00000   0.00000
 127       15D 0        0.00000   0.00000  -0.00010   0.00001   0.00001
 128       15D+1        0.00004  -0.00010   0.00000   0.00000   0.00000
 129       15D-1        0.00000   0.00000   0.00091   0.00000   0.00002
 130       15D+2        0.00000   0.00000  -0.00065   0.00001   0.00000
 131       15D-2        0.00012  -0.00016   0.00000   0.00000   0.00000
 132       16D 0        0.00000   0.00000   0.00014   0.00006   0.00006
 133       16D+1       -0.00011   0.00012   0.00000   0.00000   0.00000
 134       16D-1        0.00000   0.00000   0.00098   0.00002   0.00002
 135       16D+2        0.00000   0.00000  -0.00042   0.00006   0.00003
 136       16D-2       -0.00019  -0.00002   0.00000   0.00000   0.00000
 137       17D 0        0.00000   0.00000  -0.00025   0.00001  -0.00002
 138       17D+1        0.00007  -0.00011   0.00000   0.00000   0.00000
 139       17D-1        0.00000   0.00000   0.00010  -0.00004   0.00002
 140       17D+2        0.00000   0.00000  -0.00052   0.00003  -0.00004
 141       17D-2        0.00013  -0.00037   0.00000   0.00000   0.00000
 142       18F 0        0.00000   0.00000  -0.00012   0.00000   0.00000
 143       18F+1        0.00002  -0.00002   0.00000   0.00000   0.00000
 144       18F-1        0.00000   0.00000   0.00011  -0.00001   0.00000
 145       18F+2        0.00000   0.00000  -0.00019   0.00000   0.00000
 146       18F-2        0.00023  -0.00018   0.00000   0.00000   0.00000
 147       18F+3       -0.00018   0.00011   0.00000   0.00000   0.00000
 148       18F-3        0.00000   0.00000  -0.00007   0.00000   0.00000
 149       19F 0        0.00000   0.00000  -0.00007   0.00001   0.00001
 150       19F+1       -0.00002   0.00006   0.00000   0.00000   0.00000
 151       19F-1        0.00000   0.00000   0.00021   0.00003   0.00002
 152       19F+2        0.00000   0.00000  -0.00022   0.00000   0.00001
 153       19F-2       -0.00018   0.00016   0.00000   0.00000   0.00000
 154       19F+3        0.00014   0.00003   0.00000   0.00000   0.00000
 155       19F-3        0.00000   0.00000  -0.00006   0.00001   0.00001
 156 4   Br 1S          0.00000   0.00000   0.00148  -0.00137  -0.01172
 157        2S          0.00000   0.00000  -0.00423   0.00222   0.03612
 158        3S          0.00000   0.00000  -0.00643  -0.00007   0.00340
 159        4S          0.00000   0.00000   0.00064   0.00003   0.00000
 160        5S          0.00000   0.00000  -0.00048   0.00000   0.00011
 161        6S          0.00000   0.00000   0.00079  -0.00036  -0.00014
 162        7S          0.00000   0.00000   0.00246  -0.00023  -0.00023
 163        8PX         0.26237   0.19357   0.00000   0.00000   0.00000
 164        8PY         0.00000   0.00000   0.08179   0.40939  -0.50036
 165        8PZ         0.00000   0.00000  -0.07236   0.58291  -0.50541
 166        9PX        -0.74197  -0.54477   0.00000   0.00000   0.00000
 167        9PY         0.00000   0.00000  -0.16699  -0.00700   0.00685
 168        9PZ         0.00000   0.00000   0.16263  -0.01232   0.01243
 169       10PX        -0.00125   0.00033   0.00000   0.00000   0.00000
 170       10PY         0.00000   0.00000   0.00026   0.00024  -0.00021
 171       10PZ         0.00000   0.00000  -0.00002   0.00024  -0.00024
 172       11PX        -0.03313  -0.02371   0.00000   0.00000   0.00000
 173       11PY         0.00000   0.00000  -0.00689  -0.00061   0.00067
 174       11PZ         0.00000   0.00000   0.00664  -0.00095   0.00090
 175       12PX        -0.00382  -0.00244   0.00000   0.00000   0.00000
 176       12PY         0.00000   0.00000  -0.00192   0.00016   0.00018
 177       12PZ         0.00000   0.00000  -0.00019  -0.00016  -0.00001
 178       13PX         0.00031   0.00038   0.00000   0.00000   0.00000
 179       13PY         0.00000   0.00000  -0.00037   0.00005   0.00002
 180       13PZ         0.00000   0.00000   0.00019   0.00001  -0.00005
 181       14D 0        0.00000   0.00000  -0.00133   0.00040  -0.00039
 182       14D+1        0.00055   0.00020   0.00000   0.00000   0.00000
 183       14D-1        0.00000   0.00000  -0.01053  -0.00020   0.00027
 184       14D+2        0.00000   0.00000  -0.00735   0.00024  -0.00019
 185       14D-2        0.00020   0.00033   0.00000   0.00000   0.00000
 186       15D 0        0.00000   0.00000  -0.00010   0.00001  -0.00001
 187       15D+1       -0.00004  -0.00010   0.00000   0.00000   0.00000
 188       15D-1        0.00000   0.00000  -0.00091   0.00000   0.00002
 189       15D+2        0.00000   0.00000  -0.00065   0.00001   0.00000
 190       15D-2        0.00012   0.00016   0.00000   0.00000   0.00000
 191       16D 0        0.00000   0.00000   0.00014   0.00006  -0.00006
 192       16D+1        0.00011   0.00012   0.00000   0.00000   0.00000
 193       16D-1        0.00000   0.00000  -0.00098  -0.00002   0.00002
 194       16D+2        0.00000   0.00000  -0.00042   0.00006  -0.00003
 195       16D-2       -0.00019   0.00002   0.00000   0.00000   0.00000
 196       17D 0        0.00000   0.00000  -0.00025   0.00001   0.00002
 197       17D+1       -0.00007  -0.00011   0.00000   0.00000   0.00000
 198       17D-1        0.00000   0.00000  -0.00010   0.00004   0.00002
 199       17D+2        0.00000   0.00000  -0.00052   0.00003   0.00004
 200       17D-2        0.00013   0.00037   0.00000   0.00000   0.00000
 201       18F 0        0.00000   0.00000  -0.00012   0.00000   0.00000
 202       18F+1       -0.00002  -0.00002   0.00000   0.00000   0.00000
 203       18F-1        0.00000   0.00000  -0.00011   0.00001   0.00000
 204       18F+2        0.00000   0.00000  -0.00019   0.00000   0.00000
 205       18F-2        0.00023   0.00018   0.00000   0.00000   0.00000
 206       18F+3        0.00018   0.00011   0.00000   0.00000   0.00000
 207       18F-3        0.00000   0.00000   0.00007   0.00000   0.00000
 208       19F 0        0.00000   0.00000  -0.00007   0.00001  -0.00001
 209       19F+1        0.00002   0.00006   0.00000   0.00000   0.00000
 210       19F-1        0.00000   0.00000  -0.00021  -0.00003   0.00002
 211       19F+2        0.00000   0.00000  -0.00022   0.00000  -0.00001
 212       19F-2       -0.00018  -0.00016   0.00000   0.00000   0.00000
 213       19F+3       -0.00014   0.00003   0.00000   0.00000   0.00000
 214       19F-3        0.00000   0.00000   0.00006  -0.00001   0.00001
                          16        17        18        19        20
     Eigenvalues --     2.00000   2.00000   2.00000   2.00000   2.00000
   1 1   C  1S          0.00000   0.00000   0.00000   0.02374   0.00000
   2        2S          0.00000   0.00000   0.00000  -0.00022   0.00000
   3        3S          0.00000   0.00000   0.00000   0.00104   0.00000
   4        4S          0.00000   0.00000   0.00000  -0.00138   0.00000
   5        5S          0.00000   0.00000   0.00000  -0.00064   0.00000
   6        6PX         0.00000   0.00001   0.00000   0.00000   0.00000
   7        6PY        -0.00003   0.00000   0.00000   0.00000   0.00000
   8        6PZ         0.00000   0.00000   0.00000  -0.00004   0.00000
   9        7PX         0.00000  -0.00002   0.00000   0.00000   0.00000
  10        7PY         0.00006   0.00000   0.00000   0.00000  -0.00002
  11        7PZ         0.00000   0.00000   0.00000   0.00007   0.00000
  12        8PX         0.00000  -0.00015   0.00000   0.00000   0.00000
  13        8PY         0.00061   0.00000   0.00000   0.00000  -0.00002
  14        8PZ         0.00000   0.00000   0.00000   0.00052   0.00000
  15        9PX         0.00000   0.00003   0.00000   0.00000   0.00000
  16        9PY         0.00007   0.00000   0.00000   0.00000   0.00001
  17        9PZ         0.00000   0.00000   0.00000   0.00013   0.00000
  18       10D 0        0.00000   0.00000   0.00000   0.00001   0.00000
  19       10D+1        0.00000   0.00000   0.00000   0.00000   0.00000
  20       10D-1        0.00000   0.00000   0.00000   0.00000   0.00000
  21       10D+2        0.00000   0.00000   0.00000  -0.00001   0.00000
  22       10D-2        0.00000   0.00000  -0.00001   0.00000   0.00000
  23       11D 0        0.00000   0.00000   0.00000  -0.00003   0.00000
  24       11D+1        0.00000   0.00002   0.00000   0.00000   0.00000
  25       11D-1       -0.00008   0.00000   0.00000   0.00000   0.00001
  26       11D+2        0.00000   0.00000   0.00000   0.00014   0.00000
  27       11D-2        0.00000   0.00000   0.00004   0.00000   0.00000
  28       12D 0        0.00000   0.00000   0.00000   0.00010   0.00000
  29       12D+1        0.00000  -0.00004   0.00000   0.00000   0.00000
  30       12D-1       -0.00042   0.00000   0.00000   0.00000   0.00005
  31       12D+2        0.00000   0.00000   0.00000   0.00021   0.00000
  32       12D-2        0.00000   0.00000  -0.00004   0.00000   0.00000
  33       13F 0        0.00000   0.00000   0.00000   0.00000   0.00000
  34       13F+1        0.00000   0.00000   0.00000   0.00000   0.00000
  35       13F-1        0.00000   0.00000   0.00000   0.00000   0.00000
  36       13F+2        0.00000   0.00000   0.00000   0.00000   0.00000
  37       13F-2        0.00000   0.00000   0.00000   0.00000   0.00000
  38       13F+3        0.00000  -0.00001   0.00000   0.00000   0.00000
  39       13F-3        0.00001   0.00000   0.00000   0.00000   0.00000
  40       14F 0        0.00000   0.00000   0.00000  -0.00001   0.00000
  41       14F+1        0.00000  -0.00002   0.00000   0.00000   0.00000
  42       14F-1       -0.00005   0.00000   0.00000   0.00000   0.00001
  43       14F+2        0.00000   0.00000   0.00000  -0.00004   0.00000
  44       14F-2        0.00000   0.00000  -0.00003   0.00000   0.00000
  45       14F+3        0.00000   0.00004   0.00000   0.00000   0.00000
  46       14F-3       -0.00004   0.00000   0.00000   0.00000   0.00001
  47 2   S  1S          0.00000   0.00000   0.00000  -0.03403   0.00001
  48        2S          0.00000   0.00000   0.00000  -0.00605   0.00000
  49        3S          0.00000   0.00000   0.00000   0.00002   0.00000
  50        4S          0.00000   0.00000   0.00000  -0.00043   0.00000
  51        5S          0.00000   0.00000   0.00000   0.00004   0.00000
  52        6S          0.00000   0.00000   0.00000   0.00004   0.00000
  53        7PX         0.00000  -0.00085   0.00000   0.00000   0.00000
  54        7PY         0.00056   0.00000   0.00000   0.00000   0.00004
  55        7PZ         0.00000   0.00000   0.00000   0.01347   0.00000
  56        8PX         0.00000   0.00001   0.00000   0.00000   0.00000
  57        8PY         0.00000   0.00000   0.00000   0.00000  -0.00001
  58        8PZ         0.00000   0.00000   0.00000  -0.00016   0.00000
  59        9PX         0.00000  -0.00005   0.00000   0.00000   0.00000
  60        9PY         0.00004   0.00000   0.00000   0.00000   0.00000
  61        9PZ         0.00000   0.00000   0.00000   0.00090   0.00000
  62       10PX         0.00000   0.00010   0.00000   0.00000   0.00000
  63       10PY         0.00018   0.00000   0.00000   0.00000  -0.00001
  64       10PZ         0.00000   0.00000   0.00000  -0.00006   0.00000
  65       11PX         0.00000  -0.00001   0.00000   0.00000   0.00000
  66       11PY         0.00000   0.00000   0.00000   0.00000   0.00000
  67       11PZ         0.00000   0.00000   0.00000  -0.00003   0.00000
  68       12D 0        0.00000   0.00000   0.00000   0.00007   0.00000
  69       12D+1        0.00000  -0.00002   0.00000   0.00000   0.00000
  70       12D-1       -0.00001   0.00000   0.00000   0.00000   0.00000
  71       12D+2        0.00000   0.00000   0.00000  -0.00001   0.00000
  72       12D-2        0.00000   0.00000   0.00001   0.00000   0.00000
  73       13D 0        0.00000   0.00000   0.00000  -0.00002   0.00000
  74       13D+1        0.00000   0.00000   0.00000   0.00000   0.00000
  75       13D-1        0.00000   0.00000   0.00000   0.00000   0.00000
  76       13D+2        0.00000   0.00000   0.00000   0.00000   0.00000
  77       13D-2        0.00000   0.00000   0.00000   0.00000   0.00000
  78       14D 0        0.00000   0.00000   0.00000   0.00003   0.00000
  79       14D+1        0.00000  -0.00005   0.00000   0.00000   0.00000
  80       14D-1       -0.00004   0.00000   0.00000   0.00000   0.00000
  81       14D+2        0.00000   0.00000   0.00000  -0.00002   0.00000
  82       14D-2        0.00000   0.00000   0.00001   0.00000   0.00000
  83       15F 0        0.00000   0.00000   0.00000   0.00001   0.00000
  84       15F+1        0.00000   0.00000   0.00000   0.00000   0.00000
  85       15F-1        0.00000   0.00000   0.00000   0.00000   0.00000
  86       15F+2        0.00000   0.00000   0.00000   0.00000   0.00000
  87       15F-2        0.00000   0.00000   0.00000   0.00000   0.00000
  88       15F+3        0.00000   0.00000   0.00000   0.00000   0.00000
  89       15F-3        0.00000   0.00000   0.00000   0.00000   0.00000
  90       16F 0        0.00000   0.00000   0.00000  -0.00002   0.00000
  91       16F+1        0.00000   0.00002   0.00000   0.00000   0.00000
  92       16F-1        0.00000   0.00000   0.00000   0.00000   0.00000
  93       16F+2        0.00000   0.00000   0.00000   0.00000   0.00000
  94       16F-2        0.00000   0.00000  -0.00001   0.00000   0.00000
  95       16F+3        0.00000  -0.00001   0.00000   0.00000   0.00000
  96       16F-3        0.00000   0.00000   0.00000   0.00000   0.00000
  97 3   Br 1S         -0.05066   0.00000   0.00000   0.00638  -0.21869
  98        2S          0.15843   0.00000   0.00000  -0.02128   0.70918
  99        3S          0.01477   0.00000   0.00000   0.00677   0.03028
 100        4S         -0.00014   0.00000   0.00000  -0.00008  -0.00020
 101        5S          0.00044   0.00000   0.00000   0.00022   0.00071
 102        6S          0.00077   0.00000   0.00000   0.00077   0.00003
 103        7S          0.00008   0.00000   0.00000   0.00029   0.00003
 104        8PX         0.00000   0.71327   0.71281   0.00000   0.00000
 105        8PY         0.48135   0.00000   0.00000   0.57422  -0.13729
 106        8PZ         0.49162   0.00000   0.00000   0.40409  -0.08683
 107        9PX         0.00000  -0.01582  -0.01655   0.00000   0.00000
 108        9PY         0.00506   0.00000   0.00000   0.00883   0.00235
 109        9PZ         0.00001   0.00000   0.00000   0.00576   0.00147
 110       10PX         0.00000   0.00028   0.00029   0.00000   0.00000
 111       10PY         0.00026   0.00000   0.00000   0.00035  -0.00007
 112       10PZ         0.00029   0.00000   0.00000   0.00023  -0.00005
 113       11PX         0.00000  -0.00121  -0.00124   0.00000   0.00000
 114       11PY        -0.00022   0.00000   0.00000  -0.00017   0.00022
 115       11PZ        -0.00043   0.00000   0.00000  -0.00013   0.00014
 116       12PX         0.00000  -0.00008  -0.00013   0.00000   0.00000
 117       12PY         0.00024   0.00000   0.00000   0.00025   0.00005
 118       12PZ         0.00008   0.00000   0.00000   0.00024   0.00003
 119       13PX         0.00000   0.00001   0.00003   0.00000   0.00000
 120       13PY         0.00000   0.00000   0.00000   0.00004   0.00000
 121       13PZ         0.00001   0.00000   0.00000   0.00001   0.00000
 122       14D 0        0.00007   0.00000   0.00000  -0.00001  -0.00003
 123       14D+1        0.00000   0.00003   0.00003   0.00000   0.00000
 124       14D-1       -0.00022   0.00000   0.00000   0.00008   0.00001
 125       14D+2        0.00024   0.00000   0.00000  -0.00003   0.00006
 126       14D-2        0.00000  -0.00001  -0.00002   0.00000   0.00000
 127       15D 0        0.00000   0.00000   0.00000   0.00000   0.00000
 128       15D+1        0.00000  -0.00001  -0.00001   0.00000   0.00000
 129       15D-1       -0.00004   0.00000   0.00000  -0.00002   0.00000
 130       15D+2        0.00003   0.00000   0.00000   0.00002   0.00000
 131       15D-2        0.00000  -0.00002  -0.00002   0.00000   0.00000
 132       16D 0        0.00003   0.00000   0.00000  -0.00001  -0.00001
 133       16D+1        0.00000   0.00003   0.00002   0.00000   0.00000
 134       16D-1        0.00010   0.00000   0.00000   0.00014  -0.00001
 135       16D+2       -0.00005   0.00000   0.00000  -0.00011   0.00000
 136       16D-2        0.00000   0.00004   0.00004   0.00000   0.00000
 137       17D 0       -0.00003   0.00000   0.00000   0.00001   0.00000
 138       17D+1        0.00000   0.00000  -0.00002   0.00000   0.00000
 139       17D-1        0.00003   0.00000   0.00000   0.00006   0.00001
 140       17D+2       -0.00001   0.00000   0.00000  -0.00003  -0.00002
 141       17D-2        0.00000   0.00000  -0.00002   0.00000   0.00000
 142       18F 0        0.00000   0.00000   0.00000   0.00000   0.00000
 143       18F+1        0.00000   0.00000   0.00000   0.00000   0.00000
 144       18F-1        0.00001   0.00000   0.00000   0.00000   0.00000
 145       18F+2       -0.00001   0.00000   0.00000  -0.00001   0.00000
 146       18F-2        0.00000  -0.00001   0.00000   0.00000   0.00000
 147       18F+3        0.00000   0.00000   0.00000   0.00000   0.00000
 148       18F-3       -0.00001   0.00000   0.00000  -0.00001   0.00000
 149       19F 0       -0.00001   0.00000   0.00000  -0.00002   0.00000
 150       19F+1        0.00000   0.00001   0.00000   0.00000   0.00000
 151       19F-1        0.00002   0.00000   0.00000   0.00001   0.00000
 152       19F+2       -0.00002   0.00000   0.00000  -0.00003   0.00000
 153       19F-2        0.00000   0.00002   0.00001   0.00000   0.00000
 154       19F+3        0.00000  -0.00002  -0.00001   0.00000   0.00000
 155       19F-3        0.00000   0.00000   0.00000  -0.00002   0.00000
 156 4   Br 1S          0.05067   0.00000   0.00000   0.00638   0.21873
 157        2S         -0.15843   0.00000   0.00000  -0.02128  -0.70926
 158        3S         -0.01477   0.00000   0.00000   0.00677  -0.03028
 159        4S          0.00014   0.00000   0.00000  -0.00008   0.00020
 160        5S         -0.00044   0.00000   0.00000   0.00022  -0.00071
 161        6S         -0.00077   0.00000   0.00000   0.00077  -0.00003
 162        7S         -0.00008   0.00000   0.00000   0.00029  -0.00003
 163        8PX         0.00000   0.71254  -0.71354   0.00000   0.00000
 164        8PY         0.48135   0.00000   0.00000  -0.57421  -0.13729
 165        8PZ        -0.49162   0.00000   0.00000   0.40409   0.08682
 166        9PX         0.00000  -0.01581   0.01657   0.00000   0.00000
 167        9PY         0.00506   0.00000   0.00000  -0.00883   0.00235
 168        9PZ        -0.00001   0.00000   0.00000   0.00576  -0.00147
 169       10PX         0.00000   0.00028  -0.00029   0.00000   0.00000
 170       10PY         0.00026   0.00000   0.00000  -0.00035  -0.00007
 171       10PZ        -0.00029   0.00000   0.00000   0.00023   0.00005
 172       11PX         0.00000  -0.00121   0.00124   0.00000   0.00000
 173       11PY        -0.00022   0.00000   0.00000   0.00017   0.00022
 174       11PZ         0.00043   0.00000   0.00000  -0.00013  -0.00014
 175       12PX         0.00000  -0.00008   0.00013   0.00000   0.00000
 176       12PY         0.00024   0.00000   0.00000  -0.00025   0.00005
 177       12PZ        -0.00008   0.00000   0.00000   0.00024  -0.00003
 178       13PX         0.00000   0.00001  -0.00003   0.00000   0.00000
 179       13PY         0.00000   0.00000   0.00000  -0.00004   0.00000
 180       13PZ        -0.00001   0.00000   0.00000   0.00001   0.00000
 181       14D 0       -0.00007   0.00000   0.00000  -0.00001   0.00003
 182       14D+1        0.00000   0.00003  -0.00003   0.00000   0.00000
[...]
 168        9PZ        -0.00797   0.01177  -0.00342   0.00552   0.00000
 169       10PX         0.00000   0.00000   0.00000   0.00000  -0.10178
 170       10PY         0.26531  -0.46915   0.01481   0.15195   0.00000
 171       10PZ        -0.17394   0.17888  -0.11940   0.04577   0.00000
 172       11PX         0.00000   0.00000   0.00000   0.00000   0.03507
 173       11PY         0.01178   0.00232   0.05274  -0.00022   0.00000
 174       11PZ        -0.00809  -0.00060  -0.01273  -0.01945   0.00000
 175       12PX         0.00000   0.00000   0.00000   0.00000   0.38347
 176       12PY         8.04238  -5.24654   3.03981  -5.70755   0.00000
 177       12PZ        -3.18042   5.97799  -1.88184   2.51099   0.00000
 178       13PX         0.00000   0.00000   0.00000   0.00000  -2.12765
 179       13PY        -0.50346  -1.03319   2.02336  -3.32311   0.00000
 180       13PZ        -1.66849   0.72332   0.18283   1.12000   0.00000
 181       14D 0        0.00293  -0.00154  -0.00414  -0.00018   0.00000
 182       14D+1        0.00000   0.00000   0.00000   0.00000   0.00101
 183       14D-1        0.00397   0.00090   0.00016   0.00007   0.00000
 184       14D+2        0.00403  -0.00130   0.00257   0.00379   0.00000
 185       14D-2        0.00000   0.00000   0.00000   0.00000  -0.00123
 186       15D 0       -0.03628   0.02606   0.04762   0.00185   0.00000
 187       15D+1        0.00000   0.00000   0.00000   0.00000  -0.01530
 188       15D-1       -0.05437   0.00347  -0.01489   0.01183   0.00000
 189       15D+2       -0.04932   0.02665  -0.03479  -0.03438   0.00000
 190       15D-2        0.00000   0.00000   0.00000   0.00000   0.02441
 191       16D 0        0.23169  -0.18256  -0.24039  -0.01644   0.00000
 192       16D+1        0.00000   0.00000   0.00000   0.00000   0.07322
 193       16D-1        0.45841  -0.37677   0.30562  -0.14112   0.00000
 194       16D+2        0.41211  -0.40423   0.28990   0.10273   0.00000
 195       16D-2        0.00000   0.00000   0.00000   0.00000  -0.12745
 196       17D 0        0.64177   0.81669   0.29297  -0.47177   0.00000
 197       17D+1        0.00000   0.00000   0.00000   0.00000  -0.16444
 198       17D-1        0.96918  -1.75433   0.02553  -1.41551   0.00000
 199       17D+2        0.81854  -0.49318  -0.01735  -2.01005   0.00000
 200       17D-2        0.00000   0.00000   0.00000   0.00000   0.14773
 201       18F 0       -0.03710  -0.00056   0.02688  -0.00445   0.00000
 202       18F+1        0.00000   0.00000   0.00000   0.00000  -0.01535
 203       18F-1        0.00265  -0.03598   0.00228   0.01273   0.00000
 204       18F+2       -0.00840  -0.01137   0.00054   0.03812   0.00000
 205       18F-2        0.00000   0.00000   0.00000   0.00000   0.00496
 206       18F+3        0.00000   0.00000   0.00000   0.00000   0.04339
 207       18F-3       -0.02249  -0.01570  -0.01264  -0.03420   0.00000
 208       19F 0        0.20469  -0.09732  -0.06862  -0.06446   0.00000
 209       19F+1        0.00000   0.00000   0.00000   0.00000   0.02334
 210       19F-1       -0.02173   0.03437   0.04938  -0.04042   0.00000
 211       19F+2        0.13678  -0.11410   0.02433  -0.19867   0.00000
 212       19F-2        0.00000   0.00000   0.00000   0.00000  -0.01480
 213       19F+3        0.00000   0.00000   0.00000   0.00000  -0.10328
 214       19F-3       -0.00139   0.09023   0.01590   0.18079   0.00000
                         211       212       213       214
     Eigenvalues --     0.00000   0.00000   0.00000   0.00000
   1 1   C  1S         -0.12617   0.00000   0.02632  -0.01967
   2        2S         -0.59998   0.00000   0.10415  -0.05910
   3        3S          0.09001   0.00000  -0.06582   0.10928
   4        4S          3.02295   0.00000  -3.41337   0.98861
   5        5S         20.98087   0.00000   2.70559  26.05413
   6        6PX         0.00000   0.00000   0.00000   0.00000
   7        6PY         0.00000  -0.01536   0.00000   0.00000
   8        6PZ        -0.00679   0.00000  -0.02073   0.01716
   9        7PX         0.00000   0.00000   0.00000   0.00000
  10        7PY         0.00000   0.02473   0.00000   0.00000
  11        7PZ         0.10543   0.00000   0.00983  -0.16038
  12        8PX         0.00000   0.00000   0.00000   0.00000
  13        8PY         0.00000  -5.91103   0.00000   0.00000
  14        8PZ         3.53135   0.00000  -5.12172   0.30969
  15        9PX         0.00000   0.00000   0.00000   0.00000
  16        9PY         0.00000 -19.70911   0.00000   0.00000
  17        9PZ         8.47807   0.00000 -12.91679  -0.36280
  18       10D 0        0.01042   0.00000   0.00868   0.01205
  19       10D+1        0.00000   0.00000   0.00000   0.00000
  20       10D-1        0.00000  -0.01322   0.00000   0.00000
  21       10D+2       -0.03251   0.00000   0.01114  -0.03151
  22       10D-2        0.00000   0.00000   0.00000   0.00000
  23       11D 0        0.20544   0.00000  -0.03259  -0.30043
  24       11D+1        0.00000   0.00000   0.00000   0.00000
  25       11D-1        0.00000   0.25399   0.00000   0.00000
  26       11D+2        0.16115   0.00000  -0.05869   0.18710
  27       11D-2        0.00000   0.00000   0.00000   0.00000
  28       12D 0        2.84567   0.00000  -0.68914  -0.41337
  29       12D+1        0.00000   0.00000   0.00000   0.00000
  30       12D-1        0.00000   2.17663   0.00000   0.00000
  31       12D+2       -0.08267   0.00000  -0.51294  -0.63391
  32       12D-2        0.00000   0.00000   0.00000   0.00000
  33       13F 0       -0.00929   0.00000  -0.01132  -0.02679
  34       13F+1        0.00000   0.00000   0.00000   0.00000
  35       13F-1        0.00000  -0.00462   0.00000   0.00000
  36       13F+2       -0.00516   0.00000   0.00718  -0.00824
  37       13F-2        0.00000   0.00000   0.00000   0.00000
  38       13F+3        0.00000   0.00000   0.00000   0.00000
  39       13F-3        0.00000   0.00824   0.00000   0.00000
  40       14F 0        0.03919   0.00000   0.07015  -0.13802
  41       14F+1        0.00000   0.00000   0.00000   0.00000
  42       14F-1        0.00000  -0.01520   0.00000   0.00000
  43       14F+2       -0.06879   0.00000  -0.03111  -0.09720
  44       14F-2        0.00000   0.00000   0.00000   0.00000
  45       14F+3        0.00000   0.00000   0.00000   0.00000
  46       14F-3        0.00000  -0.01444   0.00000   0.00000
  47 2   S  1S          0.00688   0.00000   0.00268   0.00151
  48        2S          0.12193   0.00000   0.09967   0.01241
  49        3S          0.32090   0.00000   0.17060   0.05422
  50        4S         -0.03135   0.00000  -0.18483  -0.00861
  51        5S         -6.65179   0.00000   1.42857   1.54937
  52        6S        -11.15871   0.00000  20.33936 -12.59966
  53        7PX         0.00000   0.00000   0.00000   0.00000
  54        7PY         0.00000   0.00818   0.00000   0.00000
  55        7PZ         0.01575   0.00000   0.03010  -0.03614
  56        8PX         0.00000   0.00000   0.00000   0.00000
  57        8PY         0.00000   0.08205   0.00000   0.00000
  58        8PZ         0.48799   0.00000   0.44279  -0.74266
  59        9PX         0.00000   0.00000   0.00000   0.00000
  60        9PY         0.00000  -0.02697   0.00000   0.00000
  61        9PZ        -0.03867   0.00000  -0.10380   0.11144
  62       10PX         0.00000   0.00000   0.00000   0.00000
  63       10PY         0.00000  -0.49081   0.00000   0.00000
  64       10PZ         2.62322   0.00000  -5.95093   2.14389
  65       11PX         0.00000   0.00000   0.00000   0.00000
  66       11PY         0.00000   5.03859   0.00000   0.00000
  67       11PZ        -1.34018   0.00000  -2.05668   4.19306
  68       12D 0       -0.61762   0.00000   0.22555   0.34422
  69       12D+1        0.00000   0.00000   0.00000   0.00000
  70       12D-1        0.00000   0.13917   0.00000   0.00000
  71       12D+2        0.20299   0.00000   0.01218   0.07707
  72       12D-2        0.00000   0.00000   0.00000   0.00000
  73       13D 0        0.10745   0.00000  -0.03477  -0.01203
  74       13D+1        0.00000   0.00000   0.00000   0.00000
  75       13D-1        0.00000  -0.03699   0.00000   0.00000
  76       13D+2       -0.05423   0.00000   0.00240  -0.01750
  77       13D-2        0.00000   0.00000   0.00000   0.00000
  78       14D 0        1.22672   0.00000   1.68814  -1.19148
  79       14D+1        0.00000   0.00000   0.00000   0.00000
  80       14D-1        0.00000  -0.26696   0.00000   0.00000
  81       14D+2       -0.53215   0.00000  -0.02382  -0.00415
  82       14D-2        0.00000   0.00000   0.00000   0.00000
  83       15F 0        0.03949   0.00000   0.06614  -0.05700
  84       15F+1        0.00000   0.00000   0.00000   0.00000
  85       15F-1        0.00000  -0.01213   0.00000   0.00000
  86       15F+2       -0.01574   0.00000  -0.00994   0.01447
  87       15F-2        0.00000   0.00000   0.00000   0.00000
  88       15F+3        0.00000   0.00000   0.00000   0.00000
  89       15F-3        0.00000  -0.03766   0.00000   0.00000
  90       16F 0       -0.15690   0.00000  -0.29833   0.07867
  91       16F+1        0.00000   0.00000   0.00000   0.00000
  92       16F-1        0.00000   0.02968   0.00000   0.00000
  93       16F+2        0.06948   0.00000   0.01656  -0.07251
  94       16F-2        0.00000   0.00000   0.00000   0.00000
  95       16F+3        0.00000   0.00000   0.00000   0.00000
  96       16F-3        0.00000   0.10114   0.00000   0.00000
  97 3   Br 1S          0.00029  -0.00014  -0.00021   0.00021
  98        2S          0.00260   0.00221   0.00043   0.00077
  99        3S          0.01110   0.00230  -0.00302   0.00559
 100        4S          0.03464   0.03739   0.00781   0.00898
 101        5S          0.00843   0.11536   0.04144  -0.02878
 102        6S          0.28395  -1.95526  -0.44794   0.07824
 103        7S         -4.60012 -21.39335 -10.31150  -7.27463
 104        8PX         0.00000   0.00000   0.00000   0.00000
 105        8PY        -0.00060  -0.00101  -0.00003  -0.00004
 106        8PZ         0.00002  -0.00062  -0.00025  -0.00012
 107        9PX         0.00000   0.00000   0.00000   0.00000
 108        9PY         0.01827   0.01710   0.00501   0.01747
 109        9PZ         0.01420   0.00597   0.01201   0.01082
 110       10PX         0.00000   0.00000   0.00000   0.00000
 111       10PY         0.18394   0.14952   0.05750   0.20207
 112       10PZ         0.16557   0.03856   0.12775   0.12119
 113       11PX         0.00000   0.00000   0.00000   0.00000
 114       11PY        -0.03000  -0.02789  -0.00486  -0.02479
 115       11PZ        -0.02102  -0.01246  -0.01725  -0.01458
 116       12PX         0.00000   0.00000   0.00000   0.00000
 117       12PY        -1.00061  -4.56743  -1.70598  -0.48125
 118       12PZ        -0.21820  -2.68679  -1.57142  -0.60315
 119       13PX         0.00000   0.00000   0.00000   0.00000
 120       13PY        -0.80309  -1.76396  -2.96692  -2.37068
 121       13PZ        -3.07469  -3.44124   0.33307  -1.44019
 122       14D 0        0.00107   0.00011  -0.00145  -0.00058
 123       14D+1        0.00000   0.00000   0.00000   0.00000
 124       14D-1        0.00207   0.00080   0.00086   0.00157
 125       14D+2       -0.00020   0.00098  -0.00069  -0.00070
 126       14D-2        0.00000   0.00000   0.00000   0.00000
 127       15D 0       -0.01308  -0.00337   0.01502   0.00994
 128       15D+1        0.00000   0.00000   0.00000   0.00000
 129       15D-1       -0.02813   0.00607  -0.00798  -0.02348
 130       15D+2       -0.00045  -0.02118   0.00657   0.01259
 131       15D-2        0.00000   0.00000   0.00000   0.00000
 132       16D 0        0.06811   0.01645  -0.05121  -0.06550
 133       16D+1        0.00000   0.00000   0.00000   0.00000
 134       16D-1        0.17552  -0.14838   0.02699   0.19960
 135       16D+2       -0.01207   0.16593  -0.01966  -0.12758
 136       16D-2        0.00000   0.00000   0.00000   0.00000
 137       17D 0       -0.21513   0.17038   0.05814   0.05278
 138       17D+1        0.00000   0.00000   0.00000   0.00000
 139       17D-1       -0.31189  -1.12396  -0.73462  -0.39904
 140       17D+2        0.29289   0.79103   0.47925   0.12166
 141       17D-2        0.00000   0.00000   0.00000   0.00000
 142       18F 0        0.00237  -0.02788   0.00927   0.00239
 143       18F+1        0.00000   0.00000   0.00000   0.00000
 144       18F-1       -0.00001   0.00989   0.00400   0.00224
 145       18F+2        0.01808  -0.01487  -0.01460   0.00338
 146       18F-2        0.00000   0.00000   0.00000   0.00000
 147       18F+3        0.00000   0.00000   0.00000   0.00000
 148       18F-3       -0.02844  -0.02953  -0.00544   0.00464
 149       19F 0       -0.05221   0.12654  -0.00248  -0.02851
 150       19F+1        0.00000   0.00000   0.00000   0.00000
 151       19F-1       -0.00092  -0.05051  -0.02123  -0.00215
 152       19F+2       -0.05555   0.12365   0.06990  -0.04224
 153       19F-2        0.00000   0.00000   0.00000   0.00000
 154       19F+3        0.00000   0.00000   0.00000   0.00000
 155       19F-3        0.06992   0.12180   0.02677  -0.03354
 156 4   Br 1S          0.00029   0.00014  -0.00021   0.00021
 157        2S          0.00260  -0.00221   0.00043   0.00077
 158        3S          0.01110  -0.00230  -0.00302   0.00559
 159        4S          0.03464  -0.03739   0.00781   0.00898
 160        5S          0.00843  -0.11536   0.04144  -0.02878
 161        6S          0.28395   1.95526  -0.44794   0.07824
 162        7S         -4.60012  21.39335 -10.31150  -7.27463
 163        8PX         0.00000   0.00000   0.00000   0.00000
 164        8PY         0.00060  -0.00101   0.00003   0.00004
 165        8PZ         0.00002   0.00062  -0.00025  -0.00012
 166        9PX         0.00000   0.00000   0.00000   0.00000
 167        9PY        -0.01827   0.01710  -0.00501  -0.01747
 168        9PZ         0.01420  -0.00597   0.01201   0.01082
 169       10PX         0.00000   0.00000   0.00000   0.00000
 170       10PY        -0.18394   0.14952  -0.05750  -0.20207
 171       10PZ         0.16557  -0.03856   0.12775   0.12119
 172       11PX         0.00000   0.00000   0.00000   0.00000
 173       11PY         0.03000  -0.02789   0.00486   0.02479
 174       11PZ        -0.02102   0.01246  -0.01725  -0.01458
 175       12PX         0.00000   0.00000   0.00000   0.00000
 176       12PY         1.00061  -4.56743   1.70598   0.48125
 177       12PZ        -0.21820   2.68679  -1.57142  -0.60315
 178       13PX         0.00000   0.00000   0.00000   0.00000
 179       13PY         0.80309  -1.76396   2.96692   2.37068
 180       13PZ        -3.07469   3.44124   0.33307  -1.44019
 181       14D 0        0.00107  -0.00011  -0.00145  -0.00058
 182       14D+1        0.00000   0.00000   0.00000   0.00000
 183       14D-1       -0.00207   0.00080  -0.00086  -0.00157
 184       14D+2       -0.00020  -0.00098  -0.00069  -0.00070
 185       14D-2        0.00000   0.00000   0.00000   0.00000
 186       15D 0       -0.01308   0.00337   0.01502   0.00994
 187       15D+1        0.00000   0.00000   0.00000   0.00000
 188       15D-1        0.02813   0.00607   0.00798   0.02348
 189       15D+2       -0.00045   0.02118   0.00657   0.01259
 190       15D-2        0.00000   0.00000   0.00000   0.00000
 191       16D 0        0.06811  -0.01645  -0.05121  -0.06550
 192       16D+1        0.00000   0.00000   0.00000   0.00000
 193       16D-1       -0.17552  -0.14838  -0.02699  -0.19960
 194       16D+2       -0.01207  -0.16593  -0.01966  -0.12758
 195       16D-2        0.00000   0.00000   0.00000   0.00000
 196       17D 0       -0.21513  -0.17038   0.05814   0.05278
 197       17D+1        0.00000   0.00000   0.00000   0.00000
 198       17D-1        0.31189  -1.12396   0.73462   0.39904
 199       17D+2        0.29289  -0.79103   0.47925   0.12166
 200       17D-2        0.00000   0.00000   0.00000   0.00000
 201       18F 0        0.00237   0.02788   0.00927   0.00239
 202       18F+1        0.00000   0.00000   0.00000   0.00000
 203       18F-1        0.00001   0.00989  -0.00400  -0.00224
 204       18F+2        0.01808   0.01487  -0.01460   0.00338
 205       18F-2        0.00000   0.00000   0.00000   0.00000
 206       18F+3        0.00000   0.00000   0.00000   0.00000
 207       18F-3        0.02844  -0.02953   0.00544  -0.00464
 208       19F 0       -0.05221  -0.12654  -0.00248  -0.02851
 209       19F+1        0.00000   0.00000   0.00000   0.00000
 210       19F-1        0.00092  -0.05051   0.02123   0.00215
 211       19F+2       -0.05555  -0.12365   0.06990  -0.04224
 212       19F-2        0.00000   0.00000   0.00000   0.00000
 213       19F+3        0.00000   0.00000   0.00000   0.00000
 214       19F-3       -0.06992   0.12180  -0.02677   0.03354
          Condensed to atoms (all electrons):
              1          2          3          4
     1  C    6.378455  -0.026662  -0.094827  -0.094827
     2  S   -0.026662  16.442923  -0.184754  -0.184754
     3  Br  -0.094827  -0.184754  35.310322  -0.135187
     4  Br  -0.094827  -0.184754  -0.135187  35.310322
 Mulliken atomic charges:
              1
     1  C   -0.162140
     2  S   -0.046754
     3  Br   0.104447
     4  Br   0.104447
 Sum of Mulliken atomic charges =   0.00000
 Mulliken charges with hydrogens summed into heavy atoms:
              1
     1  C   -0.162140
     2  S   -0.046754
     3  Br   0.104447
     4  Br   0.104447
 Sum of Mulliken charges with hydrogens summed into heavy atoms =   0.00000
 Electronic spatial extent (au):  <R**2>=           1432.8543
 Charge=              0.0000 electrons
 Dipole moment (field-independent basis, Debye):
    X=              0.0000    Y=              0.0000    Z=             -0.5190  Tot=              0.5190
 Quadrupole moment (field-independent basis, Debye-Ang):
   XX=            -54.9862   YY=            -53.7876   ZZ=            -53.7363
   XY=              0.0000   XZ=              0.0000   YZ=              0.0000
 Traceless Quadrupole moment (field-independent basis, Debye-Ang):
   XX=             -0.8162   YY=              0.3824   ZZ=              0.4338
   XY=              0.0000   XZ=              0.0000   YZ=              0.0000
 Octapole moment (field-independent basis, Debye-Ang**2):
  XXX=              0.0000  YYY=              0.0000  ZZZ=            140.7302  XYY=              0.0000
  XXY=              0.0000  XXZ=             47.5945  XZZ=              0.0000  YZZ=              0.0000
  YYZ=             35.0598  XYZ=              0.0000
 Hexadecapole moment (field-independent basis, Debye-Ang**3):
 XXXX=            -67.3329 YYYY=           -572.0218 ZZZZ=           -701.6232 XXXY=              0.0000
 XXXZ=              0.0000 YYYX=              0.0000 YYYZ=              0.0000 ZZZX=              0.0000
 ZZZY=              0.0000 XXYY=           -113.5069 XXZZ=           -130.7673 YYZZ=           -194.9967
 XXYZ=              0.0000 YYXZ=              0.0000 ZZXY=              0.0000
 N-N= 5.468404450236D+02 E-N=-1.443482290734D+04  KE= 5.579816209376D+03
 1\1\GINC-TRAPISTA\SP\RQCISD-FC\Aug-CC-pVTZ\C1Br2S1\BRUNS\29-Nov-2021\0
 \\# qcisd/aug-cc-pvtz nosymm density=current output=wfn\\br2cs-wavefun
 ction\\0,1\C,0,0.,0.,-0.519451\S,0,0.,0.,1.093692\Br,0,0.,-1.568516,-1
 .57857\Br,0,0.,1.568516,-1.57857\\Version=EM64L-G09RevB.01\HF=-5580.30
 8258\MP2=-5581.1187433\MP3=-5581.1307597\MP4D=-5581.1548713\MP4DQ=-558
 1.1313139\MP4SDQ=-5581.1410954\QCISD=-5581.1375049\RMSD=3.313e-09\Dipo
 le=0.,0.,-0.204208\Quadrupole=-0.6068132,0.2843084,0.3225048,0.,0.,0.\
 PG=C02V [C2(C1S1),SGV(Br2)]\\@

 Writing a WFN file to GAUSSIAN.wfn.


 IN THE FIGHT BETWEEN YOU AND THE WORLD, BACK THE WORLD

                                        -- FRANZ KAFKA
 Job cpu time:  0 days  5 hours 49 minutes 36.7 seconds.
 File lengths (MBytes):  RWF=  25271 Int=      0 D2E=      0 Chk=      4 Scr=      1
 Normal termination of Gaussian 09 at Mon Nov 29 09:09:11 2021.
