 br2cs-wavefunction
GAUSSIAN            214 MOL ORBITALS    620 PRIMITIVES        4 NUCLEI
  C    1    (CENTRE  1)   0.00000000  0.00000000 -0.98162013  CHARGE =  6.0
  S    2    (CENTRE  2)   0.00000000  0.00000000  2.04788109  CHARGE = 16.0
  Br   3    (CENTRE  3)   0.00000000 -2.96406568 -2.98306498  CHARGE = 35.0
  Br   4    (CENTRE  4)   0.00000000  2.96406568 -2.98306498  CHARGE = 35.0
CENTRE ASSIGNMENTS    1  1  1  1  1  1  1  1  1  1  1  1  1  1  1  1  1  1  1  1
CENTRE ASSIGNMENTS    1  1  1  1  1  1  1  1  1  1  1  1  1  1  1  1  1  1  1  1
CENTRE ASSIGNMENTS    1  1  1  1  1  1  1  1  1  1  1  1  1  1  1  1  1  1  1  1
CENTRE ASSIGNMENTS    1  1  1  1  1  1  1  1  1  1  1  1  2  2  2  2  2  2  2  2
CENTRE ASSIGNMENTS    2  2  2  2  2  2  2  2  2  2  2  2  2  2  2  2  2  2  2  2
CENTRE ASSIGNMENTS    2  2  2  2  2  2  2  2  2  2  2  2  2  2  2  2  2  2  2  2
CENTRE ASSIGNMENTS    2  2  2  2  2  2  2  2  2  2  2  2  2  2  2  2  2  2  2  2
CENTRE ASSIGNMENTS    2  2  2  2  2  2  2  2  2  2  2  2  2  2  2  2  2  2  2  2
CENTRE ASSIGNMENTS    2  2  2  2  2  2  2  2  2  2  2  2  2  2  2  2  2  2  2  2
CENTRE ASSIGNMENTS    2  2  2  2  2  2  3  3  3  3  3  3  3  3  3  3  3  3  3  3
CENTRE ASSIGNMENTS    3  3  3  3  3  3  3  3  3  3  3  3  3  3  3  3  3  3  3  3
CENTRE ASSIGNMENTS    3  3  3  3  3  3  3  3  3  3  3  3  3  3  3  3  3  3  3  3
CENTRE ASSIGNMENTS    3  3  3  3  3  3  3  3  3  3  3  3  3  3  3  3  3  3  3  3
CENTRE ASSIGNMENTS    3  3  3  3  3  3  3  3  3  3  3  3  3  3  3  3  3  3  3  3
CENTRE ASSIGNMENTS    3  3  3  3  3  3  3  3  3  3  3  3  3  3  3  3  3  3  3  3
CENTRE ASSIGNMENTS    3  3  3  3  3  3  3  3  3  3  3  3  3  3  3  3  3  3  3  3
CENTRE ASSIGNMENTS    3  3  3  3  3  3  3  3  3  3  3  3  3  3  3  3  3  3  3  3
CENTRE ASSIGNMENTS    3  3  3  3  3  3  3  3  3  3  3  3  3  3  3  3  3  3  3  3
CENTRE ASSIGNMENTS    3  3  3  3  3  3  3  3  3  3  3  3  3  3  3  3  3  3  3  3
CENTRE ASSIGNMENTS    3  3  3  3  3  3  3  3  3  3  3  3  3  3  3  3  3  3  3  3
CENTRE ASSIGNMENTS    3  3  3  4  4  4  4  4  4  4  4  4  4  4  4  4  4  4  4  4
CENTRE ASSIGNMENTS    4  4  4  4  4  4  4  4  4  4  4  4  4  4  4  4  4  4  4  4
CENTRE ASSIGNMENTS    4  4  4  4  4  4  4  4  4  4  4  4  4  4  4  4  4  4  4  4
CENTRE ASSIGNMENTS    4  4  4  4  4  4  4  4  4  4  4  4  4  4  4  4  4  4  4  4
CENTRE ASSIGNMENTS    4  4  4  4  4  4  4  4  4  4  4  4  4  4  4  4  4  4  4  4
CENTRE ASSIGNMENTS    4  4  4  4  4  4  4  4  4  4  4  4  4  4  4  4  4  4  4  4
CENTRE ASSIGNMENTS    4  4  4  4  4  4  4  4  4  4  4  4  4  4  4  4  4  4  4  4
CENTRE ASSIGNMENTS    4  4  4  4  4  4  4  4  4  4  4  4  4  4  4  4  4  4  4  4
CENTRE ASSIGNMENTS    4  4  4  4  4  4  4  4  4  4  4  4  4  4  4  4  4  4  4  4
CENTRE ASSIGNMENTS    4  4  4  4  4  4  4  4  4  4  4  4  4  4  4  4  4  4  4  4
CENTRE ASSIGNMENTS    4  4  4  4  4  4  4  4  4  4  4  4  4  4  4  4  4  4  4  4
TYPE ASSIGNMENTS      1  1  1  1  1  1  1  1  1  1  1  1  1  1  1  1  2  2  2  3
TYPE ASSIGNMENTS      3  3  4  4  4  2  3  4  2  3  4  2  3  4  5  6  7  8  9 10
TYPE ASSIGNMENTS      5  6  7  8  9 10  5  6  7  8  9 10 11 12 13 17 14 15 18 19
TYPE ASSIGNMENTS     16 20 11 12 13 17 14 15 18 19 16 20  1  1  1  1  1  1  1  1
TYPE ASSIGNMENTS      1  1  1  1  1  1  1  1  1  1  1  1  1  1  1  1  1  1  1  1
TYPE ASSIGNMENTS      1  1  1  2  2  2  2  2  2  3  3  3  3  3  3  4  4  4  4  4
TYPE ASSIGNMENTS      4  2  2  2  2  2  2  3  3  3  3  3  3  4  4  4  4  4  4  2
TYPE ASSIGNMENTS      3  4  2  3  4  2  3  4  5  6  7  8  9 10  5  6  7  8  9 10
TYPE ASSIGNMENTS      5  6  7  8  9 10 11 12 13 17 14 15 18 19 16 20 11 12 13 17
TYPE ASSIGNMENTS     14 15 18 19 16 20  1  1  1  1  1  1  1  1  1  1  1  1  1  1
TYPE ASSIGNMENTS      1  1  1  1  1  1  1  1  1  1  1  1  1  1  1  1  1  1  1  1
TYPE ASSIGNMENTS      1  1  1  1  1  1  1  1  1  1  1  1  1  1  1  1  2  2  2  2
TYPE ASSIGNMENTS      2  2  2  2  2  3  3  3  3  3  3  3  3  3  4  4  4  4  4  4
TYPE ASSIGNMENTS      4  4  4  2  2  2  2  2  2  2  2  2  3  3  3  3  3  3  3  3
TYPE ASSIGNMENTS      3  4  4  4  4  4  4  4  4  4  2  2  2  2  2  2  2  2  3  3
TYPE ASSIGNMENTS      3  3  3  3  3  3  4  4  4  4  4  4  4  4  2  3  4  2  3  4
TYPE ASSIGNMENTS      2  3  4  5  5  5  5  5  5  5  6  6  6  6  6  6  6  7  7  7
TYPE ASSIGNMENTS      7  7  7  7  8  8  8  8  8  8  8  9  9  9  9  9  9  9 10 10
TYPE ASSIGNMENTS     10 10 10 10 10  5  6  7  8  9 10  5  6  7  8  9 10  5  6  7
TYPE ASSIGNMENTS      8  9 10 11 12 13 17 14 15 18 19 16 20 11 12 13 17 14 15 18
TYPE ASSIGNMENTS     19 16 20  1  1  1  1  1  1  1  1  1  1  1  1  1  1  1  1  1
TYPE ASSIGNMENTS      1  1  1  1  1  1  1  1  1  1  1  1  1  1  1  1  1  1  1  1
TYPE ASSIGNMENTS      1  1  1  1  1  1  1  1  1  1  1  1  1  2  2  2  2  2  2  2
TYPE ASSIGNMENTS      2  2  3  3  3  3  3  3  3  3  3  4  4  4  4  4  4  4  4  4
TYPE ASSIGNMENTS      2  2  2  2  2  2  2  2  2  3  3  3  3  3  3  3  3  3  4  4
TYPE ASSIGNMENTS      4  4  4  4  4  4  4  2  2  2  2  2  2  2  2  3  3  3  3  3
TYPE ASSIGNMENTS      3  3  3  4  4  4  4  4  4  4  4  2  3  4  2  3  4  2  3  4
TYPE ASSIGNMENTS      5  5  5  5  5  5  5  6  6  6  6  6  6  6  7  7  7  7  7  7
TYPE ASSIGNMENTS      7  8  8  8  8  8  8  8  9  9  9  9  9  9  9 10 10 10 10 10
TYPE ASSIGNMENTS     10 10  5  6  7  8  9 10  5  6  7  8  9 10  5  6  7  8  9 10
TYPE ASSIGNMENTS     11 12 13 17 14 15 18 19 16 20 11 12 13 17 14 15 18 19 16 20
EXPONENTS  0.8236000D+04 0.1235000D+04 0.2808000D+03 0.7927000D+02 0.2559000D+02
EXPONENTS  0.8997000D+01 0.3319000D+01 0.2808000D+03 0.7927000D+02 0.2559000D+02
EXPONENTS  0.8997000D+01 0.3319000D+01 0.3643000D+00 0.9059000D+00 0.1285000D+00
EXPONENTS  0.4402000D-01 0.1871000D+02 0.4133000D+01 0.1200000D+01 0.1871000D+02
EXPONENTS  0.4133000D+01 0.1200000D+01 0.1871000D+02 0.4133000D+01 0.1200000D+01
EXPONENTS  0.3827000D+00 0.3827000D+00 0.3827000D+00 0.1209000D+00 0.1209000D+00
EXPONENTS  0.1209000D+00 0.3569000D-01 0.3569000D-01 0.3569000D-01 0.1097000D+01
EXPONENTS  0.1097000D+01 0.1097000D+01 0.1097000D+01 0.1097000D+01 0.1097000D+01
EXPONENTS  0.3180000D+00 0.3180000D+00 0.3180000D+00 0.3180000D+00 0.3180000D+00
EXPONENTS  0.3180000D+00 0.1000000D+00 0.1000000D+00 0.1000000D+00 0.1000000D+00
EXPONENTS  0.1000000D+00 0.1000000D+00 0.7610000D+00 0.7610000D+00 0.7610000D+00
EXPONENTS  0.7610000D+00 0.7610000D+00 0.7610000D+00 0.7610000D+00 0.7610000D+00
EXPONENTS  0.7610000D+00 0.7610000D+00 0.2680000D+00 0.2680000D+00 0.2680000D+00
EXPONENTS  0.2680000D+00 0.2680000D+00 0.2680000D+00 0.2680000D+00 0.2680000D+00
EXPONENTS  0.2680000D+00 0.2680000D+00 0.3741000D+06 0.5605000D+05 0.1276000D+05
EXPONENTS  0.3615000D+04 0.1183000D+04 0.4288000D+03 0.1678000D+03 0.6947000D+02
EXPONENTS  0.2984000D+02 0.1272000D+02 0.5244000D+01 0.3615000D+04 0.1183000D+04
EXPONENTS  0.4288000D+03 0.1678000D+03 0.6947000D+02 0.2984000D+02 0.1272000D+02
EXPONENTS  0.5244000D+01 0.2219000D+01 0.1183000D+04 0.1678000D+03 0.6947000D+02
EXPONENTS  0.2984000D+02 0.1272000D+02 0.5244000D+01 0.2219000D+01 0.3490000D+00
EXPONENTS  0.7767000D+00 0.1322000D+00 0.4970000D-01 0.5744000D+03 0.1358000D+03
EXPONENTS  0.4319000D+02 0.1587000D+02 0.6208000D+01 0.2483000D+01 0.5744000D+03
EXPONENTS  0.1358000D+03 0.4319000D+02 0.1587000D+02 0.6208000D+01 0.2483000D+01
EXPONENTS  0.5744000D+03 0.1358000D+03 0.4319000D+02 0.1587000D+02 0.6208000D+01
EXPONENTS  0.2483000D+01 0.1358000D+03 0.4319000D+02 0.1587000D+02 0.6208000D+01
EXPONENTS  0.2483000D+01 0.3229000D+00 0.1358000D+03 0.4319000D+02 0.1587000D+02
EXPONENTS  0.6208000D+01 0.2483000D+01 0.3229000D+00 0.1358000D+03 0.4319000D+02
EXPONENTS  0.1587000D+02 0.6208000D+01 0.2483000D+01 0.3229000D+00 0.8688000D+00
EXPONENTS  0.8688000D+00 0.8688000D+00 0.1098000D+00 0.1098000D+00 0.1098000D+00
EXPONENTS  0.3510000D-01 0.3510000D-01 0.3510000D-01 0.2690000D+00 0.2690000D+00
EXPONENTS  0.2690000D+00 0.2690000D+00 0.2690000D+00 0.2690000D+00 0.8190000D+00
EXPONENTS  0.8190000D+00 0.8190000D+00 0.8190000D+00 0.8190000D+00 0.8190000D+00
EXPONENTS  0.1010000D+00 0.1010000D+00 0.1010000D+00 0.1010000D+00 0.1010000D+00
EXPONENTS  0.1010000D+00 0.5570000D+00 0.5570000D+00 0.5570000D+00 0.5570000D+00
EXPONENTS  0.5570000D+00 0.5570000D+00 0.5570000D+00 0.5570000D+00 0.5570000D+00
EXPONENTS  0.5570000D+00 0.2180000D+00 0.2180000D+00 0.2180000D+00 0.2180000D+00
EXPONENTS  0.2180000D+00 0.2180000D+00 0.2180000D+00 0.2180000D+00 0.2180000D+00
EXPONENTS  0.2180000D+00 0.1063900D+08 0.1593400D+07 0.3626100D+06 0.1027000D+06
EXPONENTS  0.3350100D+05 0.1209300D+05 0.4715900D+04 0.1955600D+04 0.8526100D+03
EXPONENTS  0.3876700D+03 0.1826800D+03 0.8824500D+02 0.3926300D+02 0.9405700D+01
EXPONENTS  0.1899500D+01 0.3350100D+05 0.1209300D+05 0.4715900D+04 0.1955600D+04
EXPONENTS  0.8526100D+03 0.3876700D+03 0.1826800D+03 0.8824500D+02 0.3926300D+02
EXPONENTS  0.1923400D+02 0.9405700D+01 0.1899500D+01 0.4715900D+04 0.8526100D+03
EXPONENTS  0.3876700D+03 0.1826800D+03 0.8824500D+02 0.3926300D+02 0.1923400D+02
EXPONENTS  0.9405700D+01 0.4160100D+01 0.1899500D+01 0.4715900D+04 0.8526100D+03
EXPONENTS  0.3876700D+03 0.8824500D+02 0.3926300D+02 0.1923400D+02 0.9405700D+01
EXPONENTS  0.4160100D+01 0.1899500D+01 0.3011400D+00 0.6047200D+00 0.1251500D+00
EXPONENTS  0.4559300D-01 0.8676500D+04 0.2055900D+04 0.6662300D+03 0.2531000D+03
EXPONENTS  0.1061200D+03 0.4724200D+02 0.2182500D+02 0.9968400D+01 0.1998200D+01
EXPONENTS  0.8676500D+04 0.2055900D+04 0.6662300D+03 0.2531000D+03 0.1061200D+03
EXPONENTS  0.4724200D+02 0.2182500D+02 0.9968400D+01 0.1998200D+01 0.8676500D+04
EXPONENTS  0.2055900D+04 0.6662300D+03 0.2531000D+03 0.1061200D+03 0.4724200D+02
EXPONENTS  0.2182500D+02 0.9968400D+01 0.1998200D+01 0.8676500D+04 0.6662300D+03
EXPONENTS  0.2531000D+03 0.1061200D+03 0.4724200D+02 0.2182500D+02 0.9968400D+01
EXPONENTS  0.4517100D+01 0.1998200D+01 0.8676500D+04 0.6662300D+03 0.2531000D+03
EXPONENTS  0.1061200D+03 0.4724200D+02 0.2182500D+02 0.9968400D+01 0.4517100D+01
EXPONENTS  0.1998200D+01 0.8676500D+04 0.6662300D+03 0.2531000D+03 0.1061200D+03
EXPONENTS  0.4724200D+02 0.2182500D+02 0.9968400D+01 0.4517100D+01 0.1998200D+01
EXPONENTS  0.6662300D+03 0.1061200D+03 0.4724200D+02 0.2182500D+02 0.9968400D+01
EXPONENTS  0.4517100D+01 0.1998200D+01 0.2814500D+00 0.6662300D+03 0.1061200D+03
EXPONENTS  0.4724200D+02 0.2182500D+02 0.9968400D+01 0.4517100D+01 0.1998200D+01
EXPONENTS  0.2814500D+00 0.6662300D+03 0.1061200D+03 0.4724200D+02 0.2182500D+02
EXPONENTS  0.9968400D+01 0.4517100D+01 0.1998200D+01 0.2814500D+00 0.7098800D+00
EXPONENTS  0.7098800D+00 0.7098800D+00 0.1020400D+00 0.1020400D+00 0.1020400D+00
EXPONENTS  0.3514200D-01 0.3514200D-01 0.3514200D-01 0.4038300D+03 0.1211700D+03
EXPONENTS  0.4634500D+02 0.1972100D+02 0.8862400D+01 0.3996200D+01 0.1763600D+01
EXPONENTS  0.4038300D+03 0.1211700D+03 0.4634500D+02 0.1972100D+02 0.8862400D+01
EXPONENTS  0.3996200D+01 0.1763600D+01 0.4038300D+03 0.1211700D+03 0.4634500D+02
EXPONENTS  0.1972100D+02 0.8862400D+01 0.3996200D+01 0.1763600D+01 0.4038300D+03
EXPONENTS  0.1211700D+03 0.4634500D+02 0.1972100D+02 0.8862400D+01 0.3996200D+01
EXPONENTS  0.1763600D+01 0.4038300D+03 0.1211700D+03 0.4634500D+02 0.1972100D+02
EXPONENTS  0.8862400D+01 0.3996200D+01 0.1763600D+01 0.4038300D+03 0.1211700D+03
EXPONENTS  0.4634500D+02 0.1972100D+02 0.8862400D+01 0.3996200D+01 0.1763600D+01
EXPONENTS  0.7061900D+00 0.7061900D+00 0.7061900D+00 0.7061900D+00 0.7061900D+00
EXPONENTS  0.7061900D+00 0.2639000D+00 0.2639000D+00 0.2639000D+00 0.2639000D+00
EXPONENTS  0.2639000D+00 0.2639000D+00 0.1047000D+00 0.1047000D+00 0.1047000D+00
EXPONENTS  0.1047000D+00 0.1047000D+00 0.1047000D+00 0.5515000D+00 0.5515000D+00
EXPONENTS  0.5515000D+00 0.5515000D+00 0.5515000D+00 0.5515000D+00 0.5515000D+00
EXPONENTS  0.5515000D+00 0.5515000D+00 0.5515000D+00 0.2580000D+00 0.2580000D+00
EXPONENTS  0.2580000D+00 0.2580000D+00 0.2580000D+00 0.2580000D+00 0.2580000D+00
EXPONENTS  0.2580000D+00 0.2580000D+00 0.2580000D+00 0.1063900D+08 0.1593400D+07
EXPONENTS  0.3626100D+06 0.1027000D+06 0.3350100D+05 0.1209300D+05 0.4715900D+04
EXPONENTS  0.1955600D+04 0.8526100D+03 0.3876700D+03 0.1826800D+03 0.8824500D+02
EXPONENTS  0.3926300D+02 0.9405700D+01 0.1899500D+01 0.3350100D+05 0.1209300D+05
EXPONENTS  0.4715900D+04 0.1955600D+04 0.8526100D+03 0.3876700D+03 0.1826800D+03
EXPONENTS  0.8824500D+02 0.3926300D+02 0.1923400D+02 0.9405700D+01 0.1899500D+01
EXPONENTS  0.4715900D+04 0.8526100D+03 0.3876700D+03 0.1826800D+03 0.8824500D+02
EXPONENTS  0.3926300D+02 0.1923400D+02 0.9405700D+01 0.4160100D+01 0.1899500D+01
EXPONENTS  0.4715900D+04 0.8526100D+03 0.3876700D+03 0.8824500D+02 0.3926300D+02
EXPONENTS  0.1923400D+02 0.9405700D+01 0.4160100D+01 0.1899500D+01 0.3011400D+00
EXPONENTS  0.6047200D+00 0.1251500D+00 0.4559300D-01 0.8676500D+04 0.2055900D+04
EXPONENTS  0.6662300D+03 0.2531000D+03 0.1061200D+03 0.4724200D+02 0.2182500D+02
EXPONENTS  0.9968400D+01 0.1998200D+01 0.8676500D+04 0.2055900D+04 0.6662300D+03
EXPONENTS  0.2531000D+03 0.1061200D+03 0.4724200D+02 0.2182500D+02 0.9968400D+01
EXPONENTS  0.1998200D+01 0.8676500D+04 0.2055900D+04 0.6662300D+03 0.2531000D+03
EXPONENTS  0.1061200D+03 0.4724200D+02 0.2182500D+02 0.9968400D+01 0.1998200D+01
EXPONENTS  0.8676500D+04 0.6662300D+03 0.2531000D+03 0.1061200D+03 0.4724200D+02
EXPONENTS  0.2182500D+02 0.9968400D+01 0.4517100D+01 0.1998200D+01 0.8676500D+04
EXPONENTS  0.6662300D+03 0.2531000D+03 0.1061200D+03 0.4724200D+02 0.2182500D+02
EXPONENTS  0.9968400D+01 0.4517100D+01 0.1998200D+01 0.8676500D+04 0.6662300D+03
EXPONENTS  0.2531000D+03 0.1061200D+03 0.4724200D+02 0.2182500D+02 0.9968400D+01
EXPONENTS  0.4517100D+01 0.1998200D+01 0.6662300D+03 0.1061200D+03 0.4724200D+02
EXPONENTS  0.2182500D+02 0.9968400D+01 0.4517100D+01 0.1998200D+01 0.2814500D+00
EXPONENTS  0.6662300D+03 0.1061200D+03 0.4724200D+02 0.2182500D+02 0.9968400D+01
EXPONENTS  0.4517100D+01 0.1998200D+01 0.2814500D+00 0.6662300D+03 0.1061200D+03
EXPONENTS  0.4724200D+02 0.2182500D+02 0.9968400D+01 0.4517100D+01 0.1998200D+01
EXPONENTS  0.2814500D+00 0.7098800D+00 0.7098800D+00 0.7098800D+00 0.1020400D+00
EXPONENTS  0.1020400D+00 0.1020400D+00 0.3514200D-01 0.3514200D-01 0.3514200D-01
EXPONENTS  0.4038300D+03 0.1211700D+03 0.4634500D+02 0.1972100D+02 0.8862400D+01
EXPONENTS  0.3996200D+01 0.1763600D+01 0.4038300D+03 0.1211700D+03 0.4634500D+02
EXPONENTS  0.1972100D+02 0.8862400D+01 0.3996200D+01 0.1763600D+01 0.4038300D+03
EXPONENTS  0.1211700D+03 0.4634500D+02 0.1972100D+02 0.8862400D+01 0.3996200D+01
EXPONENTS  0.1763600D+01 0.4038300D+03 0.1211700D+03 0.4634500D+02 0.1972100D+02
EXPONENTS  0.8862400D+01 0.3996200D+01 0.1763600D+01 0.4038300D+03 0.1211700D+03
EXPONENTS  0.4634500D+02 0.1972100D+02 0.8862400D+01 0.3996200D+01 0.1763600D+01
EXPONENTS  0.4038300D+03 0.1211700D+03 0.4634500D+02 0.1972100D+02 0.8862400D+01
EXPONENTS  0.3996200D+01 0.1763600D+01 0.7061900D+00 0.7061900D+00 0.7061900D+00
EXPONENTS  0.7061900D+00 0.7061900D+00 0.7061900D+00 0.2639000D+00 0.2639000D+00
EXPONENTS  0.2639000D+00 0.2639000D+00 0.2639000D+00 0.2639000D+00 0.1047000D+00
EXPONENTS  0.1047000D+00 0.1047000D+00 0.1047000D+00 0.1047000D+00 0.1047000D+00
EXPONENTS  0.5515000D+00 0.5515000D+00 0.5515000D+00 0.5515000D+00 0.5515000D+00
EXPONENTS  0.5515000D+00 0.5515000D+00 0.5515000D+00 0.5515000D+00 0.5515000D+00
EXPONENTS  0.2580000D+00 0.2580000D+00 0.2580000D+00 0.2580000D+00 0.2580000D+00
EXPONENTS  0.2580000D+00 0.2580000D+00 0.2580000D+00 0.2580000D+00 0.2580000D+00
MO    1     MO 0.0        OCC NO =    2.0000283  ORB. ENERGY =    0.000000
  0.32833260D-10  0.61207811D-10  0.10344954D-09  0.15550395D-09  0.19100875D-09
  0.16120465D-09  0.60617158D-10  0.73315790D-14  0.54799010D-13  0.20479641D-12
  0.57135011D-12  0.76545162D-12 -0.90385564D-12  0.24179093D-11  0.11217633D-11
  0.28607458D-12  0.47020992D-12  0.44085168D-12  0.31391266D-12 -0.26175478D-02
 -0.24541174D-02 -0.17474778D-02 -0.70915882D-12 -0.66488147D-12 -0.47343522D-12
  0.65442268D-13 -0.55121372D-03  0.29114640D-12 -0.25749876D-13  0.12874350D-02
  0.39948154D-12  0.18135939D-14  0.80525161D-04  0.56968655D-14  0.36052688D-13
 -0.76625797D-13  0.40573110D-13  0.17006508D-13  0.10343928D-12 -0.11883317D-02
 -0.79187941D-13 -0.61233357D-13  0.14042130D-12  0.12625257D-13 -0.75225845D-13
  0.15731924D-05 -0.14432020D-13 -0.37455596D-13  0.51887616D-13  0.32777163D-14
  0.34210126D-14 -0.32139380D-03 -0.15439889D-13  0.11231023D-03  0.14423963D-13
 -0.17249819D-14  0.27514630D-03  0.17555808D-13  0.48044647D-13 -0.61207699D-03
 -0.60827697D-13  0.65353459D-14  0.95206250D-14 -0.68586041D-04  0.54260472D-14
  0.46571769D-14 -0.13799277D-03 -0.13670678D-13 -0.33219052D-13  0.34375089D-03
 -0.26074633D-14 -0.53571800D-14  0.31453094D-10  0.58804727D-10  0.10163205D-09
  0.16438565D-09  0.24846340D-09  0.34218555D-09  0.39997324D-09  0.34568392D-09
  0.16133249D-09  0.21857012D-10 -0.15986533D-12  0.33488238D-12  0.43048793D-11
  0.15703581D-10  0.52983493D-10  0.11637553D-09  0.15032544D-09 -0.24158577D-10
 -0.20266174D-09 -0.11121815D-09  0.29017252D-14  0.33052454D-13  0.68628810D-13
  0.18871180D-12 -0.24468652D-13 -0.85326881D-12 -0.21281879D-11  0.17616831D-11
 -0.60597266D-11 -0.97816685D-12 -0.17563422D-12 -0.13033769D-08 -0.17099564D-08
 -0.18754521D-08 -0.15430655D-08 -0.81341639D-09 -0.21163564D-09  0.97045489D+01
  0.12731816D+02  0.13964047D+02  0.11489197D+02  0.60564515D+01  0.15757748D+01
 -0.20219514D-08 -0.26526852D-08 -0.29094216D-08 -0.23937844D-08 -0.12618670D-08
 -0.32831407D-09 -0.73232572D-14 -0.26287294D-12 -0.41705451D-12 -0.49523943D-12
 -0.74942780D-13  0.54541951D-12  0.88551890D-04  0.31786260D-02  0.50429698D-02
  0.59883719D-02  0.90619851D-03 -0.65951430D-02 -0.20885340D-13 -0.74969247D-12
 -0.11894059D-11 -0.14123830D-11 -0.21373078D-12  0.15554926D-11 -0.99761086D-11
  0.67296220D-01 -0.15137495D-10 -0.45129750D-15 -0.32087133D-03  0.35751943D-12
  0.15593012D-14 -0.28034443D-04  0.59623463D-14  0.10348212D-12  0.79354035D-13
 -0.18283615D-12  0.18422477D-14 -0.94756810D-13  0.76807025D-03 -0.34417786D-13
  0.97088592D-13 -0.62670806D-13  0.32413031D-15  0.56883769D-13 -0.72854540D-03
  0.39521800D-14  0.14272130D-13 -0.18224310D-13 -0.85473763D-15  0.39037093D-15
 -0.41383734D-04 -0.15195077D-13  0.35461938D-05  0.43242165D-13  0.10466716D-13
  0.13849431D-03 -0.96073306D-13  0.35118516D-13 -0.14913289D-03 -0.33653189D-13
 -0.44106539D-14 -0.19314684D-14  0.32001492D-04  0.10561173D-13 -0.49967573D-14
  0.28414664D-05 -0.84682981D-14  0.10791163D-13 -0.98845944D-04 -0.23215220D-13
  0.93771600D-15  0.36937555D-03  0.69485105D-03  0.12028227D-02  0.19716573D-02
  0.30886312D-02  0.46424640D-02  0.66351724D-02  0.88081770D-02  0.10257758D-01
  0.94205644D-02  0.55069384D-02  0.14449885D-02  0.82155624D-04  0.14335273D-05
  0.14430083D-06  0.18587876D-04  0.53696089D-04  0.24610179D-03  0.72851490D-03
  0.21127144D-02  0.43914720D-02  0.62820529D-02  0.18012652D-02 -0.71980970D-02
 -0.69598634D-02 -0.15190966D-02  0.21988463D-04  0.12199841D-04  0.56914781D-04
  0.11550433D-03  0.45268154D-03  0.31765735D-03 -0.20687049D-02 -0.64102064D-02
 -0.78411179D-03  0.56034932D-02  0.26297192D-02 -0.96432041D-06 -0.13220068D-05
  0.25346067D-05  0.53868727D-05 -0.20363886D-04 -0.65851634D-04 -0.22902197D-04
  0.22400843D-03  0.49965492D-03 -0.33155580D-03 -0.56649416D-04  0.15392301D-02
  0.47888375D-03 -0.39826654D-08 -0.57145303D-08 -0.75665662D-08 -0.87380670D-08
 -0.81018359D-08 -0.52466402D-08 -0.18513253D-08 -0.21331685D-09  0.34849419D-12
  0.11929672D+01  0.17117299D+01  0.22664885D+01  0.26173997D+01  0.24268231D+01
  0.15715781D+01  0.55454580D+00  0.63896907D-01 -0.10438792D-03  0.10397761D+01
  0.14919235D+01  0.19754446D+01  0.22812947D+01  0.21151904D+01  0.13697689D+01
  0.48333557D+00  0.55691790D-01 -0.90983276D-04 -0.32763912D-11  0.93415751D-11
  0.45597429D-10  0.94486544D-10  0.11857129D-09  0.18803273D-10 -0.15220615D-09
 -0.13274583D-09 -0.34124290D-10 -0.72373929D-02  0.20635097D-01  0.10072256D+00
  0.20871630D+00  0.26191835D+00  0.41535540D-01 -0.33621616D+00 -0.29322924D+00
 -0.75378939D-01 -0.64250163D-02  0.18318866D-01  0.89416741D-01  0.18528849D+00
  0.23251877D+00  0.36873294D-01 -0.29847686D+00 -0.26031510D+00 -0.66917869D-01
  0.26183377D-13  0.36990274D-13 -0.17211381D-13  0.34491771D-13  0.37864244D-13
  0.10220746D-12  0.32208272D-13 -0.69151844D-13 -0.73476132D-04 -0.10380259D-03
  0.48298802D-04 -0.96791255D-04 -0.10625513D-03 -0.28681591D-03 -0.90383271D-04
  0.19405480D-03  0.57994310D-04  0.81930816D-04 -0.38121981D-04  0.76396809D-04
  0.83866597D-04  0.22638223D-03  0.71339022D-04 -0.15316640D-03 -0.11545582D-11
 -0.31193222D-02 -0.28954945D-02 -0.55491255D-14  0.38459530D-03  0.16655517D-03
 -0.84384629D-15  0.14776939D-04  0.12341611D-04  0.14806681D+00  0.15493596D+00
  0.13201373D+00  0.86941021D-01  0.40068528D-01  0.11998586D-01  0.20414576D-02
 -0.14934553D+00 -0.15627400D+00 -0.13315382D+00 -0.87691854D-01 -0.40414565D-01
 -0.12102207D-01 -0.20590879D-02  0.12787231D-02  0.13380459D-02  0.11400868D-02
  0.75083332D-03  0.34603672D-03  0.10362126D-03  0.17630278D-04 -0.63957658D-10
 -0.66924798D-10 -0.57023510D-10 -0.37554292D-10 -0.17307655D-10 -0.51828053D-11
 -0.88181039D-12  0.15817916D-09  0.16551745D-09  0.14102973D-09  0.92878737D-10
  0.42805045D-10  0.12818040D-10  0.21808808D-11 -0.47835964D+00 -0.50055182D+00
 -0.42649694D+00 -0.28088048D+00 -0.12944945D+00 -0.38763847D-01 -0.65953400D-02
  0.65192809D-04 -0.11687050D-03  0.51677687D-04 -0.53301471D-13  0.13379284D-12
 -0.35259783D-03 -0.54737949D-04  0.57013917D-04 -0.22759677D-05  0.14488679D-13
  0.34133354D-14  0.93783075D-04 -0.15693451D-04  0.18613412D-04 -0.29199604D-05
  0.42155351D-14  0.35221000D-14  0.63877779D-04  0.44133635D-14  0.27894769D-04
  0.31894523D-04 -0.10824181D-13 -0.51893014D-04 -0.39854043D-04 -0.24159099D-14
 -0.31791294D-04 -0.55829525D-04 -0.20357916D-13 -0.25201059D-14 -0.17048460D-05
 -0.13821904D-05  0.67123677D-14  0.12492831D-04  0.22924577D-05  0.84794985D-15
 -0.73782928D-05  0.18541134D-05  0.68064597D-14 -0.36937546D-03 -0.69485088D-03
 -0.12028224D-02 -0.19716568D-02 -0.30886304D-02 -0.46424629D-02 -0.66351708D-02
 -0.88081748D-02 -0.10257756D-01 -0.94205621D-02 -0.55069371D-02 -0.14449882D-02
 -0.82155604D-04 -0.14335270D-05 -0.14430080D-06 -0.18587876D-04 -0.53696090D-04
 -0.24610180D-03 -0.72851492D-03 -0.21127145D-02 -0.43914721D-02 -0.62820531D-02
 -0.18012653D-02  0.71980972D-02  0.69598636D-02  0.15190966D-02 -0.21988464D-04
 -0.12199841D-04 -0.56914783D-04 -0.11550433D-03 -0.45268156D-03 -0.31765737D-03
  0.20687050D-02  0.64102066D-02  0.78411182D-03 -0.56034934D-02 -0.26297193D-02
  0.96432041D-06  0.13220068D-05 -0.25346067D-05 -0.53868727D-05  0.20363886D-04
  0.65851634D-04  0.22902197D-04 -0.22400843D-03 -0.49965492D-03  0.33155580D-03
  0.56649412D-04 -0.15392301D-02 -0.47888375D-03  0.21827410D-08  0.31319076D-08
  0.41469350D-08  0.47889882D-08  0.44402952D-08  0.28754756D-08  0.10146380D-08
  0.11691051D-09 -0.19099585D-12  0.11929672D+01  0.17117298D+01  0.22664885D+01
  0.26173997D+01  0.24268231D+01  0.15715781D+01  0.55454580D+00  0.63896907D-01
 -0.10438792D-03 -0.10397761D+01 -0.14919235D+01 -0.19754446D+01 -0.22812947D+01
 -0.21151904D+01 -0.13697689D+01 -0.48333557D+00 -0.55691790D-01  0.90983276D-04
  0.44602955D-11 -0.12717097D-10 -0.62073786D-10 -0.12862869D-09 -0.16141631D-09
 -0.25597723D-10  0.20720492D-09  0.18071273D-09  0.46454897D-10 -0.72373929D-02
  0.20635097D-01  0.10072256D+00  0.20871630D+00  0.26191835D+00  0.41535540D-01
 -0.33621616D+00 -0.29322924D+00 -0.75378939D-01  0.64250162D-02 -0.18318866D-01
 -0.89416740D-01 -0.18528849D+00 -0.23251877D+00 -0.36873294D-01  0.29847686D+00
  0.26031510D+00  0.66917869D-01  0.62114330D-14  0.87751329D-14 -0.40830235D-14
  0.81824176D-14  0.89824631D-14  0.24246483D-13  0.76407075D-14 -0.16404761D-13
 -0.73476131D-04 -0.10380259D-03  0.48298802D-04 -0.96791255D-04 -0.10625513D-03
 -0.28681591D-03 -0.90383271D-04  0.19405480D-03 -0.57994310D-04 -0.81930816D-04
  0.38121981D-04 -0.76396809D-04 -0.83866597D-04 -0.22638223D-03 -0.71339022D-04
  0.15316640D-03  0.14380428D-11 -0.31193222D-02  0.28954945D-02  0.13524903D-13
  0.38459530D-03 -0.16655517D-03 -0.12662982D-14  0.14776939D-04 -0.12341611D-04
 -0.14806681D+00 -0.15493596D+00 -0.13201373D+00 -0.86941021D-01 -0.40068528D-01
 -0.11998586D-01 -0.20414576D-02  0.14934553D+00  0.15627400D+00  0.13315382D+00
  0.87691854D-01  0.40414565D-01  0.12102207D-01  0.20590879D-02 -0.12787233D-02
 -0.13380461D-02 -0.11400869D-02 -0.75083341D-03 -0.34603677D-03 -0.10362127D-03
 -0.17630281D-04  0.61923620D-10  0.64796396D-10  0.55209997D-10  0.36359957D-10
  0.16757222D-10  0.50179772D-11  0.85376627D-12  0.73687071D-10  0.77105580D-10
  0.65698081D-10  0.43267153D-10  0.19940543D-10  0.59712278D-11  0.10159538D-11
 -0.47835964D+00 -0.50055182D+00 -0.42649694D+00 -0.28088048D+00 -0.12944945D+00
 -0.38763847D-01 -0.65953400D-02 -0.65192809D-04  0.11687050D-03 -0.51677687D-04
  0.42333815D-13  0.75541652D-13 -0.35259783D-03  0.54737949D-04 -0.57013917D-04
  0.22759677D-05 -0.83236078D-14  0.11907395D-15  0.93783075D-04  0.15693451D-04
 -0.18613412D-04  0.29199604D-05 -0.27895744D-14  0.17544680D-14  0.63877779D-04
 -0.10917532D-14  0.27894769D-04 -0.31894523D-04  0.16881117D-14 -0.51893014D-04
  0.39854043D-04  0.15871478D-14 -0.31791294D-04  0.55829525D-04 -0.12068410D-13
 -0.12876222D-14 -0.17048460D-05  0.13821904D-05  0.40789948D-14  0.12492831D-04
 -0.22924577D-05 -0.21612817D-15 -0.73782928D-05 -0.18541134D-05  0.63768200D-15
MO    2     MO 0.0        OCC NO =    2.0000240  ORB. ENERGY =    0.000000
 -0.58963955D-01 -0.10992069D+00 -0.18578094D+00 -0.27926341D+00 -0.34302508D+00
 -0.28950106D+00 -0.10885996D+00 -0.10359314D-04 -0.77429453D-04 -0.28937154D-03
 -0.80730155D-03 -0.10815615D-02  0.12771225D-02 -0.44808763D-02 -0.17442133D-02
 -0.31722483D-03  0.12696168D-12  0.11903464D-12  0.84759758D-13 -0.28096690D-13
 -0.26342433D-13 -0.18757382D-13  0.22937277D-02  0.21505155D-02  0.15312952D-02
  0.24801092D-13  0.60072295D-13 -0.21676490D-03 -0.63813743D-14  0.26107709D-12
 -0.96654553D-03  0.46738808D-15 -0.46570393D-14  0.10761676D-05  0.12464500D-03
  0.11482840D-04 -0.13612784D-03  0.54099613D-14  0.16037841D-13 -0.50984535D-12
  0.11848195D-03  0.12835722D-03 -0.24683917D-03  0.39390141D-14 -0.22130124D-13
  0.50710776D-13  0.23563284D-04  0.10024637D-03 -0.12380965D-03 -0.10978188D-14
  0.16822488D-16 -0.32367834D-13 -0.27764026D-14  0.32157528D-13 -0.97823120D-05
  0.18169959D-14  0.90323125D-13 -0.90600294D-04  0.65122118D-14 -0.18679571D-12
  0.11994723D-03 -0.72260553D-14  0.17359613D-14 -0.26609547D-13  0.13251567D-04
  0.13041027D-14 -0.32034187D-13  0.44747416D-04 -0.65119864D-14  0.11186283D-12
 -0.84502116D-04  0.11893107D-14 -0.12703241D+00 -0.23749988D+00 -0.41047038D+00
 -0.66391893D+00 -0.10034912D+01 -0.13820152D+01 -0.16154075D+01 -0.13961444D+01
 -0.65158785D+00 -0.88275856D-01  0.64566233D-03 -0.15829236D-02 -0.20348324D-01
 -0.74227760D-01 -0.25044262D+00 -0.55008437D+00 -0.71055897D+00  0.11419287D+00
  0.95794247D+00  0.52570647D+00 -0.12725641D-04 -0.14495296D-03 -0.30097461D-03
 -0.82760373D-03  0.10730833D-03  0.37420472D-02  0.93332600D-02 -0.77259374D-02
  0.29339471D-01  0.18109080D-02  0.12896759D-03 -0.19575161D-09 -0.25681498D-09
 -0.28167045D-09 -0.23174996D-09 -0.12216540D-09 -0.31785140D-10  0.25087599D-08
  0.32913504D-08  0.36098990D-08  0.29701162D-08  0.15656764D-08  0.40735954D-09
  0.62312649D+01  0.81750652D+01  0.89662772D+01  0.73771828D+01  0.38888313D+01
  0.10118008D+01 -0.10816550D-14 -0.38826689D-13 -0.61599515D-13 -0.73147535D-13
 -0.11069150D-13  0.80559200D-13  0.23460794D-13  0.84214001D-12  0.13360762D-11
  0.15865495D-11  0.24008676D-12 -0.17473065D-11  0.57977958D-04  0.20811554D-02
  0.33018052D-02  0.39207924D-02  0.59331923D-03 -0.43180662D-02 -0.15162933D-11
  0.17361345D-10  0.45895510D-01  0.29943425D-16 -0.15768591D-12 -0.77425259D-03
  0.89635700D-16 -0.32722778D-14 -0.50010503D-05 -0.24706429D-03 -0.13340950D-03
  0.38047379D-03 -0.89404857D-15 -0.20818678D-13  0.23232697D-12  0.21031434D-03
 -0.39860846D-03  0.18829412D-03  0.18463901D-14  0.10218106D-13 -0.23078666D-12
 -0.54226457D-05 -0.30840581D-04  0.36263227D-04  0.27063871D-15 -0.23617155D-15
  0.29653319D-14 -0.28297325D-14  0.54119775D-14 -0.74220520D-04  0.34174003D-15
  0.37438121D-13  0.20820251D-03  0.81474575D-14 -0.53674053D-13  0.14459052D-04
  0.22674330D-14 -0.56832958D-15  0.99645066D-14 -0.20807105D-04 -0.10828691D-14
  0.15396346D-14  0.19384884D-04  0.27878578D-14 -0.31433154D-13  0.43036432D-04
 -0.65323839D-16  0.58121988D-03  0.10933621D-02  0.18926657D-02  0.31024425D-02
  0.48600235D-02  0.73050107D-02  0.10440578D-01  0.13859844D-01  0.16140790D-01
  0.14823448D-01  0.86652787D-02  0.22737186D-02  0.12927353D-03  0.22556841D-05
  0.22706027D-06  0.27634771D-04  0.79830483D-04  0.36588186D-03  0.10830900D-02
  0.31409926D-02  0.65288430D-02  0.93395875D-02  0.26779580D-02 -0.10701479D-01
 -0.10347295D-01 -0.22584553D-02  0.32690457D-04  0.17525017D-04  0.81757828D-04
  0.16592145D-03  0.65027500D-03  0.45631337D-03 -0.29716854D-02 -0.92082327D-02
 -0.11263731D-02  0.80493929D-02  0.37775798D-02 -0.20726423D-06 -0.28414281D-06
  0.54477050D-06  0.11578164D-05 -0.43768702D-05 -0.14153686D-04 -0.49224368D-05
  0.48146793D-04  0.10739231D-03 -0.71262267D-04  0.82823094D-04 -0.29145608D-03
  0.76384122D-04 -0.31878804D-09 -0.45741326D-09 -0.60565742D-09 -0.69942890D-09
 -0.64850250D-09 -0.41996151D-09 -0.14818729D-09 -0.17074711D-10  0.27894832D-13
  0.25615284D+00  0.36754109D+00  0.48665836D+00  0.56200570D+00  0.52108527D+00
  0.33744783D+00  0.11907157D+00  0.13719886D-01 -0.22414079D-04  0.32136937D+00
  0.46111708D+00  0.61056162D+00  0.70509240D+00  0.65375362D+00  0.42336207D+00
  0.14938720D+00  0.17212970D-01 -0.28120705D-04  0.73724470D-12 -0.21020160D-11