 br2cs-wavefunction
GAUSSIAN            214 MOL ORBITALS    620 PRIMITIVES        4 NUCLEI
  C    1    (CENTRE  1)   0.00000000  0.00000000 -0.98162013  CHARGE =  6.0
  S    2    (CENTRE  2)   0.00000000  0.00000000  2.04788109  CHARGE = 16.0
  Br   3    (CENTRE  3)   0.00000000 -2.96406568 -3.00196224  CHARGE = 35.0
  Br   4    (CENTRE  4)   0.00000000  2.96406568 -2.98306498  CHARGE = 35.0
CENTRE ASSIGNMENTS    1  1  1  1  1  1  1  1  1  1  1  1  1  1  1  1  1  1  1  1
CENTRE ASSIGNMENTS    1  1  1  1  1  1  1  1  1  1  1  1  1  1  1  1  1  1  1  1
CENTRE ASSIGNMENTS    1  1  1  1  1  1  1  1  1  1  1  1  1  1  1  1  1  1  1  1
CENTRE ASSIGNMENTS    1  1  1  1  1  1  1  1  1  1  1  1  2  2  2  2  2  2  2  2
CENTRE ASSIGNMENTS    2  2  2  2  2  2  2  2  2  2  2  2  2  2  2  2  2  2  2  2
CENTRE ASSIGNMENTS    2  2  2  2  2  2  2  2  2  2  2  2  2  2  2  2  2  2  2  2
CENTRE ASSIGNMENTS    2  2  2  2  2  2  2  2  2  2  2  2  2  2  2  2  2  2  2  2
CENTRE ASSIGNMENTS    2  2  2  2  2  2  2  2  2  2  2  2  2  2  2  2  2  2  2  2
CENTRE ASSIGNMENTS    2  2  2  2  2  2  2  2  2  2  2  2  2  2  2  2  2  2  2  2
CENTRE ASSIGNMENTS    2  2  2  2  2  2  3  3  3  3  3  3  3  3  3  3  3  3  3  3
CENTRE ASSIGNMENTS    3  3  3  3  3  3  3  3  3  3  3  3  3  3  3  3  3  3  3  3
CENTRE ASSIGNMENTS    3  3  3  3  3  3  3  3  3  3  3  3  3  3  3  3  3  3  3  3
CENTRE ASSIGNMENTS    3  3  3  3  3  3  3  3  3  3  3  3  3  3  3  3  3  3  3  3
CENTRE ASSIGNMENTS    3  3  3  3  3  3  3  3  3  3  3  3  3  3  3  3  3  3  3  3
CENTRE ASSIGNMENTS    3  3  3  3  3  3  3  3  3  3  3  3  3  3  3  3  3  3  3  3
CENTRE ASSIGNMENTS    3  3  3  3  3  3  3  3  3  3  3  3  3  3  3  3  3  3  3  3
CENTRE ASSIGNMENTS    3  3  3  3  3  3  3  3  3  3  3  3  3  3  3  3  3  3  3  3
CENTRE ASSIGNMENTS    3  3  3  3  3  3  3  3  3  3  3  3  3  3  3  3  3  3  3  3
CENTRE ASSIGNMENTS    3  3  3  3  3  3  3  3  3  3  3  3  3  3  3  3  3  3  3  3
CENTRE ASSIGNMENTS    3  3  3  3  3  3  3  3  3  3  3  3  3  3  3  3  3  3  3  3
CENTRE ASSIGNMENTS    3  3  3  4  4  4  4  4  4  4  4  4  4  4  4  4  4  4  4  4
CENTRE ASSIGNMENTS    4  4  4  4  4  4  4  4  4  4  4  4  4  4  4  4  4  4  4  4
CENTRE ASSIGNMENTS    4  4  4  4  4  4  4  4  4  4  4  4  4  4  4  4  4  4  4  4
CENTRE ASSIGNMENTS    4  4  4  4  4  4  4  4  4  4  4  4  4  4  4  4  4  4  4  4
CENTRE ASSIGNMENTS    4  4  4  4  4  4  4  4  4  4  4  4  4  4  4  4  4  4  4  4
CENTRE ASSIGNMENTS    4  4  4  4  4  4  4  4  4  4  4  4  4  4  4  4  4  4  4  4
CENTRE ASSIGNMENTS    4  4  4  4  4  4  4  4  4  4  4  4  4  4  4  4  4  4  4  4
CENTRE ASSIGNMENTS    4  4  4  4  4  4  4  4  4  4  4  4  4  4  4  4  4  4  4  4
CENTRE ASSIGNMENTS    4  4  4  4  4  4  4  4  4  4  4  4  4  4  4  4  4  4  4  4
CENTRE ASSIGNMENTS    4  4  4  4  4  4  4  4  4  4  4  4  4  4  4  4  4  4  4  4
CENTRE ASSIGNMENTS    4  4  4  4  4  4  4  4  4  4  4  4  4  4  4  4  4  4  4  4
TYPE ASSIGNMENTS      1  1  1  1  1  1  1  1  1  1  1  1  1  1  1  1  2  2  2  3
TYPE ASSIGNMENTS      3  3  4  4  4  2  3  4  2  3  4  2  3  4  5  6  7  8  9 10
TYPE ASSIGNMENTS      5  6  7  8  9 10  5  6  7  8  9 10 11 12 13 17 14 15 18 19
TYPE ASSIGNMENTS     16 20 11 12 13 17 14 15 18 19 16 20  1  1  1  1  1  1  1  1
TYPE ASSIGNMENTS      1  1  1  1  1  1  1  1  1  1  1  1  1  1  1  1  1  1  1  1
TYPE ASSIGNMENTS      1  1  1  2  2  2  2  2  2  3  3  3  3  3  3  4  4  4  4  4
TYPE ASSIGNMENTS      4  2  2  2  2  2  2  3  3  3  3  3  3  4  4  4  4  4  4  2
TYPE ASSIGNMENTS      3  4  2  3  4  2  3  4  5  6  7  8  9 10  5  6  7  8  9 10
TYPE ASSIGNMENTS      5  6  7  8  9 10 11 12 13 17 14 15 18 19 16 20 11 12 13 17
TYPE ASSIGNMENTS     14 15 18 19 16 20  1  1  1  1  1  1  1  1  1  1  1  1  1  1
TYPE ASSIGNMENTS      1  1  1  1  1  1  1  1  1  1  1  1  1  1  1  1  1  1  1  1
TYPE ASSIGNMENTS      1  1  1  1  1  1  1  1  1  1  1  1  1  1  1  1  2  2  2  2
TYPE ASSIGNMENTS      2  2  2  2  2  3  3  3  3  3  3  3  3  3  4  4  4  4  4  4
TYPE ASSIGNMENTS      4  4  4  2  2  2  2  2  2  2  2  2  3  3  3  3  3  3  3  3
TYPE ASSIGNMENTS      3  4  4  4  4  4  4  4  4  4  2  2  2  2  2  2  2  2  3  3
TYPE ASSIGNMENTS      3  3  3  3  3  3  4  4  4  4  4  4  4  4  2  3  4  2  3  4
TYPE ASSIGNMENTS      2  3  4  5  5  5  5  5  5  5  6  6  6  6  6  6  6  7  7  7
TYPE ASSIGNMENTS      7  7  7  7  8  8  8  8  8  8  8  9  9  9  9  9  9  9 10 10
TYPE ASSIGNMENTS     10 10 10 10 10  5  6  7  8  9 10  5  6  7  8  9 10  5  6  7
TYPE ASSIGNMENTS      8  9 10 11 12 13 17 14 15 18 19 16 20 11 12 13 17 14 15 18
TYPE ASSIGNMENTS     19 16 20  1  1  1  1  1  1  1  1  1  1  1  1  1  1  1  1  1
TYPE ASSIGNMENTS      1  1  1  1  1  1  1  1  1  1  1  1  1  1  1  1  1  1  1  1
TYPE ASSIGNMENTS      1  1  1  1  1  1  1  1  1  1  1  1  1  2  2  2  2  2  2  2
TYPE ASSIGNMENTS      2  2  3  3  3  3  3  3  3  3  3  4  4  4  4  4  4  4  4  4
TYPE ASSIGNMENTS      2  2  2  2  2  2  2  2  2  3  3  3  3  3  3  3  3  3  4  4
TYPE ASSIGNMENTS      4  4  4  4  4  4  4  2  2  2  2  2  2  2  2  3  3  3  3  3
TYPE ASSIGNMENTS      3  3  3  4  4  4  4  4  4  4  4  2  3  4  2  3  4  2  3  4
TYPE ASSIGNMENTS      5  5  5  5  5  5  5  6  6  6  6  6  6  6  7  7  7  7  7  7
TYPE ASSIGNMENTS      7  8  8  8  8  8  8  8  9  9  9  9  9  9  9 10 10 10 10 10
TYPE ASSIGNMENTS     10 10  5  6  7  8  9 10  5  6  7  8  9 10  5  6  7  8  9 10
TYPE ASSIGNMENTS     11 12 13 17 14 15 18 19 16 20 11 12 13 17 14 15 18 19 16 20
EXPONENTS  0.8236000D+04 0.1235000D+04 0.2808000D+03 0.7927000D+02 0.2559000D+02
EXPONENTS  0.8997000D+01 0.3319000D+01 0.2808000D+03 0.7927000D+02 0.2559000D+02
EXPONENTS  0.8997000D+01 0.3319000D+01 0.3643000D+00 0.9059000D+00 0.1285000D+00
EXPONENTS  0.4402000D-01 0.1871000D+02 0.4133000D+01 0.1200000D+01 0.1871000D+02
EXPONENTS  0.4133000D+01 0.1200000D+01 0.1871000D+02 0.4133000D+01 0.1200000D+01
EXPONENTS  0.3827000D+00 0.3827000D+00 0.3827000D+00 0.1209000D+00 0.1209000D+00
EXPONENTS  0.1209000D+00 0.3569000D-01 0.3569000D-01 0.3569000D-01 0.1097000D+01
EXPONENTS  0.1097000D+01 0.1097000D+01 0.1097000D+01 0.1097000D+01 0.1097000D+01
EXPONENTS  0.3180000D+00 0.3180000D+00 0.3180000D+00 0.3180000D+00 0.3180000D+00
EXPONENTS  0.3180000D+00 0.1000000D+00 0.1000000D+00 0.1000000D+00 0.1000000D+00
EXPONENTS  0.1000000D+00 0.1000000D+00 0.7610000D+00 0.7610000D+00 0.7610000D+00
EXPONENTS  0.7610000D+00 0.7610000D+00 0.7610000D+00 0.7610000D+00 0.7610000D+00
EXPONENTS  0.7610000D+00 0.7610000D+00 0.2680000D+00 0.2680000D+00 0.2680000D+00
EXPONENTS  0.2680000D+00 0.2680000D+00 0.2680000D+00 0.2680000D+00 0.2680000D+00
EXPONENTS  0.2680000D+00 0.2680000D+00 0.3741000D+06 0.5605000D+05 0.1276000D+05
EXPONENTS  0.3615000D+04 0.1183000D+04 0.4288000D+03 0.1678000D+03 0.6947000D+02
EXPONENTS  0.2984000D+02 0.1272000D+02 0.5244000D+01 0.3615000D+04 0.1183000D+04
EXPONENTS  0.4288000D+03 0.1678000D+03 0.6947000D+02 0.2984000D+02 0.1272000D+02
EXPONENTS  0.5244000D+01 0.2219000D+01 0.1183000D+04 0.1678000D+03 0.6947000D+02
EXPONENTS  0.2984000D+02 0.1272000D+02 0.5244000D+01 0.2219000D+01 0.3490000D+00
EXPONENTS  0.7767000D+00 0.1322000D+00 0.4970000D-01 0.5744000D+03 0.1358000D+03
EXPONENTS  0.4319000D+02 0.1587000D+02 0.6208000D+01 0.2483000D+01 0.5744000D+03
EXPONENTS  0.1358000D+03 0.4319000D+02 0.1587000D+02 0.6208000D+01 0.2483000D+01
EXPONENTS  0.5744000D+03 0.1358000D+03 0.4319000D+02 0.1587000D+02 0.6208000D+01
EXPONENTS  0.2483000D+01 0.1358000D+03 0.4319000D+02 0.1587000D+02 0.6208000D+01
EXPONENTS  0.2483000D+01 0.3229000D+00 0.1358000D+03 0.4319000D+02 0.1587000D+02
EXPONENTS  0.6208000D+01 0.2483000D+01 0.3229000D+00 0.1358000D+03 0.4319000D+02
EXPONENTS  0.1587000D+02 0.6208000D+01 0.2483000D+01 0.3229000D+00 0.8688000D+00
EXPONENTS  0.8688000D+00 0.8688000D+00 0.1098000D+00 0.1098000D+00 0.1098000D+00
EXPONENTS  0.3510000D-01 0.3510000D-01 0.3510000D-01 0.2690000D+00 0.2690000D+00
EXPONENTS  0.2690000D+00 0.2690000D+00 0.2690000D+00 0.2690000D+00 0.8190000D+00
EXPONENTS  0.8190000D+00 0.8190000D+00 0.8190000D+00 0.8190000D+00 0.8190000D+00
EXPONENTS  0.1010000D+00 0.1010000D+00 0.1010000D+00 0.1010000D+00 0.1010000D+00
EXPONENTS  0.1010000D+00 0.5570000D+00 0.5570000D+00 0.5570000D+00 0.5570000D+00
EXPONENTS  0.5570000D+00 0.5570000D+00 0.5570000D+00 0.5570000D+00 0.5570000D+00
EXPONENTS  0.5570000D+00 0.2180000D+00 0.2180000D+00 0.2180000D+00 0.2180000D+00
EXPONENTS  0.2180000D+00 0.2180000D+00 0.2180000D+00 0.2180000D+00 0.2180000D+00
EXPONENTS  0.2180000D+00 0.1063900D+08 0.1593400D+07 0.3626100D+06 0.1027000D+06
EXPONENTS  0.3350100D+05 0.1209300D+05 0.4715900D+04 0.1955600D+04 0.8526100D+03
EXPONENTS  0.3876700D+03 0.1826800D+03 0.8824500D+02 0.3926300D+02 0.9405700D+01
EXPONENTS  0.1899500D+01 0.3350100D+05 0.1209300D+05 0.4715900D+04 0.1955600D+04
EXPONENTS  0.8526100D+03 0.3876700D+03 0.1826800D+03 0.8824500D+02 0.3926300D+02
EXPONENTS  0.1923400D+02 0.9405700D+01 0.1899500D+01 0.4715900D+04 0.8526100D+03
EXPONENTS  0.3876700D+03 0.1826800D+03 0.8824500D+02 0.3926300D+02 0.1923400D+02
EXPONENTS  0.9405700D+01 0.4160100D+01 0.1899500D+01 0.4715900D+04 0.8526100D+03
EXPONENTS  0.3876700D+03 0.8824500D+02 0.3926300D+02 0.1923400D+02 0.9405700D+01
EXPONENTS  0.4160100D+01 0.1899500D+01 0.3011400D+00 0.6047200D+00 0.1251500D+00
EXPONENTS  0.4559300D-01 0.8676500D+04 0.2055900D+04 0.6662300D+03 0.2531000D+03
EXPONENTS  0.1061200D+03 0.4724200D+02 0.2182500D+02 0.9968400D+01 0.1998200D+01
EXPONENTS  0.8676500D+04 0.2055900D+04 0.6662300D+03 0.2531000D+03 0.1061200D+03
EXPONENTS  0.4724200D+02 0.2182500D+02 0.9968400D+01 0.1998200D+01 0.8676500D+04
EXPONENTS  0.2055900D+04 0.6662300D+03 0.2531000D+03 0.1061200D+03 0.4724200D+02
EXPONENTS  0.2182500D+02 0.9968400D+01 0.1998200D+01 0.8676500D+04 0.6662300D+03
EXPONENTS  0.2531000D+03 0.1061200D+03 0.4724200D+02 0.2182500D+02 0.9968400D+01
EXPONENTS  0.4517100D+01 0.1998200D+01 0.8676500D+04 0.6662300D+03 0.2531000D+03
EXPONENTS  0.1061200D+03 0.4724200D+02 0.2182500D+02 0.9968400D+01 0.4517100D+01
EXPONENTS  0.1998200D+01 0.8676500D+04 0.6662300D+03 0.2531000D+03 0.1061200D+03
EXPONENTS  0.4724200D+02 0.2182500D+02 0.9968400D+01 0.4517100D+01 0.1998200D+01
EXPONENTS  0.6662300D+03 0.1061200D+03 0.4724200D+02 0.2182500D+02 0.9968400D+01
EXPONENTS  0.4517100D+01 0.1998200D+01 0.2814500D+00 0.6662300D+03 0.1061200D+03
EXPONENTS  0.4724200D+02 0.2182500D+02 0.9968400D+01 0.4517100D+01 0.1998200D+01
EXPONENTS  0.2814500D+00 0.6662300D+03 0.1061200D+03 0.4724200D+02 0.2182500D+02
EXPONENTS  0.9968400D+01 0.4517100D+01 0.1998200D+01 0.2814500D+00 0.7098800D+00
EXPONENTS  0.7098800D+00 0.7098800D+00 0.1020400D+00 0.1020400D+00 0.1020400D+00
EXPONENTS  0.3514200D-01 0.3514200D-01 0.3514200D-01 0.4038300D+03 0.1211700D+03
EXPONENTS  0.4634500D+02 0.1972100D+02 0.8862400D+01 0.3996200D+01 0.1763600D+01
EXPONENTS  0.4038300D+03 0.1211700D+03 0.4634500D+02 0.1972100D+02 0.8862400D+01
EXPONENTS  0.3996200D+01 0.1763600D+01 0.4038300D+03 0.1211700D+03 0.4634500D+02
EXPONENTS  0.1972100D+02 0.8862400D+01 0.3996200D+01 0.1763600D+01 0.4038300D+03
EXPONENTS  0.1211700D+03 0.4634500D+02 0.1972100D+02 0.8862400D+01 0.3996200D+01
EXPONENTS  0.1763600D+01 0.4038300D+03 0.1211700D+03 0.4634500D+02 0.1972100D+02
EXPONENTS  0.8862400D+01 0.3996200D+01 0.1763600D+01 0.4038300D+03 0.1211700D+03
EXPONENTS  0.4634500D+02 0.1972100D+02 0.8862400D+01 0.3996200D+01 0.1763600D+01
EXPONENTS  0.7061900D+00 0.7061900D+00 0.7061900D+00 0.7061900D+00 0.7061900D+00
EXPONENTS  0.7061900D+00 0.2639000D+00 0.2639000D+00 0.2639000D+00 0.2639000D+00
EXPONENTS  0.2639000D+00 0.2639000D+00 0.1047000D+00 0.1047000D+00 0.1047000D+00
EXPONENTS  0.1047000D+00 0.1047000D+00 0.1047000D+00 0.5515000D+00 0.5515000D+00
EXPONENTS  0.5515000D+00 0.5515000D+00 0.5515000D+00 0.5515000D+00 0.5515000D+00
EXPONENTS  0.5515000D+00 0.5515000D+00 0.5515000D+00 0.2580000D+00 0.2580000D+00
EXPONENTS  0.2580000D+00 0.2580000D+00 0.2580000D+00 0.2580000D+00 0.2580000D+00
EXPONENTS  0.2580000D+00 0.2580000D+00 0.2580000D+00 0.1063900D+08 0.1593400D+07
EXPONENTS  0.3626100D+06 0.1027000D+06 0.3350100D+05 0.1209300D+05 0.4715900D+04
EXPONENTS  0.1955600D+04 0.8526100D+03 0.3876700D+03 0.1826800D+03 0.8824500D+02
EXPONENTS  0.3926300D+02 0.9405700D+01 0.1899500D+01 0.3350100D+05 0.1209300D+05
EXPONENTS  0.4715900D+04 0.1955600D+04 0.8526100D+03 0.3876700D+03 0.1826800D+03
EXPONENTS  0.8824500D+02 0.3926300D+02 0.1923400D+02 0.9405700D+01 0.1899500D+01
EXPONENTS  0.4715900D+04 0.8526100D+03 0.3876700D+03 0.1826800D+03 0.8824500D+02
EXPONENTS  0.3926300D+02 0.1923400D+02 0.9405700D+01 0.4160100D+01 0.1899500D+01
EXPONENTS  0.4715900D+04 0.8526100D+03 0.3876700D+03 0.8824500D+02 0.3926300D+02
EXPONENTS  0.1923400D+02 0.9405700D+01 0.4160100D+01 0.1899500D+01 0.3011400D+00
EXPONENTS  0.6047200D+00 0.1251500D+00 0.4559300D-01 0.8676500D+04 0.2055900D+04
EXPONENTS  0.6662300D+03 0.2531000D+03 0.1061200D+03 0.4724200D+02 0.2182500D+02
EXPONENTS  0.9968400D+01 0.1998200D+01 0.8676500D+04 0.2055900D+04 0.6662300D+03
EXPONENTS  0.2531000D+03 0.1061200D+03 0.4724200D+02 0.2182500D+02 0.9968400D+01
EXPONENTS  0.1998200D+01 0.8676500D+04 0.2055900D+04 0.6662300D+03 0.2531000D+03
EXPONENTS  0.1061200D+03 0.4724200D+02 0.2182500D+02 0.9968400D+01 0.1998200D+01
EXPONENTS  0.8676500D+04 0.6662300D+03 0.2531000D+03 0.1061200D+03 0.4724200D+02
EXPONENTS  0.2182500D+02 0.9968400D+01 0.4517100D+01 0.1998200D+01 0.8676500D+04
EXPONENTS  0.6662300D+03 0.2531000D+03 0.1061200D+03 0.4724200D+02 0.2182500D+02
EXPONENTS  0.9968400D+01 0.4517100D+01 0.1998200D+01 0.8676500D+04 0.6662300D+03
EXPONENTS  0.2531000D+03 0.1061200D+03 0.4724200D+02 0.2182500D+02 0.9968400D+01
EXPONENTS  0.4517100D+01 0.1998200D+01 0.6662300D+03 0.1061200D+03 0.4724200D+02
EXPONENTS  0.2182500D+02 0.9968400D+01 0.4517100D+01 0.1998200D+01 0.2814500D+00
EXPONENTS  0.6662300D+03 0.1061200D+03 0.4724200D+02 0.2182500D+02 0.9968400D+01
EXPONENTS  0.4517100D+01 0.1998200D+01 0.2814500D+00 0.6662300D+03 0.1061200D+03
EXPONENTS  0.4724200D+02 0.2182500D+02 0.9968400D+01 0.4517100D+01 0.1998200D+01
EXPONENTS  0.2814500D+00 0.7098800D+00 0.7098800D+00 0.7098800D+00 0.1020400D+00
EXPONENTS  0.1020400D+00 0.1020400D+00 0.3514200D-01 0.3514200D-01 0.3514200D-01
EXPONENTS  0.4038300D+03 0.1211700D+03 0.4634500D+02 0.1972100D+02 0.8862400D+01
EXPONENTS  0.3996200D+01 0.1763600D+01 0.4038300D+03 0.1211700D+03 0.4634500D+02
EXPONENTS  0.1972100D+02 0.8862400D+01 0.3996200D+01 0.1763600D+01 0.4038300D+03
EXPONENTS  0.1211700D+03 0.4634500D+02 0.1972100D+02 0.8862400D+01 0.3996200D+01
EXPONENTS  0.1763600D+01 0.4038300D+03 0.1211700D+03 0.4634500D+02 0.1972100D+02
EXPONENTS  0.8862400D+01 0.3996200D+01 0.1763600D+01 0.4038300D+03 0.1211700D+03
EXPONENTS  0.4634500D+02 0.1972100D+02 0.8862400D+01 0.3996200D+01 0.1763600D+01
EXPONENTS  0.4038300D+03 0.1211700D+03 0.4634500D+02 0.1972100D+02 0.8862400D+01
EXPONENTS  0.3996200D+01 0.1763600D+01 0.7061900D+00 0.7061900D+00 0.7061900D+00
EXPONENTS  0.7061900D+00 0.7061900D+00 0.7061900D+00 0.2639000D+00 0.2639000D+00
EXPONENTS  0.2639000D+00 0.2639000D+00 0.2639000D+00 0.2639000D+00 0.1047000D+00
EXPONENTS  0.1047000D+00 0.1047000D+00 0.1047000D+00 0.1047000D+00 0.1047000D+00
EXPONENTS  0.5515000D+00 0.5515000D+00 0.5515000D+00 0.5515000D+00 0.5515000D+00
EXPONENTS  0.5515000D+00 0.5515000D+00 0.5515000D+00 0.5515000D+00 0.5515000D+00
EXPONENTS  0.2580000D+00 0.2580000D+00 0.2580000D+00 0.2580000D+00 0.2580000D+00
EXPONENTS  0.2580000D+00 0.2580000D+00 0.2580000D+00 0.2580000D+00 0.2580000D+00
MO    1     MO 0.0        OCC NO =    2.0000282  ORB. ENERGY =    0.000000
  0.41956494D-03  0.78215357D-03  0.13219461D-02  0.19871315D-02  0.24408352D-02
  0.20599788D-02  0.77460582D-03  0.96704888D-07  0.72280912D-06  0.27013027D-05
  0.75362140D-05  0.10096449D-04 -0.11922024D-04  0.31983365D-04  0.20481839D-04
  0.44993471D-05  0.39174579D-13  0.36728658D-13  0.26152992D-13 -0.26319701D-02
 -0.24676393D-02 -0.17571062D-02 -0.48110908D-04 -0.45107034D-04 -0.32118896D-04
  0.13780814D-13 -0.55385675D-03 -0.63616201D-05  0.18915103D-13  0.12794754D-02
  0.73764887D-05  0.13068210D-15  0.79945942D-04  0.17730776D-07  0.22024027D-06
  0.17281314D-05 -0.19483716D-05  0.27974570D-14 -0.11140396D-13 -0.11873102D-02
 -0.96995042D-07 -0.82599772D-06  0.92299276D-06 -0.10115105D-15  0.33532035D-14
  0.26262099D-05 -0.81511699D-07  0.45024596D-06 -0.36873427D-06  0.37476954D-14
  0.43140191D-14 -0.32154455D-03  0.24521005D-14  0.11278548D-03 -0.75156642D-06
 -0.33810836D-14  0.27469398D-03  0.30091745D-05 -0.39752179D-14 -0.61305041D-03
 -0.75447524D-06 -0.32875406D-14 -0.17885701D-14 -0.68782263D-04 -0.26781537D-06
  0.17988453D-14 -0.13783457D-03 -0.66575356D-06  0.35668649D-14  0.34418136D-03
  0.14691997D-05  0.17254051D-14  0.66295161D-03  0.12394548D-02  0.21421463D-02
  0.34648333D-02  0.52369796D-02  0.72124052D-02  0.84304235D-02  0.72861420D-02
  0.34004804D-02  0.46069048D-03 -0.33695565D-05  0.82257609D-05  0.10574133D-03
  0.38572917D-03  0.13014407D-02  0.28585476D-02  0.36924639D-02 -0.59341036D-03
 -0.49780076D-02 -0.27318663D-02  0.77690521D-07  0.88494333D-06  0.18374614D-05
  0.50525521D-05 -0.65512140D-06 -0.22845339D-04 -0.56979905D-04  0.47167140D-04
 -0.15055043D-03 -0.10309823D-04 -0.90583029D-06 -0.28939027D-10 -0.37966358D-10
 -0.41640878D-10 -0.34260860D-10 -0.18060377D-10 -0.46989705D-11  0.97035923D+01
  0.12730561D+02  0.13962671D+02  0.11488065D+02  0.60558545D+01  0.15756194D+01
 -0.63913189D-01 -0.83850470D-01 -0.91965818D-01 -0.75666705D-01 -0.39887184D-01
 -0.10377895D-01 -0.37948333D-16 -0.13621794D-14 -0.21611317D-14 -0.25662776D-14
 -0.38834544D-15  0.28263054D-14  0.88426496D-04  0.31741249D-02  0.50358287D-02
  0.59798921D-02  0.90491529D-03 -0.65858039D-02 -0.58170594D-06 -0.20880702D-04
 -0.33127757D-04 -0.39338195D-04 -0.59529058D-05  0.43324133D-04 -0.22932878D-12
  0.67303267D-01 -0.46017362D-03 -0.15508437D-13 -0.31730066D-03  0.68926161D-05
 -0.13273278D-15 -0.27852913D-04  0.64072353D-07  0.24370569D-05  0.11088522D-05
 -0.35459091D-05 -0.11659388D-14  0.83887321D-14  0.76711435D-03 -0.12375677D-05
  0.17753828D-05 -0.53781514D-06 -0.14005952D-17 -0.90346025D-14 -0.72239074D-03
  0.13648983D-06  0.20219138D-06 -0.33868121D-06 -0.10498566D-14  0.39159114D-14
 -0.41762217D-04 -0.47612301D-15  0.37403706D-05  0.35486202D-06 -0.10504680D-14
  0.13855043D-03 -0.16432005D-05  0.24788371D-14 -0.14977154D-03  0.57861442D-06
 -0.41883400D-14  0.78665428D-15  0.31916247D-04  0.20735574D-06  0.69416414D-15
  0.28211447D-05 -0.29190710D-06 -0.30541270D-14 -0.98569887D-04 -0.33016013D-06
  0.23842505D-14  0.37563727D-03  0.70663029D-03  0.12232131D-02  0.20050812D-02
  0.31409902D-02  0.47211639D-02  0.67476531D-02  0.89574948D-02  0.10431650D-01
  0.95802635D-02  0.56002931D-02  0.14694842D-02  0.83548341D-04  0.14578287D-05
  0.14674704D-06  0.18891860D-04  0.54574230D-04  0.25012652D-03  0.74042896D-03
  0.21472656D-02  0.44632897D-02  0.63847890D-02  0.18307229D-02 -0.73158141D-02
 -0.70736844D-02 -0.15439397D-02  0.22348061D-04  0.12395023D-04  0.57825347D-04
  0.11735225D-03  0.45992388D-03  0.32273948D-03 -0.21018016D-02 -0.65127617D-02
 -0.79665660D-03  0.56931421D-02  0.26717914D-02 -0.95809018D-06 -0.13134656D-05
  0.25182313D-05  0.53520694D-05 -0.20232320D-04 -0.65426184D-04 -0.22754232D-04
  0.22256117D-03  0.49642677D-03 -0.32941370D-03 -0.52763396D-04  0.15301900D-02
  0.47471085D-03  0.30154860D-08  0.43267723D-08  0.57290463D-08  0.66160513D-08
  0.61343272D-08  0.39725080D-08  0.14017360D-08  0.16151343D-09 -0.26386333D-12
  0.12009438D+01  0.17231751D+01  0.22816430D+01  0.26349006D+01  0.24430497D+01
  0.15820862D+01  0.55825368D+00  0.64324144D-01 -0.10508589D-03  0.10528288D+01
  0.15106522D+01  0.20002431D+01  0.23099326D+01  0.21417431D+01  0.13869641D+01
  0.48940305D+00  0.56390908D-01 -0.92125420D-04  0.18595536D-11 -0.53019186D-11
 -0.25879346D-10 -0.53626927D-10 -0.67296500D-10 -0.10672015D-10  0.86386352D-10
  0.75341424D-10  0.19367634D-10 -0.72876687D-02  0.20778442D-01  0.10142225D+00
  0.21016618D+00  0.26373781D+00  0.41824074D-01 -0.33855174D+00 -0.29526621D+00
 -0.75902572D-01 -0.65040952D-02  0.18544334D-01  0.90517279D-01  0.18756902D+00
  0.23538060D+00  0.37327130D-01 -0.30215050D+00 -0.26351905D+00 -0.67741492D-01
 -0.28038987D-14 -0.39611767D-14  0.18431148D-14 -0.36936195D-14 -0.40547675D-14
 -0.10945088D-13 -0.34490865D-14  0.74052621D-14 -0.72689963D-04 -0.10269194D-03
  0.47782022D-04 -0.95755622D-04 -0.10511824D-03 -0.28374708D-03 -0.89416201D-04
  0.19197848D-03  0.57095508D-04  0.80661045D-04 -0.37531163D-04  0.75212804D-04
  0.82566824D-04  0.22287374D-03  0.70233404D-04 -0.15079261D-03  0.59890384D-12
 -0.31382555D-02 -0.29225732D-02  0.90680574D-14  0.38128057D-03  0.16845375D-03
  0.58766031D-18  0.14620869D-04  0.12374709D-04  0.14594384D+00  0.15271451D+00
  0.13012093D+00  0.85694472D-01  0.39494031D-01  0.11826551D-01  0.20121875D-02
 -0.14436946D+00 -0.15106708D+00 -0.12871724D+00 -0.84770034D-01 -0.39067985D-01
 -0.11698971D-01 -0.19904808D-02 -0.15743843D-02 -0.16474235D-02 -0.14036930D-02
 -0.92443796D-03 -0.42604593D-03 -0.12758014D-03 -0.21706680D-04 -0.10863005D-09
 -0.11366964D-09 -0.96852616D-10 -0.63784770D-10 -0.29396501D-10 -0.88028299D-11
 -0.14977269D-11 -0.26650569D-10 -0.27886949D-10 -0.23761173D-10 -0.15648529D-10
 -0.72119410D-11 -0.21596274D-11 -0.36744229D-12 -0.47500188D+00 -0.49703829D+00
 -0.42350323D+00 -0.27890889D+00 -0.12854080D+00 -0.38491752D-01 -0.65490452D-02
  0.64113398D-04 -0.11101347D-03  0.46900076D-04 -0.81804123D-13 -0.18619795D-13
 -0.35023068D-03 -0.54541931D-04  0.57525478D-04 -0.29835469D-05 -0.26843285D-14
 -0.18556872D-14  0.96167562D-04 -0.15727913D-04  0.18359872D-04 -0.26319586D-05
  0.10730340D-14  0.60601017D-15  0.64264014D-04 -0.83903408D-15  0.28937424D-04
  0.30487557D-04  0.30258205D-14 -0.51133742D-04 -0.37883968D-04 -0.50871823D-15
 -0.35678531D-04 -0.53578703D-04  0.49620754D-14  0.23317184D-15 -0.18823208D-05
 -0.16278595D-05 -0.71458990D-15  0.12285945D-04  0.20590091D-05  0.15074397D-16
 -0.66389831D-05  0.28245694D-05 -0.13364677D-14 -0.37474188D-03 -0.70494591D-03
 -0.12202974D-02 -0.20003017D-02 -0.31335031D-02 -0.47099102D-02 -0.67315689D-02
 -0.89361430D-02 -0.10406784D-01 -0.95574273D-02 -0.55869438D-02 -0.14659815D-02
 -0.83349189D-04 -0.14543537D-05 -0.14639725D-06 -0.18843737D-04 -0.54435212D-04
 -0.24948936D-03 -0.73854286D-03 -0.21417958D-02 -0.44519203D-02 -0.63685249D-02
 -0.18260595D-02  0.72971784D-02  0.70556655D-02  0.15400068D-02 -0.22291133D-04
 -0.12353820D-04 -0.57633127D-04 -0.11696215D-03 -0.45839503D-03 -0.32166664D-03
  0.20948149D-02  0.64911123D-02  0.79400840D-03 -0.56742173D-02 -0.26629100D-02
  0.96892861D-06  0.13283242D-05 -0.25467189D-05 -0.54126150D-05  0.20461199D-04
  0.66166320D-04  0.23011640D-04 -0.22507890D-03 -0.50204262D-03  0.33314021D-03
  0.55295365D-04 -0.15349752D-02 -0.47820741D-03  0.21392011D-08  0.30694342D-08
  0.40642146D-08  0.46934604D-08  0.43517229D-08  0.28181174D-08  0.99439865D-09
  0.11457845D-09 -0.18718599D-12  0.11908996D+01  0.17087632D+01  0.22625603D+01
  0.26128634D+01  0.24226171D+01  0.15688543D+01  0.55358469D+00  0.63786164D-01
 -0.10420700D-03 -0.10419672D+01 -0.14950674D+01 -0.19796074D+01 -0.22861020D+01
 -0.21196476D+01 -0.13726554D+01 -0.48435408D+00 -0.55809147D-01  0.91175000D-04
  0.14315338D-11 -0.40815578D-11 -0.19922609D-10 -0.41283433D-10 -0.51806634D-10
 -0.82156004D-11  0.66502509D-10  0.57999830D-10  0.14909719D-10 -0.72236945D-02
  0.20596040D-01  0.10053192D+00  0.20832125D+00  0.26142261D+00  0.41456924D-01
 -0.33557979D+00 -0.29267423D+00 -0.75236267D-01  0.64399573D-02 -0.18361466D-01
 -0.89624674D-01 -0.18571937D+00 -0.23305948D+00 -0.36959041D-01  0.29917095D+00
  0.26092044D+00  0.67073483D-01 -0.29264501D-14 -0.41343099D-14  0.19236728D-14
 -0.38550584D-14 -0.42319913D-14 -0.11423471D-13 -0.35998375D-14  0.77289276D-14
 -0.73127651D-04 -0.10331028D-03  0.48069732D-04 -0.96332196D-04 -0.10575119D-03
 -0.28545561D-03 -0.89954603D-04  0.19313444D-03 -0.58880251D-04 -0.83182420D-04
  0.38704345D-04 -0.77563873D-04 -0.85147772D-04 -0.22984052D-03 -0.72428822D-04
  0.15550622D-03  0.46415136D-12 -0.31120805D-02  0.29016097D-02  0.39324847D-16
  0.38316283D-03 -0.16628718D-03 -0.18381521D-16  0.14837278D-04 -0.12325325D-04
 -0.14793234D+00 -0.15479526D+00 -0.13189385D+00 -0.86862068D-01 -0.40032141D-01
 -0.11987689D-01 -0.20396037D-02  0.14929690D+00  0.15622312D+00  0.13311046D+00
  0.87663302D-01  0.40401406D-01  0.12098266D-01  0.20584175D-02 -0.13645580D-02
 -0.14278629D-02 -0.12166156D-02 -0.80123337D-03 -0.36926461D-03 -0.11057688D-03
 -0.18813719D-04 -0.61166974D-10 -0.64004648D-10 -0.54535385D-10 -0.35915674D-10
 -0.16552465D-10 -0.49566624D-11 -0.84333409D-12  0.21091166D-10  0.22069632D-10
  0.18804508D-10  0.12384190D-10  0.57075045D-11  0.17091215D-11  0.29079253D-12
 -0.47799936D+00 -0.50017483D+00 -0.42617572D+00 -0.28066893D+00 -0.12935195D+00
 -0.38734652D-01 -0.65903727D-02 -0.65462444D-04  0.11722474D-03 -0.51762300D-04
 -0.54552755D-13  0.23234348D-13 -0.35285715D-03  0.54651228D-04 -0.56716122D-04
  0.20648940D-05  0.20711766D-14 -0.27292622D-14  0.93383984D-04  0.15645610D-04
 -0.18418882D-04  0.27732712D-05  0.80063309D-15 -0.14434309D-14  0.63785766D-04
 -0.18179978D-14  0.27800964D-04 -0.31978749D-04  0.25189360D-14 -0.51537776D-04
  0.39901883D-04  0.29350574D-14 -0.31865115D-04  0.56034362D-04 -0.13101129D-13
  0.60162492D-15 -0.16995275D-05  0.13364662D-05 -0.37970463D-15  0.12347579D-04
 -0.22504380D-05 -0.14251701D-14 -0.72489966D-05 -0.17589607D-05  0.42942568D-14
MO    2     MO 0.0        OCC NO =    2.0000240  ORB. ENERGY =    0.000000
 -0.58945677D-01 -0.10988662D+00 -0.18572335D+00 -0.27917684D+00 -0.34291875D+00
 -0.28941132D+00 -0.10882622D+00 -0.10352540D-04 -0.77378826D-04 -0.28918234D-03
 -0.80677370D-03 -0.10808543D-02  0.12762874D-02 -0.44780490D-02 -0.17434437D-02
 -0.31643277D-03  0.20198275D-12  0.18937167D-12  0.13484391D-12 -0.20689661D-04
 -0.19397872D-04 -0.13812441D-04  0.22855066D-02  0.21428077D-02  0.15258068D-02
  0.15438658D-13 -0.32078006D-05 -0.21806493D-03 -0.12458678D-13  0.78016851D-05
 -0.96585495D-03  0.17459410D-14  0.28261327D-06  0.12337545D-05  0.12431477D-03
  0.12097513D-04 -0.13641228D-03 -0.43736806D-14  0.74342404D-13 -0.70871871D-05
  0.11865679D-03  0.12802960D-03 -0.24668640D-03 -0.62098669D-14 -0.38324279D-13
  0.25156766D-06  0.23577926D-04  0.99530423D-04 -0.12310835D-03 -0.32504870D-14
 -0.15704670D-14 -0.15672714D-05 -0.76361721D-14  0.12885425D-05 -0.96546527D-05
  0.14826068D-14  0.14937732D-05 -0.90180244D-04  0.21425909D-13 -0.53594005D-05
  0.11914420D-03  0.30313659D-14  0.49323640D-14 -0.90852795D-06  0.12999518D-04
  0.25455113D-14 -0.72561468D-06  0.44679769D-04 -0.17342603D-13  0.34511985D-05
 -0.83678324D-04  0.98857073D-15 -0.12708342D+00 -0.23759525D+00 -0.41063522D+00
 -0.66418554D+00 -0.10038942D+01 -0.13825702D+01 -0.16160562D+01 -0.13967050D+01
 -0.65184951D+00 -0.88311306D-01  0.64592161D-03 -0.15835502D-02 -0.20356378D-01
 -0.74257142D-01 -0.25054176D+00 -0.55030211D+00 -0.71084023D+00  0.11423807D+00
  0.95832165D+00  0.52591456D+00 -0.12728721D-04 -0.14498804D-03 -0.30104744D-03
 -0.82780401D-03  0.10733430D-03  0.37429527D-02  0.93355186D-02 -0.77278071D-02
  0.29350255D-01  0.18059356D-02  0.12812104D-03 -0.72546526D-09 -0.95176916D-09
 -0.10438848D-08 -0.85887696D-09 -0.45275110D-09 -0.11779732D-09  0.70422088D-01
  0.92389775D-01  0.10133159D+00  0.83372578D-01  0.43949283D-01  0.11434777D-01
  0.62275965D+01  0.81702524D+01  0.89609987D+01  0.73728398D+01  0.38865419D+01
  0.10112051D+01 -0.40992969D-14 -0.14714685D-12 -0.23345217D-12 -0.27721729D-12
 -0.41950282D-13  0.30530629D-12  0.61110860D-06  0.21936129D-04  0.34802218D-04
  0.41326567D-04  0.62537988D-05 -0.45513976D-04  0.57945823D-04  0.20800019D-02
  0.32999752D-02  0.39186193D-02  0.59299038D-03 -0.43156729D-02 -0.55337694D-11
  0.49748167D-03  0.45865738D-01  0.71641164D-14 -0.22347727D-05 -0.77325530D-03
  0.66391742D-15 -0.14773182D-06 -0.49885672D-05 -0.24676696D-03 -0.13332237D-03
  0.38008933D-03  0.86363502D-15 -0.51848556D-13  0.59787482D-05  0.20975165D-03
 -0.39811234D-03  0.18836069D-03 -0.33813789D-14  0.37610901D-13 -0.27081896D-05
 -0.54625998D-05 -0.30782392D-04  0.36244992D-04  0.72109133D-15 -0.10102367D-14
 -0.19855979D-06 -0.74661075D-14  0.49435113D-07 -0.74145644D-04  0.37276551D-14
  0.10038000D-05  0.20774276D-03  0.18670667D-13 -0.11521053D-05  0.14694169D-04
  0.36101793D-14 -0.12421190D-14  0.25077340D-06 -0.20794382D-04 -0.24935528D-14
  0.19147367D-07  0.19401189D-04  0.62199098D-14 -0.77146757D-06  0.42981958D-04
 -0.14468850D-14  0.58210485D-03  0.10950269D-02  0.18955475D-02  0.31071663D-02
  0.48674233D-02  0.73161333D-02  0.10456474D-01  0.13880947D-01  0.16165366D-01
  0.14846018D-01  0.86784724D-02  0.22771806D-02  0.12947036D-03  0.22591186D-05
  0.22740599D-06  0.27683012D-04  0.79969840D-04  0.36652057D-03  0.10849807D-02
  0.31464757D-02  0.65402402D-02  0.93558912D-02  0.26826328D-02 -0.10720160D-01
 -0.10365358D-01 -0.22623978D-02  0.32747523D-04  0.17573011D-04  0.81981733D-04
  0.16637584D-03  0.65205587D-03  0.45756304D-03 -0.29798237D-02 -0.92334507D-02
 -0.11294578D-02  0.80714372D-02  0.37879252D-02 -0.20826672D-06 -0.28551715D-06
  0.54740544D-06  0.11634166D-05 -0.43980401D-05 -0.14222144D-04 -0.49462455D-05
  0.48379668D-04  0.10791174D-03 -0.71606947D-04  0.83991359D-04 -0.27918125D-03
  0.78087494D-04  0.25904834D-08  0.37169570D-08  0.49215945D-08  0.56835850D-08
  0.52697552D-08  0.34126227D-08  0.12041753D-08  0.13874973D-09 -0.22667443D-12
  0.27044917D+00  0.38805419D+00  0.51381961D+00  0.59337221D+00  0.55016794D+00
  0.35628137D+00  0.12571716D+00  0.14485617D-01 -0.23665047D-04  0.33414549D+00
  0.47944891D+00  0.63483465D+00  0.73312353D+00  0.67974377D+00  0.44019294D+00
  0.15532613D+00  0.17897276D-01 -0.29238651D-04 -0.10603715D-11  0.30233081D-11