 br2cs-wavefunction
GAUSSIAN            214 MOL ORBITALS    620 PRIMITIVES        4 NUCLEI
  C    1    (CENTRE  1)   0.00000000  0.00000000 -0.98162013  CHARGE =  6.0
  S    2    (CENTRE  2)   0.00000000 -0.01889726  2.04788109  CHARGE = 16.0
  Br   3    (CENTRE  3)   0.00000000 -2.96406568 -2.98306498  CHARGE = 35.0
  Br   4    (CENTRE  4)   0.00000000  2.96406568 -2.98306498  CHARGE = 35.0
CENTRE ASSIGNMENTS    1  1  1  1  1  1  1  1  1  1  1  1  1  1  1  1  1  1  1  1
CENTRE ASSIGNMENTS    1  1  1  1  1  1  1  1  1  1  1  1  1  1  1  1  1  1  1  1
CENTRE ASSIGNMENTS    1  1  1  1  1  1  1  1  1  1  1  1  1  1  1  1  1  1  1  1
CENTRE ASSIGNMENTS    1  1  1  1  1  1  1  1  1  1  1  1  2  2  2  2  2  2  2  2
CENTRE ASSIGNMENTS    2  2  2  2  2  2  2  2  2  2  2  2  2  2  2  2  2  2  2  2
CENTRE ASSIGNMENTS    2  2  2  2  2  2  2  2  2  2  2  2  2  2  2  2  2  2  2  2
CENTRE ASSIGNMENTS    2  2  2  2  2  2  2  2  2  2  2  2  2  2  2  2  2  2  2  2
CENTRE ASSIGNMENTS    2  2  2  2  2  2  2  2  2  2  2  2  2  2  2  2  2  2  2  2
CENTRE ASSIGNMENTS    2  2  2  2  2  2  2  2  2  2  2  2  2  2  2  2  2  2  2  2
CENTRE ASSIGNMENTS    2  2  2  2  2  2  3  3  3  3  3  3  3  3  3  3  3  3  3  3
CENTRE ASSIGNMENTS    3  3  3  3  3  3  3  3  3  3  3  3  3  3  3  3  3  3  3  3
CENTRE ASSIGNMENTS    3  3  3  3  3  3  3  3  3  3  3  3  3  3  3  3  3  3  3  3
CENTRE ASSIGNMENTS    3  3  3  3  3  3  3  3  3  3  3  3  3  3  3  3  3  3  3  3
CENTRE ASSIGNMENTS    3  3  3  3  3  3  3  3  3  3  3  3  3  3  3  3  3  3  3  3
CENTRE ASSIGNMENTS    3  3  3  3  3  3  3  3  3  3  3  3  3  3  3  3  3  3  3  3
CENTRE ASSIGNMENTS    3  3  3  3  3  3  3  3  3  3  3  3  3  3  3  3  3  3  3  3
CENTRE ASSIGNMENTS    3  3  3  3  3  3  3  3  3  3  3  3  3  3  3  3  3  3  3  3
CENTRE ASSIGNMENTS    3  3  3  3  3  3  3  3  3  3  3  3  3  3  3  3  3  3  3  3
CENTRE ASSIGNMENTS    3  3  3  3  3  3  3  3  3  3  3  3  3  3  3  3  3  3  3  3
CENTRE ASSIGNMENTS    3  3  3  3  3  3  3  3  3  3  3  3  3  3  3  3  3  3  3  3
CENTRE ASSIGNMENTS    3  3  3  4  4  4  4  4  4  4  4  4  4  4  4  4  4  4  4  4
CENTRE ASSIGNMENTS    4  4  4  4  4  4  4  4  4  4  4  4  4  4  4  4  4  4  4  4
CENTRE ASSIGNMENTS    4  4  4  4  4  4  4  4  4  4  4  4  4  4  4  4  4  4  4  4
CENTRE ASSIGNMENTS    4  4  4  4  4  4  4  4  4  4  4  4  4  4  4  4  4  4  4  4
CENTRE ASSIGNMENTS    4  4  4  4  4  4  4  4  4  4  4  4  4  4  4  4  4  4  4  4
CENTRE ASSIGNMENTS    4  4  4  4  4  4  4  4  4  4  4  4  4  4  4  4  4  4  4  4
CENTRE ASSIGNMENTS    4  4  4  4  4  4  4  4  4  4  4  4  4  4  4  4  4  4  4  4
CENTRE ASSIGNMENTS    4  4  4  4  4  4  4  4  4  4  4  4  4  4  4  4  4  4  4  4
CENTRE ASSIGNMENTS    4  4  4  4  4  4  4  4  4  4  4  4  4  4  4  4  4  4  4  4
CENTRE ASSIGNMENTS    4  4  4  4  4  4  4  4  4  4  4  4  4  4  4  4  4  4  4  4
CENTRE ASSIGNMENTS    4  4  4  4  4  4  4  4  4  4  4  4  4  4  4  4  4  4  4  4
TYPE ASSIGNMENTS      1  1  1  1  1  1  1  1  1  1  1  1  1  1  1  1  2  2  2  3
TYPE ASSIGNMENTS      3  3  4  4  4  2  3  4  2  3  4  2  3  4  5  6  7  8  9 10
TYPE ASSIGNMENTS      5  6  7  8  9 10  5  6  7  8  9 10 11 12 13 17 14 15 18 19
TYPE ASSIGNMENTS     16 20 11 12 13 17 14 15 18 19 16 20  1  1  1  1  1  1  1  1
TYPE ASSIGNMENTS      1  1  1  1  1  1  1  1  1  1  1  1  1  1  1  1  1  1  1  1
TYPE ASSIGNMENTS      1  1  1  2  2  2  2  2  2  3  3  3  3  3  3  4  4  4  4  4
TYPE ASSIGNMENTS      4  2  2  2  2  2  2  3  3  3  3  3  3  4  4  4  4  4  4  2
TYPE ASSIGNMENTS      3  4  2  3  4  2  3  4  5  6  7  8  9 10  5  6  7  8  9 10
TYPE ASSIGNMENTS      5  6  7  8  9 10 11 12 13 17 14 15 18 19 16 20 11 12 13 17
TYPE ASSIGNMENTS     14 15 18 19 16 20  1  1  1  1  1  1  1  1  1  1  1  1  1  1
TYPE ASSIGNMENTS      1  1  1  1  1  1  1  1  1  1  1  1  1  1  1  1  1  1  1  1
TYPE ASSIGNMENTS      1  1  1  1  1  1  1  1  1  1  1  1  1  1  1  1  2  2  2  2
TYPE ASSIGNMENTS      2  2  2  2  2  3  3  3  3  3  3  3  3  3  4  4  4  4  4  4
TYPE ASSIGNMENTS      4  4  4  2  2  2  2  2  2  2  2  2  3  3  3  3  3  3  3  3
TYPE ASSIGNMENTS      3  4  4  4  4  4  4  4  4  4  2  2  2  2  2  2  2  2  3  3
TYPE ASSIGNMENTS      3  3  3  3  3  3  4  4  4  4  4  4  4  4  2  3  4  2  3  4
TYPE ASSIGNMENTS      2  3  4  5  5  5  5  5  5  5  6  6  6  6  6  6  6  7  7  7
TYPE ASSIGNMENTS      7  7  7  7  8  8  8  8  8  8  8  9  9  9  9  9  9  9 10 10
TYPE ASSIGNMENTS     10 10 10 10 10  5  6  7  8  9 10  5  6  7  8  9 10  5  6  7
TYPE ASSIGNMENTS      8  9 10 11 12 13 17 14 15 18 19 16 20 11 12 13 17 14 15 18
TYPE ASSIGNMENTS     19 16 20  1  1  1  1  1  1  1  1  1  1  1  1  1  1  1  1  1
TYPE ASSIGNMENTS      1  1  1  1  1  1  1  1  1  1  1  1  1  1  1  1  1  1  1  1
TYPE ASSIGNMENTS      1  1  1  1  1  1  1  1  1  1  1  1  1  2  2  2  2  2  2  2
TYPE ASSIGNMENTS      2  2  3  3  3  3  3  3  3  3  3  4  4  4  4  4  4  4  4  4
TYPE ASSIGNMENTS      2  2  2  2  2  2  2  2  2  3  3  3  3  3  3  3  3  3  4  4
TYPE ASSIGNMENTS      4  4  4  4  4  4  4  2  2  2  2  2  2  2  2  3  3  3  3  3
TYPE ASSIGNMENTS      3  3  3  4  4  4  4  4  4  4  4  2  3  4  2  3  4  2  3  4
TYPE ASSIGNMENTS      5  5  5  5  5  5  5  6  6  6  6  6  6  6  7  7  7  7  7  7
TYPE ASSIGNMENTS      7  8  8  8  8  8  8  8  9  9  9  9  9  9  9 10 10 10 10 10
TYPE ASSIGNMENTS     10 10  5  6  7  8  9 10  5  6  7  8  9 10  5  6  7  8  9 10
TYPE ASSIGNMENTS     11 12 13 17 14 15 18 19 16 20 11 12 13 17 14 15 18 19 16 20
EXPONENTS  0.8236000D+04 0.1235000D+04 0.2808000D+03 0.7927000D+02 0.2559000D+02
EXPONENTS  0.8997000D+01 0.3319000D+01 0.2808000D+03 0.7927000D+02 0.2559000D+02
EXPONENTS  0.8997000D+01 0.3319000D+01 0.3643000D+00 0.9059000D+00 0.1285000D+00
EXPONENTS  0.4402000D-01 0.1871000D+02 0.4133000D+01 0.1200000D+01 0.1871000D+02
EXPONENTS  0.4133000D+01 0.1200000D+01 0.1871000D+02 0.4133000D+01 0.1200000D+01
EXPONENTS  0.3827000D+00 0.3827000D+00 0.3827000D+00 0.1209000D+00 0.1209000D+00
EXPONENTS  0.1209000D+00 0.3569000D-01 0.3569000D-01 0.3569000D-01 0.1097000D+01
EXPONENTS  0.1097000D+01 0.1097000D+01 0.1097000D+01 0.1097000D+01 0.1097000D+01
EXPONENTS  0.3180000D+00 0.3180000D+00 0.3180000D+00 0.3180000D+00 0.3180000D+00
EXPONENTS  0.3180000D+00 0.1000000D+00 0.1000000D+00 0.1000000D+00 0.1000000D+00
EXPONENTS  0.1000000D+00 0.1000000D+00 0.7610000D+00 0.7610000D+00 0.7610000D+00
EXPONENTS  0.7610000D+00 0.7610000D+00 0.7610000D+00 0.7610000D+00 0.7610000D+00
EXPONENTS  0.7610000D+00 0.7610000D+00 0.2680000D+00 0.2680000D+00 0.2680000D+00
EXPONENTS  0.2680000D+00 0.2680000D+00 0.2680000D+00 0.2680000D+00 0.2680000D+00
EXPONENTS  0.2680000D+00 0.2680000D+00 0.3741000D+06 0.5605000D+05 0.1276000D+05
EXPONENTS  0.3615000D+04 0.1183000D+04 0.4288000D+03 0.1678000D+03 0.6947000D+02
EXPONENTS  0.2984000D+02 0.1272000D+02 0.5244000D+01 0.3615000D+04 0.1183000D+04
EXPONENTS  0.4288000D+03 0.1678000D+03 0.6947000D+02 0.2984000D+02 0.1272000D+02
EXPONENTS  0.5244000D+01 0.2219000D+01 0.1183000D+04 0.1678000D+03 0.6947000D+02
EXPONENTS  0.2984000D+02 0.1272000D+02 0.5244000D+01 0.2219000D+01 0.3490000D+00
EXPONENTS  0.7767000D+00 0.1322000D+00 0.4970000D-01 0.5744000D+03 0.1358000D+03
EXPONENTS  0.4319000D+02 0.1587000D+02 0.6208000D+01 0.2483000D+01 0.5744000D+03
EXPONENTS  0.1358000D+03 0.4319000D+02 0.1587000D+02 0.6208000D+01 0.2483000D+01
EXPONENTS  0.5744000D+03 0.1358000D+03 0.4319000D+02 0.1587000D+02 0.6208000D+01
EXPONENTS  0.2483000D+01 0.1358000D+03 0.4319000D+02 0.1587000D+02 0.6208000D+01
EXPONENTS  0.2483000D+01 0.3229000D+00 0.1358000D+03 0.4319000D+02 0.1587000D+02
EXPONENTS  0.6208000D+01 0.2483000D+01 0.3229000D+00 0.1358000D+03 0.4319000D+02
EXPONENTS  0.1587000D+02 0.6208000D+01 0.2483000D+01 0.3229000D+00 0.8688000D+00
EXPONENTS  0.8688000D+00 0.8688000D+00 0.1098000D+00 0.1098000D+00 0.1098000D+00
EXPONENTS  0.3510000D-01 0.3510000D-01 0.3510000D-01 0.2690000D+00 0.2690000D+00
EXPONENTS  0.2690000D+00 0.2690000D+00 0.2690000D+00 0.2690000D+00 0.8190000D+00
EXPONENTS  0.8190000D+00 0.8190000D+00 0.8190000D+00 0.8190000D+00 0.8190000D+00
EXPONENTS  0.1010000D+00 0.1010000D+00 0.1010000D+00 0.1010000D+00 0.1010000D+00
EXPONENTS  0.1010000D+00 0.5570000D+00 0.5570000D+00 0.5570000D+00 0.5570000D+00
EXPONENTS  0.5570000D+00 0.5570000D+00 0.5570000D+00 0.5570000D+00 0.5570000D+00
EXPONENTS  0.5570000D+00 0.2180000D+00 0.2180000D+00 0.2180000D+00 0.2180000D+00
EXPONENTS  0.2180000D+00 0.2180000D+00 0.2180000D+00 0.2180000D+00 0.2180000D+00
EXPONENTS  0.2180000D+00 0.1063900D+08 0.1593400D+07 0.3626100D+06 0.1027000D+06
EXPONENTS  0.3350100D+05 0.1209300D+05 0.4715900D+04 0.1955600D+04 0.8526100D+03
EXPONENTS  0.3876700D+03 0.1826800D+03 0.8824500D+02 0.3926300D+02 0.9405700D+01
EXPONENTS  0.1899500D+01 0.3350100D+05 0.1209300D+05 0.4715900D+04 0.1955600D+04
EXPONENTS  0.8526100D+03 0.3876700D+03 0.1826800D+03 0.8824500D+02 0.3926300D+02
EXPONENTS  0.1923400D+02 0.9405700D+01 0.1899500D+01 0.4715900D+04 0.8526100D+03
EXPONENTS  0.3876700D+03 0.1826800D+03 0.8824500D+02 0.3926300D+02 0.1923400D+02
EXPONENTS  0.9405700D+01 0.4160100D+01 0.1899500D+01 0.4715900D+04 0.8526100D+03
EXPONENTS  0.3876700D+03 0.8824500D+02 0.3926300D+02 0.1923400D+02 0.9405700D+01
EXPONENTS  0.4160100D+01 0.1899500D+01 0.3011400D+00 0.6047200D+00 0.1251500D+00
EXPONENTS  0.4559300D-01 0.8676500D+04 0.2055900D+04 0.6662300D+03 0.2531000D+03
EXPONENTS  0.1061200D+03 0.4724200D+02 0.2182500D+02 0.9968400D+01 0.1998200D+01
EXPONENTS  0.8676500D+04 0.2055900D+04 0.6662300D+03 0.2531000D+03 0.1061200D+03
EXPONENTS  0.4724200D+02 0.2182500D+02 0.9968400D+01 0.1998200D+01 0.8676500D+04
EXPONENTS  0.2055900D+04 0.6662300D+03 0.2531000D+03 0.1061200D+03 0.4724200D+02
EXPONENTS  0.2182500D+02 0.9968400D+01 0.1998200D+01 0.8676500D+04 0.6662300D+03
EXPONENTS  0.2531000D+03 0.1061200D+03 0.4724200D+02 0.2182500D+02 0.9968400D+01
EXPONENTS  0.4517100D+01 0.1998200D+01 0.8676500D+04 0.6662300D+03 0.2531000D+03
EXPONENTS  0.1061200D+03 0.4724200D+02 0.2182500D+02 0.9968400D+01 0.4517100D+01
EXPONENTS  0.1998200D+01 0.8676500D+04 0.6662300D+03 0.2531000D+03 0.1061200D+03
EXPONENTS  0.4724200D+02 0.2182500D+02 0.9968400D+01 0.4517100D+01 0.1998200D+01
EXPONENTS  0.6662300D+03 0.1061200D+03 0.4724200D+02 0.2182500D+02 0.9968400D+01
EXPONENTS  0.4517100D+01 0.1998200D+01 0.2814500D+00 0.6662300D+03 0.1061200D+03
EXPONENTS  0.4724200D+02 0.2182500D+02 0.9968400D+01 0.4517100D+01 0.1998200D+01
EXPONENTS  0.2814500D+00 0.6662300D+03 0.1061200D+03 0.4724200D+02 0.2182500D+02
EXPONENTS  0.9968400D+01 0.4517100D+01 0.1998200D+01 0.2814500D+00 0.7098800D+00
EXPONENTS  0.7098800D+00 0.7098800D+00 0.1020400D+00 0.1020400D+00 0.1020400D+00
EXPONENTS  0.3514200D-01 0.3514200D-01 0.3514200D-01 0.4038300D+03 0.1211700D+03
EXPONENTS  0.4634500D+02 0.1972100D+02 0.8862400D+01 0.3996200D+01 0.1763600D+01
EXPONENTS  0.4038300D+03 0.1211700D+03 0.4634500D+02 0.1972100D+02 0.8862400D+01
EXPONENTS  0.3996200D+01 0.1763600D+01 0.4038300D+03 0.1211700D+03 0.4634500D+02
EXPONENTS  0.1972100D+02 0.8862400D+01 0.3996200D+01 0.1763600D+01 0.4038300D+03
EXPONENTS  0.1211700D+03 0.4634500D+02 0.1972100D+02 0.8862400D+01 0.3996200D+01
EXPONENTS  0.1763600D+01 0.4038300D+03 0.1211700D+03 0.4634500D+02 0.1972100D+02
EXPONENTS  0.8862400D+01 0.3996200D+01 0.1763600D+01 0.4038300D+03 0.1211700D+03
EXPONENTS  0.4634500D+02 0.1972100D+02 0.8862400D+01 0.3996200D+01 0.1763600D+01
EXPONENTS  0.7061900D+00 0.7061900D+00 0.7061900D+00 0.7061900D+00 0.7061900D+00
EXPONENTS  0.7061900D+00 0.2639000D+00 0.2639000D+00 0.2639000D+00 0.2639000D+00
EXPONENTS  0.2639000D+00 0.2639000D+00 0.1047000D+00 0.1047000D+00 0.1047000D+00
EXPONENTS  0.1047000D+00 0.1047000D+00 0.1047000D+00 0.5515000D+00 0.5515000D+00
EXPONENTS  0.5515000D+00 0.5515000D+00 0.5515000D+00 0.5515000D+00 0.5515000D+00
EXPONENTS  0.5515000D+00 0.5515000D+00 0.5515000D+00 0.2580000D+00 0.2580000D+00
EXPONENTS  0.2580000D+00 0.2580000D+00 0.2580000D+00 0.2580000D+00 0.2580000D+00
EXPONENTS  0.2580000D+00 0.2580000D+00 0.2580000D+00 0.1063900D+08 0.1593400D+07
EXPONENTS  0.3626100D+06 0.1027000D+06 0.3350100D+05 0.1209300D+05 0.4715900D+04
EXPONENTS  0.1955600D+04 0.8526100D+03 0.3876700D+03 0.1826800D+03 0.8824500D+02
EXPONENTS  0.3926300D+02 0.9405700D+01 0.1899500D+01 0.3350100D+05 0.1209300D+05
EXPONENTS  0.4715900D+04 0.1955600D+04 0.8526100D+03 0.3876700D+03 0.1826800D+03
EXPONENTS  0.8824500D+02 0.3926300D+02 0.1923400D+02 0.9405700D+01 0.1899500D+01
EXPONENTS  0.4715900D+04 0.8526100D+03 0.3876700D+03 0.1826800D+03 0.8824500D+02
EXPONENTS  0.3926300D+02 0.1923400D+02 0.9405700D+01 0.4160100D+01 0.1899500D+01
EXPONENTS  0.4715900D+04 0.8526100D+03 0.3876700D+03 0.8824500D+02 0.3926300D+02
EXPONENTS  0.1923400D+02 0.9405700D+01 0.4160100D+01 0.1899500D+01 0.3011400D+00
EXPONENTS  0.6047200D+00 0.1251500D+00 0.4559300D-01 0.8676500D+04 0.2055900D+04
EXPONENTS  0.6662300D+03 0.2531000D+03 0.1061200D+03 0.4724200D+02 0.2182500D+02
EXPONENTS  0.9968400D+01 0.1998200D+01 0.8676500D+04 0.2055900D+04 0.6662300D+03
EXPONENTS  0.2531000D+03 0.1061200D+03 0.4724200D+02 0.2182500D+02 0.9968400D+01
EXPONENTS  0.1998200D+01 0.8676500D+04 0.2055900D+04 0.6662300D+03 0.2531000D+03
EXPONENTS  0.1061200D+03 0.4724200D+02 0.2182500D+02 0.9968400D+01 0.1998200D+01
EXPONENTS  0.8676500D+04 0.6662300D+03 0.2531000D+03 0.1061200D+03 0.4724200D+02
EXPONENTS  0.2182500D+02 0.9968400D+01 0.4517100D+01 0.1998200D+01 0.8676500D+04
EXPONENTS  0.6662300D+03 0.2531000D+03 0.1061200D+03 0.4724200D+02 0.2182500D+02
EXPONENTS  0.9968400D+01 0.4517100D+01 0.1998200D+01 0.8676500D+04 0.6662300D+03
EXPONENTS  0.2531000D+03 0.1061200D+03 0.4724200D+02 0.2182500D+02 0.9968400D+01
EXPONENTS  0.4517100D+01 0.1998200D+01 0.6662300D+03 0.1061200D+03 0.4724200D+02
EXPONENTS  0.2182500D+02 0.9968400D+01 0.4517100D+01 0.1998200D+01 0.2814500D+00
EXPONENTS  0.6662300D+03 0.1061200D+03 0.4724200D+02 0.2182500D+02 0.9968400D+01
EXPONENTS  0.4517100D+01 0.1998200D+01 0.2814500D+00 0.6662300D+03 0.1061200D+03
EXPONENTS  0.4724200D+02 0.2182500D+02 0.9968400D+01 0.4517100D+01 0.1998200D+01
EXPONENTS  0.2814500D+00 0.7098800D+00 0.7098800D+00 0.7098800D+00 0.1020400D+00
EXPONENTS  0.1020400D+00 0.1020400D+00 0.3514200D-01 0.3514200D-01 0.3514200D-01
EXPONENTS  0.4038300D+03 0.1211700D+03 0.4634500D+02 0.1972100D+02 0.8862400D+01
EXPONENTS  0.3996200D+01 0.1763600D+01 0.4038300D+03 0.1211700D+03 0.4634500D+02
EXPONENTS  0.1972100D+02 0.8862400D+01 0.3996200D+01 0.1763600D+01 0.4038300D+03
EXPONENTS  0.1211700D+03 0.4634500D+02 0.1972100D+02 0.8862400D+01 0.3996200D+01
EXPONENTS  0.1763600D+01 0.4038300D+03 0.1211700D+03 0.4634500D+02 0.1972100D+02
EXPONENTS  0.8862400D+01 0.3996200D+01 0.1763600D+01 0.4038300D+03 0.1211700D+03
EXPONENTS  0.4634500D+02 0.1972100D+02 0.8862400D+01 0.3996200D+01 0.1763600D+01
EXPONENTS  0.4038300D+03 0.1211700D+03 0.4634500D+02 0.1972100D+02 0.8862400D+01
EXPONENTS  0.3996200D+01 0.1763600D+01 0.7061900D+00 0.7061900D+00 0.7061900D+00
EXPONENTS  0.7061900D+00 0.7061900D+00 0.7061900D+00 0.2639000D+00 0.2639000D+00
EXPONENTS  0.2639000D+00 0.2639000D+00 0.2639000D+00 0.2639000D+00 0.1047000D+00
EXPONENTS  0.1047000D+00 0.1047000D+00 0.1047000D+00 0.1047000D+00 0.1047000D+00
EXPONENTS  0.5515000D+00 0.5515000D+00 0.5515000D+00 0.5515000D+00 0.5515000D+00
EXPONENTS  0.5515000D+00 0.5515000D+00 0.5515000D+00 0.5515000D+00 0.5515000D+00
EXPONENTS  0.2580000D+00 0.2580000D+00 0.2580000D+00 0.2580000D+00 0.2580000D+00
EXPONENTS  0.2580000D+00 0.2580000D+00 0.2580000D+00 0.2580000D+00 0.2580000D+00
MO    1     MO 0.0        OCC NO =    2.0000283  ORB. ENERGY =    0.000000
 -0.49578679D-03 -0.92424645D-03 -0.15621024D-02 -0.23481313D-02 -0.28842587D-02
 -0.24342126D-02 -0.91532751D-03 -0.13740898D-06 -0.10270470D-05 -0.38383091D-05
 -0.10708285D-04 -0.14346149D-04  0.16940127D-04 -0.36322271D-04 -0.12216594D-04
 -0.21558072D-05 -0.22022573D-12 -0.20647562D-12 -0.14702294D-12 -0.26174249D-02
 -0.24540022D-02 -0.17473958D-02  0.28143149D-04  0.26385991D-04  0.18788397D-04
 -0.51434627D-13 -0.55126149D-03  0.51773552D-05 -0.16372832D-13  0.12874214D-02
 -0.13533678D-04 -0.19721982D-14  0.80511602D-04 -0.22944656D-06 -0.40157893D-06
  0.51219083D-05 -0.47203293D-05  0.60324212D-16 -0.95622644D-14 -0.11881725D-02
 -0.35837039D-06 -0.74809113D-06  0.11064615D-05 -0.60730445D-14  0.20568394D-13
  0.15387315D-05  0.45053486D-07  0.52629657D-06 -0.57135005D-06 -0.34434155D-16
 -0.10220165D-13 -0.32131776D-03  0.28072147D-14  0.11227264D-03 -0.22077720D-05
  0.16915590D-14  0.27517009D-03 -0.37699856D-05 -0.10113203D-13 -0.61198800D-03
  0.10393301D-04 -0.16305459D-14 -0.10515317D-14 -0.68557422D-04  0.18946086D-05
 -0.28851983D-14 -0.13799641D-03  0.10012553D-05  0.60397934D-14  0.34366868D-03
 -0.66850811D-05  0.17131760D-14 -0.39533123D-03 -0.73911156D-03 -0.12774045D-02
 -0.20661491D-02 -0.31229152D-02 -0.43009008D-02 -0.50272293D-02 -0.43448715D-02
 -0.20277741D-02 -0.27471890D-03  0.20093336D-05 -0.48768126D-05 -0.62690936D-04
 -0.22868752D-03 -0.77158603D-03 -0.16947491D-02 -0.21891536D-02  0.35181562D-03
  0.29513148D-02  0.16196435D-02 -0.52426833D-07 -0.59717422D-06 -0.12399490D-05
 -0.34095447D-05  0.44208663D-06  0.15416408D-04  0.38450971D-04 -0.31829157D-04
  0.90154040D-04  0.18650418D-04  0.32853469D-05  0.40905167D-09  0.53665253D-09
  0.58859168D-09  0.48427550D-09  0.25528251D-09  0.66419707D-10  0.97037438D+01
  0.12730760D+02  0.13962889D+02  0.11488244D+02  0.60559491D+01  0.15756440D+01
  0.12304619D+00  0.16142961D+00  0.17705334D+00  0.14567416D+00  0.76791133D-01
  0.19979608D-01  0.21719280D-14  0.77962725D-13  0.12368982D-12  0.14687786D-12
  0.22226492D-13 -0.16176025D-12  0.88544022D-04  0.31783436D-02  0.50425217D-02
  0.59878399D-02  0.90611800D-03 -0.65945570D-02  0.11310947D-05  0.40601356D-04
  0.64415070D-04  0.76490919D-04  0.11575092D-04 -0.84241352D-04  0.31588790D-11
  0.67290236D-01  0.86927160D-03  0.27843815D-13 -0.32088216D-03 -0.11730540D-04
  0.34215134D-15 -0.28030687D-04 -0.23663381D-06 -0.23734848D-05 -0.55528659D-05
  0.79263506D-05  0.71051119D-16  0.18386710D-13  0.76791913D-03  0.11878171D-05
  0.32959817D-05 -0.44837988D-05 -0.31445022D-14 -0.89957363D-15 -0.72860114D-03
 -0.21017344D-06 -0.25669366D-07  0.23584281D-06 -0.35721317D-16 -0.69979532D-14
 -0.41381663D-04  0.55061401D-14  0.35457029D-05 -0.10745356D-05 -0.14837100D-14
  0.13848757D-03  0.26134476D-05 -0.15034710D-13 -0.14912468D-03  0.61015927D-06
 -0.14052062D-14 -0.54906428D-15  0.31994137D-04 -0.69927994D-06  0.40460837D-15
  0.28355738D-05  0.13909770D-06  0.12425845D-14 -0.98817984D-04  0.19587421D-05
  0.18500561D-15  0.39628099D-03  0.74546423D-03  0.12904367D-02  0.21152735D-02
  0.33136081D-02  0.49806226D-02  0.71184806D-02  0.94497675D-02  0.11004937D-01
  0.10106761D-01  0.59080657D-02  0.15502420D-02  0.88139867D-04  0.15379459D-05
  0.15481175D-06  0.19869049D-04  0.57397102D-04  0.26306440D-03  0.77872793D-03
  0.22583337D-02  0.46941551D-02  0.67150446D-02  0.19254178D-02 -0.76942273D-02
 -0.74395734D-02 -0.16238006D-02  0.23504023D-04  0.12961881D-04  0.60469856D-04
  0.12271909D-03  0.48095744D-03  0.33749923D-03 -0.21979227D-02 -0.68106079D-02
 -0.83308986D-03  0.59535049D-02  0.27939796D-02 -0.97636053D-06 -0.13385128D-05
  0.25662528D-05  0.54541311D-05 -0.20618142D-04 -0.66673832D-04 -0.23188145D-04
  0.22680531D-03  0.50589341D-03 -0.33569548D-03 -0.51736501D-04  0.15340909D-02
  0.47850508D-03 -0.61933920D-09 -0.88865931D-09 -0.11766670D-08 -0.13588456D-08
 -0.12599061D-08 -0.81589831D-09 -0.28789723D-09 -0.33172630D-10  0.54193886D-13
  0.11838972D+01  0.16987158D+01  0.22492567D+01  0.25975000D+01  0.24083724D+01
  0.15596296D+01  0.55032967D+00  0.63411108D-01 -0.10359427D-03  0.10337535D+01
  0.14832819D+01  0.19640023D+01  0.22680809D+01  0.21029387D+01  0.13618349D+01
  0.48053597D+00  0.55369209D-01 -0.90456277D-04 -0.31914331D-11  0.90993445D-11
  0.44415070D-10  0.92036472D-10  0.11549669D-09  0.18315697D-10 -0.14825938D-09
 -0.12930368D-09 -0.33239434D-10 -0.71834852D-02  0.20481396D-01  0.99972327D-01
  0.20716167D+00  0.25996745D+00  0.41226162D-01 -0.33371185D+00 -0.29104512D+00
 -0.74817479D-01 -0.63896622D-02  0.18218065D-01  0.88924719D-01  0.18426893D+00
  0.23123932D+00  0.36670397D-01 -0.29683447D+00 -0.25888269D+00 -0.66549649D-01
 -0.31784944D-14 -0.44903827D-14  0.20893516D-14 -0.41870803D-14 -0.45964770D-14
 -0.12407332D-13 -0.39098782D-14  0.83945915D-14 -0.72161351D-04 -0.10194515D-03
  0.47434544D-04 -0.95059274D-04 -0.10435381D-03 -0.28168363D-03 -0.88765954D-04
  0.19058239D-03  0.59010998D-04  0.83367131D-04 -0.38790290D-04  0.77736108D-04
  0.85336847D-04  0.23035090D-03  0.72589654D-04 -0.15585153D-03 -0.10538547D-11
 -0.31007033D-02 -0.28860136D-02 -0.11850057D-13  0.38335024D-03  0.16567851D-03
  0.73587283D-15  0.14806886D-04  0.12324890D-04  0.14670129D+00  0.15350709D+00
  0.13079626D+00  0.86139225D-01  0.39699004D-01  0.11887931D-01  0.20226307D-02
 -0.14861981D+00 -0.15551462D+00 -0.13250678D+00 -0.87265734D-01 -0.40218179D-01
 -0.12043399D-01 -0.20490822D-02  0.19185254D-02  0.20075302D-02  0.17105231D-02
  0.11265088D-02  0.51917437D-03  0.15546761D-03  0.26451495D-04  0.26891376D-10
  0.28138927D-10  0.23975872D-10  0.15789924D-10  0.72771061D-11  0.21791412D-11
  0.37076240D-12  0.28154450D-10  0.29460598D-10  0.25102007D-10  0.16531569D-10
  0.76189080D-11  0.22814943D-11  0.38817692D-12 -0.47432759D+00 -0.49633272D+00
 -0.42290204D+00 -0.27851297D+00 -0.12835833D+00 -0.38437111D-01 -0.65397485D-02
  0.63929114D-04 -0.11808609D-03  0.54156972D-04  0.15392885D-13  0.14117534D-13
 -0.34883363D-03 -0.55034717D-04  0.56106883D-04 -0.10721655D-05 -0.40053692D-14
  0.68567328D-15  0.92858332D-04 -0.15680476D-04  0.18420135D-04 -0.27396588D-05
 -0.21412388D-14 -0.31540960D-15  0.63641123D-04  0.14367318D-14  0.27390531D-04
  0.32538215D-04 -0.25454707D-14 -0.52556990D-04 -0.41547382D-04 -0.17647248D-14
 -0.29614602D-04 -0.56067261D-04 -0.10308665D-13  0.36826245D-15 -0.15911664D-05
 -0.11762502D-05 -0.21638674D-14  0.12415299D-04  0.23761052D-05  0.10590801D-14
 -0.76417999D-05  0.11526453D-05  0.86182370D-15 -0.34282531D-03 -0.64490604D-03
 -0.11163653D-02 -0.18299370D-02 -0.28666243D-02 -0.43087696D-02 -0.61582446D-02
 -0.81750564D-02 -0.95204437D-02 -0.87434262D-02 -0.51111067D-02 -0.13411246D-02
 -0.76250382D-04 -0.13304872D-05 -0.13392867D-06 -0.17322970D-04 -0.50042067D-04
 -0.22935455D-03 -0.67893943D-03 -0.19689441D-02 -0.40926321D-02 -0.58545589D-02
 -0.16786890D-02  0.67082662D-02  0.64862444D-02  0.14157220D-02 -0.20492148D-04
 -0.11448120D-04 -0.53407847D-04 -0.10838726D-03 -0.42478853D-03 -0.29808417D-03
  0.19412370D-02  0.60152269D-02  0.73579696D-03 -0.52582212D-02 -0.24676830D-02
  0.95182283D-06  0.13048736D-05 -0.25017583D-05 -0.53170589D-05  0.20099970D-04
  0.64998198D-04  0.22605385D-04 -0.22110528D-03 -0.49317940D-03  0.32725884D-03
  0.61475947D-04 -0.15439626D-02 -0.47912594D-03 -0.15407107D-10 -0.22106899D-10
 -0.29271577D-10 -0.33803576D-10 -0.31342290D-10 -0.20296846D-10 -0.71619291D-11
 -0.82522511D-12  0.13481643D-14  0.12017266D+01  0.17242983D+01  0.22831303D+01
  0.26366181D+01  0.24446422D+01  0.15831175D+01  0.55861758D+00  0.64366073D-01
 -0.10515439D-03 -0.10455649D+01 -0.15002296D+01 -0.19864426D+01 -0.22939954D+01
 -0.21269664D+01 -0.13773949D+01 -0.48602646D+00 -0.56001845D-01  0.91489809D-04
 -0.58195410D-11  0.16592548D-10  0.80990362D-10  0.16782743D-09  0.21060686D-09
  0.33398460D-10 -0.27034925D-09 -0.23578374D-09 -0.60611720D-10 -0.72894296D-02
  0.20783462D-01  0.10144675D+00  0.21021696D+00  0.26380154D+00  0.41834179D-01
 -0.33863355D+00 -0.29533755D+00 -0.75920912D-01  0.64589279D-02 -0.18415554D-01
 -0.89888688D-01 -0.18626645D+00 -0.23374601D+00 -0.37067914D-01  0.30005224D+00
  0.26168906D+00  0.67271066D-01  0.84053903D-15  0.11874622D-14 -0.55251994D-15
  0.11072552D-14  0.12155183D-14  0.32810650D-14  0.10339503D-14 -0.22199132D-14
 -0.74766517D-04 -0.10562557D-03  0.49147024D-04 -0.98491100D-04 -0.10812118D-03
 -0.29185296D-03 -0.91970579D-04  0.19746279D-03 -0.56943005D-04 -0.80445598D-04
  0.37430916D-04 -0.75011910D-04 -0.82346287D-04 -0.22227844D-03 -0.70045809D-04
  0.15038984D-03 -0.19716028D-11 -0.31371232D-02  0.29043663D-02 -0.20976091D-13
  0.38572211D-03 -0.16740216D-03  0.10244532D-14  0.14744203D-04 -0.12353058D-04
 -0.14938619D+00 -0.15631655D+00 -0.13319007D+00 -0.87715728D-01 -0.40425568D-01
 -0.12105502D-01 -0.20596485D-02  0.15002314D+00  0.15698305D+00  0.13375796D+00
  0.88089729D-01  0.40597933D-01  0.12157117D-01  0.20684304D-02 -0.63695023D-03
 -0.66649979D-03 -0.56789349D-03 -0.37400080D-03 -0.17236583D-03 -0.51615227D-04
 -0.87818933D-05  0.48757513D-10  0.51019483D-10  0.43471331D-10  0.28629158D-10
  0.13194326D-10  0.39510624D-11  0.67223977D-12 -0.18587019D-09 -0.19449313D-09
 -0.16571856D-09 -0.10913820D-09 -0.50298546D-10 -0.15061981D-10 -0.25626684D-11
 -0.48225474D+00 -0.50462762D+00 -0.42996974D+00 -0.28316758D+00 -0.13050351D+00
 -0.39079487D-01 -0.66490433D-02 -0.66378082D-04  0.11564073D-03 -0.49262643D-04
  0.51246675D-13 -0.16164736D-12 -0.35615247D-03  0.54428963D-04 -0.57876229D-04
  0.34472667D-05  0.15313283D-14  0.21332967D-14  0.94692364D-04  0.15703552D-04
 -0.18798726D-04  0.30951740D-05  0.21269942D-14 -0.31402296D-15  0.64101198D-04
  0.32852753D-14  0.28378233D-04 -0.31267320D-04 -0.60271398D-14 -0.51219563D-04
  0.38192110D-04 -0.38286862D-14 -0.33915135D-04  0.55609849D-04  0.26601226D-13
  0.16097938D-16 -0.18185665D-05  0.15910710D-05 -0.14832165D-14  0.12573142D-04
 -0.22215707D-05  0.14349227D-14 -0.71174428D-05 -0.25516423D-05 -0.42261663D-14
MO    2     MO 0.0        OCC NO =    2.0000240  ORB. ENERGY =    0.000000
 -0.58955738D-01 -0.10990537D+00 -0.18575505D+00 -0.27922449D+00 -0.34297727D+00
 -0.28946072D+00 -0.10884479D+00 -0.10357223D-04 -0.77413826D-04 -0.28931314D-03
 -0.80713862D-03 -0.10813432D-02  0.12768647D-02 -0.44802509D-02 -0.17439324D-02
 -0.31713370D-03 -0.44278288D-12 -0.41513710D-12 -0.29560235D-12  0.17206550D-05
  0.16132234D-05  0.11487112D-05  0.22931224D-02  0.21499480D-02  0.15308911D-02
 -0.94833792D-13  0.19142446D-05 -0.21683323D-03 -0.10936802D-13  0.32091996D-05
 -0.96637366D-03 -0.73356827D-15  0.20403700D-06  0.10771059D-05  0.12464269D-03
  0.11450550D-04 -0.13609324D-03  0.97976615D-14 -0.43047490D-13  0.10978017D-04
  0.11849076D-03  0.12836954D-03 -0.24686031D-03  0.98045419D-14  0.50977135D-13
  0.32740037D-05  0.23560814D-04  0.10024089D-03 -0.12380170D-03  0.10051602D-14
 -0.12433669D-13  0.17655366D-05  0.69979653D-14 -0.21573620D-05 -0.97681110D-05
  0.47485961D-14 -0.20819776D-06 -0.90552052D-04 -0.25742492D-13  0.66802838D-05
  0.11985639D-03  0.60709581D-15 -0.30024373D-14  0.17048342D-05  0.13229228D-04
 -0.57031899D-14 -0.14164207D-07  0.44739079D-04  0.14710502D-13 -0.51003385D-05
 -0.84426764D-04 -0.18746070D-14 -0.12703947D+00 -0.23751309D+00 -0.41049322D+00
 -0.66395586D+00 -0.10035471D+01 -0.13820921D+01 -0.16154973D+01 -0.13962220D+01
 -0.65162410D+00 -0.88280767D-01  0.64569825D-03 -0.15830123D-02 -0.20349464D-01
 -0.74231918D-01 -0.25045665D+00 -0.55011519D+00 -0.71059878D+00  0.11419927D+00
  0.95799613D+00  0.52573592D+00 -0.12725967D-04 -0.14495667D-03 -0.30098230D-03
 -0.82762489D-03  0.10731107D-03  0.37421429D-02  0.93334986D-02 -0.77261349D-02
  0.29341145D-01  0.18105357D-02  0.12892165D-03  0.88962793D-09  0.11671413D-08
  0.12801014D-08  0.10532288D-08  0.55520236D-09  0.14445321D-09 -0.96943421D-01
 -0.12718426D+00 -0.13949360D+00 -0.11477113D+00 -0.60500816D-01 -0.15741174D-01
  0.62300827D+01  0.81735142D+01  0.89645762D+01  0.73757832D+01  0.38880935D+01
  0.10116088D+01  0.46630533D-14  0.16738324D-12  0.26555770D-12  0.31534163D-12
  0.47719500D-13 -0.34729358D-12 -0.86802140D-06 -0.31158176D-04 -0.49433227D-04
 -0.58700441D-04 -0.88829239D-05  0.64648256D-04  0.57966177D-04  0.20807325D-02
  0.33011343D-02  0.39199957D-02  0.59319867D-03 -0.43171888D-02  0.68357280D-11
 -0.69761825D-03  0.45886998D-01  0.31929543D-13  0.90274752D-05 -0.77410982D-03
 -0.10145391D-14  0.10290871D-06 -0.49988519D-05 -0.24704160D-03 -0.13332984D-03
  0.38037143D-03 -0.23798230D-15  0.48536375D-13 -0.12416719D-04  0.21033601D-03
 -0.39860684D-03  0.18827083D-03  0.33015432D-14 -0.17765222D-13 -0.57720000D-05
 -0.54223279D-05 -0.30832885D-04  0.36255212D-04 -0.22340312D-15 -0.71680497D-14
 -0.11345824D-05  0.10711905D-13 -0.28895228D-06 -0.74205620D-04 -0.62208111D-14
 -0.22042382D-05  0.20818185D-03 -0.25914903D-13  0.30710951D-05  0.14435015D-04
  0.61522920D-16 -0.32711765D-16 -0.51310980D-06 -0.20797507D-04  0.25634340D-14
 -0.14021620D-06  0.19383723D-04 -0.24652987D-14  0.16795456D-05  0.43008798D-04
  0.56931635D-15  0.58527601D-03  0.11009923D-02  0.19058739D-02  0.31240933D-02
  0.48939399D-02  0.73559898D-02  0.10513439D-01  0.13956567D-01  0.16253431D-01
  0.14926896D-01  0.87257506D-02  0.22895861D-02  0.13017569D-03  0.22714257D-05
  0.22864484D-06  0.27816978D-04  0.80356837D-04  0.36829426D-03  0.10902312D-02
  0.31617024D-02  0.65718902D-02  0.94011671D-02  0.26956149D-02 -0.10772038D-01
 -0.10415519D-01 -0.22733461D-02  0.32905998D-04  0.17617399D-04  0.82188810D-04
  0.16679609D-03  0.65370289D-03  0.45871879D-03 -0.29873504D-02 -0.92567733D-02
 -0.11323107D-02  0.80918247D-02  0.37974931D-02 -0.20242410D-06 -0.27750738D-06
  0.53204877D-06  0.11307786D-05 -0.42746594D-05 -0.13823163D-04 -0.48074857D-05
  0.47022446D-04  0.10488443D-03 -0.69598117D-04  0.84008001D-04 -0.29470740D-03
  0.76541765D-04  0.19653996D-09  0.28200551D-09  0.37340135D-09  0.43121357D-09
  0.39981630D-09  0.25891567D-09  0.91360778D-10  0.10526941D-10 -0.17197788D-13
  0.24036937D+00  0.34489417D+00  0.45667176D+00  0.52737639D+00  0.48897737D+00
  0.31665518D+00  0.11173470D+00  0.12874503D-01 -0.21032982D-04  0.30884493D+00
  0.44314638D+00  0.58676676D+00  0.67761348D+00  0.62827548D+00  0.40686277D+00
  0.14356527D+00  0.16542145D-01 -0.27024783D-04 -0.10331094D-10  0.29455790D-10