 br2cs-wavefunction
GAUSSIAN            214 MOL ORBITALS    620 PRIMITIVES        4 NUCLEI
  C    1    (CENTRE  1)   0.00000000  0.00000000 -0.98162013  CHARGE =  6.0
  S    2    (CENTRE  2)   0.00000000  0.00000000  2.04788109  CHARGE = 16.0
  Br   3    (CENTRE  3)   0.00000000 -2.94516841 -2.98306498  CHARGE = 35.0
  Br   4    (CENTRE  4)   0.00000000  2.96406568 -2.98306498  CHARGE = 35.0
CENTRE ASSIGNMENTS    1  1  1  1  1  1  1  1  1  1  1  1  1  1  1  1  1  1  1  1
CENTRE ASSIGNMENTS    1  1  1  1  1  1  1  1  1  1  1  1  1  1  1  1  1  1  1  1
CENTRE ASSIGNMENTS    1  1  1  1  1  1  1  1  1  1  1  1  1  1  1  1  1  1  1  1
CENTRE ASSIGNMENTS    1  1  1  1  1  1  1  1  1  1  1  1  2  2  2  2  2  2  2  2
CENTRE ASSIGNMENTS    2  2  2  2  2  2  2  2  2  2  2  2  2  2  2  2  2  2  2  2
CENTRE ASSIGNMENTS    2  2  2  2  2  2  2  2  2  2  2  2  2  2  2  2  2  2  2  2
CENTRE ASSIGNMENTS    2  2  2  2  2  2  2  2  2  2  2  2  2  2  2  2  2  2  2  2
CENTRE ASSIGNMENTS    2  2  2  2  2  2  2  2  2  2  2  2  2  2  2  2  2  2  2  2
CENTRE ASSIGNMENTS    2  2  2  2  2  2  2  2  2  2  2  2  2  2  2  2  2  2  2  2
CENTRE ASSIGNMENTS    2  2  2  2  2  2  3  3  3  3  3  3  3  3  3  3  3  3  3  3
CENTRE ASSIGNMENTS    3  3  3  3  3  3  3  3  3  3  3  3  3  3  3  3  3  3  3  3
CENTRE ASSIGNMENTS    3  3  3  3  3  3  3  3  3  3  3  3  3  3  3  3  3  3  3  3
CENTRE ASSIGNMENTS    3  3  3  3  3  3  3  3  3  3  3  3  3  3  3  3  3  3  3  3
CENTRE ASSIGNMENTS    3  3  3  3  3  3  3  3  3  3  3  3  3  3  3  3  3  3  3  3
CENTRE ASSIGNMENTS    3  3  3  3  3  3  3  3  3  3  3  3  3  3  3  3  3  3  3  3
CENTRE ASSIGNMENTS    3  3  3  3  3  3  3  3  3  3  3  3  3  3  3  3  3  3  3  3
CENTRE ASSIGNMENTS    3  3  3  3  3  3  3  3  3  3  3  3  3  3  3  3  3  3  3  3
CENTRE ASSIGNMENTS    3  3  3  3  3  3  3  3  3  3  3  3  3  3  3  3  3  3  3  3
CENTRE ASSIGNMENTS    3  3  3  3  3  3  3  3  3  3  3  3  3  3  3  3  3  3  3  3
CENTRE ASSIGNMENTS    3  3  3  3  3  3  3  3  3  3  3  3  3  3  3  3  3  3  3  3
CENTRE ASSIGNMENTS    3  3  3  4  4  4  4  4  4  4  4  4  4  4  4  4  4  4  4  4
CENTRE ASSIGNMENTS    4  4  4  4  4  4  4  4  4  4  4  4  4  4  4  4  4  4  4  4
CENTRE ASSIGNMENTS    4  4  4  4  4  4  4  4  4  4  4  4  4  4  4  4  4  4  4  4
CENTRE ASSIGNMENTS    4  4  4  4  4  4  4  4  4  4  4  4  4  4  4  4  4  4  4  4
CENTRE ASSIGNMENTS    4  4  4  4  4  4  4  4  4  4  4  4  4  4  4  4  4  4  4  4
CENTRE ASSIGNMENTS    4  4  4  4  4  4  4  4  4  4  4  4  4  4  4  4  4  4  4  4
CENTRE ASSIGNMENTS    4  4  4  4  4  4  4  4  4  4  4  4  4  4  4  4  4  4  4  4
CENTRE ASSIGNMENTS    4  4  4  4  4  4  4  4  4  4  4  4  4  4  4  4  4  4  4  4
CENTRE ASSIGNMENTS    4  4  4  4  4  4  4  4  4  4  4  4  4  4  4  4  4  4  4  4
CENTRE ASSIGNMENTS    4  4  4  4  4  4  4  4  4  4  4  4  4  4  4  4  4  4  4  4
CENTRE ASSIGNMENTS    4  4  4  4  4  4  4  4  4  4  4  4  4  4  4  4  4  4  4  4
TYPE ASSIGNMENTS      1  1  1  1  1  1  1  1  1  1  1  1  1  1  1  1  2  2  2  3
TYPE ASSIGNMENTS      3  3  4  4  4  2  3  4  2  3  4  2  3  4  5  6  7  8  9 10
TYPE ASSIGNMENTS      5  6  7  8  9 10  5  6  7  8  9 10 11 12 13 17 14 15 18 19
TYPE ASSIGNMENTS     16 20 11 12 13 17 14 15 18 19 16 20  1  1  1  1  1  1  1  1
TYPE ASSIGNMENTS      1  1  1  1  1  1  1  1  1  1  1  1  1  1  1  1  1  1  1  1
TYPE ASSIGNMENTS      1  1  1  2  2  2  2  2  2  3  3  3  3  3  3  4  4  4  4  4
TYPE ASSIGNMENTS      4  2  2  2  2  2  2  3  3  3  3  3  3  4  4  4  4  4  4  2
TYPE ASSIGNMENTS      3  4  2  3  4  2  3  4  5  6  7  8  9 10  5  6  7  8  9 10
TYPE ASSIGNMENTS      5  6  7  8  9 10 11 12 13 17 14 15 18 19 16 20 11 12 13 17
TYPE ASSIGNMENTS     14 15 18 19 16 20  1  1  1  1  1  1  1  1  1  1  1  1  1  1
TYPE ASSIGNMENTS      1  1  1  1  1  1  1  1  1  1  1  1  1  1  1  1  1  1  1  1
TYPE ASSIGNMENTS      1  1  1  1  1  1  1  1  1  1  1  1  1  1  1  1  2  2  2  2
TYPE ASSIGNMENTS      2  2  2  2  2  3  3  3  3  3  3  3  3  3  4  4  4  4  4  4
TYPE ASSIGNMENTS      4  4  4  2  2  2  2  2  2  2  2  2  3  3  3  3  3  3  3  3
TYPE ASSIGNMENTS      3  4  4  4  4  4  4  4  4  4  2  2  2  2  2  2  2  2  3  3
TYPE ASSIGNMENTS      3  3  3  3  3  3  4  4  4  4  4  4  4  4  2  3  4  2  3  4
TYPE ASSIGNMENTS      2  3  4  5  5  5  5  5  5  5  6  6  6  6  6  6  6  7  7  7
TYPE ASSIGNMENTS      7  7  7  7  8  8  8  8  8  8  8  9  9  9  9  9  9  9 10 10
TYPE ASSIGNMENTS     10 10 10 10 10  5  6  7  8  9 10  5  6  7  8  9 10  5  6  7
TYPE ASSIGNMENTS      8  9 10 11 12 13 17 14 15 18 19 16 20 11 12 13 17 14 15 18
TYPE ASSIGNMENTS     19 16 20  1  1  1  1  1  1  1  1  1  1  1  1  1  1  1  1  1
TYPE ASSIGNMENTS      1  1  1  1  1  1  1  1  1  1  1  1  1  1  1  1  1  1  1  1
TYPE ASSIGNMENTS      1  1  1  1  1  1  1  1  1  1  1  1  1  2  2  2  2  2  2  2
TYPE ASSIGNMENTS      2  2  3  3  3  3  3  3  3  3  3  4  4  4  4  4  4  4  4  4
TYPE ASSIGNMENTS      2  2  2  2  2  2  2  2  2  3  3  3  3  3  3  3  3  3  4  4
TYPE ASSIGNMENTS      4  4  4  4  4  4  4  2  2  2  2  2  2  2  2  3  3  3  3  3
TYPE ASSIGNMENTS      3  3  3  4  4  4  4  4  4  4  4  2  3  4  2  3  4  2  3  4
TYPE ASSIGNMENTS      5  5  5  5  5  5  5  6  6  6  6  6  6  6  7  7  7  7  7  7
TYPE ASSIGNMENTS      7  8  8  8  8  8  8  8  9  9  9  9  9  9  9 10 10 10 10 10
TYPE ASSIGNMENTS     10 10  5  6  7  8  9 10  5  6  7  8  9 10  5  6  7  8  9 10
TYPE ASSIGNMENTS     11 12 13 17 14 15 18 19 16 20 11 12 13 17 14 15 18 19 16 20
EXPONENTS  0.8236000D+04 0.1235000D+04 0.2808000D+03 0.7927000D+02 0.2559000D+02
EXPONENTS  0.8997000D+01 0.3319000D+01 0.2808000D+03 0.7927000D+02 0.2559000D+02
EXPONENTS  0.8997000D+01 0.3319000D+01 0.3643000D+00 0.9059000D+00 0.1285000D+00
EXPONENTS  0.4402000D-01 0.1871000D+02 0.4133000D+01 0.1200000D+01 0.1871000D+02
EXPONENTS  0.4133000D+01 0.1200000D+01 0.1871000D+02 0.4133000D+01 0.1200000D+01
EXPONENTS  0.3827000D+00 0.3827000D+00 0.3827000D+00 0.1209000D+00 0.1209000D+00
EXPONENTS  0.1209000D+00 0.3569000D-01 0.3569000D-01 0.3569000D-01 0.1097000D+01
EXPONENTS  0.1097000D+01 0.1097000D+01 0.1097000D+01 0.1097000D+01 0.1097000D+01
EXPONENTS  0.3180000D+00 0.3180000D+00 0.3180000D+00 0.3180000D+00 0.3180000D+00
EXPONENTS  0.3180000D+00 0.1000000D+00 0.1000000D+00 0.1000000D+00 0.1000000D+00
EXPONENTS  0.1000000D+00 0.1000000D+00 0.7610000D+00 0.7610000D+00 0.7610000D+00
EXPONENTS  0.7610000D+00 0.7610000D+00 0.7610000D+00 0.7610000D+00 0.7610000D+00
EXPONENTS  0.7610000D+00 0.7610000D+00 0.2680000D+00 0.2680000D+00 0.2680000D+00
EXPONENTS  0.2680000D+00 0.2680000D+00 0.2680000D+00 0.2680000D+00 0.2680000D+00
EXPONENTS  0.2680000D+00 0.2680000D+00 0.3741000D+06 0.5605000D+05 0.1276000D+05
EXPONENTS  0.3615000D+04 0.1183000D+04 0.4288000D+03 0.1678000D+03 0.6947000D+02
EXPONENTS  0.2984000D+02 0.1272000D+02 0.5244000D+01 0.3615000D+04 0.1183000D+04
EXPONENTS  0.4288000D+03 0.1678000D+03 0.6947000D+02 0.2984000D+02 0.1272000D+02
EXPONENTS  0.5244000D+01 0.2219000D+01 0.1183000D+04 0.1678000D+03 0.6947000D+02
EXPONENTS  0.2984000D+02 0.1272000D+02 0.5244000D+01 0.2219000D+01 0.3490000D+00
EXPONENTS  0.7767000D+00 0.1322000D+00 0.4970000D-01 0.5744000D+03 0.1358000D+03
EXPONENTS  0.4319000D+02 0.1587000D+02 0.6208000D+01 0.2483000D+01 0.5744000D+03
EXPONENTS  0.1358000D+03 0.4319000D+02 0.1587000D+02 0.6208000D+01 0.2483000D+01
EXPONENTS  0.5744000D+03 0.1358000D+03 0.4319000D+02 0.1587000D+02 0.6208000D+01
EXPONENTS  0.2483000D+01 0.1358000D+03 0.4319000D+02 0.1587000D+02 0.6208000D+01
EXPONENTS  0.2483000D+01 0.3229000D+00 0.1358000D+03 0.4319000D+02 0.1587000D+02
EXPONENTS  0.6208000D+01 0.2483000D+01 0.3229000D+00 0.1358000D+03 0.4319000D+02
EXPONENTS  0.1587000D+02 0.6208000D+01 0.2483000D+01 0.3229000D+00 0.8688000D+00
EXPONENTS  0.8688000D+00 0.8688000D+00 0.1098000D+00 0.1098000D+00 0.1098000D+00
EXPONENTS  0.3510000D-01 0.3510000D-01 0.3510000D-01 0.2690000D+00 0.2690000D+00
EXPONENTS  0.2690000D+00 0.2690000D+00 0.2690000D+00 0.2690000D+00 0.8190000D+00
EXPONENTS  0.8190000D+00 0.8190000D+00 0.8190000D+00 0.8190000D+00 0.8190000D+00
EXPONENTS  0.1010000D+00 0.1010000D+00 0.1010000D+00 0.1010000D+00 0.1010000D+00
EXPONENTS  0.1010000D+00 0.5570000D+00 0.5570000D+00 0.5570000D+00 0.5570000D+00
EXPONENTS  0.5570000D+00 0.5570000D+00 0.5570000D+00 0.5570000D+00 0.5570000D+00
EXPONENTS  0.5570000D+00 0.2180000D+00 0.2180000D+00 0.2180000D+00 0.2180000D+00
EXPONENTS  0.2180000D+00 0.2180000D+00 0.2180000D+00 0.2180000D+00 0.2180000D+00
EXPONENTS  0.2180000D+00 0.1063900D+08 0.1593400D+07 0.3626100D+06 0.1027000D+06
EXPONENTS  0.3350100D+05 0.1209300D+05 0.4715900D+04 0.1955600D+04 0.8526100D+03
EXPONENTS  0.3876700D+03 0.1826800D+03 0.8824500D+02 0.3926300D+02 0.9405700D+01
EXPONENTS  0.1899500D+01 0.3350100D+05 0.1209300D+05 0.4715900D+04 0.1955600D+04
EXPONENTS  0.8526100D+03 0.3876700D+03 0.1826800D+03 0.8824500D+02 0.3926300D+02
EXPONENTS  0.1923400D+02 0.9405700D+01 0.1899500D+01 0.4715900D+04 0.8526100D+03
EXPONENTS  0.3876700D+03 0.1826800D+03 0.8824500D+02 0.3926300D+02 0.1923400D+02
EXPONENTS  0.9405700D+01 0.4160100D+01 0.1899500D+01 0.4715900D+04 0.8526100D+03
EXPONENTS  0.3876700D+03 0.8824500D+02 0.3926300D+02 0.1923400D+02 0.9405700D+01
EXPONENTS  0.4160100D+01 0.1899500D+01 0.3011400D+00 0.6047200D+00 0.1251500D+00
EXPONENTS  0.4559300D-01 0.8676500D+04 0.2055900D+04 0.6662300D+03 0.2531000D+03
EXPONENTS  0.1061200D+03 0.4724200D+02 0.2182500D+02 0.9968400D+01 0.1998200D+01
EXPONENTS  0.8676500D+04 0.2055900D+04 0.6662300D+03 0.2531000D+03 0.1061200D+03
EXPONENTS  0.4724200D+02 0.2182500D+02 0.9968400D+01 0.1998200D+01 0.8676500D+04
EXPONENTS  0.2055900D+04 0.6662300D+03 0.2531000D+03 0.1061200D+03 0.4724200D+02
EXPONENTS  0.2182500D+02 0.9968400D+01 0.1998200D+01 0.8676500D+04 0.6662300D+03
EXPONENTS  0.2531000D+03 0.1061200D+03 0.4724200D+02 0.2182500D+02 0.9968400D+01
EXPONENTS  0.4517100D+01 0.1998200D+01 0.8676500D+04 0.6662300D+03 0.2531000D+03
EXPONENTS  0.1061200D+03 0.4724200D+02 0.2182500D+02 0.9968400D+01 0.4517100D+01
EXPONENTS  0.1998200D+01 0.8676500D+04 0.6662300D+03 0.2531000D+03 0.1061200D+03
EXPONENTS  0.4724200D+02 0.2182500D+02 0.9968400D+01 0.4517100D+01 0.1998200D+01
EXPONENTS  0.6662300D+03 0.1061200D+03 0.4724200D+02 0.2182500D+02 0.9968400D+01
EXPONENTS  0.4517100D+01 0.1998200D+01 0.2814500D+00 0.6662300D+03 0.1061200D+03
EXPONENTS  0.4724200D+02 0.2182500D+02 0.9968400D+01 0.4517100D+01 0.1998200D+01
EXPONENTS  0.2814500D+00 0.6662300D+03 0.1061200D+03 0.4724200D+02 0.2182500D+02
EXPONENTS  0.9968400D+01 0.4517100D+01 0.1998200D+01 0.2814500D+00 0.7098800D+00
EXPONENTS  0.7098800D+00 0.7098800D+00 0.1020400D+00 0.1020400D+00 0.1020400D+00
EXPONENTS  0.3514200D-01 0.3514200D-01 0.3514200D-01 0.4038300D+03 0.1211700D+03
EXPONENTS  0.4634500D+02 0.1972100D+02 0.8862400D+01 0.3996200D+01 0.1763600D+01
EXPONENTS  0.4038300D+03 0.1211700D+03 0.4634500D+02 0.1972100D+02 0.8862400D+01
EXPONENTS  0.3996200D+01 0.1763600D+01 0.4038300D+03 0.1211700D+03 0.4634500D+02
EXPONENTS  0.1972100D+02 0.8862400D+01 0.3996200D+01 0.1763600D+01 0.4038300D+03
EXPONENTS  0.1211700D+03 0.4634500D+02 0.1972100D+02 0.8862400D+01 0.3996200D+01
EXPONENTS  0.1763600D+01 0.4038300D+03 0.1211700D+03 0.4634500D+02 0.1972100D+02
EXPONENTS  0.8862400D+01 0.3996200D+01 0.1763600D+01 0.4038300D+03 0.1211700D+03
EXPONENTS  0.4634500D+02 0.1972100D+02 0.8862400D+01 0.3996200D+01 0.1763600D+01
EXPONENTS  0.7061900D+00 0.7061900D+00 0.7061900D+00 0.7061900D+00 0.7061900D+00
EXPONENTS  0.7061900D+00 0.2639000D+00 0.2639000D+00 0.2639000D+00 0.2639000D+00
EXPONENTS  0.2639000D+00 0.2639000D+00 0.1047000D+00 0.1047000D+00 0.1047000D+00
EXPONENTS  0.1047000D+00 0.1047000D+00 0.1047000D+00 0.5515000D+00 0.5515000D+00
EXPONENTS  0.5515000D+00 0.5515000D+00 0.5515000D+00 0.5515000D+00 0.5515000D+00
EXPONENTS  0.5515000D+00 0.5515000D+00 0.5515000D+00 0.2580000D+00 0.2580000D+00
EXPONENTS  0.2580000D+00 0.2580000D+00 0.2580000D+00 0.2580000D+00 0.2580000D+00
EXPONENTS  0.2580000D+00 0.2580000D+00 0.2580000D+00 0.1063900D+08 0.1593400D+07
EXPONENTS  0.3626100D+06 0.1027000D+06 0.3350100D+05 0.1209300D+05 0.4715900D+04
EXPONENTS  0.1955600D+04 0.8526100D+03 0.3876700D+03 0.1826800D+03 0.8824500D+02
EXPONENTS  0.3926300D+02 0.9405700D+01 0.1899500D+01 0.3350100D+05 0.1209300D+05
EXPONENTS  0.4715900D+04 0.1955600D+04 0.8526100D+03 0.3876700D+03 0.1826800D+03
EXPONENTS  0.8824500D+02 0.3926300D+02 0.1923400D+02 0.9405700D+01 0.1899500D+01
EXPONENTS  0.4715900D+04 0.8526100D+03 0.3876700D+03 0.1826800D+03 0.8824500D+02
EXPONENTS  0.3926300D+02 0.1923400D+02 0.9405700D+01 0.4160100D+01 0.1899500D+01
EXPONENTS  0.4715900D+04 0.8526100D+03 0.3876700D+03 0.8824500D+02 0.3926300D+02
EXPONENTS  0.1923400D+02 0.9405700D+01 0.4160100D+01 0.1899500D+01 0.3011400D+00
EXPONENTS  0.6047200D+00 0.1251500D+00 0.4559300D-01 0.8676500D+04 0.2055900D+04
EXPONENTS  0.6662300D+03 0.2531000D+03 0.1061200D+03 0.4724200D+02 0.2182500D+02
EXPONENTS  0.9968400D+01 0.1998200D+01 0.8676500D+04 0.2055900D+04 0.6662300D+03
EXPONENTS  0.2531000D+03 0.1061200D+03 0.4724200D+02 0.2182500D+02 0.9968400D+01
EXPONENTS  0.1998200D+01 0.8676500D+04 0.2055900D+04 0.6662300D+03 0.2531000D+03
EXPONENTS  0.1061200D+03 0.4724200D+02 0.2182500D+02 0.9968400D+01 0.1998200D+01
EXPONENTS  0.8676500D+04 0.6662300D+03 0.2531000D+03 0.1061200D+03 0.4724200D+02
EXPONENTS  0.2182500D+02 0.9968400D+01 0.4517100D+01 0.1998200D+01 0.8676500D+04
EXPONENTS  0.6662300D+03 0.2531000D+03 0.1061200D+03 0.4724200D+02 0.2182500D+02
EXPONENTS  0.9968400D+01 0.4517100D+01 0.1998200D+01 0.8676500D+04 0.6662300D+03
EXPONENTS  0.2531000D+03 0.1061200D+03 0.4724200D+02 0.2182500D+02 0.9968400D+01
EXPONENTS  0.4517100D+01 0.1998200D+01 0.6662300D+03 0.1061200D+03 0.4724200D+02
EXPONENTS  0.2182500D+02 0.9968400D+01 0.4517100D+01 0.1998200D+01 0.2814500D+00
EXPONENTS  0.6662300D+03 0.1061200D+03 0.4724200D+02 0.2182500D+02 0.9968400D+01
EXPONENTS  0.4517100D+01 0.1998200D+01 0.2814500D+00 0.6662300D+03 0.1061200D+03
EXPONENTS  0.4724200D+02 0.2182500D+02 0.9968400D+01 0.4517100D+01 0.1998200D+01
EXPONENTS  0.2814500D+00 0.7098800D+00 0.7098800D+00 0.7098800D+00 0.1020400D+00
EXPONENTS  0.1020400D+00 0.1020400D+00 0.3514200D-01 0.3514200D-01 0.3514200D-01
EXPONENTS  0.4038300D+03 0.1211700D+03 0.4634500D+02 0.1972100D+02 0.8862400D+01
EXPONENTS  0.3996200D+01 0.1763600D+01 0.4038300D+03 0.1211700D+03 0.4634500D+02
EXPONENTS  0.1972100D+02 0.8862400D+01 0.3996200D+01 0.1763600D+01 0.4038300D+03
EXPONENTS  0.1211700D+03 0.4634500D+02 0.1972100D+02 0.8862400D+01 0.3996200D+01
EXPONENTS  0.1763600D+01 0.4038300D+03 0.1211700D+03 0.4634500D+02 0.1972100D+02
EXPONENTS  0.8862400D+01 0.3996200D+01 0.1763600D+01 0.4038300D+03 0.1211700D+03
EXPONENTS  0.4634500D+02 0.1972100D+02 0.8862400D+01 0.3996200D+01 0.1763600D+01
EXPONENTS  0.4038300D+03 0.1211700D+03 0.4634500D+02 0.1972100D+02 0.8862400D+01
EXPONENTS  0.3996200D+01 0.1763600D+01 0.7061900D+00 0.7061900D+00 0.7061900D+00
EXPONENTS  0.7061900D+00 0.7061900D+00 0.7061900D+00 0.2639000D+00 0.2639000D+00
EXPONENTS  0.2639000D+00 0.2639000D+00 0.2639000D+00 0.2639000D+00 0.1047000D+00
EXPONENTS  0.1047000D+00 0.1047000D+00 0.1047000D+00 0.1047000D+00 0.1047000D+00
EXPONENTS  0.5515000D+00 0.5515000D+00 0.5515000D+00 0.5515000D+00 0.5515000D+00
EXPONENTS  0.5515000D+00 0.5515000D+00 0.5515000D+00 0.5515000D+00 0.5515000D+00
EXPONENTS  0.2580000D+00 0.2580000D+00 0.2580000D+00 0.2580000D+00 0.2580000D+00
EXPONENTS  0.2580000D+00 0.2580000D+00 0.2580000D+00 0.2580000D+00 0.2580000D+00
MO    1     MO 0.0        OCC NO =    2.0000284  ORB. ENERGY =    0.000000
 -0.22270635D-03 -0.41516950D-03 -0.70169302D-03 -0.10547755D-02 -0.12956028D-02
 -0.10934430D-02 -0.41116313D-03 -0.34891343D-07 -0.26079117D-06 -0.97463616D-06
 -0.27190831D-05 -0.36428218D-05  0.43014932D-05 -0.18164541D-04 -0.20330462D-04
 -0.48893308D-05 -0.30367359D-12 -0.28471329D-12 -0.20273283D-12 -0.25990224D-02
 -0.24367487D-02 -0.17351103D-02  0.36619972D-04  0.34333551D-04  0.24447534D-04
 -0.80909387D-13 -0.54756510D-03  0.28882753D-05 -0.15051922D-13  0.12916778D-02
  0.57982024D-05  0.10886815D-14  0.80690500D-04  0.52876245D-06 -0.54531462D-07
 -0.82576928D-06  0.88030074D-06  0.13409632D-13  0.88061253D-14 -0.11918371D-02
  0.34447309D-06  0.17832462D-05 -0.21277193D-05  0.38757852D-14  0.37927039D-13
  0.28530875D-05  0.73973922D-07  0.40480767D-06 -0.47878159D-06  0.40856983D-16
 -0.10341824D-14 -0.32280243D-03  0.67638145D-15  0.11279117D-03 -0.12082936D-06
  0.35452573D-14  0.27573493D-03 -0.27216214D-06 -0.55744016D-14 -0.61410845D-03
  0.63465022D-06 -0.17346201D-14  0.10447006D-14 -0.69593543D-04  0.59246635D-06
 -0.58484661D-14 -0.13791256D-03 -0.44064849D-06  0.27143642D-14  0.34669319D-03
 -0.13367506D-05  0.75242877D-15 -0.63469424D-03 -0.11866248D-02 -0.20508404D-02
 -0.33171498D-02 -0.50137609D-02 -0.69049868D-02 -0.80710887D-02 -0.69755806D-02
 -0.32555398D-02 -0.44105421D-03  0.32259340D-05 -0.78944560D-05 -0.10148244D-03
 -0.37019334D-03 -0.12490232D-02 -0.27434153D-02 -0.35437443D-02  0.56950986D-03
  0.47775108D-02  0.26218363D-02 -0.70473770D-07 -0.80274005D-06 -0.16667777D-05
 -0.45832154D-05  0.59426652D-06  0.20723213D-04  0.51686984D-04 -0.42785737D-04
  0.14369822D-03  0.38081538D-06 -0.12144700D-05  0.33958181D-09  0.44551202D-09
  0.48863027D-09  0.40203026D-09  0.21192750D-09  0.55139548D-10  0.97041645D+01
  0.12731312D+02  0.13963494D+02  0.11488742D+02  0.60562116D+01  0.15757124D+01
  0.44799472D-01  0.58774360D-01  0.64462752D-01  0.53038011D-01  0.27958624D-01
  0.72743080D-02  0.13355681D-14  0.47941058D-13  0.76059691D-13  0.90318550D-13
  0.13667577D-13 -0.99470065D-13  0.88673887D-04  0.31830051D-02  0.50499174D-02
  0.59966220D-02  0.90744697D-03 -0.66042290D-02  0.39988092D-06  0.14353978D-04
  0.22772946D-04  0.27042175D-04  0.40921938D-05 -0.29782219D-04  0.26430767D-11
  0.67286592D-01  0.32269697D-03  0.14412043D-13 -0.32212966D-03 -0.25430382D-05
 -0.98607758D-15 -0.28143797D-04 -0.46355415D-07 -0.17293479D-05 -0.10089263D-05
  0.27382741D-05 -0.74194398D-15  0.19609088D-13  0.77100490D-03  0.88331250D-06
 -0.15344906D-05  0.65117814D-06  0.37152336D-14  0.27621262D-14 -0.73182725D-03
 -0.42707505D-07 -0.72911584D-07  0.11561909D-06  0.84287280D-16 -0.17741185D-14
 -0.41257878D-04  0.37274724D-14  0.38001810D-05 -0.39091132D-06 -0.17500267D-14
  0.13824827D-03  0.10349132D-05 -0.94323904D-14 -0.14964882D-03  0.13782076D-06
  0.18222528D-14  0.14429503D-15  0.32140370D-04 -0.23819929D-06  0.14372054D-14
  0.29958810D-05  0.33912638D-06 -0.18700905D-14 -0.99416990D-04  0.37547149D-06
  0.17342718D-15  0.32677218D-03  0.61470769D-03  0.10640904D-02  0.17442485D-02
  0.27323919D-02  0.41070073D-02  0.58698789D-02  0.77922515D-02  0.90746398D-02
  0.83340068D-02  0.48717742D-02  0.12783251D-02  0.72679885D-04  0.12681858D-05
  0.12765733D-06  0.16550043D-04  0.47809260D-04  0.21912107D-03  0.64864610D-03
  0.18810926D-02  0.39100246D-02  0.55933367D-02  0.16037883D-02 -0.64089527D-02
 -0.61968372D-02 -0.13525544D-02  0.19577816D-04  0.10979538D-04  0.51221815D-04
  0.10395087D-03  0.40740155D-03  0.28588331D-03 -0.18617804D-02 -0.57690181D-02
 -0.70568011D-03  0.50429974D-02  0.23666785D-02 -0.95634740D-06 -0.13110764D-05
  0.25136506D-05  0.53423339D-05 -0.20195517D-04 -0.65307172D-04 -0.22712841D-04
  0.22215632D-03  0.49552377D-03 -0.32881449D-03 -0.66713631D-04  0.15553115D-02
  0.48254637D-03 -0.72708290D-08 -0.10432554D-07 -0.13813666D-07 -0.15952380D-07
 -0.14790864D-07 -0.95783653D-08 -0.33798144D-08 -0.38943526D-09  0.63621757D-12
  0.11898757D+01  0.17072940D+01  0.22606151D+01  0.26106169D+01  0.24205342D+01
  0.15675055D+01  0.55310873D+00  0.63731323D-01 -0.10411740D-03  0.10450929D+01
  0.14995523D+01  0.19855458D+01  0.22929598D+01  0.21260061D+01  0.13767730D+01
  0.48580704D+00  0.55976562D-01 -0.91448505D-04 -0.12900292D-10  0.36781031D-10
  0.17953294D-09  0.37202639D-09  0.46685640D-09  0.74035029D-10 -0.59928854D-09
 -0.52266650D-09 -0.13435920D-09 -0.72140954D-02  0.20568671D-01  0.10039833D+00
  0.20804443D+00  0.26107522D+00  0.41401835D-01 -0.33513386D+00 -0.29228532D+00
 -0.75136291D-01 -0.64559438D-02  0.18407046D-01  0.89847158D-01  0.18618040D+00
  0.23363802D+00  0.37050788D-01 -0.29991361D+00 -0.26156815D+00 -0.67239986D-01
  0.16199170D-13  0.22885197D-13 -0.10648362D-13  0.21339419D-13  0.23425905D-13
  0.63233861D-13  0.19926660D-13 -0.42782963D-13 -0.75772568D-04 -0.10704685D-03
  0.49808341D-04 -0.99816386D-04 -0.10957605D-03 -0.29578010D-03 -0.93208126D-04
  0.20011983D-03  0.58189538D-04  0.82206622D-04 -0.38250312D-04  0.76653986D-04
  0.84148919D-04  0.22714431D-03  0.71579173D-04 -0.15368201D-03 -0.43019002D-11
 -0.31022063D-02 -0.29078507D-02 -0.36410078D-13  0.38595441D-03  0.16806432D-03
  0.40123225D-15  0.14785331D-04  0.12408224D-04  0.15304619D+00  0.16014635D+00
  0.13645326D+00  0.89864786D-01  0.41416005D-01  0.12402090D-01  0.21101104D-02
 -0.15219081D+00 -0.15925128D+00 -0.13569061D+00 -0.89362528D-01 -0.41184528D-01
 -0.12332774D-01 -0.20983169D-02 -0.85538279D-03 -0.89506592D-03 -0.76264407D-03
 -0.50225878D-03 -0.23147612D-03 -0.69315898D-04 -0.11793512D-04 -0.10797881D-10
 -0.11298819D-10 -0.96271989D-11 -0.63402383D-11 -0.29220271D-11 -0.87500573D-12
 -0.14887481D-12 -0.89595600D-11 -0.93752141D-11 -0.79881842D-11 -0.52608232D-11
 -0.24245568D-11 -0.72603746D-12 -0.12352912D-12 -0.49424523D+00 -0.51717438D+00
 -0.44066025D+00 -0.29020809D+00 -0.13374827D+00 -0.40051135D-01 -0.68143611D-02
  0.68471919D-04 -0.11920735D-03  0.50735435D-04 -0.39552986D-13 -0.25348764D-13
 -0.36637884D-03 -0.53949482D-04  0.56372352D-04 -0.24228691D-05  0.28585542D-14
  0.38107563D-14  0.91186904D-04 -0.15443812D-04  0.18215218D-04 -0.27714063D-05
 -0.56528507D-15 -0.16593529D-15  0.63782074D-04  0.97798960D-14  0.27704213D-04
  0.32716880D-04 -0.23247979D-13 -0.51132211D-04 -0.40778432D-04 -0.60917093D-14
 -0.31980428D-04 -0.57372208D-04 -0.53363901D-13 -0.12089724D-14 -0.16404600D-05
 -0.14342236D-05  0.23824543D-14  0.12977253D-04  0.28863467D-05  0.12444630D-14
 -0.80558726D-05  0.14163240D-05  0.72044775D-14 -0.36823926D-03 -0.69271352D-03
 -0.11991225D-02 -0.19655920D-02 -0.30791298D-02 -0.46281826D-02 -0.66147610D-02
 -0.87810809D-02 -0.10226203D-01 -0.93915844D-02 -0.54899978D-02 -0.14405434D-02
 -0.81902893D-04 -0.14291174D-05 -0.14385693D-06 -0.18533501D-04 -0.53539014D-04
 -0.24538188D-03 -0.72638381D-03 -0.21065342D-02 -0.43786258D-02 -0.62636763D-02
 -0.17959960D-02  0.71770408D-02  0.69395040D-02  0.15146528D-02 -0.21924142D-04
 -0.12177843D-04 -0.56812158D-04 -0.11529606D-03 -0.45186531D-03 -0.31708459D-03
  0.20649748D-02  0.63986481D-02  0.78269796D-03 -0.55933895D-02 -0.26249775D-02
  0.95925142D-06  0.13150576D-05 -0.25212835D-05 -0.53585564D-05  0.20256843D-04
  0.65505483D-04  0.22781811D-04 -0.22283092D-03 -0.49702846D-03  0.32981296D-03
  0.55725482D-04 -0.15404992D-02 -0.47696497D-03 -0.82806375D-09 -0.11881479D-08
 -0.15732176D-08 -0.18167925D-08 -0.16845092D-08 -0.10908656D-08 -0.38492196D-09
 -0.44352194D-10  0.72457859D-13  0.12012205D+01  0.17235721D+01  0.22821687D+01
  0.26355077D+01  0.24436126D+01  0.15824507D+01  0.55838231D+00  0.64338965D-01
 -0.10511010D-03 -0.10412711D+01 -0.14940686D+01 -0.19782849D+01 -0.22845747D+01
 -0.21182316D+01 -0.13717384D+01 -0.48403051D+00 -0.55771863D-01  0.91114091D-04
 -0.83792985D-11  0.23890873D-10  0.11661442D-09  0.24164726D-09  0.30324346D-09
  0.48088959D-10 -0.38926387D-09 -0.33949453D-09 -0.87272122D-10 -0.72900940D-02
  0.20785357D-01  0.10145600D+00  0.21023612D+00  0.26382558D+00  0.41837993D-01
 -0.33866441D+00 -0.29536447D+00 -0.75927832D-01  0.64320645D-02 -0.18338962D-01
 -0.89514831D-01 -0.18549175D+00 -0.23277384D+00 -0.36913744D-01  0.29880429D+00
  0.26060066D+00  0.66991278D-01  0.10408164D-14  0.14704018D-14 -0.68417030D-15
  0.13710837D-14  0.15051430D-14  0.40628529D-14  0.12803123D-14 -0.27488577D-14
 -0.72596699D-04 -0.10256018D-03  0.47720715D-04 -0.95632764D-04 -0.10498337D-03
 -0.28338302D-03 -0.89301477D-04  0.19173217D-03 -0.57840138D-04 -0.81713012D-04
  0.38020637D-04 -0.76193716D-04 -0.83643646D-04 -0.22578042D-03 -0.71149375D-04
  0.15275922D-03 -0.28191875D-11 -0.31410638D-02  0.28965026D-02 -0.20564585D-13
  0.38301237D-03 -0.16626894D-03  0.13788533D-15  0.14634363D-04 -0.12327000D-04
 -0.14818397D+00 -0.15505856D+00 -0.13211819D+00 -0.87009815D-01 -0.40100233D-01
 -0.12008080D-01 -0.20430730D-02  0.14851045D+00  0.15540019D+00  0.13240928D+00
  0.87201518D-01  0.40188583D-01  0.12034536D-01  0.20475743D-02 -0.32648294D-03
 -0.34162922D-03 -0.29108638D-03 -0.19170239D-03 -0.88349923D-04 -0.26456527D-04
 -0.45013538D-05 -0.39727587D-10 -0.41570639D-10 -0.35420409D-10 -0.23327017D-10
 -0.10750728D-10 -0.32193228D-11 -0.54774049D-12 -0.26929219D-10 -0.28178527D-10
 -0.24009613D-10 -0.15812145D-10 -0.72873470D-11 -0.21822078D-11 -0.37128416D-12
 -0.48135371D+00 -0.50368479D+00 -0.42916640D+00 -0.28263852D+00 -0.13025968D+00
 -0.39006472D-01 -0.66366205D-02 -0.64783554D-04  0.11524701D-03 -0.50463457D-04
 -0.33236949D-14 -0.37363283D-13 -0.35417750D-03  0.54279991D-04 -0.57127127D-04
  0.28471363D-05 -0.39233945D-14  0.45824538D-14  0.92884636D-04  0.15555309D-04
 -0.18457941D-04  0.29026313D-05  0.36421808D-15 -0.23743205D-15  0.63740126D-04
  0.60225908D-14  0.28138790D-04 -0.31758364D-04 -0.15194156D-13 -0.51897397D-04
  0.39781625D-04 -0.28736162D-14 -0.32518974D-04  0.55493468D-04  0.35048677D-13
 -0.87653536D-15 -0.17243152D-05  0.14722923D-05  0.20028508D-14  0.12772806D-04
 -0.25683146D-05  0.62675530D-15 -0.75998607D-05 -0.18485624D-05 -0.59743745D-14
MO    2     MO 0.0        OCC NO =    2.0000240  ORB. ENERGY =    0.000000
 -0.58928770D-01 -0.10985510D+00 -0.18567008D+00 -0.27909676D+00 -0.34282039D+00
 -0.28932831D+00 -0.10879500D+00 -0.10350709D-04 -0.77365135D-04 -0.28913117D-03
 -0.80663095D-03 -0.10806631D-02  0.12760616D-02 -0.44804046D-02 -0.17426954D-02
 -0.31821178D-03  0.18626150D-12  0.17463200D-12  0.12434839D-12  0.17026457D-04
  0.15963385D-04  0.11366881D-04  0.22996796D-02  0.21560958D-02  0.15352687D-02
  0.28434863D-13  0.40026379D-05 -0.21483597D-03 -0.73049421D-14 -0.89911810D-05
 -0.96669137D-03  0.16323550D-14 -0.54879658D-06  0.11583117D-05  0.12542265D-03
  0.10883227D-04 -0.13630587D-03 -0.58911886D-14  0.42572541D-13  0.31587150D-05
  0.11823171D-03  0.12841141D-03 -0.24664312D-03 -0.44396668D-14 -0.32850128D-13
  0.70135172D-06  0.23582736D-04  0.10039132D-03 -0.12397405D-03  0.16373926D-14
  0.29610331D-15  0.29625690D-05 -0.41926530D-14 -0.78738845D-06 -0.96481200D-05
 -0.30191664D-14 -0.15460254D-05 -0.90851084D-04  0.15597125D-13  0.39081908D-05
  0.11979544D-03  0.37045424D-14  0.34663928D-14  0.42781559D-06  0.13395163D-04
  0.30955962D-14  0.81473590D-06  0.44647303D-04 -0.13494775D-13 -0.20981827D-05
 -0.84832793D-04  0.13645861D-14 -0.12700990D+00 -0.23745779D+00 -0.41039765D+00
 -0.66380128D+00 -0.10033134D+01 -0.13817703D+01 -0.16151212D+01 -0.13958970D+01
 -0.65147239D+00 -0.88260214D-01  0.64554792D-03 -0.15826563D-02 -0.20344888D-01
 -0.74215227D-01 -0.25040034D+00 -0.54999150D+00 -0.71043900D+00  0.11417359D+00
  0.95778073D+00  0.52561771D+00 -0.12725019D-04 -0.14494588D-03 -0.30095990D-03
 -0.82756328D-03  0.10730308D-03  0.37418643D-02  0.93328038D-02 -0.77255598D-02
  0.29334687D-01  0.18115903D-02  0.12888995D-03 -0.53376202D-09 -0.70026542D-09
 -0.76803961D-09 -0.63191986D-09 -0.33311222D-09 -0.86669533D-10 -0.56554326D-01
 -0.74196059D-01 -0.81377019D-01 -0.66954560D-01 -0.35294637D-01 -0.91830007D-02
  0.62327412D+01  0.81770021D+01  0.89684016D+01  0.73789307D+01  0.38897527D+01
  0.10120405D+01 -0.29552172D-14 -0.10607939D-12 -0.16829761D-12 -0.19984824D-12
 -0.30242307D-13  0.22009784D-12 -0.48951696D-06 -0.17571520D-04 -0.27877657D-04
 -0.33103863D-04 -0.50094870D-05  0.36458108D-04  0.57979209D-04  0.20812003D-02
  0.33018764D-02  0.39208770D-02  0.59333203D-03 -0.43181593D-02 -0.40818128D-11
 -0.39890546D-03  0.45907959D-01  0.43923306D-15  0.66041648D-07 -0.77438185D-03
  0.20896223D-15  0.15551394D-06 -0.50208557D-05 -0.24705996D-03 -0.13339063D-03
  0.38045059D-03 -0.74424033D-15 -0.39995227D-13 -0.40224743D-05  0.21042647D-03
 -0.39839923D-03  0.18797276D-03  0.61198129D-15  0.25886229D-13  0.26498140D-05
 -0.54107723D-05 -0.30861348D-04  0.36272121D-04 -0.35965885D-15  0.56019855D-15
  0.49822631D-06 -0.64078184D-14  0.79418718D-07 -0.74118352D-04  0.30228194D-14
 -0.74423756D-06  0.20810022D-03  0.16200636D-13  0.50598141D-06  0.14254833D-04
 -0.32694037D-14 -0.70532411D-15 -0.17481874D-06 -0.20811405D-04 -0.19114294D-14
 -0.12619794D-07  0.19380873D-04  0.40274018D-14  0.53707600D-06  0.43053341D-04
  0.98586232D-15  0.57956908D-03  0.10902567D-02  0.18872901D-02  0.30936308D-02
  0.48462199D-02  0.72842628D-02  0.10410924D-01  0.13820479D-01  0.16094946D-01
  0.14781346D-01  0.86406673D-02  0.22672607D-02  0.12890637D-03  0.22492775D-05
  0.22641536D-06  0.27554673D-04  0.79599098D-04  0.36482137D-03  0.10799507D-02
  0.31318885D-02  0.65099195D-02  0.93125172D-02  0.26701961D-02 -0.10670461D-01
 -0.10317304D-01 -0.22519092D-02  0.32595705D-04  0.17472052D-04  0.81510737D-04
  0.16541999D-03  0.64830972D-03  0.45493428D-03 -0.29627042D-02 -0.91804032D-02
 -0.11229689D-02  0.80250657D-02  0.37661630D-02 -0.20647408D-06 -0.28305958D-06
  0.54269369D-06  0.11534025D-05 -0.43601843D-05 -0.14099728D-04 -0.49036711D-05
  0.47963244D-04  0.10698290D-03 -0.70990595D-04  0.81069588D-04 -0.30339221D-03
  0.74095473D-04 -0.18784912D-09 -0.26953544D-09 -0.35688983D-09 -0.41214564D-09
 -0.38213673D-09 -0.24746662D-09 -0.87320874D-10 -0.10061448D-10  0.16437315D-13
  0.24638461D+00  0.35352514D+00  0.46809995D+00  0.54057397D+00  0.50121401D+00
  0.32457947D+00  0.11453085D+00  0.13196687D-01 -0.21559332D-04  0.31709088D+00
  0.45497809D+00  0.60243303D+00  0.69570529D+00  0.64505000D+00  0.41772573D+00
  0.14739837D+00  0.16983809D-01 -0.27746326D-04  0.19166111D-11 -0.54645997D-11