 br2cs-wavefunction
GAUSSIAN            214 MOL ORBITALS    620 PRIMITIVES        4 NUCLEI
  C    1    (CENTRE  1)   0.00000000  0.00000000 -0.98162013  CHARGE =  6.0
  S    2    (CENTRE  2)   0.00000000  0.00000000  2.04788109  CHARGE = 16.0
  Br   3    (CENTRE  3)   0.00000000 -2.96406568 -2.98306498  CHARGE = 35.0
  Br   4    (CENTRE  4)   0.00000000  2.96406568 -3.00196224  CHARGE = 35.0
CENTRE ASSIGNMENTS    1  1  1  1  1  1  1  1  1  1  1  1  1  1  1  1  1  1  1  1
CENTRE ASSIGNMENTS    1  1  1  1  1  1  1  1  1  1  1  1  1  1  1  1  1  1  1  1
CENTRE ASSIGNMENTS    1  1  1  1  1  1  1  1  1  1  1  1  1  1  1  1  1  1  1  1
CENTRE ASSIGNMENTS    1  1  1  1  1  1  1  1  1  1  1  1  2  2  2  2  2  2  2  2
CENTRE ASSIGNMENTS    2  2  2  2  2  2  2  2  2  2  2  2  2  2  2  2  2  2  2  2
CENTRE ASSIGNMENTS    2  2  2  2  2  2  2  2  2  2  2  2  2  2  2  2  2  2  2  2
CENTRE ASSIGNMENTS    2  2  2  2  2  2  2  2  2  2  2  2  2  2  2  2  2  2  2  2
CENTRE ASSIGNMENTS    2  2  2  2  2  2  2  2  2  2  2  2  2  2  2  2  2  2  2  2
CENTRE ASSIGNMENTS    2  2  2  2  2  2  2  2  2  2  2  2  2  2  2  2  2  2  2  2
CENTRE ASSIGNMENTS    2  2  2  2  2  2  3  3  3  3  3  3  3  3  3  3  3  3  3  3
CENTRE ASSIGNMENTS    3  3  3  3  3  3  3  3  3  3  3  3  3  3  3  3  3  3  3  3
CENTRE ASSIGNMENTS    3  3  3  3  3  3  3  3  3  3  3  3  3  3  3  3  3  3  3  3
CENTRE ASSIGNMENTS    3  3  3  3  3  3  3  3  3  3  3  3  3  3  3  3  3  3  3  3
CENTRE ASSIGNMENTS    3  3  3  3  3  3  3  3  3  3  3  3  3  3  3  3  3  3  3  3
CENTRE ASSIGNMENTS    3  3  3  3  3  3  3  3  3  3  3  3  3  3  3  3  3  3  3  3
CENTRE ASSIGNMENTS    3  3  3  3  3  3  3  3  3  3  3  3  3  3  3  3  3  3  3  3
CENTRE ASSIGNMENTS    3  3  3  3  3  3  3  3  3  3  3  3  3  3  3  3  3  3  3  3
CENTRE ASSIGNMENTS    3  3  3  3  3  3  3  3  3  3  3  3  3  3  3  3  3  3  3  3
CENTRE ASSIGNMENTS    3  3  3  3  3  3  3  3  3  3  3  3  3  3  3  3  3  3  3  3
CENTRE ASSIGNMENTS    3  3  3  3  3  3  3  3  3  3  3  3  3  3  3  3  3  3  3  3
CENTRE ASSIGNMENTS    3  3  3  4  4  4  4  4  4  4  4  4  4  4  4  4  4  4  4  4
CENTRE ASSIGNMENTS    4  4  4  4  4  4  4  4  4  4  4  4  4  4  4  4  4  4  4  4
CENTRE ASSIGNMENTS    4  4  4  4  4  4  4  4  4  4  4  4  4  4  4  4  4  4  4  4
CENTRE ASSIGNMENTS    4  4  4  4  4  4  4  4  4  4  4  4  4  4  4  4  4  4  4  4
CENTRE ASSIGNMENTS    4  4  4  4  4  4  4  4  4  4  4  4  4  4  4  4  4  4  4  4
CENTRE ASSIGNMENTS    4  4  4  4  4  4  4  4  4  4  4  4  4  4  4  4  4  4  4  4
CENTRE ASSIGNMENTS    4  4  4  4  4  4  4  4  4  4  4  4  4  4  4  4  4  4  4  4
CENTRE ASSIGNMENTS    4  4  4  4  4  4  4  4  4  4  4  4  4  4  4  4  4  4  4  4
CENTRE ASSIGNMENTS    4  4  4  4  4  4  4  4  4  4  4  4  4  4  4  4  4  4  4  4
CENTRE ASSIGNMENTS    4  4  4  4  4  4  4  4  4  4  4  4  4  4  4  4  4  4  4  4
CENTRE ASSIGNMENTS    4  4  4  4  4  4  4  4  4  4  4  4  4  4  4  4  4  4  4  4
TYPE ASSIGNMENTS      1  1  1  1  1  1  1  1  1  1  1  1  1  1  1  1  2  2  2  3
TYPE ASSIGNMENTS      3  3  4  4  4  2  3  4  2  3  4  2  3  4  5  6  7  8  9 10
TYPE ASSIGNMENTS      5  6  7  8  9 10  5  6  7  8  9 10 11 12 13 17 14 15 18 19
TYPE ASSIGNMENTS     16 20 11 12 13 17 14 15 18 19 16 20  1  1  1  1  1  1  1  1
TYPE ASSIGNMENTS      1  1  1  1  1  1  1  1  1  1  1  1  1  1  1  1  1  1  1  1
TYPE ASSIGNMENTS      1  1  1  2  2  2  2  2  2  3  3  3  3  3  3  4  4  4  4  4
TYPE ASSIGNMENTS      4  2  2  2  2  2  2  3  3  3  3  3  3  4  4  4  4  4  4  2
TYPE ASSIGNMENTS      3  4  2  3  4  2  3  4  5  6  7  8  9 10  5  6  7  8  9 10
TYPE ASSIGNMENTS      5  6  7  8  9 10 11 12 13 17 14 15 18 19 16 20 11 12 13 17
TYPE ASSIGNMENTS     14 15 18 19 16 20  1  1  1  1  1  1  1  1  1  1  1  1  1  1
TYPE ASSIGNMENTS      1  1  1  1  1  1  1  1  1  1  1  1  1  1  1  1  1  1  1  1
TYPE ASSIGNMENTS      1  1  1  1  1  1  1  1  1  1  1  1  1  1  1  1  2  2  2  2
TYPE ASSIGNMENTS      2  2  2  2  2  3  3  3  3  3  3  3  3  3  4  4  4  4  4  4
TYPE ASSIGNMENTS      4  4  4  2  2  2  2  2  2  2  2  2  3  3  3  3  3  3  3  3
TYPE ASSIGNMENTS      3  4  4  4  4  4  4  4  4  4  2  2  2  2  2  2  2  2  3  3
TYPE ASSIGNMENTS      3  3  3  3  3  3  4  4  4  4  4  4  4  4  2  3  4  2  3  4
TYPE ASSIGNMENTS      2  3  4  5  5  5  5  5  5  5  6  6  6  6  6  6  6  7  7  7
TYPE ASSIGNMENTS      7  7  7  7  8  8  8  8  8  8  8  9  9  9  9  9  9  9 10 10
TYPE ASSIGNMENTS     10 10 10 10 10  5  6  7  8  9 10  5  6  7  8  9 10  5  6  7
TYPE ASSIGNMENTS      8  9 10 11 12 13 17 14 15 18 19 16 20 11 12 13 17 14 15 18
TYPE ASSIGNMENTS     19 16 20  1  1  1  1  1  1  1  1  1  1  1  1  1  1  1  1  1
TYPE ASSIGNMENTS      1  1  1  1  1  1  1  1  1  1  1  1  1  1  1  1  1  1  1  1
TYPE ASSIGNMENTS      1  1  1  1  1  1  1  1  1  1  1  1  1  2  2  2  2  2  2  2
TYPE ASSIGNMENTS      2  2  3  3  3  3  3  3  3  3  3  4  4  4  4  4  4  4  4  4
TYPE ASSIGNMENTS      2  2  2  2  2  2  2  2  2  3  3  3  3  3  3  3  3  3  4  4
TYPE ASSIGNMENTS      4  4  4  4  4  4  4  2  2  2  2  2  2  2  2  3  3  3  3  3
TYPE ASSIGNMENTS      3  3  3  4  4  4  4  4  4  4  4  2  3  4  2  3  4  2  3  4
TYPE ASSIGNMENTS      5  5  5  5  5  5  5  6  6  6  6  6  6  6  7  7  7  7  7  7
TYPE ASSIGNMENTS      7  8  8  8  8  8  8  8  9  9  9  9  9  9  9 10 10 10 10 10
TYPE ASSIGNMENTS     10 10  5  6  7  8  9 10  5  6  7  8  9 10  5  6  7  8  9 10
TYPE ASSIGNMENTS     11 12 13 17 14 15 18 19 16 20 11 12 13 17 14 15 18 19 16 20
EXPONENTS  0.8236000D+04 0.1235000D+04 0.2808000D+03 0.7927000D+02 0.2559000D+02
EXPONENTS  0.8997000D+01 0.3319000D+01 0.2808000D+03 0.7927000D+02 0.2559000D+02
EXPONENTS  0.8997000D+01 0.3319000D+01 0.3643000D+00 0.9059000D+00 0.1285000D+00
EXPONENTS  0.4402000D-01 0.1871000D+02 0.4133000D+01 0.1200000D+01 0.1871000D+02
EXPONENTS  0.4133000D+01 0.1200000D+01 0.1871000D+02 0.4133000D+01 0.1200000D+01
EXPONENTS  0.3827000D+00 0.3827000D+00 0.3827000D+00 0.1209000D+00 0.1209000D+00
EXPONENTS  0.1209000D+00 0.3569000D-01 0.3569000D-01 0.3569000D-01 0.1097000D+01
EXPONENTS  0.1097000D+01 0.1097000D+01 0.1097000D+01 0.1097000D+01 0.1097000D+01
EXPONENTS  0.3180000D+00 0.3180000D+00 0.3180000D+00 0.3180000D+00 0.3180000D+00
EXPONENTS  0.3180000D+00 0.1000000D+00 0.1000000D+00 0.1000000D+00 0.1000000D+00
EXPONENTS  0.1000000D+00 0.1000000D+00 0.7610000D+00 0.7610000D+00 0.7610000D+00
EXPONENTS  0.7610000D+00 0.7610000D+00 0.7610000D+00 0.7610000D+00 0.7610000D+00
EXPONENTS  0.7610000D+00 0.7610000D+00 0.2680000D+00 0.2680000D+00 0.2680000D+00
EXPONENTS  0.2680000D+00 0.2680000D+00 0.2680000D+00 0.2680000D+00 0.2680000D+00
EXPONENTS  0.2680000D+00 0.2680000D+00 0.3741000D+06 0.5605000D+05 0.1276000D+05
EXPONENTS  0.3615000D+04 0.1183000D+04 0.4288000D+03 0.1678000D+03 0.6947000D+02
EXPONENTS  0.2984000D+02 0.1272000D+02 0.5244000D+01 0.3615000D+04 0.1183000D+04
EXPONENTS  0.4288000D+03 0.1678000D+03 0.6947000D+02 0.2984000D+02 0.1272000D+02
EXPONENTS  0.5244000D+01 0.2219000D+01 0.1183000D+04 0.1678000D+03 0.6947000D+02
EXPONENTS  0.2984000D+02 0.1272000D+02 0.5244000D+01 0.2219000D+01 0.3490000D+00
EXPONENTS  0.7767000D+00 0.1322000D+00 0.4970000D-01 0.5744000D+03 0.1358000D+03
EXPONENTS  0.4319000D+02 0.1587000D+02 0.6208000D+01 0.2483000D+01 0.5744000D+03
EXPONENTS  0.1358000D+03 0.4319000D+02 0.1587000D+02 0.6208000D+01 0.2483000D+01
EXPONENTS  0.5744000D+03 0.1358000D+03 0.4319000D+02 0.1587000D+02 0.6208000D+01
EXPONENTS  0.2483000D+01 0.1358000D+03 0.4319000D+02 0.1587000D+02 0.6208000D+01
EXPONENTS  0.2483000D+01 0.3229000D+00 0.1358000D+03 0.4319000D+02 0.1587000D+02
EXPONENTS  0.6208000D+01 0.2483000D+01 0.3229000D+00 0.1358000D+03 0.4319000D+02
EXPONENTS  0.1587000D+02 0.6208000D+01 0.2483000D+01 0.3229000D+00 0.8688000D+00
EXPONENTS  0.8688000D+00 0.8688000D+00 0.1098000D+00 0.1098000D+00 0.1098000D+00
EXPONENTS  0.3510000D-01 0.3510000D-01 0.3510000D-01 0.2690000D+00 0.2690000D+00
EXPONENTS  0.2690000D+00 0.2690000D+00 0.2690000D+00 0.2690000D+00 0.8190000D+00
EXPONENTS  0.8190000D+00 0.8190000D+00 0.8190000D+00 0.8190000D+00 0.8190000D+00
EXPONENTS  0.1010000D+00 0.1010000D+00 0.1010000D+00 0.1010000D+00 0.1010000D+00
EXPONENTS  0.1010000D+00 0.5570000D+00 0.5570000D+00 0.5570000D+00 0.5570000D+00
EXPONENTS  0.5570000D+00 0.5570000D+00 0.5570000D+00 0.5570000D+00 0.5570000D+00
EXPONENTS  0.5570000D+00 0.2180000D+00 0.2180000D+00 0.2180000D+00 0.2180000D+00
EXPONENTS  0.2180000D+00 0.2180000D+00 0.2180000D+00 0.2180000D+00 0.2180000D+00
EXPONENTS  0.2180000D+00 0.1063900D+08 0.1593400D+07 0.3626100D+06 0.1027000D+06
EXPONENTS  0.3350100D+05 0.1209300D+05 0.4715900D+04 0.1955600D+04 0.8526100D+03
EXPONENTS  0.3876700D+03 0.1826800D+03 0.8824500D+02 0.3926300D+02 0.9405700D+01
EXPONENTS  0.1899500D+01 0.3350100D+05 0.1209300D+05 0.4715900D+04 0.1955600D+04
EXPONENTS  0.8526100D+03 0.3876700D+03 0.1826800D+03 0.8824500D+02 0.3926300D+02
EXPONENTS  0.1923400D+02 0.9405700D+01 0.1899500D+01 0.4715900D+04 0.8526100D+03
EXPONENTS  0.3876700D+03 0.1826800D+03 0.8824500D+02 0.3926300D+02 0.1923400D+02
EXPONENTS  0.9405700D+01 0.4160100D+01 0.1899500D+01 0.4715900D+04 0.8526100D+03
EXPONENTS  0.3876700D+03 0.8824500D+02 0.3926300D+02 0.1923400D+02 0.9405700D+01
EXPONENTS  0.4160100D+01 0.1899500D+01 0.3011400D+00 0.6047200D+00 0.1251500D+00
EXPONENTS  0.4559300D-01 0.8676500D+04 0.2055900D+04 0.6662300D+03 0.2531000D+03
EXPONENTS  0.1061200D+03 0.4724200D+02 0.2182500D+02 0.9968400D+01 0.1998200D+01
EXPONENTS  0.8676500D+04 0.2055900D+04 0.6662300D+03 0.2531000D+03 0.1061200D+03
EXPONENTS  0.4724200D+02 0.2182500D+02 0.9968400D+01 0.1998200D+01 0.8676500D+04
EXPONENTS  0.2055900D+04 0.6662300D+03 0.2531000D+03 0.1061200D+03 0.4724200D+02
EXPONENTS  0.2182500D+02 0.9968400D+01 0.1998200D+01 0.8676500D+04 0.6662300D+03
EXPONENTS  0.2531000D+03 0.1061200D+03 0.4724200D+02 0.2182500D+02 0.9968400D+01
EXPONENTS  0.4517100D+01 0.1998200D+01 0.8676500D+04 0.6662300D+03 0.2531000D+03
EXPONENTS  0.1061200D+03 0.4724200D+02 0.2182500D+02 0.9968400D+01 0.4517100D+01
EXPONENTS  0.1998200D+01 0.8676500D+04 0.6662300D+03 0.2531000D+03 0.1061200D+03
EXPONENTS  0.4724200D+02 0.2182500D+02 0.9968400D+01 0.4517100D+01 0.1998200D+01
EXPONENTS  0.6662300D+03 0.1061200D+03 0.4724200D+02 0.2182500D+02 0.9968400D+01
EXPONENTS  0.4517100D+01 0.1998200D+01 0.2814500D+00 0.6662300D+03 0.1061200D+03
EXPONENTS  0.4724200D+02 0.2182500D+02 0.9968400D+01 0.4517100D+01 0.1998200D+01
EXPONENTS  0.2814500D+00 0.6662300D+03 0.1061200D+03 0.4724200D+02 0.2182500D+02
EXPONENTS  0.9968400D+01 0.4517100D+01 0.1998200D+01 0.2814500D+00 0.7098800D+00
EXPONENTS  0.7098800D+00 0.7098800D+00 0.1020400D+00 0.1020400D+00 0.1020400D+00
EXPONENTS  0.3514200D-01 0.3514200D-01 0.3514200D-01 0.4038300D+03 0.1211700D+03
EXPONENTS  0.4634500D+02 0.1972100D+02 0.8862400D+01 0.3996200D+01 0.1763600D+01
EXPONENTS  0.4038300D+03 0.1211700D+03 0.4634500D+02 0.1972100D+02 0.8862400D+01
EXPONENTS  0.3996200D+01 0.1763600D+01 0.4038300D+03 0.1211700D+03 0.4634500D+02
EXPONENTS  0.1972100D+02 0.8862400D+01 0.3996200D+01 0.1763600D+01 0.4038300D+03
EXPONENTS  0.1211700D+03 0.4634500D+02 0.1972100D+02 0.8862400D+01 0.3996200D+01
EXPONENTS  0.1763600D+01 0.4038300D+03 0.1211700D+03 0.4634500D+02 0.1972100D+02
EXPONENTS  0.8862400D+01 0.3996200D+01 0.1763600D+01 0.4038300D+03 0.1211700D+03
EXPONENTS  0.4634500D+02 0.1972100D+02 0.8862400D+01 0.3996200D+01 0.1763600D+01
EXPONENTS  0.7061900D+00 0.7061900D+00 0.7061900D+00 0.7061900D+00 0.7061900D+00
EXPONENTS  0.7061900D+00 0.2639000D+00 0.2639000D+00 0.2639000D+00 0.2639000D+00
EXPONENTS  0.2639000D+00 0.2639000D+00 0.1047000D+00 0.1047000D+00 0.1047000D+00
EXPONENTS  0.1047000D+00 0.1047000D+00 0.1047000D+00 0.5515000D+00 0.5515000D+00
EXPONENTS  0.5515000D+00 0.5515000D+00 0.5515000D+00 0.5515000D+00 0.5515000D+00
EXPONENTS  0.5515000D+00 0.5515000D+00 0.5515000D+00 0.2580000D+00 0.2580000D+00
EXPONENTS  0.2580000D+00 0.2580000D+00 0.2580000D+00 0.2580000D+00 0.2580000D+00
EXPONENTS  0.2580000D+00 0.2580000D+00 0.2580000D+00 0.1063900D+08 0.1593400D+07
EXPONENTS  0.3626100D+06 0.1027000D+06 0.3350100D+05 0.1209300D+05 0.4715900D+04
EXPONENTS  0.1955600D+04 0.8526100D+03 0.3876700D+03 0.1826800D+03 0.8824500D+02
EXPONENTS  0.3926300D+02 0.9405700D+01 0.1899500D+01 0.3350100D+05 0.1209300D+05
EXPONENTS  0.4715900D+04 0.1955600D+04 0.8526100D+03 0.3876700D+03 0.1826800D+03
EXPONENTS  0.8824500D+02 0.3926300D+02 0.1923400D+02 0.9405700D+01 0.1899500D+01
EXPONENTS  0.4715900D+04 0.8526100D+03 0.3876700D+03 0.1826800D+03 0.8824500D+02
EXPONENTS  0.3926300D+02 0.1923400D+02 0.9405700D+01 0.4160100D+01 0.1899500D+01
EXPONENTS  0.4715900D+04 0.8526100D+03 0.3876700D+03 0.8824500D+02 0.3926300D+02
EXPONENTS  0.1923400D+02 0.9405700D+01 0.4160100D+01 0.1899500D+01 0.3011400D+00
EXPONENTS  0.6047200D+00 0.1251500D+00 0.4559300D-01 0.8676500D+04 0.2055900D+04
EXPONENTS  0.6662300D+03 0.2531000D+03 0.1061200D+03 0.4724200D+02 0.2182500D+02
EXPONENTS  0.9968400D+01 0.1998200D+01 0.8676500D+04 0.2055900D+04 0.6662300D+03
EXPONENTS  0.2531000D+03 0.1061200D+03 0.4724200D+02 0.2182500D+02 0.9968400D+01
EXPONENTS  0.1998200D+01 0.8676500D+04 0.2055900D+04 0.6662300D+03 0.2531000D+03
EXPONENTS  0.1061200D+03 0.4724200D+02 0.2182500D+02 0.9968400D+01 0.1998200D+01
EXPONENTS  0.8676500D+04 0.6662300D+03 0.2531000D+03 0.1061200D+03 0.4724200D+02
EXPONENTS  0.2182500D+02 0.9968400D+01 0.4517100D+01 0.1998200D+01 0.8676500D+04
EXPONENTS  0.6662300D+03 0.2531000D+03 0.1061200D+03 0.4724200D+02 0.2182500D+02
EXPONENTS  0.9968400D+01 0.4517100D+01 0.1998200D+01 0.8676500D+04 0.6662300D+03
EXPONENTS  0.2531000D+03 0.1061200D+03 0.4724200D+02 0.2182500D+02 0.9968400D+01
EXPONENTS  0.4517100D+01 0.1998200D+01 0.6662300D+03 0.1061200D+03 0.4724200D+02
EXPONENTS  0.2182500D+02 0.9968400D+01 0.4517100D+01 0.1998200D+01 0.2814500D+00
EXPONENTS  0.6662300D+03 0.1061200D+03 0.4724200D+02 0.2182500D+02 0.9968400D+01
EXPONENTS  0.4517100D+01 0.1998200D+01 0.2814500D+00 0.6662300D+03 0.1061200D+03
EXPONENTS  0.4724200D+02 0.2182500D+02 0.9968400D+01 0.4517100D+01 0.1998200D+01
EXPONENTS  0.2814500D+00 0.7098800D+00 0.7098800D+00 0.7098800D+00 0.1020400D+00
EXPONENTS  0.1020400D+00 0.1020400D+00 0.3514200D-01 0.3514200D-01 0.3514200D-01
EXPONENTS  0.4038300D+03 0.1211700D+03 0.4634500D+02 0.1972100D+02 0.8862400D+01
EXPONENTS  0.3996200D+01 0.1763600D+01 0.4038300D+03 0.1211700D+03 0.4634500D+02
EXPONENTS  0.1972100D+02 0.8862400D+01 0.3996200D+01 0.1763600D+01 0.4038300D+03
EXPONENTS  0.1211700D+03 0.4634500D+02 0.1972100D+02 0.8862400D+01 0.3996200D+01
EXPONENTS  0.1763600D+01 0.4038300D+03 0.1211700D+03 0.4634500D+02 0.1972100D+02
EXPONENTS  0.8862400D+01 0.3996200D+01 0.1763600D+01 0.4038300D+03 0.1211700D+03
EXPONENTS  0.4634500D+02 0.1972100D+02 0.8862400D+01 0.3996200D+01 0.1763600D+01
EXPONENTS  0.4038300D+03 0.1211700D+03 0.4634500D+02 0.1972100D+02 0.8862400D+01
EXPONENTS  0.3996200D+01 0.1763600D+01 0.7061900D+00 0.7061900D+00 0.7061900D+00
EXPONENTS  0.7061900D+00 0.7061900D+00 0.7061900D+00 0.2639000D+00 0.2639000D+00
EXPONENTS  0.2639000D+00 0.2639000D+00 0.2639000D+00 0.2639000D+00 0.1047000D+00
EXPONENTS  0.1047000D+00 0.1047000D+00 0.1047000D+00 0.1047000D+00 0.1047000D+00
EXPONENTS  0.5515000D+00 0.5515000D+00 0.5515000D+00 0.5515000D+00 0.5515000D+00
EXPONENTS  0.5515000D+00 0.5515000D+00 0.5515000D+00 0.5515000D+00 0.5515000D+00
EXPONENTS  0.2580000D+00 0.2580000D+00 0.2580000D+00 0.2580000D+00 0.2580000D+00
EXPONENTS  0.2580000D+00 0.2580000D+00 0.2580000D+00 0.2580000D+00 0.2580000D+00
MO    1     MO 0.0        OCC NO =    2.0000282  ORB. ENERGY =    0.000000
 -0.41956468D-03 -0.78215310D-03 -0.13219453D-02 -0.19871303D-02 -0.24408337D-02
 -0.20599775D-02 -0.77460535D-03 -0.96704745D-07 -0.72280806D-06 -0.27012987D-05
 -0.75362029D-05 -0.10096434D-04  0.11922006D-04 -0.31983352D-04 -0.20481822D-04
 -0.44993432D-05 -0.77447325D-13 -0.72611790D-13 -0.51703920D-13 -0.26319698D-02
 -0.24676390D-02 -0.17571060D-02  0.48110867D-04  0.45106996D-04  0.32118868D-04
 -0.13895484D-13 -0.55385667D-03  0.63616174D-05  0.10543956D-13  0.12794754D-02
 -0.73764749D-05 -0.14660538D-15  0.79945941D-04 -0.17730739D-07 -0.22023949D-06
 -0.17281304D-05  0.19483699D-05  0.45696248D-14 -0.16066997D-13 -0.11873101D-02
  0.96993914D-07  0.82599666D-06 -0.92299058D-06  0.69302422D-14  0.19247043D-13
  0.26262243D-05  0.81511483D-07 -0.45024761D-06  0.36873612D-06 -0.99762054D-15
  0.55764212D-14 -0.32154456D-03  0.21655300D-14  0.11278547D-03  0.75156548D-06
 -0.36480763D-15  0.27469399D-03 -0.30091711D-05 -0.61317823D-14 -0.61305039D-03
  0.75447466D-06 -0.72131062D-14 -0.13197430D-14 -0.68782261D-04  0.26781542D-06
 -0.12307857D-14 -0.13783457D-03  0.66575288D-06  0.51900148D-14  0.34418135D-03
 -0.14691991D-05  0.12112878D-14 -0.66295069D-03 -0.12394531D-02 -0.21421433D-02
 -0.34648286D-02 -0.52369724D-02 -0.72123953D-02 -0.84304119D-02 -0.72861320D-02
 -0.34004757D-02 -0.46068985D-03  0.33695519D-05 -0.82257486D-05 -0.10574117D-03
 -0.38572859D-03 -0.13014387D-02 -0.28585434D-02 -0.36924583D-02  0.59340947D-03
  0.49780001D-02  0.27318623D-02 -0.77690406D-07 -0.88494203D-06 -0.18374587D-05
 -0.50525446D-05  0.65512044D-06  0.22845306D-04  0.56979821D-04 -0.47167071D-04
  0.15055020D-03  0.10309798D-04  0.90582847D-06  0.15070890D-09  0.19772151D-09
  0.21685770D-09  0.17842398D-09  0.94054979D-10  0.24471336D-10  0.97035923D+01
  0.12730561D+02  0.13962671D+02  0.11488065D+02  0.60558545D+01  0.15756194D+01
  0.63913110D-01  0.83850365D-01  0.91965704D-01  0.75666611D-01  0.39887135D-01
  0.10377882D-01  0.71395474D-15  0.25627856D-13  0.40659236D-13  0.48281595D-13
  0.73062779D-14 -0.53173722D-13  0.88426491D-04  0.31741247D-02  0.50358284D-02
  0.59798917D-02  0.90491524D-03 -0.65858035D-02  0.58170517D-06  0.20880674D-04
  0.33127713D-04  0.39338143D-04  0.59528979D-05 -0.43324075D-04  0.11527675D-11
  0.67303267D-01  0.46017304D-03 -0.12522160D-13 -0.31730058D-03 -0.68926067D-05
 -0.26665484D-15 -0.27852911D-04 -0.64072285D-07 -0.24370541D-05 -0.11088502D-05
  0.35459043D-05 -0.60883451D-15  0.17826525D-13  0.76711434D-03  0.12375666D-05
 -0.17753789D-05  0.53781231D-06  0.27194052D-14 -0.10387741D-13 -0.72239076D-03
 -0.13648986D-06 -0.20219099D-06  0.33868084D-06  0.18729289D-15  0.34585904D-14
 -0.41762220D-04  0.10953019D-14  0.37403658D-05 -0.35486126D-06  0.10467579D-14
  0.13855043D-03  0.16431982D-05 -0.43326635D-14 -0.14977153D-03 -0.57861438D-06
  0.28613754D-14  0.91104327D-15  0.31916247D-04 -0.20735549D-06  0.10365062D-14
  0.28211449D-05  0.29190701D-06 -0.37696360D-14 -0.98569885D-04  0.33015947D-06
  0.27437462D-15  0.37474222D-03  0.70494655D-03  0.12202985D-02  0.20003035D-02
  0.31335060D-02  0.47099144D-02  0.67315749D-02  0.89361511D-02  0.10406794D-01
  0.95574359D-02  0.55869488D-02  0.14659828D-02  0.83349264D-04  0.14543550D-05
  0.14639738D-06  0.18843745D-04  0.54435236D-04  0.24948948D-03  0.73854319D-03
  0.21417968D-02  0.44519223D-02  0.63685278D-02  0.18260603D-02 -0.72971816D-02
 -0.70556686D-02 -0.15400075D-02  0.22291143D-04  0.12353827D-04  0.57633158D-04
  0.11696222D-03  0.45839527D-03  0.32166682D-03 -0.20948161D-02 -0.64911158D-02
 -0.79400883D-03  0.56742203D-02  0.26629114D-02 -0.96892843D-06 -0.13283240D-05
  0.25467184D-05  0.54126139D-05 -0.20461195D-04 -0.66166308D-04 -0.23011635D-04
  0.22507886D-03  0.50204253D-03 -0.33314015D-03 -0.55295299D-04  0.15349753D-02
  0.47820740D-03  0.49227358D-08  0.70633911D-08  0.93525825D-08  0.10800605D-07
  0.10014198D-07  0.64850599D-08  0.22883131D-08  0.26366827D-09 -0.43075294D-12
  0.11909002D+01  0.17087640D+01  0.22625614D+01  0.26128646D+01  0.24226182D+01
  0.15688551D+01  0.55358495D+00  0.63786195D-01 -0.10420705D-03  0.10419675D+01
  0.14950678D+01  0.19796079D+01  0.22861026D+01  0.21196482D+01  0.13726557D+01
  0.48435421D+00  0.55809161D-01 -0.91175024D-04 -0.41506561D-11  0.11834260D-10
  0.57764546D-10  0.11969912D-09  0.15021058D-09  0.23820697D-10 -0.19282049D-09
 -0.16816743D-09 -0.43229940D-10 -0.72236979D-02  0.20596050D-01  0.10053197D+00
  0.20832135D+00  0.26142274D+00  0.41456944D-01 -0.33557995D+00 -0.29267438D+00
 -0.75236303D-01 -0.64399589D-02  0.18361470D-01  0.89624697D-01  0.18571942D+00
  0.23305953D+00  0.36959051D-01 -0.29917103D+00 -0.26092051D+00 -0.67073500D-01
  0.37817745D-15  0.53426598D-15 -0.24859117D-15  0.49817905D-15  0.54688909D-15
  0.14762251D-14  0.46519753D-15 -0.99878897D-15 -0.73127655D-04 -0.10331028D-03
  0.48069734D-04 -0.96332201D-04 -0.10575119D-03 -0.28545562D-03 -0.89954608D-04
  0.19313446D-03  0.58880225D-04  0.83182383D-04 -0.38704328D-04  0.77563839D-04
  0.85147734D-04  0.22984042D-03  0.72428790D-04 -0.15550615D-03 -0.14749533D-11
 -0.31120818D-02 -0.29016102D-02 -0.12028760D-13  0.38316283D-03  0.16628719D-03
  0.51875155D-15  0.14837278D-04  0.12325325D-04  0.14793241D+00  0.15479532D+00
  0.13189390D+00  0.86862105D-01  0.40032158D-01  0.11987695D-01  0.20396046D-02
 -0.14929696D+00 -0.15622319D+00 -0.13311052D+00 -0.87663338D-01 -0.40401422D-01
 -0.12098271D-01 -0.20584183D-02  0.13645572D-02  0.14278621D-02  0.12166150D-02
  0.80123293D-03  0.36926440D-03  0.11057682D-03  0.18813709D-04  0.11830125D-10
  0.12378951D-10  0.10547529D-10  0.69463452D-11  0.32013637D-11  0.95865354D-12
  0.16310677D-12  0.36833966D-10  0.38542776D-10  0.32840508D-10  0.21627957D-10
  0.99676817D-11  0.29848384D-11  0.50784495D-12 -0.47799958D+00 -0.50017505D+00
 -0.42617592D+00 -0.28066906D+00 -0.12935201D+00 -0.38734670D-01 -0.65903757D-02
  0.65462502D-04 -0.11722480D-03  0.51762293D-04 -0.24691345D-14  0.23494556D-13
 -0.35285734D-03 -0.54651229D-04  0.56716125D-04 -0.20648954D-05  0.47872930D-15
  0.46628117D-15  0.93383989D-04 -0.15645610D-04  0.18418881D-04 -0.27732714D-05
  0.29271487D-15 -0.56707001D-15  0.63785767D-04  0.27276966D-14  0.27800962D-04
  0.31978752D-04 -0.92264546D-14 -0.51537768D-04 -0.39901877D-04  0.10433646D-14
 -0.31865119D-04 -0.56034380D-04 -0.16546284D-13 -0.20395076D-15 -0.16995277D-05
 -0.13364672D-05  0.11525621D-14  0.12347578D-04  0.22504374D-05 -0.54070980D-15
 -0.72489952D-05  0.17589643D-05  0.17321743D-14 -0.37563755D-03 -0.70663080D-03
 -0.12232140D-02 -0.20050826D-02 -0.31409925D-02 -0.47211673D-02 -0.67476580D-02
 -0.89575013D-02 -0.10431657D-01 -0.95802705D-02 -0.56002971D-02 -0.14694853D-02
 -0.83548402D-04 -0.14578298D-05 -0.14674715D-06 -0.18891867D-04 -0.54574250D-04
 -0.25012661D-03 -0.74042924D-03 -0.21472664D-02 -0.44632914D-02 -0.63847914D-02
 -0.18307236D-02  0.73158168D-02  0.70736870D-02  0.15439403D-02 -0.22348069D-04
 -0.12395029D-04 -0.57825372D-04 -0.11735230D-03 -0.45992408D-03 -0.32273962D-03
  0.21018025D-02  0.65127645D-02  0.79665694D-03 -0.56931445D-02 -0.26717925D-02
  0.95809004D-06  0.13134654D-05 -0.25182309D-05 -0.53520687D-05  0.20232317D-04
  0.65426174D-04  0.22754228D-04 -0.22256113D-03 -0.49642670D-03  0.32941365D-03
  0.52763346D-04 -0.15301900D-02 -0.47471085D-03 -0.48658779D-08 -0.69818085D-08
 -0.92445597D-08 -0.10675857D-07 -0.98985331D-08 -0.64101572D-08 -0.22618830D-08
 -0.26062288D-09  0.42577772D-12  0.12009443D+01  0.17231758D+01  0.22816439D+01
  0.26349016D+01  0.24430507D+01  0.15820869D+01  0.55825391D+00  0.64324170D-01
 -0.10508593D-03 -0.10528290D+01 -0.15106525D+01 -0.20002435D+01 -0.23099331D+01
 -0.21417436D+01 -0.13869644D+01 -0.48940317D+00 -0.56390922D-01  0.92125442D-04
  0.88935213D-12 -0.25357014D-11 -0.12377084D-10 -0.25647673D-10 -0.32185297D-10
 -0.51040093D-11  0.41315231D-10  0.36032871D-10  0.92627858D-11 -0.72876716D-02
  0.20778450D-01  0.10142229D+00  0.21016627D+00  0.26373792D+00  0.41824090D-01
 -0.33855188D+00 -0.29526633D+00 -0.75902603D-01  0.65040966D-02 -0.18544338D-01
 -0.90517299D-01 -0.18756906D+00 -0.23538065D+00 -0.37327138D-01  0.30215057D+00
  0.26351911D+00  0.67741507D-01 -0.69886955D-15 -0.98732019D-15  0.45939493D-15
 -0.92063177D-15 -0.10106476D-14 -0.27280547D-14 -0.85968211D-15  0.18457558D-14
 -0.72689964D-04 -0.10269194D-03  0.47782023D-04 -0.95755624D-04 -0.10511824D-03
 -0.28374708D-03 -0.89416203D-04  0.19197849D-03 -0.57095486D-04 -0.80661014D-04
  0.37531148D-04 -0.75212775D-04 -0.82566792D-04 -0.22287365D-03 -0.70233376D-04
  0.15079255D-03  0.38743794D-12 -0.31382565D-02  0.29225737D-02  0.86628402D-14
  0.38128056D-03 -0.16845376D-03 -0.15938960D-16  0.14620869D-04 -0.12374709D-04
 -0.14594390D+00 -0.15271456D+00 -0.13012098D+00 -0.85694503D-01 -0.39494045D-01
 -0.11826556D-01 -0.20121882D-02  0.14436951D+00  0.15106714D+00  0.12871729D+00
  0.84770063D-01  0.39067998D-01  0.11698975D-01  0.19904815D-02  0.15743863D-02
  0.16474256D-02  0.14036948D-02  0.92443916D-03  0.42604648D-03  0.12758031D-03
  0.21706708D-04  0.34503952D-10  0.36104668D-10  0.30763110D-10  0.20259833D-10
  0.93371540D-11  0.27960259D-11  0.47572010D-12 -0.71702852D-10 -0.75029309D-10
 -0.63928987D-10 -0.42102071D-10 -0.19403591D-10 -0.58104367D-11 -0.98859655D-12
 -0.47500206D+00 -0.49703848D+00 -0.42350339D+00 -0.27890900D+00 -0.12854085D+00
 -0.38491766D-01 -0.65490477D-02 -0.64113447D-04  0.11101352D-03 -0.46900068D-04
  0.27755908D-13 -0.55866731D-13 -0.35023084D-03  0.54541932D-04 -0.57525479D-04
  0.29835472D-05  0.12417433D-14 -0.73586070D-15  0.96167567D-04  0.15727913D-04
 -0.18359872D-04  0.26319590D-05 -0.12788596D-14  0.75577110D-16  0.64264015D-04
 -0.42340892D-15  0.28937423D-04 -0.30487560D-04 -0.11297585D-14 -0.51133734D-04
  0.37883963D-04  0.23999853D-14 -0.35678535D-04  0.53578718D-04 -0.20684443D-14
  0.72576268D-16 -0.18823211D-05  0.16278603D-05  0.72696484D-15  0.12285944D-04
 -0.20590082D-05 -0.94469364D-15 -0.66389812D-05 -0.28245726D-05  0.99457535D-16
MO    2     MO 0.0        OCC NO =    2.0000240  ORB. ENERGY =    0.000000
 -0.58945678D-01 -0.10988662D+00 -0.18572336D+00 -0.27917684D+00 -0.34291875D+00
 -0.28941133D+00 -0.10882622D+00 -0.10352540D-04 -0.77378824D-04 -0.28918233D-03
 -0.80677368D-03 -0.10808543D-02  0.12762874D-02 -0.44780490D-02 -0.17434437D-02
 -0.31643276D-03  0.31844439D-13  0.29856185D-13  0.21259383D-13  0.20689629D-04
  0.19397843D-04  0.13812420D-04  0.22855065D-02  0.21428076D-02  0.15258066D-02
  0.84567508D-14  0.32077932D-05 -0.21806498D-03  0.51601075D-14 -0.78016736D-05
 -0.96585494D-03  0.26832191D-15 -0.28261254D-06  0.12337546D-05  0.12431478D-03
  0.12097519D-04 -0.13641230D-03 -0.69257674D-14 -0.74532877D-14  0.70871782D-05
  0.11865679D-03  0.12802961D-03 -0.24668640D-03 -0.37775150D-14  0.28832783D-14
 -0.25156691D-06  0.23577925D-04  0.99530420D-04 -0.12310835D-03 -0.25323548D-14
  0.49963368D-14  0.15672686D-05 -0.10493741D-14 -0.12885413D-05 -0.96546580D-05
  0.34942862D-14 -0.14937706D-05 -0.90180233D-04 -0.34616380D-15  0.53593947D-05
  0.11914421D-03  0.13833498D-15  0.22397127D-16  0.90852724D-06  0.12999519D-04
 -0.11136663D-14  0.72561338D-06  0.44679768D-04  0.10464749D-14 -0.34511951D-05
 -0.83678324D-04  0.33968646D-15 -0.12708342D+00 -0.23759526D+00 -0.41063522D+00
 -0.66418555D+00 -0.10038942D+01 -0.13825702D+01 -0.16160562D+01 -0.13967050D+01
 -0.65184952D+00 -0.88311307D-01  0.64592162D-03 -0.15835502D-02 -0.20356378D-01
 -0.74257142D-01 -0.25054176D+00 -0.55030212D+00 -0.71084024D+00  0.11423807D+00
  0.95832166D+00  0.52591457D+00 -0.12728721D-04 -0.14498804D-03 -0.30104744D-03
 -0.82780402D-03  0.10733430D-03  0.37429528D-02  0.93355187D-02 -0.77278071D-02
  0.29350256D-01  0.18059355D-02  0.12812103D-03 -0.70579240D-10 -0.92595950D-10
 -0.10155772D-09 -0.83558630D-10 -0.44047359D-10 -0.11460294D-10 -0.70421994D-01
 -0.92389651D-01 -0.10133145D+00 -0.83372466D-01 -0.43949224D-01 -0.11434761D-01
  0.62275964D+01  0.81702523D+01  0.89609985D+01  0.73728396D+01  0.38865418D+01
  0.10112051D+01 -0.31457913D-15 -0.11292016D-13 -0.17915067D-13 -0.21273593D-13
 -0.32192553D-14  0.23429137D-13 -0.61110780D-06 -0.21936100D-04 -0.34802172D-04
 -0.41326512D-04 -0.62537906D-05  0.45513916D-04  0.57945822D-04  0.20800019D-02
  0.32999751D-02  0.39186192D-02  0.59299037D-03 -0.43156728D-02 -0.54881165D-12
 -0.49748101D-03  0.45865737D-01 -0.11779523D-13  0.22347703D-05 -0.77325529D-03
 -0.11936625D-15  0.14773158D-06 -0.49885671D-05 -0.24676695D-03 -0.13332237D-03
  0.38008932D-03  0.64963204D-15  0.19862435D-14 -0.59787407D-05  0.20975166D-03
 -0.39811235D-03  0.18836068D-03 -0.17864752D-14 -0.78092163D-15  0.27081817D-05
 -0.54625997D-05 -0.30782391D-04  0.36244991D-04  0.55499259D-15  0.27887410D-14
  0.19855937D-06 -0.75780695D-15 -0.49435114D-07 -0.74145644D-04  0.95882027D-15
 -0.10037986D-05  0.20774276D-03  0.13146006D-14  0.11521040D-05  0.14694171D-04
  0.25077706D-14  0.40046274D-15 -0.25077309D-06 -0.20794382D-04  0.18553145D-15
 -0.19147332D-07  0.19401188D-04 -0.13869197D-14  0.77146661D-06  0.42981957D-04
 -0.11828292D-14  0.58515611D-03  0.11007668D-02  0.19054835D-02  0.31234533D-02
  0.48929372D-02  0.73544828D-02  0.10511285D-01  0.13953708D-01  0.16250101D-01
  0.14923838D-01  0.87239630D-02  0.22891170D-02  0.13014902D-03  0.22709604D-05
  0.22859800D-06  0.27813363D-04  0.80346394D-04  0.36824640D-03  0.10900896D-02
  0.31612915D-02  0.65710362D-02  0.93999453D-02  0.26952646D-02 -0.10770638D-01
 -0.10414165D-01 -0.22730507D-02  0.32901721D-04  0.17627960D-04  0.82238080D-04
  0.16689608D-03  0.65409477D-03  0.45899379D-03 -0.29891413D-02 -0.92623226D-02
 -0.11329895D-02  0.80966756D-02  0.37997696D-02 -0.19885984D-06 -0.27262106D-06
  0.52268051D-06  0.11108679D-05 -0.41993917D-05 -0.13579766D-04 -0.47228360D-05
  0.46194480D-04  0.10303764D-03 -0.68372641D-04  0.84868596D-04 -0.29865063D-03
  0.74301798D-04  0.69819936D-09  0.10018119D-08  0.13264915D-08  0.15318668D-08
  0.14203294D-08  0.91978625D-09  0.32455505D-09  0.37396485D-10 -0.61094367D-13
  0.24580515D+00  0.35269371D+00  0.46699906D+00  0.53930263D+00  0.50003524D+00
  0.32381611D+00  0.11426149D+00  0.13165650D-01 -0.21508628D-04  0.31197069D+00
  0.44763138D+00  0.59270531D+00  0.68447147D+00  0.63463413D+00  0.41098055D+00
  0.14501827D+00  0.16709565D-01 -0.27298295D-04  0.22133122D-11 -0.63105474D-11