 br2cs-wavefunction
GAUSSIAN            214 MOL ORBITALS    620 PRIMITIVES        4 NUCLEI
  C    1    (CENTRE  1)   0.00000000  0.00000000 -0.98162013  CHARGE =  6.0
  S    2    (CENTRE  2)  -0.01889726  0.00000000  2.04788109  CHARGE = 16.0
  Br   3    (CENTRE  3)   0.00000000 -2.96406568 -2.98306498  CHARGE = 35.0
  Br   4    (CENTRE  4)   0.00000000  2.96406568 -2.98306498  CHARGE = 35.0
CENTRE ASSIGNMENTS    1  1  1  1  1  1  1  1  1  1  1  1  1  1  1  1  1  1  1  1
CENTRE ASSIGNMENTS    1  1  1  1  1  1  1  1  1  1  1  1  1  1  1  1  1  1  1  1
CENTRE ASSIGNMENTS    1  1  1  1  1  1  1  1  1  1  1  1  1  1  1  1  1  1  1  1
CENTRE ASSIGNMENTS    1  1  1  1  1  1  1  1  1  1  1  1  2  2  2  2  2  2  2  2
CENTRE ASSIGNMENTS    2  2  2  2  2  2  2  2  2  2  2  2  2  2  2  2  2  2  2  2
CENTRE ASSIGNMENTS    2  2  2  2  2  2  2  2  2  2  2  2  2  2  2  2  2  2  2  2
CENTRE ASSIGNMENTS    2  2  2  2  2  2  2  2  2  2  2  2  2  2  2  2  2  2  2  2
CENTRE ASSIGNMENTS    2  2  2  2  2  2  2  2  2  2  2  2  2  2  2  2  2  2  2  2
CENTRE ASSIGNMENTS    2  2  2  2  2  2  2  2  2  2  2  2  2  2  2  2  2  2  2  2
CENTRE ASSIGNMENTS    2  2  2  2  2  2  3  3  3  3  3  3  3  3  3  3  3  3  3  3
CENTRE ASSIGNMENTS    3  3  3  3  3  3  3  3  3  3  3  3  3  3  3  3  3  3  3  3
CENTRE ASSIGNMENTS    3  3  3  3  3  3  3  3  3  3  3  3  3  3  3  3  3  3  3  3
CENTRE ASSIGNMENTS    3  3  3  3  3  3  3  3  3  3  3  3  3  3  3  3  3  3  3  3
CENTRE ASSIGNMENTS    3  3  3  3  3  3  3  3  3  3  3  3  3  3  3  3  3  3  3  3
CENTRE ASSIGNMENTS    3  3  3  3  3  3  3  3  3  3  3  3  3  3  3  3  3  3  3  3
CENTRE ASSIGNMENTS    3  3  3  3  3  3  3  3  3  3  3  3  3  3  3  3  3  3  3  3
CENTRE ASSIGNMENTS    3  3  3  3  3  3  3  3  3  3  3  3  3  3  3  3  3  3  3  3
CENTRE ASSIGNMENTS    3  3  3  3  3  3  3  3  3  3  3  3  3  3  3  3  3  3  3  3
CENTRE ASSIGNMENTS    3  3  3  3  3  3  3  3  3  3  3  3  3  3  3  3  3  3  3  3
CENTRE ASSIGNMENTS    3  3  3  3  3  3  3  3  3  3  3  3  3  3  3  3  3  3  3  3
CENTRE ASSIGNMENTS    3  3  3  4  4  4  4  4  4  4  4  4  4  4  4  4  4  4  4  4
CENTRE ASSIGNMENTS    4  4  4  4  4  4  4  4  4  4  4  4  4  4  4  4  4  4  4  4
CENTRE ASSIGNMENTS    4  4  4  4  4  4  4  4  4  4  4  4  4  4  4  4  4  4  4  4
CENTRE ASSIGNMENTS    4  4  4  4  4  4  4  4  4  4  4  4  4  4  4  4  4  4  4  4
CENTRE ASSIGNMENTS    4  4  4  4  4  4  4  4  4  4  4  4  4  4  4  4  4  4  4  4
CENTRE ASSIGNMENTS    4  4  4  4  4  4  4  4  4  4  4  4  4  4  4  4  4  4  4  4
CENTRE ASSIGNMENTS    4  4  4  4  4  4  4  4  4  4  4  4  4  4  4  4  4  4  4  4
CENTRE ASSIGNMENTS    4  4  4  4  4  4  4  4  4  4  4  4  4  4  4  4  4  4  4  4
CENTRE ASSIGNMENTS    4  4  4  4  4  4  4  4  4  4  4  4  4  4  4  4  4  4  4  4
CENTRE ASSIGNMENTS    4  4  4  4  4  4  4  4  4  4  4  4  4  4  4  4  4  4  4  4
CENTRE ASSIGNMENTS    4  4  4  4  4  4  4  4  4  4  4  4  4  4  4  4  4  4  4  4
TYPE ASSIGNMENTS      1  1  1  1  1  1  1  1  1  1  1  1  1  1  1  1  2  2  2  3
TYPE ASSIGNMENTS      3  3  4  4  4  2  3  4  2  3  4  2  3  4  5  6  7  8  9 10
TYPE ASSIGNMENTS      5  6  7  8  9 10  5  6  7  8  9 10 11 12 13 17 14 15 18 19
TYPE ASSIGNMENTS     16 20 11 12 13 17 14 15 18 19 16 20  1  1  1  1  1  1  1  1
TYPE ASSIGNMENTS      1  1  1  1  1  1  1  1  1  1  1  1  1  1  1  1  1  1  1  1
TYPE ASSIGNMENTS      1  1  1  2  2  2  2  2  2  3  3  3  3  3  3  4  4  4  4  4
TYPE ASSIGNMENTS      4  2  2  2  2  2  2  3  3  3  3  3  3  4  4  4  4  4  4  2
TYPE ASSIGNMENTS      3  4  2  3  4  2  3  4  5  6  7  8  9 10  5  6  7  8  9 10
TYPE ASSIGNMENTS      5  6  7  8  9 10 11 12 13 17 14 15 18 19 16 20 11 12 13 17
TYPE ASSIGNMENTS     14 15 18 19 16 20  1  1  1  1  1  1  1  1  1  1  1  1  1  1
TYPE ASSIGNMENTS      1  1  1  1  1  1  1  1  1  1  1  1  1  1  1  1  1  1  1  1
TYPE ASSIGNMENTS      1  1  1  1  1  1  1  1  1  1  1  1  1  1  1  1  2  2  2  2
TYPE ASSIGNMENTS      2  2  2  2  2  3  3  3  3  3  3  3  3  3  4  4  4  4  4  4
TYPE ASSIGNMENTS      4  4  4  2  2  2  2  2  2  2  2  2  3  3  3  3  3  3  3  3
TYPE ASSIGNMENTS      3  4  4  4  4  4  4  4  4  4  2  2  2  2  2  2  2  2  3  3
TYPE ASSIGNMENTS      3  3  3  3  3  3  4  4  4  4  4  4  4  4  2  3  4  2  3  4
TYPE ASSIGNMENTS      2  3  4  5  5  5  5  5  5  5  6  6  6  6  6  6  6  7  7  7
TYPE ASSIGNMENTS      7  7  7  7  8  8  8  8  8  8  8  9  9  9  9  9  9  9 10 10
TYPE ASSIGNMENTS     10 10 10 10 10  5  6  7  8  9 10  5  6  7  8  9 10  5  6  7
TYPE ASSIGNMENTS      8  9 10 11 12 13 17 14 15 18 19 16 20 11 12 13 17 14 15 18
TYPE ASSIGNMENTS     19 16 20  1  1  1  1  1  1  1  1  1  1  1  1  1  1  1  1  1
TYPE ASSIGNMENTS      1  1  1  1  1  1  1  1  1  1  1  1  1  1  1  1  1  1  1  1
TYPE ASSIGNMENTS      1  1  1  1  1  1  1  1  1  1  1  1  1  2  2  2  2  2  2  2
TYPE ASSIGNMENTS      2  2  3  3  3  3  3  3  3  3  3  4  4  4  4  4  4  4  4  4
TYPE ASSIGNMENTS      2  2  2  2  2  2  2  2  2  3  3  3  3  3  3  3  3  3  4  4
TYPE ASSIGNMENTS      4  4  4  4  4  4  4  2  2  2  2  2  2  2  2  3  3  3  3  3
TYPE ASSIGNMENTS      3  3  3  4  4  4  4  4  4  4  4  2  3  4  2  3  4  2  3  4
TYPE ASSIGNMENTS      5  5  5  5  5  5  5  6  6  6  6  6  6  6  7  7  7  7  7  7
TYPE ASSIGNMENTS      7  8  8  8  8  8  8  8  9  9  9  9  9  9  9 10 10 10 10 10
TYPE ASSIGNMENTS     10 10  5  6  7  8  9 10  5  6  7  8  9 10  5  6  7  8  9 10
TYPE ASSIGNMENTS     11 12 13 17 14 15 18 19 16 20 11 12 13 17 14 15 18 19 16 20
EXPONENTS  0.8236000D+04 0.1235000D+04 0.2808000D+03 0.7927000D+02 0.2559000D+02
EXPONENTS  0.8997000D+01 0.3319000D+01 0.2808000D+03 0.7927000D+02 0.2559000D+02
EXPONENTS  0.8997000D+01 0.3319000D+01 0.3643000D+00 0.9059000D+00 0.1285000D+00
EXPONENTS  0.4402000D-01 0.1871000D+02 0.4133000D+01 0.1200000D+01 0.1871000D+02
EXPONENTS  0.4133000D+01 0.1200000D+01 0.1871000D+02 0.4133000D+01 0.1200000D+01
EXPONENTS  0.3827000D+00 0.3827000D+00 0.3827000D+00 0.1209000D+00 0.1209000D+00
EXPONENTS  0.1209000D+00 0.3569000D-01 0.3569000D-01 0.3569000D-01 0.1097000D+01
EXPONENTS  0.1097000D+01 0.1097000D+01 0.1097000D+01 0.1097000D+01 0.1097000D+01
EXPONENTS  0.3180000D+00 0.3180000D+00 0.3180000D+00 0.3180000D+00 0.3180000D+00
EXPONENTS  0.3180000D+00 0.1000000D+00 0.1000000D+00 0.1000000D+00 0.1000000D+00
EXPONENTS  0.1000000D+00 0.1000000D+00 0.7610000D+00 0.7610000D+00 0.7610000D+00
EXPONENTS  0.7610000D+00 0.7610000D+00 0.7610000D+00 0.7610000D+00 0.7610000D+00
EXPONENTS  0.7610000D+00 0.7610000D+00 0.2680000D+00 0.2680000D+00 0.2680000D+00
EXPONENTS  0.2680000D+00 0.2680000D+00 0.2680000D+00 0.2680000D+00 0.2680000D+00
EXPONENTS  0.2680000D+00 0.2680000D+00 0.3741000D+06 0.5605000D+05 0.1276000D+05
EXPONENTS  0.3615000D+04 0.1183000D+04 0.4288000D+03 0.1678000D+03 0.6947000D+02
EXPONENTS  0.2984000D+02 0.1272000D+02 0.5244000D+01 0.3615000D+04 0.1183000D+04
EXPONENTS  0.4288000D+03 0.1678000D+03 0.6947000D+02 0.2984000D+02 0.1272000D+02
EXPONENTS  0.5244000D+01 0.2219000D+01 0.1183000D+04 0.1678000D+03 0.6947000D+02
EXPONENTS  0.2984000D+02 0.1272000D+02 0.5244000D+01 0.2219000D+01 0.3490000D+00
EXPONENTS  0.7767000D+00 0.1322000D+00 0.4970000D-01 0.5744000D+03 0.1358000D+03
EXPONENTS  0.4319000D+02 0.1587000D+02 0.6208000D+01 0.2483000D+01 0.5744000D+03
EXPONENTS  0.1358000D+03 0.4319000D+02 0.1587000D+02 0.6208000D+01 0.2483000D+01
EXPONENTS  0.5744000D+03 0.1358000D+03 0.4319000D+02 0.1587000D+02 0.6208000D+01
EXPONENTS  0.2483000D+01 0.1358000D+03 0.4319000D+02 0.1587000D+02 0.6208000D+01
EXPONENTS  0.2483000D+01 0.3229000D+00 0.1358000D+03 0.4319000D+02 0.1587000D+02
EXPONENTS  0.6208000D+01 0.2483000D+01 0.3229000D+00 0.1358000D+03 0.4319000D+02
EXPONENTS  0.1587000D+02 0.6208000D+01 0.2483000D+01 0.3229000D+00 0.8688000D+00
EXPONENTS  0.8688000D+00 0.8688000D+00 0.1098000D+00 0.1098000D+00 0.1098000D+00
EXPONENTS  0.3510000D-01 0.3510000D-01 0.3510000D-01 0.2690000D+00 0.2690000D+00
EXPONENTS  0.2690000D+00 0.2690000D+00 0.2690000D+00 0.2690000D+00 0.8190000D+00
EXPONENTS  0.8190000D+00 0.8190000D+00 0.8190000D+00 0.8190000D+00 0.8190000D+00
EXPONENTS  0.1010000D+00 0.1010000D+00 0.1010000D+00 0.1010000D+00 0.1010000D+00
EXPONENTS  0.1010000D+00 0.5570000D+00 0.5570000D+00 0.5570000D+00 0.5570000D+00
EXPONENTS  0.5570000D+00 0.5570000D+00 0.5570000D+00 0.5570000D+00 0.5570000D+00
EXPONENTS  0.5570000D+00 0.2180000D+00 0.2180000D+00 0.2180000D+00 0.2180000D+00
EXPONENTS  0.2180000D+00 0.2180000D+00 0.2180000D+00 0.2180000D+00 0.2180000D+00
EXPONENTS  0.2180000D+00 0.1063900D+08 0.1593400D+07 0.3626100D+06 0.1027000D+06
EXPONENTS  0.3350100D+05 0.1209300D+05 0.4715900D+04 0.1955600D+04 0.8526100D+03
EXPONENTS  0.3876700D+03 0.1826800D+03 0.8824500D+02 0.3926300D+02 0.9405700D+01
EXPONENTS  0.1899500D+01 0.3350100D+05 0.1209300D+05 0.4715900D+04 0.1955600D+04
EXPONENTS  0.8526100D+03 0.3876700D+03 0.1826800D+03 0.8824500D+02 0.3926300D+02
EXPONENTS  0.1923400D+02 0.9405700D+01 0.1899500D+01 0.4715900D+04 0.8526100D+03
EXPONENTS  0.3876700D+03 0.1826800D+03 0.8824500D+02 0.3926300D+02 0.1923400D+02
EXPONENTS  0.9405700D+01 0.4160100D+01 0.1899500D+01 0.4715900D+04 0.8526100D+03
EXPONENTS  0.3876700D+03 0.8824500D+02 0.3926300D+02 0.1923400D+02 0.9405700D+01
EXPONENTS  0.4160100D+01 0.1899500D+01 0.3011400D+00 0.6047200D+00 0.1251500D+00
EXPONENTS  0.4559300D-01 0.8676500D+04 0.2055900D+04 0.6662300D+03 0.2531000D+03
EXPONENTS  0.1061200D+03 0.4724200D+02 0.2182500D+02 0.9968400D+01 0.1998200D+01
EXPONENTS  0.8676500D+04 0.2055900D+04 0.6662300D+03 0.2531000D+03 0.1061200D+03
EXPONENTS  0.4724200D+02 0.2182500D+02 0.9968400D+01 0.1998200D+01 0.8676500D+04
EXPONENTS  0.2055900D+04 0.6662300D+03 0.2531000D+03 0.1061200D+03 0.4724200D+02
EXPONENTS  0.2182500D+02 0.9968400D+01 0.1998200D+01 0.8676500D+04 0.6662300D+03
EXPONENTS  0.2531000D+03 0.1061200D+03 0.4724200D+02 0.2182500D+02 0.9968400D+01
EXPONENTS  0.4517100D+01 0.1998200D+01 0.8676500D+04 0.6662300D+03 0.2531000D+03
EXPONENTS  0.1061200D+03 0.4724200D+02 0.2182500D+02 0.9968400D+01 0.4517100D+01
EXPONENTS  0.1998200D+01 0.8676500D+04 0.6662300D+03 0.2531000D+03 0.1061200D+03
EXPONENTS  0.4724200D+02 0.2182500D+02 0.9968400D+01 0.4517100D+01 0.1998200D+01
EXPONENTS  0.6662300D+03 0.1061200D+03 0.4724200D+02 0.2182500D+02 0.9968400D+01
EXPONENTS  0.4517100D+01 0.1998200D+01 0.2814500D+00 0.6662300D+03 0.1061200D+03
EXPONENTS  0.4724200D+02 0.2182500D+02 0.9968400D+01 0.4517100D+01 0.1998200D+01
EXPONENTS  0.2814500D+00 0.6662300D+03 0.1061200D+03 0.4724200D+02 0.2182500D+02
EXPONENTS  0.9968400D+01 0.4517100D+01 0.1998200D+01 0.2814500D+00 0.7098800D+00
EXPONENTS  0.7098800D+00 0.7098800D+00 0.1020400D+00 0.1020400D+00 0.1020400D+00
EXPONENTS  0.3514200D-01 0.3514200D-01 0.3514200D-01 0.4038300D+03 0.1211700D+03
EXPONENTS  0.4634500D+02 0.1972100D+02 0.8862400D+01 0.3996200D+01 0.1763600D+01
EXPONENTS  0.4038300D+03 0.1211700D+03 0.4634500D+02 0.1972100D+02 0.8862400D+01
EXPONENTS  0.3996200D+01 0.1763600D+01 0.4038300D+03 0.1211700D+03 0.4634500D+02
EXPONENTS  0.1972100D+02 0.8862400D+01 0.3996200D+01 0.1763600D+01 0.4038300D+03
EXPONENTS  0.1211700D+03 0.4634500D+02 0.1972100D+02 0.8862400D+01 0.3996200D+01
EXPONENTS  0.1763600D+01 0.4038300D+03 0.1211700D+03 0.4634500D+02 0.1972100D+02
EXPONENTS  0.8862400D+01 0.3996200D+01 0.1763600D+01 0.4038300D+03 0.1211700D+03
EXPONENTS  0.4634500D+02 0.1972100D+02 0.8862400D+01 0.3996200D+01 0.1763600D+01
EXPONENTS  0.7061900D+00 0.7061900D+00 0.7061900D+00 0.7061900D+00 0.7061900D+00
EXPONENTS  0.7061900D+00 0.2639000D+00 0.2639000D+00 0.2639000D+00 0.2639000D+00
EXPONENTS  0.2639000D+00 0.2639000D+00 0.1047000D+00 0.1047000D+00 0.1047000D+00
EXPONENTS  0.1047000D+00 0.1047000D+00 0.1047000D+00 0.5515000D+00 0.5515000D+00
EXPONENTS  0.5515000D+00 0.5515000D+00 0.5515000D+00 0.5515000D+00 0.5515000D+00
EXPONENTS  0.5515000D+00 0.5515000D+00 0.5515000D+00 0.2580000D+00 0.2580000D+00
EXPONENTS  0.2580000D+00 0.2580000D+00 0.2580000D+00 0.2580000D+00 0.2580000D+00
EXPONENTS  0.2580000D+00 0.2580000D+00 0.2580000D+00 0.1063900D+08 0.1593400D+07
EXPONENTS  0.3626100D+06 0.1027000D+06 0.3350100D+05 0.1209300D+05 0.4715900D+04
EXPONENTS  0.1955600D+04 0.8526100D+03 0.3876700D+03 0.1826800D+03 0.8824500D+02
EXPONENTS  0.3926300D+02 0.9405700D+01 0.1899500D+01 0.3350100D+05 0.1209300D+05
EXPONENTS  0.4715900D+04 0.1955600D+04 0.8526100D+03 0.3876700D+03 0.1826800D+03
EXPONENTS  0.8824500D+02 0.3926300D+02 0.1923400D+02 0.9405700D+01 0.1899500D+01
EXPONENTS  0.4715900D+04 0.8526100D+03 0.3876700D+03 0.1826800D+03 0.8824500D+02
EXPONENTS  0.3926300D+02 0.1923400D+02 0.9405700D+01 0.4160100D+01 0.1899500D+01
EXPONENTS  0.4715900D+04 0.8526100D+03 0.3876700D+03 0.8824500D+02 0.3926300D+02
EXPONENTS  0.1923400D+02 0.9405700D+01 0.4160100D+01 0.1899500D+01 0.3011400D+00
EXPONENTS  0.6047200D+00 0.1251500D+00 0.4559300D-01 0.8676500D+04 0.2055900D+04
EXPONENTS  0.6662300D+03 0.2531000D+03 0.1061200D+03 0.4724200D+02 0.2182500D+02
EXPONENTS  0.9968400D+01 0.1998200D+01 0.8676500D+04 0.2055900D+04 0.6662300D+03
EXPONENTS  0.2531000D+03 0.1061200D+03 0.4724200D+02 0.2182500D+02 0.9968400D+01
EXPONENTS  0.1998200D+01 0.8676500D+04 0.2055900D+04 0.6662300D+03 0.2531000D+03
EXPONENTS  0.1061200D+03 0.4724200D+02 0.2182500D+02 0.9968400D+01 0.1998200D+01
EXPONENTS  0.8676500D+04 0.6662300D+03 0.2531000D+03 0.1061200D+03 0.4724200D+02
EXPONENTS  0.2182500D+02 0.9968400D+01 0.4517100D+01 0.1998200D+01 0.8676500D+04
EXPONENTS  0.6662300D+03 0.2531000D+03 0.1061200D+03 0.4724200D+02 0.2182500D+02
EXPONENTS  0.9968400D+01 0.4517100D+01 0.1998200D+01 0.8676500D+04 0.6662300D+03
EXPONENTS  0.2531000D+03 0.1061200D+03 0.4724200D+02 0.2182500D+02 0.9968400D+01
EXPONENTS  0.4517100D+01 0.1998200D+01 0.6662300D+03 0.1061200D+03 0.4724200D+02
EXPONENTS  0.2182500D+02 0.9968400D+01 0.4517100D+01 0.1998200D+01 0.2814500D+00
EXPONENTS  0.6662300D+03 0.1061200D+03 0.4724200D+02 0.2182500D+02 0.9968400D+01
EXPONENTS  0.4517100D+01 0.1998200D+01 0.2814500D+00 0.6662300D+03 0.1061200D+03
EXPONENTS  0.4724200D+02 0.2182500D+02 0.9968400D+01 0.4517100D+01 0.1998200D+01
EXPONENTS  0.2814500D+00 0.7098800D+00 0.7098800D+00 0.7098800D+00 0.1020400D+00
EXPONENTS  0.1020400D+00 0.1020400D+00 0.3514200D-01 0.3514200D-01 0.3514200D-01
EXPONENTS  0.4038300D+03 0.1211700D+03 0.4634500D+02 0.1972100D+02 0.8862400D+01
EXPONENTS  0.3996200D+01 0.1763600D+01 0.4038300D+03 0.1211700D+03 0.4634500D+02
EXPONENTS  0.1972100D+02 0.8862400D+01 0.3996200D+01 0.1763600D+01 0.4038300D+03
EXPONENTS  0.1211700D+03 0.4634500D+02 0.1972100D+02 0.8862400D+01 0.3996200D+01
EXPONENTS  0.1763600D+01 0.4038300D+03 0.1211700D+03 0.4634500D+02 0.1972100D+02
EXPONENTS  0.8862400D+01 0.3996200D+01 0.1763600D+01 0.4038300D+03 0.1211700D+03
EXPONENTS  0.4634500D+02 0.1972100D+02 0.8862400D+01 0.3996200D+01 0.1763600D+01
EXPONENTS  0.4038300D+03 0.1211700D+03 0.4634500D+02 0.1972100D+02 0.8862400D+01
EXPONENTS  0.3996200D+01 0.1763600D+01 0.7061900D+00 0.7061900D+00 0.7061900D+00
EXPONENTS  0.7061900D+00 0.7061900D+00 0.7061900D+00 0.2639000D+00 0.2639000D+00
EXPONENTS  0.2639000D+00 0.2639000D+00 0.2639000D+00 0.2639000D+00 0.1047000D+00
EXPONENTS  0.1047000D+00 0.1047000D+00 0.1047000D+00 0.1047000D+00 0.1047000D+00
EXPONENTS  0.5515000D+00 0.5515000D+00 0.5515000D+00 0.5515000D+00 0.5515000D+00
EXPONENTS  0.5515000D+00 0.5515000D+00 0.5515000D+00 0.5515000D+00 0.5515000D+00
EXPONENTS  0.2580000D+00 0.2580000D+00 0.2580000D+00 0.2580000D+00 0.2580000D+00
EXPONENTS  0.2580000D+00 0.2580000D+00 0.2580000D+00 0.2580000D+00 0.2580000D+00
MO    1     MO 0.0        OCC NO =    2.0000283  ORB. ENERGY =    0.000000
 -0.10270591D-10 -0.19146450D-10 -0.32360110D-10 -0.48643280D-10 -0.59749557D-10
 -0.50426518D-10 -0.18961688D-10 -0.26430558D-15 -0.19755205D-14 -0.73829710D-14
 -0.20597339D-13 -0.27594756D-13  0.32584262D-13 -0.88721508D-12  0.27073035D-12
  0.81722512D-13  0.14120136D-12  0.13238525D-12  0.94266186D-13 -0.26173315D-02
 -0.24539146D-02 -0.17473334D-02  0.13405508D-13  0.12568516D-13  0.89495318D-14
  0.78932422D-14 -0.55117188D-03  0.28514783D-13 -0.58224739D-14  0.12873812D-02
  0.19663749D-12  0.13229793D-14  0.80516768D-04  0.66169748D-14  0.61462327D-13
 -0.18016830D-14 -0.59660644D-13  0.74401431D-05  0.54058574D-13 -0.11882332D-02
 -0.21714619D-13 -0.55648958D-15  0.22271109D-13 -0.16385572D-05 -0.14416426D-13
  0.15304035D-05 -0.27514615D-14 -0.18421759D-13  0.21173220D-13  0.17717201D-06
  0.88855766D-14 -0.32132728D-03 -0.73891352D-14  0.11230725D-03 -0.18893536D-13
  0.40513369D-14  0.27509419D-03  0.34720511D-13  0.18116069D-13 -0.61201595D-03
  0.21960097D-13  0.96144481D-05  0.44672285D-14 -0.68581049D-04  0.83633913D-14
 -0.98747104D-15 -0.13797162D-03 -0.68809535D-14 -0.12414215D-13  0.34371477D-03
 -0.18209220D-13 -0.51833834D-05 -0.65914931D-10 -0.12323460D-09 -0.21298602D-09
 -0.34449611D-09 -0.52069434D-09 -0.71710392D-09 -0.83820716D-09 -0.72443530D-09
 -0.33809773D-09 -0.45804823D-10  0.33502308D-12 -0.27757753D-12 -0.35682312D-11
 -0.13016394D-10 -0.43916992D-10 -0.96461421D-10 -0.12460184D-09  0.20024577D-10
  0.16798240D-09  0.92186572D-10 -0.17520707D-14 -0.19957175D-13 -0.41438290D-13
 -0.11394477D-12  0.14774248D-13  0.51520637D-12  0.12850065D-11 -0.10637098D-11
  0.53394532D-11 -0.49664989D-12 -0.11842740D-12 -0.57872702D-09 -0.75925694D-09
 -0.83274055D-09 -0.68515384D-09 -0.36117415D-09 -0.93970719D-10  0.97045522D+01
  0.12731821D+02  0.13964052D+02  0.11489201D+02  0.60564535D+01  0.15757753D+01
  0.48944393D-11  0.64212260D-11  0.70426952D-11  0.57945175D-11  0.30545401D-11
  0.79473389D-12 -0.34588550D-14 -0.12415778D-12 -0.19697944D-12 -0.23390704D-12
 -0.35396300D-13  0.25760764D-12  0.88550601D-04  0.31785797D-02  0.50428964D-02
  0.59882848D-02  0.90618532D-03 -0.65950470D-02 -0.91981841D-16 -0.33017462D-14
 -0.52383031D-14 -0.62203243D-14 -0.94129902D-15  0.68505979D-14 -0.44097699D-11
  0.67296037D-01 -0.34047790D-12 -0.13963698D-13 -0.32095555D-03  0.10209404D-12
  0.24757224D-15 -0.28033824D-04  0.38674315D-14  0.74213880D-14  0.24755017D-13
 -0.32176405D-13 -0.46722394D-05 -0.31503889D-13  0.76803038D-03  0.15686318D-13
 -0.86675348D-13  0.70989030D-13  0.42186354D-05  0.21548755D-13 -0.72860761D-03
  0.21024993D-14  0.42526643D-14 -0.63551636D-14  0.57630813D-06  0.45710794D-14
 -0.41368902D-04 -0.64691688D-14  0.35474153D-05 -0.37807350D-14  0.46340037D-14
  0.13847584D-03 -0.10547936D-14  0.14773503D-13 -0.14911808D-03  0.12396999D-13
  0.46672573D-05 -0.68482902D-16  0.32000587D-04  0.22095014D-14 -0.13336076D-14
  0.28390023D-05 -0.92742399D-16  0.15390563D-14 -0.98840763D-04 -0.65357619D-14
  0.87329849D-06  0.36938655D-03  0.69487174D-03  0.12028585D-02  0.19717160D-02
  0.30887232D-02  0.46426022D-02  0.66353700D-02  0.88084393D-02  0.10258064D-01
  0.94208449D-02  0.55071024D-02  0.14450316D-02  0.82158071D-04  0.14335700D-05
  0.14430513D-06  0.18588383D-04  0.53697554D-04  0.24610851D-03  0.72853478D-03
  0.21127721D-02  0.43915919D-02  0.62822243D-02  0.18013144D-02 -0.71982935D-02
 -0.69600534D-02 -0.15191380D-02  0.21989064D-04  0.12200149D-04  0.56916219D-04
  0.11550724D-03  0.45269298D-03  0.31766538D-03 -0.20687572D-02 -0.64103683D-02
 -0.78413160D-03  0.56036348D-02  0.26297856D-02 -0.96428641D-06 -0.13219601D-05
  0.25345174D-05  0.53866828D-05 -0.20363168D-04 -0.65849313D-04 -0.22901389D-04
  0.22400053D-03  0.49963730D-03 -0.33154411D-03 -0.56647365D-04  0.15390760D-02
  0.47883919D-03 -0.20092566D-03 -0.28829834D-03 -0.38173364D-03 -0.44083591D-03
 -0.40873803D-03 -0.26469326D-03 -0.93399453D-04 -0.10761845D-04  0.17581549D-07
  0.11929318D+01  0.17116790D+01  0.22664212D+01  0.26173220D+01  0.24267511D+01
  0.15715314D+01  0.55452933D+00  0.63895010D-01 -0.10438482D-03  0.10397638D+01
  0.14919059D+01  0.19754213D+01  0.22812677D+01  0.21151654D+01  0.13697527D+01
  0.48332986D+00  0.55691131D-01 -0.90982199D-04  0.17880697D-05 -0.50981053D-05
 -0.24884507D-04 -0.51565431D-04 -0.64709527D-04 -0.10261767D-04  0.83065537D-04
  0.72445192D-04  0.18623115D-04 -0.72371801D-02  0.20634490D-01  0.10071960D+00
  0.20871016D+00  0.26191065D+00  0.41534318D-01 -0.33620627D+00 -0.29322062D+00
 -0.75376723D-01 -0.64249424D-02  0.18318655D-01  0.89415713D-01  0.18528636D+00
  0.23251609D+00  0.36872871D-01 -0.29847343D+00 -0.26031210D+00 -0.66917100D-01
 -0.78435956D-06 -0.11080953D-05  0.51559093D-06 -0.10332491D-05 -0.11342762D-05
 -0.30617671D-05 -0.96484370D-06  0.20715399D-05 -0.73469634D-04 -0.10379341D-03
  0.48294531D-04 -0.96782696D-04 -0.10624574D-03 -0.28679055D-03 -0.90375279D-04
  0.19403764D-03  0.57993670D-04  0.81929912D-04 -0.38121560D-04  0.76395966D-04
  0.83865671D-04  0.22637973D-03  0.71338235D-04 -0.15316471D-03  0.43056214D-06
 -0.31192341D-02 -0.28954643D-02  0.26873639D-06  0.38455325D-03  0.16655456D-03
  0.26797989D-07  0.14775805D-04  0.12340115D-04  0.14805619D+00  0.15492485D+00
  0.13200426D+00  0.86934786D-01  0.40065654D-01  0.11997725D-01  0.20413112D-02
 -0.14934094D+00 -0.15626920D+00 -0.13314972D+00 -0.87689158D-01 -0.40413322D-01
 -0.12101835D-01 -0.20590246D-02  0.12847499D-02  0.13443523D-02  0.11454601D-02
  0.75437209D-03  0.34766764D-03  0.10410964D-03  0.17713372D-04  0.14857537D-03
  0.15546812D-03  0.13246716D-03  0.87239638D-04  0.40206152D-04  0.12039797D-04
  0.20484694D-05 -0.82172647D-04 -0.85984821D-04 -0.73263669D-04 -0.48249665D-04
 -0.22236834D-04 -0.66588560D-05 -0.11329479D-05 -0.47833821D+00 -0.50052940D+00
 -0.42647783D+00 -0.28086790D+00 -0.12944365D+00 -0.38762111D-01 -0.65950445D-02
  0.65194205D-04 -0.11686813D-03  0.51673922D-04 -0.58886519D-06 -0.75918848D-06
 -0.35259700D-03 -0.54738090D-04  0.57007489D-04 -0.22693990D-05  0.11756675D-05
 -0.73718380D-07  0.93790300D-04 -0.15693651D-04  0.18609913D-04 -0.29162625D-05
  0.34693370D-07 -0.74580599D-07  0.63875925D-04  0.71028010D-07  0.27893103D-04
  0.31889254D-04  0.14049608D-06 -0.51885292D-04 -0.39845451D-04 -0.35358011D-06
 -0.31794016D-04 -0.55822311D-04 -0.48845759D-06 -0.36122600D-07 -0.17057449D-05
 -0.13811862D-05  0.44196499D-06  0.12490046D-04  0.22897004D-05 -0.33359719D-06
 -0.73728116D-05  0.18538582D-05  0.28879875D-06 -0.36938660D-03 -0.69487183D-03
 -0.12028586D-02 -0.19717162D-02 -0.30887236D-02 -0.46426028D-02 -0.66353709D-02
 -0.88084404D-02 -0.10258065D-01 -0.94208461D-02 -0.55071031D-02 -0.14450317D-02
 -0.82158081D-04 -0.14335702D-05 -0.14430515D-06 -0.18588382D-04 -0.53697553D-04
 -0.24610850D-03 -0.72853476D-03 -0.21127720D-02 -0.43915917D-02 -0.62822242D-02
 -0.18013143D-02  0.71982933D-02  0.69600532D-02  0.15191380D-02 -0.21989063D-04
 -0.12200149D-04 -0.56916220D-04 -0.11550724D-03 -0.45269298D-03 -0.31766538D-03
  0.20687572D-02  0.64103684D-02  0.78413161D-03 -0.56036348D-02 -0.26297856D-02
  0.96428641D-06  0.13219601D-05 -0.25345174D-05 -0.53866828D-05  0.20363168D-04
  0.65849313D-04  0.22901389D-04 -0.22400053D-03 -0.49963730D-03  0.33154411D-03
  0.56647365D-04 -0.15390760D-02 -0.47883919D-03  0.20092799D-03  0.28830167D-03
  0.38173805D-03  0.44084101D-03  0.40874275D-03  0.26469632D-03  0.93400533D-04
  0.10761970D-04 -0.17581753D-07  0.11929318D+01  0.17116790D+01  0.22664212D+01
  0.26173220D+01  0.24267511D+01  0.15715314D+01  0.55452933D+00  0.63895010D-01
 -0.10438482D-03 -0.10397638D+01 -0.14919059D+01 -0.19754213D+01 -0.22812677D+01
 -0.21151654D+01 -0.13697527D+01 -0.48332986D+00 -0.55691131D-01  0.90982199D-04
 -0.17880779D-05  0.50981285D-05  0.24884621D-04  0.51565666D-04  0.64709822D-04
  0.10261814D-04 -0.83065916D-04 -0.72445522D-04 -0.18623200D-04 -0.72371801D-02
  0.20634490D-01  0.10071960D+00  0.20871016D+00  0.26191065D+00  0.41534318D-01
 -0.33620627D+00 -0.29322062D+00 -0.75376723D-01  0.64249424D-02 -0.18318655D-01
 -0.89415713D-01 -0.18528636D+00 -0.23251609D+00 -0.36872871D-01  0.29847343D+00
  0.26031210D+00  0.66917100D-01  0.78435958D-06  0.11080953D-05 -0.51559094D-06
  0.10332491D-05  0.11342763D-05  0.30617671D-05  0.96484372D-06 -0.20715400D-05
 -0.73469634D-04 -0.10379341D-03  0.48294531D-04 -0.96782696D-04 -0.10624574D-03
 -0.28679055D-03 -0.90375279D-04  0.19403764D-03 -0.57993670D-04 -0.81929912D-04
  0.38121560D-04 -0.76395966D-04 -0.83865671D-04 -0.22637973D-03 -0.71338235D-04
  0.15316471D-03 -0.43056500D-06 -0.31192341D-02  0.28954643D-02 -0.26873641D-06
  0.38455325D-03 -0.16655456D-03 -0.26797990D-07  0.14775805D-04 -0.12340115D-04
 -0.14805619D+00 -0.15492485D+00 -0.13200426D+00 -0.86934786D-01 -0.40065654D-01
 -0.11997725D-01 -0.20413112D-02  0.14934094D+00  0.15626920D+00  0.13314972D+00
  0.87689158D-01  0.40413322D-01  0.12101835D-01  0.20590246D-02 -0.12847499D-02
 -0.13443523D-02 -0.11454601D-02 -0.75437210D-03 -0.34766764D-03 -0.10410964D-03
 -0.17713372D-04  0.14857532D-03  0.15546806D-03  0.13246711D-03  0.87239605D-04
  0.40206137D-04  0.12039793D-04  0.20484687D-05  0.82172536D-04  0.85984705D-04
  0.73263571D-04  0.48249600D-04  0.22236804D-04  0.66588470D-05  0.11329464D-05
 -0.47833821D+00 -0.50052940D+00 -0.42647783D+00 -0.28086790D+00 -0.12944365D+00
 -0.38762111D-01 -0.65950445D-02 -0.65194204D-04  0.11686813D-03 -0.51673922D-04
 -0.58886521D-06  0.75918840D-06 -0.35259700D-03  0.54738090D-04 -0.57007489D-04
  0.22693990D-05  0.11756675D-05  0.73718385D-07  0.93790300D-04  0.15693651D-04
 -0.18609913D-04  0.29162625D-05  0.34693364D-07  0.74580602D-07  0.63875925D-04
 -0.71028002D-07  0.27893103D-04 -0.31889254D-04 -0.14049610D-06 -0.51885292D-04
  0.39845451D-04  0.35358011D-06 -0.31794016D-04  0.55822310D-04 -0.48845755D-06
  0.36122597D-07 -0.17057449D-05  0.13811862D-05 -0.44196498D-06  0.12490046D-04
 -0.22897004D-05  0.33359719D-06 -0.73728116D-05 -0.18538582D-05  0.28879874D-06
MO    2     MO 0.0        OCC NO =    2.0000240  ORB. ENERGY =    0.000000
 -0.58959044D-01 -0.10991154D+00 -0.18576547D+00 -0.27924015D+00 -0.34299651D+00
 -0.28947695D+00 -0.10885089D+00 -0.10358362D-04 -0.77422341D-04 -0.28934496D-03
 -0.80722740D-03 -0.10814622D-02  0.12770052D-02 -0.44804832D-02 -0.17439743D-02
 -0.31718272D-03 -0.16549388D-04 -0.15516103D-04 -0.11048390D-04 -0.94314480D-12
 -0.88425820D-12 -0.62964452D-12  0.22932662D-02  0.21500828D-02  0.15309870D-02
  0.97924355D-06 -0.35317265D-12 -0.21676338D-03  0.53327167D-05 -0.28350031D-12
 -0.96641790D-03  0.76157579D-07 -0.16151134D-13  0.10779404D-05  0.12463470D-03
  0.11497411D-04 -0.13613211D-03  0.46034310D-14  0.16586252D-05  0.29467130D-12
  0.11846977D-03  0.12834890D-03 -0.24681868D-03  0.13589363D-13  0.44010731D-05
  0.82581665D-13  0.23556878D-04  0.10022445D-03 -0.12378133D-03  0.86343043D-15
  0.16446107D-05  0.85430089D-13  0.69836068D-06 -0.16201151D-14 -0.97820995D-05
 -0.12683100D-05 -0.51723150D-13 -0.90583620D-04 -0.82677207D-06  0.56583495D-13
  0.11992992D-03  0.49670854D-14 -0.29771985D-06  0.65873476D-15  0.13243826D-04
  0.81355926D-06  0.21265935D-13  0.44748853D-04  0.79600302D-07 -0.23242139D-13
 -0.84480330D-04 -0.53815129D-14 -0.12703821D+00 -0.23751074D+00 -0.41048915D+00
 -0.66394928D+00 -0.10035371D+01 -0.13820784D+01 -0.16154813D+01 -0.13962082D+01
 -0.65161764D+00 -0.88279892D-01  0.64569185D-03 -0.15829962D-02 -0.20349257D-01
 -0.74231164D-01 -0.25045411D+00 -0.55010960D+00 -0.71059156D+00  0.11419811D+00
  0.95798640D+00  0.52573058D+00 -0.12725919D-04 -0.14495613D-03 -0.30098118D-03
 -0.82762179D-03  0.10731067D-03  0.37421289D-02  0.93334637D-02 -0.77261060D-02
  0.29340850D-01  0.18105146D-02  0.12891664D-03 -0.30665087D-01 -0.40230850D-01
 -0.44124535D-01 -0.36304338D-01 -0.19137583D-01 -0.49792391D-02 -0.81323194D-09
 -0.10669141D-08 -0.11701738D-08 -0.96278377D-09 -0.50752486D-09 -0.13204842D-09
  0.62308405D+01  0.81745084D+01  0.89656666D+01  0.73766804D+01  0.38885665D+01
  0.10117319D+01 -0.30194230D-06 -0.10838409D-04 -0.17195408D-04 -0.20419020D-04
 -0.30899359D-05  0.22487974D-04 -0.82569634D-14 -0.29638891D-12 -0.47022844D-12
 -0.55838184D-12 -0.84497891D-13  0.61495981D-12  0.57972461D-04  0.20809581D-02
  0.33014922D-02  0.39204207D-02  0.59326298D-03 -0.43176568D-02 -0.22973337D-03
 -0.55879545D-11  0.45892332D-01  0.49464727D-05  0.61203675D-14 -0.77414650D-03
 -0.13151149D-07  0.49856523D-14 -0.49994809D-05 -0.24702307D-03 -0.13338910D-03
  0.38041217D-03  0.14793932D-14 -0.77447225D-05 -0.52960672D-13  0.21034504D-03
 -0.39861942D-03  0.18827437D-03  0.16279014D-14 -0.75804315D-06  0.15566300D-12
 -0.54197388D-05 -0.30837212D-04  0.36256951D-04 -0.32034272D-15 -0.62942055D-06
  0.64000455D-14 -0.11740296D-05  0.55214368D-14 -0.74206848D-04 -0.77912527D-07
 -0.85551870D-14  0.20815873D-03  0.36000013D-05 -0.80091233D-14  0.14461810D-04
 -0.10897141D-14 -0.14652380D-06 -0.38319127D-14 -0.20802599D-04 -0.29254430D-06
 -0.67531672D-15  0.19376719D-04  0.73211569D-06  0.12171055D-13  0.43031080D-04
 -0.27747418D-15  0.58127676D-03  0.10934691D-02  0.18928509D-02  0.31027461D-02
  0.48604991D-02  0.73057256D-02  0.10441599D-01  0.13861200D-01  0.16142369D-01
  0.14824899D-01  0.86661267D-02  0.22739411D-02  0.12928618D-03  0.22559049D-05
  0.22708249D-06  0.27637472D-04  0.79838285D-04  0.36591762D-03  0.10831958D-02
  0.31412995D-02  0.65294811D-02  0.93405003D-02  0.26782198D-02 -0.10702525D-01
 -0.10348306D-01 -0.22586760D-02  0.32693652D-04  0.17526634D-04  0.81765371D-04
  0.16593675D-03  0.65033499D-03  0.45635546D-03 -0.29719595D-02 -0.92090822D-02
 -0.11264770D-02  0.80501355D-02  0.37779283D-02 -0.20723628D-06 -0.28410449D-06
  0.54469703D-06  0.11576603D-05 -0.43762798D-05 -0.14151777D-04 -0.49217729D-05
  0.48140299D-04  0.10737782D-03 -0.71252656D-04  0.82845026D-04 -0.29140125D-03
  0.76385253D-04 -0.16588109D-02 -0.23801460D-02 -0.31515333D-02 -0.36394724D-02
 -0.33744773D-02 -0.21852662D-02 -0.77109129D-03 -0.88848115D-04  0.14515052D-06
  0.25612126D+00  0.36749578D+00  0.48659837D+00  0.56193643D+00  0.52102104D+00
  0.33740623D+00  0.11905690D+00  0.13718195D-01 -0.22411316D-04  0.32134347D+00
  0.46107992D+00  0.61051242D+00  0.70503558D+00  0.65370094D+00  0.42332796D+00
  0.14937517D+00  0.17211583D-01 -0.28118439D-04  0.10877453D-04 -0.31013555D-04