 Entering Gaussian System, Link 0=/home/bruns/programas/chemistry/gaussian/g09/g09
 Input=GAUSSIAN.com
 Output=GAUSSIAN.log
 Initial command:
 /home/bruns/programas/chemistry/gaussian/g09/l1.exe /home/bruns/programas/chemistry/gaussian/work/Gau-10931.inp -scrdir=/home/bruns/programas/chemistry/gaussian/work/
 Entering Link 1 = /home/bruns/programas/chemistry/gaussian/g09/l1.exe PID=     10933.
  
 Copyright (c) 1988,1990,1992,1993,1995,1998,2003,2009,2010,
            Gaussian, Inc.  All Rights Reserved.
  
 This is part of the Gaussian(R) 09 program.  It is based on
 the Gaussian(R) 03 system (copyright 2003, Gaussian, Inc.),
 the Gaussian(R) 98 system (copyright 1998, Gaussian, Inc.),
 the Gaussian(R) 94 system (copyright 1995, Gaussian, Inc.),
 the Gaussian 92(TM) system (copyright 1992, Gaussian, Inc.),
 the Gaussian 90(TM) system (copyright 1990, Gaussian, Inc.),
 the Gaussian 88(TM) system (copyright 1988, Gaussian, Inc.),
 the Gaussian 86(TM) system (copyright 1986, Carnegie Mellon
 University), and the Gaussian 82(TM) system (copyright 1983,
 Carnegie Mellon University). Gaussian is a federally registered
 trademark of Gaussian, Inc.
  
 This software contains proprietary and confidential information,
 including trade secrets, belonging to Gaussian, Inc.
  
 This software is provided under written license and may be
 used, copied, transmitted, or stored only in accord with that
 written license.
  
 The following legend is applicable only to US Government
 contracts under FAR:
  
                    RESTRICTED RIGHTS LEGEND
  
 Use, reproduction and disclosure by the US Government is
 subject to restrictions as set forth in subparagraphs (a)
 and (c) of the Commercial Computer Software - Restricted
 Rights clause in FAR 52.227-19.
  
 Gaussian, Inc.
 340 Quinnipiac St., Bldg. 40, Wallingford CT 06492
  
  
 ---------------------------------------------------------------
 Warning -- This program may not be used in any manner that
 competes with the business of Gaussian, Inc. or will provide
 assistance to any competitor of Gaussian, Inc.  The licensee
 of this program is prohibited from giving any competitor of
 Gaussian, Inc. access to this program.  By using this program,
 the user acknowledges that Gaussian, Inc. is engaged in the
 business of creating and licensing software in the field of
 computational chemistry and represents and warrants to the
 licensee that it is not a competitor of Gaussian, Inc. and that
 it will not use this program in any manner prohibited above.
 ---------------------------------------------------------------
  

 Cite this work as:
 Gaussian 09, Revision B.01,
 M. J. Frisch, G. W. Trucks, H. B. Schlegel, G. E. Scuseria, 
 M. A. Robb, J. R. Cheeseman, G. Scalmani, V. Barone, B. Mennucci, 
 G. A. Petersson, H. Nakatsuji, M. Caricato, X. Li, H. P. Hratchian, 
 A. F. Izmaylov, J. Bloino, G. Zheng, J. L. Sonnenberg, M. Hada, 
 M. Ehara, K. Toyota, R. Fukuda, J. Hasegawa, M. Ishida, T. Nakajima, 
 Y. Honda, O. Kitao, H. Nakai, T. Vreven, J. A. Montgomery, Jr., 
 J. E. Peralta, F. Ogliaro, M. Bearpark, J. J. Heyd, E. Brothers, 
 K. N. Kudin, V. N. Staroverov, T. Keith, R. Kobayashi, J. Normand, 
 K. Raghavachari, A. Rendell, J. C. Burant, S. S. Iyengar, J. Tomasi, 
 M. Cossi, N. Rega, J. M. Millam, M. Klene, J. E. Knox, J. B. Cross, 
 V. Bakken, C. Adamo, J. Jaramillo, R. Gomperts, R. E. Stratmann, 
 O. Yazyev, A. J. Austin, R. Cammi, C. Pomelli, J. W. Ochterski, 
 R. L. Martin, K. Morokuma, V. G. Zakrzewski, G. A. Voth, 
 P. Salvador, J. J. Dannenberg, S. Dapprich, A. D. Daniels, 
 O. Farkas, J. B. Foresman, J. V. Ortiz, J. Cioslowski, 
 and D. J. Fox, Gaussian, Inc., Wallingford CT, 2010.
 
 ******************************************
 Gaussian 09:  EM64L-G09RevB.01 12-Aug-2010
                29-Nov-2021 
 ******************************************
 %nproc=8
 Will use up to    8 processors via shared memory.
 %mem=8GB
 -----------------------------------------------------
 # qcisd/aug-cc-pvtz nosymm density=current output=wfn
 -----------------------------------------------------
 1/30=1,38=1/1;
 2/12=2,15=1,17=6,18=5,40=1/2;
 3/5=16,6=1,7=10,11=9,16=1,25=1,30=1,71=1/1,2,3;
 4//1;
 5/5=2,38=5/2;
 8/6=4,9=120000,10=1/1,4;
 9/5=8,15=1/13;
 11/28=-7,31=1,32=3,42=3/11;
 10/5=6,13=10,31=1/2;
 6/7=2,8=2,9=2,10=2,22=-1,31=1/1;
 99/5=1,6=1100,9=1/99;
 ------------------
 br2cs-wavefunction
 ------------------
 Symbolic Z-matrix:
 Charge =  0 Multiplicity = 1
 C                     0.        0.       -0.51945 
 S                     0.        0.        1.07369 
 Br                    0.       -1.56852  -1.57857 
 Br                    0.        1.56852  -1.57857 
 
                          Input orientation:                          
 ---------------------------------------------------------------------
 Center     Atomic      Atomic             Coordinates (Angstroms)
 Number     Number       Type             X           Y           Z
 ---------------------------------------------------------------------
      1          6           0        0.000000    0.000000   -0.519451
      2         16           0        0.000000    0.000000    1.073692
      3         35           0        0.000000   -1.568516   -1.578570
      4         35           0        0.000000    1.568516   -1.578570
 ---------------------------------------------------------------------
                    Distance matrix (angstroms):
                    1          2          3          4
     1  C    0.000000
     2  S    1.593143   0.000000
     3  Br   1.892611   3.081353   0.000000
     4  Br   1.892611   3.081353   3.137032   0.000000
 Symmetry turned off by external request.
 Stoichiometry    CBr2S
 Framework group  C2V[C2(CS),SGV(Br2)]
 Deg. of freedom     3
 Full point group                 C2V     NOp   4
 Rotational constants (GHZ):      2.6424298      1.3014616      0.8719867
 Standard basis: Aug-CC-pVTZ (5D, 7F)
 Integral buffers will be    131072 words long.
 Raffenetti 1 integral format.
 Two-electron integral symmetry is turned off.
   214 basis functions,   620 primitive gaussians,   252 cartesian basis functions
    46 alpha electrons       46 beta electrons
       nuclear repulsion energy       548.3054370210 Hartrees.
 NAtoms=    4 NActive=    4 NUniq=    4 SFac= 1.00D+00 NAtFMM=   50 NAOKFM=F Big=F
 One-electron integrals computed using PRISM.
 NBasis=   214 RedAO= T  NBF=   214
 NBsUse=   214 1.00D-06 NBFU=   214
 Harris functional with IExCor=  205 diagonalized for initial guess.
 ExpMin= 3.51D-02 ExpMax= 1.06D+07 ExpMxC= 1.21D+04 IAcc=3 IRadAn=         0 AccDes= 0.00D+00
 HarFok:  IExCor=  205 AccDes= 0.00D+00 IRadAn=         0 IDoV= 1
 ScaDFX=  1.000000  1.000000  1.000000  1.000000
 FoFCou: FMM=F IPFlag=           0 FMFlag=      100000 FMFlg1=           0
         NFxFlg=           0 DoJE=T BraDBF=F KetDBF=T FulRan=T
         Omega=  0.000000  0.000000  1.000000  0.000000  0.000000 ICntrl=     500 IOpCl=  0
         NMat0=    1 NMatS0=    1 NMatT0=    0 NMatD0=    1 NMtDS0=    0 NMtDT0=    0
         I1Cent=           4 NGrid=           0.
 Symmetry not used in FoFCou.
 Requested convergence on RMS density matrix=1.00D-08 within 128 cycles.
 Requested convergence on MAX density matrix=1.00D-06.
 Requested convergence on             energy=1.00D-06.
 No special actions if energy rises.
 Keep R1 ints in memory in canonical form, NReq=516428601.
 SCF Done:  E(RHF) =  -5580.30894572     A.U. after   14 cycles
             Convg  =    0.3188D-08             -V/T =  2.0000
 ExpMin= 3.51D-02 ExpMax= 1.06D+07 ExpMxC= 1.21D+04 IAcc=3 IRadAn=         5 AccDes= 0.00D+00
 HarFok:  IExCor=  205 AccDes= 0.00D+00 IRadAn=         5 IDoV=-2
 ScaDFX=  1.000000  1.000000  1.000000  1.000000
 DSYEVD returned Info=          89 IAlg= 4 N=    59 NDim=    59 NE2=    18196455 trying DSYEV.
 Range of M.O.s used for correlation:    25   214
 NBasis=   214 NAE=    46 NBE=    46 NFC=    24 NFV=     0
 NROrb=    190 NOA=    22 NOB=    22 NVA=   168 NVB=   168

 **** Warning!!: The largest alpha MO coefficient is  0.30713630D+02

 Semi-Direct transformation.
 ModeAB=           2 MOrb=            22 LenV=    1072457041
 LASXX=     69628944 LTotXX=    69628944 LenRXX=    69628944
 LTotAB=    70719517 MaxLAS=   133250040 LenRXY=   133250040
 NonZer=   139257888 LenScr=   209707008 LnRSAI=           0
 LnScr1=           0 LExtra=           0 Total=    412585992
 MaxDsk=          -1 SrtSym=           F ITran=            4
 JobTyp=0 Pass  1:  I=   1 to  22.
 (rs|ai) integrals will be sorted in core.
 Spin components of T(2) and E(2):
     alpha-alpha T2 =       0.4277591531D-01 E2=     -0.1153723563D+00
     alpha-beta  T2 =       0.2160532212D+00 E2=     -0.5789809366D+00
     beta-beta   T2 =       0.4277591531D-01 E2=     -0.1153723563D+00
 ANorm=    0.1140879070D+01
 E2 =    -0.8097256491D+00 EUMP2 =    -0.55811186713646D+04
 R2 and R3 integrals will be kept in memory, NReq=  1024335774.
 Iterations=  50 Convergence= 0.100D-07
 Iteration Nr.   1
 **********************
 DD1Dir will call FoFMem   1 times, MxPair=       506
 NAB=   253 NAA=     0 NBB=     0.
 MP4(R+Q)=  0.23392593D-01
 E3=       -0.12337093D-01        EUMP3=      -0.55811310085D+04
 E4(DQ)=   -0.46620192D-03        UMP4(DQ)=   -0.55811314747D+04
 E4(SDQ)=  -0.10038553D-01        UMP4(SDQ)=  -0.55811410470D+04
 DE(Corr)= -0.79867015     E(Corr)=     -5581.1076159    
 NORM(A)=   0.11407386D+01
 Iteration Nr.   2
 **********************
 DD1Dir will call FoFMem   1 times, MxPair=       506
 NAB=   253 NAA=     0 NBB=     0.
 DE(Corr)= -0.82722398     E(CORR)=     -5581.1361697     Delta=-2.86D-02
 NORM(A)=   0.11528347D+01
 Iteration Nr.   3
 **********************
 DD1Dir will call FoFMem   1 times, MxPair=       506
 NAB=   253 NAA=     0 NBB=     0.
 DE(Corr)= -0.82588064     E(CORR)=     -5581.1348264     Delta= 1.34D-03
 NORM(A)=   0.11556121D+01
 Iteration Nr.   4
 **********************
 DD1Dir will call FoFMem   1 times, MxPair=       506
 NAB=   253 NAA=     0 NBB=     0.
 DE(Corr)= -0.82819315     E(CORR)=     -5581.1371389     Delta=-2.31D-03
 NORM(A)=   0.11568851D+01
 Iteration Nr.   5
 **********************
 DD1Dir will call FoFMem   1 times, MxPair=       506
 NAB=   253 NAA=     0 NBB=     0.
 DE(Corr)= -0.82849405     E(CORR)=     -5581.1374398     Delta=-3.01D-04
 NORM(A)=   0.11575058D+01
 Iteration Nr.   6
 **********************
 DD1Dir will call FoFMem   1 times, MxPair=       506
 NAB=   253 NAA=     0 NBB=     0.
 DE(Corr)= -0.82855749     E(CORR)=     -5581.1375032     Delta=-6.34D-05
 NORM(A)=   0.11575846D+01
 Iteration Nr.   7
 **********************
 DD1Dir will call FoFMem   1 times, MxPair=       506
 NAB=   253 NAA=     0 NBB=     0.
 DE(Corr)= -0.82856916     E(CORR)=     -5581.1375149     Delta=-1.17D-05
 NORM(A)=   0.11576035D+01
 Iteration Nr.   8
 **********************
 DD1Dir will call FoFMem   1 times, MxPair=       506
 NAB=   253 NAA=     0 NBB=     0.
 DE(Corr)= -0.82856478     E(CORR)=     -5581.1375105     Delta= 4.38D-06
 NORM(A)=   0.11576115D+01
 Iteration Nr.   9
 **********************
 DD1Dir will call FoFMem   1 times, MxPair=       506
 NAB=   253 NAA=     0 NBB=     0.
 DE(Corr)= -0.82856718     E(CORR)=     -5581.1375129     Delta=-2.40D-06
 NORM(A)=   0.11576130D+01
 Iteration Nr.  10
 **********************
 DD1Dir will call FoFMem   1 times, MxPair=       506
 NAB=   253 NAA=     0 NBB=     0.
 DE(Corr)= -0.82856692     E(CORR)=     -5581.1375126     Delta= 2.59D-07
 NORM(A)=   0.11576168D+01
 Iteration Nr.  11
 **********************
 DD1Dir will call FoFMem   1 times, MxPair=       506
 NAB=   253 NAA=     0 NBB=     0.
 DE(Corr)= -0.82856872     E(CORR)=     -5581.1375144     Delta=-1.80D-06
 NORM(A)=   0.11576188D+01
 Iteration Nr.  12
 **********************
 DD1Dir will call FoFMem   1 times, MxPair=       506
 NAB=   253 NAA=     0 NBB=     0.
 DE(Corr)= -0.82856874     E(CORR)=     -5581.1375145     Delta=-2.09D-08
 NORM(A)=   0.11576203D+01
 Iteration Nr.  13
 **********************
 DD1Dir will call FoFMem   1 times, MxPair=       506
 NAB=   253 NAA=     0 NBB=     0.
 DE(Corr)= -0.82856937     E(CORR)=     -5581.1375151     Delta=-6.34D-07
 NORM(A)=   0.11576213D+01
 Iteration Nr.  14
 **********************
 DD1Dir will call FoFMem   1 times, MxPair=       506
 NAB=   253 NAA=     0 NBB=     0.
 DE(Corr)= -0.82856939     E(CORR)=     -5581.1375151     Delta=-1.67D-08
 NORM(A)=   0.11576217D+01
 Iteration Nr.  15
 **********************
 DD1Dir will call FoFMem   1 times, MxPair=       506
 NAB=   253 NAA=     0 NBB=     0.
 DE(Corr)= -0.82856950     E(CORR)=     -5581.1375152     Delta=-1.10D-07
 NORM(A)=   0.11576219D+01
 Iteration Nr.  16
 **********************
 DD1Dir will call FoFMem   1 times, MxPair=       506
 NAB=   253 NAA=     0 NBB=     0.
 DE(Corr)= -0.82856953     E(CORR)=     -5581.1375152     Delta=-3.10D-08
 NORM(A)=   0.11576220D+01
 Iteration Nr.  17
 **********************
 DD1Dir will call FoFMem   1 times, MxPair=       506
 NAB=   253 NAA=     0 NBB=     0.
 DE(Corr)= -0.82856952     E(CORR)=     -5581.1375152     Delta= 1.28D-08
 NORM(A)=   0.11576220D+01
 Iteration Nr.  18
 **********************
 DD1Dir will call FoFMem   1 times, MxPair=       506
 NAB=   253 NAA=     0 NBB=     0.
 DE(Corr)= -0.82856954     E(CORR)=     -5581.1375153     Delta=-1.76D-08
 NORM(A)=   0.11576220D+01
 Iteration Nr.  19
 **********************
 DD1Dir will call FoFMem   1 times, MxPair=       506
 NAB=   253 NAA=     0 NBB=     0.
 DE(Corr)= -0.82856954     E(CORR)=     -5581.1375153     Delta= 9.91D-10
 NORM(A)=   0.11576221D+01
 Iteration Nr.  20
 **********************
 DD1Dir will call FoFMem   1 times, MxPair=       506
 NAB=   253 NAA=     0 NBB=     0.
 DE(Corr)= -0.82856954     E(CORR)=     -5581.1375153     Delta=-5.59D-09
 NORM(A)=   0.11576221D+01
 Iteration Nr.  21
 **********************
 DD1Dir will call FoFMem   1 times, MxPair=       506
 NAB=   253 NAA=     0 NBB=     0.
 DE(Corr)= -0.82856952     E(CORR)=     -5581.1375152     Delta= 2.22D-08
 NORM(A)=   0.11576221D+01
 Iteration Nr.  22
 **********************
 DD1Dir will call FoFMem   1 times, MxPair=       506
 NAB=   253 NAA=     0 NBB=     0.
 DE(Corr)= -0.82856960     E(CORR)=     -5581.1375153     Delta=-8.12D-08
 NORM(A)=   0.11576220D+01
 Iteration Nr.  23
 **********************
 DD1Dir will call FoFMem   1 times, MxPair=       506
 NAB=   253 NAA=     0 NBB=     0.
 DE(Corr)= -0.82856954     E(CORR)=     -5581.1375153     Delta= 6.53D-08
 NORM(A)=   0.11576221D+01
 Iteration Nr.  24
 **********************
 DD1Dir will call FoFMem   1 times, MxPair=       506
 NAB=   253 NAA=     0 NBB=     0.
 DE(Corr)= -0.82856954     E(CORR)=     -5581.1375153     Delta=-9.81D-10
 NORM(A)=   0.11576221D+01
 Iteration Nr.  25
 **********************
 DD1Dir will call FoFMem   1 times, MxPair=       506
 NAB=   253 NAA=     0 NBB=     0.
 DE(Corr)= -0.82856954     E(CORR)=     -5581.1375153     Delta= 2.34D-10
 NORM(A)=   0.11576221D+01
 Largest amplitude= 7.46D-02

 Z-AMPLITUDE ITERATIONS

 Iteration Nr.   1
 **********************
 DD1Dir will call FoFMem   1 times, MxPair=       506
 NAB=   253 NAA=     0 NBB=     0.
 DE(Z)  -0.79805276D+00          E(Z)=    -0.55811069985D+04
 NORM(A)=   0.11577113D+01
 Iteration Nr.   2
 **********************
 DD1Dir will call FoFMem   1 times, MxPair=       506
 NAB=   253 NAA=     0 NBB=     0.
 DE(Z)  -0.79805353D+00          E(Z)=    -0.55811069992D+04
 NORM(A)=   0.11577990D+01
 Iteration Nr.   3
 **********************
 DD1Dir will call FoFMem   1 times, MxPair=       506
 NAB=   253 NAA=     0 NBB=     0.
 DE(Z)  -0.79805406D+00          E(Z)=    -0.55811069998D+04
 NORM(A)=   0.11578136D+01
 Iteration Nr.   4
 **********************
 DD1Dir will call FoFMem   1 times, MxPair=       506
 NAB=   253 NAA=     0 NBB=     0.
 DE(Z)  -0.79805440D+00          E(Z)=    -0.55811070001D+04
 NORM(A)=   0.11580549D+01
 Iteration Nr.   5
 **********************
 DD1Dir will call FoFMem   1 times, MxPair=       506
 NAB=   253 NAA=     0 NBB=     0.
 DE(Z)  -0.79805719D+00          E(Z)=    -0.55811070029D+04
 NORM(A)=   0.11444680D+01
 Iteration Nr.   6
 **********************
 DD1Dir will call FoFMem   1 times, MxPair=       506
 NAB=   253 NAA=     0 NBB=     0.
 DE(Z)  -0.79792158D+00          E(Z)=    -0.55811068673D+04
 NORM(A)=   0.11444677D+01
 Iteration Nr.   7
 **********************
 DD1Dir will call FoFMem   1 times, MxPair=       506
 NAB=   253 NAA=     0 NBB=     0.
 DE(Z)  -0.79791897D+00          E(Z)=    -0.55811068647D+04
 NORM(A)=   0.11444668D+01
 Iteration Nr.   8
 **********************
 DD1Dir will call FoFMem   1 times, MxPair=       506
 NAB=   253 NAA=     0 NBB=     0.
 DE(Z)  -0.79791974D+00          E(Z)=    -0.55811068655D+04
 NORM(A)=   0.11444668D+01
 Iteration Nr.   9
 **********************
 DD1Dir will call FoFMem   1 times, MxPair=       506
 NAB=   253 NAA=     0 NBB=     0.
 DE(Z)  -0.79791913D+00          E(Z)=    -0.55811068648D+04
 NORM(A)=   0.11444669D+01
 Iteration Nr.  10
 **********************
 DD1Dir will call FoFMem   1 times, MxPair=       506
 NAB=   253 NAA=     0 NBB=     0.
 DE(Z)  -0.79791909D+00          E(Z)=    -0.55811068648D+04
 NORM(A)=   0.11444672D+01
 Iteration Nr.  11
 **********************
 DD1Dir will call FoFMem   1 times, MxPair=       506
 NAB=   253 NAA=     0 NBB=     0.
 DE(Z)  -0.79791913D+00          E(Z)=    -0.55811068648D+04
 NORM(A)=   0.11444674D+01
 Iteration Nr.  12
 **********************
 DD1Dir will call FoFMem   1 times, MxPair=       506
 NAB=   253 NAA=     0 NBB=     0.
 DE(Z)  -0.79791913D+00          E(Z)=    -0.55811068648D+04
 NORM(A)=   0.11444675D+01
 Iteration Nr.  13
 **********************
 DD1Dir will call FoFMem   1 times, MxPair=       506
 NAB=   253 NAA=     0 NBB=     0.
 DE(Z)  -0.79791915D+00          E(Z)=    -0.55811068649D+04
 NORM(A)=   0.11444675D+01
 Iteration Nr.  14
 **********************
 DD1Dir will call FoFMem   1 times, MxPair=       506
 NAB=   253 NAA=     0 NBB=     0.
 DE(Z)  -0.79791915D+00          E(Z)=    -0.55811068649D+04
 NORM(A)=   0.11444675D+01
 Iteration Nr.  15
 **********************
 DD1Dir will call FoFMem   1 times, MxPair=       506
 NAB=   253 NAA=     0 NBB=     0.
 DE(Z)  -0.79791915D+00          E(Z)=    -0.55811068649D+04
 NORM(A)=   0.11444675D+01
 Discarding MO integrals.
          Differentiating once with respect to electric field.
                with respect to dipole field.
          Electric field/nuclear overlap derivatives assumed to be zero.
          Keep R1 ints in memory in canonical form, NReq=510060614.
          There are     1 degrees of freedom in the 1st order CPHF.  IDoFFX=0.
 LinEq1:  Iter=  0 NonCon=     1 RMS=1.77D-03 Max=6.54D-02
 AX will form     1 AO Fock derivatives at one time.
 LinEq1:  Iter=  1 NonCon=     1 RMS=8.40D-04 Max=1.78D-02
 LinEq1:  Iter=  2 NonCon=     1 RMS=3.78D-04 Max=1.43D-02
 LinEq1:  Iter=  3 NonCon=     1 RMS=1.23D-04 Max=4.43D-03
 LinEq1:  Iter=  4 NonCon=     1 RMS=4.74D-05 Max=8.32D-04
 LinEq1:  Iter=  5 NonCon=     1 RMS=9.51D-06 Max=2.14D-04
 LinEq1:  Iter=  6 NonCon=     1 RMS=3.04D-06 Max=6.27D-05
 LinEq1:  Iter=  7 NonCon=     1 RMS=6.19D-07 Max=1.45D-05
 LinEq1:  Iter=  8 NonCon=     1 RMS=1.12D-07 Max=2.64D-06
 LinEq1:  Iter=  9 NonCon=     1 RMS=2.34D-08 Max=4.62D-07
 LinEq1:  Iter= 10 NonCon=     1 RMS=4.48D-09 Max=8.01D-08
 LinEq1:  Iter= 11 NonCon=     1 RMS=8.70D-10 Max=1.74D-08
 LinEq1:  Iter= 12 NonCon=     1 RMS=1.59D-10 Max=4.32D-09
 LinEq1:  Iter= 13 NonCon=     1 RMS=5.33D-11 Max=2.34D-09
 LinEq1:  Iter= 14 NonCon=     0 RMS=1.53D-11 Max=3.64D-10
 Linear equations converged to 1.000D-10 1.000D-09 after    14 iterations.
 End of Minotr Frequency-dependent properties file   721 does not exist.
 End of Minotr Frequency-dependent properties file   722 does not exist.

 **********************************************************************

            Population analysis using the QCI/CC density.

 **********************************************************************

     Natural Orbital Coefficients:
                           1         2         3         4         5
     Eigenvalues --     2.00003   2.00002   2.00002   2.00002   2.00001
   1 1   C  1S          0.00000  -0.18165   0.31504   0.00000  -0.46948
   2        2S          0.00000   0.00369  -0.00985   0.00000   0.00746
   3        3S          0.00000  -0.00697   0.01182   0.00000  -0.01894
   4        4S          0.00000  -0.01196  -0.01464   0.00000  -0.00668
   5        5S          0.00000  -0.00489  -0.00476   0.00000  -0.00455
   6        6PX         0.00000   0.00000   0.00000   0.00000   0.00000
   7        6PY        -0.00123   0.00000   0.00000  -0.00300   0.00000
   8        6PZ         0.00000   0.00111   0.00152   0.00000   0.00264
   9        7PX         0.00000   0.00000   0.00000   0.00000   0.00000
  10        7PY        -0.00132   0.00000   0.00000  -0.00517   0.00000
  11        7PZ         0.00000  -0.00051   0.00393   0.00000   0.00066
  12        8PX         0.00000   0.00000   0.00000   0.00000   0.00000
  13        8PY         0.01277   0.00000   0.00000  -0.00424   0.00000
  14        8PZ         0.00000  -0.00974   0.00640   0.00000  -0.00867
  15        9PX         0.00000   0.00000   0.00000   0.00000   0.00000
  16        9PY         0.00370   0.00000   0.00000   0.00042   0.00000
  17        9PZ         0.00000   0.00002   0.00085   0.00000  -0.00151
  18       10D 0        0.00000  -0.00007   0.00012   0.00000  -0.00002
  19       10D+1        0.00000   0.00000   0.00000   0.00000   0.00000
  20       10D-1       -0.00036   0.00000   0.00000   0.00035   0.00000
  21       10D+2        0.00000   0.00003   0.00012   0.00000   0.00020
  22       10D-2        0.00000   0.00000   0.00000   0.00000   0.00000
  23       11D 0        0.00000  -0.00111  -0.00030   0.00000  -0.00016
  24       11D+1        0.00000   0.00000   0.00000   0.00000   0.00000
  25       11D-1        0.00004   0.00000   0.00000   0.00115   0.00000
  26       11D+2        0.00000  -0.00002   0.00160   0.00000  -0.00060
  27       11D-2        0.00000   0.00000   0.00000   0.00000   0.00000
  28       12D 0        0.00000  -0.00430   0.00100   0.00000  -0.00490
  29       12D+1        0.00000   0.00000   0.00000   0.00000   0.00000
  30       12D-1       -0.00641   0.00000   0.00000   0.00302   0.00000
  31       12D+2        0.00000  -0.00153   0.00199   0.00000  -0.00197
  32       12D-2        0.00000   0.00000   0.00000   0.00000   0.00000
  33       13F 0        0.00000  -0.00001   0.00002   0.00000   0.00011
  34       13F+1        0.00000   0.00000   0.00000   0.00000   0.00000
  35       13F-1       -0.00032   0.00000   0.00000  -0.00007   0.00000
  36       13F+2        0.00000  -0.00007   0.00001   0.00000  -0.00008
  37       13F-2        0.00000   0.00000   0.00000   0.00000   0.00000
  38       13F+3        0.00000   0.00000   0.00000   0.00000   0.00000
  39       13F-3        0.00007   0.00000   0.00000  -0.00007   0.00000
  40       14F 0        0.00000   0.00020  -0.00010   0.00000   0.00104
  41       14F+1        0.00000   0.00000   0.00000   0.00000   0.00000
  42       14F-1        0.00185   0.00000   0.00000   0.00073   0.00000
  43       14F+2        0.00000   0.00045  -0.00035   0.00000   0.00103
  44       14F-2        0.00000   0.00000   0.00000   0.00000   0.00000
  45       14F+3        0.00000   0.00000   0.00000   0.00000   0.00000
  46       14F-3       -0.00029   0.00000   0.00000   0.00021   0.00000
  47 2   S  1S          0.00000  -0.21370  -0.00951   0.00000   0.17239
  48        2S          0.00000   0.73028   0.03306   0.00000  -0.59511
  49        3S          0.00000  -0.02041  -0.00117   0.00000   0.00941
  50        4S          0.00000   0.04893   0.00218   0.00000  -0.04264
  51        5S          0.00000   0.01218  -0.00114   0.00000   0.01613
  52        6S          0.00000   0.00193   0.00023   0.00000   0.00459
  53        7PX         0.00000   0.00000   0.00000   0.00000   0.00000
  54        7PY         0.97045   0.00000   0.00000   0.09404   0.00000
  55        7PZ         0.00000   0.63522   0.02330   0.00000   0.52882
  56        8PX         0.00000   0.00000   0.00000   0.00000   0.00000
  57        8PY        -0.01897   0.00000   0.00000  -0.00127   0.00000
  58        8PZ         0.00000  -0.01270  -0.00055   0.00000  -0.00912
  59        9PX         0.00000   0.00000   0.00000   0.00000   0.00000
  60        9PY         0.05633   0.00000   0.00000   0.00576   0.00000
  61        9PZ         0.00000   0.03914   0.00152   0.00000   0.03442
  62       10PX         0.00000   0.00000   0.00000   0.00000   0.00000
  63       10PY        -0.00353   0.00000   0.00000  -0.00101   0.00000
  64       10PZ         0.00000  -0.00888  -0.00064   0.00000  -0.00576
  65       11PX         0.00000   0.00000   0.00000   0.00000   0.00000
  66       11PY        -0.00131   0.00000   0.00000  -0.00007   0.00000
  67       11PZ         0.00000  -0.00025  -0.00020   0.00000  -0.00029
  68       12D 0        0.00000   0.00238   0.00014   0.00000   0.00240
  69       12D+1        0.00000   0.00000   0.00000   0.00000   0.00000
  70       12D-1        0.00272   0.00000   0.00000   0.00072   0.00000
  71       12D+2        0.00000  -0.00040  -0.00006   0.00000  -0.00007
  72       12D-2        0.00000   0.00000   0.00000   0.00000   0.00000
  73       13D 0        0.00000   0.00016  -0.00015   0.00000  -0.00022
  74       13D+1        0.00000   0.00000   0.00000   0.00000   0.00000
  75       13D-1       -0.00036   0.00000   0.00000   0.00019   0.00000
  76       13D+2        0.00000   0.00030   0.00002   0.00000  -0.00020
  77       13D-2        0.00000   0.00000   0.00000   0.00000   0.00000
  78       14D 0        0.00000   0.00126   0.00026   0.00000   0.00050
  79       14D+1        0.00000   0.00000   0.00000   0.00000   0.00000
  80       14D-1       -0.00080   0.00000   0.00000   0.00020   0.00000
  81       14D+2        0.00000   0.00050  -0.00037   0.00000   0.00031
  82       14D-2        0.00000   0.00000   0.00000   0.00000   0.00000
  83       15F 0        0.00000  -0.00019   0.00011   0.00000  -0.00016
  84       15F+1        0.00000   0.00000   0.00000   0.00000   0.00000
  85       15F-1       -0.00015   0.00000   0.00000  -0.00011   0.00000
  86       15F+2        0.00000   0.00013   0.00002   0.00000   0.00018
  87       15F-2        0.00000   0.00000   0.00000   0.00000   0.00000
  88       15F+3        0.00000   0.00000   0.00000   0.00000   0.00000
  89       15F-3        0.00011   0.00000   0.00000   0.00000   0.00000
  90       16F 0        0.00000  -0.00045  -0.00004   0.00000  -0.00038
  91       16F+1        0.00000   0.00000   0.00000   0.00000   0.00000
  92       16F-1       -0.00085   0.00000   0.00000  -0.00009   0.00000
  93       16F+2        0.00000  -0.00013   0.00012   0.00000  -0.00005
  94       16F-2        0.00000   0.00000   0.00000   0.00000   0.00000
  95       16F+3        0.00000   0.00000   0.00000   0.00000   0.00000
  96       16F-3       -0.00019   0.00000   0.00000   0.00001   0.00000
  97 3   Br 1S          0.00049   0.00074  -0.04012   0.03731  -0.03046
  98        2S         -0.00193  -0.00275   0.14845  -0.13800   0.11325
  99        3S          0.00435   0.00600  -0.31153   0.28829  -0.24275
 100        4S         -0.00098  -0.00022  -0.00083   0.00068  -0.00183
 101        5S         -0.00011   0.00016  -0.01688   0.01552  -0.01183
 102        6S          0.01033  -0.00195   0.00547  -0.00299  -0.00460
 103        7S          0.00687   0.00113   0.00239   0.00059   0.00017
 104        8PX         0.00000   0.00000   0.00000   0.00000   0.00000
 105        8PY         0.02273   0.00484   0.20318  -0.22301  -0.00308
 106        8PZ         0.01977   0.00612   0.12953  -0.13351   0.02315
 107        9PX         0.00000   0.00000   0.00000   0.00000   0.00000
 108        9PY        -0.06023  -0.01248  -0.52809   0.58166   0.01746
 109        9PZ        -0.05336  -0.01670  -0.33728   0.34657  -0.06001
 110       10PX         0.00000   0.00000   0.00000   0.00000   0.00000
 111       10PY         0.00064  -0.00051   0.00263  -0.00087  -0.00068
 112       10PZ        -0.00052  -0.00041   0.00140  -0.00134  -0.00091
 113       11PX         0.00000   0.00000   0.00000   0.00000   0.00000
 114       11PY        -0.00334  -0.00063  -0.02507   0.02748   0.00084
 115       11PZ        -0.00310  -0.00100  -0.01612   0.01638  -0.00288
 116       12PX         0.00000   0.00000   0.00000   0.00000   0.00000
 117       12PY         0.00470   0.00019   0.00155   0.00113   0.00051
 118       12PZ         0.00203  -0.00167   0.00126   0.00026  -0.00229
 119       13PX         0.00000   0.00000   0.00000   0.00000   0.00000
 120       13PY         0.00068   0.00026   0.00043   0.00002   0.00004
 121       13PZ         0.00057   0.00013   0.00017   0.00002   0.00026
 122       14D 0        0.00002  -0.00001   0.00173  -0.00167   0.00105
 123       14D+1        0.00000   0.00000   0.00000   0.00000   0.00000
 124       14D-1       -0.00302  -0.00089  -0.02814   0.03038  -0.00295
 125       14D+2        0.00187   0.00065   0.01789  -0.01922   0.00292
 126       14D-2        0.00000   0.00000   0.00000   0.00000   0.00000
 127       15D 0        0.00006   0.00000   0.00021  -0.00010   0.00007
 128       15D+1        0.00000   0.00000   0.00000   0.00000   0.00000
 129       15D-1       -0.00022  -0.00010  -0.00278   0.00294  -0.00041
 130       15D+2        0.00011   0.00011   0.00189  -0.00189   0.00042
 131       15D-2        0.00000   0.00000   0.00000   0.00000   0.00000
 132       16D 0       -0.00001   0.00020  -0.00001  -0.00018   0.00027
 133       16D+1        0.00000   0.00000   0.00000   0.00000   0.00000
 134       16D-1        0.00034   0.00009   0.00108  -0.00057  -0.00030
 135       16D+2       -0.00040  -0.00002  -0.00085   0.00034   0.00008
 136       16D-2        0.00000   0.00000   0.00000   0.00000   0.00000
 137       17D 0       -0.00010  -0.00025   0.00003   0.00016  -0.00036
 138       17D+1        0.00000   0.00000   0.00000   0.00000   0.00000
 139       17D-1        0.00117  -0.00022   0.00062  -0.00025  -0.00028
 140       17D+2       -0.00062  -0.00024  -0.00044  -0.00016  -0.00035
 141       17D-2        0.00000   0.00000   0.00000   0.00000   0.00000
 142       18F 0        0.00009   0.00002   0.00025  -0.00030   0.00006
 143       18F+1        0.00000   0.00000   0.00000   0.00000   0.00000
 144       18F-1       -0.00003   0.00000  -0.00011   0.00013  -0.00004
 145       18F+2        0.00001   0.00004   0.00040  -0.00044   0.00012
 146       18F-2        0.00000   0.00000   0.00000   0.00000   0.00000
 147       18F+3        0.00000   0.00000   0.00000   0.00000   0.00000
 148       18F-3       -0.00007   0.00004   0.00021  -0.00023   0.00008
 149       19F 0       -0.00002   0.00006  -0.00032   0.00032   0.00024
 150       19F+1        0.00000   0.00000   0.00000   0.00000   0.00000
 151       19F-1       -0.00005   0.00006   0.00018  -0.00027   0.00007
 152       19F+2        0.00001  -0.00006  -0.00059   0.00046   0.00000
 153       19F-2        0.00000   0.00000   0.00000   0.00000   0.00000
 154       19F+3        0.00000   0.00000   0.00000   0.00000   0.00000
 155       19F-3        0.00007  -0.00008  -0.00034   0.00018  -0.00013
 156 4   Br 1S         -0.00049   0.00074  -0.04012  -0.03731  -0.03046
 157        2S          0.00193  -0.00275   0.14845   0.13800   0.11325
 158        3S         -0.00435   0.00600  -0.31153  -0.28829  -0.24275
 159        4S          0.00098  -0.00022  -0.00083  -0.00068  -0.00183
 160        5S          0.00011   0.00016  -0.01688  -0.01552  -0.01183
 161        6S         -0.01033  -0.00195   0.00547   0.00299  -0.00460
 162        7S         -0.00687   0.00113   0.00239  -0.00059   0.00017
 163        8PX         0.00000   0.00000   0.00000   0.00000   0.00000
 164        8PY         0.02273  -0.00484  -0.20318  -0.22301   0.00308
 165        8PZ        -0.01977   0.00612   0.12953   0.13351   0.02315
 166        9PX         0.00000   0.00000   0.00000   0.00000   0.00000
 167        9PY        -0.06023   0.01248   0.52809   0.58166  -0.01746
 168        9PZ         0.05336  -0.01670  -0.33728  -0.34657  -0.06001
 169       10PX         0.00000   0.00000   0.00000   0.00000   0.00000
 170       10PY         0.00064   0.00051  -0.00263  -0.00087   0.00068
 171       10PZ         0.00052  -0.00041   0.00140   0.00134  -0.00091
 172       11PX         0.00000   0.00000   0.00000   0.00000   0.00000
 173       11PY        -0.00334   0.00063   0.02507   0.02748  -0.00084
 174       11PZ         0.00310  -0.00100  -0.01612  -0.01638  -0.00288
 175       12PX         0.00000   0.00000   0.00000   0.00000   0.00000
 176       12PY         0.00470  -0.00019  -0.00155   0.00113  -0.00051
 177       12PZ        -0.00203  -0.00167   0.00126  -0.00026  -0.00229
 178       13PX         0.00000   0.00000   0.00000   0.00000   0.00000
 179       13PY         0.00068  -0.00026  -0.00043   0.00002  -0.00004
 180       13PZ        -0.00057   0.00013   0.00017  -0.00002   0.00026
 181       14D 0       -0.00002  -0.00001   0.00173   0.00167   0.00105
 182       14D+1        0.00000   0.00000   0.00000   0.00000   0.00000
 183       14D-1       -0.00302   0.00089   0.02814   0.03038   0.00295
 184       14D+2       -0.00187   0.00065   0.01789   0.01922   0.00292
 185       14D-2        0.00000   0.00000   0.00000   0.00000   0.00000
 186       15D 0       -0.00006   0.00000   0.00021   0.00010   0.00007
 187       15D+1        0.00000   0.00000   0.00000   0.00000   0.00000
 188       15D-1       -0.00022   0.00010   0.00278   0.00294   0.00041
 189       15D+2       -0.00011   0.00011   0.00189   0.00189   0.00042
 190       15D-2        0.00000   0.00000   0.00000   0.00000   0.00000
 191       16D 0        0.00001   0.00020  -0.00001   0.00018   0.00027
 192       16D+1        0.00000   0.00000   0.00000   0.00000   0.00000
 193       16D-1        0.00034  -0.00009  -0.00108  -0.00057   0.00030
 194       16D+2        0.00040  -0.00002  -0.00085  -0.00034   0.00008
 195       16D-2        0.00000   0.00000   0.00000   0.00000   0.00000
 196       17D 0        0.00010  -0.00025   0.00003  -0.00016  -0.00036
 197       17D+1        0.00000   0.00000   0.00000   0.00000   0.00000
 198       17D-1        0.00117   0.00022  -0.00062  -0.00025   0.00028
 199       17D+2        0.00062  -0.00024  -0.00044   0.00016  -0.00035
 200       17D-2        0.00000   0.00000   0.00000   0.00000   0.00000
 201       18F 0       -0.00009   0.00002   0.00025   0.00030   0.00006
 202       18F+1        0.00000   0.00000   0.00000   0.00000   0.00000
 203       18F-1       -0.00003   0.00000   0.00011   0.00013   0.00004
 204       18F+2       -0.00001   0.00004   0.00040   0.00044   0.00012
 205       18F-2        0.00000   0.00000   0.00000   0.00000   0.00000
 206       18F+3        0.00000   0.00000   0.00000   0.00000   0.00000
 207       18F-3       -0.00007  -0.00004  -0.00021  -0.00023  -0.00008
 208       19F 0        0.00002   0.00006  -0.00032  -0.00032   0.00024
 209       19F+1        0.00000   0.00000   0.00000   0.00000   0.00000
 210       19F-1       -0.00005  -0.00006  -0.00018  -0.00027  -0.00007
 211       19F+2       -0.00001  -0.00006  -0.00059  -0.00046   0.00000
 212       19F-2        0.00000   0.00000   0.00000   0.00000   0.00000
 213       19F+3        0.00000   0.00000   0.00000   0.00000   0.00000
 214       19F-3        0.00007   0.00008   0.00034   0.00018   0.00013
                           6         7         8         9        10
     Eigenvalues --     2.00001   2.00001   2.00001   2.00001   2.00001
   1 1   C  1S          0.00000   0.00915   0.00000   0.00000  -0.08939
   2        2S          0.00000  -0.00130   0.00000   0.00000   0.00135
   3        3S          0.00000   0.00012   0.00000   0.00000  -0.00366
   4        4S          0.00000   0.00824   0.00000   0.00000   0.00143
   5        5S          0.00000   0.00071   0.00000   0.00000  -0.00068
   6        6PX         0.00000   0.00000  -0.00079   0.00000   0.00000
   7        6PY         0.00001   0.00000   0.00000  -0.00032   0.00000
   8        6PZ         0.00000  -0.00077   0.00000   0.00000   0.00052
   9        7PX         0.00000   0.00000  -0.00010   0.00000   0.00000
  10        7PY         0.00017   0.00000   0.00000  -0.00045   0.00000
  11        7PZ         0.00000  -0.00047   0.00000   0.00000   0.00012
  12        8PX         0.00000   0.00000   0.00156   0.00000   0.00000
  13        8PY         0.00063   0.00000   0.00000  -0.00528   0.00000
  14        8PZ         0.00000   0.00172   0.00000   0.00000   0.00958
  15        9PX         0.00000   0.00000  -0.00093   0.00000   0.00000
  16        9PY         0.00258   0.00000   0.00000  -0.00118   0.00000
  17        9PZ         0.00000   0.00084   0.00000   0.00000   0.00169
  18       10D 0        0.00000  -0.00008   0.00000   0.00000  -0.00015
  19       10D+1        0.00000   0.00000  -0.00022   0.00000   0.00000
  20       10D-1       -0.00013   0.00000   0.00000  -0.00005   0.00000
  21       10D+2        0.00000   0.00011   0.00000   0.00000  -0.00007
  22       10D-2        0.00000   0.00000   0.00000   0.00000   0.00000
  23       11D 0        0.00000   0.00025   0.00000   0.00000  -0.00028
  24       11D+1        0.00000   0.00000   0.00062   0.00000   0.00000
  25       11D-1        0.00000   0.00000   0.00000  -0.00040   0.00000
  26       11D+2        0.00000  -0.00036   0.00000   0.00000  -0.00030
  27       11D-2        0.00000   0.00000   0.00000   0.00000   0.00000
  28       12D 0        0.00000   0.00105   0.00000   0.00000   0.00023
  29       12D+1        0.00000   0.00000  -0.00137   0.00000   0.00000
  30       12D-1        0.00099   0.00000   0.00000   0.00061   0.00000
  31       12D+2        0.00000  -0.00013   0.00000   0.00000   0.00045
  32       12D-2        0.00000   0.00000   0.00000   0.00000   0.00000
  33       13F 0        0.00000  -0.00011   0.00000   0.00000  -0.00003
  34       13F+1        0.00000   0.00000  -0.00014   0.00000   0.00000
  35       13F-1        0.00002   0.00000   0.00000   0.00002   0.00000
  36       13F+2        0.00000  -0.00002   0.00000   0.00000   0.00005
  37       13F-2        0.00000   0.00000   0.00000   0.00000   0.00000
  38       13F+3        0.00000   0.00000   0.00005   0.00000   0.00000
  39       13F-3       -0.00002   0.00000   0.00000  -0.00003   0.00000
  40       14F 0        0.00000   0.00017   0.00000   0.00000   0.00047
  41       14F+1        0.00000   0.00000   0.00097   0.00000   0.00000
  42       14F-1        0.00001   0.00000   0.00000  -0.00032   0.00000
  43       14F+2        0.00000   0.00017   0.00000   0.00000  -0.00034
  44       14F-2        0.00000   0.00000   0.00000   0.00000   0.00000
  45       14F+3        0.00000   0.00000  -0.00031   0.00000   0.00000
  46       14F-3        0.00002   0.00000   0.00000   0.00022   0.00000
  47 2   S  1S          0.00000  -0.06407   0.00000   0.00000   0.01494
  48        2S          0.00000   0.22075   0.00000   0.00000  -0.05240
  49        3S          0.00000  -0.00376   0.00000   0.00000   0.00090
  50        4S          0.00000   0.01583   0.00000   0.00000  -0.00379
  51        5S          0.00000  -0.00555   0.00000   0.00000  -0.00642
  52        6S          0.00000  -0.00202   0.00000   0.00000  -0.00424
  53        7PX         0.00000   0.00000   0.73976   0.00000   0.00000
  54        7PY         0.04499   0.00000   0.00000   0.02308   0.00000
  55        7PZ         0.00000  -0.21355   0.00000   0.00000   0.04439
  56        8PX         0.00000   0.00000  -0.00945   0.00000   0.00000
  57        8PY        -0.00054   0.00000   0.00000   0.00041   0.00000
  58        8PZ         0.00000   0.00386   0.00000   0.00000   0.00004
  59        9PX         0.00000   0.00000   0.04712   0.00000   0.00000
  60        9PY         0.00278   0.00000   0.00000   0.00136   0.00000
  61        9PZ         0.00000  -0.01383   0.00000   0.00000   0.00283
  62       10PX         0.00000   0.00000   0.00047   0.00000   0.00000
  63       10PY        -0.00064   0.00000   0.00000   0.00140   0.00000
  64       10PZ         0.00000   0.00258   0.00000   0.00000   0.00400
  65       11PX         0.00000   0.00000  -0.00015   0.00000   0.00000
  66       11PY        -0.00048   0.00000   0.00000   0.00012   0.00000
  67       11PZ         0.00000   0.00015   0.00000   0.00000   0.00052
  68       12D 0        0.00000  -0.00103   0.00000   0.00000   0.00016
  69       12D+1        0.00000   0.00000   0.00167   0.00000   0.00000
  70       12D-1        0.00023   0.00000   0.00000  -0.00046   0.00000
  71       12D+2        0.00000  -0.00012   0.00000   0.00000   0.00008
  72       12D-2        0.00000   0.00000   0.00000   0.00000   0.00000
  73       13D 0        0.00000   0.00013   0.00000   0.00000  -0.00004
  74       13D+1        0.00000   0.00000  -0.00017   0.00000   0.00000
  75       13D-1        0.00000   0.00000   0.00000   0.00008   0.00000
  76       13D+2        0.00000   0.00009   0.00000   0.00000  -0.00005
  77       13D-2        0.00000   0.00000   0.00000   0.00000   0.00000
  78       14D 0        0.00000  -0.00035   0.00000   0.00000  -0.00061
  79       14D+1        0.00000   0.00000  -0.00045   0.00000   0.00000
  80       14D-1        0.00015   0.00000   0.00000  -0.00054   0.00000
  81       14D+2        0.00000   0.00005   0.00000   0.00000  -0.00011
  82       14D-2        0.00000   0.00000   0.00000   0.00000   0.00000
  83       15F 0        0.00000   0.00000   0.00000   0.00000  -0.00002
  84       15F+1        0.00000   0.00000  -0.00019   0.00000   0.00000
  85       15F-1       -0.00004   0.00000   0.00000   0.00006   0.00000
  86       15F+2        0.00000  -0.00004   0.00000   0.00000  -0.00006
  87       15F-2        0.00000   0.00000   0.00000   0.00000   0.00000
  88       15F+3        0.00000   0.00000   0.00011   0.00000   0.00000
  89       15F-3        0.00001   0.00000   0.00000  -0.00001   0.00000
  90       16F 0        0.00000   0.00022   0.00000   0.00000  -0.00023
  91       16F+1        0.00000   0.00000  -0.00036   0.00000   0.00000
  92       16F-1       -0.00003   0.00000   0.00000   0.00018   0.00000
  93       16F+2        0.00000   0.00009   0.00000   0.00000   0.00004
  94       16F-2        0.00000   0.00000   0.00000   0.00000   0.00000
  95       16F+3        0.00000   0.00000  -0.00010   0.00000   0.00000
  96       16F-3       -0.00004   0.00000   0.00000   0.00002   0.00000
  97 3   Br 1S         -0.08439  -0.07725   0.00000  -0.00590   0.00590
  98        2S          0.31428   0.28780   0.00000   0.02211  -0.02212
  99        3S         -0.67767  -0.62155   0.00000  -0.04800   0.04850
 100        4S         -0.00211  -0.00180   0.00000  -0.00010  -0.00006
 101        5S         -0.03284  -0.02989   0.00000  -0.00228   0.00230
 102        6S         -0.00624  -0.00659   0.00000  -0.00320   0.00346
 103        7S          0.00415   0.00078   0.00000  -0.00202   0.00206
 104        8PX         0.00000   0.00000  -0.17022   0.00000   0.00000
 105        8PY        -0.09756  -0.08103   0.00000   0.12850   0.15738
 106        8PZ        -0.03640  -0.08522   0.00000  -0.23049  -0.21024
 107        9PX         0.00000   0.00000   0.48134   0.00000   0.00000
 108        9PY         0.27434   0.22367   0.00000  -0.36250  -0.43755
 109        9PZ         0.10239   0.23787   0.00000   0.64532   0.59123
 110       10PX         0.00000   0.00000   0.00121   0.00000   0.00000
 111       10PY         0.00005  -0.00069   0.00000  -0.00133   0.00015
 112       10PZ        -0.00023  -0.00004   0.00000   0.00089   0.00114
 113       11PX         0.00000   0.00000   0.02166   0.00000   0.00000
 114       11PY         0.01244   0.01011   0.00000  -0.01612  -0.01937
 115       11PZ         0.00459   0.01089   0.00000   0.02871   0.02625
 116       12PX         0.00000   0.00000   0.00150   0.00000   0.00000
 117       12PY         0.00210   0.00007   0.00000  -0.00353   0.00026
 118       12PZ         0.00100   0.00096   0.00000   0.00213   0.00329
 119       13PX         0.00000   0.00000   0.00023   0.00000   0.00000
 120       13PY         0.00042   0.00011   0.00000  -0.00011   0.00048
 121       13PZ         0.00047  -0.00003   0.00000  -0.00047  -0.00007
 122       14D 0        0.00070  -0.00136   0.00000  -0.00994  -0.00986
 123       14D+1        0.00000   0.00000  -0.00037   0.00000   0.00000
 124       14D-1        0.00630   0.00699   0.00000  -0.00410  -0.00748
 125       14D+2       -0.00278  -0.00519   0.00000  -0.00692  -0.00501
 126       14D-2        0.00000   0.00000  -0.00015   0.00000   0.00000
 127       15D 0        0.00007  -0.00009   0.00000  -0.00063  -0.00059
 128       15D+1        0.00000   0.00000  -0.00001   0.00000   0.00000
 129       15D-1        0.00033   0.00047   0.00000  -0.00026  -0.00047
 130       15D+2       -0.00012  -0.00036   0.00000  -0.00046  -0.00028
 131       15D-2        0.00000   0.00000   0.00009   0.00000   0.00000
 132       16D 0        0.00004  -0.00013   0.00000  -0.00026  -0.00043
 133       16D+1        0.00000   0.00000  -0.00015   0.00000   0.00000
 134       16D-1        0.00027  -0.00016   0.00000  -0.00019  -0.00018
 135       16D+2       -0.00011   0.00004   0.00000  -0.00012  -0.00032
 136       16D-2        0.00000   0.00000  -0.00035   0.00000   0.00000
 137       17D 0        0.00010   0.00001   0.00000   0.00006  -0.00032
 138       17D+1        0.00000   0.00000  -0.00028   0.00000   0.00000
 139       17D-1        0.00024  -0.00004   0.00000  -0.00032   0.00024
 140       17D+2       -0.00031   0.00015   0.00000   0.00022  -0.00040
 141       17D-2        0.00000   0.00000  -0.00055   0.00000   0.00000
 142       18F 0       -0.00008  -0.00008   0.00000   0.00005   0.00009
 143       18F+1        0.00000   0.00000   0.00000   0.00000   0.00000
 144       18F-1        0.00001   0.00005   0.00000   0.00035   0.00033
 145       18F+2       -0.00010  -0.00012   0.00000  -0.00002   0.00002
 146       18F-2        0.00000   0.00000   0.00018   0.00000   0.00000
 147       18F+3        0.00000   0.00000  -0.00018   0.00000   0.00000
 148       18F-3       -0.00003  -0.00007   0.00000   0.00013   0.00009
 149       19F 0        0.00007   0.00006   0.00000  -0.00005  -0.00009
 150       19F+1        0.00000   0.00000  -0.00001   0.00000   0.00000
 151       19F-1        0.00004  -0.00012   0.00000  -0.00029  -0.00042
 152       19F+2        0.00002   0.00014   0.00000   0.00000   0.00002
 153       19F-2        0.00000   0.00000  -0.00021   0.00000   0.00000
 154       19F+3        0.00000   0.00000   0.00034   0.00000   0.00000
 155       19F-3       -0.00004   0.00008   0.00000  -0.00016  -0.00010
 156 4   Br 1S          0.08439  -0.07725   0.00000   0.00590   0.00590
 157        2S         -0.31428   0.28780   0.00000  -0.02211  -0.02212
 158        3S          0.67767  -0.62155   0.00000   0.04800   0.04850
 159        4S          0.00211  -0.00180   0.00000   0.00010  -0.00006
 160        5S          0.03284  -0.02989   0.00000   0.00228   0.00230
 161        6S          0.00624  -0.00659   0.00000   0.00320   0.00346
 162        7S         -0.00415   0.00078   0.00000   0.00202   0.00206
 163        8PX         0.00000   0.00000  -0.17022   0.00000   0.00000
 164        8PY        -0.09756   0.08103   0.00000   0.12850  -0.15738
 165        8PZ         0.03640  -0.08522   0.00000   0.23049  -0.21024
 166        9PX         0.00000   0.00000   0.48134   0.00000   0.00000
 167        9PY         0.27434  -0.22367   0.00000  -0.36250   0.43755
 168        9PZ        -0.10239   0.23787   0.00000  -0.64532   0.59123
 169       10PX         0.00000   0.00000   0.00121   0.00000   0.00000
 170       10PY         0.00005   0.00069   0.00000  -0.00133  -0.00015
 171       10PZ         0.00023  -0.00004   0.00000  -0.00089   0.00114
 172       11PX         0.00000   0.00000   0.02166   0.00000   0.00000
 173       11PY         0.01244  -0.01011   0.00000  -0.01612   0.01937
 174       11PZ        -0.00459   0.01089   0.00000  -0.02871   0.02625
 175       12PX         0.00000   0.00000   0.00150   0.00000   0.00000
 176       12PY         0.00210  -0.00007   0.00000  -0.00353  -0.00026
 177       12PZ        -0.00100   0.00096   0.00000  -0.00213   0.00329
 178       13PX         0.00000   0.00000   0.00023   0.00000   0.00000
 179       13PY         0.00042  -0.00011   0.00000  -0.00011  -0.00048
 180       13PZ        -0.00047  -0.00003   0.00000   0.00047  -0.00007
 181       14D 0       -0.00070  -0.00136   0.00000   0.00994  -0.00986
 182       14D+1        0.00000   0.00000  -0.00037   0.00000   0.00000
 183       14D-1        0.00630  -0.00699   0.00000  -0.00410   0.00748
 184       14D+2        0.00278  -0.00519   0.00000   0.00692  -0.00501
 185       14D-2        0.00000   0.00000   0.00015   0.00000   0.00000
 186       15D 0       -0.00007  -0.00009   0.00000   0.00063  -0.00059
 187       15D+1        0.00000   0.00000  -0.00001   0.00000   0.00000
 188       15D-1        0.00033  -0.00047   0.00000  -0.00026   0.00047
 189       15D+2        0.00012  -0.00036   0.00000   0.00046  -0.00028
 190       15D-2        0.00000   0.00000  -0.00009   0.00000   0.00000
 191       16D 0       -0.00004  -0.00013   0.00000   0.00026  -0.00043
 192       16D+1        0.00000   0.00000  -0.00015   0.00000   0.00000
 193       16D-1        0.00027   0.00016   0.00000  -0.00019   0.00018
 194       16D+2        0.00011   0.00004   0.00000   0.00012  -0.00032
 195       16D-2        0.00000   0.00000   0.00035   0.00000   0.00000
 196       17D 0       -0.00010   0.00001   0.00000  -0.00006  -0.00032
 197       17D+1        0.00000   0.00000  -0.00028   0.00000   0.00000
 198       17D-1        0.00024   0.00004   0.00000  -0.00032  -0.00024
 199       17D+2        0.00031   0.00015   0.00000  -0.00022  -0.00040
 200       17D-2        0.00000   0.00000   0.00055   0.00000   0.00000
 201       18F 0        0.00008  -0.00008   0.00000  -0.00005   0.00009
 202       18F+1        0.00000   0.00000   0.00000   0.00000   0.00000
 203       18F-1        0.00001  -0.00005   0.00000   0.00035  -0.00033
 204       18F+2        0.00010  -0.00012   0.00000   0.00002   0.00002
 205       18F-2        0.00000   0.00000  -0.00018   0.00000   0.00000
 206       18F+3        0.00000   0.00000  -0.00018   0.00000   0.00000
 207       18F-3       -0.00003   0.00007   0.00000   0.00013  -0.00009
 208       19F 0       -0.00007   0.00006   0.00000   0.00005  -0.00009
 209       19F+1        0.00000   0.00000  -0.00001   0.00000   0.00000
 210       19F-1        0.00004   0.00012   0.00000  -0.00029   0.00042
 211       19F+2       -0.00002   0.00014   0.00000   0.00000   0.00002
 212       19F-2        0.00000   0.00000   0.00021   0.00000   0.00000
 213       19F+3        0.00000   0.00000   0.00034   0.00000   0.00000
 214       19F-3       -0.00004  -0.00008   0.00000  -0.00016   0.00010
                          11        12        13        14        15
     Eigenvalues --     2.00001   2.00000   2.00000   2.00000   2.00000
   1 1   C  1S          0.00000   0.00000   0.77532  -0.00111   0.00000
   2        2S          0.00000   0.00000  -0.00785   0.00001   0.00000
   3        3S          0.00000   0.00000   0.03251  -0.00005   0.00000
   4        4S          0.00000   0.00000  -0.00972  -0.00018   0.00000
   5        5S          0.00000   0.00000  -0.00532   0.00007   0.00000
   6        6PX         0.00000  -0.00154   0.00000   0.00000   0.00000
   7        6PY         0.00000   0.00000   0.00000   0.00000   0.00000
   8        6PZ         0.00000   0.00000  -0.00060   0.00001   0.00000
   9        7PX         0.00000  -0.00173   0.00000   0.00000   0.00000
  10        7PY         0.00000   0.00000   0.00000   0.00000  -0.00001
  11        7PZ         0.00000   0.00000   0.00177   0.00002   0.00000
  12        8PX         0.00000  -0.00159   0.00000   0.00000   0.00000
  13        8PY         0.00000   0.00000   0.00000   0.00000   0.00033
  14        8PZ         0.00000   0.00000  -0.00367  -0.00103   0.00000
  15        9PX         0.00000  -0.00047   0.00000   0.00000   0.00000
  16        9PY         0.00000   0.00000   0.00000   0.00000   0.00011
  17        9PZ         0.00000   0.00000   0.00076  -0.00018   0.00000
  18       10D 0        0.00000   0.00000   0.00032   0.00000   0.00000
  19       10D+1        0.00000  -0.00008   0.00000   0.00000   0.00000
  20       10D-1        0.00000   0.00000   0.00000   0.00000   0.00000
  21       10D+2        0.00000   0.00000  -0.00027   0.00000   0.00000
  22       10D-2       -0.00009   0.00000   0.00000   0.00000   0.00000
  23       11D 0        0.00000   0.00000  -0.00024   0.00001   0.00000
  24       11D+1        0.00000   0.00109   0.00000   0.00000   0.00000
  25       11D-1        0.00000   0.00000   0.00000   0.00000   0.00002
  26       11D+2        0.00000   0.00000   0.00152   0.00001   0.00000
  27       11D-2       -0.00066   0.00000   0.00000   0.00000   0.00000
  28       12D 0        0.00000   0.00000  -0.00392  -0.00010   0.00000
  29       12D+1        0.00000  -0.00145   0.00000   0.00000   0.00000
  30       12D-1        0.00000   0.00000   0.00000   0.00000  -0.00001
  31       12D+2        0.00000   0.00000  -0.00146  -0.00008   0.00000
  32       12D-2        0.00006   0.00000   0.00000   0.00000   0.00000
  33       13F 0        0.00000   0.00000   0.00034   0.00001   0.00000
  34       13F+1        0.00000  -0.00008   0.00000   0.00000   0.00000
  35       13F-1        0.00000   0.00000   0.00000   0.00000   0.00001
  36       13F+2        0.00000   0.00000  -0.00007  -0.00001   0.00000
  37       13F-2        0.00000   0.00000   0.00000   0.00000   0.00000
  38       13F+3        0.00000   0.00001   0.00000   0.00000   0.00000
  39       13F-3        0.00000   0.00000   0.00000   0.00000   0.00000
  40       14F 0        0.00000   0.00000  -0.00107  -0.00004   0.00000
  41       14F+1        0.00000   0.00050   0.00000   0.00000   0.00000
  42       14F-1        0.00000   0.00000   0.00000   0.00000  -0.00006
  43       14F+2        0.00000   0.00000  -0.00088   0.00005   0.00000
  44       14F-2        0.00019   0.00000   0.00000   0.00000   0.00000
  45       14F+3        0.00000   0.00019   0.00000   0.00000   0.00000
  46       14F-3        0.00000   0.00000   0.00000   0.00000  -0.00004
  47 2   S  1S          0.00000   0.00000   0.06020  -0.00240   0.00000
  48        2S          0.00000   0.00000  -0.20957  -0.00004   0.00000
  49        3S          0.00000   0.00000   0.00227  -0.00003   0.00000
  50        4S          0.00000   0.00000  -0.01541   0.00001   0.00000
  51        5S          0.00000   0.00000   0.00907   0.00081   0.00000
  52        6S          0.00000   0.00000  -0.00006   0.00047   0.00000
  53        7PX         0.00000   0.63055   0.00000   0.00000   0.00000
  54        7PY         0.00000   0.00000   0.00000   0.00000  -0.00007
  55        7PZ         0.00000   0.00000   0.46393  -0.00019   0.00000
  56        8PX         0.00000  -0.00690   0.00000   0.00000   0.00000
  57        8PY         0.00000   0.00000   0.00000   0.00000   0.00002
  58        8PZ         0.00000   0.00000  -0.00521  -0.00007   0.00000
  59        9PX         0.00000   0.04063   0.00000   0.00000   0.00000
  60        9PY         0.00000   0.00000   0.00000   0.00000   0.00000
  61        9PZ         0.00000   0.00000   0.03054   0.00000   0.00000
  62       10PX         0.00000   0.00271   0.00000   0.00000   0.00000
  63       10PY         0.00000   0.00000   0.00000   0.00000  -0.00009
  64       10PZ         0.00000   0.00000  -0.00111  -0.00046   0.00000
  65       11PX         0.00000  -0.00024   0.00000   0.00000   0.00000
  66       11PY         0.00000   0.00000   0.00000   0.00000  -0.00001
  67       11PZ         0.00000   0.00000  -0.00001  -0.00005   0.00000
  68       12D 0        0.00000   0.00000   0.00084   0.00001   0.00000
  69       12D+1        0.00000   0.00121   0.00000   0.00000   0.00000
  70       12D-1        0.00000   0.00000   0.00000   0.00000   0.00001
  71       12D+2        0.00000   0.00000   0.00029  -0.00002   0.00000
  72       12D-2       -0.00004   0.00000   0.00000   0.00000   0.00000
  73       13D 0        0.00000   0.00000  -0.00057   0.00000   0.00000
  74       13D+1        0.00000  -0.00004   0.00000   0.00000   0.00000
  75       13D-1        0.00000   0.00000   0.00000   0.00000  -0.00001
  76       13D+2        0.00000   0.00000  -0.00010   0.00000   0.00000
  77       13D-2       -0.00003   0.00000   0.00000   0.00000   0.00000
  78       14D 0        0.00000   0.00000  -0.00005   0.00007   0.00000
  79       14D+1        0.00000  -0.00109   0.00000   0.00000   0.00000
  80       14D-1        0.00000   0.00000   0.00000   0.00000   0.00004
  81       14D+2        0.00000   0.00000   0.00055   0.00001   0.00000
  82       14D-2        0.00000   0.00000   0.00000   0.00000   0.00000
  83       15F 0        0.00000   0.00000   0.00043   0.00000   0.00000
  84       15F+1        0.00000  -0.00021   0.00000   0.00000   0.00000
  85       15F-1        0.00000   0.00000   0.00000   0.00000   0.00000
  86       15F+2        0.00000   0.00000   0.00011   0.00001   0.00000
  87       15F-2       -0.00001   0.00000   0.00000   0.00000   0.00000
  88       15F+3        0.00000   0.00009   0.00000   0.00000   0.00000
  89       15F-3        0.00000   0.00000   0.00000   0.00000   0.00000
  90       16F 0        0.00000   0.00000  -0.00036   0.00002   0.00000
  91       16F+1        0.00000  -0.00012   0.00000   0.00000   0.00000
  92       16F-1        0.00000   0.00000   0.00000   0.00000  -0.00001
  93       16F+2        0.00000   0.00000  -0.00045   0.00000   0.00000
  94       16F-2        0.00001   0.00000   0.00000   0.00000   0.00000
  95       16F+3        0.00000  -0.00011   0.00000   0.00000   0.00000
  96       16F-3        0.00000   0.00000   0.00000   0.00000   0.00000
  97 3   Br 1S          0.00000   0.00000   0.00141  -0.00100   0.01249
  98        2S          0.00000   0.00000  -0.00399   0.00106  -0.03855
  99        3S          0.00000   0.00000  -0.00696  -0.00010  -0.00354
 100        4S          0.00000   0.00000   0.00066   0.00003   0.00000
 101        5S          0.00000   0.00000  -0.00052   0.00000  -0.00011
 102        6S          0.00000   0.00000   0.00093  -0.00036   0.00013
 103        7S          0.00000   0.00000   0.00250  -0.00023   0.00023
 104        8PX        -0.26236   0.20072   0.00000   0.00000   0.00000
 105        8PY         0.00000   0.00000  -0.08241  -0.40749  -0.50282
 106        8PZ         0.00000   0.00000  -0.07192   0.58402   0.50294
 107        9PX         0.74196  -0.56512   0.00000   0.00000   0.00000
 108        9PY         0.00000   0.00000   0.16845   0.00689   0.00672
 109        9PZ         0.00000   0.00000   0.16171  -0.01229  -0.01238
 110       10PX         0.00125   0.00027   0.00000   0.00000   0.00000
 111       10PY         0.00000   0.00000  -0.00023  -0.00024  -0.00021
 112       10PZ         0.00000   0.00000   0.00000   0.00024   0.00024
 113       11PX         0.03313  -0.02464   0.00000   0.00000   0.00000
 114       11PY         0.00000   0.00000   0.00694   0.00061   0.00067
 115       11PZ         0.00000   0.00000   0.00660  -0.00095  -0.00089
 116       12PX         0.00382  -0.00252   0.00000   0.00000   0.00000
 117       12PY         0.00000   0.00000   0.00193  -0.00017   0.00018
 118       12PZ         0.00000   0.00000  -0.00008  -0.00017   0.00001
 119       13PX        -0.00031   0.00037   0.00000   0.00000   0.00000
 120       13PY         0.00000   0.00000   0.00037  -0.00005   0.00002
 121       13PZ         0.00000   0.00000   0.00018   0.00001   0.00005
 122       14D 0        0.00000   0.00000  -0.00137   0.00040   0.00039
 123       14D+1       -0.00058   0.00024   0.00000   0.00000   0.00000
 124       14D-1        0.00000   0.00000   0.01056   0.00020   0.00027
 125       14D+2        0.00000   0.00000  -0.00736   0.00024   0.00018
 126       14D-2        0.00014  -0.00028   0.00000   0.00000   0.00000
 127       15D 0        0.00000   0.00000  -0.00010   0.00001   0.00001
 128       15D+1        0.00004  -0.00010   0.00000   0.00000   0.00000
 129       15D-1        0.00000   0.00000   0.00092   0.00000   0.00002
 130       15D+2        0.00000   0.00000  -0.00065   0.00001   0.00000
 131       15D-2        0.00012  -0.00016   0.00000   0.00000   0.00000
 132       16D 0        0.00000   0.00000   0.00013   0.00006   0.00006
 133       16D+1       -0.00011   0.00012   0.00000   0.00000   0.00000
 134       16D-1        0.00000   0.00000   0.00100   0.00002   0.00002
 135       16D+2        0.00000   0.00000  -0.00043   0.00006   0.00003
 136       16D-2       -0.00019   0.00000   0.00000   0.00000   0.00000
 137       17D 0        0.00000   0.00000  -0.00024   0.00001  -0.00002
 138       17D+1        0.00007  -0.00011   0.00000   0.00000   0.00000
 139       17D-1        0.00000   0.00000   0.00012  -0.00004   0.00002
 140       17D+2        0.00000   0.00000  -0.00051   0.00003  -0.00004
 141       17D-2        0.00013  -0.00035   0.00000   0.00000   0.00000
 142       18F 0        0.00000   0.00000  -0.00012   0.00000   0.00000
 143       18F+1        0.00002  -0.00002   0.00000   0.00000   0.00000
 144       18F-1        0.00000   0.00000   0.00011  -0.00001   0.00000
 145       18F+2        0.00000   0.00000  -0.00019   0.00000   0.00000
 146       18F-2        0.00023  -0.00019   0.00000   0.00000   0.00000
 147       18F+3       -0.00018   0.00012   0.00000   0.00000   0.00000
 148       18F-3        0.00000   0.00000  -0.00007   0.00000   0.00000
 149       19F 0        0.00000   0.00000  -0.00007   0.00001   0.00001
 150       19F+1       -0.00002   0.00005   0.00000   0.00000   0.00000
 151       19F-1        0.00000   0.00000   0.00021   0.00003   0.00002
 152       19F+2        0.00000   0.00000  -0.00022   0.00000   0.00001
 153       19F-2       -0.00018   0.00016   0.00000   0.00000   0.00000
 154       19F+3        0.00014   0.00001   0.00000   0.00000   0.00000
 155       19F-3        0.00000   0.00000  -0.00006   0.00001   0.00001
 156 4   Br 1S          0.00000   0.00000   0.00141  -0.00100  -0.01249
 157        2S          0.00000   0.00000  -0.00399   0.00105   0.03855
 158        3S          0.00000   0.00000  -0.00696  -0.00010   0.00354
 159        4S          0.00000   0.00000   0.00066   0.00003   0.00000
 160        5S          0.00000   0.00000  -0.00052   0.00000   0.00011
 161        6S          0.00000   0.00000   0.00093  -0.00036  -0.00013
 162        7S          0.00000   0.00000   0.00250  -0.00023  -0.00023
 163        8PX         0.26236   0.20072   0.00000   0.00000   0.00000
 164        8PY         0.00000   0.00000   0.08241   0.40768  -0.50266
 165        8PZ         0.00000   0.00000  -0.07192   0.58422  -0.50271
 166        9PX        -0.74196  -0.56512   0.00000   0.00000   0.00000
 167        9PY         0.00000   0.00000  -0.16845  -0.00690   0.00672
 168        9PZ         0.00000   0.00000   0.16171  -0.01229   0.01238
 169       10PX        -0.00125   0.00027   0.00000   0.00000   0.00000
 170       10PY         0.00000   0.00000   0.00023   0.00024  -0.00021
 171       10PZ         0.00000   0.00000   0.00000   0.00024  -0.00024
 172       11PX        -0.03313  -0.02464   0.00000   0.00000   0.00000
 173       11PY         0.00000   0.00000  -0.00694  -0.00061   0.00067
 174       11PZ         0.00000   0.00000   0.00660  -0.00095   0.00089
 175       12PX        -0.00382  -0.00252   0.00000   0.00000   0.00000
 176       12PY         0.00000   0.00000  -0.00193   0.00017   0.00018
 177       12PZ         0.00000   0.00000  -0.00008  -0.00017  -0.00001
 178       13PX         0.00031   0.00037   0.00000   0.00000   0.00000
 179       13PY         0.00000   0.00000  -0.00037   0.00005   0.00002
 180       13PZ         0.00000   0.00000   0.00018   0.00001  -0.00005
 181       14D 0        0.00000   0.00000  -0.00137   0.00040  -0.00039
 182       14D+1        0.00058   0.00024   0.00000   0.00000   0.00000
 183       14D-1        0.00000   0.00000  -0.01056  -0.00020   0.00027
 184       14D+2        0.00000   0.00000  -0.00736   0.00024  -0.00018
 185       14D-2        0.00014   0.00028   0.00000   0.00000   0.00000
 186       15D 0        0.00000   0.00000  -0.00010   0.00001  -0.00001
 187       15D+1       -0.00004  -0.00010   0.00000   0.00000   0.00000
 188       15D-1        0.00000   0.00000  -0.00092   0.00000   0.00002
 189       15D+2        0.00000   0.00000  -0.00065   0.00001   0.00000
 190       15D-2        0.00012   0.00016   0.00000   0.00000   0.00000
 191       16D 0        0.00000   0.00000   0.00013   0.00006  -0.00006
 192       16D+1        0.00011   0.00012   0.00000   0.00000   0.00000
 193       16D-1        0.00000   0.00000  -0.00100  -0.00002   0.00002
 194       16D+2        0.00000   0.00000  -0.00043   0.00006  -0.00003
 195       16D-2       -0.00019   0.00000   0.00000   0.00000   0.00000
 196       17D 0        0.00000   0.00000  -0.00024   0.00001   0.00002
 197       17D+1       -0.00007  -0.00011   0.00000   0.00000   0.00000
 198       17D-1        0.00000   0.00000  -0.00012   0.00004   0.00002
 199       17D+2        0.00000   0.00000  -0.00051   0.00003   0.00004
 200       17D-2        0.00013   0.00035   0.00000   0.00000   0.00000
 201       18F 0        0.00000   0.00000  -0.00012   0.00000   0.00000
 202       18F+1       -0.00002  -0.00002   0.00000   0.00000   0.00000
 203       18F-1        0.00000   0.00000  -0.00011   0.00001   0.00000
 204       18F+2        0.00000   0.00000  -0.00019   0.00000   0.00000
 205       18F-2        0.00023   0.00019   0.00000   0.00000   0.00000
 206       18F+3        0.00018   0.00012   0.00000   0.00000   0.00000
 207       18F-3        0.00000   0.00000   0.00007   0.00000   0.00000
 208       19F 0        0.00000   0.00000  -0.00007   0.00001  -0.00001
 209       19F+1        0.00002   0.00005   0.00000   0.00000   0.00000
 210       19F-1        0.00000   0.00000  -0.00021  -0.00003   0.00002
 211       19F+2        0.00000   0.00000  -0.00022   0.00000  -0.00001
 212       19F-2       -0.00018  -0.00016   0.00000   0.00000   0.00000
 213       19F+3       -0.00014   0.00001   0.00000   0.00000   0.00000
 214       19F-3        0.00000   0.00000   0.00006  -0.00001   0.00001
                          16        17        18        19        20
     Eigenvalues --     2.00000   2.00000   2.00000   2.00000   2.00000
   1 1   C  1S          0.00000   0.00000   0.00000   0.02397   0.00000
   2        2S          0.00000   0.00000   0.00000  -0.00022   0.00000
   3        3S          0.00000   0.00000   0.00000   0.00105   0.00000
   4        4S          0.00000   0.00000   0.00000  -0.00136   0.00000
   5        5S          0.00000   0.00000   0.00000  -0.00063   0.00000
   6        6PX         0.00000   0.00001   0.00000   0.00000   0.00000
   7        6PY        -0.00003   0.00000   0.00000   0.00000   0.00000
   8        6PZ         0.00000   0.00000   0.00000  -0.00004   0.00000
   9        7PX         0.00000  -0.00002   0.00000   0.00000   0.00000
  10        7PY         0.00006   0.00000   0.00000   0.00000  -0.00002
  11        7PZ         0.00000   0.00000   0.00000   0.00007   0.00000
  12        8PX         0.00000  -0.00015   0.00000   0.00000   0.00000
  13        8PY         0.00061   0.00000   0.00000   0.00000  -0.00002
  14        8PZ         0.00000   0.00000   0.00000   0.00054   0.00000
  15        9PX         0.00000   0.00003   0.00000   0.00000   0.00000
  16        9PY         0.00007   0.00000   0.00000   0.00000   0.00001
  17        9PZ         0.00000   0.00000   0.00000   0.00013   0.00000
  18       10D 0        0.00000   0.00000   0.00000   0.00001   0.00000
  19       10D+1        0.00000   0.00000   0.00000   0.00000   0.00000
  20       10D-1        0.00000   0.00000   0.00000   0.00000   0.00000
  21       10D+2        0.00000   0.00000   0.00000  -0.00001   0.00000
  22       10D-2        0.00000   0.00000  -0.00001   0.00000   0.00000
  23       11D 0        0.00000   0.00000   0.00000  -0.00002   0.00000
  24       11D+1        0.00000   0.00002   0.00000   0.00000   0.00000
  25       11D-1       -0.00008   0.00000   0.00000   0.00000   0.00001
  26       11D+2        0.00000   0.00000   0.00000   0.00014   0.00000
  27       11D-2        0.00000   0.00000   0.00004   0.00000   0.00000
  28       12D 0        0.00000   0.00000   0.00000   0.00011   0.00000
  29       12D+1        0.00000  -0.00005   0.00000   0.00000   0.00000
  30       12D-1       -0.00042   0.00000   0.00000   0.00000   0.00005
  31       12D+2        0.00000   0.00000   0.00000   0.00022   0.00000
  32       12D-2        0.00000   0.00000  -0.00004   0.00000   0.00000
  33       13F 0        0.00000   0.00000   0.00000   0.00000   0.00000
  34       13F+1        0.00000   0.00000   0.00000   0.00000   0.00000
  35       13F-1        0.00000   0.00000   0.00000   0.00000   0.00000
  36       13F+2        0.00000   0.00000   0.00000   0.00000   0.00000
  37       13F-2        0.00000   0.00000   0.00000   0.00000   0.00000
  38       13F+3        0.00000  -0.00001   0.00000   0.00000   0.00000
  39       13F-3        0.00001   0.00000   0.00000   0.00000   0.00000
  40       14F 0        0.00000   0.00000   0.00000  -0.00001   0.00000
  41       14F+1        0.00000  -0.00002   0.00000   0.00000   0.00000
  42       14F-1       -0.00005   0.00000   0.00000   0.00000   0.00001
  43       14F+2        0.00000   0.00000   0.00000  -0.00004   0.00000
  44       14F-2        0.00000   0.00000  -0.00003   0.00000   0.00000
  45       14F+3        0.00000   0.00004   0.00000   0.00000   0.00000
  46       14F-3       -0.00004   0.00000   0.00000   0.00000   0.00001
  47 2   S  1S          0.00000   0.00000   0.00000  -0.03453   0.00000
  48        2S          0.00000   0.00000   0.00000  -0.00603   0.00000
  49        3S          0.00000   0.00000   0.00000   0.00002   0.00000
  50        4S          0.00000   0.00000   0.00000  -0.00042   0.00000
  51        5S          0.00000   0.00000   0.00000   0.00002   0.00000
  52        6S          0.00000   0.00000   0.00000   0.00003   0.00000
  53        7PX         0.00000  -0.00079   0.00000   0.00000   0.00000
  54        7PY         0.00056   0.00000   0.00000   0.00000   0.00004
  55        7PZ         0.00000   0.00000   0.00000   0.01316   0.00000
  56        8PX         0.00000   0.00001   0.00000   0.00000   0.00000
  57        8PY         0.00001   0.00000   0.00000   0.00000  -0.00001
  58        8PZ         0.00000   0.00000   0.00000  -0.00016   0.00000
  59        9PX         0.00000  -0.00005   0.00000   0.00000   0.00000
  60        9PY         0.00004   0.00000   0.00000   0.00000   0.00000
  61        9PZ         0.00000   0.00000   0.00000   0.00088   0.00000
  62       10PX         0.00000   0.00010   0.00000   0.00000   0.00000
  63       10PY         0.00018   0.00000   0.00000   0.00000  -0.00001
  64       10PZ         0.00000   0.00000   0.00000  -0.00005   0.00000
  65       11PX         0.00000  -0.00001   0.00000   0.00000   0.00000
  66       11PY         0.00000   0.00000   0.00000   0.00000   0.00000
  67       11PZ         0.00000   0.00000   0.00000  -0.00003   0.00000
  68       12D 0        0.00000   0.00000   0.00000   0.00007   0.00000
  69       12D+1        0.00000  -0.00002   0.00000   0.00000   0.00000
  70       12D-1       -0.00001   0.00000   0.00000   0.00000   0.00000
  71       12D+2        0.00000   0.00000   0.00000  -0.00001   0.00000
  72       12D-2        0.00000   0.00000   0.00001   0.00000   0.00000
  73       13D 0        0.00000   0.00000   0.00000  -0.00002   0.00000
  74       13D+1        0.00000   0.00000   0.00000   0.00000   0.00000
  75       13D-1        0.00000   0.00000   0.00000   0.00000   0.00000
  76       13D+2        0.00000   0.00000   0.00000   0.00000   0.00000
  77       13D-2        0.00000   0.00000   0.00000   0.00000   0.00000
  78       14D 0        0.00000   0.00000   0.00000   0.00003   0.00000
  79       14D+1        0.00000  -0.00005   0.00000   0.00000   0.00000
  80       14D-1       -0.00004   0.00000   0.00000   0.00000   0.00000
  81       14D+2        0.00000   0.00000   0.00000  -0.00002   0.00000
  82       14D-2        0.00000   0.00000   0.00001   0.00000   0.00000
  83       15F 0        0.00000   0.00000   0.00000   0.00001   0.00000
  84       15F+1        0.00000   0.00000   0.00000   0.00000   0.00000
  85       15F-1        0.00000   0.00000   0.00000   0.00000   0.00000
  86       15F+2        0.00000   0.00000   0.00000   0.00001   0.00000
  87       15F-2        0.00000   0.00000   0.00000   0.00000   0.00000
  88       15F+3        0.00000   0.00000   0.00000   0.00000   0.00000
  89       15F-3        0.00000   0.00000   0.00000   0.00000   0.00000
  90       16F 0        0.00000   0.00000   0.00000  -0.00002   0.00000
  91       16F+1        0.00000   0.00002   0.00000   0.00000   0.00000
  92       16F-1        0.00000   0.00000   0.00000   0.00000   0.00000
  93       16F+2        0.00000   0.00000   0.00000   0.00000   0.00000
  94       16F-2        0.00000   0.00000  -0.00001   0.00000   0.00000
  95       16F+3        0.00000  -0.00001   0.00000   0.00000   0.00000
  96       16F-3        0.00000   0.00000   0.00000   0.00000   0.00000
  97 3   Br 1S         -0.05060   0.00000   0.00000   0.00572  -0.21872
  98        2S          0.15812   0.00000   0.00000  -0.01911   0.70920
  99        3S          0.01472   0.00000   0.00000   0.00682   0.03030
 100        4S         -0.00014   0.00000   0.00000  -0.00008  -0.00020
 101        5S          0.00044   0.00000   0.00000   0.00022   0.00071
 102        6S          0.00076   0.00000   0.00000   0.00078   0.00003
 103        7S          0.00008   0.00000   0.00000   0.00029   0.00003
 104        8PX         0.00000   0.71260   0.71349   0.00000   0.00000
 105        8PY         0.47856   0.00000   0.00000   0.57549  -0.13830
 106        8PZ         0.49449   0.00000   0.00000   0.40234  -0.08565
 107        9PX         0.00000  -0.01583  -0.01657   0.00000   0.00000
 108        9PY         0.00508   0.00000   0.00000   0.00884   0.00237
 109        9PZ        -0.00011   0.00000   0.00000   0.00573   0.00144
 110       10PX         0.00000   0.00028   0.00029   0.00000   0.00000
 111       10PY         0.00026   0.00000   0.00000   0.00036  -0.00007
 112       10PZ         0.00029   0.00000   0.00000   0.00023  -0.00005
 113       11PX         0.00000  -0.00121  -0.00124   0.00000   0.00000
 114       11PY        -0.00022   0.00000   0.00000  -0.00017   0.00022
 115       11PZ        -0.00044   0.00000   0.00000  -0.00013   0.00014
 116       12PX         0.00000  -0.00008  -0.00013   0.00000   0.00000
 117       12PY         0.00023   0.00000   0.00000   0.00025   0.00005
 118       12PZ         0.00008   0.00000   0.00000   0.00024   0.00003
 119       13PX         0.00000   0.00001   0.00003   0.00000   0.00000
 120       13PY         0.00000   0.00000   0.00000   0.00004   0.00000
 121       13PZ         0.00001   0.00000   0.00000   0.00001   0.00000
 122       14D 0        0.00008   0.00000   0.00000  -0.00001  -0.00003
 123       14D+1        0.00000   0.00003   0.00003   0.00000   0.00000
 124       14D-1       -0.00022   0.00000   0.00000   0.00008   0.00002
 125       14D+2        0.00024   0.00000   0.00000  -0.00003   0.00006
 126       14D-2        0.00000  -0.00001  -0.00002   0.00000   0.00000
 127       15D 0        0.00000   0.00000   0.00000   0.00000   0.00000
 128       15D+1        0.00000  -0.00001  -0.00001   0.00000   0.00000
 129       15D-1       -0.00004   0.00000   0.00000  -0.00002   0.00000
 130       15D+2        0.00004   0.00000   0.00000   0.00002   0.00000
 131       15D-2        0.00000  -0.00002  -0.00002   0.00000   0.00000
 132       16D 0        0.00003   0.00000   0.00000  -0.00001  -0.00001
 133       16D+1        0.00000   0.00003   0.00002   0.00000   0.00000
 134       16D-1        0.00010   0.00000   0.00000   0.00014  -0.00001
 135       16D+2       -0.00005   0.00000   0.00000  -0.00011   0.00000
 136       16D-2        0.00000   0.00004   0.00004   0.00000   0.00000
 137       17D 0       -0.00003   0.00000   0.00000   0.00001   0.00000
 138       17D+1        0.00000   0.00000  -0.00002   0.00000   0.00000
 139       17D-1        0.00003   0.00000   0.00000   0.00006   0.00001
 140       17D+2       -0.00001   0.00000   0.00000  -0.00003  -0.00002
 141       17D-2        0.00000   0.00000  -0.00002   0.00000   0.00000
 142       18F 0        0.00000   0.00000   0.00000   0.00000   0.00000
 143       18F+1        0.00000   0.00000   0.00000   0.00000   0.00000
 144       18F-1        0.00001   0.00000   0.00000   0.00000   0.00000
 145       18F+2       -0.00001   0.00000   0.00000  -0.00001   0.00000
 146       18F-2        0.00000  -0.00001   0.00000   0.00000   0.00000
 147       18F+3        0.00000   0.00000   0.00000   0.00000   0.00000
 148       18F-3        0.00000   0.00000   0.00000  -0.00001   0.00000
 149       19F 0       -0.00001   0.00000   0.00000  -0.00002   0.00000
 150       19F+1        0.00000   0.00001   0.00000   0.00000   0.00000
 151       19F-1        0.00002   0.00000   0.00000   0.00001   0.00000
 152       19F+2       -0.00002   0.00000   0.00000  -0.00003   0.00000
 153       19F-2        0.00000   0.00002   0.00001   0.00000   0.00000
 154       19F+3        0.00000  -0.00002  -0.00001   0.00000   0.00000
 155       19F-3        0.00000   0.00000   0.00000  -0.00002   0.00000
 156 4   Br 1S          0.05060   0.00000   0.00000   0.00572   0.21870
 157        2S         -0.15812   0.00000   0.00000  -0.01911  -0.70911
 158        3S         -0.01472   0.00000   0.00000   0.00682  -0.03030
 159        4S          0.00014   0.00000   0.00000  -0.00008   0.00020
 160        5S         -0.00044   0.00000   0.00000   0.00022  -0.00071
 161        6S         -0.00076   0.00000   0.00000   0.00078  -0.00003
 162        7S         -0.00008   0.00000   0.00000   0.00029  -0.00003
 163        8PX         0.00000   0.71323  -0.71286   0.00000   0.00000
 164        8PY         0.47856   0.00000   0.00000  -0.57549  -0.13831
 165        8PZ        -0.49449   0.00000   0.00000   0.40234   0.08565
 166        9PX         0.00000  -0.01584   0.01656   0.00000   0.00000
 167        9PY         0.00508   0.00000   0.00000  -0.00884   0.00237
 168        9PZ         0.00011   0.00000   0.00000   0.00573  -0.00144
 169       10PX         0.00000   0.00028  -0.00029   0.00000   0.00000
 170       10PY         0.00026   0.00000   0.00000  -0.00036  -0.00007
 171       10PZ        -0.00029   0.00000   0.00000   0.00023   0.00005
 172       11PX         0.00000  -0.00121   0.00124   0.00000   0.00000
 173       11PY        -0.00022   0.00000   0.00000   0.00017   0.00022
 174       11PZ         0.00044   0.00000   0.00000  -0.00013  -0.00014
 175       12PX         0.00000  -0.00008   0.00013   0.00000   0.00000
 176       12PY         0.00023   0.00000   0.00000  -0.00025   0.00005
 177       12PZ        -0.00008   0.00000   0.00000   0.00024  -0.00003
 178       13PX         0.00000   0.00001  -0.00003   0.00000   0.00000
 179       13PY         0.00000   0.00000   0.00000  -0.00004   0.00000
 180       13PZ        -0.00001   0.00000   0.00000   0.00001   0.00000
 181       14D 0       -0.00008   0.00000   0.00000  -0.00001   0.00003
[...]
 167        9PY         0.01029  -0.02990  -0.01330   0.01159   0.00000
 168        9PZ        -0.00700   0.01211  -0.00289   0.00528   0.00000
 169       10PX         0.00000   0.00000   0.00000   0.00000  -0.10293
 170       10PY         0.26178  -0.47672  -0.01174   0.14608   0.00000
 171       10PZ        -0.16102   0.18647  -0.11032   0.04418   0.00000
 172       11PX         0.00000   0.00000   0.00000   0.00000   0.03584
 173       11PY         0.01320   0.00039   0.05322  -0.00085   0.00000
 174       11PZ        -0.00924   0.00040  -0.01167  -0.01852   0.00000
 175       12PX         0.00000   0.00000   0.00000   0.00000   0.38479
 176       12PY         7.79055  -5.38628   2.85236  -5.79415   0.00000
 177       12PZ        -3.08952   6.02433  -1.70489   2.52031   0.00000
 178       13PX         0.00000   0.00000   0.00000   0.00000  -2.12278
 179       13PY        -0.60757  -1.11893   1.98820  -3.28617   0.00000
 180       13PZ        -1.69102   0.74028   0.25379   1.15439   0.00000
 181       14D 0        0.00297  -0.00137  -0.00424  -0.00026   0.00000
 182       14D+1        0.00000   0.00000   0.00000   0.00000   0.00092
 183       14D-1        0.00387   0.00102   0.00031   0.00002   0.00000
 184       14D+2        0.00418  -0.00136   0.00254   0.00370   0.00000
 185       14D-2        0.00000   0.00000   0.00000   0.00000  -0.00121
 186       15D 0       -0.03662   0.02449   0.04887   0.00292   0.00000
 187       15D+1        0.00000   0.00000   0.00000   0.00000  -0.01449
 188       15D-1       -0.05262   0.00238  -0.01645   0.01200   0.00000
 189       15D+2       -0.05047   0.02758  -0.03436  -0.03363   0.00000
 190       15D-2        0.00000   0.00000   0.00000   0.00000   0.02426
 191       16D 0        0.23453  -0.17614  -0.24939  -0.02571   0.00000
 192       16D+1        0.00000   0.00000   0.00000   0.00000   0.07099
 193       16D-1        0.44076  -0.38460   0.29490  -0.13993   0.00000
 194       16D+2        0.41233  -0.41683   0.27372   0.09706   0.00000
 195       16D-2        0.00000   0.00000   0.00000   0.00000  -0.12799
 196       17D 0        0.59542   0.79585   0.31969  -0.47956   0.00000
 197       17D+1        0.00000   0.00000   0.00000   0.00000  -0.15730
 198       17D-1        0.92729  -1.74693  -0.02263  -1.41370   0.00000
 199       17D+2        0.73130  -0.50029  -0.03684  -2.00338   0.00000
 200       17D-2        0.00000   0.00000   0.00000   0.00000   0.14940
 201       18F 0       -0.03658  -0.00251   0.02564  -0.00373   0.00000
 202       18F+1        0.00000   0.00000   0.00000   0.00000  -0.01556
 203       18F-1        0.00228  -0.03672   0.00084   0.01236   0.00000
 204       18F+2       -0.00716  -0.01262  -0.00101   0.03781   0.00000
 205       18F-2        0.00000   0.00000   0.00000   0.00000   0.00475
 206       18F+3        0.00000   0.00000   0.00000   0.00000   0.04284
 207       18F-3       -0.02429  -0.01522  -0.01306  -0.03292   0.00000
 208       19F 0        0.19743  -0.09289  -0.06794  -0.06661   0.00000
 209       19F+1        0.00000   0.00000   0.00000   0.00000   0.02434
 210       19F-1       -0.02081   0.03618   0.05287  -0.03602   0.00000
 211       19F+2        0.12785  -0.11120   0.02526  -0.19657   0.00000
 212       19F-2        0.00000   0.00000   0.00000   0.00000  -0.01486
 213       19F+3        0.00000   0.00000   0.00000   0.00000  -0.10240
 214       19F-3        0.00801   0.08998   0.01833   0.17697   0.00000
                         211       212       213       214
     Eigenvalues --     0.00000   0.00000   0.00000   0.00000
   1 1   C  1S         -0.12967   0.00000   0.02546  -0.02032
   2        2S         -0.61776   0.00000   0.10160  -0.06300
   3        3S          0.09248   0.00000  -0.06544   0.11178
   4        4S          3.28905   0.00000  -3.66254   1.03599
   5        5S         21.64811   0.00000   2.54722  26.16676
   6        6PX         0.00000   0.00000   0.00000   0.00000
   7        6PY         0.00000  -0.01506   0.00000   0.00000
   8        6PZ        -0.00573   0.00000  -0.02078   0.01820
   9        7PX         0.00000   0.00000   0.00000   0.00000
  10        7PY         0.00000   0.02241   0.00000   0.00000
  11        7PZ         0.10977   0.00000   0.01544  -0.18104
  12        8PX         0.00000   0.00000   0.00000   0.00000
  13        8PY         0.00000  -5.95172   0.00000   0.00000
  14        8PZ         3.77934   0.00000  -5.08861   0.25929
  15        9PX         0.00000   0.00000   0.00000   0.00000
  16        9PY         0.00000 -19.84555   0.00000   0.00000
  17        9PZ         8.47369   0.00000 -12.93422  -0.40984
  18       10D 0        0.00908   0.00000   0.00990   0.01134
  19       10D+1        0.00000   0.00000   0.00000   0.00000
  20       10D-1        0.00000  -0.01260   0.00000   0.00000
  21       10D+2       -0.03225   0.00000   0.01069  -0.03156
  22       10D-2        0.00000   0.00000   0.00000   0.00000
  23       11D 0        0.21224   0.00000  -0.02635  -0.31738
  24       11D+1        0.00000   0.00000   0.00000   0.00000
  25       11D-1        0.00000   0.25019   0.00000   0.00000
  26       11D+2        0.15798   0.00000  -0.05463   0.18625
  27       11D-2        0.00000   0.00000   0.00000   0.00000
  28       12D 0        2.90330   0.00000  -0.63562  -0.49482
  29       12D+1        0.00000   0.00000   0.00000   0.00000
  30       12D-1        0.00000   2.17284   0.00000   0.00000
  31       12D+2       -0.07682   0.00000  -0.49842  -0.65745
  32       12D-2        0.00000   0.00000   0.00000   0.00000
  33       13F 0       -0.01041   0.00000  -0.01023  -0.02748
  34       13F+1        0.00000   0.00000   0.00000   0.00000
  35       13F-1        0.00000  -0.00457   0.00000   0.00000
  36       13F+2       -0.00527   0.00000   0.00721  -0.00730
  37       13F-2        0.00000   0.00000   0.00000   0.00000
  38       13F+3        0.00000   0.00000   0.00000   0.00000
  39       13F-3        0.00000   0.00896   0.00000   0.00000
  40       14F 0        0.04296   0.00000   0.06873  -0.14380
  41       14F+1        0.00000   0.00000   0.00000   0.00000
  42       14F-1        0.00000  -0.01853   0.00000   0.00000
  43       14F+2       -0.06814   0.00000  -0.03479  -0.10259
  44       14F-2        0.00000   0.00000   0.00000   0.00000
  45       14F+3        0.00000   0.00000   0.00000   0.00000
  46       14F-3        0.00000  -0.01653   0.00000   0.00000
  47 2   S  1S          0.00671   0.00000   0.00225   0.00234
  48        2S          0.11771   0.00000   0.09207   0.02455
  49        3S          0.31127   0.00000   0.15113   0.08963
  50        4S         -0.02852   0.00000  -0.17925  -0.01265
  51        5S         -6.98380   0.00000   1.53584   1.64210
  52        6S        -11.56615   0.00000  20.52828 -12.82428
  53        7PX         0.00000   0.00000   0.00000   0.00000
  54        7PY         0.00000   0.00810   0.00000   0.00000
  55        7PZ         0.01679   0.00000   0.03063  -0.03772
  56        8PX         0.00000   0.00000   0.00000   0.00000
  57        8PY         0.00000   0.08319   0.00000   0.00000
  58        8PZ         0.50880   0.00000   0.45066  -0.78275
  59        9PX         0.00000   0.00000   0.00000   0.00000
  60        9PY         0.00000  -0.02672   0.00000   0.00000
  61        9PZ        -0.04004   0.00000  -0.10569   0.11361
  62       10PX         0.00000   0.00000   0.00000   0.00000
  63       10PY         0.00000  -0.47605   0.00000   0.00000
  64       10PZ         2.74901   0.00000  -6.03575   2.19982
  65       11PX         0.00000   0.00000   0.00000   0.00000
  66       11PY         0.00000   5.11945   0.00000   0.00000
  67       11PZ        -1.32911   0.00000  -2.00056   4.24180
  68       12D 0       -0.61301   0.00000   0.22698   0.34721
  69       12D+1        0.00000   0.00000   0.00000   0.00000
  70       12D-1        0.00000   0.12927   0.00000   0.00000
  71       12D+2        0.20177   0.00000   0.01342   0.07904
  72       12D-2        0.00000   0.00000   0.00000   0.00000
  73       13D 0        0.10498   0.00000  -0.03642  -0.00763
  74       13D+1        0.00000   0.00000   0.00000   0.00000
  75       13D-1        0.00000  -0.03459   0.00000   0.00000
  76       13D+2       -0.05355   0.00000   0.00236  -0.01736
  77       13D-2        0.00000   0.00000   0.00000   0.00000
  78       14D 0        1.20475   0.00000   1.70009  -1.22076
  79       14D+1        0.00000   0.00000   0.00000   0.00000
  80       14D-1        0.00000  -0.27288   0.00000   0.00000
  81       14D+2       -0.53176   0.00000  -0.02608   0.00517
  82       14D-2        0.00000   0.00000   0.00000   0.00000
  83       15F 0        0.03797   0.00000   0.06700  -0.05996
  84       15F+1        0.00000   0.00000   0.00000   0.00000
  85       15F-1        0.00000  -0.01333   0.00000   0.00000
  86       15F+2       -0.01468   0.00000  -0.01028   0.01462
  87       15F-2        0.00000   0.00000   0.00000   0.00000
  88       15F+3        0.00000   0.00000   0.00000   0.00000
  89       15F-3        0.00000  -0.03765   0.00000   0.00000
  90       16F 0       -0.15648   0.00000  -0.29812   0.08498
  91       16F+1        0.00000   0.00000   0.00000   0.00000
  92       16F-1        0.00000   0.03627   0.00000   0.00000
  93       16F+2        0.06668   0.00000   0.01676  -0.07647
  94       16F-2        0.00000   0.00000   0.00000   0.00000
  95       16F+3        0.00000   0.00000   0.00000   0.00000
  96       16F-3        0.00000   0.10170   0.00000   0.00000
  97 3   Br 1S          0.00024  -0.00012  -0.00021   0.00025
  98        2S          0.00227   0.00237   0.00044   0.00102
  99        3S          0.00947   0.00315  -0.00294   0.00695
 100        4S          0.03042   0.03959   0.00793   0.01241
 101        5S          0.00883   0.11550   0.04053  -0.02885
 102        6S          0.30058  -1.96176  -0.42182   0.06278
 103        7S         -4.73274 -21.48722 -10.29158  -7.25687
 104        8PX         0.00000   0.00000   0.00000   0.00000
 105        8PY        -0.00061  -0.00100  -0.00003  -0.00004
 106        8PZ         0.00001  -0.00061  -0.00025  -0.00011
 107        9PX         0.00000   0.00000   0.00000   0.00000
 108        9PY         0.01832   0.01708   0.00537   0.01770
 109        9PZ         0.01373   0.00604   0.01228   0.01083
 110       10PX         0.00000   0.00000   0.00000   0.00000
 111       10PY         0.18384   0.14989   0.06200   0.20466
 112       10PZ         0.15983   0.03992   0.13087   0.12168
 113       11PX         0.00000   0.00000   0.00000   0.00000
 114       11PY        -0.03030  -0.02764  -0.00519  -0.02480
 115       11PZ        -0.02042  -0.01238  -0.01755  -0.01420
 116       12PX         0.00000   0.00000   0.00000   0.00000
 117       12PY        -0.99348  -4.58625  -1.69327  -0.47094
 118       12PZ        -0.19799  -2.70107  -1.54953  -0.62465
 119       13PX         0.00000   0.00000   0.00000   0.00000
 120       13PY        -0.84269  -1.78041  -2.97036  -2.36482
 121       13PZ        -3.07697  -3.44370   0.33588  -1.41939
 122       14D 0        0.00097   0.00008  -0.00146  -0.00059
 123       14D+1        0.00000   0.00000   0.00000   0.00000
 124       14D-1        0.00207   0.00078   0.00087   0.00154
 125       14D+2       -0.00018   0.00098  -0.00072  -0.00070
 126       14D-2        0.00000   0.00000   0.00000   0.00000
 127       15D 0       -0.01178  -0.00314   0.01526   0.01015
 128       15D+1        0.00000   0.00000   0.00000   0.00000
 129       15D-1       -0.02791   0.00630  -0.00824  -0.02292
 130       15D+2       -0.00063  -0.02124   0.00688   0.01250
 131       15D-2        0.00000   0.00000   0.00000   0.00000
 132       16D 0        0.06031   0.01647  -0.05268  -0.06711
 133       16D+1        0.00000   0.00000   0.00000   0.00000
 134       16D-1        0.17111  -0.14848   0.03134   0.19814
 135       16D+2       -0.01061   0.16635  -0.02290  -0.12864
 136       16D-2        0.00000   0.00000   0.00000   0.00000
 137       17D 0       -0.19904   0.17118   0.06202   0.04712
 138       17D+1        0.00000   0.00000   0.00000   0.00000
 139       17D-1       -0.29951  -1.13101  -0.72600  -0.40256
 140       17D+2        0.28384   0.79636   0.48043   0.11527
 141       17D-2        0.00000   0.00000   0.00000   0.00000
 142       18F 0        0.00242  -0.02769   0.00935   0.00225
 143       18F+1        0.00000   0.00000   0.00000   0.00000
 144       18F-1        0.00004   0.01030   0.00400   0.00256
 145       18F+2        0.01838  -0.01508  -0.01426   0.00305
 146       18F-2        0.00000   0.00000   0.00000   0.00000
 147       18F+3        0.00000   0.00000   0.00000   0.00000
 148       18F-3       -0.02745  -0.02974  -0.00537   0.00485
 149       19F 0       -0.05161   0.12643  -0.00420  -0.02814
 150       19F+1        0.00000   0.00000   0.00000   0.00000
 151       19F-1       -0.00218  -0.05112  -0.02051  -0.00393
 152       19F+2       -0.05579   0.12438   0.06728  -0.04106
 153       19F-2        0.00000   0.00000   0.00000   0.00000
 154       19F+3        0.00000   0.00000   0.00000   0.00000
 155       19F-3        0.06716   0.12251   0.02622  -0.03432
 156 4   Br 1S          0.00024   0.00012  -0.00021   0.00025
 157        2S          0.00227  -0.00237   0.00044   0.00102
 158        3S          0.00947  -0.00315  -0.00294   0.00695
 159        4S          0.03042  -0.03959   0.00793   0.01241
 160        5S          0.00883  -0.11550   0.04053  -0.02885
 161        6S          0.30058   1.96176  -0.42182   0.06278
 162        7S         -4.73274  21.48722 -10.29158  -7.25687
 163        8PX         0.00000   0.00000   0.00000   0.00000
 164        8PY         0.00061  -0.00100   0.00003   0.00004
 165        8PZ         0.00001   0.00061  -0.00025  -0.00011
 166        9PX         0.00000   0.00000   0.00000   0.00000
 167        9PY        -0.01832   0.01708  -0.00537  -0.01770
 168        9PZ         0.01373  -0.00604   0.01228   0.01083
 169       10PX         0.00000   0.00000   0.00000   0.00000
 170       10PY        -0.18384   0.14989  -0.06200  -0.20466
 171       10PZ         0.15983  -0.03992   0.13087   0.12168
 172       11PX         0.00000   0.00000   0.00000   0.00000
 173       11PY         0.03030  -0.02764   0.00519   0.02480
 174       11PZ        -0.02042   0.01238  -0.01755  -0.01420
 175       12PX         0.00000   0.00000   0.00000   0.00000
 176       12PY         0.99348  -4.58625   1.69327   0.47094
 177       12PZ        -0.19799   2.70107  -1.54953  -0.62465
 178       13PX         0.00000   0.00000   0.00000   0.00000
 179       13PY         0.84269  -1.78041   2.97036   2.36482
 180       13PZ        -3.07697   3.44370   0.33588  -1.41939
 181       14D 0        0.00097  -0.00008  -0.00146  -0.00059
 182       14D+1        0.00000   0.00000   0.00000   0.00000
 183       14D-1       -0.00207   0.00078  -0.00087  -0.00154
 184       14D+2       -0.00018  -0.00098  -0.00072  -0.00070
 185       14D-2        0.00000   0.00000   0.00000   0.00000
 186       15D 0       -0.01178   0.00314   0.01526   0.01015
 187       15D+1        0.00000   0.00000   0.00000   0.00000
 188       15D-1        0.02791   0.00630   0.00824   0.02292
 189       15D+2       -0.00063   0.02124   0.00688   0.01250
 190       15D-2        0.00000   0.00000   0.00000   0.00000
 191       16D 0        0.06031  -0.01647  -0.05268  -0.06711
 192       16D+1        0.00000   0.00000   0.00000   0.00000
 193       16D-1       -0.17111  -0.14848  -0.03134  -0.19814
 194       16D+2       -0.01061  -0.16635  -0.02290  -0.12864
 195       16D-2        0.00000   0.00000   0.00000   0.00000
 196       17D 0       -0.19904  -0.17118   0.06202   0.04712
 197       17D+1        0.00000   0.00000   0.00000   0.00000
 198       17D-1        0.29951  -1.13101   0.72600   0.40256
 199       17D+2        0.28384  -0.79636   0.48043   0.11527
 200       17D-2        0.00000   0.00000   0.00000   0.00000
 201       18F 0        0.00242   0.02769   0.00935   0.00225
 202       18F+1        0.00000   0.00000   0.00000   0.00000
 203       18F-1       -0.00004   0.01030  -0.00400  -0.00256
 204       18F+2        0.01838   0.01508  -0.01426   0.00305
 205       18F-2        0.00000   0.00000   0.00000   0.00000
 206       18F+3        0.00000   0.00000   0.00000   0.00000
 207       18F-3        0.02745  -0.02974   0.00537  -0.00485
 208       19F 0       -0.05161  -0.12643  -0.00420  -0.02814
 209       19F+1        0.00000   0.00000   0.00000   0.00000
 210       19F-1        0.00218  -0.05112   0.02051   0.00393
 211       19F+2       -0.05579  -0.12438   0.06728  -0.04106
 212       19F-2        0.00000   0.00000   0.00000   0.00000
 213       19F+3        0.00000   0.00000   0.00000   0.00000
 214       19F-3       -0.06716   0.12251  -0.02622   0.03432
          Condensed to atoms (all electrons):
              1          2          3          4
     1  C    6.374311  -0.035290  -0.090270  -0.090270
     2  S   -0.035290  16.461074  -0.191730  -0.191730
     3  Br  -0.090270  -0.191730  35.319330  -0.137733
     4  Br  -0.090270  -0.191730  -0.137733  35.319330
 Mulliken atomic charges:
              1
     1  C   -0.158481
     2  S   -0.042324
     3  Br   0.100403
     4  Br   0.100403
 Sum of Mulliken atomic charges =   0.00000
 Mulliken charges with hydrogens summed into heavy atoms:
              1
     1  C   -0.158481
     2  S   -0.042324
     3  Br   0.100403
     4  Br   0.100403
 Sum of Mulliken charges with hydrogens summed into heavy atoms =   0.00000
 Electronic spatial extent (au):  <R**2>=           1430.4346
 Charge=              0.0000 electrons
 Dipole moment (field-independent basis, Debye):
    X=              0.0000    Y=              0.0000    Z=             -0.4272  Tot=              0.4272
 Quadrupole moment (field-independent basis, Debye-Ang):
   XX=            -54.9273   YY=            -53.8510   ZZ=            -53.8086
   XY=              0.0000   XZ=              0.0000   YZ=              0.0000
 Traceless Quadrupole moment (field-independent basis, Debye-Ang):
   XX=             -0.7317   YY=              0.3446   ZZ=              0.3871
   XY=              0.0000   XZ=              0.0000   YZ=              0.0000
 Octapole moment (field-independent basis, Debye-Ang**2):
  XXX=              0.0000  YYY=              0.0000  ZZZ=            141.7902  XYY=              0.0000
  XXY=              0.0000  XXZ=             47.9620  XZZ=              0.0000  YZZ=              0.0000
  YYZ=             35.6312  XYZ=              0.0000
 Hexadecapole moment (field-independent basis, Debye-Ang**3):
 XXXX=            -67.1678 YYYY=           -572.6698 ZZZZ=           -699.3070 XXXY=              0.0000
 XXXZ=              0.0000 YYYX=              0.0000 YYYZ=              0.0000 ZZZX=              0.0000
 ZZZY=              0.0000 XXYY=           -113.5665 XXZZ=           -130.2371 YYZZ=           -194.8177
 XXYZ=              0.0000 YYXZ=              0.0000 ZZXY=              0.0000
 N-N= 5.483054370210D+02 E-N=-1.443785869559D+04  KE= 5.579876732077D+03
 1\1\GINC-TRAPISTA\SP\RQCISD-FC\Aug-CC-pVTZ\C1Br2S1\BRUNS\29-Nov-2021\0
 \\# qcisd/aug-cc-pvtz nosymm density=current output=wfn\\br2cs-wavefun
 ction\\0,1\C,0,0.,0.,-0.519451\S,0,0.,0.,1.073692\Br,0,0.,-1.568516,-1
 .57857\Br,0,0.,1.568516,-1.57857\\Version=EM64L-G09RevB.01\HF=-5580.30
 89457\MP2=-5581.1186714\MP3=-5581.1310085\MP4D=-5581.1548673\MP4DQ=-55
 81.1314747\MP4SDQ=-5581.141047\QCISD=-5581.1375153\RMSD=3.188e-09\Dipo
 le=0.,0.,-0.1680921\Quadrupole=-0.543999,0.2562245,0.2877745,0.,0.,0.\
 PG=C02V [C2(C1S1),SGV(Br2)]\\@

 Writing a WFN file to GAUSSIAN.wfn.


 ALL THINGS ARE POSSIBLE EXCEPT SKIING THROUGH A REVOLVING DOOR.
 Job cpu time:  0 days  5 hours 57 minutes 19.8 seconds.
 File lengths (MBytes):  RWF=  25271 Int=      0 D2E=      0 Chk=      4 Scr=      1
 Normal termination of Gaussian 09 at Mon Nov 29 09:57:29 2021.
