 br2cs-wavefunction
GAUSSIAN            214 MOL ORBITALS    620 PRIMITIVES        4 NUCLEI
  C    1    (CENTRE  1)   0.00000000  0.00000000 -0.98162013  CHARGE =  6.0
  S    2    (CENTRE  2)   0.00000000  0.00000000  2.04788109  CHARGE = 16.0
  Br   3    (CENTRE  3)   0.00000000 -2.96406568 -2.98306498  CHARGE = 35.0
  Br   4    (CENTRE  4)   0.00000000  2.98296294 -2.98306498  CHARGE = 35.0
CENTRE ASSIGNMENTS    1  1  1  1  1  1  1  1  1  1  1  1  1  1  1  1  1  1  1  1
CENTRE ASSIGNMENTS    1  1  1  1  1  1  1  1  1  1  1  1  1  1  1  1  1  1  1  1
CENTRE ASSIGNMENTS    1  1  1  1  1  1  1  1  1  1  1  1  1  1  1  1  1  1  1  1
CENTRE ASSIGNMENTS    1  1  1  1  1  1  1  1  1  1  1  1  2  2  2  2  2  2  2  2
CENTRE ASSIGNMENTS    2  2  2  2  2  2  2  2  2  2  2  2  2  2  2  2  2  2  2  2
CENTRE ASSIGNMENTS    2  2  2  2  2  2  2  2  2  2  2  2  2  2  2  2  2  2  2  2
CENTRE ASSIGNMENTS    2  2  2  2  2  2  2  2  2  2  2  2  2  2  2  2  2  2  2  2
CENTRE ASSIGNMENTS    2  2  2  2  2  2  2  2  2  2  2  2  2  2  2  2  2  2  2  2
CENTRE ASSIGNMENTS    2  2  2  2  2  2  2  2  2  2  2  2  2  2  2  2  2  2  2  2
CENTRE ASSIGNMENTS    2  2  2  2  2  2  3  3  3  3  3  3  3  3  3  3  3  3  3  3
CENTRE ASSIGNMENTS    3  3  3  3  3  3  3  3  3  3  3  3  3  3  3  3  3  3  3  3
CENTRE ASSIGNMENTS    3  3  3  3  3  3  3  3  3  3  3  3  3  3  3  3  3  3  3  3
CENTRE ASSIGNMENTS    3  3  3  3  3  3  3  3  3  3  3  3  3  3  3  3  3  3  3  3
CENTRE ASSIGNMENTS    3  3  3  3  3  3  3  3  3  3  3  3  3  3  3  3  3  3  3  3
CENTRE ASSIGNMENTS    3  3  3  3  3  3  3  3  3  3  3  3  3  3  3  3  3  3  3  3
CENTRE ASSIGNMENTS    3  3  3  3  3  3  3  3  3  3  3  3  3  3  3  3  3  3  3  3
CENTRE ASSIGNMENTS    3  3  3  3  3  3  3  3  3  3  3  3  3  3  3  3  3  3  3  3
CENTRE ASSIGNMENTS    3  3  3  3  3  3  3  3  3  3  3  3  3  3  3  3  3  3  3  3
CENTRE ASSIGNMENTS    3  3  3  3  3  3  3  3  3  3  3  3  3  3  3  3  3  3  3  3
CENTRE ASSIGNMENTS    3  3  3  3  3  3  3  3  3  3  3  3  3  3  3  3  3  3  3  3
CENTRE ASSIGNMENTS    3  3  3  4  4  4  4  4  4  4  4  4  4  4  4  4  4  4  4  4
CENTRE ASSIGNMENTS    4  4  4  4  4  4  4  4  4  4  4  4  4  4  4  4  4  4  4  4
CENTRE ASSIGNMENTS    4  4  4  4  4  4  4  4  4  4  4  4  4  4  4  4  4  4  4  4
CENTRE ASSIGNMENTS    4  4  4  4  4  4  4  4  4  4  4  4  4  4  4  4  4  4  4  4
CENTRE ASSIGNMENTS    4  4  4  4  4  4  4  4  4  4  4  4  4  4  4  4  4  4  4  4
CENTRE ASSIGNMENTS    4  4  4  4  4  4  4  4  4  4  4  4  4  4  4  4  4  4  4  4
CENTRE ASSIGNMENTS    4  4  4  4  4  4  4  4  4  4  4  4  4  4  4  4  4  4  4  4
CENTRE ASSIGNMENTS    4  4  4  4  4  4  4  4  4  4  4  4  4  4  4  4  4  4  4  4
CENTRE ASSIGNMENTS    4  4  4  4  4  4  4  4  4  4  4  4  4  4  4  4  4  4  4  4
CENTRE ASSIGNMENTS    4  4  4  4  4  4  4  4  4  4  4  4  4  4  4  4  4  4  4  4
CENTRE ASSIGNMENTS    4  4  4  4  4  4  4  4  4  4  4  4  4  4  4  4  4  4  4  4
TYPE ASSIGNMENTS      1  1  1  1  1  1  1  1  1  1  1  1  1  1  1  1  2  2  2  3
TYPE ASSIGNMENTS      3  3  4  4  4  2  3  4  2  3  4  2  3  4  5  6  7  8  9 10
TYPE ASSIGNMENTS      5  6  7  8  9 10  5  6  7  8  9 10 11 12 13 17 14 15 18 19
TYPE ASSIGNMENTS     16 20 11 12 13 17 14 15 18 19 16 20  1  1  1  1  1  1  1  1
TYPE ASSIGNMENTS      1  1  1  1  1  1  1  1  1  1  1  1  1  1  1  1  1  1  1  1
TYPE ASSIGNMENTS      1  1  1  2  2  2  2  2  2  3  3  3  3  3  3  4  4  4  4  4
TYPE ASSIGNMENTS      4  2  2  2  2  2  2  3  3  3  3  3  3  4  4  4  4  4  4  2
TYPE ASSIGNMENTS      3  4  2  3  4  2  3  4  5  6  7  8  9 10  5  6  7  8  9 10
TYPE ASSIGNMENTS      5  6  7  8  9 10 11 12 13 17 14 15 18 19 16 20 11 12 13 17
TYPE ASSIGNMENTS     14 15 18 19 16 20  1  1  1  1  1  1  1  1  1  1  1  1  1  1
TYPE ASSIGNMENTS      1  1  1  1  1  1  1  1  1  1  1  1  1  1  1  1  1  1  1  1
TYPE ASSIGNMENTS      1  1  1  1  1  1  1  1  1  1  1  1  1  1  1  1  2  2  2  2
TYPE ASSIGNMENTS      2  2  2  2  2  3  3  3  3  3  3  3  3  3  4  4  4  4  4  4
TYPE ASSIGNMENTS      4  4  4  2  2  2  2  2  2  2  2  2  3  3  3  3  3  3  3  3
TYPE ASSIGNMENTS      3  4  4  4  4  4  4  4  4  4  2  2  2  2  2  2  2  2  3  3
TYPE ASSIGNMENTS      3  3  3  3  3  3  4  4  4  4  4  4  4  4  2  3  4  2  3  4
TYPE ASSIGNMENTS      2  3  4  5  5  5  5  5  5  5  6  6  6  6  6  6  6  7  7  7
TYPE ASSIGNMENTS      7  7  7  7  8  8  8  8  8  8  8  9  9  9  9  9  9  9 10 10
TYPE ASSIGNMENTS     10 10 10 10 10  5  6  7  8  9 10  5  6  7  8  9 10  5  6  7
TYPE ASSIGNMENTS      8  9 10 11 12 13 17 14 15 18 19 16 20 11 12 13 17 14 15 18
TYPE ASSIGNMENTS     19 16 20  1  1  1  1  1  1  1  1  1  1  1  1  1  1  1  1  1
TYPE ASSIGNMENTS      1  1  1  1  1  1  1  1  1  1  1  1  1  1  1  1  1  1  1  1
TYPE ASSIGNMENTS      1  1  1  1  1  1  1  1  1  1  1  1  1  2  2  2  2  2  2  2
TYPE ASSIGNMENTS      2  2  3  3  3  3  3  3  3  3  3  4  4  4  4  4  4  4  4  4
TYPE ASSIGNMENTS      2  2  2  2  2  2  2  2  2  3  3  3  3  3  3  3  3  3  4  4
TYPE ASSIGNMENTS      4  4  4  4  4  4  4  2  2  2  2  2  2  2  2  3  3  3  3  3
TYPE ASSIGNMENTS      3  3  3  4  4  4  4  4  4  4  4  2  3  4  2  3  4  2  3  4
TYPE ASSIGNMENTS      5  5  5  5  5  5  5  6  6  6  6  6  6  6  7  7  7  7  7  7
TYPE ASSIGNMENTS      7  8  8  8  8  8  8  8  9  9  9  9  9  9  9 10 10 10 10 10
TYPE ASSIGNMENTS     10 10  5  6  7  8  9 10  5  6  7  8  9 10  5  6  7  8  9 10
TYPE ASSIGNMENTS     11 12 13 17 14 15 18 19 16 20 11 12 13 17 14 15 18 19 16 20
EXPONENTS  0.8236000D+04 0.1235000D+04 0.2808000D+03 0.7927000D+02 0.2559000D+02
EXPONENTS  0.8997000D+01 0.3319000D+01 0.2808000D+03 0.7927000D+02 0.2559000D+02
EXPONENTS  0.8997000D+01 0.3319000D+01 0.3643000D+00 0.9059000D+00 0.1285000D+00
EXPONENTS  0.4402000D-01 0.1871000D+02 0.4133000D+01 0.1200000D+01 0.1871000D+02
EXPONENTS  0.4133000D+01 0.1200000D+01 0.1871000D+02 0.4133000D+01 0.1200000D+01
EXPONENTS  0.3827000D+00 0.3827000D+00 0.3827000D+00 0.1209000D+00 0.1209000D+00
EXPONENTS  0.1209000D+00 0.3569000D-01 0.3569000D-01 0.3569000D-01 0.1097000D+01
EXPONENTS  0.1097000D+01 0.1097000D+01 0.1097000D+01 0.1097000D+01 0.1097000D+01
EXPONENTS  0.3180000D+00 0.3180000D+00 0.3180000D+00 0.3180000D+00 0.3180000D+00
EXPONENTS  0.3180000D+00 0.1000000D+00 0.1000000D+00 0.1000000D+00 0.1000000D+00
EXPONENTS  0.1000000D+00 0.1000000D+00 0.7610000D+00 0.7610000D+00 0.7610000D+00
EXPONENTS  0.7610000D+00 0.7610000D+00 0.7610000D+00 0.7610000D+00 0.7610000D+00
EXPONENTS  0.7610000D+00 0.7610000D+00 0.2680000D+00 0.2680000D+00 0.2680000D+00
EXPONENTS  0.2680000D+00 0.2680000D+00 0.2680000D+00 0.2680000D+00 0.2680000D+00
EXPONENTS  0.2680000D+00 0.2680000D+00 0.3741000D+06 0.5605000D+05 0.1276000D+05
EXPONENTS  0.3615000D+04 0.1183000D+04 0.4288000D+03 0.1678000D+03 0.6947000D+02
EXPONENTS  0.2984000D+02 0.1272000D+02 0.5244000D+01 0.3615000D+04 0.1183000D+04
EXPONENTS  0.4288000D+03 0.1678000D+03 0.6947000D+02 0.2984000D+02 0.1272000D+02
EXPONENTS  0.5244000D+01 0.2219000D+01 0.1183000D+04 0.1678000D+03 0.6947000D+02
EXPONENTS  0.2984000D+02 0.1272000D+02 0.5244000D+01 0.2219000D+01 0.3490000D+00
EXPONENTS  0.7767000D+00 0.1322000D+00 0.4970000D-01 0.5744000D+03 0.1358000D+03
EXPONENTS  0.4319000D+02 0.1587000D+02 0.6208000D+01 0.2483000D+01 0.5744000D+03
EXPONENTS  0.1358000D+03 0.4319000D+02 0.1587000D+02 0.6208000D+01 0.2483000D+01
EXPONENTS  0.5744000D+03 0.1358000D+03 0.4319000D+02 0.1587000D+02 0.6208000D+01
EXPONENTS  0.2483000D+01 0.1358000D+03 0.4319000D+02 0.1587000D+02 0.6208000D+01
EXPONENTS  0.2483000D+01 0.3229000D+00 0.1358000D+03 0.4319000D+02 0.1587000D+02
EXPONENTS  0.6208000D+01 0.2483000D+01 0.3229000D+00 0.1358000D+03 0.4319000D+02
EXPONENTS  0.1587000D+02 0.6208000D+01 0.2483000D+01 0.3229000D+00 0.8688000D+00
EXPONENTS  0.8688000D+00 0.8688000D+00 0.1098000D+00 0.1098000D+00 0.1098000D+00
EXPONENTS  0.3510000D-01 0.3510000D-01 0.3510000D-01 0.2690000D+00 0.2690000D+00
EXPONENTS  0.2690000D+00 0.2690000D+00 0.2690000D+00 0.2690000D+00 0.8190000D+00
EXPONENTS  0.8190000D+00 0.8190000D+00 0.8190000D+00 0.8190000D+00 0.8190000D+00
EXPONENTS  0.1010000D+00 0.1010000D+00 0.1010000D+00 0.1010000D+00 0.1010000D+00
EXPONENTS  0.1010000D+00 0.5570000D+00 0.5570000D+00 0.5570000D+00 0.5570000D+00
EXPONENTS  0.5570000D+00 0.5570000D+00 0.5570000D+00 0.5570000D+00 0.5570000D+00
EXPONENTS  0.5570000D+00 0.2180000D+00 0.2180000D+00 0.2180000D+00 0.2180000D+00
EXPONENTS  0.2180000D+00 0.2180000D+00 0.2180000D+00 0.2180000D+00 0.2180000D+00
EXPONENTS  0.2180000D+00 0.1063900D+08 0.1593400D+07 0.3626100D+06 0.1027000D+06
EXPONENTS  0.3350100D+05 0.1209300D+05 0.4715900D+04 0.1955600D+04 0.8526100D+03
EXPONENTS  0.3876700D+03 0.1826800D+03 0.8824500D+02 0.3926300D+02 0.9405700D+01
EXPONENTS  0.1899500D+01 0.3350100D+05 0.1209300D+05 0.4715900D+04 0.1955600D+04
EXPONENTS  0.8526100D+03 0.3876700D+03 0.1826800D+03 0.8824500D+02 0.3926300D+02
EXPONENTS  0.1923400D+02 0.9405700D+01 0.1899500D+01 0.4715900D+04 0.8526100D+03
EXPONENTS  0.3876700D+03 0.1826800D+03 0.8824500D+02 0.3926300D+02 0.1923400D+02
EXPONENTS  0.9405700D+01 0.4160100D+01 0.1899500D+01 0.4715900D+04 0.8526100D+03
EXPONENTS  0.3876700D+03 0.8824500D+02 0.3926300D+02 0.1923400D+02 0.9405700D+01
EXPONENTS  0.4160100D+01 0.1899500D+01 0.3011400D+00 0.6047200D+00 0.1251500D+00
EXPONENTS  0.4559300D-01 0.8676500D+04 0.2055900D+04 0.6662300D+03 0.2531000D+03
EXPONENTS  0.1061200D+03 0.4724200D+02 0.2182500D+02 0.9968400D+01 0.1998200D+01
EXPONENTS  0.8676500D+04 0.2055900D+04 0.6662300D+03 0.2531000D+03 0.1061200D+03
EXPONENTS  0.4724200D+02 0.2182500D+02 0.9968400D+01 0.1998200D+01 0.8676500D+04
EXPONENTS  0.2055900D+04 0.6662300D+03 0.2531000D+03 0.1061200D+03 0.4724200D+02
EXPONENTS  0.2182500D+02 0.9968400D+01 0.1998200D+01 0.8676500D+04 0.6662300D+03
EXPONENTS  0.2531000D+03 0.1061200D+03 0.4724200D+02 0.2182500D+02 0.9968400D+01
EXPONENTS  0.4517100D+01 0.1998200D+01 0.8676500D+04 0.6662300D+03 0.2531000D+03
EXPONENTS  0.1061200D+03 0.4724200D+02 0.2182500D+02 0.9968400D+01 0.4517100D+01
EXPONENTS  0.1998200D+01 0.8676500D+04 0.6662300D+03 0.2531000D+03 0.1061200D+03
EXPONENTS  0.4724200D+02 0.2182500D+02 0.9968400D+01 0.4517100D+01 0.1998200D+01
EXPONENTS  0.6662300D+03 0.1061200D+03 0.4724200D+02 0.2182500D+02 0.9968400D+01
EXPONENTS  0.4517100D+01 0.1998200D+01 0.2814500D+00 0.6662300D+03 0.1061200D+03
EXPONENTS  0.4724200D+02 0.2182500D+02 0.9968400D+01 0.4517100D+01 0.1998200D+01
EXPONENTS  0.2814500D+00 0.6662300D+03 0.1061200D+03 0.4724200D+02 0.2182500D+02
EXPONENTS  0.9968400D+01 0.4517100D+01 0.1998200D+01 0.2814500D+00 0.7098800D+00
EXPONENTS  0.7098800D+00 0.7098800D+00 0.1020400D+00 0.1020400D+00 0.1020400D+00
EXPONENTS  0.3514200D-01 0.3514200D-01 0.3514200D-01 0.4038300D+03 0.1211700D+03
EXPONENTS  0.4634500D+02 0.1972100D+02 0.8862400D+01 0.3996200D+01 0.1763600D+01
EXPONENTS  0.4038300D+03 0.1211700D+03 0.4634500D+02 0.1972100D+02 0.8862400D+01
EXPONENTS  0.3996200D+01 0.1763600D+01 0.4038300D+03 0.1211700D+03 0.4634500D+02
EXPONENTS  0.1972100D+02 0.8862400D+01 0.3996200D+01 0.1763600D+01 0.4038300D+03
EXPONENTS  0.1211700D+03 0.4634500D+02 0.1972100D+02 0.8862400D+01 0.3996200D+01
EXPONENTS  0.1763600D+01 0.4038300D+03 0.1211700D+03 0.4634500D+02 0.1972100D+02
EXPONENTS  0.8862400D+01 0.3996200D+01 0.1763600D+01 0.4038300D+03 0.1211700D+03
EXPONENTS  0.4634500D+02 0.1972100D+02 0.8862400D+01 0.3996200D+01 0.1763600D+01
EXPONENTS  0.7061900D+00 0.7061900D+00 0.7061900D+00 0.7061900D+00 0.7061900D+00
EXPONENTS  0.7061900D+00 0.2639000D+00 0.2639000D+00 0.2639000D+00 0.2639000D+00
EXPONENTS  0.2639000D+00 0.2639000D+00 0.1047000D+00 0.1047000D+00 0.1047000D+00
EXPONENTS  0.1047000D+00 0.1047000D+00 0.1047000D+00 0.5515000D+00 0.5515000D+00
EXPONENTS  0.5515000D+00 0.5515000D+00 0.5515000D+00 0.5515000D+00 0.5515000D+00
EXPONENTS  0.5515000D+00 0.5515000D+00 0.5515000D+00 0.2580000D+00 0.2580000D+00
EXPONENTS  0.2580000D+00 0.2580000D+00 0.2580000D+00 0.2580000D+00 0.2580000D+00
EXPONENTS  0.2580000D+00 0.2580000D+00 0.2580000D+00 0.1063900D+08 0.1593400D+07
EXPONENTS  0.3626100D+06 0.1027000D+06 0.3350100D+05 0.1209300D+05 0.4715900D+04
EXPONENTS  0.1955600D+04 0.8526100D+03 0.3876700D+03 0.1826800D+03 0.8824500D+02
EXPONENTS  0.3926300D+02 0.9405700D+01 0.1899500D+01 0.3350100D+05 0.1209300D+05
EXPONENTS  0.4715900D+04 0.1955600D+04 0.8526100D+03 0.3876700D+03 0.1826800D+03
EXPONENTS  0.8824500D+02 0.3926300D+02 0.1923400D+02 0.9405700D+01 0.1899500D+01
EXPONENTS  0.4715900D+04 0.8526100D+03 0.3876700D+03 0.1826800D+03 0.8824500D+02
EXPONENTS  0.3926300D+02 0.1923400D+02 0.9405700D+01 0.4160100D+01 0.1899500D+01
EXPONENTS  0.4715900D+04 0.8526100D+03 0.3876700D+03 0.8824500D+02 0.3926300D+02
EXPONENTS  0.1923400D+02 0.9405700D+01 0.4160100D+01 0.1899500D+01 0.3011400D+00
EXPONENTS  0.6047200D+00 0.1251500D+00 0.4559300D-01 0.8676500D+04 0.2055900D+04
EXPONENTS  0.6662300D+03 0.2531000D+03 0.1061200D+03 0.4724200D+02 0.2182500D+02
EXPONENTS  0.9968400D+01 0.1998200D+01 0.8676500D+04 0.2055900D+04 0.6662300D+03
EXPONENTS  0.2531000D+03 0.1061200D+03 0.4724200D+02 0.2182500D+02 0.9968400D+01
EXPONENTS  0.1998200D+01 0.8676500D+04 0.2055900D+04 0.6662300D+03 0.2531000D+03
EXPONENTS  0.1061200D+03 0.4724200D+02 0.2182500D+02 0.9968400D+01 0.1998200D+01
EXPONENTS  0.8676500D+04 0.6662300D+03 0.2531000D+03 0.1061200D+03 0.4724200D+02
EXPONENTS  0.2182500D+02 0.9968400D+01 0.4517100D+01 0.1998200D+01 0.8676500D+04
EXPONENTS  0.6662300D+03 0.2531000D+03 0.1061200D+03 0.4724200D+02 0.2182500D+02
EXPONENTS  0.9968400D+01 0.4517100D+01 0.1998200D+01 0.8676500D+04 0.6662300D+03
EXPONENTS  0.2531000D+03 0.1061200D+03 0.4724200D+02 0.2182500D+02 0.9968400D+01
EXPONENTS  0.4517100D+01 0.1998200D+01 0.6662300D+03 0.1061200D+03 0.4724200D+02
EXPONENTS  0.2182500D+02 0.9968400D+01 0.4517100D+01 0.1998200D+01 0.2814500D+00
EXPONENTS  0.6662300D+03 0.1061200D+03 0.4724200D+02 0.2182500D+02 0.9968400D+01
EXPONENTS  0.4517100D+01 0.1998200D+01 0.2814500D+00 0.6662300D+03 0.1061200D+03
EXPONENTS  0.4724200D+02 0.2182500D+02 0.9968400D+01 0.4517100D+01 0.1998200D+01
EXPONENTS  0.2814500D+00 0.7098800D+00 0.7098800D+00 0.7098800D+00 0.1020400D+00
EXPONENTS  0.1020400D+00 0.1020400D+00 0.3514200D-01 0.3514200D-01 0.3514200D-01
EXPONENTS  0.4038300D+03 0.1211700D+03 0.4634500D+02 0.1972100D+02 0.8862400D+01
EXPONENTS  0.3996200D+01 0.1763600D+01 0.4038300D+03 0.1211700D+03 0.4634500D+02
EXPONENTS  0.1972100D+02 0.8862400D+01 0.3996200D+01 0.1763600D+01 0.4038300D+03
EXPONENTS  0.1211700D+03 0.4634500D+02 0.1972100D+02 0.8862400D+01 0.3996200D+01
EXPONENTS  0.1763600D+01 0.4038300D+03 0.1211700D+03 0.4634500D+02 0.1972100D+02
EXPONENTS  0.8862400D+01 0.3996200D+01 0.1763600D+01 0.4038300D+03 0.1211700D+03
EXPONENTS  0.4634500D+02 0.1972100D+02 0.8862400D+01 0.3996200D+01 0.1763600D+01
EXPONENTS  0.4038300D+03 0.1211700D+03 0.4634500D+02 0.1972100D+02 0.8862400D+01
EXPONENTS  0.3996200D+01 0.1763600D+01 0.7061900D+00 0.7061900D+00 0.7061900D+00
EXPONENTS  0.7061900D+00 0.7061900D+00 0.7061900D+00 0.2639000D+00 0.2639000D+00
EXPONENTS  0.2639000D+00 0.2639000D+00 0.2639000D+00 0.2639000D+00 0.1047000D+00
EXPONENTS  0.1047000D+00 0.1047000D+00 0.1047000D+00 0.1047000D+00 0.1047000D+00
EXPONENTS  0.5515000D+00 0.5515000D+00 0.5515000D+00 0.5515000D+00 0.5515000D+00
EXPONENTS  0.5515000D+00 0.5515000D+00 0.5515000D+00 0.5515000D+00 0.5515000D+00
EXPONENTS  0.2580000D+00 0.2580000D+00 0.2580000D+00 0.2580000D+00 0.2580000D+00
EXPONENTS  0.2580000D+00 0.2580000D+00 0.2580000D+00 0.2580000D+00 0.2580000D+00
MO    1     MO 0.0        OCC NO =    2.0000283  ORB. ENERGY =    0.000000
 -0.23962984D-03 -0.44671830D-03 -0.75501479D-03 -0.11349281D-02 -0.13940558D-02
 -0.11765339D-02 -0.44240749D-03 -0.38868941D-07 -0.29052125D-06 -0.10857443D-05
 -0.30290574D-05 -0.40581018D-05  0.47918616D-05 -0.19352918D-04 -0.20724239D-04
 -0.49783520D-05  0.11911715D-12  0.11167990D-12  0.79522741D-13 -0.26357333D-02
 -0.24711675D-02 -0.17596185D-02  0.37169403D-04  0.34848678D-04  0.24814335D-04
  0.12131231D-13 -0.55488083D-03  0.29089858D-05 -0.33865235D-14  0.12830530D-02
  0.53970120D-05  0.27327451D-15  0.80342474D-04  0.52143263D-06 -0.50658246D-07
 -0.82612175D-06  0.87677999D-06 -0.42459017D-14  0.38714407D-13 -0.11847794D-02
  0.38819014D-06  0.17533162D-05 -0.21415064D-05 -0.12549231D-15 -0.13989985D-13
  0.38602947D-06  0.83393118D-07  0.43724152D-06 -0.52063464D-06 -0.20768271D-14
  0.56757904D-14 -0.31993518D-03 -0.49008380D-14  0.11180916D-03 -0.10867744D-06
  0.68779606D-15  0.27454565D-03 -0.31566402D-06  0.14014718D-13 -0.60997314D-03
  0.64169633D-06  0.33689592D-14  0.28611475D-14 -0.67578198D-04  0.58095385D-06
  0.28335308D-15 -0.13806248D-03 -0.42121061D-06 -0.88667954D-14  0.34079708D-03
 -0.13216509D-05 -0.25451626D-14 -0.66355793D-03 -0.12405884D-02 -0.21441055D-02
 -0.34680022D-02 -0.52417693D-02 -0.72190015D-02 -0.84381337D-02 -0.72928057D-02
 -0.34035904D-02 -0.46111182D-03  0.33726382D-05 -0.82536688D-05 -0.10610008D-03
 -0.38703785D-03 -0.13058561D-02 -0.28682460D-02 -0.37049914D-02  0.59542365D-03
  0.49948967D-02  0.27411349D-02 -0.73433651D-07 -0.83645494D-06 -0.17367820D-05
 -0.47757094D-05  0.61922557D-06  0.21593583D-04  0.53857825D-04 -0.44582728D-04
  0.15034915D-03  0.10097442D-05 -0.11440448D-05 -0.46505492D-09 -0.61012561D-09
 -0.66917575D-09 -0.55057765D-09 -0.29023323D-09 -0.75513228D-10  0.97045396D+01
  0.12731804D+02  0.13964034D+02  0.11489186D+02  0.60564457D+01  0.15757732D+01
  0.46506180D-01  0.61013463D-01  0.66918565D-01  0.55058579D-01  0.29023752D-01
  0.75514344D-02 -0.26417812D-14 -0.94828405D-13 -0.15044764D-12 -0.17865196D-12
 -0.27034750D-13  0.19675385D-12  0.88422863D-04  0.31739945D-02  0.50356218D-02
  0.59796464D-02  0.90487811D-03 -0.65855333D-02  0.41599010D-06  0.14932227D-04
  0.23690353D-04  0.28131567D-04  0.42570476D-05 -0.30981995D-04 -0.35483740D-11
  0.67303660D-01  0.33514126D-03 -0.87792610D-14 -0.31958256D-03 -0.27648920D-05
  0.70001794D-15 -0.27920591D-04 -0.47464228D-07 -0.17808469D-05 -0.10428819D-05
  0.28237289D-05  0.16319395D-14 -0.23527218D-13  0.76512653D-03  0.91369087D-06
 -0.16344154D-05  0.72072450D-06 -0.25095915D-14  0.14519886D-13 -0.72525280D-03
 -0.42326904D-07 -0.80657528D-07  0.12298443D-06  0.44413128D-15  0.21827560D-14
 -0.41502812D-04 -0.50437130D-14  0.32952074D-05 -0.40542107D-06  0.45059030D-14
  0.13873699D-03  0.10873930D-05  0.10625236D-13 -0.14862261D-03  0.12887026D-06
  0.24860990D-14 -0.13950511D-15  0.31861293D-04 -0.24090591D-06 -0.12998708D-14
  0.26882116D-05  0.33594415D-06  0.17183861D-14 -0.98272089D-04  0.38677357D-06
 -0.13656391D-14  0.37074139D-03  0.69742039D-03  0.12072703D-02  0.19789478D-02
  0.31000520D-02  0.46596303D-02  0.66597072D-02  0.88407468D-02  0.10295688D-01
  0.94553986D-02  0.55273013D-02  0.14503316D-02  0.82459410D-04  0.14388280D-05
  0.14483441D-06  0.18652976D-04  0.53884149D-04  0.24696371D-03  0.73106638D-03
  0.21201138D-02  0.44068523D-02  0.63040545D-02  0.18075738D-02 -0.72233070D-02
 -0.69842390D-02 -0.15244169D-02  0.22065474D-04  0.12228399D-04  0.57048011D-04
  0.11577471D-03  0.45374121D-03  0.31840095D-03 -0.20735475D-02 -0.64252118D-02
 -0.78594729D-03  0.56166102D-02  0.26358750D-02 -0.96938893D-06 -0.13289553D-05
  0.25479288D-05  0.54151864D-05 -0.20470920D-04 -0.66197754D-04 -0.23022572D-04
  0.22518583D-03  0.50228113D-03 -0.33329848D-03 -0.57509443D-04  0.15376664D-02
  0.48074479D-03  0.39091663D-08  0.56090701D-08  0.74269272D-08  0.85768082D-08
  0.79523186D-08  0.51498148D-08  0.18171596D-08  0.20938014D-09 -0.34206282D-12
  0.11845072D+01  0.16995910D+01  0.22504155D+01  0.25988383D+01  0.24096132D+01
  0.15604331D+01  0.55061320D+00  0.63443778D-01 -0.10364764D-03  0.10384324D+01
  0.14899955D+01  0.19728917D+01  0.22783465D+01  0.21124569D+01  0.13679987D+01
  0.48271094D+00  0.55619818D-01 -0.90865695D-04 -0.15841116D-11  0.45165843D-11
  0.22046029D-10  0.45683564D-10  0.57328363D-10  0.90912474D-11 -0.73590575D-10
 -0.64181652D-10 -0.16498849D-10 -0.71833913D-02  0.20481128D-01  0.99971021D-01
  0.20715897D+00  0.25996406D+00  0.41225624D-01 -0.33370749D+00 -0.29104132D+00
 -0.74816502D-01 -0.64189810D-02  0.18301658D-01  0.89332748D-01  0.18511444D+00
  0.23230035D+00  0.36838658D-01 -0.29819649D+00 -0.26007057D+00 -0.66855011D-01
  0.17685089D-14  0.24984413D-14 -0.11625117D-14  0.23296844D-14  0.25574721D-14
  0.69034187D-14  0.21754496D-14 -0.46707366D-14 -0.74343245D-04 -0.10502759D-03
  0.48868790D-04 -0.97933517D-04 -0.10750908D-03 -0.29020071D-03 -0.91449910D-04
  0.19634490D-03  0.58175781D-04  0.82187187D-04 -0.38241269D-04  0.76635864D-04
  0.84129025D-04  0.22709061D-03  0.71562250D-04 -0.15364567D-03 -0.61112749D-12
 -0.30970030D-02 -0.28948971D-02 -0.39866630D-14  0.38613407D-03  0.16677050D-03
 -0.53822015D-16  0.14919495D-04  0.12355423D-04  0.14792677D+00  0.15478943D+00
  0.13188888D+00  0.86858796D-01  0.40030633D-01  0.11987238D-01  0.20395269D-02
 -0.15016024D+00 -0.15712651D+00 -0.13388019D+00 -0.88170229D-01 -0.40635034D-01
 -0.12168227D-01 -0.20703206D-02  0.22334649D-02  0.23370803D-02  0.19913175D-02
  0.13114331D-02  0.60440049D-03  0.18098870D-03  0.30793694D-04 -0.18969361D-09
 -0.19849392D-09 -0.16912745D-09 -0.11138321D-09 -0.51333205D-10 -0.15371811D-10
 -0.26153834D-11  0.32420176D-10  0.33924221D-10  0.28905252D-10  0.19036294D-10
  0.87732610D-11  0.26271672D-11  0.44699023D-12 -0.47532873D+00 -0.49738030D+00
 -0.42379463D+00 -0.27910081D+00 -0.12862925D+00 -0.38518238D-01 -0.65535516D-02
  0.65608379D-04 -0.11849919D-03  0.52890813D-04 -0.15979794D-12  0.26995138D-13
 -0.35096291D-03 -0.55197764D-04  0.56887156D-04 -0.16893921D-05  0.56718328D-14
  0.16115162D-14  0.94683459D-04 -0.15830912D-04  0.18768238D-04 -0.29373254D-05
  0.12679118D-14  0.26219863D-15  0.64006424D-04  0.13487279D-14  0.27639627D-04
  0.32024871D-04 -0.60854445D-14 -0.51867588D-04 -0.39914127D-04  0.20392609D-14
 -0.31051292D-04 -0.56160487D-04 -0.43273778D-14 -0.68952300D-15 -0.16845994D-05
 -0.12890757D-05  0.28392364D-14  0.12204029D-04  0.20090141D-05 -0.77066738D-15
 -0.71502310D-05  0.18582129D-05  0.14156894D-14 -0.41067288D-03 -0.77253753D-03
 -0.13373019D-02 -0.21920946D-02 -0.34339497D-02 -0.51615057D-02 -0.73770051D-02
 -0.97929582D-02 -0.11404607D-01 -0.10473812D-01 -0.61226311D-02 -0.16065427D-02
 -0.91340876D-04 -0.15938001D-05 -0.16043411D-06 -0.20563925D-04 -0.59404439D-04
 -0.27226450D-03 -0.80596223D-03 -0.23373139D-02 -0.48583228D-02 -0.69498885D-02
 -0.19927550D-02  0.79633160D-02  0.76997561D-02  0.16805895D-02 -0.24326024D-04
 -0.13382304D-04 -0.62431217D-04 -0.12669952D-03 -0.49655746D-03 -0.34844613D-03
  0.22692131D-02  0.70315123D-02  0.86011142D-03 -0.61466089D-02 -0.28846033D-02
  0.97217151D-06  0.13327700D-05 -0.25552424D-05 -0.54307304D-05  0.20529680D-04
  0.66387771D-04  0.23088657D-04 -0.22583221D-03 -0.50372290D-03  0.33425519D-03
  0.46762997D-04 -0.15232178D-02 -0.47515067D-03 -0.39661382D-08 -0.56908164D-08
 -0.75351667D-08 -0.87018060D-08 -0.80682152D-08 -0.52248679D-08 -0.18436427D-08
 -0.21243163D-09  0.34704802D-12  0.11966866D+01  0.17170666D+01  0.22735549D+01
  0.26255601D+01  0.24343894D+01  0.15764779D+01  0.55627474D+00  0.64096122D-01
 -0.10471337D-03 -0.10348031D+01 -0.14847879D+01 -0.19659964D+01 -0.22703837D+01
 -0.21050738D+01 -0.13632176D+01 -0.48102386D+00 -0.55425426D-01  0.90548118D-04
 -0.27479607D-11  0.78349256D-11  0.38243280D-10  0.79247348D-10  0.99447599D-10
  0.15770601D-10 -0.12765768D-09 -0.11133601D-09 -0.28620578D-10 -0.72644511D-02
  0.20712244D-01  0.10109913D+00  0.20949662D+00  0.26289757D+00  0.41690827D-01
 -0.33747316D+00 -0.29432552D+00 -0.75660756D-01  0.63960791D-02 -0.18236361D-01
 -0.89014024D-01 -0.18445398D+00 -0.23147154D+00 -0.36707224D-01  0.29713257D+00
  0.25914268D+00  0.66616483D-01  0.13942233D-13  0.19696735D-13 -0.91647879D-14
  0.18366322D-13  0.20162110D-13  0.54423855D-13  0.17150395D-13 -0.36822262D-13
 -0.71172919D-04 -0.10054875D-03  0.46784808D-04 -0.93757197D-04 -0.10292442D-03
 -0.27782526D-03 -0.87550080D-04  0.18797188D-03 -0.57805498D-04 -0.81664074D-04
  0.37997867D-04 -0.76148084D-04 -0.83593552D-04 -0.22564520D-03 -0.71106764D-04
  0.15266773D-03 -0.90715200D-12 -0.31376630D-02  0.28836615D-02 -0.26116525D-14
  0.38313836D-03 -0.16510018D-03 -0.10584189D-15  0.14763871D-04 -0.12272198D-04
 -0.14314455D+00 -0.14978535D+00 -0.12762513D+00 -0.84050799D-01 -0.38736511D-01
 -0.11599711D-01 -0.19735925D-02  0.14642690D+00  0.15321998D+00  0.13055162D+00
  0.85978113D-01  0.39624752D-01  0.11865696D-01  0.20188476D-02 -0.32823528D-02
 -0.34346285D-02 -0.29264873D-02 -0.19273131D-02 -0.88824125D-03 -0.26598528D-03
 -0.45255140D-04 -0.52132730D-10 -0.54551285D-10 -0.46480615D-10 -0.30610999D-10
 -0.14107698D-10 -0.42245730D-11 -0.71877528D-12 -0.70465765D-10 -0.73734830D-10
 -0.62826022D-10 -0.41375685D-10 -0.19068821D-10 -0.57101894D-11 -0.97154032D-12
 -0.46271308D+00 -0.48417938D+00 -0.41254675D+00 -0.27169322D+00 -0.12521532D+00
 -0.37495929D-01 -0.63796145D-02 -0.62026115D-04  0.11455727D-03 -0.52531159D-04
 -0.41506184D-13 -0.53364381D-13 -0.33919761D-03  0.55497189D-04 -0.57667642D-04
  0.21704534D-05 -0.20381283D-14  0.44241916D-15  0.96297168D-04  0.15938329D-04
 -0.19000393D-04  0.30620635D-05 -0.29769565D-14  0.14575418D-14  0.63971163D-04
  0.33509262D-14  0.28066619D-04 -0.31092628D-04 -0.88728798D-14 -0.52562368D-04
  0.38900239D-04 -0.11798988D-14 -0.31637489D-04  0.54377647D-04  0.15546866D-13
 -0.10422626D-14 -0.17606086D-05  0.13403356D-05  0.28768909D-14  0.11994398D-04
 -0.17041731D-05  0.24989684D-15 -0.67125720D-05 -0.23168336D-05 -0.33321822D-14
MO    2     MO 0.0        OCC NO =    2.0000240  ORB. ENERGY =    0.000000
 -0.58998823D-01 -0.10998569D+00 -0.18589080D+00 -0.27942855D+00 -0.34322792D+00
 -0.28967226D+00 -0.10892433D+00 -0.10367979D-04 -0.77494217D-04 -0.28961358D-03
 -0.80797680D-03 -0.10824662D-02  0.12781907D-02 -0.44813371D-02 -0.17455734D-02
 -0.31620148D-03 -0.57378619D-13 -0.53796103D-13 -0.38306030D-13  0.18047238D-04
  0.16920432D-04  0.12048356D-04  0.22872621D-02  0.21444536D-02  0.15269787D-02
 -0.85966108D-14  0.41716499D-05 -0.21875963D-03 -0.11683837D-13 -0.92602178D-05
 -0.96640854D-03 -0.45626427D-15 -0.56652312D-06  0.99316756D-06  0.12388236D-03
  0.12096743D-04 -0.13597910D-03 -0.17123356D-13 -0.33943907D-14  0.34394089D-05
  0.11874252D-03  0.12828740D-03 -0.24702993D-03 -0.99151069D-14 -0.44492932D-14
  0.71986465D-06  0.23543917D-04  0.10008262D-03 -0.12362654D-03  0.11600146D-14
 -0.97118882D-14  0.30011520D-05  0.11466326D-15 -0.81515532D-06 -0.99242538D-05
  0.31943513D-15 -0.15819398D-05 -0.90349794D-04 -0.66342491D-15  0.40274058D-05
  0.12012256D-03  0.46620709D-14 -0.49774886D-15  0.44138128D-06  0.13103528D-04
  0.45159414D-15  0.85236956D-06  0.44842488D-04  0.10416525D-14 -0.21765134D-05
 -0.84153072D-04  0.11210778D-14 -0.12705301D+00 -0.23753840D+00 -0.41053696D+00
 -0.66402661D+00 -0.10036540D+01 -0.13822394D+01 -0.16156695D+01 -0.13963708D+01
 -0.65169353D+00 -0.88290174D-01  0.64576705D-03 -0.15831674D-02 -0.20351457D-01
 -0.74239191D-01 -0.25048119D+00 -0.55016909D+00 -0.71066840D+00  0.11421046D+00
  0.95808999D+00  0.52578743D+00 -0.12725965D-04 -0.14495666D-03 -0.30098227D-03
 -0.82762481D-03  0.10731106D-03  0.37421425D-02  0.93334976D-02 -0.77261342D-02
  0.29343862D-01  0.18101162D-02  0.12903657D-03  0.21456940D-09  0.28150285D-09
  0.30874770D-09  0.25402831D-09  0.13390928D-09  0.34840676D-10 -0.58959800D-01
 -0.77351904D-01 -0.84838299D-01 -0.69802396D-01 -0.36795854D-01 -0.95735892D-02
  0.62293768D+01  0.81725880D+01  0.89635604D+01  0.73749474D+01  0.38876530D+01
  0.10114942D+01  0.12303234D-14  0.44163235D-13  0.70066080D-13  0.83201321D-13
  0.12590553D-13 -0.91631684D-13 -0.50973580D-06 -0.18297288D-04 -0.29029107D-04
 -0.34471174D-04 -0.52163971D-05  0.37963961D-04  0.57972851D-04  0.20809721D-02
  0.33015143D-02  0.39204470D-02  0.59326697D-03 -0.43176858D-02  0.16371655D-11
 -0.41577697D-03  0.45880095D-01  0.21126546D-13  0.15820552D-06 -0.77408932D-03
 -0.58859055D-17  0.16125532D-06 -0.49808149D-05 -0.24705010D-03 -0.13342238D-03
  0.38047248D-03  0.58247747D-16  0.81899220D-15 -0.42034496D-05  0.21017247D-03
 -0.39878701D-03  0.18861454D-03 -0.34647697D-14  0.19845468D-14  0.27709913D-05
 -0.54357163D-05 -0.30818196D-04  0.36253912D-04 -0.35483470D-15 -0.55975595D-14
  0.50287300D-06  0.28535863D-14  0.79467148D-07 -0.74321132D-04 -0.98693676D-15
 -0.78470127D-06  0.20828746D-03 -0.75738222D-14  0.54629982D-06  0.14675931D-04
 -0.18630306D-14 -0.83064244D-15 -0.18194543D-06 -0.20800705D-04 -0.30731954D-15
 -0.12082142D-07  0.19387562D-04  0.27992469D-14  0.55791844D-06  0.43014554D-04
  0.37596890D-15  0.58285879D-03  0.10964452D-02  0.18980026D-02  0.31111907D-02
  0.48737277D-02  0.73256092D-02  0.10470018D-01  0.13898926D-01  0.16186303D-01
  0.14865247D-01  0.86897129D-02  0.22801300D-02  0.12963805D-03  0.22620446D-05
  0.22770053D-06  0.27708632D-04  0.80043851D-04  0.36685977D-03  0.10859848D-02
  0.31493877D-02  0.65462930D-02  0.93645499D-02  0.26851156D-02 -0.10730081D-01
 -0.10374951D-01 -0.22644916D-02  0.32777830D-04  0.17567009D-04  0.81953728D-04
  0.16631901D-03  0.65183313D-03  0.45740674D-03 -0.29788058D-02 -0.92302966D-02
 -0.11290720D-02  0.80686800D-02  0.37866313D-02 -0.20135920D-06 -0.27604748D-06
  0.52924980D-06  0.11248298D-05 -0.42521716D-05 -0.13750443D-04 -0.47821948D-05
  0.46775074D-04  0.10433266D-03 -0.69231980D-04  0.84437483D-04 -0.30261728D-03
  0.73031147D-04  0.28158046D-09  0.40402593D-09  0.53496766D-09  0.61779453D-09
  0.57281204D-09  0.37094539D-09  0.13089150D-09  0.15081823D-10 -0.24639066D-13
  0.25059546D+00  0.35956708D+00  0.47610004D+00  0.54981268D+00  0.50978004D+00
  0.33012672D+00  0.11648825D+00  0.13422226D-01 -0.21927793D-04  0.31464693D+00
  0.45147138D+00  0.59778983D+00  0.69034321D+00  0.64007834D+00  0.41450614D+00
  0.14626231D+00  0.16852908D-01 -0.27532473D-04  0.51313872D-11 -0.14630499D-10