 br2cs-wavefunction
GAUSSIAN            214 MOL ORBITALS    620 PRIMITIVES        4 NUCLEI
  C    1    (CENTRE  1)   0.00000000  0.00000000 -0.96272287  CHARGE =  6.0
  S    2    (CENTRE  2)   0.00000000  0.00000000  2.04788109  CHARGE = 16.0
  Br   3    (CENTRE  3)   0.00000000 -2.96406568 -2.98306498  CHARGE = 35.0
  Br   4    (CENTRE  4)   0.00000000  2.96406568 -2.98306498  CHARGE = 35.0
CENTRE ASSIGNMENTS    1  1  1  1  1  1  1  1  1  1  1  1  1  1  1  1  1  1  1  1
CENTRE ASSIGNMENTS    1  1  1  1  1  1  1  1  1  1  1  1  1  1  1  1  1  1  1  1
CENTRE ASSIGNMENTS    1  1  1  1  1  1  1  1  1  1  1  1  1  1  1  1  1  1  1  1
CENTRE ASSIGNMENTS    1  1  1  1  1  1  1  1  1  1  1  1  2  2  2  2  2  2  2  2
CENTRE ASSIGNMENTS    2  2  2  2  2  2  2  2  2  2  2  2  2  2  2  2  2  2  2  2
CENTRE ASSIGNMENTS    2  2  2  2  2  2  2  2  2  2  2  2  2  2  2  2  2  2  2  2
CENTRE ASSIGNMENTS    2  2  2  2  2  2  2  2  2  2  2  2  2  2  2  2  2  2  2  2
CENTRE ASSIGNMENTS    2  2  2  2  2  2  2  2  2  2  2  2  2  2  2  2  2  2  2  2
CENTRE ASSIGNMENTS    2  2  2  2  2  2  2  2  2  2  2  2  2  2  2  2  2  2  2  2
CENTRE ASSIGNMENTS    2  2  2  2  2  2  3  3  3  3  3  3  3  3  3  3  3  3  3  3
CENTRE ASSIGNMENTS    3  3  3  3  3  3  3  3  3  3  3  3  3  3  3  3  3  3  3  3
CENTRE ASSIGNMENTS    3  3  3  3  3  3  3  3  3  3  3  3  3  3  3  3  3  3  3  3
CENTRE ASSIGNMENTS    3  3  3  3  3  3  3  3  3  3  3  3  3  3  3  3  3  3  3  3
CENTRE ASSIGNMENTS    3  3  3  3  3  3  3  3  3  3  3  3  3  3  3  3  3  3  3  3
CENTRE ASSIGNMENTS    3  3  3  3  3  3  3  3  3  3  3  3  3  3  3  3  3  3  3  3
CENTRE ASSIGNMENTS    3  3  3  3  3  3  3  3  3  3  3  3  3  3  3  3  3  3  3  3
CENTRE ASSIGNMENTS    3  3  3  3  3  3  3  3  3  3  3  3  3  3  3  3  3  3  3  3
CENTRE ASSIGNMENTS    3  3  3  3  3  3  3  3  3  3  3  3  3  3  3  3  3  3  3  3
CENTRE ASSIGNMENTS    3  3  3  3  3  3  3  3  3  3  3  3  3  3  3  3  3  3  3  3
CENTRE ASSIGNMENTS    3  3  3  3  3  3  3  3  3  3  3  3  3  3  3  3  3  3  3  3
CENTRE ASSIGNMENTS    3  3  3  4  4  4  4  4  4  4  4  4  4  4  4  4  4  4  4  4
CENTRE ASSIGNMENTS    4  4  4  4  4  4  4  4  4  4  4  4  4  4  4  4  4  4  4  4
CENTRE ASSIGNMENTS    4  4  4  4  4  4  4  4  4  4  4  4  4  4  4  4  4  4  4  4
CENTRE ASSIGNMENTS    4  4  4  4  4  4  4  4  4  4  4  4  4  4  4  4  4  4  4  4
CENTRE ASSIGNMENTS    4  4  4  4  4  4  4  4  4  4  4  4  4  4  4  4  4  4  4  4
CENTRE ASSIGNMENTS    4  4  4  4  4  4  4  4  4  4  4  4  4  4  4  4  4  4  4  4
CENTRE ASSIGNMENTS    4  4  4  4  4  4  4  4  4  4  4  4  4  4  4  4  4  4  4  4
CENTRE ASSIGNMENTS    4  4  4  4  4  4  4  4  4  4  4  4  4  4  4  4  4  4  4  4
CENTRE ASSIGNMENTS    4  4  4  4  4  4  4  4  4  4  4  4  4  4  4  4  4  4  4  4
CENTRE ASSIGNMENTS    4  4  4  4  4  4  4  4  4  4  4  4  4  4  4  4  4  4  4  4
CENTRE ASSIGNMENTS    4  4  4  4  4  4  4  4  4  4  4  4  4  4  4  4  4  4  4  4
TYPE ASSIGNMENTS      1  1  1  1  1  1  1  1  1  1  1  1  1  1  1  1  2  2  2  3
TYPE ASSIGNMENTS      3  3  4  4  4  2  3  4  2  3  4  2  3  4  5  6  7  8  9 10
TYPE ASSIGNMENTS      5  6  7  8  9 10  5  6  7  8  9 10 11 12 13 17 14 15 18 19
TYPE ASSIGNMENTS     16 20 11 12 13 17 14 15 18 19 16 20  1  1  1  1  1  1  1  1
TYPE ASSIGNMENTS      1  1  1  1  1  1  1  1  1  1  1  1  1  1  1  1  1  1  1  1
TYPE ASSIGNMENTS      1  1  1  2  2  2  2  2  2  3  3  3  3  3  3  4  4  4  4  4
TYPE ASSIGNMENTS      4  2  2  2  2  2  2  3  3  3  3  3  3  4  4  4  4  4  4  2
TYPE ASSIGNMENTS      3  4  2  3  4  2  3  4  5  6  7  8  9 10  5  6  7  8  9 10
TYPE ASSIGNMENTS      5  6  7  8  9 10 11 12 13 17 14 15 18 19 16 20 11 12 13 17
TYPE ASSIGNMENTS     14 15 18 19 16 20  1  1  1  1  1  1  1  1  1  1  1  1  1  1
TYPE ASSIGNMENTS      1  1  1  1  1  1  1  1  1  1  1  1  1  1  1  1  1  1  1  1
TYPE ASSIGNMENTS      1  1  1  1  1  1  1  1  1  1  1  1  1  1  1  1  2  2  2  2
TYPE ASSIGNMENTS      2  2  2  2  2  3  3  3  3  3  3  3  3  3  4  4  4  4  4  4
TYPE ASSIGNMENTS      4  4  4  2  2  2  2  2  2  2  2  2  3  3  3  3  3  3  3  3
TYPE ASSIGNMENTS      3  4  4  4  4  4  4  4  4  4  2  2  2  2  2  2  2  2  3  3
TYPE ASSIGNMENTS      3  3  3  3  3  3  4  4  4  4  4  4  4  4  2  3  4  2  3  4
TYPE ASSIGNMENTS      2  3  4  5  5  5  5  5  5  5  6  6  6  6  6  6  6  7  7  7
TYPE ASSIGNMENTS      7  7  7  7  8  8  8  8  8  8  8  9  9  9  9  9  9  9 10 10
TYPE ASSIGNMENTS     10 10 10 10 10  5  6  7  8  9 10  5  6  7  8  9 10  5  6  7
TYPE ASSIGNMENTS      8  9 10 11 12 13 17 14 15 18 19 16 20 11 12 13 17 14 15 18
TYPE ASSIGNMENTS     19 16 20  1  1  1  1  1  1  1  1  1  1  1  1  1  1  1  1  1
TYPE ASSIGNMENTS      1  1  1  1  1  1  1  1  1  1  1  1  1  1  1  1  1  1  1  1
TYPE ASSIGNMENTS      1  1  1  1  1  1  1  1  1  1  1  1  1  2  2  2  2  2  2  2
TYPE ASSIGNMENTS      2  2  3  3  3  3  3  3  3  3  3  4  4  4  4  4  4  4  4  4
TYPE ASSIGNMENTS      2  2  2  2  2  2  2  2  2  3  3  3  3  3  3  3  3  3  4  4
TYPE ASSIGNMENTS      4  4  4  4  4  4  4  2  2  2  2  2  2  2  2  3  3  3  3  3
TYPE ASSIGNMENTS      3  3  3  4  4  4  4  4  4  4  4  2  3  4  2  3  4  2  3  4
TYPE ASSIGNMENTS      5  5  5  5  5  5  5  6  6  6  6  6  6  6  7  7  7  7  7  7
TYPE ASSIGNMENTS      7  8  8  8  8  8  8  8  9  9  9  9  9  9  9 10 10 10 10 10
TYPE ASSIGNMENTS     10 10  5  6  7  8  9 10  5  6  7  8  9 10  5  6  7  8  9 10
TYPE ASSIGNMENTS     11 12 13 17 14 15 18 19 16 20 11 12 13 17 14 15 18 19 16 20
EXPONENTS  0.8236000D+04 0.1235000D+04 0.2808000D+03 0.7927000D+02 0.2559000D+02
EXPONENTS  0.8997000D+01 0.3319000D+01 0.2808000D+03 0.7927000D+02 0.2559000D+02
EXPONENTS  0.8997000D+01 0.3319000D+01 0.3643000D+00 0.9059000D+00 0.1285000D+00
EXPONENTS  0.4402000D-01 0.1871000D+02 0.4133000D+01 0.1200000D+01 0.1871000D+02
EXPONENTS  0.4133000D+01 0.1200000D+01 0.1871000D+02 0.4133000D+01 0.1200000D+01
EXPONENTS  0.3827000D+00 0.3827000D+00 0.3827000D+00 0.1209000D+00 0.1209000D+00
EXPONENTS  0.1209000D+00 0.3569000D-01 0.3569000D-01 0.3569000D-01 0.1097000D+01
EXPONENTS  0.1097000D+01 0.1097000D+01 0.1097000D+01 0.1097000D+01 0.1097000D+01
EXPONENTS  0.3180000D+00 0.3180000D+00 0.3180000D+00 0.3180000D+00 0.3180000D+00
EXPONENTS  0.3180000D+00 0.1000000D+00 0.1000000D+00 0.1000000D+00 0.1000000D+00
EXPONENTS  0.1000000D+00 0.1000000D+00 0.7610000D+00 0.7610000D+00 0.7610000D+00
EXPONENTS  0.7610000D+00 0.7610000D+00 0.7610000D+00 0.7610000D+00 0.7610000D+00
EXPONENTS  0.7610000D+00 0.7610000D+00 0.2680000D+00 0.2680000D+00 0.2680000D+00
EXPONENTS  0.2680000D+00 0.2680000D+00 0.2680000D+00 0.2680000D+00 0.2680000D+00
EXPONENTS  0.2680000D+00 0.2680000D+00 0.3741000D+06 0.5605000D+05 0.1276000D+05
EXPONENTS  0.3615000D+04 0.1183000D+04 0.4288000D+03 0.1678000D+03 0.6947000D+02
EXPONENTS  0.2984000D+02 0.1272000D+02 0.5244000D+01 0.3615000D+04 0.1183000D+04
EXPONENTS  0.4288000D+03 0.1678000D+03 0.6947000D+02 0.2984000D+02 0.1272000D+02
EXPONENTS  0.5244000D+01 0.2219000D+01 0.1183000D+04 0.1678000D+03 0.6947000D+02
EXPONENTS  0.2984000D+02 0.1272000D+02 0.5244000D+01 0.2219000D+01 0.3490000D+00
EXPONENTS  0.7767000D+00 0.1322000D+00 0.4970000D-01 0.5744000D+03 0.1358000D+03
EXPONENTS  0.4319000D+02 0.1587000D+02 0.6208000D+01 0.2483000D+01 0.5744000D+03
EXPONENTS  0.1358000D+03 0.4319000D+02 0.1587000D+02 0.6208000D+01 0.2483000D+01
EXPONENTS  0.5744000D+03 0.1358000D+03 0.4319000D+02 0.1587000D+02 0.6208000D+01
EXPONENTS  0.2483000D+01 0.1358000D+03 0.4319000D+02 0.1587000D+02 0.6208000D+01
EXPONENTS  0.2483000D+01 0.3229000D+00 0.1358000D+03 0.4319000D+02 0.1587000D+02
EXPONENTS  0.6208000D+01 0.2483000D+01 0.3229000D+00 0.1358000D+03 0.4319000D+02
EXPONENTS  0.1587000D+02 0.6208000D+01 0.2483000D+01 0.3229000D+00 0.8688000D+00
EXPONENTS  0.8688000D+00 0.8688000D+00 0.1098000D+00 0.1098000D+00 0.1098000D+00
EXPONENTS  0.3510000D-01 0.3510000D-01 0.3510000D-01 0.2690000D+00 0.2690000D+00
EXPONENTS  0.2690000D+00 0.2690000D+00 0.2690000D+00 0.2690000D+00 0.8190000D+00
EXPONENTS  0.8190000D+00 0.8190000D+00 0.8190000D+00 0.8190000D+00 0.8190000D+00
EXPONENTS  0.1010000D+00 0.1010000D+00 0.1010000D+00 0.1010000D+00 0.1010000D+00
EXPONENTS  0.1010000D+00 0.5570000D+00 0.5570000D+00 0.5570000D+00 0.5570000D+00
EXPONENTS  0.5570000D+00 0.5570000D+00 0.5570000D+00 0.5570000D+00 0.5570000D+00
EXPONENTS  0.5570000D+00 0.2180000D+00 0.2180000D+00 0.2180000D+00 0.2180000D+00
EXPONENTS  0.2180000D+00 0.2180000D+00 0.2180000D+00 0.2180000D+00 0.2180000D+00
EXPONENTS  0.2180000D+00 0.1063900D+08 0.1593400D+07 0.3626100D+06 0.1027000D+06
EXPONENTS  0.3350100D+05 0.1209300D+05 0.4715900D+04 0.1955600D+04 0.8526100D+03
EXPONENTS  0.3876700D+03 0.1826800D+03 0.8824500D+02 0.3926300D+02 0.9405700D+01
EXPONENTS  0.1899500D+01 0.3350100D+05 0.1209300D+05 0.4715900D+04 0.1955600D+04
EXPONENTS  0.8526100D+03 0.3876700D+03 0.1826800D+03 0.8824500D+02 0.3926300D+02
EXPONENTS  0.1923400D+02 0.9405700D+01 0.1899500D+01 0.4715900D+04 0.8526100D+03
EXPONENTS  0.3876700D+03 0.1826800D+03 0.8824500D+02 0.3926300D+02 0.1923400D+02
EXPONENTS  0.9405700D+01 0.4160100D+01 0.1899500D+01 0.4715900D+04 0.8526100D+03
EXPONENTS  0.3876700D+03 0.8824500D+02 0.3926300D+02 0.1923400D+02 0.9405700D+01
EXPONENTS  0.4160100D+01 0.1899500D+01 0.3011400D+00 0.6047200D+00 0.1251500D+00
EXPONENTS  0.4559300D-01 0.8676500D+04 0.2055900D+04 0.6662300D+03 0.2531000D+03
EXPONENTS  0.1061200D+03 0.4724200D+02 0.2182500D+02 0.9968400D+01 0.1998200D+01
EXPONENTS  0.8676500D+04 0.2055900D+04 0.6662300D+03 0.2531000D+03 0.1061200D+03
EXPONENTS  0.4724200D+02 0.2182500D+02 0.9968400D+01 0.1998200D+01 0.8676500D+04
EXPONENTS  0.2055900D+04 0.6662300D+03 0.2531000D+03 0.1061200D+03 0.4724200D+02
EXPONENTS  0.2182500D+02 0.9968400D+01 0.1998200D+01 0.8676500D+04 0.6662300D+03
EXPONENTS  0.2531000D+03 0.1061200D+03 0.4724200D+02 0.2182500D+02 0.9968400D+01
EXPONENTS  0.4517100D+01 0.1998200D+01 0.8676500D+04 0.6662300D+03 0.2531000D+03
EXPONENTS  0.1061200D+03 0.4724200D+02 0.2182500D+02 0.9968400D+01 0.4517100D+01
EXPONENTS  0.1998200D+01 0.8676500D+04 0.6662300D+03 0.2531000D+03 0.1061200D+03
EXPONENTS  0.4724200D+02 0.2182500D+02 0.9968400D+01 0.4517100D+01 0.1998200D+01
EXPONENTS  0.6662300D+03 0.1061200D+03 0.4724200D+02 0.2182500D+02 0.9968400D+01
EXPONENTS  0.4517100D+01 0.1998200D+01 0.2814500D+00 0.6662300D+03 0.1061200D+03
EXPONENTS  0.4724200D+02 0.2182500D+02 0.9968400D+01 0.4517100D+01 0.1998200D+01
EXPONENTS  0.2814500D+00 0.6662300D+03 0.1061200D+03 0.4724200D+02 0.2182500D+02
EXPONENTS  0.9968400D+01 0.4517100D+01 0.1998200D+01 0.2814500D+00 0.7098800D+00
EXPONENTS  0.7098800D+00 0.7098800D+00 0.1020400D+00 0.1020400D+00 0.1020400D+00
EXPONENTS  0.3514200D-01 0.3514200D-01 0.3514200D-01 0.4038300D+03 0.1211700D+03
EXPONENTS  0.4634500D+02 0.1972100D+02 0.8862400D+01 0.3996200D+01 0.1763600D+01
EXPONENTS  0.4038300D+03 0.1211700D+03 0.4634500D+02 0.1972100D+02 0.8862400D+01
EXPONENTS  0.3996200D+01 0.1763600D+01 0.4038300D+03 0.1211700D+03 0.4634500D+02
EXPONENTS  0.1972100D+02 0.8862400D+01 0.3996200D+01 0.1763600D+01 0.4038300D+03
EXPONENTS  0.1211700D+03 0.4634500D+02 0.1972100D+02 0.8862400D+01 0.3996200D+01
EXPONENTS  0.1763600D+01 0.4038300D+03 0.1211700D+03 0.4634500D+02 0.1972100D+02
EXPONENTS  0.8862400D+01 0.3996200D+01 0.1763600D+01 0.4038300D+03 0.1211700D+03
EXPONENTS  0.4634500D+02 0.1972100D+02 0.8862400D+01 0.3996200D+01 0.1763600D+01
EXPONENTS  0.7061900D+00 0.7061900D+00 0.7061900D+00 0.7061900D+00 0.7061900D+00
EXPONENTS  0.7061900D+00 0.2639000D+00 0.2639000D+00 0.2639000D+00 0.2639000D+00
EXPONENTS  0.2639000D+00 0.2639000D+00 0.1047000D+00 0.1047000D+00 0.1047000D+00
EXPONENTS  0.1047000D+00 0.1047000D+00 0.1047000D+00 0.5515000D+00 0.5515000D+00
EXPONENTS  0.5515000D+00 0.5515000D+00 0.5515000D+00 0.5515000D+00 0.5515000D+00
EXPONENTS  0.5515000D+00 0.5515000D+00 0.5515000D+00 0.2580000D+00 0.2580000D+00
EXPONENTS  0.2580000D+00 0.2580000D+00 0.2580000D+00 0.2580000D+00 0.2580000D+00
EXPONENTS  0.2580000D+00 0.2580000D+00 0.2580000D+00 0.1063900D+08 0.1593400D+07
EXPONENTS  0.3626100D+06 0.1027000D+06 0.3350100D+05 0.1209300D+05 0.4715900D+04
EXPONENTS  0.1955600D+04 0.8526100D+03 0.3876700D+03 0.1826800D+03 0.8824500D+02
EXPONENTS  0.3926300D+02 0.9405700D+01 0.1899500D+01 0.3350100D+05 0.1209300D+05
EXPONENTS  0.4715900D+04 0.1955600D+04 0.8526100D+03 0.3876700D+03 0.1826800D+03
EXPONENTS  0.8824500D+02 0.3926300D+02 0.1923400D+02 0.9405700D+01 0.1899500D+01
EXPONENTS  0.4715900D+04 0.8526100D+03 0.3876700D+03 0.1826800D+03 0.8824500D+02
EXPONENTS  0.3926300D+02 0.1923400D+02 0.9405700D+01 0.4160100D+01 0.1899500D+01
EXPONENTS  0.4715900D+04 0.8526100D+03 0.3876700D+03 0.8824500D+02 0.3926300D+02
EXPONENTS  0.1923400D+02 0.9405700D+01 0.4160100D+01 0.1899500D+01 0.3011400D+00
EXPONENTS  0.6047200D+00 0.1251500D+00 0.4559300D-01 0.8676500D+04 0.2055900D+04
EXPONENTS  0.6662300D+03 0.2531000D+03 0.1061200D+03 0.4724200D+02 0.2182500D+02
EXPONENTS  0.9968400D+01 0.1998200D+01 0.8676500D+04 0.2055900D+04 0.6662300D+03
EXPONENTS  0.2531000D+03 0.1061200D+03 0.4724200D+02 0.2182500D+02 0.9968400D+01
EXPONENTS  0.1998200D+01 0.8676500D+04 0.2055900D+04 0.6662300D+03 0.2531000D+03
EXPONENTS  0.1061200D+03 0.4724200D+02 0.2182500D+02 0.9968400D+01 0.1998200D+01
EXPONENTS  0.8676500D+04 0.6662300D+03 0.2531000D+03 0.1061200D+03 0.4724200D+02
EXPONENTS  0.2182500D+02 0.9968400D+01 0.4517100D+01 0.1998200D+01 0.8676500D+04
EXPONENTS  0.6662300D+03 0.2531000D+03 0.1061200D+03 0.4724200D+02 0.2182500D+02
EXPONENTS  0.9968400D+01 0.4517100D+01 0.1998200D+01 0.8676500D+04 0.6662300D+03
EXPONENTS  0.2531000D+03 0.1061200D+03 0.4724200D+02 0.2182500D+02 0.9968400D+01
EXPONENTS  0.4517100D+01 0.1998200D+01 0.6662300D+03 0.1061200D+03 0.4724200D+02
EXPONENTS  0.2182500D+02 0.9968400D+01 0.4517100D+01 0.1998200D+01 0.2814500D+00
EXPONENTS  0.6662300D+03 0.1061200D+03 0.4724200D+02 0.2182500D+02 0.9968400D+01
EXPONENTS  0.4517100D+01 0.1998200D+01 0.2814500D+00 0.6662300D+03 0.1061200D+03
EXPONENTS  0.4724200D+02 0.2182500D+02 0.9968400D+01 0.4517100D+01 0.1998200D+01
EXPONENTS  0.2814500D+00 0.7098800D+00 0.7098800D+00 0.7098800D+00 0.1020400D+00
EXPONENTS  0.1020400D+00 0.1020400D+00 0.3514200D-01 0.3514200D-01 0.3514200D-01
EXPONENTS  0.4038300D+03 0.1211700D+03 0.4634500D+02 0.1972100D+02 0.8862400D+01
EXPONENTS  0.3996200D+01 0.1763600D+01 0.4038300D+03 0.1211700D+03 0.4634500D+02
EXPONENTS  0.1972100D+02 0.8862400D+01 0.3996200D+01 0.1763600D+01 0.4038300D+03
EXPONENTS  0.1211700D+03 0.4634500D+02 0.1972100D+02 0.8862400D+01 0.3996200D+01
EXPONENTS  0.1763600D+01 0.4038300D+03 0.1211700D+03 0.4634500D+02 0.1972100D+02
EXPONENTS  0.8862400D+01 0.3996200D+01 0.1763600D+01 0.4038300D+03 0.1211700D+03
EXPONENTS  0.4634500D+02 0.1972100D+02 0.8862400D+01 0.3996200D+01 0.1763600D+01
EXPONENTS  0.4038300D+03 0.1211700D+03 0.4634500D+02 0.1972100D+02 0.8862400D+01
EXPONENTS  0.3996200D+01 0.1763600D+01 0.7061900D+00 0.7061900D+00 0.7061900D+00
EXPONENTS  0.7061900D+00 0.7061900D+00 0.7061900D+00 0.2639000D+00 0.2639000D+00
EXPONENTS  0.2639000D+00 0.2639000D+00 0.2639000D+00 0.2639000D+00 0.1047000D+00
EXPONENTS  0.1047000D+00 0.1047000D+00 0.1047000D+00 0.1047000D+00 0.1047000D+00
EXPONENTS  0.5515000D+00 0.5515000D+00 0.5515000D+00 0.5515000D+00 0.5515000D+00
EXPONENTS  0.5515000D+00 0.5515000D+00 0.5515000D+00 0.5515000D+00 0.5515000D+00
EXPONENTS  0.2580000D+00 0.2580000D+00 0.2580000D+00 0.2580000D+00 0.2580000D+00
EXPONENTS  0.2580000D+00 0.2580000D+00 0.2580000D+00 0.2580000D+00 0.2580000D+00
MO    1     MO 0.0        OCC NO =    2.0000282  ORB. ENERGY =    0.000000
 -0.94200546D-11 -0.17560879D-10 -0.29680279D-10 -0.44614995D-10 -0.54801530D-10
 -0.46250558D-10 -0.17391418D-10 -0.17793321D-14 -0.13299405D-13 -0.49702913D-13
 -0.13866339D-12 -0.18577071D-12  0.21936057D-12 -0.70952559D-12 -0.86625931D-13
 -0.79785359D-13  0.31189666D-12  0.29242294D-12  0.20822256D-12 -0.27204765D-02
 -0.25506197D-02 -0.18161931D-02  0.99801771D-13  0.93570504D-13  0.66627773D-13
  0.54240128D-13 -0.56957174D-03 -0.11835857D-12 -0.80645756D-14  0.12816873D-02
 -0.30968152D-12  0.78838520D-15  0.80705571D-04 -0.62408767D-14  0.51204273D-13
 -0.16001194D-13 -0.35203080D-13 -0.24545503D-14  0.55416638D-13 -0.12147257D-02
 -0.77797801D-14  0.48220219D-13 -0.40440439D-13 -0.61842943D-14 -0.48436700D-13
  0.19077306D-04  0.84492272D-15  0.38124712D-13 -0.38969635D-13  0.15116462D-14
  0.90311408D-16 -0.32511283D-03 -0.68536429D-14  0.11285046D-03 -0.53794160D-14
 -0.53098817D-14  0.27884443D-03 -0.12099610D-13  0.25870810D-13 -0.61739580D-03
  0.28237858D-13 -0.24177146D-14  0.39113043D-14 -0.68833815D-04  0.35634111D-14
  0.46382979D-14 -0.13860826D-03  0.16884445D-13 -0.16372211D-13  0.34510971D-03
 -0.27574679D-13  0.15674457D-14 -0.37193827D-10 -0.69537606D-10 -0.12018165D-09
 -0.19438887D-09 -0.29381227D-09 -0.40464033D-09 -0.47297527D-09 -0.40877721D-09
 -0.19077845D-09 -0.25846294D-10  0.18904352D-12 -0.29041657D-12 -0.37332757D-11
 -0.13618453D-10 -0.45948324D-10 -0.10092314D-09 -0.13036516D-09  0.20950791D-10
  0.17575224D-09  0.96450560D-10 -0.23104558D-14 -0.26317527D-13 -0.54644674D-13
 -0.15025897D-12  0.19482802D-13  0.67940266D-12  0.16945381D-11 -0.14027141D-11
  0.54511888D-11  0.47750486D-12  0.84556639D-13 -0.70249174D-09 -0.92162921D-09
 -0.10108278D-08 -0.83167865D-09 -0.43841369D-09 -0.11406700D-09  0.97037906D+01
  0.12730821D+02  0.13962956D+02  0.11488299D+02  0.60559782D+01  0.15756516D+01
  0.86566465D-09  0.11357028D-08  0.12456202D-08  0.10248588D-08  0.54024726D-09
  0.14056218D-09 -0.38059077D-14 -0.13661546D-12 -0.21674385D-12 -0.25737667D-12
 -0.38947874D-13  0.28345533D-12  0.88661612D-04  0.31825645D-02  0.50492184D-02
  0.59957919D-02  0.90732136D-03 -0.66033148D-02  0.85283029D-14  0.30612881D-12
  0.48568104D-12  0.57673133D-12  0.87274652D-13 -0.63516857D-12 -0.53834150D-11
  0.67372225D-01  0.63481137D-11 -0.24828404D-15 -0.31048734D-03 -0.16932361D-12
  0.89495288D-15 -0.27917249D-04 -0.29288766D-14 -0.37770132D-13 -0.17039650D-13
  0.54809782D-13 -0.63354039D-15 -0.51614887D-13  0.77584847D-03  0.33551462D-13
 -0.74129695D-13  0.40578233D-13 -0.14355728D-14  0.27016771D-13 -0.70204002D-03
  0.69327813D-16 -0.76527208D-14  0.75833930D-14 -0.38611359D-15 -0.40416842D-16
 -0.41945103D-04 -0.75088345D-14  0.35600325D-05 -0.13257695D-13  0.46406937D-14
  0.13930726D-03  0.37664096D-13  0.17885810D-13 -0.14998736D-03  0.21089881D-14
 -0.30668885D-14 -0.10547105D-14  0.32082527D-04 -0.24385142D-14 -0.28844027D-14
  0.29268639D-05  0.12595583D-14  0.60485343D-14 -0.99174445D-04  0.60559843D-14
  0.92571309D-15  0.39710178D-03  0.74700825D-03  0.12931094D-02  0.21196546D-02
  0.33204713D-02  0.49909386D-02  0.71332245D-02  0.94693401D-02  0.11027731D-01
  0.10127695D-01  0.59203026D-02  0.15534529D-02  0.88322424D-04  0.15411313D-05
  0.15513240D-06  0.19907368D-04  0.57507797D-04  0.26357175D-03  0.78022977D-03
  0.22626891D-02  0.47032082D-02  0.67279951D-02  0.19291311D-02 -0.77090663D-02
 -0.74539212D-02 -0.16269322D-02  0.23549352D-04  0.12990794D-04  0.60604739D-04
  0.12299282D-03  0.48203025D-03  0.33825204D-03 -0.22028253D-02 -0.68257994D-02
 -0.83494813D-03  0.59667846D-02  0.28002118D-02 -0.97303569D-06 -0.13339547D-05
  0.25575139D-05  0.54355579D-05 -0.20547930D-04 -0.66446785D-04 -0.23109181D-04
  0.22603296D-03  0.50417067D-03 -0.33455232D-03 -0.47636368D-04  0.15356354D-02
  0.47860345D-03 -0.11989548D-08 -0.17203212D-08 -0.22778643D-08 -0.26305368D-08
 -0.24390037D-08 -0.15794660D-08 -0.55732913D-09 -0.64217613D-10  0.10491185D-12
  0.11923766D+01  0.17108824D+01  0.22653665D+01  0.26161040D+01  0.24256217D+01
  0.15708001D+01  0.55427127D+00  0.63865274D-01 -0.10433624D-03  0.10470433D+01
  0.15023509D+01  0.19892513D+01  0.22972391D+01  0.21299738D+01  0.13793425D+01
  0.48671369D+00  0.56081030D-01 -0.91619173D-04  0.53719318D-11 -0.15316335D-10
 -0.74760999D-10 -0.15491901D-09 -0.19440806D-09 -0.30829622D-10  0.24955537D-09
  0.21764847D-09  0.55949777D-10 -0.72362577D-02  0.20631860D-01  0.10070676D+00
  0.20868356D+00  0.26187727D+00  0.41529025D-01 -0.33616342D+00 -0.29318325D+00
 -0.75367116D-01 -0.64710950D-02  0.18450245D-01  0.90058018D-01  0.18661734D+00
  0.23418634D+00  0.37137741D-01 -0.30061747D+00 -0.26218202D+00 -0.67397789D-01
  0.29664239D-14  0.41907824D-14 -0.19499491D-14  0.39077165D-14  0.42897980D-14
  0.11579510D-13  0.36490094D-14 -0.78345007D-14 -0.70921679D-04 -0.10019381D-03
  0.46619658D-04 -0.93426235D-04 -0.10256109D-03 -0.27684454D-03 -0.87241029D-04
  0.18730834D-03  0.58221977D-04  0.82252451D-04 -0.38271636D-04  0.76696720D-04
  0.84195831D-04  0.22727094D-03  0.71619077D-04 -0.15376768D-03  0.18225956D-11
 -0.31181320D-02 -0.29145879D-02  0.17895141D-13  0.38199852D-03  0.16871814D-03
 -0.81719133D-15  0.14735446D-04  0.12464503D-04  0.14438657D+00  0.15108499D+00
  0.12873250D+00  0.84780084D-01  0.39072616D-01  0.11700358D-01  0.19907168D-02
 -0.14302131D+00 -0.14965639D+00 -0.12751526D+00 -0.83978436D-01 -0.38703161D-01
 -0.11589724D-01 -0.19718933D-02 -0.13652634D-02 -0.14286011D-02 -0.12172446D-02
 -0.80164757D-03 -0.36945550D-03 -0.11063405D-03 -0.18823445D-04 -0.12510856D-09
 -0.13091262D-09 -0.11154456D-09 -0.73460528D-10 -0.33855770D-10 -0.10138165D-10
 -0.17249228D-11  0.41471829D-10  0.43395800D-10  0.36975545D-10  0.24351191D-10
  0.11222739D-10  0.33606674D-11  0.57178907D-12 -0.47122807D+00 -0.49308940D+00
 -0.42013856D+00 -0.27669300D+00 -0.12751957D+00 -0.38185941D-01 -0.64970141D-02
  0.61420719D-04 -0.11023656D-03  0.48815840D-04 -0.86778704D-13  0.46937055D-13
 -0.34373766D-03 -0.54054672D-04  0.55821231D-04 -0.17665591D-05  0.25612394D-14
 -0.13540889D-14  0.94836280D-04 -0.15602844D-04  0.18271933D-04 -0.26690886D-05
  0.17151423D-14  0.17198319D-14  0.64402792D-04 -0.24630661D-14  0.28278307D-04
  0.31620172D-04  0.73298793D-14 -0.51835728D-04 -0.39921426D-04  0.59319061D-16
 -0.32999194D-04 -0.54939090D-04  0.16499155D-13 -0.35441097D-15 -0.20484197D-05
 -0.15968780D-05  0.72891738D-15  0.12994706D-04  0.27340398D-05  0.33431551D-15
 -0.68494472D-05  0.20565941D-05 -0.12822854D-14 -0.39710175D-03 -0.74700821D-03
 -0.12931094D-02 -0.21196545D-02 -0.33204711D-02 -0.49909383D-02 -0.71332241D-02
 -0.94693395D-02 -0.11027730D-01 -0.10127694D-01 -0.59203022D-02 -0.15534528D-02
 -0.88322419D-04 -0.15411312D-05 -0.15513239D-06 -0.19907369D-04 -0.57507802D-04
 -0.26357177D-03 -0.78022984D-03 -0.22626893D-02 -0.47032085D-02 -0.67279957D-02
 -0.19291313D-02  0.77090669D-02  0.74539218D-02  0.16269324D-02 -0.23549354D-04
 -0.12990794D-04 -0.60604740D-04 -0.12299282D-03 -0.48203027D-03 -0.33825205D-03
  0.22028254D-02  0.68257996D-02  0.83494815D-03 -0.59667848D-02 -0.28002119D-02
  0.97303569D-06  0.13339547D-05 -0.25575139D-05 -0.54355579D-05  0.20547930D-04
  0.66446785D-04  0.23109181D-04 -0.22603296D-03 -0.50417067D-03  0.33455232D-03
  0.47636365D-04 -0.15356354D-02 -0.47860345D-03 -0.49285572D-08 -0.70717439D-08
 -0.93636424D-08 -0.10813377D-07 -0.10026040D-07 -0.64927289D-08 -0.22910192D-08
 -0.26398007D-09  0.43126233D-12  0.11923766D+01  0.17108824D+01  0.22653664D+01
  0.26161039D+01  0.24256217D+01  0.15708001D+01  0.55427126D+00  0.63865274D-01
 -0.10433624D-03 -0.10470433D+01 -0.15023509D+01 -0.19892514D+01 -0.22972391D+01
 -0.21299739D+01 -0.13793425D+01 -0.48671369D+00 -0.56081030D-01  0.91619174D-04
  0.13536445D-11 -0.38594816D-11 -0.18838626D-10 -0.39037215D-10 -0.48987852D-10
 -0.77685922D-11  0.62884129D-10  0.54844078D-10  0.14098486D-10 -0.72362577D-02
  0.20631860D-01  0.10070676D+00  0.20868356D+00  0.26187727D+00  0.41529025D-01
 -0.33616342D+00 -0.29318325D+00 -0.75367116D-01  0.64710951D-02 -0.18450245D-01
 -0.90058018D-01 -0.18661734D+00 -0.23418634D+00 -0.37137741D-01  0.30061747D+00
  0.26218202D+00  0.67397789D-01  0.12831132D-13  0.18127039D-13 -0.84344165D-14
  0.16902650D-13  0.18555327D-13  0.50086643D-13  0.15783624D-13 -0.33887777D-13
 -0.70921679D-04 -0.10019381D-03  0.46619658D-04 -0.93426235D-04 -0.10256109D-03
 -0.27684454D-03 -0.87241029D-04  0.18730834D-03 -0.58221977D-04 -0.82252451D-04
  0.38271636D-04 -0.76696720D-04 -0.84195831D-04 -0.22727094D-03 -0.71619077D-04
  0.15376768D-03  0.47661078D-12 -0.31181320D-02  0.29145879D-02  0.36835151D-15
  0.38199852D-03 -0.16871814D-03 -0.59043726D-15  0.14735446D-04 -0.12464503D-04
 -0.14438657D+00 -0.15108499D+00 -0.12873250D+00 -0.84780084D-01 -0.39072616D-01
 -0.11700358D-01 -0.19907168D-02  0.14302131D+00  0.14965639D+00  0.12751526D+00
  0.83978436D-01  0.38703161D-01  0.11589724D-01  0.19718933D-02  0.13652633D-02
  0.14286009D-02  0.12172444D-02  0.80164748D-03  0.36945546D-03  0.11063403D-03
  0.18823443D-04 -0.44403397D-10 -0.46463371D-10 -0.39589279D-10 -0.26072533D-10
 -0.12016054D-10 -0.35982269D-11 -0.61220780D-12 -0.10927817D-09 -0.11434783D-09
 -0.97430473D-10 -0.64165332D-10 -0.29571891D-10 -0.88553507D-11 -0.15066628D-11
 -0.47122807D+00 -0.49308940D+00 -0.42013856D+00 -0.27669301D+00 -0.12751957D+00
 -0.38185941D-01 -0.64970141D-02 -0.61420718D-04  0.11023656D-03 -0.48815840D-04
 -0.42624676D-13 -0.76678921D-13 -0.34373766D-03  0.54054672D-04 -0.55821232D-04
  0.17665591D-05 -0.49342933D-14 -0.44745636D-15  0.94836280D-04  0.15602844D-04
 -0.18271933D-04  0.26690886D-05 -0.67976439D-15  0.58065175D-15  0.64402792D-04
 -0.20727346D-15  0.28278307D-04 -0.31620172D-04  0.16413374D-14 -0.51835727D-04
  0.39921426D-04 -0.10195171D-14 -0.32999194D-04  0.54939090D-04 -0.44777903D-14
 -0.56490431D-15 -0.20484197D-05  0.15968780D-05  0.17953708D-14  0.12994706D-04
 -0.27340398D-05 -0.10065789D-15 -0.68494472D-05 -0.20565941D-05  0.53242812D-15
MO    2     MO 0.0        OCC NO =    2.0000242  ORB. ENERGY =    0.000000
 -0.60628595D-01 -0.11302391D+00 -0.19102581D+00 -0.28714743D+00 -0.35270918D+00
 -0.29767411D+00 -0.11193324D+00 -0.10720997D-04 -0.80132810D-04 -0.29947461D-03
 -0.83548752D-03 -0.11193229D-02  0.13217117D-02 -0.46091086D-02 -0.18274791D-02
 -0.33337157D-03  0.15757824D-12  0.14773961D-12  0.10519941D-12  0.11199591D-11
  0.10500328D-11  0.74768591D-12  0.24169554D-02  0.22660493D-02  0.16135621D-02
  0.12715845D-13  0.28674733D-12 -0.22013634D-03 -0.25625045D-13 -0.22967933D-12
 -0.98827738D-03  0.72989812D-15 -0.21340570D-13  0.73715974D-06  0.12431940D-03
  0.12156020D-04 -0.13647542D-03 -0.47489777D-14  0.47784853D-13  0.14896046D-12
  0.11890739D-03  0.12739242D-03 -0.24629982D-03  0.33157355D-14 -0.29266095D-13
 -0.27276325D-13  0.24202810D-04  0.10016188D-03 -0.12436469D-03  0.94713282D-15
  0.27273879D-14  0.46975346D-14 -0.81777021D-14 -0.23177029D-13 -0.10125596D-04
  0.55374099D-14 -0.28017687D-13 -0.91201944D-04  0.18995696D-13  0.97548774D-13
  0.12157873D-03  0.33108344D-14  0.56120226D-14  0.12255958D-13  0.15029873D-04
 -0.69502499D-15  0.25145962D-13  0.42745646D-04 -0.16141043D-13 -0.61913836D-13
 -0.87835267D-04 -0.28337688D-14 -0.12509485D+00 -0.23387742D+00 -0.40420969D+00
 -0.65379252D+00 -0.98818551D+00 -0.13609360D+01 -0.15907685D+01 -0.13748497D+01
 -0.64164952D+00 -0.86929430D-01  0.63581437D-03 -0.15586572D-02 -0.20036381D-01
 -0.73089837D-01 -0.24660330D+00 -0.54165150D+00 -0.69966599D+00  0.11244228D+00
  0.94325706D+00  0.51764731D+00 -0.12629212D-04 -0.14385457D-03 -0.29869395D-03
 -0.82133249D-03  0.10649519D-03  0.37136915D-02  0.92625364D-02 -0.76673934D-02
  0.28877645D-01  0.18935035D-02  0.14274038D-03 -0.48352122D-09 -0.63435235D-09
 -0.69574724D-09 -0.57243987D-09 -0.30175775D-09 -0.78511690D-10 -0.17379643D-08
 -0.22801103D-08 -0.25007875D-08 -0.20575727D-08 -0.10846353D-08 -0.28220171D-09
  0.63458047D+01  0.83253348D+01  0.91310905D+01  0.75127862D+01  0.39603137D+01
  0.10303991D+01 -0.29507186D-14 -0.10591790D-12 -0.16804141D-12 -0.19954402D-12
 -0.30196270D-13  0.21976279D-12 -0.15285969D-13 -0.54869951D-12 -0.87052552D-12
 -0.10337224D-11 -0.15642944D-12  0.11384641D-11  0.59437959D-04  0.21335630D-02
  0.33849513D-02  0.40195258D-02  0.60826020D-03 -0.44268037D-02 -0.36970075D-11
 -0.12138984D-10  0.46736736D-01  0.47583910D-14  0.10817184D-12 -0.79782145D-03
  0.53762035D-15  0.67636917D-14 -0.54365205D-05 -0.25346833D-03 -0.13960759D-03
  0.39307592D-03  0.15382156D-14 -0.42615102D-13 -0.16647560D-12  0.20417381D-03
 -0.39544240D-03  0.19126859D-03 -0.23361366D-14  0.24582421D-13  0.10060628D-12
 -0.59585404D-05 -0.31471515D-04  0.37430055D-04 -0.33530166D-15 -0.10313518D-14
 -0.43892261D-14 -0.61015538D-14 -0.28578385D-15 -0.75600670D-04  0.42867750D-14
 -0.32344302D-13  0.21159054D-03  0.14017886D-13  0.33201653D-13  0.15211473D-04
 -0.18333216D-14 -0.11345748D-14 -0.68874911D-14 -0.21455573D-04 -0.24042436D-14
 -0.10333975D-16  0.20371351D-04  0.58079679D-14  0.20672807D-13  0.43995367D-04
 -0.34905854D-16  0.58363223D-03  0.10979001D-02  0.19005212D-02  0.31153191D-02
  0.48801950D-02  0.73353301D-02  0.10483911D-01  0.13917369D-01  0.16207782D-01
  0.14884973D-01  0.87012439D-02  0.22831556D-02  0.12981008D-03  0.22650463D-05
  0.22800268D-06  0.27747935D-04  0.80157390D-04  0.36738015D-03  0.10875253D-02
  0.31538550D-02  0.65555787D-02  0.93778332D-02  0.26889243D-02 -0.10745302D-01
 -0.10389667D-01 -0.22677037D-02  0.32824325D-04  0.17590078D-04  0.82061350D-04
  0.16653742D-03  0.65268911D-03  0.45800741D-03 -0.29827176D-02 -0.92424178D-02
 -0.11305547D-02  0.80792758D-02  0.37916038D-02 -0.21479563D-06 -0.29446776D-06
  0.56456593D-06  0.11998882D-05 -0.45359133D-05 -0.14667991D-04 -0.51013042D-05
  0.49896311D-04  0.11129464D-03 -0.73851736D-04  0.82911090D-04 -0.28698118D-03
  0.78890514D-04 -0.40807987D-09 -0.58553370D-09 -0.77530072D-09 -0.89533739D-09
 -0.83014660D-09 -0.53759180D-09 -0.18969422D-09 -0.21857300D-10  0.35708112D-13
  0.25665513D+00  0.36826181D+00  0.48761266D+00  0.56310775D+00  0.52210708D+00
  0.33810954D+00  0.11930506D+00  0.13746790D-01 -0.22458031D-04  0.32274071D+00
  0.46308475D+00  0.61316700D+00  0.70810116D+00  0.65654331D+00  0.42516864D+00
  0.15002467D+00  0.17286421D-01 -0.28240701D-04 -0.23691355D-11  0.67548275D-11