 br2cs-wavefunction
GAUSSIAN            214 MOL ORBITALS    620 PRIMITIVES        4 NUCLEI
  C    1    (CENTRE  1)   0.00000000  0.00000000 -0.98162013  CHARGE =  6.0
  S    2    (CENTRE  2)   0.00000000  0.00000000  2.04788109  CHARGE = 16.0
  Br   3    (CENTRE  3)   0.00000000 -2.96406568 -2.96416772  CHARGE = 35.0
  Br   4    (CENTRE  4)   0.00000000  2.96406568 -2.98306498  CHARGE = 35.0
CENTRE ASSIGNMENTS    1  1  1  1  1  1  1  1  1  1  1  1  1  1  1  1  1  1  1  1
CENTRE ASSIGNMENTS    1  1  1  1  1  1  1  1  1  1  1  1  1  1  1  1  1  1  1  1
CENTRE ASSIGNMENTS    1  1  1  1  1  1  1  1  1  1  1  1  1  1  1  1  1  1  1  1
CENTRE ASSIGNMENTS    1  1  1  1  1  1  1  1  1  1  1  1  2  2  2  2  2  2  2  2
CENTRE ASSIGNMENTS    2  2  2  2  2  2  2  2  2  2  2  2  2  2  2  2  2  2  2  2
CENTRE ASSIGNMENTS    2  2  2  2  2  2  2  2  2  2  2  2  2  2  2  2  2  2  2  2
CENTRE ASSIGNMENTS    2  2  2  2  2  2  2  2  2  2  2  2  2  2  2  2  2  2  2  2
CENTRE ASSIGNMENTS    2  2  2  2  2  2  2  2  2  2  2  2  2  2  2  2  2  2  2  2
CENTRE ASSIGNMENTS    2  2  2  2  2  2  2  2  2  2  2  2  2  2  2  2  2  2  2  2
CENTRE ASSIGNMENTS    2  2  2  2  2  2  3  3  3  3  3  3  3  3  3  3  3  3  3  3
CENTRE ASSIGNMENTS    3  3  3  3  3  3  3  3  3  3  3  3  3  3  3  3  3  3  3  3
CENTRE ASSIGNMENTS    3  3  3  3  3  3  3  3  3  3  3  3  3  3  3  3  3  3  3  3
CENTRE ASSIGNMENTS    3  3  3  3  3  3  3  3  3  3  3  3  3  3  3  3  3  3  3  3
CENTRE ASSIGNMENTS    3  3  3  3  3  3  3  3  3  3  3  3  3  3  3  3  3  3  3  3
CENTRE ASSIGNMENTS    3  3  3  3  3  3  3  3  3  3  3  3  3  3  3  3  3  3  3  3
CENTRE ASSIGNMENTS    3  3  3  3  3  3  3  3  3  3  3  3  3  3  3  3  3  3  3  3
CENTRE ASSIGNMENTS    3  3  3  3  3  3  3  3  3  3  3  3  3  3  3  3  3  3  3  3
CENTRE ASSIGNMENTS    3  3  3  3  3  3  3  3  3  3  3  3  3  3  3  3  3  3  3  3
CENTRE ASSIGNMENTS    3  3  3  3  3  3  3  3  3  3  3  3  3  3  3  3  3  3  3  3
CENTRE ASSIGNMENTS    3  3  3  3  3  3  3  3  3  3  3  3  3  3  3  3  3  3  3  3
CENTRE ASSIGNMENTS    3  3  3  4  4  4  4  4  4  4  4  4  4  4  4  4  4  4  4  4
CENTRE ASSIGNMENTS    4  4  4  4  4  4  4  4  4  4  4  4  4  4  4  4  4  4  4  4
CENTRE ASSIGNMENTS    4  4  4  4  4  4  4  4  4  4  4  4  4  4  4  4  4  4  4  4
CENTRE ASSIGNMENTS    4  4  4  4  4  4  4  4  4  4  4  4  4  4  4  4  4  4  4  4
CENTRE ASSIGNMENTS    4  4  4  4  4  4  4  4  4  4  4  4  4  4  4  4  4  4  4  4
CENTRE ASSIGNMENTS    4  4  4  4  4  4  4  4  4  4  4  4  4  4  4  4  4  4  4  4
CENTRE ASSIGNMENTS    4  4  4  4  4  4  4  4  4  4  4  4  4  4  4  4  4  4  4  4
CENTRE ASSIGNMENTS    4  4  4  4  4  4  4  4  4  4  4  4  4  4  4  4  4  4  4  4
CENTRE ASSIGNMENTS    4  4  4  4  4  4  4  4  4  4  4  4  4  4  4  4  4  4  4  4
CENTRE ASSIGNMENTS    4  4  4  4  4  4  4  4  4  4  4  4  4  4  4  4  4  4  4  4
CENTRE ASSIGNMENTS    4  4  4  4  4  4  4  4  4  4  4  4  4  4  4  4  4  4  4  4
TYPE ASSIGNMENTS      1  1  1  1  1  1  1  1  1  1  1  1  1  1  1  1  2  2  2  3
TYPE ASSIGNMENTS      3  3  4  4  4  2  3  4  2  3  4  2  3  4  5  6  7  8  9 10
TYPE ASSIGNMENTS      5  6  7  8  9 10  5  6  7  8  9 10 11 12 13 17 14 15 18 19
TYPE ASSIGNMENTS     16 20 11 12 13 17 14 15 18 19 16 20  1  1  1  1  1  1  1  1
TYPE ASSIGNMENTS      1  1  1  1  1  1  1  1  1  1  1  1  1  1  1  1  1  1  1  1
TYPE ASSIGNMENTS      1  1  1  2  2  2  2  2  2  3  3  3  3  3  3  4  4  4  4  4
TYPE ASSIGNMENTS      4  2  2  2  2  2  2  3  3  3  3  3  3  4  4  4  4  4  4  2
TYPE ASSIGNMENTS      3  4  2  3  4  2  3  4  5  6  7  8  9 10  5  6  7  8  9 10
TYPE ASSIGNMENTS      5  6  7  8  9 10 11 12 13 17 14 15 18 19 16 20 11 12 13 17
TYPE ASSIGNMENTS     14 15 18 19 16 20  1  1  1  1  1  1  1  1  1  1  1  1  1  1
TYPE ASSIGNMENTS      1  1  1  1  1  1  1  1  1  1  1  1  1  1  1  1  1  1  1  1
TYPE ASSIGNMENTS      1  1  1  1  1  1  1  1  1  1  1  1  1  1  1  1  2  2  2  2
TYPE ASSIGNMENTS      2  2  2  2  2  3  3  3  3  3  3  3  3  3  4  4  4  4  4  4
TYPE ASSIGNMENTS      4  4  4  2  2  2  2  2  2  2  2  2  3  3  3  3  3  3  3  3
TYPE ASSIGNMENTS      3  4  4  4  4  4  4  4  4  4  2  2  2  2  2  2  2  2  3  3
TYPE ASSIGNMENTS      3  3  3  3  3  3  4  4  4  4  4  4  4  4  2  3  4  2  3  4
TYPE ASSIGNMENTS      2  3  4  5  5  5  5  5  5  5  6  6  6  6  6  6  6  7  7  7
TYPE ASSIGNMENTS      7  7  7  7  8  8  8  8  8  8  8  9  9  9  9  9  9  9 10 10
TYPE ASSIGNMENTS     10 10 10 10 10  5  6  7  8  9 10  5  6  7  8  9 10  5  6  7
TYPE ASSIGNMENTS      8  9 10 11 12 13 17 14 15 18 19 16 20 11 12 13 17 14 15 18
TYPE ASSIGNMENTS     19 16 20  1  1  1  1  1  1  1  1  1  1  1  1  1  1  1  1  1
TYPE ASSIGNMENTS      1  1  1  1  1  1  1  1  1  1  1  1  1  1  1  1  1  1  1  1
TYPE ASSIGNMENTS      1  1  1  1  1  1  1  1  1  1  1  1  1  2  2  2  2  2  2  2
TYPE ASSIGNMENTS      2  2  3  3  3  3  3  3  3  3  3  4  4  4  4  4  4  4  4  4
TYPE ASSIGNMENTS      2  2  2  2  2  2  2  2  2  3  3  3  3  3  3  3  3  3  4  4
TYPE ASSIGNMENTS      4  4  4  4  4  4  4  2  2  2  2  2  2  2  2  3  3  3  3  3
TYPE ASSIGNMENTS      3  3  3  4  4  4  4  4  4  4  4  2  3  4  2  3  4  2  3  4
TYPE ASSIGNMENTS      5  5  5  5  5  5  5  6  6  6  6  6  6  6  7  7  7  7  7  7
TYPE ASSIGNMENTS      7  8  8  8  8  8  8  8  9  9  9  9  9  9  9 10 10 10 10 10
TYPE ASSIGNMENTS     10 10  5  6  7  8  9 10  5  6  7  8  9 10  5  6  7  8  9 10
TYPE ASSIGNMENTS     11 12 13 17 14 15 18 19 16 20 11 12 13 17 14 15 18 19 16 20
EXPONENTS  0.8236000D+04 0.1235000D+04 0.2808000D+03 0.7927000D+02 0.2559000D+02
EXPONENTS  0.8997000D+01 0.3319000D+01 0.2808000D+03 0.7927000D+02 0.2559000D+02
EXPONENTS  0.8997000D+01 0.3319000D+01 0.3643000D+00 0.9059000D+00 0.1285000D+00
EXPONENTS  0.4402000D-01 0.1871000D+02 0.4133000D+01 0.1200000D+01 0.1871000D+02
EXPONENTS  0.4133000D+01 0.1200000D+01 0.1871000D+02 0.4133000D+01 0.1200000D+01
EXPONENTS  0.3827000D+00 0.3827000D+00 0.3827000D+00 0.1209000D+00 0.1209000D+00
EXPONENTS  0.1209000D+00 0.3569000D-01 0.3569000D-01 0.3569000D-01 0.1097000D+01
EXPONENTS  0.1097000D+01 0.1097000D+01 0.1097000D+01 0.1097000D+01 0.1097000D+01
EXPONENTS  0.3180000D+00 0.3180000D+00 0.3180000D+00 0.3180000D+00 0.3180000D+00
EXPONENTS  0.3180000D+00 0.1000000D+00 0.1000000D+00 0.1000000D+00 0.1000000D+00
EXPONENTS  0.1000000D+00 0.1000000D+00 0.7610000D+00 0.7610000D+00 0.7610000D+00
EXPONENTS  0.7610000D+00 0.7610000D+00 0.7610000D+00 0.7610000D+00 0.7610000D+00
EXPONENTS  0.7610000D+00 0.7610000D+00 0.2680000D+00 0.2680000D+00 0.2680000D+00
EXPONENTS  0.2680000D+00 0.2680000D+00 0.2680000D+00 0.2680000D+00 0.2680000D+00
EXPONENTS  0.2680000D+00 0.2680000D+00 0.3741000D+06 0.5605000D+05 0.1276000D+05
EXPONENTS  0.3615000D+04 0.1183000D+04 0.4288000D+03 0.1678000D+03 0.6947000D+02
EXPONENTS  0.2984000D+02 0.1272000D+02 0.5244000D+01 0.3615000D+04 0.1183000D+04
EXPONENTS  0.4288000D+03 0.1678000D+03 0.6947000D+02 0.2984000D+02 0.1272000D+02
EXPONENTS  0.5244000D+01 0.2219000D+01 0.1183000D+04 0.1678000D+03 0.6947000D+02
EXPONENTS  0.2984000D+02 0.1272000D+02 0.5244000D+01 0.2219000D+01 0.3490000D+00
EXPONENTS  0.7767000D+00 0.1322000D+00 0.4970000D-01 0.5744000D+03 0.1358000D+03
EXPONENTS  0.4319000D+02 0.1587000D+02 0.6208000D+01 0.2483000D+01 0.5744000D+03
EXPONENTS  0.1358000D+03 0.4319000D+02 0.1587000D+02 0.6208000D+01 0.2483000D+01
EXPONENTS  0.5744000D+03 0.1358000D+03 0.4319000D+02 0.1587000D+02 0.6208000D+01
EXPONENTS  0.2483000D+01 0.1358000D+03 0.4319000D+02 0.1587000D+02 0.6208000D+01
EXPONENTS  0.2483000D+01 0.3229000D+00 0.1358000D+03 0.4319000D+02 0.1587000D+02
EXPONENTS  0.6208000D+01 0.2483000D+01 0.3229000D+00 0.1358000D+03 0.4319000D+02
EXPONENTS  0.1587000D+02 0.6208000D+01 0.2483000D+01 0.3229000D+00 0.8688000D+00
EXPONENTS  0.8688000D+00 0.8688000D+00 0.1098000D+00 0.1098000D+00 0.1098000D+00
EXPONENTS  0.3510000D-01 0.3510000D-01 0.3510000D-01 0.2690000D+00 0.2690000D+00
EXPONENTS  0.2690000D+00 0.2690000D+00 0.2690000D+00 0.2690000D+00 0.8190000D+00
EXPONENTS  0.8190000D+00 0.8190000D+00 0.8190000D+00 0.8190000D+00 0.8190000D+00
EXPONENTS  0.1010000D+00 0.1010000D+00 0.1010000D+00 0.1010000D+00 0.1010000D+00
EXPONENTS  0.1010000D+00 0.5570000D+00 0.5570000D+00 0.5570000D+00 0.5570000D+00
EXPONENTS  0.5570000D+00 0.5570000D+00 0.5570000D+00 0.5570000D+00 0.5570000D+00
EXPONENTS  0.5570000D+00 0.2180000D+00 0.2180000D+00 0.2180000D+00 0.2180000D+00
EXPONENTS  0.2180000D+00 0.2180000D+00 0.2180000D+00 0.2180000D+00 0.2180000D+00
EXPONENTS  0.2180000D+00 0.1063900D+08 0.1593400D+07 0.3626100D+06 0.1027000D+06
EXPONENTS  0.3350100D+05 0.1209300D+05 0.4715900D+04 0.1955600D+04 0.8526100D+03
EXPONENTS  0.3876700D+03 0.1826800D+03 0.8824500D+02 0.3926300D+02 0.9405700D+01
EXPONENTS  0.1899500D+01 0.3350100D+05 0.1209300D+05 0.4715900D+04 0.1955600D+04
EXPONENTS  0.8526100D+03 0.3876700D+03 0.1826800D+03 0.8824500D+02 0.3926300D+02
EXPONENTS  0.1923400D+02 0.9405700D+01 0.1899500D+01 0.4715900D+04 0.8526100D+03
EXPONENTS  0.3876700D+03 0.1826800D+03 0.8824500D+02 0.3926300D+02 0.1923400D+02
EXPONENTS  0.9405700D+01 0.4160100D+01 0.1899500D+01 0.4715900D+04 0.8526100D+03
EXPONENTS  0.3876700D+03 0.8824500D+02 0.3926300D+02 0.1923400D+02 0.9405700D+01
EXPONENTS  0.4160100D+01 0.1899500D+01 0.3011400D+00 0.6047200D+00 0.1251500D+00
EXPONENTS  0.4559300D-01 0.8676500D+04 0.2055900D+04 0.6662300D+03 0.2531000D+03
EXPONENTS  0.1061200D+03 0.4724200D+02 0.2182500D+02 0.9968400D+01 0.1998200D+01
EXPONENTS  0.8676500D+04 0.2055900D+04 0.6662300D+03 0.2531000D+03 0.1061200D+03
EXPONENTS  0.4724200D+02 0.2182500D+02 0.9968400D+01 0.1998200D+01 0.8676500D+04
EXPONENTS  0.2055900D+04 0.6662300D+03 0.2531000D+03 0.1061200D+03 0.4724200D+02
EXPONENTS  0.2182500D+02 0.9968400D+01 0.1998200D+01 0.8676500D+04 0.6662300D+03
EXPONENTS  0.2531000D+03 0.1061200D+03 0.4724200D+02 0.2182500D+02 0.9968400D+01
EXPONENTS  0.4517100D+01 0.1998200D+01 0.8676500D+04 0.6662300D+03 0.2531000D+03
EXPONENTS  0.1061200D+03 0.4724200D+02 0.2182500D+02 0.9968400D+01 0.4517100D+01
EXPONENTS  0.1998200D+01 0.8676500D+04 0.6662300D+03 0.2531000D+03 0.1061200D+03
EXPONENTS  0.4724200D+02 0.2182500D+02 0.9968400D+01 0.4517100D+01 0.1998200D+01
EXPONENTS  0.6662300D+03 0.1061200D+03 0.4724200D+02 0.2182500D+02 0.9968400D+01
EXPONENTS  0.4517100D+01 0.1998200D+01 0.2814500D+00 0.6662300D+03 0.1061200D+03
EXPONENTS  0.4724200D+02 0.2182500D+02 0.9968400D+01 0.4517100D+01 0.1998200D+01
EXPONENTS  0.2814500D+00 0.6662300D+03 0.1061200D+03 0.4724200D+02 0.2182500D+02
EXPONENTS  0.9968400D+01 0.4517100D+01 0.1998200D+01 0.2814500D+00 0.7098800D+00
EXPONENTS  0.7098800D+00 0.7098800D+00 0.1020400D+00 0.1020400D+00 0.1020400D+00
EXPONENTS  0.3514200D-01 0.3514200D-01 0.3514200D-01 0.4038300D+03 0.1211700D+03
EXPONENTS  0.4634500D+02 0.1972100D+02 0.8862400D+01 0.3996200D+01 0.1763600D+01
EXPONENTS  0.4038300D+03 0.1211700D+03 0.4634500D+02 0.1972100D+02 0.8862400D+01
EXPONENTS  0.3996200D+01 0.1763600D+01 0.4038300D+03 0.1211700D+03 0.4634500D+02
EXPONENTS  0.1972100D+02 0.8862400D+01 0.3996200D+01 0.1763600D+01 0.4038300D+03
EXPONENTS  0.1211700D+03 0.4634500D+02 0.1972100D+02 0.8862400D+01 0.3996200D+01
EXPONENTS  0.1763600D+01 0.4038300D+03 0.1211700D+03 0.4634500D+02 0.1972100D+02
EXPONENTS  0.8862400D+01 0.3996200D+01 0.1763600D+01 0.4038300D+03 0.1211700D+03
EXPONENTS  0.4634500D+02 0.1972100D+02 0.8862400D+01 0.3996200D+01 0.1763600D+01
EXPONENTS  0.7061900D+00 0.7061900D+00 0.7061900D+00 0.7061900D+00 0.7061900D+00
EXPONENTS  0.7061900D+00 0.2639000D+00 0.2639000D+00 0.2639000D+00 0.2639000D+00
EXPONENTS  0.2639000D+00 0.2639000D+00 0.1047000D+00 0.1047000D+00 0.1047000D+00
EXPONENTS  0.1047000D+00 0.1047000D+00 0.1047000D+00 0.5515000D+00 0.5515000D+00
EXPONENTS  0.5515000D+00 0.5515000D+00 0.5515000D+00 0.5515000D+00 0.5515000D+00
EXPONENTS  0.5515000D+00 0.5515000D+00 0.5515000D+00 0.2580000D+00 0.2580000D+00
EXPONENTS  0.2580000D+00 0.2580000D+00 0.2580000D+00 0.2580000D+00 0.2580000D+00
EXPONENTS  0.2580000D+00 0.2580000D+00 0.2580000D+00 0.1063900D+08 0.1593400D+07
EXPONENTS  0.3626100D+06 0.1027000D+06 0.3350100D+05 0.1209300D+05 0.4715900D+04
EXPONENTS  0.1955600D+04 0.8526100D+03 0.3876700D+03 0.1826800D+03 0.8824500D+02
EXPONENTS  0.3926300D+02 0.9405700D+01 0.1899500D+01 0.3350100D+05 0.1209300D+05
EXPONENTS  0.4715900D+04 0.1955600D+04 0.8526100D+03 0.3876700D+03 0.1826800D+03
EXPONENTS  0.8824500D+02 0.3926300D+02 0.1923400D+02 0.9405700D+01 0.1899500D+01
EXPONENTS  0.4715900D+04 0.8526100D+03 0.3876700D+03 0.1826800D+03 0.8824500D+02
EXPONENTS  0.3926300D+02 0.1923400D+02 0.9405700D+01 0.4160100D+01 0.1899500D+01
EXPONENTS  0.4715900D+04 0.8526100D+03 0.3876700D+03 0.8824500D+02 0.3926300D+02
EXPONENTS  0.1923400D+02 0.9405700D+01 0.4160100D+01 0.1899500D+01 0.3011400D+00
EXPONENTS  0.6047200D+00 0.1251500D+00 0.4559300D-01 0.8676500D+04 0.2055900D+04
EXPONENTS  0.6662300D+03 0.2531000D+03 0.1061200D+03 0.4724200D+02 0.2182500D+02
EXPONENTS  0.9968400D+01 0.1998200D+01 0.8676500D+04 0.2055900D+04 0.6662300D+03
EXPONENTS  0.2531000D+03 0.1061200D+03 0.4724200D+02 0.2182500D+02 0.9968400D+01
EXPONENTS  0.1998200D+01 0.8676500D+04 0.2055900D+04 0.6662300D+03 0.2531000D+03
EXPONENTS  0.1061200D+03 0.4724200D+02 0.2182500D+02 0.9968400D+01 0.1998200D+01
EXPONENTS  0.8676500D+04 0.6662300D+03 0.2531000D+03 0.1061200D+03 0.4724200D+02
EXPONENTS  0.2182500D+02 0.9968400D+01 0.4517100D+01 0.1998200D+01 0.8676500D+04
EXPONENTS  0.6662300D+03 0.2531000D+03 0.1061200D+03 0.4724200D+02 0.2182500D+02
EXPONENTS  0.9968400D+01 0.4517100D+01 0.1998200D+01 0.8676500D+04 0.6662300D+03
EXPONENTS  0.2531000D+03 0.1061200D+03 0.4724200D+02 0.2182500D+02 0.9968400D+01
EXPONENTS  0.4517100D+01 0.1998200D+01 0.6662300D+03 0.1061200D+03 0.4724200D+02
EXPONENTS  0.2182500D+02 0.9968400D+01 0.4517100D+01 0.1998200D+01 0.2814500D+00
EXPONENTS  0.6662300D+03 0.1061200D+03 0.4724200D+02 0.2182500D+02 0.9968400D+01
EXPONENTS  0.4517100D+01 0.1998200D+01 0.2814500D+00 0.6662300D+03 0.1061200D+03
EXPONENTS  0.4724200D+02 0.2182500D+02 0.9968400D+01 0.4517100D+01 0.1998200D+01
EXPONENTS  0.2814500D+00 0.7098800D+00 0.7098800D+00 0.7098800D+00 0.1020400D+00
EXPONENTS  0.1020400D+00 0.1020400D+00 0.3514200D-01 0.3514200D-01 0.3514200D-01
EXPONENTS  0.4038300D+03 0.1211700D+03 0.4634500D+02 0.1972100D+02 0.8862400D+01
EXPONENTS  0.3996200D+01 0.1763600D+01 0.4038300D+03 0.1211700D+03 0.4634500D+02
EXPONENTS  0.1972100D+02 0.8862400D+01 0.3996200D+01 0.1763600D+01 0.4038300D+03
EXPONENTS  0.1211700D+03 0.4634500D+02 0.1972100D+02 0.8862400D+01 0.3996200D+01
EXPONENTS  0.1763600D+01 0.4038300D+03 0.1211700D+03 0.4634500D+02 0.1972100D+02
EXPONENTS  0.8862400D+01 0.3996200D+01 0.1763600D+01 0.4038300D+03 0.1211700D+03
EXPONENTS  0.4634500D+02 0.1972100D+02 0.8862400D+01 0.3996200D+01 0.1763600D+01
EXPONENTS  0.4038300D+03 0.1211700D+03 0.4634500D+02 0.1972100D+02 0.8862400D+01
EXPONENTS  0.3996200D+01 0.1763600D+01 0.7061900D+00 0.7061900D+00 0.7061900D+00
EXPONENTS  0.7061900D+00 0.7061900D+00 0.7061900D+00 0.2639000D+00 0.2639000D+00
EXPONENTS  0.2639000D+00 0.2639000D+00 0.2639000D+00 0.2639000D+00 0.1047000D+00
EXPONENTS  0.1047000D+00 0.1047000D+00 0.1047000D+00 0.1047000D+00 0.1047000D+00
EXPONENTS  0.5515000D+00 0.5515000D+00 0.5515000D+00 0.5515000D+00 0.5515000D+00
EXPONENTS  0.5515000D+00 0.5515000D+00 0.5515000D+00 0.5515000D+00 0.5515000D+00
EXPONENTS  0.2580000D+00 0.2580000D+00 0.2580000D+00 0.2580000D+00 0.2580000D+00
EXPONENTS  0.2580000D+00 0.2580000D+00 0.2580000D+00 0.2580000D+00 0.2580000D+00
MO    1     MO 0.0        OCC NO =    2.0000284  ORB. ENERGY =    0.000000
 -0.39984628D-03 -0.74539401D-03 -0.12598174D-02 -0.18937406D-02 -0.23261211D-02
 -0.19631642D-02 -0.73820099D-03 -0.93662538D-07 -0.70006944D-06 -0.26163193D-05
 -0.72991236D-05 -0.97788133D-05  0.11546955D-04 -0.30509771D-04 -0.19734377D-04
 -0.43685312D-05  0.13817601D-12  0.12954880D-12  0.92246460D-13 -0.26029695D-02
 -0.24404493D-02 -0.17377453D-02  0.47173966D-04  0.44228592D-04  0.31493392D-04
  0.31914053D-13 -0.54863721D-03  0.63557933D-05  0.96922182D-14  0.12953598D-02
 -0.71134992D-05  0.10618824D-14  0.81098592D-04 -0.21106207D-07 -0.26105118D-06
 -0.17271691D-05  0.19882203D-05  0.17727861D-14  0.85227870D-16 -0.11892283D-02
  0.31784176D-07  0.80814249D-06 -0.83992667D-06  0.91739749D-14 -0.66621518D-14
  0.56713805D-06  0.70905607D-07 -0.49128065D-06  0.42037505D-06  0.18475608D-14
  0.67976427D-14 -0.32117612D-03 -0.29447522D-14  0.11182044D-03  0.73891914D-06
  0.12905881D-14  0.27559066D-03 -0.29957022D-05  0.75436685D-14 -0.61105198D-03
  0.77894475D-06  0.63549695D-14  0.59395575D-15 -0.68377359D-04  0.26966725D-06
  0.43768569D-15 -0.13815467D-03  0.65584936D-06 -0.22195529D-14  0.34328675D-03
 -0.14648511D-05 -0.57050118D-14 -0.61841216D-03 -0.11561838D-02 -0.19982293D-02
 -0.32320535D-02 -0.48851407D-02 -0.67278502D-02 -0.78640376D-02 -0.67966331D-02
 -0.31720241D-02 -0.42973966D-03  0.31431777D-05 -0.76709539D-05 -0.98609340D-04
 -0.35971270D-03 -0.12136617D-02 -0.26657457D-02 -0.34434164D-02  0.55338631D-03
  0.46422534D-02  0.25476088D-02 -0.73135460D-07 -0.83305835D-06 -0.17297294D-05
 -0.47563167D-05  0.61671108D-06  0.21505898D-04  0.53639125D-04 -0.44401691D-04
  0.14030133D-03  0.97058253D-05  0.86131621D-06 -0.29720737D-09 -0.38991917D-09
 -0.42765694D-09 -0.35186325D-09 -0.18548230D-09 -0.48259005D-10  0.97049754D+01
  0.12732376D+02  0.13964661D+02  0.11489702D+02  0.60567177D+01  0.15758440D+01
  0.61673664D-01  0.80912340D-01  0.88743326D-01  0.73015335D-01  0.38489533D-01
  0.10014253D-01 -0.14789811D-14 -0.53088961D-13 -0.84226967D-13 -0.10001694D-12
 -0.15135199D-13  0.11015114D-12  0.88670926D-04  0.31828988D-02  0.50497488D-02
  0.59964218D-02  0.90741667D-03 -0.66040085D-02  0.56111328D-06  0.20141515D-04
  0.31955019D-04  0.37945605D-04  0.57421702D-05 -0.41790439D-04 -0.22821109D-11
  0.67285730D-01  0.44375281D-03 -0.17987581D-13 -0.32447309D-03 -0.66407208D-05
 -0.33277611D-16 -0.28214904D-04 -0.62463440D-07 -0.23606103D-05 -0.10566415D-05
  0.34172518D-05  0.11566080D-14 -0.88892438D-14  0.76900277D-03  0.11907228D-05
 -0.16432234D-05  0.45250066D-06  0.12937311D-14  0.37085013D-14 -0.73475763D-03
 -0.13579911D-06 -0.19172207D-06  0.32752118D-06 -0.41555033D-15  0.43117592D-14
 -0.40991067D-04 -0.24617402D-14  0.33489136D-05 -0.33082243D-06  0.16488498D-14
  0.13843588D-03  0.15794595D-05  0.57363708D-14 -0.14848262D-03 -0.58699222D-06
 -0.35397472D-14  0.38320977D-15  0.32084989D-04 -0.20087091D-06 -0.26981051D-15
  0.28624813D-05  0.28809284D-06 -0.87981881D-15 -0.99117447D-04  0.31451990D-06
  0.65515417D-16  0.36475804D-03  0.68616480D-03  0.11877863D-02  0.19470098D-02
  0.30500206D-02  0.45844291D-02  0.65522270D-02  0.86980671D-02  0.10129528D-01
  0.93027991D-02  0.54380969D-02  0.14269249D-02  0.81128607D-04  0.14156070D-05
  0.14249694D-06  0.18361311D-04  0.53041596D-04  0.24310210D-03  0.71963515D-03
  0.20869629D-02  0.43379451D-02  0.62054820D-02  0.17793099D-02 -0.71103606D-02
 -0.68750308D-02 -0.15005806D-02  0.21720450D-04  0.12051194D-04  0.56221313D-04
  0.11409698D-03  0.44716592D-03  0.31378691D-03 -0.20434992D-02 -0.63321023D-02
 -0.77455792D-03  0.55352184D-02  0.25976778D-02 -0.97012555D-06 -0.13299651D-05
  0.25498649D-05  0.54193013D-05 -0.20486475D-04 -0.66248056D-04 -0.23040066D-04
  0.22535694D-03  0.50266281D-03 -0.33355174D-03 -0.60156958D-04  0.15481617D-02
  0.48298158D-03  0.27307377D-08  0.39182010D-08  0.51880602D-08  0.59913066D-08
  0.55550710D-08  0.35973895D-08  0.12693720D-08  0.14626194D-09 -0.23894707D-12
  0.11841167D+01  0.16990307D+01  0.22496737D+01  0.25979816D+01  0.24088188D+01
  0.15599188D+01  0.55043169D+00  0.63422864D-01 -0.10361347D-03  0.10261935D+01
  0.14724345D+01  0.19496393D+01  0.22514941D+01  0.20875596D+01  0.13518756D+01
  0.47702174D+00  0.54964286D-01 -0.89794757D-04  0.60202540D-12 -0.17164817D-11
 -0.83783678D-11 -0.17361571D-10 -0.21787058D-10 -0.34550356D-11  0.27967346D-10
  0.24391580D-10  0.62702187D-11 -0.71819333D-02  0.20476971D-01  0.99950731D-01
  0.20711692D+00  0.25991129D+00  0.41217256D-01 -0.33363976D+00 -0.29098225D+00
 -0.74801316D-01 -0.63427430D-02  0.18084290D-01  0.88271746D-01  0.18291584D+00
  0.22954133D+00  0.36401126D-01 -0.29465482D+00 -0.25698172D+00 -0.66060976D-01
  0.20674229D-14  0.29207287D-14 -0.13589998D-14  0.27234484D-14  0.29897368D-14
  0.80702367D-14  0.25431448D-14 -0.54601859D-14 -0.74262375D-04 -0.10491334D-03
  0.48815631D-04 -0.97826985D-04 -0.10739213D-03 -0.28988503D-03 -0.91350431D-04
  0.19613132D-03  0.58858562D-04  0.83151779D-04 -0.38690088D-04  0.77535302D-04
  0.85116407D-04  0.22975586D-03  0.72402142D-04 -0.15544894D-03  0.14805664D-12
 -0.30984104D-02 -0.28670846D-02  0.54805273D-14  0.38785644D-03  0.16462242D-03
 -0.34389190D-15  0.14930366D-04  0.12301209D-04  0.14998146D+00  0.15693943D+00
  0.13372080D+00  0.88065254D-01  0.40586654D-01  0.12153739D-01  0.20678557D-02
 -0.15414443D+00 -0.16129554D+00 -0.13743243D+00 -0.90509645D-01 -0.41713201D-01
 -0.12491085D-01 -0.21252523D-02  0.41629735D-02  0.43561032D-02  0.37116331D-02
  0.24443910D-02  0.11265470D-02  0.33734633D-03  0.57396618D-04 -0.60037058D-11
 -0.62822312D-11 -0.53527973D-11 -0.35252217D-11 -0.16246697D-11 -0.48650997D-12
 -0.82775548D-13 -0.98292337D-10 -0.10285234D-09 -0.87635699D-10 -0.57714733D-10
 -0.26599002D-10 -0.79651142D-11 -0.13551967D-11 -0.48097043D+00 -0.50328373D+00
 -0.42882468D+00 -0.28241347D+00 -0.13015596D+00 -0.38975413D-01 -0.66313361D-02
  0.66006412D-04 -0.12265730D-03  0.56650887D-04 -0.89305411D-14 -0.76531090D-13
 -0.35409340D-03 -0.54918928D-04  0.56458395D-04 -0.15394674D-05  0.63195035D-14
  0.19853525D-14  0.91360600D-04 -0.15654701D-04  0.18859897D-04 -0.32051966D-05
  0.19680265D-14  0.76781915D-15  0.63476121D-04 -0.56592503D-16  0.26812455D-04
  0.33297174D-04 -0.64154918D-15 -0.52714410D-04 -0.41902209D-04  0.81132669D-15
 -0.27722954D-04 -0.57989312D-04 -0.52638393D-15 -0.77797757D-15 -0.15291359D-05
 -0.11368168D-05  0.26885348D-14  0.12714276D-04  0.25526939D-05 -0.35460210D-15
 -0.81268679D-05  0.85775647D-06  0.23596335D-14 -0.36409598D-03 -0.68491937D-03
 -0.11856304D-02 -0.19434759D-02 -0.30444846D-02 -0.45761081D-02 -0.65403343D-02
 -0.86822795D-02 -0.10111142D-01 -0.92859139D-02 -0.54282264D-02 -0.14243350D-02
 -0.80981354D-04 -0.14130375D-05 -0.14223830D-06 -0.18336080D-04 -0.52968709D-04
 -0.24276804D-03 -0.71864627D-03 -0.20840951D-02 -0.43319841D-02 -0.61969547D-02
 -0.17768649D-02  0.71005899D-02  0.68655835D-02  0.14985185D-02 -0.21690603D-04
 -0.12048385D-04 -0.56208208D-04 -0.11407039D-03 -0.44706168D-03 -0.31371377D-03
  0.20430228D-02  0.63306263D-02  0.77437736D-03 -0.55339281D-02 -0.25970723D-02
  0.95972952D-06  0.13157130D-05 -0.25225401D-05 -0.53612271D-05  0.20266939D-04
  0.65538131D-04  0.22793165D-04 -0.22294198D-03 -0.49727619D-03  0.32997735D-03
  0.57992426D-04 -0.15432869D-02 -0.47956710D-03 -0.16524562D-08 -0.23710280D-08
 -0.31394602D-08 -0.36255301D-08 -0.33615501D-08 -0.21768947D-08 -0.76813734D-09
 -0.88507749D-10  0.14459447D-12  0.11949512D+01  0.17145767D+01  0.22702579D+01
  0.26217528D+01  0.24308592D+01  0.15741918D+01  0.55546807D+00  0.64003175D-01
 -0.10456152D-03 -0.10375985D+01 -0.14887990D+01 -0.19713074D+01 -0.22765170D+01
 -0.21107606D+01 -0.13669002D+01 -0.48232332D+00 -0.55575154D-01  0.90792729D-04
  0.40323596D-11 -0.11496976D-10 -0.56118217D-10 -0.11628762D-09 -0.14592948D-09
 -0.23141791D-10  0.18732498D-09  0.16337454D-09  0.41997857D-10 -0.72505435D-02
  0.20672591D-01  0.10090558D+00  0.20909554D+00  0.26239427D+00  0.41611012D-01
 -0.33682708D+00 -0.29376205D+00 -0.75515906D-01  0.64101788D-02 -0.18276562D-01
 -0.89210249D-01 -0.18486060D+00 -0.23198181D+00 -0.36788142D-01  0.29778758D+00
  0.25971394D+00  0.66763334D-01  0.73132367D-15  0.10331694D-14 -0.48072832D-15
  0.96338408D-15  0.10575801D-14  0.28547401D-14  0.89960404D-15 -0.19314690D-14
 -0.73818556D-04 -0.10428634D-03  0.48523891D-04 -0.97242336D-04 -0.10675032D-03
 -0.28815257D-03 -0.90804489D-04  0.19495917D-03 -0.57105779D-04 -0.80675554D-04
  0.37537914D-04 -0.75226334D-04 -0.82581677D-04 -0.22291383D-03 -0.70246037D-04
  0.15081974D-03  0.13943815D-11 -0.31263001D-02  0.28894357D-02  0.13503729D-13
  0.38603055D-03 -0.16678389D-03 -0.69284259D-15  0.14718337D-04 -0.12357984D-04
 -0.14820808D+00 -0.15508379D+00 -0.13213969D+00 -0.87023974D-01 -0.40106759D-01
 -0.12010034D-01 -0.20434054D-02  0.14940992D+00  0.15634138D+00  0.13321122D+00
  0.87729660D-01  0.40431989D-01  0.12107424D-01  0.20599756D-02 -0.12018339D-02
 -0.12575896D-02 -0.10715337D-02 -0.70568594D-03 -0.32522964D-03 -0.97390542D-04
 -0.16570175D-04  0.70761683D-10  0.74044477D-10  0.63089857D-10  0.41549441D-10
  0.19148900D-10  0.57341692D-11  0.97562027D-12  0.93956251D-10  0.98315094D-10
  0.83769722D-10  0.55168695D-10  0.25425609D-10  0.76137397D-11  0.12954133D-11
 -0.47870500D+00 -0.50091320D+00 -0.42680486D+00 -0.28108327D+00 -0.12954291D+00
 -0.38791834D-01 -0.66001016D-02 -0.64955905D-04  0.11654648D-03 -0.51590574D-04
  0.44742884D-13  0.84689485D-13 -0.35233745D-03  0.54834775D-04 -0.57299446D-04
  0.24646717D-05  0.17372146D-14 -0.14247586D-14  0.94200607D-04  0.15743886D-04
 -0.18812020D-04  0.30681339D-05 -0.10949455D-14 -0.23367438D-15  0.63965303D-04
 -0.24283919D-14  0.27978891D-04 -0.31808560D-04  0.43234933D-14 -0.52228257D-04
  0.39795174D-04  0.29616825D-14 -0.31708416D-04  0.55630506D-04 -0.18084218D-13
  0.17169954D-15 -0.17102473D-05  0.14240971D-05  0.11445049D-15  0.12628160D-04
 -0.23250218D-05 -0.62954912D-15 -0.74974181D-05 -0.19472695D-05  0.30835372D-14
MO    2     MO 0.0        OCC NO =    2.0000240  ORB. ENERGY =    0.000000
 -0.58981081D-01 -0.10995262D+00 -0.18583490D+00 -0.27934452D+00 -0.34312471D+00
 -0.28958515D+00 -0.10889158D+00 -0.10366039D-04 -0.77479717D-04 -0.28955939D-03
 -0.80782562D-03 -0.10822636D-02  0.12779515D-02 -0.44836072D-02 -0.17447642D-02
 -0.31794276D-03 -0.50710683D-13 -0.47544489D-13 -0.33854508D-13  0.19388413D-04
  0.18177870D-04  0.12943726D-04  0.23011718D-02  0.21574948D-02  0.15362649D-02
 -0.19317576D-13  0.28876612D-05 -0.21563477D-03 -0.14364205D-13 -0.74099315D-05
 -0.96717135D-03 -0.32257773D-16 -0.25536766D-06  0.91472170D-06  0.12497768D-03
  0.10910789D-04 -0.13588846D-03 -0.16329479D-13  0.41662117D-14  0.67159520D-05
  0.11830913D-03  0.12868425D-03 -0.24699338D-03 -0.15115610D-13  0.12966865D-13
 -0.22824975D-06  0.23546367D-04  0.10098041D-03 -0.12452678D-03 -0.10278056D-14
  0.35213207D-14  0.14088001D-05 -0.25389355D-14 -0.12348725D-05 -0.99358840D-05
  0.26301712D-14 -0.14100399D-05 -0.90982180D-04  0.49866353D-14  0.51146574D-05
  0.12078983D-03  0.50728734D-14  0.23615920D-14  0.88325811D-06  0.13504641D-04
 -0.47144185D-14  0.67168003D-06  0.44808808D-04 -0.23703575D-14 -0.33214544D-05
 -0.85322730D-04  0.15741091D-14 -0.12697986D+00 -0.23740163D+00 -0.41030059D+00
 -0.66364429D+00 -0.10030761D+01 -0.13814435D+01 -0.16147392D+01 -0.13955668D+01
 -0.65131831D+00 -0.88239340D-01  0.64539524D-03 -0.15822785D-02 -0.20340031D-01
 -0.74197508D-01 -0.25034055D+00 -0.54986018D+00 -0.71026938D+00  0.11414633D+00
  0.95755205D+00  0.52549221D+00 -0.12722224D-04 -0.14491404D-03 -0.30089378D-03
 -0.82738147D-03  0.10727951D-03  0.37410422D-02  0.93307534D-02 -0.77238625D-02
  0.29328408D-01  0.18158437D-02  0.12981968D-03 -0.61436373D-10 -0.80601028D-10
 -0.88401883D-10 -0.72734407D-10 -0.38341444D-10 -0.99757224D-11 -0.66997696D-01
 -0.87897167D-01 -0.96404169D-01 -0.79318447D-01 -0.41812175D-01 -0.10878741D-01
  0.62342663D+01  0.81790029D+01  0.89705960D+01  0.73807362D+01  0.38907044D+01
  0.10122881D+01 -0.45804460D-15 -0.16441800D-13 -0.26085328D-13 -0.30975527D-13
 -0.46874137D-14  0.34114118D-13 -0.58176182D-06 -0.20882708D-04 -0.33130939D-04
 -0.39341974D-04 -0.59534776D-05  0.43328295D-04  0.58004184D-04  0.20820968D-02
  0.33032988D-02  0.39225659D-02  0.59358762D-03 -0.43200195D-02 -0.45315608D-12
 -0.47348745D-03  0.45920536D-01  0.71069673D-15  0.22101337D-05 -0.77519936D-03
  0.11367137D-15  0.13960365D-06 -0.50130252D-05 -0.24733880D-03 -0.13348828D-03
  0.38082708D-03  0.45672780D-15 -0.52880020D-15 -0.57215712D-05  0.21085490D-03
 -0.39909182D-03  0.18823692D-03 -0.62515719D-14  0.58918896D-14  0.25385786D-05
 -0.53816007D-05 -0.30897161D-04  0.36278762D-04  0.22082631D-15 -0.27893427D-15
  0.17339521D-06  0.38583970D-15 -0.46726247D-07 -0.74298839D-04  0.24034111D-14
 -0.95509521D-06  0.20865596D-03 -0.35609302D-14  0.10952740D-05  0.14240559D-04
  0.11428640D-14 -0.14075464D-15 -0.24050276D-06 -0.20817437D-04 -0.15203360D-15
 -0.17322150D-07  0.19365995D-04  0.57429751D-15  0.73883042D-06  0.43086317D-04
 -0.86828836D-15  0.58211909D-03  0.10950537D-02  0.18955938D-02  0.31072423D-02
  0.48675424D-02  0.73163123D-02  0.10456730D-01  0.13881287D-01  0.16165761D-01
  0.14846381D-01  0.86786848D-02  0.22772363D-02  0.12947353D-03  0.22591739D-05
  0.22741155D-06  0.27671235D-04  0.79935820D-04  0.36636464D-03  0.10845191D-02
  0.31451371D-02  0.65374578D-02  0.93519111D-02  0.26814916D-02 -0.10715600D-01
 -0.10360948D-01 -0.22614353D-02  0.32733592D-04  0.17528938D-04  0.81776120D-04
  0.16595857D-03  0.65042049D-03  0.45641546D-03 -0.29723502D-02 -0.92102929D-02
 -0.11266251D-02  0.80511938D-02  0.37784250D-02 -0.20622411D-06 -0.28271688D-06
  0.54203665D-06  0.11520061D-05 -0.43549055D-05 -0.14082658D-04 -0.48977343D-05
  0.47905175D-04  0.10685337D-03 -0.70904648D-04  0.82081238D-04 -0.30328691D-03
  0.74813162D-04  0.76699866D-09  0.11005286D-08  0.14572016D-08  0.16828142D-08
  0.15602861D-08  0.10104203D-08  0.35653611D-09  0.41081467D-10 -0.67114496D-13
  0.24168126D+00  0.34677653D+00  0.45916417D+00  0.53025469D+00  0.49164610D+00
  0.31838341D+00  0.11234452D+00  0.12944769D-01 -0.21147776D-04  0.30879982D+00
  0.44308165D+00  0.58668104D+00  0.67751449D+00  0.62818370D+00  0.40680333D+00
  0.14354430D+00  0.16539728D-01 -0.27020835D-04  0.17029031D-11 -0.48552801D-11