 br2cs-wavefunction
GAUSSIAN            214 MOL ORBITALS    620 PRIMITIVES        4 NUCLEI
  C    1    (CENTRE  1)  -0.01889726  0.00000000 -0.98162013  CHARGE =  6.0
  S    2    (CENTRE  2)   0.00000000  0.00000000  2.04788109  CHARGE = 16.0
  Br   3    (CENTRE  3)   0.00000000 -2.96406568 -2.98306498  CHARGE = 35.0
  Br   4    (CENTRE  4)   0.00000000  2.96406568 -2.98306498  CHARGE = 35.0
CENTRE ASSIGNMENTS    1  1  1  1  1  1  1  1  1  1  1  1  1  1  1  1  1  1  1  1
CENTRE ASSIGNMENTS    1  1  1  1  1  1  1  1  1  1  1  1  1  1  1  1  1  1  1  1
CENTRE ASSIGNMENTS    1  1  1  1  1  1  1  1  1  1  1  1  1  1  1  1  1  1  1  1
CENTRE ASSIGNMENTS    1  1  1  1  1  1  1  1  1  1  1  1  2  2  2  2  2  2  2  2
CENTRE ASSIGNMENTS    2  2  2  2  2  2  2  2  2  2  2  2  2  2  2  2  2  2  2  2
CENTRE ASSIGNMENTS    2  2  2  2  2  2  2  2  2  2  2  2  2  2  2  2  2  2  2  2
CENTRE ASSIGNMENTS    2  2  2  2  2  2  2  2  2  2  2  2  2  2  2  2  2  2  2  2
CENTRE ASSIGNMENTS    2  2  2  2  2  2  2  2  2  2  2  2  2  2  2  2  2  2  2  2
CENTRE ASSIGNMENTS    2  2  2  2  2  2  2  2  2  2  2  2  2  2  2  2  2  2  2  2
CENTRE ASSIGNMENTS    2  2  2  2  2  2  3  3  3  3  3  3  3  3  3  3  3  3  3  3
CENTRE ASSIGNMENTS    3  3  3  3  3  3  3  3  3  3  3  3  3  3  3  3  3  3  3  3
CENTRE ASSIGNMENTS    3  3  3  3  3  3  3  3  3  3  3  3  3  3  3  3  3  3  3  3
CENTRE ASSIGNMENTS    3  3  3  3  3  3  3  3  3  3  3  3  3  3  3  3  3  3  3  3
CENTRE ASSIGNMENTS    3  3  3  3  3  3  3  3  3  3  3  3  3  3  3  3  3  3  3  3
CENTRE ASSIGNMENTS    3  3  3  3  3  3  3  3  3  3  3  3  3  3  3  3  3  3  3  3
CENTRE ASSIGNMENTS    3  3  3  3  3  3  3  3  3  3  3  3  3  3  3  3  3  3  3  3
CENTRE ASSIGNMENTS    3  3  3  3  3  3  3  3  3  3  3  3  3  3  3  3  3  3  3  3
CENTRE ASSIGNMENTS    3  3  3  3  3  3  3  3  3  3  3  3  3  3  3  3  3  3  3  3
CENTRE ASSIGNMENTS    3  3  3  3  3  3  3  3  3  3  3  3  3  3  3  3  3  3  3  3
CENTRE ASSIGNMENTS    3  3  3  3  3  3  3  3  3  3  3  3  3  3  3  3  3  3  3  3
CENTRE ASSIGNMENTS    3  3  3  4  4  4  4  4  4  4  4  4  4  4  4  4  4  4  4  4
CENTRE ASSIGNMENTS    4  4  4  4  4  4  4  4  4  4  4  4  4  4  4  4  4  4  4  4
CENTRE ASSIGNMENTS    4  4  4  4  4  4  4  4  4  4  4  4  4  4  4  4  4  4  4  4
CENTRE ASSIGNMENTS    4  4  4  4  4  4  4  4  4  4  4  4  4  4  4  4  4  4  4  4
CENTRE ASSIGNMENTS    4  4  4  4  4  4  4  4  4  4  4  4  4  4  4  4  4  4  4  4
CENTRE ASSIGNMENTS    4  4  4  4  4  4  4  4  4  4  4  4  4  4  4  4  4  4  4  4
CENTRE ASSIGNMENTS    4  4  4  4  4  4  4  4  4  4  4  4  4  4  4  4  4  4  4  4
CENTRE ASSIGNMENTS    4  4  4  4  4  4  4  4  4  4  4  4  4  4  4  4  4  4  4  4
CENTRE ASSIGNMENTS    4  4  4  4  4  4  4  4  4  4  4  4  4  4  4  4  4  4  4  4
CENTRE ASSIGNMENTS    4  4  4  4  4  4  4  4  4  4  4  4  4  4  4  4  4  4  4  4
CENTRE ASSIGNMENTS    4  4  4  4  4  4  4  4  4  4  4  4  4  4  4  4  4  4  4  4
TYPE ASSIGNMENTS      1  1  1  1  1  1  1  1  1  1  1  1  1  1  1  1  2  2  2  3
TYPE ASSIGNMENTS      3  3  4  4  4  2  3  4  2  3  4  2  3  4  5  6  7  8  9 10
TYPE ASSIGNMENTS      5  6  7  8  9 10  5  6  7  8  9 10 11 12 13 17 14 15 18 19
TYPE ASSIGNMENTS     16 20 11 12 13 17 14 15 18 19 16 20  1  1  1  1  1  1  1  1
TYPE ASSIGNMENTS      1  1  1  1  1  1  1  1  1  1  1  1  1  1  1  1  1  1  1  1
TYPE ASSIGNMENTS      1  1  1  2  2  2  2  2  2  3  3  3  3  3  3  4  4  4  4  4
TYPE ASSIGNMENTS      4  2  2  2  2  2  2  3  3  3  3  3  3  4  4  4  4  4  4  2
TYPE ASSIGNMENTS      3  4  2  3  4  2  3  4  5  6  7  8  9 10  5  6  7  8  9 10
TYPE ASSIGNMENTS      5  6  7  8  9 10 11 12 13 17 14 15 18 19 16 20 11 12 13 17
TYPE ASSIGNMENTS     14 15 18 19 16 20  1  1  1  1  1  1  1  1  1  1  1  1  1  1
TYPE ASSIGNMENTS      1  1  1  1  1  1  1  1  1  1  1  1  1  1  1  1  1  1  1  1
TYPE ASSIGNMENTS      1  1  1  1  1  1  1  1  1  1  1  1  1  1  1  1  2  2  2  2
TYPE ASSIGNMENTS      2  2  2  2  2  3  3  3  3  3  3  3  3  3  4  4  4  4  4  4
TYPE ASSIGNMENTS      4  4  4  2  2  2  2  2  2  2  2  2  3  3  3  3  3  3  3  3
TYPE ASSIGNMENTS      3  4  4  4  4  4  4  4  4  4  2  2  2  2  2  2  2  2  3  3
TYPE ASSIGNMENTS      3  3  3  3  3  3  4  4  4  4  4  4  4  4  2  3  4  2  3  4
TYPE ASSIGNMENTS      2  3  4  5  5  5  5  5  5  5  6  6  6  6  6  6  6  7  7  7
TYPE ASSIGNMENTS      7  7  7  7  8  8  8  8  8  8  8  9  9  9  9  9  9  9 10 10
TYPE ASSIGNMENTS     10 10 10 10 10  5  6  7  8  9 10  5  6  7  8  9 10  5  6  7
TYPE ASSIGNMENTS      8  9 10 11 12 13 17 14 15 18 19 16 20 11 12 13 17 14 15 18
TYPE ASSIGNMENTS     19 16 20  1  1  1  1  1  1  1  1  1  1  1  1  1  1  1  1  1
TYPE ASSIGNMENTS      1  1  1  1  1  1  1  1  1  1  1  1  1  1  1  1  1  1  1  1
TYPE ASSIGNMENTS      1  1  1  1  1  1  1  1  1  1  1  1  1  2  2  2  2  2  2  2
TYPE ASSIGNMENTS      2  2  3  3  3  3  3  3  3  3  3  4  4  4  4  4  4  4  4  4
TYPE ASSIGNMENTS      2  2  2  2  2  2  2  2  2  3  3  3  3  3  3  3  3  3  4  4
TYPE ASSIGNMENTS      4  4  4  4  4  4  4  2  2  2  2  2  2  2  2  3  3  3  3  3
TYPE ASSIGNMENTS      3  3  3  4  4  4  4  4  4  4  4  2  3  4  2  3  4  2  3  4
TYPE ASSIGNMENTS      5  5  5  5  5  5  5  6  6  6  6  6  6  6  7  7  7  7  7  7
TYPE ASSIGNMENTS      7  8  8  8  8  8  8  8  9  9  9  9  9  9  9 10 10 10 10 10
TYPE ASSIGNMENTS     10 10  5  6  7  8  9 10  5  6  7  8  9 10  5  6  7  8  9 10
TYPE ASSIGNMENTS     11 12 13 17 14 15 18 19 16 20 11 12 13 17 14 15 18 19 16 20
EXPONENTS  0.8236000D+04 0.1235000D+04 0.2808000D+03 0.7927000D+02 0.2559000D+02
EXPONENTS  0.8997000D+01 0.3319000D+01 0.2808000D+03 0.7927000D+02 0.2559000D+02
EXPONENTS  0.8997000D+01 0.3319000D+01 0.3643000D+00 0.9059000D+00 0.1285000D+00
EXPONENTS  0.4402000D-01 0.1871000D+02 0.4133000D+01 0.1200000D+01 0.1871000D+02
EXPONENTS  0.4133000D+01 0.1200000D+01 0.1871000D+02 0.4133000D+01 0.1200000D+01
EXPONENTS  0.3827000D+00 0.3827000D+00 0.3827000D+00 0.1209000D+00 0.1209000D+00
EXPONENTS  0.1209000D+00 0.3569000D-01 0.3569000D-01 0.3569000D-01 0.1097000D+01
EXPONENTS  0.1097000D+01 0.1097000D+01 0.1097000D+01 0.1097000D+01 0.1097000D+01
EXPONENTS  0.3180000D+00 0.3180000D+00 0.3180000D+00 0.3180000D+00 0.3180000D+00
EXPONENTS  0.3180000D+00 0.1000000D+00 0.1000000D+00 0.1000000D+00 0.1000000D+00
EXPONENTS  0.1000000D+00 0.1000000D+00 0.7610000D+00 0.7610000D+00 0.7610000D+00
EXPONENTS  0.7610000D+00 0.7610000D+00 0.7610000D+00 0.7610000D+00 0.7610000D+00
EXPONENTS  0.7610000D+00 0.7610000D+00 0.2680000D+00 0.2680000D+00 0.2680000D+00
EXPONENTS  0.2680000D+00 0.2680000D+00 0.2680000D+00 0.2680000D+00 0.2680000D+00
EXPONENTS  0.2680000D+00 0.2680000D+00 0.3741000D+06 0.5605000D+05 0.1276000D+05
EXPONENTS  0.3615000D+04 0.1183000D+04 0.4288000D+03 0.1678000D+03 0.6947000D+02
EXPONENTS  0.2984000D+02 0.1272000D+02 0.5244000D+01 0.3615000D+04 0.1183000D+04
EXPONENTS  0.4288000D+03 0.1678000D+03 0.6947000D+02 0.2984000D+02 0.1272000D+02
EXPONENTS  0.5244000D+01 0.2219000D+01 0.1183000D+04 0.1678000D+03 0.6947000D+02
EXPONENTS  0.2984000D+02 0.1272000D+02 0.5244000D+01 0.2219000D+01 0.3490000D+00
EXPONENTS  0.7767000D+00 0.1322000D+00 0.4970000D-01 0.5744000D+03 0.1358000D+03
EXPONENTS  0.4319000D+02 0.1587000D+02 0.6208000D+01 0.2483000D+01 0.5744000D+03
EXPONENTS  0.1358000D+03 0.4319000D+02 0.1587000D+02 0.6208000D+01 0.2483000D+01
EXPONENTS  0.5744000D+03 0.1358000D+03 0.4319000D+02 0.1587000D+02 0.6208000D+01
EXPONENTS  0.2483000D+01 0.1358000D+03 0.4319000D+02 0.1587000D+02 0.6208000D+01
EXPONENTS  0.2483000D+01 0.3229000D+00 0.1358000D+03 0.4319000D+02 0.1587000D+02
EXPONENTS  0.6208000D+01 0.2483000D+01 0.3229000D+00 0.1358000D+03 0.4319000D+02
EXPONENTS  0.1587000D+02 0.6208000D+01 0.2483000D+01 0.3229000D+00 0.8688000D+00
EXPONENTS  0.8688000D+00 0.8688000D+00 0.1098000D+00 0.1098000D+00 0.1098000D+00
EXPONENTS  0.3510000D-01 0.3510000D-01 0.3510000D-01 0.2690000D+00 0.2690000D+00
EXPONENTS  0.2690000D+00 0.2690000D+00 0.2690000D+00 0.2690000D+00 0.8190000D+00
EXPONENTS  0.8190000D+00 0.8190000D+00 0.8190000D+00 0.8190000D+00 0.8190000D+00
EXPONENTS  0.1010000D+00 0.1010000D+00 0.1010000D+00 0.1010000D+00 0.1010000D+00
EXPONENTS  0.1010000D+00 0.5570000D+00 0.5570000D+00 0.5570000D+00 0.5570000D+00
EXPONENTS  0.5570000D+00 0.5570000D+00 0.5570000D+00 0.5570000D+00 0.5570000D+00
EXPONENTS  0.5570000D+00 0.2180000D+00 0.2180000D+00 0.2180000D+00 0.2180000D+00
EXPONENTS  0.2180000D+00 0.2180000D+00 0.2180000D+00 0.2180000D+00 0.2180000D+00
EXPONENTS  0.2180000D+00 0.1063900D+08 0.1593400D+07 0.3626100D+06 0.1027000D+06
EXPONENTS  0.3350100D+05 0.1209300D+05 0.4715900D+04 0.1955600D+04 0.8526100D+03
EXPONENTS  0.3876700D+03 0.1826800D+03 0.8824500D+02 0.3926300D+02 0.9405700D+01
EXPONENTS  0.1899500D+01 0.3350100D+05 0.1209300D+05 0.4715900D+04 0.1955600D+04
EXPONENTS  0.8526100D+03 0.3876700D+03 0.1826800D+03 0.8824500D+02 0.3926300D+02
EXPONENTS  0.1923400D+02 0.9405700D+01 0.1899500D+01 0.4715900D+04 0.8526100D+03
EXPONENTS  0.3876700D+03 0.1826800D+03 0.8824500D+02 0.3926300D+02 0.1923400D+02
EXPONENTS  0.9405700D+01 0.4160100D+01 0.1899500D+01 0.4715900D+04 0.8526100D+03
EXPONENTS  0.3876700D+03 0.8824500D+02 0.3926300D+02 0.1923400D+02 0.9405700D+01
EXPONENTS  0.4160100D+01 0.1899500D+01 0.3011400D+00 0.6047200D+00 0.1251500D+00
EXPONENTS  0.4559300D-01 0.8676500D+04 0.2055900D+04 0.6662300D+03 0.2531000D+03
EXPONENTS  0.1061200D+03 0.4724200D+02 0.2182500D+02 0.9968400D+01 0.1998200D+01
EXPONENTS  0.8676500D+04 0.2055900D+04 0.6662300D+03 0.2531000D+03 0.1061200D+03
EXPONENTS  0.4724200D+02 0.2182500D+02 0.9968400D+01 0.1998200D+01 0.8676500D+04
EXPONENTS  0.2055900D+04 0.6662300D+03 0.2531000D+03 0.1061200D+03 0.4724200D+02
EXPONENTS  0.2182500D+02 0.9968400D+01 0.1998200D+01 0.8676500D+04 0.6662300D+03
EXPONENTS  0.2531000D+03 0.1061200D+03 0.4724200D+02 0.2182500D+02 0.9968400D+01
EXPONENTS  0.4517100D+01 0.1998200D+01 0.8676500D+04 0.6662300D+03 0.2531000D+03
EXPONENTS  0.1061200D+03 0.4724200D+02 0.2182500D+02 0.9968400D+01 0.4517100D+01
EXPONENTS  0.1998200D+01 0.8676500D+04 0.6662300D+03 0.2531000D+03 0.1061200D+03
EXPONENTS  0.4724200D+02 0.2182500D+02 0.9968400D+01 0.4517100D+01 0.1998200D+01
EXPONENTS  0.6662300D+03 0.1061200D+03 0.4724200D+02 0.2182500D+02 0.9968400D+01
EXPONENTS  0.4517100D+01 0.1998200D+01 0.2814500D+00 0.6662300D+03 0.1061200D+03
EXPONENTS  0.4724200D+02 0.2182500D+02 0.9968400D+01 0.4517100D+01 0.1998200D+01
EXPONENTS  0.2814500D+00 0.6662300D+03 0.1061200D+03 0.4724200D+02 0.2182500D+02
EXPONENTS  0.9968400D+01 0.4517100D+01 0.1998200D+01 0.2814500D+00 0.7098800D+00
EXPONENTS  0.7098800D+00 0.7098800D+00 0.1020400D+00 0.1020400D+00 0.1020400D+00
EXPONENTS  0.3514200D-01 0.3514200D-01 0.3514200D-01 0.4038300D+03 0.1211700D+03
EXPONENTS  0.4634500D+02 0.1972100D+02 0.8862400D+01 0.3996200D+01 0.1763600D+01
EXPONENTS  0.4038300D+03 0.1211700D+03 0.4634500D+02 0.1972100D+02 0.8862400D+01
EXPONENTS  0.3996200D+01 0.1763600D+01 0.4038300D+03 0.1211700D+03 0.4634500D+02
EXPONENTS  0.1972100D+02 0.8862400D+01 0.3996200D+01 0.1763600D+01 0.4038300D+03
EXPONENTS  0.1211700D+03 0.4634500D+02 0.1972100D+02 0.8862400D+01 0.3996200D+01
EXPONENTS  0.1763600D+01 0.4038300D+03 0.1211700D+03 0.4634500D+02 0.1972100D+02
EXPONENTS  0.8862400D+01 0.3996200D+01 0.1763600D+01 0.4038300D+03 0.1211700D+03
EXPONENTS  0.4634500D+02 0.1972100D+02 0.8862400D+01 0.3996200D+01 0.1763600D+01
EXPONENTS  0.7061900D+00 0.7061900D+00 0.7061900D+00 0.7061900D+00 0.7061900D+00
EXPONENTS  0.7061900D+00 0.2639000D+00 0.2639000D+00 0.2639000D+00 0.2639000D+00
EXPONENTS  0.2639000D+00 0.2639000D+00 0.1047000D+00 0.1047000D+00 0.1047000D+00
EXPONENTS  0.1047000D+00 0.1047000D+00 0.1047000D+00 0.5515000D+00 0.5515000D+00
EXPONENTS  0.5515000D+00 0.5515000D+00 0.5515000D+00 0.5515000D+00 0.5515000D+00
EXPONENTS  0.5515000D+00 0.5515000D+00 0.5515000D+00 0.2580000D+00 0.2580000D+00
EXPONENTS  0.2580000D+00 0.2580000D+00 0.2580000D+00 0.2580000D+00 0.2580000D+00
EXPONENTS  0.2580000D+00 0.2580000D+00 0.2580000D+00 0.1063900D+08 0.1593400D+07
EXPONENTS  0.3626100D+06 0.1027000D+06 0.3350100D+05 0.1209300D+05 0.4715900D+04
EXPONENTS  0.1955600D+04 0.8526100D+03 0.3876700D+03 0.1826800D+03 0.8824500D+02
EXPONENTS  0.3926300D+02 0.9405700D+01 0.1899500D+01 0.3350100D+05 0.1209300D+05
EXPONENTS  0.4715900D+04 0.1955600D+04 0.8526100D+03 0.3876700D+03 0.1826800D+03
EXPONENTS  0.8824500D+02 0.3926300D+02 0.1923400D+02 0.9405700D+01 0.1899500D+01
EXPONENTS  0.4715900D+04 0.8526100D+03 0.3876700D+03 0.1826800D+03 0.8824500D+02
EXPONENTS  0.3926300D+02 0.1923400D+02 0.9405700D+01 0.4160100D+01 0.1899500D+01
EXPONENTS  0.4715900D+04 0.8526100D+03 0.3876700D+03 0.8824500D+02 0.3926300D+02
EXPONENTS  0.1923400D+02 0.9405700D+01 0.4160100D+01 0.1899500D+01 0.3011400D+00
EXPONENTS  0.6047200D+00 0.1251500D+00 0.4559300D-01 0.8676500D+04 0.2055900D+04
EXPONENTS  0.6662300D+03 0.2531000D+03 0.1061200D+03 0.4724200D+02 0.2182500D+02
EXPONENTS  0.9968400D+01 0.1998200D+01 0.8676500D+04 0.2055900D+04 0.6662300D+03
EXPONENTS  0.2531000D+03 0.1061200D+03 0.4724200D+02 0.2182500D+02 0.9968400D+01
EXPONENTS  0.1998200D+01 0.8676500D+04 0.2055900D+04 0.6662300D+03 0.2531000D+03
EXPONENTS  0.1061200D+03 0.4724200D+02 0.2182500D+02 0.9968400D+01 0.1998200D+01
EXPONENTS  0.8676500D+04 0.6662300D+03 0.2531000D+03 0.1061200D+03 0.4724200D+02
EXPONENTS  0.2182500D+02 0.9968400D+01 0.4517100D+01 0.1998200D+01 0.8676500D+04
EXPONENTS  0.6662300D+03 0.2531000D+03 0.1061200D+03 0.4724200D+02 0.2182500D+02
EXPONENTS  0.9968400D+01 0.4517100D+01 0.1998200D+01 0.8676500D+04 0.6662300D+03
EXPONENTS  0.2531000D+03 0.1061200D+03 0.4724200D+02 0.2182500D+02 0.9968400D+01
EXPONENTS  0.4517100D+01 0.1998200D+01 0.6662300D+03 0.1061200D+03 0.4724200D+02
EXPONENTS  0.2182500D+02 0.9968400D+01 0.4517100D+01 0.1998200D+01 0.2814500D+00
EXPONENTS  0.6662300D+03 0.1061200D+03 0.4724200D+02 0.2182500D+02 0.9968400D+01
EXPONENTS  0.4517100D+01 0.1998200D+01 0.2814500D+00 0.6662300D+03 0.1061200D+03
EXPONENTS  0.4724200D+02 0.2182500D+02 0.9968400D+01 0.4517100D+01 0.1998200D+01
EXPONENTS  0.2814500D+00 0.7098800D+00 0.7098800D+00 0.7098800D+00 0.1020400D+00
EXPONENTS  0.1020400D+00 0.1020400D+00 0.3514200D-01 0.3514200D-01 0.3514200D-01
EXPONENTS  0.4038300D+03 0.1211700D+03 0.4634500D+02 0.1972100D+02 0.8862400D+01
EXPONENTS  0.3996200D+01 0.1763600D+01 0.4038300D+03 0.1211700D+03 0.4634500D+02
EXPONENTS  0.1972100D+02 0.8862400D+01 0.3996200D+01 0.1763600D+01 0.4038300D+03
EXPONENTS  0.1211700D+03 0.4634500D+02 0.1972100D+02 0.8862400D+01 0.3996200D+01
EXPONENTS  0.1763600D+01 0.4038300D+03 0.1211700D+03 0.4634500D+02 0.1972100D+02
EXPONENTS  0.8862400D+01 0.3996200D+01 0.1763600D+01 0.4038300D+03 0.1211700D+03
EXPONENTS  0.4634500D+02 0.1972100D+02 0.8862400D+01 0.3996200D+01 0.1763600D+01
EXPONENTS  0.4038300D+03 0.1211700D+03 0.4634500D+02 0.1972100D+02 0.8862400D+01
EXPONENTS  0.3996200D+01 0.1763600D+01 0.7061900D+00 0.7061900D+00 0.7061900D+00
EXPONENTS  0.7061900D+00 0.7061900D+00 0.7061900D+00 0.2639000D+00 0.2639000D+00
EXPONENTS  0.2639000D+00 0.2639000D+00 0.2639000D+00 0.2639000D+00 0.1047000D+00
EXPONENTS  0.1047000D+00 0.1047000D+00 0.1047000D+00 0.1047000D+00 0.1047000D+00
EXPONENTS  0.5515000D+00 0.5515000D+00 0.5515000D+00 0.5515000D+00 0.5515000D+00
EXPONENTS  0.5515000D+00 0.5515000D+00 0.5515000D+00 0.5515000D+00 0.5515000D+00
EXPONENTS  0.2580000D+00 0.2580000D+00 0.2580000D+00 0.2580000D+00 0.2580000D+00
EXPONENTS  0.2580000D+00 0.2580000D+00 0.2580000D+00 0.2580000D+00 0.2580000D+00
MO    1     MO 0.0        OCC NO =    2.0000283  ORB. ENERGY =    0.000000
 -0.37034726D-10 -0.69040190D-10 -0.11668733D-09 -0.17540282D-09 -0.21545094D-09
 -0.18183300D-09 -0.68373955D-10 -0.25767539D-14 -0.19259639D-13 -0.71977668D-13
 -0.20080649D-12 -0.26902533D-12  0.31766875D-12 -0.30309194D-11 -0.86630156D-12
 -0.12507855D-12 -0.34610821D-13 -0.32449844D-13 -0.23106222D-13 -0.26175246D-02
 -0.24540957D-02 -0.17474623D-02  0.20132697D-11  0.18875683D-11  0.13440611D-11
 -0.52052582D-14 -0.55119278D-03  0.18354977D-12 -0.10196348D-13  0.12871907D-02
 -0.23305762D-12 -0.68279978D-15  0.80488829D-04  0.36733566D-14  0.16325187D-12
 -0.94186018D-13 -0.69065855D-13 -0.74825285D-05 -0.63703397D-14 -0.11882932D-02
  0.61121161D-13  0.36888502D-13 -0.98009664D-13  0.41041881D-05 -0.32142202D-14
  0.16064802D-05  0.14146620D-13  0.29414880D-13 -0.43561500D-13  0.25891535D-05
 -0.75560574D-14 -0.32102144D-03 -0.66812124D-15  0.11229060D-03 -0.15084896D-13
  0.11676289D-14  0.27503961D-03 -0.13942032D-13  0.83673484D-15 -0.61191141D-03
  0.59196718D-13 -0.74153857D-05 -0.38432622D-15 -0.68554862D-04  0.19333580D-13
 -0.22729503D-16 -0.13795344D-03  0.90004027D-14  0.11757082D-14  0.34361803D-03
 -0.67001144D-13  0.39325758D-05 -0.80252493D-10 -0.15004012D-09 -0.25931392D-09
 -0.41942958D-09 -0.63395378D-09 -0.87308561D-09 -0.10205308D-08 -0.88201168D-09
 -0.41163945D-09 -0.55768113D-10  0.40789601D-12 -0.57741507D-12 -0.74226126D-11
 -0.27076624D-10 -0.91355858D-10 -0.20065846D-09 -0.25919599D-09  0.41655001D-10
  0.34943595D-09  0.19176594D-09 -0.48372846D-14 -0.55099678D-13 -0.11440679D-12
 -0.31458963D-12  0.40790158D-13  0.14224310D-11  0.35477689D-11 -0.29367917D-11
  0.10655568D-10  0.61634670D-12  0.15910578D-13  0.17592348D-09  0.23080160D-09
  0.25313941D-09  0.20827548D-09  0.10979099D-09  0.28565551D-10  0.97045723D+01
  0.12731847D+02  0.13964081D+02  0.11489225D+02  0.60564661D+01  0.15757786D+01
  0.26001216D-08  0.34112117D-08  0.37413609D-08  0.30782791D-08  0.16226937D-08
  0.42219438D-09  0.11136887D-14  0.39976557D-13  0.63423810D-13  0.75313829D-13
  0.11396967D-13 -0.82944993D-13  0.88548479D-04  0.31785035D-02  0.50427755D-02
  0.59881413D-02  0.90616361D-03 -0.65948889D-02  0.24464285D-13  0.87816094D-12
  0.13932243D-11  0.16544112D-11  0.25035602D-12 -0.18220442D-11  0.13436899D-11
  0.67296093D-01  0.19143003D-10  0.12949567D-13 -0.32131817D-03 -0.28404862D-12
  0.19754119D-15 -0.28032859D-04 -0.72213854D-15 -0.10847269D-12 -0.53539682D-13
  0.16201237D-12  0.44927089D-05  0.67325679D-14  0.76804813D-03  0.80965654D-13
 -0.15242467D-12  0.71459018D-13 -0.37257414D-05 -0.11261572D-14 -0.72871990D-03
 -0.34017470D-14 -0.92112294D-14  0.12612976D-13 -0.10570281D-05 -0.40852640D-14
 -0.41301958D-04  0.25196494D-14  0.35498260D-05 -0.37259145D-13  0.23420666D-15
  0.13847506D-03  0.99935418D-13 -0.77931549D-14 -0.14912454D-03  0.11842017D-13
 -0.62974132D-05 -0.35636087D-15  0.31999219D-04 -0.79878881D-14 -0.29024437D-15
  0.28395095D-05  0.11823128D-13  0.13593270D-14 -0.98837167D-04  0.12140536D-13
 -0.27611106D-06  0.36976632D-03  0.69558614D-03  0.12040951D-02  0.19737431D-02
  0.30918987D-02  0.46473753D-02  0.66421919D-02  0.88174953D-02  0.10268610D-01
  0.94305306D-02  0.55127643D-02  0.14465172D-02  0.82242538D-04  0.14350439D-05
  0.14445349D-06  0.18606265D-04  0.53749210D-04  0.24634526D-03  0.72923562D-03
  0.21148045D-02  0.43958165D-02  0.62882677D-02  0.18030472D-02 -0.72052181D-02
 -0.69667488D-02 -0.15205994D-02  0.22010217D-04  0.12210743D-04  0.56965641D-04
  0.11560754D-03  0.45308606D-03  0.31794122D-03 -0.20705536D-02 -0.64159346D-02
 -0.78481248D-03  0.56085005D-02  0.26320691D-02 -0.96426548D-06 -0.13219315D-05
  0.25344624D-05  0.53865659D-05 -0.20362726D-04 -0.65847884D-04 -0.22900892D-04
  0.22399567D-03  0.49962646D-03 -0.33153692D-03 -0.56549459D-04  0.15383546D-02
  0.47865460D-03 -0.93104224D-02 -0.13359067D-01 -0.17688638D-01 -0.20427299D-01
 -0.18939958D-01 -0.12265263D-01 -0.43279108D-02 -0.49867859D-03  0.81468761D-06
  0.11926657D+01  0.17112972D+01  0.22659156D+01  0.26167382D+01  0.24262098D+01
  0.15711809D+01  0.55440564D+00  0.63880757D-01 -0.10436153D-03  0.10396001D+01
  0.14916709D+01  0.19751101D+01  0.22809084D+01  0.21148323D+01  0.13695370D+01
  0.48325373D+00  0.55682360D-01 -0.90967870D-04  0.56158039D-04 -0.16011657D-03
 -0.78154959D-03 -0.16195194D-02 -0.20323370D-02 -0.32229209D-03  0.26088456D-02
  0.22752916D-02  0.58489756D-03 -0.72356084D-02  0.20630009D-01  0.10069772D+00
  0.20866483D+00  0.26185377D+00  0.41525298D-01 -0.33613326D+00 -0.29315694D+00
 -0.75360353D-01 -0.64239764D-02  0.18315901D-01  0.89402269D-01  0.18525850D+00
  0.23248113D+00  0.36867327D-01 -0.29842855D+00 -0.26027297D+00 -0.66907039D-01
  0.14233681D-05  0.20108475D-05 -0.93563683D-06  0.18750250D-05  0.20583578D-05
  0.55561529D-05  0.17508906D-05 -0.37591993D-05 -0.73406366D-04 -0.10370403D-03
  0.48252942D-04 -0.96699351D-04 -0.10615424D-03 -0.28654358D-03 -0.90297452D-04
  0.19387055D-03  0.58010590D-04  0.81953816D-04 -0.38132682D-04  0.76418255D-04
  0.83890140D-04  0.22644578D-03  0.71359049D-04 -0.15320939D-03  0.26251222D-04
 -0.31186128D-02 -0.28951156D-02 -0.22452925D-05  0.38434285D-03  0.16655280D-03
 -0.18378961D-06  0.14770189D-04  0.12332772D-04  0.14795080D+00  0.15481457D+00
  0.13191030D+00  0.86872905D-01  0.40037135D-01  0.11989185D-01  0.20398582D-02
 -0.14927106D+00 -0.15619608D+00 -0.13308742D+00 -0.87648127D-01 -0.40394412D-01
 -0.12096172D-01 -0.20580611D-02  0.13202600D-02  0.13815098D-02  0.11771203D-02
  0.77522271D-03  0.35727707D-03  0.10698720D-03  0.18202964D-04  0.41422423D-02
  0.43344102D-02  0.36931495D-02  0.24322182D-02  0.11209369D-02  0.33566638D-03
  0.57110789D-04  0.29776177D-02  0.31157561D-02  0.26547910D-02  0.17483806D-02
  0.80577655D-03  0.24129109D-03  0.41053634D-04 -0.47813394D+00 -0.50031565D+00
 -0.42629571D+00 -0.28074796D+00 -0.12938837D+00 -0.38745558D-01 -0.65922282D-02
  0.65129318D-04 -0.11681109D-03  0.51681768D-04  0.48081047D-05  0.21634524D-05
 -0.35244127D-03 -0.54727712D-04  0.56951485D-04 -0.22237733D-05 -0.38391185D-05
 -0.80540611D-06  0.93790057D-04 -0.15693932D-04  0.18591056D-04 -0.28971232D-05
 -0.68956844D-06 -0.53705846D-07  0.63867405D-04  0.19741028D-06  0.27879152D-04
  0.31873029D-04  0.17361147D-06 -0.51866291D-04 -0.39824737D-04 -0.76584231D-06
 -0.31771166D-04 -0.55794350D-04  0.84770113D-06  0.69217342D-07 -0.17140153D-05
 -0.13688461D-05 -0.11277426D-05  0.12492910D-04  0.22715235D-05  0.92009054D-06
 -0.73508644D-05  0.18350148D-05 -0.35052769D-06 -0.36976640D-03 -0.69558628D-03
 -0.12040954D-02 -0.19737435D-02 -0.30918993D-02 -0.46473763D-02 -0.66421932D-02
 -0.88174971D-02 -0.10268612D-01 -0.94305325D-02 -0.55127654D-02 -0.14465175D-02
 -0.82242555D-04 -0.14350441D-05 -0.14445352D-06 -0.18606266D-04 -0.53749213D-04
 -0.24634527D-03 -0.72923565D-03 -0.21148046D-02 -0.43958167D-02 -0.62882680D-02
 -0.18030473D-02  0.72052184D-02  0.69667492D-02  0.15205995D-02 -0.22010218D-04
 -0.12210744D-04 -0.56965644D-04 -0.11560755D-03 -0.45308608D-03 -0.31794123D-03
  0.20705537D-02  0.64159349D-02  0.78481252D-03 -0.56085008D-02 -0.26320692D-02
  0.96426548D-06  0.13219314D-05 -0.25344623D-05 -0.53865659D-05  0.20362726D-04
  0.65847884D-04  0.22900892D-04 -0.22399567D-03 -0.49962646D-03  0.33153691D-03
  0.56549454D-04 -0.15383546D-02 -0.47865460D-03  0.93104224D-02  0.13359066D-01
  0.17688638D-01  0.20427298D-01  0.18939958D-01  0.12265263D-01  0.43279108D-02
  0.49867859D-03 -0.81468761D-06  0.11926657D+01  0.17112972D+01  0.22659156D+01
  0.26167382D+01  0.24262097D+01  0.15711809D+01  0.55440563D+00  0.63880757D-01
 -0.10436153D-03 -0.10396001D+01 -0.14916709D+01 -0.19751101D+01 -0.22809084D+01
 -0.21148323D+01 -0.13695370D+01 -0.48325373D+00 -0.55682360D-01  0.90967870D-04
 -0.56158036D-04  0.16011657D-03  0.78154955D-03  0.16195193D-02  0.20323368D-02
  0.32229207D-03 -0.26088454D-02 -0.22752914D-02 -0.58489752D-03 -0.72356084D-02
  0.20630008D-01  0.10069772D+00  0.20866483D+00  0.26185377D+00  0.41525298D-01
 -0.33613326D+00 -0.29315694D+00 -0.75360353D-01  0.64239764D-02 -0.18315901D-01
 -0.89402269D-01 -0.18525850D+00 -0.23248113D+00 -0.36867327D-01  0.29842855D+00
  0.26027296D+00  0.66907039D-01 -0.14233681D-05 -0.20108475D-05  0.93563684D-06
 -0.18750250D-05 -0.20583578D-05 -0.55561529D-05 -0.17508906D-05  0.37591993D-05
 -0.73406366D-04 -0.10370403D-03  0.48252942D-04 -0.96699351D-04 -0.10615424D-03
 -0.28654358D-03 -0.90297452D-04  0.19387055D-03 -0.58010590D-04 -0.81953816D-04
  0.38132682D-04 -0.76418255D-04 -0.83890140D-04 -0.22644578D-03 -0.71359049D-04
  0.15320939D-03 -0.26251221D-04 -0.31186128D-02  0.28951156D-02  0.22452925D-05
  0.38434285D-03 -0.16655280D-03  0.18378961D-06  0.14770189D-04 -0.12332772D-04
 -0.14795080D+00 -0.15481457D+00 -0.13191030D+00 -0.86872904D-01 -0.40037135D-01
 -0.11989185D-01 -0.20398582D-02  0.14927106D+00  0.15619608D+00  0.13308742D+00
  0.87648127D-01  0.40394412D-01  0.12096172D-01  0.20580611D-02 -0.13202600D-02
 -0.13815098D-02 -0.11771203D-02 -0.77522269D-03 -0.35727706D-03 -0.10698719D-03
 -0.18202964D-04  0.41422423D-02  0.43344103D-02  0.36931495D-02  0.24322182D-02
  0.11209369D-02  0.33566638D-03  0.57110789D-04 -0.29776179D-02 -0.31157563D-02
 -0.26547911D-02 -0.17483806D-02 -0.80577659D-03 -0.24129110D-03 -0.41053635D-04
 -0.47813394D+00 -0.50031565D+00 -0.42629571D+00 -0.28074795D+00 -0.12938837D+00
 -0.38745558D-01 -0.65922282D-02 -0.65129317D-04  0.11681108D-03 -0.51681768D-04
  0.48081047D-05 -0.21634525D-05 -0.35244127D-03  0.54727712D-04 -0.56951485D-04
  0.22237733D-05 -0.38391185D-05  0.80540611D-06  0.93790057D-04  0.15693932D-04
 -0.18591056D-04  0.28971232D-05 -0.68956844D-06  0.53705846D-07  0.63867405D-04
 -0.19741028D-06  0.27879152D-04 -0.31873029D-04 -0.17361146D-06 -0.51866291D-04
  0.39824737D-04  0.76584231D-06 -0.31771166D-04  0.55794350D-04  0.84770112D-06
 -0.69217341D-07 -0.17140153D-05  0.13688461D-05  0.11277426D-05  0.12492910D-04
 -0.22715235D-05 -0.92009054D-06 -0.73508644D-05 -0.18350148D-05 -0.35052769D-06
MO    2     MO 0.0        OCC NO =    2.0000240  ORB. ENERGY =    0.000000
 -0.58960449D-01 -0.10991415D+00 -0.18576990D+00 -0.27924680D+00 -0.34300468D+00
 -0.28948385D+00 -0.10885349D+00 -0.10359315D-04 -0.77429461D-04 -0.28937157D-03
 -0.80730163D-03 -0.10815616D-02  0.12771226D-02 -0.44805447D-02 -0.17440724D-02
 -0.31723876D-03  0.19946777D-04  0.18701371D-04  0.13316491D-04  0.15826864D-11
  0.14838691D-11  0.10566032D-11  0.22932688D-02  0.21500852D-02  0.15309888D-02
 -0.41470629D-06  0.40905948D-12 -0.21680391D-03 -0.42816841D-05 -0.42046940D-12
 -0.96620199D-03 -0.20168010D-06 -0.29914169D-13  0.10758883D-05  0.12459818D-03
  0.11571250D-04 -0.13616943D-03  0.88022508D-15  0.75416862D-06  0.36531312D-12
  0.11848058D-03  0.12829873D-03 -0.24677931D-03 -0.11497114D-14 -0.41648219D-05
 -0.17273991D-13  0.23558736D-04  0.10012405D-03 -0.12368279D-03  0.12869396D-14
 -0.13528481D-05  0.13508804D-12 -0.90008872D-06 -0.53257069D-13 -0.97729219D-05
  0.20558144D-05 -0.92671998D-13 -0.90584113D-04  0.64445176D-06  0.25244320D-12
  0.11990288D-03  0.78741179D-14  0.32588102D-06  0.30064782D-13  0.13237504D-04
 -0.12474470D-05  0.50318453D-13  0.44741245D-04  0.26980398D-06 -0.14051280D-12
 -0.84453756D-04 -0.11643371D-14 -0.12703661D+00 -0.23750774D+00 -0.41048396D+00
 -0.66394089D+00 -0.10035244D+01 -0.13820609D+01 -0.16154609D+01 -0.13961906D+01
 -0.65160941D+00 -0.88278777D-01  0.64568369D-03 -0.15829757D-02 -0.20348994D-01
 -0.74230205D-01 -0.25045087D+00 -0.55010249D+00 -0.71058237D+00  0.11419663D+00
  0.95797402D+00  0.52572379D+00 -0.12725788D-04 -0.14495464D-03 -0.30097808D-03
 -0.82761328D-03  0.10730957D-03  0.37420904D-02  0.93333676D-02 -0.77260266D-02
  0.29340475D-01  0.18098911D-02  0.12889107D-03  0.18253487D-01  0.23947536D-01
  0.26265265D-01  0.21610268D-01  0.11391705D-01  0.29639073D-02 -0.39495198D-08
 -0.51815453D-08 -0.56830338D-08 -0.46758290D-08 -0.24648312D-08 -0.64130271D-09
  0.62309946D+01  0.81747105D+01  0.89658883D+01  0.73768628D+01  0.38886626D+01
  0.10117569D+01  0.21162776D-06  0.75965121D-05  0.12052057D-04  0.14311448D-04
  0.21656993D-05 -0.15761554D-04 -0.35518699D-13 -0.12749661D-11 -0.20227657D-11
 -0.24019722D-11 -0.36348171D-12  0.26453518D-11  0.57972394D-04  0.20809557D-02
  0.33014883D-02  0.39204161D-02  0.59326229D-03 -0.43176518D-02  0.14418015D-03
 -0.27435840D-10  0.45893309D-01 -0.51199350D-05  0.88006308D-13 -0.77407531D-03
  0.80269630D-07  0.97322856D-14 -0.49980017D-05 -0.24704406D-03 -0.13338413D-03
  0.38042819D-03 -0.21383782D-14  0.76176617D-05 -0.29632052D-12  0.21040663D-03
 -0.39863535D-03  0.18822872D-03  0.36800307D-14  0.23233041D-05  0.23467024D-12
 -0.54232903D-05 -0.30831095D-04  0.36254385D-04 -0.64070301D-16  0.79429391D-06
  0.26550069D-13  0.98537535D-06 -0.39742429D-14 -0.74216058D-04  0.60129661D-07
 -0.55201267D-13  0.20816330D-03 -0.30162557D-05  0.67123996D-13  0.14484870D-04
  0.53699353D-15  0.18534302D-06 -0.11121316D-13 -0.20802530D-04  0.32874830D-06
 -0.46145202D-15  0.19382818D-04 -0.88477736D-06  0.33825401D-13  0.43024774D-04
  0.10119965D-14  0.58158652D-03  0.10940518D-02  0.18938596D-02  0.31043995D-02
  0.48630892D-02  0.73096187D-02  0.10447164D-01  0.13868587D-01  0.16150971D-01
  0.14832799D-01  0.86707448D-02  0.22751529D-02  0.12935508D-03  0.22571070D-05
  0.22720350D-06  0.27652168D-04  0.79880741D-04  0.36611220D-03  0.10837719D-02
  0.31429700D-02  0.65329533D-02  0.93454673D-02  0.26796440D-02 -0.10708216D-01
 -0.10353809D-01 -0.22598771D-02  0.32711037D-04  0.17535227D-04  0.81805459D-04
  0.16601811D-03  0.65065384D-03  0.45657921D-03 -0.29734166D-02 -0.92135973D-02
 -0.11270293D-02  0.80540823D-02  0.37797805D-02 -0.20729284D-06 -0.28418203D-06
  0.54484569D-06  0.11579762D-05 -0.43774742D-05 -0.14155639D-04 -0.49231161D-05
  0.48153437D-04  0.10740713D-03 -0.71272101D-04  0.82931875D-04 -0.29110217D-03
  0.76435014D-04  0.11370615D-02  0.16315135D-02  0.21602746D-02  0.24947412D-02
  0.23130955D-02  0.14979296D-02  0.52855825D-03  0.60902522D-04 -0.99496010D-07
  0.25590763D+00  0.36718925D+00  0.48619250D+00  0.56146771D+00  0.52058645D+00
  0.33712480D+00  0.11895759D+00  0.13706752D-01 -0.22392623D-04  0.32120834D+00
  0.46088602D+00  0.61025567D+00  0.70473909D+00  0.65342603D+00  0.42314993D+00
  0.14931235D+00  0.17204345D-01 -0.28106614D-04 -0.84019094D-05  0.23955341D-04