 Entering Gaussian System, Link 0=/home/bruns/programas/chemistry/gaussian/g09/g09
 Input=GAUSSIAN.com
 Output=GAUSSIAN.log
 Initial command:
 /home/bruns/programas/chemistry/gaussian/g09/l1.exe /home/bruns/programas/chemistry/gaussian/work/Gau-17552.inp -scrdir=/home/bruns/programas/chemistry/gaussian/work/
 Entering Link 1 = /home/bruns/programas/chemistry/gaussian/g09/l1.exe PID=     17554.
  
 Copyright (c) 1988,1990,1992,1993,1995,1998,2003,2009,2010,
            Gaussian, Inc.  All Rights Reserved.
  
 This is part of the Gaussian(R) 09 program.  It is based on
 the Gaussian(R) 03 system (copyright 2003, Gaussian, Inc.),
 the Gaussian(R) 98 system (copyright 1998, Gaussian, Inc.),
 the Gaussian(R) 94 system (copyright 1995, Gaussian, Inc.),
 the Gaussian 92(TM) system (copyright 1992, Gaussian, Inc.),
 the Gaussian 90(TM) system (copyright 1990, Gaussian, Inc.),
 the Gaussian 88(TM) system (copyright 1988, Gaussian, Inc.),
 the Gaussian 86(TM) system (copyright 1986, Carnegie Mellon
 University), and the Gaussian 82(TM) system (copyright 1983,
 Carnegie Mellon University). Gaussian is a federally registered
 trademark of Gaussian, Inc.
  
 This software contains proprietary and confidential information,
 including trade secrets, belonging to Gaussian, Inc.
  
 This software is provided under written license and may be
 used, copied, transmitted, or stored only in accord with that
 written license.
  
 The following legend is applicable only to US Government
 contracts under FAR:
  
                    RESTRICTED RIGHTS LEGEND
  
 Use, reproduction and disclosure by the US Government is
 subject to restrictions as set forth in subparagraphs (a)
 and (c) of the Commercial Computer Software - Restricted
 Rights clause in FAR 52.227-19.
  
 Gaussian, Inc.
 340 Quinnipiac St., Bldg. 40, Wallingford CT 06492
  
  
 ---------------------------------------------------------------
 Warning -- This program may not be used in any manner that
 competes with the business of Gaussian, Inc. or will provide
 assistance to any competitor of Gaussian, Inc.  The licensee
 of this program is prohibited from giving any competitor of
 Gaussian, Inc. access to this program.  By using this program,
 the user acknowledges that Gaussian, Inc. is engaged in the
 business of creating and licensing software in the field of
 computational chemistry and represents and warrants to the
 licensee that it is not a competitor of Gaussian, Inc. and that
 it will not use this program in any manner prohibited above.
 ---------------------------------------------------------------
  

 Cite this work as:
 Gaussian 09, Revision B.01,
 M. J. Frisch, G. W. Trucks, H. B. Schlegel, G. E. Scuseria, 
 M. A. Robb, J. R. Cheeseman, G. Scalmani, V. Barone, B. Mennucci, 
 G. A. Petersson, H. Nakatsuji, M. Caricato, X. Li, H. P. Hratchian, 
 A. F. Izmaylov, J. Bloino, G. Zheng, J. L. Sonnenberg, M. Hada, 
 M. Ehara, K. Toyota, R. Fukuda, J. Hasegawa, M. Ishida, T. Nakajima, 
 Y. Honda, O. Kitao, H. Nakai, T. Vreven, J. A. Montgomery, Jr., 
 J. E. Peralta, F. Ogliaro, M. Bearpark, J. J. Heyd, E. Brothers, 
 K. N. Kudin, V. N. Staroverov, T. Keith, R. Kobayashi, J. Normand, 
 K. Raghavachari, A. Rendell, J. C. Burant, S. S. Iyengar, J. Tomasi, 
 M. Cossi, N. Rega, J. M. Millam, M. Klene, J. E. Knox, J. B. Cross, 
 V. Bakken, C. Adamo, J. Jaramillo, R. Gomperts, R. E. Stratmann, 
 O. Yazyev, A. J. Austin, R. Cammi, C. Pomelli, J. W. Ochterski, 
 R. L. Martin, K. Morokuma, V. G. Zakrzewski, G. A. Voth, 
 P. Salvador, J. J. Dannenberg, S. Dapprich, A. D. Daniels, 
 O. Farkas, J. B. Foresman, J. V. Ortiz, J. Cioslowski, 
 and D. J. Fox, Gaussian, Inc., Wallingford CT, 2010.
 
 ******************************************
 Gaussian 09:  EM64L-G09RevB.01 12-Aug-2010
                29-Nov-2021 
 ******************************************
 %nproc=8
 Will use up to    8 processors via shared memory.
 %mem=8GB
 -----------------------------------------------------
 # qcisd/aug-cc-pvtz nosymm density=current output=wfn
 -----------------------------------------------------
 1/30=1,38=1/1;
 2/12=2,15=1,17=6,18=5,40=1/2;
 3/5=16,6=1,7=10,11=9,16=1,25=1,30=1,71=1/1,2,3;
 4//1;
 5/5=2,38=5/2;
 8/6=4,9=120000,10=1/1,4;
 9/5=8,15=1/13;
 11/28=-7,31=1,32=3,42=3/11;
 10/5=6,13=10,31=1/2;
 6/7=2,8=2,9=2,10=2,22=-1,31=1/1;
 99/5=1,6=1100,9=1/99;
 ------------------
 br2cs-wavefunction
 ------------------
 Symbolic Z-matrix:
 Charge =  0 Multiplicity = 1
 C                     0.        0.       -0.51945 
 S                     0.        0.        1.08369 
 Br                    0.       -1.56852  -1.57857 
 Br                    0.        1.55852  -1.57857 
 
                          Input orientation:                          
 ---------------------------------------------------------------------
 Center     Atomic      Atomic             Coordinates (Angstroms)
 Number     Number       Type             X           Y           Z
 ---------------------------------------------------------------------
      1          6           0        0.000000    0.000000   -0.519451
      2         16           0        0.000000    0.000000    1.083692
      3         35           0        0.000000   -1.568516   -1.578570
      4         35           0        0.000000    1.558516   -1.578570
 ---------------------------------------------------------------------
                    Distance matrix (angstroms):
                    1          2          3          4
     1  C    0.000000
     2  S    1.603143   0.000000
     3  Br   1.892611   3.089965   0.000000
     4  Br   1.884331   3.084900   3.127032   0.000000
 Symmetry turned off by external request.
 Stoichiometry    CBr2S
 Framework group  CS[SG(CBr2S)]
 Deg. of freedom     5
 Full point group                 CS      NOp   2
 Rotational constants (GHZ):      2.6233782      1.3097934      0.8736165
 Standard basis: Aug-CC-pVTZ (5D, 7F)
 Integral buffers will be    131072 words long.
 Raffenetti 1 integral format.
 Two-electron integral symmetry is turned off.
   214 basis functions,   620 primitive gaussians,   252 cartesian basis functions
    46 alpha electrons       46 beta electrons
       nuclear repulsion energy       548.6467186675 Hartrees.
 NAtoms=    4 NActive=    4 NUniq=    4 SFac= 1.00D+00 NAtFMM=   50 NAOKFM=F Big=F
 One-electron integrals computed using PRISM.
 NBasis=   214 RedAO= T  NBF=   214
 NBsUse=   214 1.00D-06 NBFU=   214
 Harris functional with IExCor=  205 diagonalized for initial guess.
 ExpMin= 3.51D-02 ExpMax= 1.06D+07 ExpMxC= 1.21D+04 IAcc=3 IRadAn=         0 AccDes= 0.00D+00
 HarFok:  IExCor=  205 AccDes= 0.00D+00 IRadAn=         0 IDoV= 1
 ScaDFX=  1.000000  1.000000  1.000000  1.000000
 FoFCou: FMM=F IPFlag=           0 FMFlag=      100000 FMFlg1=           0
         NFxFlg=           0 DoJE=T BraDBF=F KetDBF=T FulRan=T
         Omega=  0.000000  0.000000  1.000000  0.000000  0.000000 ICntrl=     500 IOpCl=  0
         NMat0=    1 NMatS0=    1 NMatT0=    0 NMatD0=    1 NMtDS0=    0 NMtDT0=    0
         I1Cent=           4 NGrid=           0.
 Symmetry not used in FoFCou.
 Requested convergence on RMS density matrix=1.00D-08 within 128 cycles.
 Requested convergence on MAX density matrix=1.00D-06.
 Requested convergence on             energy=1.00D-06.
 No special actions if energy rises.
 Keep R1 ints in memory in canonical form, NReq=516428601.
 SCF Done:  E(RHF) =  -5580.30868077     A.U. after   14 cycles
             Convg  =    0.3041D-08             -V/T =  2.0000
 ExpMin= 3.51D-02 ExpMax= 1.06D+07 ExpMxC= 1.21D+04 IAcc=3 IRadAn=         5 AccDes= 0.00D+00
 HarFok:  IExCor=  205 AccDes= 0.00D+00 IRadAn=         5 IDoV=-2
 ScaDFX=  1.000000  1.000000  1.000000  1.000000
 DSYEVD returned Info=          89 IAlg= 4 N=    59 NDim=    59 NE2=    18196455 trying DSYEV.
 Range of M.O.s used for correlation:    25   214
 NBasis=   214 NAE=    46 NBE=    46 NFC=    24 NFV=     0
 NROrb=    190 NOA=    22 NOB=    22 NVA=   168 NVB=   168

 **** Warning!!: The largest alpha MO coefficient is  0.30799172D+02

 Semi-Direct transformation.
 ModeAB=           2 MOrb=            22 LenV=    1072456943
 LASXX=     69628944 LTotXX=    69628944 LenRXX=    69628944
 LTotAB=    70719517 MaxLAS=   133250040 LenRXY=   133250040
 NonZer=   139257888 LenScr=   209707008 LnRSAI=           0
 LnScr1=           0 LExtra=           0 Total=    412585992
 MaxDsk=          -1 SrtSym=           F ITran=            4
 JobTyp=0 Pass  1:  I=   1 to  22.
 (rs|ai) integrals will be sorted in core.
 Spin components of T(2) and E(2):
     alpha-alpha T2 =       0.4285032677D-01 E2=     -0.1154344511D+00
     alpha-beta  T2 =       0.2164322408D+00 E2=     -0.5792527952D+00
     beta-beta   T2 =       0.4285032677D-01 E2=     -0.1154344511D+00
 ANorm=    0.1141110378D+01
 E2 =    -0.8101216973D+00 EUMP2 =    -0.55811188024715D+04
 R2 and R3 integrals will be kept in memory, NReq=  1024335774.
 Iterations=  50 Convergence= 0.100D-07
 Iteration Nr.   1
 **********************
 DD1Dir will call FoFMem   1 times, MxPair=       506
 NAB=   253 NAA=     0 NBB=     0.
 MP4(R+Q)=  0.23447977D-01
 E3=       -0.12167557D-01        EUMP3=      -0.55811309700D+04
 E4(DQ)=   -0.49436944D-03        UMP4(DQ)=   -0.55811314644D+04
 E4(SDQ)=  -0.10144966D-01        UMP4(SDQ)=  -0.55811411150D+04
 DE(Corr)= -0.79884128     E(Corr)=     -5581.1075221    
 NORM(A)=   0.11408966D+01
 Iteration Nr.   2
 **********************
 DD1Dir will call FoFMem   1 times, MxPair=       506
 NAB=   253 NAA=     0 NBB=     0.
 DE(Corr)= -0.82755305     E(CORR)=     -5581.1362338     Delta=-2.87D-02
 NORM(A)=   0.11530509D+01
 Iteration Nr.   3
 **********************
 DD1Dir will call FoFMem   1 times, MxPair=       506
 NAB=   253 NAA=     0 NBB=     0.
 DE(Corr)= -0.82615875     E(CORR)=     -5581.1348395     Delta= 1.39D-03
 NORM(A)=   0.11558709D+01
 Iteration Nr.   4
 **********************
 DD1Dir will call FoFMem   1 times, MxPair=       506
 NAB=   253 NAA=     0 NBB=     0.
 DE(Corr)= -0.82849836     E(CORR)=     -5581.1371791     Delta=-2.34D-03
 NORM(A)=   0.11571693D+01
 Iteration Nr.   5
 **********************
 DD1Dir will call FoFMem   1 times, MxPair=       506
 NAB=   253 NAA=     0 NBB=     0.
 DE(Corr)= -0.82880543     E(CORR)=     -5581.1374862     Delta=-3.07D-04
 NORM(A)=   0.11578008D+01
 Iteration Nr.   6
 **********************
 DD1Dir will call FoFMem   1 times, MxPair=       506
 NAB=   253 NAA=     0 NBB=     0.
 DE(Corr)= -0.82886958     E(CORR)=     -5581.1375504     Delta=-6.42D-05
 NORM(A)=   0.11578796D+01
 Iteration Nr.   7
 **********************
 DD1Dir will call FoFMem   1 times, MxPair=       506
 NAB=   253 NAA=     0 NBB=     0.
 DE(Corr)= -0.82888123     E(CORR)=     -5581.1375620     Delta=-1.16D-05
 NORM(A)=   0.11578958D+01
 Iteration Nr.   8
 **********************
 DD1Dir will call FoFMem   1 times, MxPair=       506
 NAB=   253 NAA=     0 NBB=     0.
 DE(Corr)= -0.82887743     E(CORR)=     -5581.1375582     Delta= 3.80D-06
 NORM(A)=   0.11579039D+01
 Iteration Nr.   9
 **********************
 DD1Dir will call FoFMem   1 times, MxPair=       506
 NAB=   253 NAA=     0 NBB=     0.
 DE(Corr)= -0.82887903     E(CORR)=     -5581.1375598     Delta=-1.60D-06
 NORM(A)=   0.11579045D+01
 Iteration Nr.  10
 **********************
 DD1Dir will call FoFMem   1 times, MxPair=       506
 NAB=   253 NAA=     0 NBB=     0.
 DE(Corr)= -0.82887919     E(CORR)=     -5581.1375600     Delta=-1.56D-07
 NORM(A)=   0.11579081D+01
 Iteration Nr.  11
 **********************
 DD1Dir will call FoFMem   1 times, MxPair=       506
 NAB=   253 NAA=     0 NBB=     0.
 DE(Corr)= -0.82888071     E(CORR)=     -5581.1375615     Delta=-1.53D-06
 NORM(A)=   0.11579100D+01
 Iteration Nr.  12
 **********************
 DD1Dir will call FoFMem   1 times, MxPair=       506
 NAB=   253 NAA=     0 NBB=     0.
 DE(Corr)= -0.82888080     E(CORR)=     -5581.1375616     Delta=-8.56D-08
 NORM(A)=   0.11579116D+01
 Iteration Nr.  13
 **********************
 DD1Dir will call FoFMem   1 times, MxPair=       506
 NAB=   253 NAA=     0 NBB=     0.
 DE(Corr)= -0.82888142     E(CORR)=     -5581.1375622     Delta=-6.19D-07
 NORM(A)=   0.11579125D+01
 Iteration Nr.  14
 **********************
 DD1Dir will call FoFMem   1 times, MxPair=       506
 NAB=   253 NAA=     0 NBB=     0.
 DE(Corr)= -0.82888143     E(CORR)=     -5581.1375622     Delta=-1.12D-08
 NORM(A)=   0.11579130D+01
 Iteration Nr.  15
 **********************
 DD1Dir will call FoFMem   1 times, MxPair=       506
 NAB=   253 NAA=     0 NBB=     0.
 DE(Corr)= -0.82888154     E(CORR)=     -5581.1375623     Delta=-1.13D-07
 NORM(A)=   0.11579132D+01
 Iteration Nr.  16
 **********************
 DD1Dir will call FoFMem   1 times, MxPair=       506
 NAB=   253 NAA=     0 NBB=     0.
 DE(Corr)= -0.82888157     E(CORR)=     -5581.1375623     Delta=-2.78D-08
 NORM(A)=   0.11579132D+01
 Iteration Nr.  17
 **********************
 DD1Dir will call FoFMem   1 times, MxPair=       506
 NAB=   253 NAA=     0 NBB=     0.
 DE(Corr)= -0.82888156     E(CORR)=     -5581.1375623     Delta= 1.25D-08
 NORM(A)=   0.11579133D+01
 Iteration Nr.  18
 **********************
 DD1Dir will call FoFMem   1 times, MxPair=       506
 NAB=   253 NAA=     0 NBB=     0.
 DE(Corr)= -0.82888157     E(CORR)=     -5581.1375623     Delta=-1.60D-08
 NORM(A)=   0.11579133D+01
 Iteration Nr.  19
 **********************
 DD1Dir will call FoFMem   1 times, MxPair=       506
 NAB=   253 NAA=     0 NBB=     0.
 DE(Corr)= -0.82888157     E(CORR)=     -5581.1375623     Delta= 4.74D-09
 NORM(A)=   0.11579133D+01
 Iteration Nr.  20
 **********************
 DD1Dir will call FoFMem   1 times, MxPair=       506
 NAB=   253 NAA=     0 NBB=     0.
 DE(Corr)= -0.82888157     E(CORR)=     -5581.1375623     Delta=-3.00D-09
 NORM(A)=   0.11579133D+01
 Iteration Nr.  21
 **********************
 DD1Dir will call FoFMem   1 times, MxPair=       506
 NAB=   253 NAA=     0 NBB=     0.
 DE(Corr)= -0.82888157     E(CORR)=     -5581.1375623     Delta=-2.85D-10
 NORM(A)=   0.11579132D+01
 Iteration Nr.  22
 **********************
 DD1Dir will call FoFMem   1 times, MxPair=       506
 NAB=   253 NAA=     0 NBB=     0.
 DE(Corr)= -0.82888158     E(CORR)=     -5581.1375624     Delta=-4.59D-09
 NORM(A)=   0.11579133D+01
 Iteration Nr.  23
 **********************
 DD1Dir will call FoFMem   1 times, MxPair=       506
 NAB=   253 NAA=     0 NBB=     0.
 DE(Corr)= -0.82888157     E(CORR)=     -5581.1375623     Delta= 5.68D-09
 NORM(A)=   0.11579133D+01
 Largest amplitude= 7.68D-02

 Z-AMPLITUDE ITERATIONS

 Iteration Nr.   1
 **********************
 DD1Dir will call FoFMem   1 times, MxPair=       506
 NAB=   253 NAA=     0 NBB=     0.
 DE(Z)  -0.79827452D+00          E(Z)=    -0.55811069553D+04
 NORM(A)=   0.11577378D+01
 Iteration Nr.   2
 **********************
 DD1Dir will call FoFMem   1 times, MxPair=       506
 NAB=   253 NAA=     0 NBB=     0.
 DE(Z)  -0.79827321D+00          E(Z)=    -0.55811069540D+04
 NORM(A)=   0.11575772D+01
 Iteration Nr.   3
 **********************
 DD1Dir will call FoFMem   1 times, MxPair=       506
 NAB=   253 NAA=     0 NBB=     0.
 DE(Z)  -0.79827235D+00          E(Z)=    -0.55811069531D+04
 NORM(A)=   0.11574460D+01
 Iteration Nr.   4
 **********************
 DD1Dir will call FoFMem   1 times, MxPair=       506
 NAB=   253 NAA=     0 NBB=     0.
 DE(Z)  -0.79827101D+00          E(Z)=    -0.55811069518D+04
 NORM(A)=   0.11569784D+01
 Iteration Nr.   5
 **********************
 DD1Dir will call FoFMem   1 times, MxPair=       506
 NAB=   253 NAA=     0 NBB=     0.
 DE(Z)  -0.79826579D+00          E(Z)=    -0.55811069466D+04
 NORM(A)=   0.11446878D+01
 Iteration Nr.   6
 **********************
 DD1Dir will call FoFMem   1 times, MxPair=       506
 NAB=   253 NAA=     0 NBB=     0.
 DE(Z)  -0.79815576D+00          E(Z)=    -0.55811068365D+04
 NORM(A)=   0.11446878D+01
 Iteration Nr.   7
 **********************
 DD1Dir will call FoFMem   1 times, MxPair=       506
 NAB=   253 NAA=     0 NBB=     0.
 DE(Z)  -0.79815314D+00          E(Z)=    -0.55811068339D+04
 NORM(A)=   0.11446869D+01
 Iteration Nr.   8
 **********************
 DD1Dir will call FoFMem   1 times, MxPair=       506
 NAB=   253 NAA=     0 NBB=     0.
 DE(Z)  -0.79815387D+00          E(Z)=    -0.55811068346D+04
 NORM(A)=   0.11446869D+01
 Iteration Nr.   9
 **********************
 DD1Dir will call FoFMem   1 times, MxPair=       506
 NAB=   253 NAA=     0 NBB=     0.
 DE(Z)  -0.79815317D+00          E(Z)=    -0.55811068339D+04
 NORM(A)=   0.11446870D+01
 Iteration Nr.  10
 **********************
 DD1Dir will call FoFMem   1 times, MxPair=       506
 NAB=   253 NAA=     0 NBB=     0.
 DE(Z)  -0.79815309D+00          E(Z)=    -0.55811068339D+04
 NORM(A)=   0.11446873D+01
 Iteration Nr.  11
 **********************
 DD1Dir will call FoFMem   1 times, MxPair=       506
 NAB=   253 NAA=     0 NBB=     0.
 DE(Z)  -0.79815316D+00          E(Z)=    -0.55811068339D+04
 NORM(A)=   0.11446875D+01
 Iteration Nr.  12
 **********************
 DD1Dir will call FoFMem   1 times, MxPair=       506
 NAB=   253 NAA=     0 NBB=     0.
 DE(Z)  -0.79815315D+00          E(Z)=    -0.55811068339D+04
 NORM(A)=   0.11446877D+01
 Iteration Nr.  13
 **********************
 DD1Dir will call FoFMem   1 times, MxPair=       506
 NAB=   253 NAA=     0 NBB=     0.
 DE(Z)  -0.79815320D+00          E(Z)=    -0.55811068340D+04
 NORM(A)=   0.11446877D+01
 Iteration Nr.  14
 **********************
 DD1Dir will call FoFMem   1 times, MxPair=       506
 NAB=   253 NAA=     0 NBB=     0.
 DE(Z)  -0.79815318D+00          E(Z)=    -0.55811068340D+04
 NORM(A)=   0.11446876D+01
 Iteration Nr.  15
 **********************
 DD1Dir will call FoFMem   1 times, MxPair=       506
 NAB=   253 NAA=     0 NBB=     0.
 DE(Z)  -0.79815317D+00          E(Z)=    -0.55811068339D+04
 NORM(A)=   0.11446876D+01
 Iteration Nr.  16
 **********************
 DD1Dir will call FoFMem   1 times, MxPair=       506
 NAB=   253 NAA=     0 NBB=     0.
 DE(Z)  -0.79815318D+00          E(Z)=    -0.55811068340D+04
 NORM(A)=   0.11446876D+01
 Iteration Nr.  17
 **********************
 DD1Dir will call FoFMem   1 times, MxPair=       506
 NAB=   253 NAA=     0 NBB=     0.
 DE(Z)  -0.79815317D+00          E(Z)=    -0.55811068339D+04
 NORM(A)=   0.11446876D+01
 Discarding MO integrals.
          Differentiating once with respect to electric field.
                with respect to dipole field.
          Electric field/nuclear overlap derivatives assumed to be zero.
          Keep R1 ints in memory in canonical form, NReq=510060614.
          There are     1 degrees of freedom in the 1st order CPHF.  IDoFFX=0.
 LinEq1:  Iter=  0 NonCon=     1 RMS=1.78D-03 Max=6.60D-02
 AX will form     1 AO Fock derivatives at one time.
 LinEq1:  Iter=  1 NonCon=     1 RMS=8.39D-04 Max=1.80D-02
 LinEq1:  Iter=  2 NonCon=     1 RMS=3.80D-04 Max=1.47D-02
 LinEq1:  Iter=  3 NonCon=     1 RMS=1.25D-04 Max=4.29D-03
 LinEq1:  Iter=  4 NonCon=     1 RMS=4.82D-05 Max=9.45D-04
 LinEq1:  Iter=  5 NonCon=     1 RMS=9.55D-06 Max=1.70D-04
 LinEq1:  Iter=  6 NonCon=     1 RMS=3.27D-06 Max=8.29D-05
 LinEq1:  Iter=  7 NonCon=     1 RMS=7.17D-07 Max=2.34D-05
 LinEq1:  Iter=  8 NonCon=     1 RMS=1.41D-07 Max=4.27D-06
 LinEq1:  Iter=  9 NonCon=     1 RMS=3.43D-08 Max=1.00D-06
 LinEq1:  Iter= 10 NonCon=     1 RMS=9.49D-09 Max=2.06D-07
 LinEq1:  Iter= 11 NonCon=     1 RMS=1.97D-09 Max=5.01D-08
 LinEq1:  Iter= 12 NonCon=     1 RMS=3.79D-10 Max=9.00D-09
 LinEq1:  Iter= 13 NonCon=     1 RMS=1.00D-10 Max=1.35D-09
 LinEq1:  Iter= 14 NonCon=     0 RMS=2.82D-11 Max=4.97D-10
 Linear equations converged to 1.000D-10 1.000D-09 after    14 iterations.
 End of Minotr Frequency-dependent properties file   721 does not exist.
 End of Minotr Frequency-dependent properties file   722 does not exist.

 **********************************************************************

            Population analysis using the QCI/CC density.

 **********************************************************************

     Natural Orbital Coefficients:
                           1         2         3         4         5
     Eigenvalues --     2.00003   2.00002   2.00002   2.00002   2.00001
   1 1   C  1S          0.00067  -0.17646   0.30813  -0.05177   0.46812
   2        2S         -0.00001   0.00356  -0.00974   0.00154  -0.00716
   3        3S          0.00003  -0.00677   0.01153  -0.00197   0.01893
   4        4S          0.00013  -0.01139  -0.01467   0.00231   0.00486
   5        5S          0.00007  -0.00465  -0.00479   0.00076   0.00419
   6        6PX         0.00000   0.00000   0.00000   0.00000   0.00000
   7        6PY        -0.00119  -0.00001  -0.00049  -0.00299   0.00001
   8        6PZ        -0.00002   0.00105   0.00152  -0.00022  -0.00243
   9        7PX         0.00000   0.00000   0.00000   0.00000   0.00000
  10        7PY        -0.00128  -0.00001  -0.00085  -0.00513   0.00000
  11        7PZ        -0.00001  -0.00050   0.00389  -0.00059  -0.00051
  12        8PX         0.00000   0.00000   0.00000   0.00000   0.00000
  13        8PY         0.01271   0.00009  -0.00067  -0.00417  -0.00003
  14        8PZ        -0.00006  -0.00951   0.00627  -0.00103   0.00843
  15        9PX         0.00000   0.00000   0.00000   0.00000   0.00000
  16        9PY         0.00365   0.00002   0.00006   0.00043   0.00005
  17        9PZ        -0.00002   0.00005   0.00082  -0.00014   0.00137
  18       10D 0        0.00000  -0.00007   0.00011  -0.00002   0.00003
  19       10D+1        0.00000   0.00000   0.00000   0.00000   0.00000
  20       10D-1       -0.00036   0.00000   0.00006   0.00035  -0.00001
  21       10D+2        0.00000   0.00003   0.00012  -0.00002  -0.00023
  22       10D-2        0.00000   0.00000   0.00000   0.00000   0.00000
  23       11D 0        0.00001  -0.00111  -0.00032   0.00005   0.00014
  24       11D+1        0.00000   0.00000   0.00000   0.00000   0.00000
  25       11D-1        0.00001   0.00000   0.00019   0.00112   0.00001
  26       11D+2        0.00000  -0.00003   0.00157  -0.00026   0.00068
  27       11D-2        0.00000   0.00000   0.00000   0.00000   0.00000
  28       12D 0        0.00002  -0.00424   0.00095  -0.00017   0.00472
  29       12D+1        0.00000   0.00000   0.00000   0.00000   0.00000
  30       12D-1       -0.00637  -0.00006   0.00049   0.00298   0.00004
  31       12D+2        0.00001  -0.00152   0.00195  -0.00033   0.00202
  32       12D-2        0.00000   0.00000   0.00000   0.00000   0.00000
  33       13F 0        0.00000  -0.00001   0.00001   0.00000  -0.00009
  34       13F+1        0.00000   0.00000   0.00000   0.00000   0.00000
  35       13F-1       -0.00031   0.00000  -0.00001  -0.00007   0.00000
  36       13F+2        0.00000  -0.00007   0.00001   0.00000   0.00009
  37       13F-2        0.00000   0.00000   0.00000   0.00000   0.00000
  38       13F+3        0.00000   0.00000   0.00000   0.00000   0.00000
  39       13F-3        0.00006   0.00000  -0.00001  -0.00007   0.00000
  40       14F 0       -0.00001   0.00018  -0.00010   0.00002  -0.00105
  41       14F+1        0.00000   0.00000   0.00000   0.00000   0.00000
  42       14F-1        0.00186   0.00001   0.00012   0.00074   0.00000
  43       14F+2        0.00000   0.00044  -0.00034   0.00006  -0.00107
  44       14F-2        0.00000   0.00000   0.00000   0.00000   0.00000
  45       14F+3        0.00000   0.00000   0.00000   0.00000   0.00000
  46       14F-3       -0.00028   0.00000   0.00003   0.00020   0.00000
  47 2   S  1S          0.00109  -0.21716  -0.00829   0.00172  -0.15460
  48        2S         -0.00370   0.74217   0.02885  -0.00598   0.53374
  49        3S          0.00011  -0.02058  -0.00106   0.00020  -0.00825
  50        4S         -0.00024   0.04975   0.00188  -0.00040   0.03825
  51        5S          0.00000   0.01159  -0.00098   0.00019  -0.01490
  52        6S          0.00002   0.00172   0.00030  -0.00004  -0.00414
  53        7PX         0.00000   0.00000   0.00000   0.00000   0.00000
  54        7PY         0.97035   0.00565   0.01507   0.09411   0.00021
  55        7PZ        -0.00448   0.62323   0.02342  -0.00302  -0.48868
  56        8PX         0.00000   0.00000   0.00000   0.00000   0.00000
  57        8PY        -0.01892  -0.00010  -0.00022  -0.00128   0.00000
  58        8PZ         0.00009  -0.01237  -0.00059   0.00008   0.00833
  59        9PX         0.00000   0.00000   0.00000   0.00000   0.00000
  60        9PY         0.05628   0.00033   0.00092   0.00575   0.00001
  61        9PZ        -0.00027   0.03840   0.00153  -0.00020  -0.03183
  62       10PX         0.00000   0.00000   0.00000   0.00000   0.00000
  63       10PY        -0.00358   0.00000  -0.00019  -0.00103  -0.00002
  64       10PZ         0.00003  -0.00860  -0.00069   0.00010   0.00526
  65       11PX         0.00000   0.00000   0.00000   0.00000   0.00000
  66       11PY        -0.00130  -0.00001  -0.00001  -0.00007  -0.00001
  67       11PZ         0.00000  -0.00023  -0.00020   0.00003   0.00026
  68       12D 0       -0.00002   0.00230   0.00017  -0.00003  -0.00219
  69       12D+1        0.00000   0.00000   0.00000   0.00000   0.00000
  70       12D-1        0.00269   0.00001   0.00012   0.00071   0.00001
  71       12D+2        0.00000  -0.00040  -0.00006   0.00001   0.00010
  72       12D-2        0.00000   0.00000   0.00000   0.00000   0.00000
  73       13D 0        0.00000   0.00016  -0.00015   0.00002   0.00021
  74       13D+1        0.00000   0.00000   0.00000   0.00000   0.00000
  75       13D-1       -0.00036   0.00000   0.00003   0.00018   0.00000
  76       13D+2        0.00000   0.00030   0.00002   0.00000   0.00017
  77       13D-2        0.00000   0.00000   0.00000   0.00000   0.00000
  78       14D 0        0.00000   0.00122   0.00027  -0.00004  -0.00043
  79       14D+1        0.00000   0.00000   0.00000   0.00000   0.00000
  80       14D-1       -0.00080  -0.00001   0.00004   0.00021   0.00001
  81       14D+2        0.00000   0.00049  -0.00036   0.00006  -0.00032
  82       14D-2        0.00000   0.00000   0.00000   0.00000   0.00000
  83       15F 0        0.00000  -0.00019   0.00011  -0.00002   0.00017
  84       15F+1        0.00000   0.00000   0.00000   0.00000   0.00000
  85       15F-1       -0.00015   0.00000  -0.00002  -0.00011   0.00000
  86       15F+2        0.00000   0.00013   0.00002   0.00000  -0.00017
  87       15F-2        0.00000   0.00000   0.00000   0.00000   0.00000
  88       15F+3        0.00000   0.00000   0.00000   0.00000   0.00000
  89       15F-3        0.00011   0.00000   0.00000   0.00000   0.00000
  90       16F 0        0.00000  -0.00044  -0.00005   0.00001   0.00034
  91       16F+1        0.00000   0.00000   0.00000   0.00000   0.00000
  92       16F-1       -0.00085   0.00000  -0.00002  -0.00010   0.00000
  93       16F+2        0.00000  -0.00013   0.00012  -0.00002   0.00004
  94       16F-2        0.00000   0.00000   0.00000   0.00000   0.00000
  95       16F+3        0.00000   0.00000   0.00000   0.00000   0.00000
  96       16F-3       -0.00019   0.00000   0.00000   0.00001   0.00000
  97 3   Br 1S          0.00047   0.00074  -0.03369   0.04323   0.04181
  98        2S         -0.00185  -0.00275   0.12466  -0.15992  -0.15553
  99        3S          0.00418   0.00600  -0.26178   0.33432   0.33408
 100        4S         -0.00096  -0.00021  -0.00072   0.00080   0.00207
 101        5S         -0.00011   0.00017  -0.01421   0.01801   0.01621
 102        6S          0.01027  -0.00187   0.00492  -0.00382   0.00568
 103        7S          0.00678   0.00113   0.00245   0.00021  -0.00014
 104        8PX         0.00000   0.00000   0.00000   0.00000   0.00000
 105        8PY         0.02302   0.00501   0.16586  -0.25143   0.01619
 106        8PZ         0.01996   0.00628   0.10719  -0.15280  -0.01035
 107        9PX         0.00000   0.00000   0.00000   0.00000   0.00000
 108        9PY        -0.06101  -0.01294  -0.43083   0.65547  -0.05358
 109        9PZ        -0.05383  -0.01713  -0.27922   0.39682   0.02431
 110       10PX         0.00000   0.00000   0.00000   0.00000   0.00000
 111       10PY         0.00064  -0.00050   0.00245  -0.00128   0.00080
 112       10PZ        -0.00051  -0.00040   0.00117  -0.00155   0.00092
 113       11PX         0.00000   0.00000   0.00000   0.00000   0.00000
 114       11PY        -0.00338  -0.00065  -0.02047   0.03099  -0.00247
 115       11PZ        -0.00312  -0.00101  -0.01337   0.01878   0.00122
 116       12PX         0.00000   0.00000   0.00000   0.00000   0.00000
 117       12PY         0.00466   0.00021   0.00170   0.00087  -0.00044
 118       12PZ         0.00202  -0.00163   0.00127   0.00005   0.00218
 119       13PX         0.00000   0.00000   0.00000   0.00000   0.00000
 120       13PY         0.00067   0.00025   0.00043  -0.00005  -0.00004
 121       13PZ         0.00057   0.00013   0.00017  -0.00001  -0.00024
 122       14D 0        0.00000  -0.00001   0.00135  -0.00181  -0.00087
 123       14D+1        0.00000   0.00000   0.00000   0.00000   0.00000
 124       14D-1       -0.00306  -0.00091  -0.02309   0.03443   0.00179
 125       14D+2        0.00189   0.00067   0.01463  -0.02172  -0.00211
 126       14D-2        0.00000   0.00000   0.00000   0.00000   0.00000
 127       15D 0        0.00006   0.00000   0.00019  -0.00013  -0.00006
 128       15D+1        0.00000   0.00000   0.00000   0.00000   0.00000
 129       15D-1       -0.00023  -0.00010  -0.00228   0.00334   0.00033
 130       15D+2        0.00012   0.00011   0.00156  -0.00216  -0.00036
 131       15D-2        0.00000   0.00000   0.00000   0.00000   0.00000
 132       16D 0       -0.00002   0.00020  -0.00003  -0.00017  -0.00025
 133       16D+1        0.00000   0.00000   0.00000   0.00000   0.00000
 134       16D-1        0.00034   0.00009   0.00097  -0.00074   0.00034
 135       16D+2       -0.00040  -0.00002  -0.00078   0.00047  -0.00010
 136       16D-2        0.00000   0.00000   0.00000   0.00000   0.00000
 137       17D 0       -0.00009  -0.00025   0.00006   0.00016   0.00036
 138       17D+1        0.00000   0.00000   0.00000   0.00000   0.00000
 139       17D-1        0.00116  -0.00021   0.00057  -0.00035   0.00030
 140       17D+2       -0.00062  -0.00024  -0.00046  -0.00009   0.00030
 141       17D-2        0.00000   0.00000   0.00000   0.00000   0.00000
 142       18F 0        0.00008   0.00002   0.00020  -0.00034  -0.00004
 143       18F+1        0.00000   0.00000   0.00000   0.00000   0.00000
 144       18F-1       -0.00003   0.00000  -0.00009   0.00015   0.00004
 145       18F+2        0.00001   0.00004   0.00032  -0.00050  -0.00010
 146       18F-2        0.00000   0.00000   0.00000   0.00000   0.00000
 147       18F+3        0.00000   0.00000   0.00000   0.00000   0.00000
 148       18F-3       -0.00007   0.00003   0.00017  -0.00026  -0.00006
 149       19F 0       -0.00002   0.00006  -0.00027   0.00037  -0.00025
 150       19F+1        0.00000   0.00000   0.00000   0.00000   0.00000
 151       19F-1       -0.00004   0.00006   0.00014  -0.00029  -0.00005
 152       19F+2        0.00000  -0.00006  -0.00051   0.00055  -0.00003
 153       19F-2        0.00000   0.00000   0.00000   0.00000   0.00000
 154       19F+3        0.00000   0.00000   0.00000   0.00000   0.00000
 155       19F-3        0.00007  -0.00008  -0.00030   0.00023   0.00011
 156 4   Br 1S         -0.00042   0.00074  -0.04491  -0.02997   0.04535
 157        2S          0.00165  -0.00275   0.16614   0.11083  -0.16871
 158        3S         -0.00377   0.00600  -0.34826  -0.23113   0.36247
 159        4S          0.00096  -0.00021  -0.00092  -0.00054   0.00219
 160        5S          0.00014   0.00017  -0.01891  -0.01247   0.01759
 161        6S         -0.01037  -0.00202   0.00601   0.00214   0.00600
 162        7S         -0.00686   0.00105   0.00231  -0.00098  -0.00031
 163        8PX         0.00000   0.00000   0.00000   0.00000   0.00000
 164        8PY         0.02281  -0.00472  -0.23598  -0.18840  -0.02044
 165        8PZ        -0.02003   0.00608   0.15095   0.11304  -0.00868
 166        9PX         0.00000   0.00000   0.00000   0.00000   0.00000
 167        9PY        -0.06038   0.01216   0.61353   0.49158   0.06564
 168        9PZ         0.05403  -0.01657  -0.39286  -0.29322   0.01950
 169       10PX         0.00000   0.00000   0.00000   0.00000   0.00000
 170       10PY         0.00067   0.00050  -0.00273  -0.00042  -0.00080
 171       10PZ         0.00052  -0.00040   0.00159   0.00111   0.00094
 172       11PX         0.00000   0.00000   0.00000   0.00000   0.00000
 173       11PY        -0.00334   0.00061   0.02912   0.02322   0.00302
 174       11PZ         0.00313  -0.00098  -0.01876  -0.01383   0.00101
 175       12PX         0.00000   0.00000   0.00000   0.00000   0.00000
 176       12PY         0.00469  -0.00016  -0.00140   0.00136   0.00054
 177       12PZ        -0.00204  -0.00167   0.00121  -0.00045   0.00216
 178       13PX         0.00000   0.00000   0.00000   0.00000   0.00000
 179       13PY         0.00068  -0.00025  -0.00043   0.00009   0.00005
 180       13PZ        -0.00057   0.00012   0.00017  -0.00004  -0.00026
 181       14D 0        0.00001  -0.00002   0.00169   0.00116  -0.00088
 182       14D+1        0.00000   0.00000   0.00000   0.00000   0.00000
 183       14D-1       -0.00314   0.00090   0.03364   0.02639  -0.00157
 184       14D+2       -0.00194   0.00066   0.02121   0.01656  -0.00202
 185       14D-2        0.00000   0.00000   0.00000   0.00000   0.00000
 186       15D 0       -0.00006   0.00000   0.00020   0.00005  -0.00006
 187       15D+1        0.00000   0.00000   0.00000   0.00000   0.00000
 188       15D-1       -0.00024   0.00010   0.00330   0.00254  -0.00033
 189       15D+2       -0.00012   0.00011   0.00221   0.00161  -0.00036
 190       15D-2        0.00000   0.00000   0.00000   0.00000   0.00000
 191       16D 0        0.00002   0.00020   0.00003   0.00018  -0.00025
 192       16D+1        0.00000   0.00000   0.00000   0.00000   0.00000
 193       16D-1        0.00033  -0.00009  -0.00116  -0.00039  -0.00033
 194       16D+2        0.00040  -0.00002  -0.00088  -0.00020  -0.00009
 195       16D-2        0.00000   0.00000   0.00000   0.00000   0.00000
 196       17D 0        0.00009  -0.00025   0.00001  -0.00016   0.00036
 197       17D+1        0.00000   0.00000   0.00000   0.00000   0.00000
 198       17D-1        0.00116   0.00022  -0.00066  -0.00016  -0.00029
 199       17D+2        0.00061  -0.00024  -0.00042   0.00022   0.00032
 200       17D-2        0.00000   0.00000   0.00000   0.00000   0.00000
 201       18F 0       -0.00008   0.00002   0.00031   0.00027  -0.00004
 202       18F+1        0.00000   0.00000   0.00000   0.00000   0.00000
 203       18F-1       -0.00003   0.00000   0.00014   0.00012  -0.00004
 204       18F+2       -0.00001   0.00004   0.00047   0.00038  -0.00010
 205       18F-2        0.00000   0.00000   0.00000   0.00000   0.00000
 206       18F+3        0.00000   0.00000   0.00000   0.00000   0.00000
 207       18F-3       -0.00006  -0.00003  -0.00024  -0.00020   0.00006
 208       19F 0        0.00002   0.00006  -0.00037  -0.00027  -0.00025
 209       19F+1        0.00000   0.00000   0.00000   0.00000   0.00000
 210       19F-1       -0.00005  -0.00006  -0.00023  -0.00025   0.00005
 211       19F+2       -0.00001  -0.00006  -0.00066  -0.00037  -0.00003
 212       19F-2        0.00000   0.00000   0.00000   0.00000   0.00000
 213       19F+3        0.00000   0.00000   0.00000   0.00000   0.00000
 214       19F-3        0.00007   0.00008   0.00036   0.00012  -0.00011
                           6         7         8         9        10
     Eigenvalues --     2.00001   2.00001   2.00001   2.00001   2.00001
   1 1   C  1S         -0.01930   0.09716   0.00000  -0.00559  -0.09591
   2        2S          0.00040  -0.00265   0.00000   0.00009   0.00145
   3        3S         -0.00076   0.00367   0.00000  -0.00023  -0.00393
   4        4S         -0.00080   0.00920   0.00000   0.00009   0.00135
   5        5S         -0.00019   0.00146   0.00000  -0.00004  -0.00072
   6        6PX         0.00000   0.00000  -0.00073   0.00000   0.00000
   7        6PY         0.00003  -0.00001   0.00000  -0.00031   0.00002
   8        6PZ         0.00014  -0.00119   0.00000   0.00002   0.00055
   9        7PX         0.00000   0.00000  -0.00006   0.00000   0.00000
  10        7PY         0.00019  -0.00001   0.00000  -0.00043   0.00004
  11        7PZ         0.00004  -0.00052   0.00000  -0.00001   0.00012
  12        8PX         0.00000   0.00000   0.00158   0.00000   0.00000
  13        8PY         0.00061   0.00004   0.00000  -0.00529   0.00027
  14        8PZ        -0.00042   0.00338   0.00000   0.00049   0.00945
  15        9PX         0.00000   0.00000  -0.00092   0.00000   0.00000
  16        9PY         0.00256   0.00021   0.00000  -0.00121   0.00005
  17        9PZ        -0.00012   0.00112   0.00000   0.00009   0.00167
  18       10D 0        0.00000  -0.00007   0.00000  -0.00001  -0.00015
  19       10D+1        0.00000   0.00000  -0.00021   0.00000   0.00000
  20       10D-1       -0.00013  -0.00001   0.00000  -0.00005   0.00000
  21       10D+2        0.00000   0.00007   0.00000   0.00000  -0.00006
  22       10D-2        0.00000   0.00000   0.00000   0.00000   0.00000
  23       11D 0       -0.00003   0.00030   0.00000  -0.00001  -0.00029
  24       11D+1        0.00000   0.00000   0.00057   0.00000   0.00000
  25       11D-1       -0.00001   0.00000   0.00000  -0.00039   0.00002
  26       11D+2        0.00000  -0.00023   0.00000  -0.00002  -0.00032
  27       11D-2        0.00000   0.00000   0.00000   0.00000   0.00000
  28       12D 0       -0.00025   0.00194   0.00000   0.00001   0.00015
  29       12D+1        0.00000   0.00000  -0.00139   0.00000   0.00000
  30       12D-1        0.00099   0.00009   0.00000   0.00068  -0.00002
  31       12D+2       -0.00006   0.00025   0.00000   0.00002   0.00040
  32       12D-2        0.00000   0.00000   0.00002   0.00000   0.00000
  33       13F 0        0.00001  -0.00013   0.00000   0.00000  -0.00003
  34       13F+1        0.00000   0.00000  -0.00013   0.00000   0.00000
  35       13F-1        0.00002   0.00000   0.00000   0.00002   0.00000
  36       13F+2        0.00000  -0.00001   0.00000   0.00000   0.00005
  37       13F-2        0.00000   0.00000   0.00000   0.00000   0.00000
  38       13F+3        0.00000   0.00000   0.00005   0.00000   0.00000
  39       13F-3       -0.00002   0.00000   0.00000  -0.00003   0.00000
  40       14F 0        0.00002  -0.00001   0.00000   0.00003   0.00048
  41       14F+1        0.00000   0.00000   0.00096   0.00000   0.00000
  42       14F-1        0.00000   0.00000   0.00000  -0.00032   0.00002
  43       14F+2        0.00002  -0.00003   0.00000  -0.00002  -0.00032
  44       14F-2        0.00000   0.00000   0.00000   0.00000   0.00000
  45       14F+3        0.00000   0.00000  -0.00031   0.00000   0.00000
  46       14F-3        0.00001   0.00000   0.00000   0.00022  -0.00001
  47 2   S  1S          0.01026  -0.09096   0.00000   0.00065   0.01582
  48        2S         -0.03538   0.31356   0.00000  -0.00228  -0.05541
  49        3S          0.00058  -0.00516   0.00000   0.00004   0.00094
  50        4S         -0.00254   0.02250   0.00000  -0.00016  -0.00400
  51        5S          0.00095  -0.00836   0.00000  -0.00033  -0.00619
  52        6S          0.00030  -0.00282   0.00000  -0.00022  -0.00418
  53        7PX         0.00000   0.00000   0.72864   0.00000   0.00000
  54        7PY         0.04446   0.00386   0.00000   0.02287  -0.00150
  55        7PZ         0.03323  -0.30446   0.00000   0.00169   0.04852
  56        8PX         0.00000   0.00000  -0.00927   0.00000   0.00000
  57        8PY        -0.00053  -0.00004   0.00000   0.00040  -0.00002
  58        8PZ        -0.00059   0.00543   0.00000   0.00001  -0.00002
  59        9PX         0.00000   0.00000   0.04638   0.00000   0.00000
  60        9PY         0.00274   0.00024   0.00000   0.00135  -0.00009
  61        9PZ         0.00216  -0.01976   0.00000   0.00011   0.00310
  62       10PX         0.00000   0.00000   0.00047   0.00000   0.00000
  63       10PY        -0.00064  -0.00005   0.00000   0.00133  -0.00008
  64       10PZ        -0.00038   0.00361   0.00000   0.00021   0.00395
  65       11PX         0.00000   0.00000  -0.00015   0.00000   0.00000
  66       11PY        -0.00047  -0.00004   0.00000   0.00012   0.00000
  67       11PZ        -0.00002   0.00021   0.00000   0.00003   0.00052
  68       12D 0        0.00016  -0.00144   0.00000   0.00001   0.00017
  69       12D+1        0.00000   0.00000   0.00162   0.00000   0.00000
  70       12D-1        0.00022   0.00002   0.00000  -0.00046   0.00003
  71       12D+2        0.00001  -0.00010   0.00000   0.00000   0.00008
  72       12D-2        0.00000   0.00000   0.00000   0.00000   0.00000
  73       13D 0       -0.00002   0.00017   0.00000   0.00000  -0.00004
  74       13D+1        0.00000   0.00000  -0.00018   0.00000   0.00000
  75       13D-1       -0.00001   0.00000   0.00000   0.00008   0.00000
  76       13D+2       -0.00001   0.00012   0.00000   0.00000  -0.00005
  77       13D-2        0.00000   0.00000   0.00000   0.00000   0.00000
  78       14D 0        0.00004  -0.00044   0.00000  -0.00003  -0.00062
  79       14D+1        0.00000   0.00000  -0.00045   0.00000   0.00000
  80       14D-1        0.00015   0.00001   0.00000  -0.00052   0.00003
  81       14D+2        0.00001  -0.00001   0.00000   0.00000  -0.00010
  82       14D-2        0.00000   0.00000   0.00000   0.00000   0.00000
  83       15F 0       -0.00001   0.00004   0.00000   0.00000  -0.00002
  84       15F+1        0.00000   0.00000  -0.00019   0.00000   0.00000
  85       15F-1       -0.00004   0.00000   0.00000   0.00006   0.00000
  86       15F+2        0.00001  -0.00007   0.00000   0.00000  -0.00005
  87       15F-2        0.00000   0.00000   0.00000   0.00000   0.00000
  88       15F+3        0.00000   0.00000   0.00011   0.00000   0.00000
  89       15F-3        0.00001   0.00000   0.00000  -0.00001   0.00000
  90       16F 0       -0.00003   0.00029   0.00000  -0.00001  -0.00023
  91       16F+1        0.00000   0.00000  -0.00036   0.00000   0.00000
  92       16F-1       -0.00003   0.00000   0.00000   0.00018  -0.00001
  93       16F+2       -0.00001   0.00010   0.00000   0.00000   0.00003
  94       16F-2        0.00000   0.00000   0.00000   0.00000   0.00000
  95       16F+3        0.00000   0.00000  -0.00010   0.00000   0.00000
  96       16F-3       -0.00004   0.00000   0.00000   0.00002   0.00000
  97 3   Br 1S         -0.07961  -0.07698   0.00000  -0.00569   0.00625
  98        2S          0.29649   0.28684   0.00000   0.02133  -0.02344
  99        3S         -0.63916  -0.61974   0.00000  -0.04630   0.05140
 100        4S         -0.00204  -0.00161   0.00000  -0.00011  -0.00006
 101        5S         -0.03100  -0.02980   0.00000  -0.00220   0.00244
 102        6S         -0.00591  -0.00606   0.00000  -0.00309   0.00355
 103        7S          0.00408   0.00111   0.00000  -0.00196   0.00214
 104        8PX         0.00000   0.00000  -0.17300   0.00000   0.00000
 105        8PY        -0.09093  -0.08651   0.00000   0.13693   0.15147
 106        8PZ        -0.02966  -0.09140   0.00000  -0.24080  -0.19713
 107        9PX         0.00000   0.00000   0.48917   0.00000   0.00000
 108        9PY         0.25637   0.23748   0.00000  -0.38597  -0.42072
 109        9PZ         0.08380   0.25425   0.00000   0.67433   0.55463
 110       10PX         0.00000   0.00000   0.00119   0.00000   0.00000
 111       10PY         0.00007  -0.00054   0.00000  -0.00134   0.00020
 112       10PZ        -0.00025   0.00010   0.00000   0.00094   0.00108
 113       11PX         0.00000   0.00000   0.02200   0.00000   0.00000
 114       11PY         0.01162   0.01073   0.00000  -0.01716  -0.01862
 115       11PZ         0.00374   0.01165   0.00000   0.03000   0.02462
 116       12PX         0.00000   0.00000   0.00153   0.00000   0.00000
 117       12PY         0.00209   0.00018   0.00000  -0.00355   0.00041
 118       12PZ         0.00085   0.00146   0.00000   0.00229   0.00313
 119       13PX         0.00000   0.00000   0.00023   0.00000   0.00000
 120       13PY         0.00041   0.00014   0.00000  -0.00009   0.00048
 121       13PZ         0.00048  -0.00004   0.00000  -0.00047  -0.00005
 122       14D 0        0.00087  -0.00143   0.00000  -0.01040  -0.00931
 123       14D+1        0.00000   0.00000  -0.00035   0.00000   0.00000
 124       14D-1        0.00565   0.00795   0.00000  -0.00446  -0.00733
 125       14D+2       -0.00224  -0.00583   0.00000  -0.00723  -0.00466
 126       14D-2        0.00000   0.00000  -0.00012   0.00000   0.00000
 127       15D 0        0.00008  -0.00009   0.00000  -0.00065  -0.00055
 128       15D+1        0.00000   0.00000  -0.00001   0.00000   0.00000
 129       15D-1        0.00028   0.00057   0.00000  -0.00028  -0.00046
 130       15D+2       -0.00007  -0.00043   0.00000  -0.00047  -0.00025
 131       15D-2        0.00000   0.00000   0.00010   0.00000   0.00000
 132       16D 0        0.00006  -0.00018   0.00000  -0.00028  -0.00041
 133       16D+1        0.00000   0.00000  -0.00015   0.00000   0.00000
 134       16D-1        0.00027  -0.00008   0.00000  -0.00020  -0.00018
 135       16D+2       -0.00011   0.00001   0.00000  -0.00014  -0.00030
 136       16D-2        0.00000   0.00000  -0.00035   0.00000   0.00000
 137       17D 0        0.00009   0.00008   0.00000   0.00005  -0.00033
 138       17D+1        0.00000   0.00000  -0.00027   0.00000   0.00000
 139       17D-1        0.00023   0.00003   0.00000  -0.00030   0.00025
 140       17D+2       -0.00033   0.00018   0.00000   0.00020  -0.00041
 141       17D-2        0.00000   0.00000  -0.00054   0.00000   0.00000
 142       18F 0       -0.00007  -0.00010   0.00000   0.00005   0.00009
 143       18F+1        0.00000   0.00000   0.00000   0.00000   0.00000
 144       18F-1        0.00001   0.00006   0.00000   0.00036   0.00031
 145       18F+2       -0.00008  -0.00015   0.00000  -0.00001   0.00003
 146       18F-2        0.00000   0.00000   0.00018   0.00000   0.00000
 147       18F+3        0.00000   0.00000  -0.00018   0.00000   0.00000
 148       18F-3       -0.00002  -0.00008   0.00000   0.00014   0.00008
 149       19F 0        0.00007   0.00002   0.00000  -0.00006  -0.00008
 150       19F+1        0.00000   0.00000  -0.00001   0.00000   0.00000
 151       19F-1        0.00005  -0.00013   0.00000  -0.00031  -0.00040
 152       19F+2        0.00001   0.00014   0.00000   0.00000   0.00002
 153       19F-2        0.00000   0.00000  -0.00021   0.00000   0.00000
 154       19F+3        0.00000   0.00000   0.00034   0.00000   0.00000
 155       19F-3       -0.00005   0.00010   0.00000  -0.00017  -0.00009
 156 4   Br 1S          0.08890  -0.06440   0.00000   0.00616   0.00543
 157        2S         -0.33110   0.23996   0.00000  -0.02308  -0.02038
 158        3S          0.71397  -0.51855   0.00000   0.05015   0.04471
 159        4S          0.00220  -0.00131   0.00000   0.00010  -0.00007
 160        5S          0.03460  -0.02491   0.00000   0.00239   0.00212
 161        6S          0.00655  -0.00512   0.00000   0.00342   0.00325
 162        7S         -0.00420   0.00044   0.00000   0.00217   0.00197
 163        8PX         0.00000   0.00000  -0.17439   0.00000   0.00000
 164        8PY        -0.10160   0.06872   0.00000   0.12188  -0.16464
 165        8PZ         0.04267  -0.08537   0.00000   0.21830  -0.22079
 166        9PX         0.00000   0.00000   0.49309   0.00000   0.00000
 167        9PY         0.28543  -0.18789   0.00000  -0.34407   0.45796
 168        9PZ        -0.11996   0.23762   0.00000  -0.61117   0.62091
 169       10PX         0.00000   0.00000   0.00120   0.00000   0.00000
 170       10PY         0.00003   0.00055   0.00000  -0.00134  -0.00006
 171       10PZ         0.00019   0.00016   0.00000  -0.00083   0.00116
 172       11PX         0.00000   0.00000   0.02218   0.00000   0.00000
 173       11PY         0.01293  -0.00847   0.00000  -0.01531   0.02028
 174       11PZ        -0.00540   0.01090   0.00000  -0.02719   0.02757
 175       12PX         0.00000   0.00000   0.00151   0.00000   0.00000
 176       12PY         0.00207   0.00020   0.00000  -0.00357  -0.00008
 177       12PZ        -0.00115   0.00130   0.00000  -0.00194   0.00334
 178       13PX         0.00000   0.00000   0.00023   0.00000   0.00000
 179       13PY         0.00042  -0.00007   0.00000  -0.00014  -0.00048
 180       13PZ        -0.00046  -0.00011   0.00000   0.00047  -0.00009
 181       14D 0       -0.00065  -0.00153   0.00000   0.00936  -0.01032
 182       14D+1        0.00000   0.00000  -0.00029   0.00000   0.00000
 183       14D-1        0.00688  -0.00686   0.00000  -0.00363   0.00761
 184       14D+2        0.00315  -0.00534   0.00000   0.00669  -0.00542
 185       14D-2        0.00000   0.00000   0.00001   0.00000   0.00000
 186       15D 0       -0.00007  -0.00010   0.00000   0.00059  -0.00061
 187       15D+1        0.00000   0.00000   0.00000   0.00000   0.00000
 188       15D-1        0.00037  -0.00051   0.00000  -0.00023   0.00047
 189       15D+2        0.00015  -0.00041   0.00000   0.00044  -0.00030
 190       15D-2        0.00000   0.00000  -0.00011   0.00000   0.00000
 191       16D 0       -0.00003  -0.00019   0.00000   0.00024  -0.00044
 192       16D+1        0.00000   0.00000  -0.00015   0.00000   0.00000
 193       16D-1        0.00027   0.00012   0.00000  -0.00018   0.00020
 194       16D+2        0.00011   0.00003   0.00000   0.00012  -0.00032
 195       16D-2        0.00000   0.00000   0.00035   0.00000   0.00000
 196       17D 0       -0.00011   0.00006   0.00000  -0.00008  -0.00033
 197       17D+1        0.00000   0.00000  -0.00028   0.00000   0.00000
 198       17D-1        0.00024   0.00001   0.00000  -0.00033  -0.00022
 199       17D+2        0.00029   0.00024   0.00000  -0.00024  -0.00039
 200       17D-2        0.00000   0.00000   0.00056   0.00000   0.00000
 201       18F 0        0.00009  -0.00008   0.00000  -0.00005   0.00010
 202       18F+1        0.00000   0.00000   0.00001   0.00000   0.00000
 203       18F-1        0.00002  -0.00006   0.00000   0.00033  -0.00034
 204       18F+2        0.00011  -0.00013   0.00000   0.00001   0.00002
 205       18F-2        0.00000   0.00000  -0.00018   0.00000   0.00000
 206       18F+3        0.00000   0.00000  -0.00018   0.00000   0.00000
 207       18F-3       -0.00004   0.00007   0.00000   0.00013  -0.00009
 208       19F 0       -0.00006   0.00001   0.00000   0.00005  -0.00009
 209       19F+1        0.00000   0.00000  -0.00001   0.00000   0.00000
 210       19F-1        0.00003   0.00014   0.00000  -0.00027   0.00043
 211       19F+2       -0.00003   0.00014   0.00000   0.00000   0.00002
 212       19F-2        0.00000   0.00000   0.00022   0.00000   0.00000
 213       19F+3        0.00000   0.00000   0.00035   0.00000   0.00000
 214       19F-3       -0.00003  -0.00010   0.00000  -0.00016   0.00010
                          11        12        13        14        15
     Eigenvalues --     2.00001   2.00000   2.00000   2.00000   2.00000
   1 1   C  1S          0.00000   0.00000   0.77130  -0.00103  -0.00040
   2        2S          0.00000   0.00000  -0.00785   0.00001   0.00000
   3        3S          0.00000   0.00000   0.03235  -0.00004  -0.00002
   4        4S          0.00000   0.00000  -0.01026  -0.00016  -0.00007
   5        5S          0.00000   0.00000  -0.00558   0.00007   0.00003
   6        6PX         0.00000  -0.00154   0.00000   0.00000   0.00000
   7        6PY         0.00000   0.00000  -0.00001   0.00000   0.00000
   8        6PZ         0.00000   0.00000  -0.00058   0.00001   0.00000
   9        7PX        -0.00001  -0.00174   0.00000   0.00000   0.00000
  10        7PY         0.00000   0.00000  -0.00003   0.00001  -0.00001
  11        7PZ         0.00000   0.00000   0.00168   0.00002   0.00001
  12        8PX         0.00000  -0.00155   0.00000   0.00000   0.00000
  13        8PY         0.00000   0.00000   0.00000  -0.00014   0.00030
  14        8PZ         0.00000   0.00000  -0.00398  -0.00094  -0.00042
  15        9PX         0.00000  -0.00047   0.00000   0.00000   0.00000
  16        9PY         0.00000   0.00000   0.00001  -0.00005   0.00011
  17        9PZ         0.00000   0.00000   0.00069  -0.00016  -0.00007
  18       10D 0        0.00000   0.00000   0.00030   0.00000   0.00000
  19       10D+1        0.00000  -0.00008   0.00000   0.00000   0.00000
  20       10D-1        0.00000   0.00000   0.00000   0.00000   0.00000
  21       10D+2        0.00000   0.00000  -0.00027   0.00000   0.00000
  22       10D-2       -0.00009   0.00000   0.00000   0.00000   0.00000
  23       11D 0        0.00000   0.00000  -0.00032   0.00001   0.00000
  24       11D+1        0.00000   0.00108   0.00000   0.00000   0.00000
  25       11D-1        0.00000   0.00000   0.00002  -0.00001   0.00002
  26       11D+2        0.00000   0.00000   0.00153   0.00001   0.00000
  27       11D-2       -0.00067  -0.00001   0.00000   0.00000   0.00000
  28       12D 0        0.00000   0.00000  -0.00405  -0.00009  -0.00004
  29       12D+1        0.00000  -0.00148   0.00000   0.00000   0.00000
  30       12D-1        0.00000   0.00000   0.00001   0.00000  -0.00001
  31       12D+2        0.00000   0.00000  -0.00149  -0.00007  -0.00003
  32       12D-2        0.00006   0.00000   0.00000   0.00000   0.00000
  33       13F 0        0.00000   0.00000   0.00034   0.00001   0.00000
  34       13F+1        0.00000  -0.00008   0.00000   0.00000   0.00000
  35       13F-1        0.00000   0.00000   0.00000   0.00000   0.00001
  36       13F+2        0.00000   0.00000  -0.00007  -0.00001   0.00000
  37       13F-2        0.00000   0.00000   0.00000   0.00000   0.00000
  38       13F+3        0.00000   0.00000   0.00000   0.00000   0.00000
  39       13F-3        0.00000   0.00000   0.00000   0.00000   0.00000
  40       14F 0        0.00000   0.00000  -0.00110  -0.00004  -0.00002
  41       14F+1        0.00000   0.00051   0.00000   0.00000   0.00000
  42       14F-1        0.00000   0.00000   0.00000   0.00002  -0.00005
  43       14F+2        0.00000   0.00000  -0.00088   0.00004   0.00002
  44       14F-2        0.00019   0.00000   0.00000   0.00000   0.00000
  45       14F+3        0.00000   0.00019   0.00000   0.00000   0.00000
  46       14F-3        0.00000   0.00000   0.00000   0.00002  -0.00003
  47 2   S  1S          0.00000   0.00000   0.06081  -0.00206  -0.00095
  48        2S          0.00000   0.00000  -0.21161  -0.00003  -0.00003
  49        3S          0.00000   0.00000   0.00233  -0.00003  -0.00001
  50        4S          0.00000   0.00000  -0.01559   0.00000   0.00000
  51        5S          0.00000   0.00000   0.00960   0.00073   0.00033
  52        6S          0.00000   0.00000   0.00020   0.00043   0.00019
  53        7PX         0.00002   0.64337   0.00000   0.00000   0.00000
  54        7PY         0.00000   0.00000   0.00122   0.00003  -0.00007
  55        7PZ         0.00000   0.00000   0.47160  -0.00018  -0.00005
  56        8PX         0.00000  -0.00700   0.00000   0.00000   0.00000
  57        8PY         0.00000   0.00000  -0.00001  -0.00001   0.00002
  58        8PZ         0.00000   0.00000  -0.00546  -0.00007  -0.00003
  59        9PX         0.00000   0.04143   0.00000   0.00000   0.00000
  60        9PY         0.00000   0.00000   0.00008   0.00000   0.00000
  61        9PZ         0.00000   0.00000   0.03106   0.00000   0.00000
  62       10PX         0.00000   0.00271   0.00000   0.00000   0.00000
  63       10PY         0.00000   0.00000   0.00000   0.00003  -0.00007
  64       10PZ         0.00000   0.00000  -0.00140  -0.00042  -0.00019
  65       11PX         0.00000  -0.00024   0.00000   0.00000   0.00000
  66       11PY         0.00000   0.00000   0.00000   0.00001  -0.00001
  67       11PZ         0.00000   0.00000  -0.00003  -0.00005  -0.00002
  68       12D 0        0.00000   0.00000   0.00094   0.00001   0.00000
  69       12D+1        0.00000   0.00122   0.00000   0.00000   0.00000
  70       12D-1        0.00000   0.00000   0.00001   0.00000   0.00001
  71       12D+2        0.00000   0.00000   0.00029  -0.00002  -0.00001
  72       12D-2       -0.00004   0.00000   0.00000   0.00000   0.00000
  73       13D 0        0.00000   0.00000  -0.00055   0.00000   0.00000
  74       13D+1        0.00000  -0.00006   0.00000   0.00000   0.00000
  75       13D-1        0.00000   0.00000   0.00000   0.00000   0.00000
  76       13D+2        0.00000   0.00000  -0.00010   0.00000   0.00000
  77       13D-2       -0.00003   0.00000   0.00000   0.00000   0.00000
  78       14D 0        0.00000   0.00000  -0.00002   0.00006   0.00003
  79       14D+1        0.00000  -0.00110   0.00000   0.00000   0.00000
  80       14D-1        0.00000   0.00000   0.00000  -0.00002   0.00004
  81       14D+2        0.00000   0.00000   0.00055   0.00001   0.00000
  82       14D-2        0.00000   0.00000   0.00000   0.00000   0.00000
  83       15F 0        0.00000   0.00000   0.00041   0.00000   0.00000
  84       15F+1        0.00000  -0.00021   0.00000   0.00000   0.00000
  85       15F-1        0.00000   0.00000   0.00000   0.00000   0.00000
  86       15F+2        0.00000   0.00000   0.00011   0.00001   0.00000
  87       15F-2        0.00000   0.00000   0.00000   0.00000   0.00000
  88       15F+3        0.00000   0.00009   0.00000   0.00000   0.00000
  89       15F-3        0.00000   0.00000   0.00000   0.00000   0.00000
  90       16F 0        0.00000   0.00000  -0.00037   0.00002   0.00001
  91       16F+1        0.00000  -0.00012   0.00000   0.00000   0.00000
  92       16F-1        0.00000   0.00000   0.00000   0.00000  -0.00001
  93       16F+2        0.00000   0.00000  -0.00045   0.00000   0.00000
  94       16F-2        0.00001   0.00000   0.00000   0.00000   0.00000
  95       16F+3        0.00000  -0.00012   0.00000   0.00000   0.00000
  96       16F-3        0.00000   0.00000   0.00000   0.00000   0.00000
  97 3   Br 1S          0.00000   0.00000   0.00137  -0.00630   0.01099
  98        2S          0.00000   0.00000  -0.00383   0.01753  -0.03481
  99        3S          0.00000   0.00000  -0.00711   0.00140  -0.00336
 100        4S          0.00000   0.00000   0.00066   0.00002   0.00001
 101        5S          0.00000   0.00000  -0.00052   0.00005  -0.00010
 102        6S          0.00000   0.00000   0.00091  -0.00039  -0.00003
 103        7S          0.00000   0.00000   0.00251  -0.00031   0.00012
 104        8PX        -0.26341   0.19697   0.00000   0.00000   0.00000
 105        8PY         0.00000   0.00000  -0.08137  -0.16471  -0.63281
 106        8PZ         0.00000   0.00000  -0.07232   0.32455   0.69257
 107        9PX         0.74490  -0.55443   0.00000   0.00000   0.00000
 108        9PY         0.00000   0.00000   0.16642   0.00352   0.00898
 109        9PZ         0.00000   0.00000   0.16304  -0.00609  -0.01632
 110       10PX         0.00126   0.00030   0.00000   0.00000   0.00000
 111       10PY         0.00000   0.00000  -0.00022  -0.00013  -0.00029
 112       10PZ         0.00000   0.00000   0.00000   0.00012   0.00032
 113       11PX         0.03326  -0.02415   0.00000   0.00000   0.00000
 114       11PY         0.00000   0.00000   0.00686   0.00028   0.00086
 115       11PZ         0.00000   0.00000   0.00666  -0.00050  -0.00120
 116       12PX         0.00384  -0.00247   0.00000   0.00000   0.00000
 117       12PY         0.00000   0.00000   0.00195  -0.00023   0.00009
 118       12PZ         0.00000   0.00000  -0.00011  -0.00016  -0.00006
 119       13PX        -0.00031   0.00037   0.00000   0.00000   0.00000
 120       13PY         0.00000   0.00000   0.00037  -0.00005   0.00000
 121       13PZ         0.00000   0.00000   0.00019  -0.00001   0.00004
 122       14D 0        0.00000   0.00000  -0.00135   0.00020   0.00052
 123       14D+1       -0.00056   0.00021   0.00000   0.00000   0.00000
 124       14D-1        0.00000   0.00000   0.01052   0.00007   0.00033
 125       14D+2        0.00000   0.00000  -0.00732   0.00015   0.00027
 126       14D-2        0.00017  -0.00030   0.00000   0.00000   0.00000
 127       15D 0        0.00000   0.00000  -0.00010   0.00000   0.00001
 128       15D+1        0.00004  -0.00010   0.00000   0.00000   0.00000
 129       15D-1        0.00000   0.00000   0.00091   0.00000   0.00002
 130       15D+2        0.00000   0.00000  -0.00065   0.00001   0.00000
 131       15D-2        0.00012  -0.00016   0.00000   0.00000   0.00000
 132       16D 0        0.00000   0.00000   0.00013   0.00003   0.00008
 133       16D+1       -0.00011   0.00012   0.00000   0.00000   0.00000
 134       16D-1        0.00000   0.00000   0.00100   0.00001   0.00002
 135       16D+2        0.00000   0.00000  -0.00043   0.00004   0.00005
 136       16D-2       -0.00019  -0.00001   0.00000   0.00000   0.00000
 137       17D 0        0.00000   0.00000  -0.00024   0.00002  -0.00001
 138       17D+1        0.00007  -0.00011   0.00000   0.00000   0.00000
 139       17D-1        0.00000   0.00000   0.00012  -0.00004   0.00000
 140       17D+2        0.00000   0.00000  -0.00052   0.00004  -0.00002
 141       17D-2        0.00013  -0.00035   0.00000   0.00000   0.00000
 142       18F 0        0.00000   0.00000  -0.00012   0.00000   0.00000
 143       18F+1        0.00002  -0.00002   0.00000   0.00000   0.00000
 144       18F-1        0.00000   0.00000   0.00011   0.00000  -0.00001
 145       18F+2        0.00000   0.00000  -0.00019   0.00000   0.00000
 146       18F-2        0.00023  -0.00018   0.00000   0.00000   0.00000
 147       18F+3       -0.00018   0.00011   0.00000   0.00000   0.00000
 148       18F-3        0.00000   0.00000  -0.00007   0.00001   0.00000
 149       19F 0        0.00000   0.00000  -0.00007   0.00000   0.00001
 150       19F+1       -0.00002   0.00006   0.00000   0.00000   0.00000
 151       19F-1        0.00000   0.00000   0.00021   0.00002   0.00004
 152       19F+2        0.00000   0.00000  -0.00022   0.00000   0.00000
 153       19F-2       -0.00018   0.00016   0.00000   0.00000   0.00000
 154       19F+3        0.00014   0.00002   0.00000   0.00000   0.00000
 155       19F-3        0.00000   0.00000  -0.00006   0.00000   0.00001
 156 4   Br 1S          0.00000   0.00000   0.00141   0.00363  -0.01165
 157        2S          0.00000   0.00000  -0.00400  -0.01304   0.03505
 158        3S          0.00000   0.00000  -0.00678  -0.00149   0.00323
 159        4S          0.00000   0.00000   0.00068   0.00002   0.00001
 160        5S          0.00000   0.00000  -0.00051  -0.00004   0.00011
 161        6S          0.00000   0.00000   0.00094  -0.00028  -0.00027
 162        7S          0.00000   0.00000   0.00250  -0.00012  -0.00031
 163        8PX         0.26133   0.19854   0.00000   0.00000   0.00000
 164        8PY         0.00000   0.00000   0.08064   0.58379  -0.29445
 165        8PZ         0.00000   0.00000  -0.07193   0.73541  -0.21190
 166        9PX        -0.73901  -0.55882   0.00000   0.00000   0.00000
 167        9PY         0.00000   0.00000  -0.16314  -0.00915   0.00326
 168        9PZ         0.00000   0.00000   0.16098  -0.01629   0.00623
 169       10PX        -0.00124   0.00030   0.00000   0.00000   0.00000
 170       10PY         0.00000   0.00000   0.00022   0.00031  -0.00010
 171       10PZ         0.00000   0.00000   0.00002   0.00032  -0.00012
 172       11PX        -0.03301  -0.02435   0.00000   0.00000   0.00000
 173       11PY         0.00000   0.00000  -0.00671  -0.00084   0.00036
 174       11PZ         0.00000   0.00000   0.00656  -0.00123   0.00042
 175       12PX        -0.00381  -0.00250   0.00000   0.00000   0.00000
 176       12PY         0.00000   0.00000  -0.00194   0.00008   0.00023
 177       12PZ         0.00000   0.00000  -0.00013  -0.00015  -0.00008
 178       13PX         0.00031   0.00038   0.00000   0.00000   0.00000
 179       13PY         0.00000   0.00000  -0.00037   0.00004   0.00004
 180       13PZ         0.00000   0.00000   0.00019   0.00003  -0.00004
 181       14D 0        0.00000   0.00000  -0.00128   0.00053  -0.00019
 182       14D+1        0.00046   0.00014   0.00000   0.00000   0.00000
 183       14D-1        0.00000   0.00000  -0.01066  -0.00029   0.00016
 184       14D+2        0.00000   0.00000  -0.00738   0.00030  -0.00007
 185       14D-2        0.00033   0.00042   0.00000   0.00000   0.00000
 186       15D 0        0.00000   0.00000  -0.00009   0.00001  -0.00001
 187       15D+1       -0.00005  -0.00011   0.00000   0.00000   0.00000
 188       15D-1        0.00000   0.00000  -0.00093  -0.00001   0.00001
 189       15D+2        0.00000   0.00000  -0.00065   0.00001   0.00000
 190       15D-2        0.00013   0.00017   0.00000   0.00000   0.00000
 191       16D 0        0.00000   0.00000   0.00015   0.00008  -0.00003
 192       16D+1        0.00011   0.00012   0.00000   0.00000   0.00000
 193       16D-1        0.00000   0.00000  -0.00100  -0.00003   0.00001
 194       16D+2        0.00000   0.00000  -0.00042   0.00007  -0.00001
 195       16D-2       -0.00019   0.00001   0.00000   0.00000   0.00000
 196       17D 0        0.00000   0.00000  -0.00025   0.00000   0.00002
 197       17D+1       -0.00007  -0.00011   0.00000   0.00000   0.00000
 198       17D-1        0.00000   0.00000  -0.00012   0.00003   0.00003
 199       17D+2        0.00000   0.00000  -0.00052   0.00001   0.00005
 200       17D-2        0.00013   0.00036   0.00000   0.00000   0.00000
 201       18F 0        0.00000   0.00000  -0.00012   0.00000   0.00000
 202       18F+1       -0.00002  -0.00002   0.00000   0.00000   0.00000
 203       18F-1        0.00000   0.00000  -0.00011   0.00001   0.00000
 204       18F+2        0.00000   0.00000  -0.00019   0.00000   0.00000
 205       18F-2        0.00023   0.00019   0.00000   0.00000   0.00000
 206       18F+3        0.00018   0.00011   0.00000   0.00000   0.00000
 207       18F-3        0.00000   0.00000   0.00007   0.00000   0.00000
 208       19F 0        0.00000   0.00000  -0.00007   0.00001  -0.00001
 209       19F+1        0.00002   0.00006   0.00000   0.00000   0.00000
 210       19F-1        0.00000   0.00000  -0.00022  -0.00004   0.00001
 211       19F+2        0.00000   0.00000  -0.00022   0.00000  -0.00001
 212       19F-2       -0.00018  -0.00016   0.00000   0.00000   0.00000
 213       19F+3       -0.00014   0.00002   0.00000   0.00000   0.00000
 214       19F-3        0.00000   0.00000   0.00006  -0.00001   0.00001
                          16        17        18        19        20
     Eigenvalues --     2.00000   2.00000   2.00000   2.00000   2.00000
   1 1   C  1S         -0.00026   0.00000   0.00000  -0.02394   0.00036
   2        2S          0.00000   0.00000   0.00000   0.00022   0.00000
   3        3S         -0.00001   0.00000   0.00000  -0.00105   0.00002
   4        4S          0.00000   0.00000   0.00000   0.00138  -0.00001
   5        5S          0.00000   0.00000   0.00000   0.00064  -0.00001
   6        6PX         0.00000   0.00001   0.00000   0.00000   0.00000
   7        6PY        -0.00003   0.00000   0.00000   0.00000   0.00000
   8        6PZ         0.00000   0.00000   0.00000   0.00004   0.00000
   9        7PX         0.00000  -0.00002   0.00000   0.00000   0.00000
  10        7PY         0.00006   0.00000   0.00000   0.00000  -0.00002
  11        7PZ         0.00000   0.00000   0.00000  -0.00007   0.00000
  12        8PX         0.00000  -0.00015  -0.00001   0.00000   0.00000
  13        8PY         0.00061   0.00000   0.00000   0.00000  -0.00002
  14        8PZ         0.00000   0.00000   0.00000  -0.00053   0.00000
  15        9PX         0.00000   0.00003   0.00000   0.00000   0.00000
  16        9PY         0.00007   0.00000   0.00000   0.00000   0.00001
  17        9PZ         0.00000   0.00000   0.00000  -0.00013   0.00000
  18       10D 0        0.00000   0.00000   0.00000  -0.00001   0.00000
  19       10D+1        0.00000   0.00000   0.00000   0.00000   0.00000
  20       10D-1        0.00000   0.00000   0.00000   0.00000   0.00000
  21       10D+2        0.00000   0.00000   0.00000   0.00001   0.00000
  22       10D-2        0.00000   0.00000  -0.00001   0.00000   0.00000
  23       11D 0        0.00000   0.00000   0.00000   0.00003   0.00000
  24       11D+1        0.00000   0.00002   0.00000   0.00000   0.00000
  25       11D-1       -0.00008   0.00000   0.00000   0.00000   0.00001
  26       11D+2        0.00000   0.00000   0.00000  -0.00014   0.00000
  27       11D-2        0.00000   0.00000   0.00004   0.00000   0.00000
  28       12D 0        0.00000   0.00000   0.00000  -0.00011   0.00000
  29       12D+1        0.00000  -0.00004   0.00000   0.00000   0.00000
  30       12D-1       -0.00042   0.00000   0.00000   0.00000   0.00005
  31       12D+2        0.00000   0.00000   0.00000  -0.00021   0.00000
  32       12D-2        0.00000   0.00000  -0.00004   0.00000   0.00000
  33       13F 0        0.00000   0.00000   0.00000   0.00000   0.00000
  34       13F+1        0.00000   0.00000   0.00000   0.00000   0.00000
  35       13F-1        0.00000   0.00000   0.00000   0.00000   0.00000
  36       13F+2        0.00000   0.00000   0.00000   0.00000   0.00000
  37       13F-2        0.00000   0.00000   0.00000   0.00000   0.00000
  38       13F+3        0.00000  -0.00001   0.00000   0.00000   0.00000
  39       13F-3        0.00001   0.00000   0.00000   0.00000   0.00000
  40       14F 0        0.00000   0.00000   0.00000   0.00001   0.00000
  41       14F+1        0.00000  -0.00002   0.00000   0.00000   0.00000
  42       14F-1       -0.00006   0.00000   0.00000   0.00000   0.00001
  43       14F+2        0.00000   0.00000   0.00000   0.00004   0.00000
  44       14F-2        0.00000   0.00000  -0.00003   0.00000   0.00000
  45       14F+3        0.00000   0.00004   0.00000   0.00000   0.00000
  46       14F-3       -0.00004   0.00000   0.00000   0.00000   0.00001
  47 2   S  1S          0.00009   0.00000   0.00000   0.03417  -0.00174
  48        2S          0.00006   0.00000   0.00000   0.00604  -0.00010
  49        3S          0.00000   0.00000   0.00000  -0.00002   0.00000
  50        4S          0.00000   0.00000   0.00000   0.00043  -0.00001
  51        5S          0.00000   0.00000   0.00000  -0.00003   0.00000
  52        6S          0.00000   0.00000   0.00000  -0.00003   0.00000
  53        7PX         0.00000  -0.00082  -0.00004   0.00000   0.00000
  54        7PY         0.00056   0.00000   0.00000  -0.00004   0.00004
  55        7PZ        -0.00014   0.00000   0.00000  -0.01332   0.00020
  56        8PX         0.00000   0.00001   0.00000   0.00000   0.00000
  57        8PY         0.00001   0.00000   0.00000   0.00000  -0.00001
  58        8PZ         0.00000   0.00000   0.00000   0.00016   0.00000
  59        9PX         0.00000  -0.00005   0.00000   0.00000   0.00000
  60        9PY         0.00004   0.00000   0.00000   0.00000   0.00000
  61        9PZ        -0.00001   0.00000   0.00000  -0.00089   0.00001
  62       10PX         0.00000   0.00010   0.00001   0.00000   0.00000
  63       10PY         0.00018   0.00000   0.00000   0.00000  -0.00001
  64       10PZ         0.00000   0.00000   0.00000   0.00006   0.00000
  65       11PX         0.00000  -0.00001   0.00000   0.00000   0.00000
  66       11PY         0.00000   0.00000   0.00000   0.00000   0.00000
  67       11PZ         0.00000   0.00000   0.00000   0.00003   0.00000
  68       12D 0        0.00000   0.00000   0.00000  -0.00007   0.00000
  69       12D+1        0.00000  -0.00002   0.00000   0.00000   0.00000
  70       12D-1       -0.00001   0.00000   0.00000   0.00000   0.00000
  71       12D+2        0.00000   0.00000   0.00000   0.00001   0.00000
  72       12D-2        0.00000   0.00000   0.00001   0.00000   0.00000
  73       13D 0        0.00000   0.00000   0.00000   0.00002   0.00000
  74       13D+1        0.00000   0.00000   0.00000   0.00000   0.00000
  75       13D-1        0.00000   0.00000   0.00000   0.00000   0.00000
  76       13D+2        0.00000   0.00000   0.00000   0.00000   0.00000
  77       13D-2        0.00000   0.00000   0.00000   0.00000   0.00000
  78       14D 0        0.00000   0.00000   0.00000  -0.00003   0.00000
  79       14D+1        0.00000  -0.00005   0.00000   0.00000   0.00000
  80       14D-1       -0.00004   0.00000   0.00000   0.00000   0.00000
  81       14D+2        0.00000   0.00000   0.00000   0.00002   0.00000
  82       14D-2        0.00000   0.00000   0.00001   0.00000   0.00000
  83       15F 0        0.00000   0.00000   0.00000  -0.00001   0.00000
  84       15F+1        0.00000   0.00000   0.00000   0.00000   0.00000
  85       15F-1        0.00000   0.00000   0.00000   0.00000   0.00000
  86       15F+2        0.00000   0.00000   0.00000  -0.00001   0.00000
  87       15F-2        0.00000   0.00000   0.00000   0.00000   0.00000
  88       15F+3        0.00000   0.00000   0.00000   0.00000   0.00000
  89       15F-3        0.00000   0.00000   0.00000   0.00000   0.00000
  90       16F 0        0.00000   0.00000   0.00000   0.00002   0.00000
  91       16F+1        0.00000   0.00002   0.00000   0.00000   0.00000
  92       16F-1        0.00000   0.00000   0.00000   0.00000   0.00000
  93       16F+2        0.00000   0.00000   0.00000   0.00000   0.00000
  94       16F-2        0.00000   0.00000  -0.00001   0.00000   0.00000
  95       16F+3        0.00000  -0.00001   0.00000   0.00000   0.00000
  96       16F-3        0.00000   0.00000   0.00000   0.00000   0.00000
  97 3   Br 1S         -0.05075   0.00000   0.00000  -0.00595  -0.22833
  98        2S          0.15861   0.00000   0.00000   0.01989   0.74035
  99        3S          0.01475   0.00000   0.00000  -0.00676   0.03174
 100        4S         -0.00014   0.00000   0.00000   0.00008  -0.00021
 101        5S          0.00044   0.00000   0.00000  -0.00022   0.00075
 102        6S          0.00077   0.00000   0.00000  -0.00078   0.00004
 103        7S          0.00008   0.00000   0.00000  -0.00029   0.00003
 104        8PX         0.00000   0.66860   0.75487   0.00000   0.00000
 105        8PY         0.47393   0.00000   0.00000  -0.57239  -0.13558
 106        8PZ         0.50220   0.00000   0.00000  -0.40391  -0.08586
 107        9PX         0.00000  -0.01479  -0.01748   0.00000   0.00000
 108        9PY         0.00512   0.00000   0.00000  -0.00879   0.00257
 109        9PZ        -0.00027   0.00000   0.00000  -0.00574   0.00162
 110       10PX         0.00000   0.00027   0.00031   0.00000   0.00000
 111       10PY         0.00026   0.00000   0.00000  -0.00035  -0.00007
 112       10PZ         0.00030   0.00000   0.00000  -0.00023  -0.00005
 113       11PX         0.00000  -0.00113  -0.00131   0.00000   0.00000
 114       11PY        -0.00021   0.00000   0.00000   0.00017   0.00023
 115       11PZ        -0.00045   0.00000   0.00000   0.00013   0.00015
 116       12PX         0.00000  -0.00007  -0.00014   0.00000   0.00000
 117       12PY         0.00024   0.00000   0.00000  -0.00025   0.00005
 118       12PZ         0.00008   0.00000   0.00000  -0.00024   0.00003
 119       13PX         0.00000   0.00001   0.00003   0.00000   0.00000
 120       13PY         0.00000   0.00000   0.00000  -0.00004   0.00000
 121       13PZ         0.00001   0.00000   0.00000  -0.00001   0.00000
 122       14D 0        0.00008   0.00000   0.00000   0.00001  -0.00003
 123       14D+1        0.00000   0.00003   0.00003   0.00000   0.00000
 124       14D-1       -0.00022   0.00000   0.00000  -0.00008   0.00002
 125       14D+2        0.00025   0.00000   0.00000   0.00003   0.00006
 126       14D-2        0.00000  -0.00001  -0.00002   0.00000   0.00000
 127       15D 0        0.00000   0.00000   0.00000   0.00000   0.00000
 128       15D+1        0.00000  -0.00001  -0.00001   0.00000   0.00000
 129       15D-1       -0.00004   0.00000   0.00000   0.00002   0.00000
 130       15D+2        0.00004   0.00000   0.00000  -0.00002   0.00000
 131       15D-2        0.00000  -0.00002  -0.00002   0.00000   0.00000
 132       16D 0        0.00003   0.00000   0.00000   0.00001  -0.00001
 133       16D+1        0.00000   0.00003   0.00002   0.00000   0.00000
 134       16D-1        0.00010   0.00000   0.00000  -0.00014  -0.00001
 135       16D+2       -0.00005   0.00000   0.00000   0.00011   0.00000
 136       16D-2        0.00000   0.00004   0.00004   0.00000   0.00000
 137       17D 0       -0.00003   0.00000   0.00000  -0.00001   0.00000
 138       17D+1        0.00000   0.00000  -0.00002   0.00000   0.00000
 139       17D-1        0.00003   0.00000   0.00000  -0.00006   0.00001
 140       17D+2       -0.00002   0.00000   0.00000   0.00003  -0.00002
 141       17D-2        0.00000   0.00000  -0.00002   0.00000   0.00000
 142       18F 0        0.00000   0.00000   0.00000   0.00000   0.00000
 143       18F+1        0.00000   0.00000   0.00000   0.00000   0.00000
 144       18F-1        0.00001   0.00000   0.00000   0.00000   0.00000
 145       18F+2       -0.00001   0.00000   0.00000   0.00001   0.00000
 146       18F-2        0.00000  -0.00001   0.00000   0.00000   0.00000
 147       18F+3        0.00000   0.00000   0.00000   0.00000   0.00000
 148       18F-3        0.00000   0.00000   0.00000   0.00001   0.00000
 149       19F 0       -0.00001   0.00000   0.00000   0.00002   0.00000
 150       19F+1        0.00000   0.00001   0.00000   0.00000   0.00000
 151       19F-1        0.00002   0.00000   0.00000  -0.00001   0.00000
 152       19F+2       -0.00002   0.00000   0.00000   0.00003   0.00000
 153       19F-2        0.00000   0.00002   0.00001   0.00000   0.00000
 154       19F+3        0.00000  -0.00002  -0.00001   0.00000   0.00000
 155       19F-3        0.00000   0.00000   0.00000   0.00002   0.00000
 156 4   Br 1S          0.04925   0.00000   0.00000  -0.00592   0.20904
 157        2S         -0.15384   0.00000   0.00000   0.01968  -0.67745
 158        3S         -0.01459   0.00000   0.00000  -0.00691  -0.02889
 159        4S          0.00014   0.00000   0.00000   0.00008   0.00019
 160        5S         -0.00044   0.00000   0.00000  -0.00023  -0.00068
 161        6S         -0.00077   0.00000   0.00000  -0.00079  -0.00003
 162        7S         -0.00009   0.00000   0.00000  -0.00029  -0.00003
 163        8PX         0.00000   0.75462  -0.66888   0.00000   0.00000
 164        8PY         0.47185   0.00000   0.00000   0.57421  -0.13578
 165        8PZ        -0.49879   0.00000   0.00000  -0.40700   0.08659
 166        9PX         0.00000  -0.01677   0.01556   0.00000   0.00000
 167        9PY         0.00522   0.00000   0.00000   0.00879   0.00212
 168        9PZ         0.00008   0.00000   0.00000  -0.00575  -0.00133
 169       10PX         0.00000   0.00030  -0.00027   0.00000   0.00000
 170       10PY         0.00026   0.00000   0.00000   0.00036  -0.00007
 171       10PZ        -0.00030   0.00000   0.00000  -0.00023   0.00005
 172       11PX         0.00000  -0.00128   0.00117   0.00000   0.00000
 173       11PY        -0.00020   0.00000   0.00000  -0.00017   0.00021
 174       11PZ         0.00044   0.00000   0.00000   0.00013  -0.00013
 175       12PX         0.00000  -0.00008   0.00013   0.00000   0.00000
 176       12PY         0.00024   0.00000   0.00000   0.00025   0.00005
 177       12PZ        -0.00008   0.00000   0.00000  -0.00024  -0.00002
 178       13PX         0.00000   0.00002  -0.00003   0.00000   0.00000
 179       13PY         0.00000   0.00000   0.00000   0.00004   0.00000
 180       13PZ        -0.00001   0.00000   0.00000  -0.00001   0.00000
 181       14D 0       -0.00008   0.00000   0.00000   0.00001   0.00003
 182       14D+1        0.00000   0.00003  -0.00002   0.00000   0.00000
[...]
 167        9PY         0.01182  -0.03121  -0.01127   0.01151   0.00000
 168        9PZ        -0.00828   0.01309  -0.00395   0.00572   0.00000
 169       10PX         0.00000   0.00000   0.00000   0.00000  -0.10176
 170       10PY         0.27040  -0.49179   0.01769   0.14674   0.00000
 171       10PZ        -0.17394   0.19761  -0.12670   0.04839   0.00000
 172       11PX         0.00000   0.00000   0.00000   0.00000   0.03521
 173       11PY         0.00922   0.00153   0.05311  -0.00027   0.00000
 174       11PZ        -0.00725  -0.00030  -0.01224  -0.01937   0.00000
 175       12PX         0.00000   0.00000   0.00000   0.00000   0.39339
 176       12PY         7.76170  -5.54135   3.19289  -5.72258   0.00000
 177       12PZ        -2.98240   6.12284  -1.95309   2.47746   0.00000
 178       13PX         0.00000   0.00000   0.00000   0.00000  -2.13748
 179       13PY        -0.60895  -1.04702   2.03658  -3.29302   0.00000
 180       13PZ        -1.66421   0.79329   0.17433   1.12710   0.00000
 181       14D 0        0.00293  -0.00165  -0.00415  -0.00022   0.00000
 182       14D+1        0.00000   0.00000   0.00000   0.00000   0.00097
 183       14D-1        0.00397   0.00087   0.00032   0.00005   0.00000
 184       14D+2        0.00396  -0.00140   0.00263   0.00378   0.00000
 185       14D-2        0.00000   0.00000   0.00000   0.00000  -0.00121
 186       15D 0       -0.03584   0.02747   0.04767   0.00233   0.00000
 187       15D+1        0.00000   0.00000   0.00000   0.00000  -0.01506
 188       15D-1       -0.05337   0.00359  -0.01658   0.01164   0.00000
 189       15D+2       -0.04755   0.02753  -0.03546  -0.03447   0.00000
 190       15D-2        0.00000   0.00000   0.00000   0.00000   0.02431
 191       16D 0        0.22887  -0.18931  -0.24270  -0.02108   0.00000
 192       16D+1        0.00000   0.00000   0.00000   0.00000   0.07302
 193       16D-1        0.44280  -0.39218   0.31600  -0.13931   0.00000
 194       16D+2        0.39593  -0.41710   0.29331   0.10181   0.00000
 195       16D-2        0.00000   0.00000   0.00000   0.00000  -0.12813
 196       17D 0        0.63899   0.79611   0.31143  -0.47866   0.00000
 197       17D+1        0.00000   0.00000   0.00000   0.00000  -0.15996
 198       17D-1        0.90166  -1.78047   0.04792  -1.40269   0.00000
 199       17D+2        0.75662  -0.52739   0.00469  -2.00472   0.00000
 200       17D-2        0.00000   0.00000   0.00000   0.00000   0.14291
 201       18F 0       -0.03678   0.00008   0.02538  -0.00434   0.00000
 202       18F+1        0.00000   0.00000   0.00000   0.00000  -0.01544
 203       18F-1        0.00066  -0.03757   0.00209   0.01266   0.00000
 204       18F+2       -0.00661  -0.01176  -0.00097   0.03738   0.00000
 205       18F-2        0.00000   0.00000   0.00000   0.00000   0.00510
 206       18F+3        0.00000   0.00000   0.00000   0.00000   0.04307
 207       18F-3       -0.02450  -0.01550  -0.01244  -0.03314   0.00000
 208       19F 0        0.19963  -0.10194  -0.06387  -0.06445   0.00000
 209       19F+1        0.00000   0.00000   0.00000   0.00000   0.02383
 210       19F-1       -0.01743   0.03918   0.05075  -0.03822   0.00000
 211       19F+2        0.12632  -0.11473   0.02938  -0.19547   0.00000
 212       19F-2        0.00000   0.00000   0.00000   0.00000  -0.01590
 213       19F+3        0.00000   0.00000   0.00000   0.00000  -0.10339
 214       19F-3        0.00835   0.09039   0.01530   0.17793   0.00000
                         211       212       213       214
     Eigenvalues --     0.00000   0.00000   0.00000   0.00000
   1 1   C  1S         -0.12706   0.00241   0.02550  -0.02034
   2        2S         -0.60415   0.01148   0.10071  -0.06255
   3        3S          0.09160  -0.00145  -0.06558   0.11124
   4        4S          3.11046  -0.16616  -3.49822   1.00803
   5        5S         21.27481  -0.30431   2.65828  26.19308
   6        6PX         0.00000   0.00000   0.00000   0.00000
   7        6PY         0.00002  -0.01525   0.00014   0.00025
   8        6PZ        -0.00635   0.00001  -0.02071   0.01751
   9        7PX         0.00000   0.00000   0.00000   0.00000
  10        7PY        -0.00113   0.02185   0.00035  -0.00169
  11        7PZ         0.10904  -0.00105   0.01173  -0.16882
  12        8PX         0.00000   0.00000   0.00000   0.00000
  13        8PY        -0.10097  -5.95501   0.04983   0.01764
  14        8PZ         3.62882  -0.06002  -5.12013   0.30517
  15        9PX         0.00000   0.00000   0.00000   0.00000
  16        9PY        -0.26258 -19.80049   0.11341   0.08925
  17        9PZ         8.47974  -0.16459 -12.95080  -0.38506
  18       10D 0        0.01017   0.00006   0.00898   0.01173
  19       10D+1        0.00000   0.00000   0.00000   0.00000
  20       10D-1       -0.00045  -0.01296   0.00007  -0.00005
  21       10D+2       -0.03230   0.00015   0.01105  -0.03160
  22       10D-2        0.00000   0.00000   0.00000   0.00000
  23       11D 0        0.20552  -0.00608  -0.02805  -0.30892
  24       11D+1        0.00000   0.00000   0.00000   0.00000
  25       11D-1        0.00704   0.25297  -0.00076   0.00170
  26       11D+2        0.16076  -0.00008  -0.05725   0.18814
  27       11D-2        0.00000   0.00000   0.00000   0.00000
  28       12D 0        2.85706  -0.05818  -0.65400  -0.43547
  29       12D+1        0.00000   0.00000   0.00000   0.00000
  30       12D-1        0.07067   2.15562  -0.00124   0.01134
  31       12D+2       -0.08153  -0.01270  -0.49766  -0.63447
  32       12D-2        0.00000   0.00000   0.00000   0.00000
  33       13F 0       -0.00955  -0.00007  -0.01099  -0.02700
  34       13F+1        0.00000   0.00000   0.00000   0.00000
  35       13F-1        0.00012  -0.00475   0.00002   0.00000
  36       13F+2       -0.00549  -0.00008   0.00719  -0.00774
  37       13F-2        0.00000   0.00000   0.00000   0.00000
  38       13F+3        0.00000   0.00000   0.00000   0.00000
  39       13F-3        0.00033   0.00861  -0.00022  -0.00019
  40       14F 0        0.03764  -0.00147   0.07057  -0.14176
  41       14F+1        0.00000   0.00000   0.00000   0.00000
  42       14F-1       -0.00311  -0.01473   0.00057  -0.00061
  43       14F+2       -0.06871  -0.00005  -0.03230  -0.10072
  44       14F-2        0.00000   0.00000   0.00000   0.00000
  45       14F+3        0.00000   0.00000   0.00000   0.00000
  46       14F-3       -0.00060  -0.01537   0.00061   0.00034
  47 2   S  1S          0.00682  -0.00008   0.00244   0.00197
  48        2S          0.12022  -0.00110   0.09559   0.01928
  49        3S          0.31730  -0.00352   0.15986   0.07411
  50        4S         -0.03000  -0.00096  -0.18232  -0.01090
  51        5S         -6.77279   0.12869   1.47774   1.56416
  52        6S        -11.31665   0.24273  20.45309 -12.73157
  53        7PX         0.00000   0.00000   0.00000   0.00000
  54        7PY         0.00023   0.00803  -0.00004  -0.00002
  55        7PZ         0.01607  -0.00025   0.03041  -0.03688
  56        8PX         0.00000   0.00000   0.00000   0.00000
  57        8PY         0.00330   0.08073  -0.00072  -0.00023
  58        8PZ         0.49364  -0.00900   0.44786  -0.76169
  59        9PX         0.00000   0.00000   0.00000   0.00000
  60        9PY        -0.00069  -0.02653   0.00012   0.00009
  61        9PZ        -0.03919   0.00042  -0.10467   0.11238
  62       10PX         0.00000   0.00000   0.00000   0.00000
  63       10PY        -0.03124  -0.46793  -0.00558  -0.00904
  64       10PZ         2.65951  -0.07748  -5.99740   2.18215
  65       11PX         0.00000   0.00000   0.00000   0.00000
  66       11PY         0.06335   5.08357  -0.02398  -0.01996
  67       11PZ        -1.34634   0.01572  -2.02640   4.21744
  68       12D 0       -0.61448   0.01310   0.22729   0.34498
  69       12D+1        0.00000   0.00000   0.00000   0.00000
  70       12D-1        0.00149   0.13469   0.00100   0.00093
  71       12D+2        0.20205  -0.00163   0.01218   0.07801
  72       12D-2        0.00000   0.00000   0.00000   0.00000
  73       13D 0        0.10658  -0.00179  -0.03593  -0.00976
  74       13D+1        0.00000   0.00000   0.00000   0.00000
  75       13D-1       -0.00053  -0.03568  -0.00007  -0.00016
  76       13D+2       -0.05378   0.00048   0.00248  -0.01742
  77       13D-2        0.00000   0.00000   0.00000   0.00000
  78       14D 0        1.22195  -0.00811   1.69336  -1.20469
  79       14D+1        0.00000   0.00000   0.00000   0.00000
  80       14D-1        0.00669  -0.27738   0.00298   0.00310
  81       14D+2       -0.53148   0.00773  -0.02560  -0.00133
  82       14D-2        0.00000   0.00000   0.00000   0.00000
  83       15F 0        0.03890  -0.00027   0.06639  -0.05835
  84       15F+1        0.00000   0.00000   0.00000   0.00000
  85       15F-1       -0.00030  -0.01307   0.00017  -0.00011
  86       15F+2       -0.01537   0.00037  -0.01004   0.01444
  87       15F-2        0.00000   0.00000   0.00000   0.00000
  88       15F+3        0.00000   0.00000   0.00000   0.00000
  89       15F-3       -0.00050  -0.03755   0.00007   0.00013
  90       16F 0       -0.15691  -0.00039  -0.29804   0.08139
  91       16F+1        0.00000   0.00000   0.00000   0.00000
  92       16F-1        0.00038   0.03370  -0.00097  -0.00014
  93       16F+2        0.06854  -0.00181   0.01697  -0.07397
  94       16F-2        0.00000   0.00000   0.00000   0.00000
  95       16F+3        0.00000   0.00000   0.00000   0.00000
  96       16F-3        0.00137   0.10110  -0.00032  -0.00043
  97 3   Br 1S          0.00027  -0.00012  -0.00020   0.00024
  98        2S          0.00252   0.00232   0.00045   0.00094
  99        3S          0.01057   0.00288  -0.00281   0.00656
 100        4S          0.03379   0.03892   0.00802   0.01131
 101        5S          0.01071   0.11526   0.04030  -0.02923
 102        6S          0.23184  -1.95128  -0.43419   0.06951
 103        7S         -4.95775 -21.47282 -10.13645  -7.16172
 104        8PX         0.00000   0.00000   0.00000   0.00000
 105        8PY        -0.00061  -0.00100  -0.00003  -0.00004
 106        8PZ         0.00000  -0.00061  -0.00024  -0.00012
 107        9PX         0.00000   0.00000   0.00000   0.00000
 108        9PY         0.01828   0.01728   0.00497   0.01753
 109        9PZ         0.01411   0.00594   0.01201   0.01085
 110       10PX         0.00000   0.00000   0.00000   0.00000
 111       10PY         0.18321   0.15211   0.05712   0.20272
 112       10PZ         0.16376   0.03864   0.12781   0.12153
 113       11PX         0.00000   0.00000   0.00000   0.00000
 114       11PY        -0.03016  -0.02792  -0.00484  -0.02472
 115       11PZ        -0.02103  -0.01219  -0.01728  -0.01450
 116       12PX         0.00000   0.00000   0.00000   0.00000
 117       12PY        -1.07298  -4.57276  -1.67083  -0.46288
 118       12PZ        -0.25636  -2.70557  -1.53641  -0.59285
 119       13PX         0.00000   0.00000   0.00000   0.00000
 120       13PY        -0.84602  -1.79191  -2.94054  -2.35436
 121       13PZ        -3.11639  -3.41554   0.35925  -1.41297
 122       14D 0        0.00103   0.00007  -0.00145  -0.00058
 123       14D+1        0.00000   0.00000   0.00000   0.00000
 124       14D-1        0.00207   0.00079   0.00086   0.00156
 125       14D+2       -0.00018   0.00097  -0.00070  -0.00070
 126       14D-2        0.00000   0.00000   0.00000   0.00000
 127       15D 0       -0.01261  -0.00290   0.01507   0.00995
 128       15D+1        0.00000   0.00000   0.00000   0.00000
 129       15D-1       -0.02778   0.00623  -0.00814  -0.02325
 130       15D+2       -0.00076  -0.02099   0.00670   0.01254
 131       15D-2        0.00000   0.00000   0.00000   0.00000
 132       16D 0        0.06607   0.01384  -0.05154  -0.06570
 133       16D+1        0.00000   0.00000   0.00000   0.00000
 134       16D-1        0.17075  -0.14797   0.02912   0.19969
 135       16D+2       -0.00843   0.16376  -0.02099  -0.12815
 136       16D-2        0.00000   0.00000   0.00000   0.00000
 137       17D 0       -0.20448   0.17062   0.06233   0.05421
 138       17D+1        0.00000   0.00000   0.00000   0.00000
 139       17D-1       -0.32361  -1.13094  -0.72041  -0.39216
 140       17D+2        0.29976   0.79542   0.47239   0.11575
 141       17D-2        0.00000   0.00000   0.00000   0.00000
 142       18F 0        0.00168  -0.02749   0.00940   0.00234
 143       18F+1        0.00000   0.00000   0.00000   0.00000
 144       18F-1        0.00032   0.01007   0.00371   0.00220
 145       18F+2        0.01797  -0.01529  -0.01414   0.00345
 146       18F-2        0.00000   0.00000   0.00000   0.00000
 147       18F+3        0.00000   0.00000   0.00000   0.00000
 148       18F-3       -0.02800  -0.02938  -0.00535   0.00485
 149       19F 0       -0.04903   0.12561  -0.00348  -0.02853
 150       19F+1        0.00000   0.00000   0.00000   0.00000
 151       19F-1       -0.00207  -0.05131  -0.01980  -0.00190
 152       19F+2       -0.05373   0.12444   0.06756  -0.04269
 153       19F-2        0.00000   0.00000   0.00000   0.00000
 154       19F+3        0.00000   0.00000   0.00000   0.00000
 155       19F-3        0.06964   0.12132   0.02597  -0.03421
 156 4   Br 1S          0.00027   0.00009  -0.00021   0.00023
 157        2S          0.00243  -0.00254   0.00049   0.00089
 158        3S          0.01043  -0.00407  -0.00277   0.00619
 159        4S          0.03232  -0.04197   0.00866   0.01071
 160        5S          0.00594  -0.11651   0.04204  -0.02877
 161        6S          0.35525   2.01020  -0.45820   0.10031
 162        7S         -4.38021  21.54849 -10.52541  -7.43173
 163        8PX         0.00000   0.00000   0.00000   0.00000
 164        8PY         0.00060  -0.00102   0.00005   0.00004
 165        8PZ         0.00002   0.00062  -0.00024  -0.00011
 166        9PX         0.00000   0.00000   0.00000   0.00000
 167        9PY        -0.01851   0.01706  -0.00534  -0.01808
 168        9PZ         0.01440  -0.00580   0.01211   0.01121
 169       10PX         0.00000   0.00000   0.00000   0.00000
 170       10PY        -0.18663   0.14832  -0.06063  -0.20933
 171       10PZ         0.16775  -0.03652   0.12898   0.12613
 172       11PX         0.00000   0.00000   0.00000   0.00000
 173       11PY         0.03043  -0.02802   0.00540   0.02511
 174       11PZ        -0.02123   0.01230  -0.01732  -0.01467
 175       12PX         0.00000   0.00000   0.00000   0.00000
 176       12PY         0.91268  -4.61038   1.74539   0.48205
 177       12PZ        -0.17510   2.71944  -1.59197  -0.61814
 178       13PX         0.00000   0.00000   0.00000   0.00000
 179       13PY         0.79192  -1.73107   2.99055   2.38710
 180       13PZ        -3.04477   3.49771   0.30716  -1.46506
 181       14D 0        0.00103  -0.00012  -0.00144  -0.00058
 182       14D+1        0.00000   0.00000   0.00000   0.00000
 183       14D-1       -0.00202   0.00076  -0.00088  -0.00155
 184       14D+2       -0.00018  -0.00100  -0.00069  -0.00068
 185       14D-2        0.00000   0.00000   0.00000   0.00000
 186       15D 0       -0.01243   0.00348   0.01494   0.00991
 187       15D+1        0.00000   0.00000   0.00000   0.00000
 188       15D-1        0.02781   0.00644   0.00815   0.02309
 189       15D+2       -0.00034   0.02138   0.00649   0.01220
 190       15D-2        0.00000   0.00000   0.00000   0.00000
 191       16D 0        0.06379  -0.01648  -0.05105  -0.06535
 192       16D+1        0.00000   0.00000   0.00000   0.00000
 193       16D-1       -0.17753  -0.15222  -0.02778  -0.20129
 194       16D+2       -0.01544  -0.16801  -0.01967  -0.12795
 195       16D-2        0.00000   0.00000   0.00000   0.00000
 196       17D 0       -0.21974  -0.16176   0.05909   0.04832
 197       17D+1        0.00000   0.00000   0.00000   0.00000
 198       17D-1        0.28968  -1.13003   0.74325   0.40317
 199       17D+2        0.27265  -0.79606   0.48923   0.12070
 200       17D-2        0.00000   0.00000   0.00000   0.00000
 201       18F 0        0.00254   0.02746   0.00929   0.00229
 202       18F+1        0.00000   0.00000   0.00000   0.00000
 203       18F-1       -0.00042   0.01046  -0.00372  -0.00254
 204       18F+2        0.01768   0.01465  -0.01447   0.00287
 205       18F-2        0.00000   0.00000   0.00000   0.00000
 206       18F+3        0.00000   0.00000   0.00000   0.00000
 207       18F-3        0.02777  -0.02997   0.00608  -0.00413
 208       19F 0       -0.05469  -0.12507  -0.00262  -0.02857
 209       19F+1        0.00000   0.00000   0.00000   0.00000
 210       19F-1        0.00217  -0.05309   0.02058   0.00279
 211       19F+2       -0.05706  -0.12344   0.06966  -0.04122
 212       19F-2        0.00000   0.00000   0.00000   0.00000
 213       19F+3        0.00000   0.00000   0.00000   0.00000
 214       19F-3       -0.06656   0.12298  -0.02836   0.03228
          Condensed to atoms (all electrons):
              1          2          3          4
     1  C    6.386766  -0.032918  -0.091586  -0.100000
     2  S   -0.032918  16.459810  -0.189078  -0.190831
     3  Br  -0.091586  -0.189078  35.319526  -0.138534
     4  Br  -0.100000  -0.190831  -0.138534  35.319793
 Mulliken atomic charges:
              1
     1  C   -0.162262
     2  S   -0.046983
     3  Br   0.099673
     4  Br   0.109573
 Sum of Mulliken atomic charges =   0.00000
 Mulliken charges with hydrogens summed into heavy atoms:
              1
     1  C   -0.162262
     2  S   -0.046983
     3  Br   0.099673
     4  Br   0.109573
 Sum of Mulliken charges with hydrogens summed into heavy atoms =   0.00000
 Electronic spatial extent (au):  <R**2>=           1427.7088
 Charge=              0.0000 electrons
 Dipole moment (field-independent basis, Debye):
    X=              0.0000    Y=              0.0286    Z=             -0.4931  Tot=              0.4940
 Quadrupole moment (field-independent basis, Debye-Ang):
   XX=            -54.9426   YY=            -53.8262   ZZ=            -53.7508
   XY=              0.0000   XZ=              0.0000   YZ=             -0.0487
 Traceless Quadrupole moment (field-independent basis, Debye-Ang):
   XX=             -0.7694   YY=              0.3470   ZZ=              0.4224
   XY=              0.0000   XZ=              0.0000   YZ=             -0.0487
 Octapole moment (field-independent basis, Debye-Ang**2):
  XXX=              0.0000  YYY=              0.6255  ZZZ=            141.1213  XYY=              0.0000
  XXY=              0.2242  XXZ=             47.7418  XZZ=              0.0000  YZZ=              0.2970
  YYZ=             35.3491  XYZ=              0.0000
 Hexadecapole moment (field-independent basis, Debye-Ang**3):
 XXXX=            -67.2116 YYYY=           -569.3146 ZZZZ=           -700.1515 XXXY=              0.0000
 XXXZ=              0.0000 YYYX=              0.0000 YYYZ=             -0.9243 ZZZX=              0.0000
 ZZZY=             -1.1670 XXYY=           -112.9262 XXZZ=           -130.4594 YYZZ=           -194.3479
 XXYZ=             -0.3538 YYXZ=              0.0000 ZZXY=              0.0000
 N-N= 5.486467186675D+02 E-N=-1.443849622299D+04  KE= 5.579860416698D+03
 1\1\GINC-TRAPISTA\SP\RQCISD-FC\Aug-CC-pVTZ\C1Br2S1\BRUNS\29-Nov-2021\0
 \\# qcisd/aug-cc-pvtz nosymm density=current output=wfn\\br2cs-wavefun
 ction\\0,1\C,0,0.,0.,-0.519451\S,0,0.,0.,1.083692\Br,0,0.,-1.568516,-1
 .57857\Br,0,0.,1.558516,-1.57857\\Version=EM64L-G09RevB.01\HF=-5580.30
 86808\MP2=-5581.1188025\MP3=-5581.13097\MP4D=-5581.1549124\MP4DQ=-5581
 .1314644\MP4SDQ=-5581.141115\QCISD=-5581.1375623\RMSD=3.041e-09\Dipole
 =0.,0.0112362,-0.19402\Quadrupole=-0.572053,0.257997,0.3140559,0.,0.,-
 0.0362214\PG=CS [SG(C1Br2S1)]\\@

 Writing a WFN file to GAUSSIAN.wfn.


 A leading authority is anyone who has guessed right more than once.
 -- Frank A. Clark
 Job cpu time:  0 days  5 hours 54 minutes 48.3 seconds.
 File lengths (MBytes):  RWF=  25271 Int=      0 D2E=      0 Chk=      4 Scr=      1
 Normal termination of Gaussian 09 at Mon Nov 29 18:15:33 2021.
