 br2cs-wavefunction
GAUSSIAN            214 MOL ORBITALS    620 PRIMITIVES        4 NUCLEI
  C    1    (CENTRE  1)   0.00000000  0.01889726 -0.98162013  CHARGE =  6.0
  S    2    (CENTRE  2)   0.00000000  0.00000000  2.04788109  CHARGE = 16.0
  Br   3    (CENTRE  3)   0.00000000 -2.96406568 -2.98306498  CHARGE = 35.0
  Br   4    (CENTRE  4)   0.00000000  2.96406568 -2.98306498  CHARGE = 35.0
CENTRE ASSIGNMENTS    1  1  1  1  1  1  1  1  1  1  1  1  1  1  1  1  1  1  1  1
CENTRE ASSIGNMENTS    1  1  1  1  1  1  1  1  1  1  1  1  1  1  1  1  1  1  1  1
CENTRE ASSIGNMENTS    1  1  1  1  1  1  1  1  1  1  1  1  1  1  1  1  1  1  1  1
CENTRE ASSIGNMENTS    1  1  1  1  1  1  1  1  1  1  1  1  2  2  2  2  2  2  2  2
CENTRE ASSIGNMENTS    2  2  2  2  2  2  2  2  2  2  2  2  2  2  2  2  2  2  2  2
CENTRE ASSIGNMENTS    2  2  2  2  2  2  2  2  2  2  2  2  2  2  2  2  2  2  2  2
CENTRE ASSIGNMENTS    2  2  2  2  2  2  2  2  2  2  2  2  2  2  2  2  2  2  2  2
CENTRE ASSIGNMENTS    2  2  2  2  2  2  2  2  2  2  2  2  2  2  2  2  2  2  2  2
CENTRE ASSIGNMENTS    2  2  2  2  2  2  2  2  2  2  2  2  2  2  2  2  2  2  2  2
CENTRE ASSIGNMENTS    2  2  2  2  2  2  3  3  3  3  3  3  3  3  3  3  3  3  3  3
CENTRE ASSIGNMENTS    3  3  3  3  3  3  3  3  3  3  3  3  3  3  3  3  3  3  3  3
CENTRE ASSIGNMENTS    3  3  3  3  3  3  3  3  3  3  3  3  3  3  3  3  3  3  3  3
CENTRE ASSIGNMENTS    3  3  3  3  3  3  3  3  3  3  3  3  3  3  3  3  3  3  3  3
CENTRE ASSIGNMENTS    3  3  3  3  3  3  3  3  3  3  3  3  3  3  3  3  3  3  3  3
CENTRE ASSIGNMENTS    3  3  3  3  3  3  3  3  3  3  3  3  3  3  3  3  3  3  3  3
CENTRE ASSIGNMENTS    3  3  3  3  3  3  3  3  3  3  3  3  3  3  3  3  3  3  3  3
CENTRE ASSIGNMENTS    3  3  3  3  3  3  3  3  3  3  3  3  3  3  3  3  3  3  3  3
CENTRE ASSIGNMENTS    3  3  3  3  3  3  3  3  3  3  3  3  3  3  3  3  3  3  3  3
CENTRE ASSIGNMENTS    3  3  3  3  3  3  3  3  3  3  3  3  3  3  3  3  3  3  3  3
CENTRE ASSIGNMENTS    3  3  3  3  3  3  3  3  3  3  3  3  3  3  3  3  3  3  3  3
CENTRE ASSIGNMENTS    3  3  3  4  4  4  4  4  4  4  4  4  4  4  4  4  4  4  4  4
CENTRE ASSIGNMENTS    4  4  4  4  4  4  4  4  4  4  4  4  4  4  4  4  4  4  4  4
CENTRE ASSIGNMENTS    4  4  4  4  4  4  4  4  4  4  4  4  4  4  4  4  4  4  4  4
CENTRE ASSIGNMENTS    4  4  4  4  4  4  4  4  4  4  4  4  4  4  4  4  4  4  4  4
CENTRE ASSIGNMENTS    4  4  4  4  4  4  4  4  4  4  4  4  4  4  4  4  4  4  4  4
CENTRE ASSIGNMENTS    4  4  4  4  4  4  4  4  4  4  4  4  4  4  4  4  4  4  4  4
CENTRE ASSIGNMENTS    4  4  4  4  4  4  4  4  4  4  4  4  4  4  4  4  4  4  4  4
CENTRE ASSIGNMENTS    4  4  4  4  4  4  4  4  4  4  4  4  4  4  4  4  4  4  4  4
CENTRE ASSIGNMENTS    4  4  4  4  4  4  4  4  4  4  4  4  4  4  4  4  4  4  4  4
CENTRE ASSIGNMENTS    4  4  4  4  4  4  4  4  4  4  4  4  4  4  4  4  4  4  4  4
CENTRE ASSIGNMENTS    4  4  4  4  4  4  4  4  4  4  4  4  4  4  4  4  4  4  4  4
TYPE ASSIGNMENTS      1  1  1  1  1  1  1  1  1  1  1  1  1  1  1  1  2  2  2  3
TYPE ASSIGNMENTS      3  3  4  4  4  2  3  4  2  3  4  2  3  4  5  6  7  8  9 10
TYPE ASSIGNMENTS      5  6  7  8  9 10  5  6  7  8  9 10 11 12 13 17 14 15 18 19
TYPE ASSIGNMENTS     16 20 11 12 13 17 14 15 18 19 16 20  1  1  1  1  1  1  1  1
TYPE ASSIGNMENTS      1  1  1  1  1  1  1  1  1  1  1  1  1  1  1  1  1  1  1  1
TYPE ASSIGNMENTS      1  1  1  2  2  2  2  2  2  3  3  3  3  3  3  4  4  4  4  4
TYPE ASSIGNMENTS      4  2  2  2  2  2  2  3  3  3  3  3  3  4  4  4  4  4  4  2
TYPE ASSIGNMENTS      3  4  2  3  4  2  3  4  5  6  7  8  9 10  5  6  7  8  9 10
TYPE ASSIGNMENTS      5  6  7  8  9 10 11 12 13 17 14 15 18 19 16 20 11 12 13 17
TYPE ASSIGNMENTS     14 15 18 19 16 20  1  1  1  1  1  1  1  1  1  1  1  1  1  1
TYPE ASSIGNMENTS      1  1  1  1  1  1  1  1  1  1  1  1  1  1  1  1  1  1  1  1
TYPE ASSIGNMENTS      1  1  1  1  1  1  1  1  1  1  1  1  1  1  1  1  2  2  2  2
TYPE ASSIGNMENTS      2  2  2  2  2  3  3  3  3  3  3  3  3  3  4  4  4  4  4  4
TYPE ASSIGNMENTS      4  4  4  2  2  2  2  2  2  2  2  2  3  3  3  3  3  3  3  3
TYPE ASSIGNMENTS      3  4  4  4  4  4  4  4  4  4  2  2  2  2  2  2  2  2  3  3
TYPE ASSIGNMENTS      3  3  3  3  3  3  4  4  4  4  4  4  4  4  2  3  4  2  3  4
TYPE ASSIGNMENTS      2  3  4  5  5  5  5  5  5  5  6  6  6  6  6  6  6  7  7  7
TYPE ASSIGNMENTS      7  7  7  7  8  8  8  8  8  8  8  9  9  9  9  9  9  9 10 10
TYPE ASSIGNMENTS     10 10 10 10 10  5  6  7  8  9 10  5  6  7  8  9 10  5  6  7
TYPE ASSIGNMENTS      8  9 10 11 12 13 17 14 15 18 19 16 20 11 12 13 17 14 15 18
TYPE ASSIGNMENTS     19 16 20  1  1  1  1  1  1  1  1  1  1  1  1  1  1  1  1  1
TYPE ASSIGNMENTS      1  1  1  1  1  1  1  1  1  1  1  1  1  1  1  1  1  1  1  1
TYPE ASSIGNMENTS      1  1  1  1  1  1  1  1  1  1  1  1  1  2  2  2  2  2  2  2
TYPE ASSIGNMENTS      2  2  3  3  3  3  3  3  3  3  3  4  4  4  4  4  4  4  4  4
TYPE ASSIGNMENTS      2  2  2  2  2  2  2  2  2  3  3  3  3  3  3  3  3  3  4  4
TYPE ASSIGNMENTS      4  4  4  4  4  4  4  2  2  2  2  2  2  2  2  3  3  3  3  3
TYPE ASSIGNMENTS      3  3  3  4  4  4  4  4  4  4  4  2  3  4  2  3  4  2  3  4
TYPE ASSIGNMENTS      5  5  5  5  5  5  5  6  6  6  6  6  6  6  7  7  7  7  7  7
TYPE ASSIGNMENTS      7  8  8  8  8  8  8  8  9  9  9  9  9  9  9 10 10 10 10 10
TYPE ASSIGNMENTS     10 10  5  6  7  8  9 10  5  6  7  8  9 10  5  6  7  8  9 10
TYPE ASSIGNMENTS     11 12 13 17 14 15 18 19 16 20 11 12 13 17 14 15 18 19 16 20
EXPONENTS  0.8236000D+04 0.1235000D+04 0.2808000D+03 0.7927000D+02 0.2559000D+02
EXPONENTS  0.8997000D+01 0.3319000D+01 0.2808000D+03 0.7927000D+02 0.2559000D+02
EXPONENTS  0.8997000D+01 0.3319000D+01 0.3643000D+00 0.9059000D+00 0.1285000D+00
EXPONENTS  0.4402000D-01 0.1871000D+02 0.4133000D+01 0.1200000D+01 0.1871000D+02
EXPONENTS  0.4133000D+01 0.1200000D+01 0.1871000D+02 0.4133000D+01 0.1200000D+01
EXPONENTS  0.3827000D+00 0.3827000D+00 0.3827000D+00 0.1209000D+00 0.1209000D+00
EXPONENTS  0.1209000D+00 0.3569000D-01 0.3569000D-01 0.3569000D-01 0.1097000D+01
EXPONENTS  0.1097000D+01 0.1097000D+01 0.1097000D+01 0.1097000D+01 0.1097000D+01
EXPONENTS  0.3180000D+00 0.3180000D+00 0.3180000D+00 0.3180000D+00 0.3180000D+00
EXPONENTS  0.3180000D+00 0.1000000D+00 0.1000000D+00 0.1000000D+00 0.1000000D+00
EXPONENTS  0.1000000D+00 0.1000000D+00 0.7610000D+00 0.7610000D+00 0.7610000D+00
EXPONENTS  0.7610000D+00 0.7610000D+00 0.7610000D+00 0.7610000D+00 0.7610000D+00
EXPONENTS  0.7610000D+00 0.7610000D+00 0.2680000D+00 0.2680000D+00 0.2680000D+00
EXPONENTS  0.2680000D+00 0.2680000D+00 0.2680000D+00 0.2680000D+00 0.2680000D+00
EXPONENTS  0.2680000D+00 0.2680000D+00 0.3741000D+06 0.5605000D+05 0.1276000D+05
EXPONENTS  0.3615000D+04 0.1183000D+04 0.4288000D+03 0.1678000D+03 0.6947000D+02
EXPONENTS  0.2984000D+02 0.1272000D+02 0.5244000D+01 0.3615000D+04 0.1183000D+04
EXPONENTS  0.4288000D+03 0.1678000D+03 0.6947000D+02 0.2984000D+02 0.1272000D+02
EXPONENTS  0.5244000D+01 0.2219000D+01 0.1183000D+04 0.1678000D+03 0.6947000D+02
EXPONENTS  0.2984000D+02 0.1272000D+02 0.5244000D+01 0.2219000D+01 0.3490000D+00
EXPONENTS  0.7767000D+00 0.1322000D+00 0.4970000D-01 0.5744000D+03 0.1358000D+03
EXPONENTS  0.4319000D+02 0.1587000D+02 0.6208000D+01 0.2483000D+01 0.5744000D+03
EXPONENTS  0.1358000D+03 0.4319000D+02 0.1587000D+02 0.6208000D+01 0.2483000D+01
EXPONENTS  0.5744000D+03 0.1358000D+03 0.4319000D+02 0.1587000D+02 0.6208000D+01
EXPONENTS  0.2483000D+01 0.1358000D+03 0.4319000D+02 0.1587000D+02 0.6208000D+01
EXPONENTS  0.2483000D+01 0.3229000D+00 0.1358000D+03 0.4319000D+02 0.1587000D+02
EXPONENTS  0.6208000D+01 0.2483000D+01 0.3229000D+00 0.1358000D+03 0.4319000D+02
EXPONENTS  0.1587000D+02 0.6208000D+01 0.2483000D+01 0.3229000D+00 0.8688000D+00
EXPONENTS  0.8688000D+00 0.8688000D+00 0.1098000D+00 0.1098000D+00 0.1098000D+00
EXPONENTS  0.3510000D-01 0.3510000D-01 0.3510000D-01 0.2690000D+00 0.2690000D+00
EXPONENTS  0.2690000D+00 0.2690000D+00 0.2690000D+00 0.2690000D+00 0.8190000D+00
EXPONENTS  0.8190000D+00 0.8190000D+00 0.8190000D+00 0.8190000D+00 0.8190000D+00
EXPONENTS  0.1010000D+00 0.1010000D+00 0.1010000D+00 0.1010000D+00 0.1010000D+00
EXPONENTS  0.1010000D+00 0.5570000D+00 0.5570000D+00 0.5570000D+00 0.5570000D+00
EXPONENTS  0.5570000D+00 0.5570000D+00 0.5570000D+00 0.5570000D+00 0.5570000D+00
EXPONENTS  0.5570000D+00 0.2180000D+00 0.2180000D+00 0.2180000D+00 0.2180000D+00
EXPONENTS  0.2180000D+00 0.2180000D+00 0.2180000D+00 0.2180000D+00 0.2180000D+00
EXPONENTS  0.2180000D+00 0.1063900D+08 0.1593400D+07 0.3626100D+06 0.1027000D+06
EXPONENTS  0.3350100D+05 0.1209300D+05 0.4715900D+04 0.1955600D+04 0.8526100D+03
EXPONENTS  0.3876700D+03 0.1826800D+03 0.8824500D+02 0.3926300D+02 0.9405700D+01
EXPONENTS  0.1899500D+01 0.3350100D+05 0.1209300D+05 0.4715900D+04 0.1955600D+04
EXPONENTS  0.8526100D+03 0.3876700D+03 0.1826800D+03 0.8824500D+02 0.3926300D+02
EXPONENTS  0.1923400D+02 0.9405700D+01 0.1899500D+01 0.4715900D+04 0.8526100D+03
EXPONENTS  0.3876700D+03 0.1826800D+03 0.8824500D+02 0.3926300D+02 0.1923400D+02
EXPONENTS  0.9405700D+01 0.4160100D+01 0.1899500D+01 0.4715900D+04 0.8526100D+03
EXPONENTS  0.3876700D+03 0.8824500D+02 0.3926300D+02 0.1923400D+02 0.9405700D+01
EXPONENTS  0.4160100D+01 0.1899500D+01 0.3011400D+00 0.6047200D+00 0.1251500D+00
EXPONENTS  0.4559300D-01 0.8676500D+04 0.2055900D+04 0.6662300D+03 0.2531000D+03
EXPONENTS  0.1061200D+03 0.4724200D+02 0.2182500D+02 0.9968400D+01 0.1998200D+01
EXPONENTS  0.8676500D+04 0.2055900D+04 0.6662300D+03 0.2531000D+03 0.1061200D+03
EXPONENTS  0.4724200D+02 0.2182500D+02 0.9968400D+01 0.1998200D+01 0.8676500D+04
EXPONENTS  0.2055900D+04 0.6662300D+03 0.2531000D+03 0.1061200D+03 0.4724200D+02
EXPONENTS  0.2182500D+02 0.9968400D+01 0.1998200D+01 0.8676500D+04 0.6662300D+03
EXPONENTS  0.2531000D+03 0.1061200D+03 0.4724200D+02 0.2182500D+02 0.9968400D+01
EXPONENTS  0.4517100D+01 0.1998200D+01 0.8676500D+04 0.6662300D+03 0.2531000D+03
EXPONENTS  0.1061200D+03 0.4724200D+02 0.2182500D+02 0.9968400D+01 0.4517100D+01
EXPONENTS  0.1998200D+01 0.8676500D+04 0.6662300D+03 0.2531000D+03 0.1061200D+03
EXPONENTS  0.4724200D+02 0.2182500D+02 0.9968400D+01 0.4517100D+01 0.1998200D+01
EXPONENTS  0.6662300D+03 0.1061200D+03 0.4724200D+02 0.2182500D+02 0.9968400D+01
EXPONENTS  0.4517100D+01 0.1998200D+01 0.2814500D+00 0.6662300D+03 0.1061200D+03
EXPONENTS  0.4724200D+02 0.2182500D+02 0.9968400D+01 0.4517100D+01 0.1998200D+01
EXPONENTS  0.2814500D+00 0.6662300D+03 0.1061200D+03 0.4724200D+02 0.2182500D+02
EXPONENTS  0.9968400D+01 0.4517100D+01 0.1998200D+01 0.2814500D+00 0.7098800D+00
EXPONENTS  0.7098800D+00 0.7098800D+00 0.1020400D+00 0.1020400D+00 0.1020400D+00
EXPONENTS  0.3514200D-01 0.3514200D-01 0.3514200D-01 0.4038300D+03 0.1211700D+03
EXPONENTS  0.4634500D+02 0.1972100D+02 0.8862400D+01 0.3996200D+01 0.1763600D+01
EXPONENTS  0.4038300D+03 0.1211700D+03 0.4634500D+02 0.1972100D+02 0.8862400D+01
EXPONENTS  0.3996200D+01 0.1763600D+01 0.4038300D+03 0.1211700D+03 0.4634500D+02
EXPONENTS  0.1972100D+02 0.8862400D+01 0.3996200D+01 0.1763600D+01 0.4038300D+03
EXPONENTS  0.1211700D+03 0.4634500D+02 0.1972100D+02 0.8862400D+01 0.3996200D+01
EXPONENTS  0.1763600D+01 0.4038300D+03 0.1211700D+03 0.4634500D+02 0.1972100D+02
EXPONENTS  0.8862400D+01 0.3996200D+01 0.1763600D+01 0.4038300D+03 0.1211700D+03
EXPONENTS  0.4634500D+02 0.1972100D+02 0.8862400D+01 0.3996200D+01 0.1763600D+01
EXPONENTS  0.7061900D+00 0.7061900D+00 0.7061900D+00 0.7061900D+00 0.7061900D+00
EXPONENTS  0.7061900D+00 0.2639000D+00 0.2639000D+00 0.2639000D+00 0.2639000D+00
EXPONENTS  0.2639000D+00 0.2639000D+00 0.1047000D+00 0.1047000D+00 0.1047000D+00
EXPONENTS  0.1047000D+00 0.1047000D+00 0.1047000D+00 0.5515000D+00 0.5515000D+00
EXPONENTS  0.5515000D+00 0.5515000D+00 0.5515000D+00 0.5515000D+00 0.5515000D+00
EXPONENTS  0.5515000D+00 0.5515000D+00 0.5515000D+00 0.2580000D+00 0.2580000D+00
EXPONENTS  0.2580000D+00 0.2580000D+00 0.2580000D+00 0.2580000D+00 0.2580000D+00
EXPONENTS  0.2580000D+00 0.2580000D+00 0.2580000D+00 0.1063900D+08 0.1593400D+07
EXPONENTS  0.3626100D+06 0.1027000D+06 0.3350100D+05 0.1209300D+05 0.4715900D+04
EXPONENTS  0.1955600D+04 0.8526100D+03 0.3876700D+03 0.1826800D+03 0.8824500D+02
EXPONENTS  0.3926300D+02 0.9405700D+01 0.1899500D+01 0.3350100D+05 0.1209300D+05
EXPONENTS  0.4715900D+04 0.1955600D+04 0.8526100D+03 0.3876700D+03 0.1826800D+03
EXPONENTS  0.8824500D+02 0.3926300D+02 0.1923400D+02 0.9405700D+01 0.1899500D+01
EXPONENTS  0.4715900D+04 0.8526100D+03 0.3876700D+03 0.1826800D+03 0.8824500D+02
EXPONENTS  0.3926300D+02 0.1923400D+02 0.9405700D+01 0.4160100D+01 0.1899500D+01
EXPONENTS  0.4715900D+04 0.8526100D+03 0.3876700D+03 0.8824500D+02 0.3926300D+02
EXPONENTS  0.1923400D+02 0.9405700D+01 0.4160100D+01 0.1899500D+01 0.3011400D+00
EXPONENTS  0.6047200D+00 0.1251500D+00 0.4559300D-01 0.8676500D+04 0.2055900D+04
EXPONENTS  0.6662300D+03 0.2531000D+03 0.1061200D+03 0.4724200D+02 0.2182500D+02
EXPONENTS  0.9968400D+01 0.1998200D+01 0.8676500D+04 0.2055900D+04 0.6662300D+03
EXPONENTS  0.2531000D+03 0.1061200D+03 0.4724200D+02 0.2182500D+02 0.9968400D+01
EXPONENTS  0.1998200D+01 0.8676500D+04 0.2055900D+04 0.6662300D+03 0.2531000D+03
EXPONENTS  0.1061200D+03 0.4724200D+02 0.2182500D+02 0.9968400D+01 0.1998200D+01
EXPONENTS  0.8676500D+04 0.6662300D+03 0.2531000D+03 0.1061200D+03 0.4724200D+02
EXPONENTS  0.2182500D+02 0.9968400D+01 0.4517100D+01 0.1998200D+01 0.8676500D+04
EXPONENTS  0.6662300D+03 0.2531000D+03 0.1061200D+03 0.4724200D+02 0.2182500D+02
EXPONENTS  0.9968400D+01 0.4517100D+01 0.1998200D+01 0.8676500D+04 0.6662300D+03
EXPONENTS  0.2531000D+03 0.1061200D+03 0.4724200D+02 0.2182500D+02 0.9968400D+01
EXPONENTS  0.4517100D+01 0.1998200D+01 0.6662300D+03 0.1061200D+03 0.4724200D+02
EXPONENTS  0.2182500D+02 0.9968400D+01 0.4517100D+01 0.1998200D+01 0.2814500D+00
EXPONENTS  0.6662300D+03 0.1061200D+03 0.4724200D+02 0.2182500D+02 0.9968400D+01
EXPONENTS  0.4517100D+01 0.1998200D+01 0.2814500D+00 0.6662300D+03 0.1061200D+03
EXPONENTS  0.4724200D+02 0.2182500D+02 0.9968400D+01 0.4517100D+01 0.1998200D+01
EXPONENTS  0.2814500D+00 0.7098800D+00 0.7098800D+00 0.7098800D+00 0.1020400D+00
EXPONENTS  0.1020400D+00 0.1020400D+00 0.3514200D-01 0.3514200D-01 0.3514200D-01
EXPONENTS  0.4038300D+03 0.1211700D+03 0.4634500D+02 0.1972100D+02 0.8862400D+01
EXPONENTS  0.3996200D+01 0.1763600D+01 0.4038300D+03 0.1211700D+03 0.4634500D+02
EXPONENTS  0.1972100D+02 0.8862400D+01 0.3996200D+01 0.1763600D+01 0.4038300D+03
EXPONENTS  0.1211700D+03 0.4634500D+02 0.1972100D+02 0.8862400D+01 0.3996200D+01
EXPONENTS  0.1763600D+01 0.4038300D+03 0.1211700D+03 0.4634500D+02 0.1972100D+02
EXPONENTS  0.8862400D+01 0.3996200D+01 0.1763600D+01 0.4038300D+03 0.1211700D+03
EXPONENTS  0.4634500D+02 0.1972100D+02 0.8862400D+01 0.3996200D+01 0.1763600D+01
EXPONENTS  0.4038300D+03 0.1211700D+03 0.4634500D+02 0.1972100D+02 0.8862400D+01
EXPONENTS  0.3996200D+01 0.1763600D+01 0.7061900D+00 0.7061900D+00 0.7061900D+00
EXPONENTS  0.7061900D+00 0.7061900D+00 0.7061900D+00 0.2639000D+00 0.2639000D+00
EXPONENTS  0.2639000D+00 0.2639000D+00 0.2639000D+00 0.2639000D+00 0.1047000D+00
EXPONENTS  0.1047000D+00 0.1047000D+00 0.1047000D+00 0.1047000D+00 0.1047000D+00
EXPONENTS  0.5515000D+00 0.5515000D+00 0.5515000D+00 0.5515000D+00 0.5515000D+00
EXPONENTS  0.5515000D+00 0.5515000D+00 0.5515000D+00 0.5515000D+00 0.5515000D+00
EXPONENTS  0.2580000D+00 0.2580000D+00 0.2580000D+00 0.2580000D+00 0.2580000D+00
EXPONENTS  0.2580000D+00 0.2580000D+00 0.2580000D+00 0.2580000D+00 0.2580000D+00
MO    1     MO 0.0        OCC NO =    2.0000283  ORB. ENERGY =    0.000000
 -0.34000260D-04 -0.63383334D-04 -0.10712647D-03 -0.16103106D-03 -0.19779782D-03
 -0.16693438D-03 -0.62771687D-04 -0.63780530D-07 -0.47671995D-06 -0.17816113D-05
 -0.49704181D-05 -0.66589899D-05  0.78630254D-05  0.11557098D-05  0.28825306D-04
  0.77077645D-05 -0.27318488D-12 -0.25612819D-12 -0.18237853D-12 -0.26167447D-02
 -0.24533645D-02 -0.17469417D-02 -0.45635597D-04 -0.42786273D-04 -0.30466375D-04
 -0.39762287D-13 -0.55118701D-03 -0.62510927D-06 -0.84707850D-14  0.12872948D-02
 -0.24729095D-04 -0.28467161D-14  0.80490373D-04 -0.12793179D-05 -0.29611974D-06
  0.67737467D-05 -0.64776270D-05  0.13539779D-14 -0.55783057D-13 -0.11881882D-02
 -0.10904171D-05 -0.42832883D-05  0.53737054D-05 -0.75109806D-14  0.23911509D-13
  0.15760290D-05 -0.11213482D-06 -0.31547572D-06  0.42761054D-06  0.27217546D-15
 -0.14008394D-13 -0.32126471D-03  0.91412256D-14  0.11225639D-03 -0.19787524D-05
 -0.19789031D-14  0.27517325D-03 -0.31823121D-05 -0.25444774D-13 -0.61194243D-03
  0.91185694D-05 -0.26214340D-14 -0.44061515D-14 -0.68567515D-04  0.72157518D-06
 -0.10575301D-14 -0.13798630D-03  0.18628616D-05  0.14275984D-13  0.34368885D-03
 -0.40275871D-05  0.25122480D-14  0.90235644D-03  0.16870462D-02  0.29157173D-02
  0.47160526D-02  0.71281557D-02  0.98169463D-02  0.11474815D-01  0.99173108D-02
  0.46284606D-02  0.62705485D-03 -0.45863695D-05  0.11264286D-04  0.14480127D-03
  0.52821420D-03  0.17821816D-02  0.39144705D-02  0.50564282D-02 -0.81261104D-03
 -0.68168407D-02 -0.37409943D-02  0.91420716D-07  0.10413388D-05  0.21621947D-05
  0.59454863D-05 -0.77090058D-06 -0.26882782D-04 -0.67049927D-04  0.55502958D-04
 -0.20376459D-03  0.17266835D-04  0.56433485D-05  0.87142351D-09  0.11432581D-08
  0.12539067D-08  0.10316767D-08  0.54384127D-09  0.14149727D-09  0.97042893D+01
  0.12731476D+02  0.13963674D+02  0.11488890D+02  0.60562895D+01  0.15757326D+01
  0.31779027D-01  0.41692276D-01  0.45727404D-01  0.37623131D-01  0.19832775D-01
  0.51601151D-02  0.48244351D-14  0.17317614D-12  0.27474829D-12  0.32625517D-12
  0.49371006D-13 -0.35931293D-12  0.88543686D-04  0.31783315D-02  0.50425026D-02
  0.59878171D-02  0.90611456D-03 -0.65945320D-02  0.31555742D-06  0.11327133D-04
  0.17970780D-04  0.21339750D-04  0.32292667D-05 -0.23501998D-04  0.66508123D-11
  0.67294874D-01  0.21172148D-03  0.28291808D-13 -0.32088701D-03 -0.64255409D-05
 -0.35563901D-16 -0.28023984D-04 -0.14282560D-06  0.11351330D-05 -0.35025261D-05
  0.23673931D-05 -0.14154558D-14  0.41836618D-13  0.76800796D-03 -0.60893127D-06
  0.64625537D-05 -0.58536225D-05  0.14887526D-14 -0.28264583D-13 -0.72854738D-03
 -0.12513817D-06  0.12767187D-06 -0.25336976D-08  0.14511276D-15 -0.83041630D-14
 -0.41372634D-04  0.92502260D-14  0.35498400D-05 -0.27888680D-06 -0.50417569D-14
  0.13850903D-03  0.49243390D-06 -0.22708921D-13 -0.14915855D-03  0.34422651D-06
  0.20775736D-14 -0.31310066D-15  0.31998264D-04 -0.22042445D-06  0.15041341D-14
  0.28371756D-05 -0.53576605D-06 -0.56483211D-15 -0.98831969D-04  0.11970394D-05
  0.54325988D-16  0.43537579D-03  0.81900743D-03  0.14177437D-02  0.23239541D-02
  0.36405096D-02  0.54719821D-02  0.78207488D-02  0.10382027D-01  0.12090621D-01
  0.11103836D-01  0.64909213D-02  0.17031799D-02  0.96835238D-04  0.16896708D-05
  0.17008459D-06  0.21740252D-04  0.62802577D-04  0.28783897D-03  0.85206603D-03
  0.24710163D-02  0.51362356D-02  0.73474460D-02  0.21067474D-02 -0.84188450D-02
 -0.81402086D-02 -0.17767249D-02  0.25717556D-04  0.14091977D-04  0.65741987D-04
  0.13341849D-03  0.52289025D-03  0.36692447D-03 -0.23895510D-02 -0.74043982D-02
 -0.90572372D-03  0.64725678D-02  0.30375758D-02 -0.97912537D-06 -0.13423032D-05
  0.25735199D-05  0.54695759D-05 -0.20676528D-04 -0.66862637D-04 -0.23253808D-04
  0.22744757D-03  0.50732599D-03 -0.33664609D-03 -0.41149130D-04  0.15194151D-02
  0.47286927D-03 -0.17266419D-08 -0.24774735D-08 -0.32804038D-08 -0.37882954D-08
 -0.35124642D-08 -0.22746247D-08 -0.80262227D-09 -0.92481235D-10  0.15108593D-12
  0.11963895D+01  0.17166403D+01  0.22729904D+01  0.26249082D+01  0.24337850D+01
  0.15760865D+01  0.55613662D+00  0.64080208D-01 -0.10468737D-03  0.10306950D+01
  0.14788935D+01  0.19581916D+01  0.22613705D+01  0.20967169D+01  0.13578057D+01
  0.47911425D+00  0.55205393D-01 -0.90188653D-04  0.34268998D-11 -0.97707019D-11
 -0.47692053D-10 -0.98827002D-10 -0.12401813D-09 -0.19667045D-10  0.15919809D-09
  0.13884381D-09  0.35691868D-10 -0.72663402D-02  0.20717631D-01  0.10112542D+00
  0.20955110D+00  0.26296594D+00  0.41701669D-01 -0.33756092D+00 -0.29440206D+00
 -0.75680432D-01 -0.63703207D-02  0.18162919D-01  0.88655545D-01  0.18371115D+00
  0.23053936D+00  0.36559396D-01 -0.29593595D+00 -0.25809906D+00 -0.66348204D-01
 -0.12299191D-13 -0.17375545D-13  0.80847503D-14 -0.16201916D-13 -0.17786077D-13
 -0.48010197D-13 -0.15129282D-13  0.32482889D-13 -0.68976851D-04 -0.97446279D-04
  0.45341244D-04 -0.90864282D-04 -0.99748643D-04 -0.26925285D-03 -0.84848688D-04
  0.18217194D-03  0.58676439D-04  0.82894487D-04 -0.38570372D-04  0.77295389D-04
  0.84853036D-04  0.22904494D-03  0.72178112D-04 -0.15496794D-03  0.12378877D-11
 -0.31419244D-02 -0.28761579D-02  0.57321891D-14  0.38031978D-03  0.16395088D-03
  0.75610514D-15  0.14651920D-04  0.12240558D-04  0.14197278D+00  0.14855922D+00
  0.12658041D+00  0.83362768D-01  0.38419418D-01  0.11504757D-01  0.19574368D-02
 -0.14496259D+00 -0.15168773D+00 -0.12924606D+00 -0.85118303D-01 -0.39228492D-01
 -0.11747035D-01 -0.19986585D-02  0.29898024D-02  0.31285061D-02  0.26656546D-02
  0.17555351D-02  0.80907386D-03  0.24227848D-03  0.41221629D-04  0.14744363D-09
  0.15428387D-09  0.13145812D-09  0.86575109D-10  0.39899890D-10  0.11948087D-10
  0.20328656D-11  0.49734795D-10  0.52042104D-10  0.44342658D-10  0.29202993D-10
  0.13458790D-10  0.40302564D-11  0.68571396D-12 -0.46192856D+00 -0.48335847D+00
 -0.41184729D+00 -0.27123257D+00 -0.12500302D+00 -0.37432356D-01 -0.63687980D-02
  0.60448715D-04 -0.11421534D-03  0.53766620D-04  0.13088824D-12  0.38256481D-13
 -0.33729627D-03 -0.55332753D-04  0.56857513D-04 -0.15247601D-05 -0.10656388D-13
 -0.31460198D-14  0.94486543D-04 -0.15788271D-04  0.18650900D-04 -0.28626295D-05
 -0.33039993D-14 -0.88829474D-15  0.63603894D-04 -0.40124371D-14  0.27816390D-04
  0.31597869D-04  0.14142498D-13 -0.53218885D-04 -0.40487076D-04 -0.21051865D-14
 -0.30230283D-04 -0.54306532D-04  0.14512825D-13  0.17393707D-14 -0.16740118D-05
 -0.12210020D-05 -0.58788531D-14  0.12200061D-04  0.20558822D-05  0.66074117D-15
 -0.71780257D-05  0.16071237D-05 -0.35270491D-14 -0.30040031D-03 -0.56509822D-03
 -0.97821388D-03 -0.16034804D-02 -0.25118765D-02 -0.37755547D-02 -0.53961552D-02
 -0.71633843D-02 -0.83422786D-02 -0.76614178D-02 -0.44786017D-02 -0.11751590D-02
 -0.66814315D-04 -0.11658380D-05 -0.11735485D-06 -0.15294046D-04 -0.44180973D-04
 -0.20249178D-03 -0.59941977D-03 -0.17383348D-02 -0.36132894D-02 -0.51688534D-02
 -0.14820754D-02  0.59225716D-02  0.57265538D-02  0.12499079D-02 -0.18092039D-04
 -0.10222514D-04 -0.47690144D-04 -0.96783609D-04 -0.37931179D-03 -0.26617207D-03
  0.17334133D-02  0.53712526D-02  0.65702447D-03 -0.46952899D-02 -0.22034994D-02
  0.94891228D-06  0.13008834D-05 -0.24941082D-05 -0.53008000D-05  0.20038507D-04
  0.64799442D-04  0.22536260D-04 -0.22042917D-03 -0.49167132D-03  0.32625813D-03
  0.72652823D-04 -0.15585427D-02 -0.48466173D-03  0.65545544D-09  0.94048072D-09
  0.12452834D-08  0.14380856D-08  0.13333765D-08  0.86347673D-09  0.30468571D-09
  0.35107064D-10 -0.57354156D-13  0.11907326D+01  0.17085235D+01  0.22622430D+01
  0.26124969D+01  0.24222773D+01  0.15686343D+01  0.55350705D+00  0.63777218D-01
 -0.10419238D-03 -0.10499859D+01 -0.15065731D+01 -0.19948420D+01 -0.23036953D+01
 -0.21359599D+01 -0.13832190D+01 -0.48808156D+00 -0.56238640D-01  0.91876661D-04
 -0.14983125D-14  0.42719559D-14  0.20851966D-13  0.43209239D-13  0.54223329D-13
  0.85988448D-14 -0.69604743D-13 -0.60705428D-13 -0.15605234D-13 -0.72154496D-02
  0.20572532D-01  0.10041718D+00  0.20808348D+00  0.26112423D+00  0.41409607D-01
 -0.33519678D+00 -0.29234019D+00 -0.75150396D-01  0.64865355D-02 -0.18494268D-01
 -0.90272903D-01 -0.18706262D+00 -0.23474512D+00 -0.37226355D-01  0.30133476D+00
  0.26280760D+00  0.67558605D-01 -0.99164338D-14 -0.14009332D-13  0.65184688D-14
 -0.13063073D-13 -0.14340330D-13 -0.38709046D-13 -0.12198243D-13  0.26189887D-13
 -0.77927865D-04 -0.11009172D-03  0.51225104D-04 -0.10265559D-03 -0.11269286D-03
 -0.30419336D-03 -0.95859364D-04  0.20581209D-03 -0.57327867D-04 -0.80989307D-04
  0.37683902D-04 -0.75518894D-04 -0.82902843D-04 -0.22378076D-03 -0.70519229D-04
  0.15140628D-03  0.21429332D-13 -0.30989095D-02  0.29171541D-02 -0.70824073D-14
  0.38862870D-03 -0.16913971D-03  0.10424731D-14  0.14895734D-04 -0.12433095D-04
 -0.15431058D+00 -0.16146940D+00 -0.13758057D+00 -0.90607205D-01 -0.41758163D-01
 -0.12504550D-01 -0.21275431D-02  0.15378554D+00  0.16091999D+00  0.13711245D+00
  0.90298913D-01  0.41616080D-01  0.12462003D-01  0.21203041D-02  0.52504442D-03
  0.54940241D-03  0.46812026D-03  0.30829258D-03  0.14208287D-03  0.42546946D-04
  0.72390021D-05 -0.15505277D-09 -0.16224602D-09 -0.13824229D-09 -0.91043001D-10
 -0.41959008D-10 -0.12564693D-10 -0.21377760D-11  0.29546148D-10  0.30916860D-10
  0.26342820D-10  0.17348738D-10  0.79955169D-11  0.23942705D-11  0.40736482D-12
 -0.49539067D+00 -0.51837296D+00 -0.44168151D+00 -0.29088066D+00 -0.13405824D+00
 -0.40143956D-01 -0.68301538D-02 -0.70177039D-04  0.11967997D-03 -0.49502928D-04
 -0.12190852D-12  0.15432885D-13 -0.36860963D-03  0.54097125D-04 -0.57091416D-04
  0.29942907D-05  0.51220381D-14 -0.79246448D-15  0.93008842D-04  0.15592482D-04
 -0.18554635D-04  0.29621528D-05  0.39327403D-14 -0.12684781D-14  0.64141264D-04
 -0.20838673D-14  0.27943093D-04 -0.32217962D-04  0.75920046D-14 -0.50420744D-04
  0.39140696D-04 -0.13404026D-14 -0.33408535D-04  0.57513191D-04 -0.11441587D-14
  0.12452019D-14 -0.17415375D-05  0.15465568D-05 -0.44194058D-14  0.12771802D-04
 -0.25239294D-05  0.68380016D-15 -0.75471894D-05 -0.21157411D-05  0.69558387D-15
MO    2     MO 0.0        OCC NO =    2.0000240  ORB. ENERGY =    0.000000
 -0.58955503D-01 -0.10990493D+00 -0.18575431D+00 -0.27922338D+00 -0.34297591D+00
 -0.28945957D+00 -0.10884436D+00 -0.10356867D-04 -0.77411166D-04 -0.28930320D-03
 -0.80711089D-03 -0.10813061D-02  0.12768208D-02 -0.44802742D-02 -0.17438622D-02
 -0.31708890D-03 -0.29992026D-12 -0.28119431D-12 -0.20022710D-12 -0.33355746D-04
 -0.31273132D-04 -0.22268333D-04  0.22930949D-02  0.21499222D-02  0.15308727D-02
 -0.47554564D-13 -0.62618802D-05 -0.21677365D-03  0.32150996D-14  0.21453458D-04
 -0.96658120D-03 -0.12737847D-14  0.13183957D-05  0.10651918D-05  0.12466277D-03
  0.11454592D-04 -0.13611736D-03 -0.12018600D-13 -0.52055344D-13  0.43879815D-05
  0.11850552D-03  0.12839176D-03 -0.24689729D-03 -0.90141504D-14  0.38211077D-13
  0.18556739D-05  0.23563533D-04  0.10023684D-03 -0.12380037D-03  0.28218360D-16
 -0.95801837D-14 -0.41927861D-05  0.91721328D-14 -0.55501417D-06 -0.98063979D-05
  0.70209367D-15  0.29186440D-05 -0.90576613D-04 -0.28218492D-13 -0.12536015D-05
  0.11999581D-03 -0.76168867D-14 -0.48469980D-14  0.83544576D-06  0.13254005D-04
 -0.28323298D-14 -0.16806997D-05  0.44738647D-04  0.17373324D-13 -0.82563759D-06
 -0.84500661D-04  0.43857419D-14 -0.12703794D+00 -0.23751023D+00 -0.41048827D+00
 -0.66394786D+00 -0.10035350D+01 -0.13820754D+01 -0.16154779D+01 -0.13962052D+01
 -0.65161625D+00 -0.88279704D-01  0.64569047D-03 -0.15829928D-02 -0.20349213D-01
 -0.74231006D-01 -0.25045357D+00 -0.55010843D+00 -0.71059004D+00  0.11419787D+00
  0.95798435D+00  0.52572946D+00 -0.12725926D-04 -0.14495620D-03 -0.30098133D-03
 -0.82762222D-03  0.10731073D-03  0.37421308D-02  0.93334685D-02 -0.77261100D-02
  0.29340763D-01  0.18107056D-02  0.12899481D-03  0.78205322D-09  0.10260094D-08
  0.11253102D-08  0.92587134D-09  0.48806673D-09  0.12698578D-09  0.18519956D-01
  0.24297130D-01  0.26648693D-01  0.21925742D-01  0.11558004D-01  0.30071753D-02
  0.62309213D+01  0.81746144D+01  0.89657829D+01  0.73767761D+01  0.38886169D+01
  0.10117450D+01  0.43731834D-14  0.15697818D-12  0.24904981D-12  0.29573901D-12
  0.44753108D-13 -0.32570473D-12  0.13079855D-06  0.46950965D-05  0.74488883D-05
  0.88453263D-05  0.13385310D-05 -0.97415779D-05  0.57974054D-04  0.20810153D-02
  0.33015829D-02  0.39205284D-02  0.59327928D-03 -0.43177755D-02  0.59907808D-11
  0.11670861D-03  0.45892915D-01  0.18286298D-13  0.87997573D-05 -0.77421378D-03
 -0.65538690D-15 -0.21363705D-06 -0.50014177D-05 -0.24704965D-03 -0.13338606D-03
  0.38043570D-03 -0.22038806D-14  0.48106983D-13 -0.41925966D-05  0.21031112D-03
 -0.39854013D-03  0.18822901D-03  0.19427607D-15 -0.24729008D-13 -0.11189021D-04
 -0.54281934D-05 -0.30827776D-04  0.36255970D-04  0.77671134D-16 -0.47845635D-14
 -0.21345349D-05  0.92846670D-14 -0.44768689D-06 -0.74212589D-04 -0.59577917D-14
 -0.67553000D-06  0.20818833D-03 -0.21896209D-13  0.20185907D-05  0.14449441D-04
  0.13405288D-14  0.31466011D-15 -0.15641117D-06 -0.20802192D-04  0.22598683D-14
 -0.11557088D-06  0.19384501D-04 -0.32038486D-14  0.58480438D-06  0.43022076D-04
  0.69873604D-15  0.58590127D-03  0.11021685D-02  0.19079100D-02  0.31274309D-02
  0.48991681D-02  0.73638483D-02  0.10524670D-01  0.13971477D-01  0.16270794D-01
  0.14942842D-01  0.87350725D-02  0.22920321D-02  0.13031475D-03  0.22738523D-05
  0.22888911D-06  0.27852746D-04  0.80460165D-04  0.36876784D-03  0.10916331D-02
  0.31657679D-02  0.65803408D-02  0.94132557D-02  0.26990811D-02 -0.10785889D-01
 -0.10428912D-01 -0.22762694D-02  0.32948310D-04  0.17646060D-04  0.82322519D-04
  0.16706744D-03  0.65476637D-03  0.45946506D-03 -0.29922104D-02 -0.92718327D-02
 -0.11341528D-02  0.81049889D-02  0.38036710D-02 -0.20936991D-06 -0.28702953D-06
  0.55030504D-06  0.11695792D-05 -0.44213365D-05 -0.14297479D-04 -0.49724457D-05
  0.48635935D-04  0.10848335D-03 -0.71986248D-04  0.84218835D-04 -0.27177145D-03
  0.82127260D-04  0.21572476D-09  0.30953283D-09  0.40985006D-09  0.47330549D-09
  0.43884344D-09  0.28418912D-09  0.10027875D-09  0.11554504D-10 -0.18876510D-13
  0.25596344D+00  0.36726934D+00  0.48629854D+00  0.56159017D+00  0.52069999D+00
  0.33719833D+00  0.11898353D+00  0.13709742D-01 -0.22397507D-04  0.31984196D+00
  0.45892548D+00  0.60765974D+00  0.70174123D+00  0.65064646D+00  0.42134992D+00
  0.14867720D+00  0.17131160D-01 -0.27987053D-04  0.21167345D-11 -0.60351872D-11