 br2cs-wavefunction
GAUSSIAN            214 MOL ORBITALS    620 PRIMITIVES        4 NUCLEI
  C    1    (CENTRE  1)   0.00000000  0.00000000 -0.98162013  CHARGE =  6.0
  S    2    (CENTRE  2)   0.00000000  0.00000000  2.04788109  CHARGE = 16.0
  Br   3    (CENTRE  3)   0.00000000 -2.96406568 -2.98306498  CHARGE = 35.0
  Br   4    (CENTRE  4)  -0.01889726  2.96406568 -2.98306498  CHARGE = 35.0
CENTRE ASSIGNMENTS    1  1  1  1  1  1  1  1  1  1  1  1  1  1  1  1  1  1  1  1
CENTRE ASSIGNMENTS    1  1  1  1  1  1  1  1  1  1  1  1  1  1  1  1  1  1  1  1
CENTRE ASSIGNMENTS    1  1  1  1  1  1  1  1  1  1  1  1  1  1  1  1  1  1  1  1
CENTRE ASSIGNMENTS    1  1  1  1  1  1  1  1  1  1  1  1  2  2  2  2  2  2  2  2
CENTRE ASSIGNMENTS    2  2  2  2  2  2  2  2  2  2  2  2  2  2  2  2  2  2  2  2
CENTRE ASSIGNMENTS    2  2  2  2  2  2  2  2  2  2  2  2  2  2  2  2  2  2  2  2
CENTRE ASSIGNMENTS    2  2  2  2  2  2  2  2  2  2  2  2  2  2  2  2  2  2  2  2
CENTRE ASSIGNMENTS    2  2  2  2  2  2  2  2  2  2  2  2  2  2  2  2  2  2  2  2
CENTRE ASSIGNMENTS    2  2  2  2  2  2  2  2  2  2  2  2  2  2  2  2  2  2  2  2
CENTRE ASSIGNMENTS    2  2  2  2  2  2  3  3  3  3  3  3  3  3  3  3  3  3  3  3
CENTRE ASSIGNMENTS    3  3  3  3  3  3  3  3  3  3  3  3  3  3  3  3  3  3  3  3
CENTRE ASSIGNMENTS    3  3  3  3  3  3  3  3  3  3  3  3  3  3  3  3  3  3  3  3
CENTRE ASSIGNMENTS    3  3  3  3  3  3  3  3  3  3  3  3  3  3  3  3  3  3  3  3
CENTRE ASSIGNMENTS    3  3  3  3  3  3  3  3  3  3  3  3  3  3  3  3  3  3  3  3
CENTRE ASSIGNMENTS    3  3  3  3  3  3  3  3  3  3  3  3  3  3  3  3  3  3  3  3
CENTRE ASSIGNMENTS    3  3  3  3  3  3  3  3  3  3  3  3  3  3  3  3  3  3  3  3
CENTRE ASSIGNMENTS    3  3  3  3  3  3  3  3  3  3  3  3  3  3  3  3  3  3  3  3
CENTRE ASSIGNMENTS    3  3  3  3  3  3  3  3  3  3  3  3  3  3  3  3  3  3  3  3
CENTRE ASSIGNMENTS    3  3  3  3  3  3  3  3  3  3  3  3  3  3  3  3  3  3  3  3
CENTRE ASSIGNMENTS    3  3  3  3  3  3  3  3  3  3  3  3  3  3  3  3  3  3  3  3
CENTRE ASSIGNMENTS    3  3  3  4  4  4  4  4  4  4  4  4  4  4  4  4  4  4  4  4
CENTRE ASSIGNMENTS    4  4  4  4  4  4  4  4  4  4  4  4  4  4  4  4  4  4  4  4
CENTRE ASSIGNMENTS    4  4  4  4  4  4  4  4  4  4  4  4  4  4  4  4  4  4  4  4
CENTRE ASSIGNMENTS    4  4  4  4  4  4  4  4  4  4  4  4  4  4  4  4  4  4  4  4
CENTRE ASSIGNMENTS    4  4  4  4  4  4  4  4  4  4  4  4  4  4  4  4  4  4  4  4
CENTRE ASSIGNMENTS    4  4  4  4  4  4  4  4  4  4  4  4  4  4  4  4  4  4  4  4
CENTRE ASSIGNMENTS    4  4  4  4  4  4  4  4  4  4  4  4  4  4  4  4  4  4  4  4
CENTRE ASSIGNMENTS    4  4  4  4  4  4  4  4  4  4  4  4  4  4  4  4  4  4  4  4
CENTRE ASSIGNMENTS    4  4  4  4  4  4  4  4  4  4  4  4  4  4  4  4  4  4  4  4
CENTRE ASSIGNMENTS    4  4  4  4  4  4  4  4  4  4  4  4  4  4  4  4  4  4  4  4
CENTRE ASSIGNMENTS    4  4  4  4  4  4  4  4  4  4  4  4  4  4  4  4  4  4  4  4
TYPE ASSIGNMENTS      1  1  1  1  1  1  1  1  1  1  1  1  1  1  1  1  2  2  2  3
TYPE ASSIGNMENTS      3  3  4  4  4  2  3  4  2  3  4  2  3  4  5  6  7  8  9 10
TYPE ASSIGNMENTS      5  6  7  8  9 10  5  6  7  8  9 10 11 12 13 17 14 15 18 19
TYPE ASSIGNMENTS     16 20 11 12 13 17 14 15 18 19 16 20  1  1  1  1  1  1  1  1
TYPE ASSIGNMENTS      1  1  1  1  1  1  1  1  1  1  1  1  1  1  1  1  1  1  1  1
TYPE ASSIGNMENTS      1  1  1  2  2  2  2  2  2  3  3  3  3  3  3  4  4  4  4  4
TYPE ASSIGNMENTS      4  2  2  2  2  2  2  3  3  3  3  3  3  4  4  4  4  4  4  2
TYPE ASSIGNMENTS      3  4  2  3  4  2  3  4  5  6  7  8  9 10  5  6  7  8  9 10
TYPE ASSIGNMENTS      5  6  7  8  9 10 11 12 13 17 14 15 18 19 16 20 11 12 13 17
TYPE ASSIGNMENTS     14 15 18 19 16 20  1  1  1  1  1  1  1  1  1  1  1  1  1  1
TYPE ASSIGNMENTS      1  1  1  1  1  1  1  1  1  1  1  1  1  1  1  1  1  1  1  1
TYPE ASSIGNMENTS      1  1  1  1  1  1  1  1  1  1  1  1  1  1  1  1  2  2  2  2
TYPE ASSIGNMENTS      2  2  2  2  2  3  3  3  3  3  3  3  3  3  4  4  4  4  4  4
TYPE ASSIGNMENTS      4  4  4  2  2  2  2  2  2  2  2  2  3  3  3  3  3  3  3  3
TYPE ASSIGNMENTS      3  4  4  4  4  4  4  4  4  4  2  2  2  2  2  2  2  2  3  3
TYPE ASSIGNMENTS      3  3  3  3  3  3  4  4  4  4  4  4  4  4  2  3  4  2  3  4
TYPE ASSIGNMENTS      2  3  4  5  5  5  5  5  5  5  6  6  6  6  6  6  6  7  7  7
TYPE ASSIGNMENTS      7  7  7  7  8  8  8  8  8  8  8  9  9  9  9  9  9  9 10 10
TYPE ASSIGNMENTS     10 10 10 10 10  5  6  7  8  9 10  5  6  7  8  9 10  5  6  7
TYPE ASSIGNMENTS      8  9 10 11 12 13 17 14 15 18 19 16 20 11 12 13 17 14 15 18
TYPE ASSIGNMENTS     19 16 20  1  1  1  1  1  1  1  1  1  1  1  1  1  1  1  1  1
TYPE ASSIGNMENTS      1  1  1  1  1  1  1  1  1  1  1  1  1  1  1  1  1  1  1  1
TYPE ASSIGNMENTS      1  1  1  1  1  1  1  1  1  1  1  1  1  2  2  2  2  2  2  2
TYPE ASSIGNMENTS      2  2  3  3  3  3  3  3  3  3  3  4  4  4  4  4  4  4  4  4
TYPE ASSIGNMENTS      2  2  2  2  2  2  2  2  2  3  3  3  3  3  3  3  3  3  4  4
TYPE ASSIGNMENTS      4  4  4  4  4  4  4  2  2  2  2  2  2  2  2  3  3  3  3  3
TYPE ASSIGNMENTS      3  3  3  4  4  4  4  4  4  4  4  2  3  4  2  3  4  2  3  4
TYPE ASSIGNMENTS      5  5  5  5  5  5  5  6  6  6  6  6  6  6  7  7  7  7  7  7
TYPE ASSIGNMENTS      7  8  8  8  8  8  8  8  9  9  9  9  9  9  9 10 10 10 10 10
TYPE ASSIGNMENTS     10 10  5  6  7  8  9 10  5  6  7  8  9 10  5  6  7  8  9 10
TYPE ASSIGNMENTS     11 12 13 17 14 15 18 19 16 20 11 12 13 17 14 15 18 19 16 20
EXPONENTS  0.8236000D+04 0.1235000D+04 0.2808000D+03 0.7927000D+02 0.2559000D+02
EXPONENTS  0.8997000D+01 0.3319000D+01 0.2808000D+03 0.7927000D+02 0.2559000D+02
EXPONENTS  0.8997000D+01 0.3319000D+01 0.3643000D+00 0.9059000D+00 0.1285000D+00
EXPONENTS  0.4402000D-01 0.1871000D+02 0.4133000D+01 0.1200000D+01 0.1871000D+02
EXPONENTS  0.4133000D+01 0.1200000D+01 0.1871000D+02 0.4133000D+01 0.1200000D+01
EXPONENTS  0.3827000D+00 0.3827000D+00 0.3827000D+00 0.1209000D+00 0.1209000D+00
EXPONENTS  0.1209000D+00 0.3569000D-01 0.3569000D-01 0.3569000D-01 0.1097000D+01
EXPONENTS  0.1097000D+01 0.1097000D+01 0.1097000D+01 0.1097000D+01 0.1097000D+01
EXPONENTS  0.3180000D+00 0.3180000D+00 0.3180000D+00 0.3180000D+00 0.3180000D+00
EXPONENTS  0.3180000D+00 0.1000000D+00 0.1000000D+00 0.1000000D+00 0.1000000D+00
EXPONENTS  0.1000000D+00 0.1000000D+00 0.7610000D+00 0.7610000D+00 0.7610000D+00
EXPONENTS  0.7610000D+00 0.7610000D+00 0.7610000D+00 0.7610000D+00 0.7610000D+00
EXPONENTS  0.7610000D+00 0.7610000D+00 0.2680000D+00 0.2680000D+00 0.2680000D+00
EXPONENTS  0.2680000D+00 0.2680000D+00 0.2680000D+00 0.2680000D+00 0.2680000D+00
EXPONENTS  0.2680000D+00 0.2680000D+00 0.3741000D+06 0.5605000D+05 0.1276000D+05
EXPONENTS  0.3615000D+04 0.1183000D+04 0.4288000D+03 0.1678000D+03 0.6947000D+02
EXPONENTS  0.2984000D+02 0.1272000D+02 0.5244000D+01 0.3615000D+04 0.1183000D+04
EXPONENTS  0.4288000D+03 0.1678000D+03 0.6947000D+02 0.2984000D+02 0.1272000D+02
EXPONENTS  0.5244000D+01 0.2219000D+01 0.1183000D+04 0.1678000D+03 0.6947000D+02
EXPONENTS  0.2984000D+02 0.1272000D+02 0.5244000D+01 0.2219000D+01 0.3490000D+00
EXPONENTS  0.7767000D+00 0.1322000D+00 0.4970000D-01 0.5744000D+03 0.1358000D+03
EXPONENTS  0.4319000D+02 0.1587000D+02 0.6208000D+01 0.2483000D+01 0.5744000D+03
EXPONENTS  0.1358000D+03 0.4319000D+02 0.1587000D+02 0.6208000D+01 0.2483000D+01
EXPONENTS  0.5744000D+03 0.1358000D+03 0.4319000D+02 0.1587000D+02 0.6208000D+01
EXPONENTS  0.2483000D+01 0.1358000D+03 0.4319000D+02 0.1587000D+02 0.6208000D+01
EXPONENTS  0.2483000D+01 0.3229000D+00 0.1358000D+03 0.4319000D+02 0.1587000D+02
EXPONENTS  0.6208000D+01 0.2483000D+01 0.3229000D+00 0.1358000D+03 0.4319000D+02
EXPONENTS  0.1587000D+02 0.6208000D+01 0.2483000D+01 0.3229000D+00 0.8688000D+00
EXPONENTS  0.8688000D+00 0.8688000D+00 0.1098000D+00 0.1098000D+00 0.1098000D+00
EXPONENTS  0.3510000D-01 0.3510000D-01 0.3510000D-01 0.2690000D+00 0.2690000D+00
EXPONENTS  0.2690000D+00 0.2690000D+00 0.2690000D+00 0.2690000D+00 0.8190000D+00
EXPONENTS  0.8190000D+00 0.8190000D+00 0.8190000D+00 0.8190000D+00 0.8190000D+00
EXPONENTS  0.1010000D+00 0.1010000D+00 0.1010000D+00 0.1010000D+00 0.1010000D+00
EXPONENTS  0.1010000D+00 0.5570000D+00 0.5570000D+00 0.5570000D+00 0.5570000D+00
EXPONENTS  0.5570000D+00 0.5570000D+00 0.5570000D+00 0.5570000D+00 0.5570000D+00
EXPONENTS  0.5570000D+00 0.2180000D+00 0.2180000D+00 0.2180000D+00 0.2180000D+00
EXPONENTS  0.2180000D+00 0.2180000D+00 0.2180000D+00 0.2180000D+00 0.2180000D+00
EXPONENTS  0.2180000D+00 0.1063900D+08 0.1593400D+07 0.3626100D+06 0.1027000D+06
EXPONENTS  0.3350100D+05 0.1209300D+05 0.4715900D+04 0.1955600D+04 0.8526100D+03
EXPONENTS  0.3876700D+03 0.1826800D+03 0.8824500D+02 0.3926300D+02 0.9405700D+01
EXPONENTS  0.1899500D+01 0.3350100D+05 0.1209300D+05 0.4715900D+04 0.1955600D+04
EXPONENTS  0.8526100D+03 0.3876700D+03 0.1826800D+03 0.8824500D+02 0.3926300D+02
EXPONENTS  0.1923400D+02 0.9405700D+01 0.1899500D+01 0.4715900D+04 0.8526100D+03
EXPONENTS  0.3876700D+03 0.1826800D+03 0.8824500D+02 0.3926300D+02 0.1923400D+02
EXPONENTS  0.9405700D+01 0.4160100D+01 0.1899500D+01 0.4715900D+04 0.8526100D+03
EXPONENTS  0.3876700D+03 0.8824500D+02 0.3926300D+02 0.1923400D+02 0.9405700D+01
EXPONENTS  0.4160100D+01 0.1899500D+01 0.3011400D+00 0.6047200D+00 0.1251500D+00
EXPONENTS  0.4559300D-01 0.8676500D+04 0.2055900D+04 0.6662300D+03 0.2531000D+03
EXPONENTS  0.1061200D+03 0.4724200D+02 0.2182500D+02 0.9968400D+01 0.1998200D+01
EXPONENTS  0.8676500D+04 0.2055900D+04 0.6662300D+03 0.2531000D+03 0.1061200D+03
EXPONENTS  0.4724200D+02 0.2182500D+02 0.9968400D+01 0.1998200D+01 0.8676500D+04
EXPONENTS  0.2055900D+04 0.6662300D+03 0.2531000D+03 0.1061200D+03 0.4724200D+02
EXPONENTS  0.2182500D+02 0.9968400D+01 0.1998200D+01 0.8676500D+04 0.6662300D+03
EXPONENTS  0.2531000D+03 0.1061200D+03 0.4724200D+02 0.2182500D+02 0.9968400D+01
EXPONENTS  0.4517100D+01 0.1998200D+01 0.8676500D+04 0.6662300D+03 0.2531000D+03
EXPONENTS  0.1061200D+03 0.4724200D+02 0.2182500D+02 0.9968400D+01 0.4517100D+01
EXPONENTS  0.1998200D+01 0.8676500D+04 0.6662300D+03 0.2531000D+03 0.1061200D+03
EXPONENTS  0.4724200D+02 0.2182500D+02 0.9968400D+01 0.4517100D+01 0.1998200D+01
EXPONENTS  0.6662300D+03 0.1061200D+03 0.4724200D+02 0.2182500D+02 0.9968400D+01
EXPONENTS  0.4517100D+01 0.1998200D+01 0.2814500D+00 0.6662300D+03 0.1061200D+03
EXPONENTS  0.4724200D+02 0.2182500D+02 0.9968400D+01 0.4517100D+01 0.1998200D+01
EXPONENTS  0.2814500D+00 0.6662300D+03 0.1061200D+03 0.4724200D+02 0.2182500D+02
EXPONENTS  0.9968400D+01 0.4517100D+01 0.1998200D+01 0.2814500D+00 0.7098800D+00
EXPONENTS  0.7098800D+00 0.7098800D+00 0.1020400D+00 0.1020400D+00 0.1020400D+00
EXPONENTS  0.3514200D-01 0.3514200D-01 0.3514200D-01 0.4038300D+03 0.1211700D+03
EXPONENTS  0.4634500D+02 0.1972100D+02 0.8862400D+01 0.3996200D+01 0.1763600D+01
EXPONENTS  0.4038300D+03 0.1211700D+03 0.4634500D+02 0.1972100D+02 0.8862400D+01
EXPONENTS  0.3996200D+01 0.1763600D+01 0.4038300D+03 0.1211700D+03 0.4634500D+02
EXPONENTS  0.1972100D+02 0.8862400D+01 0.3996200D+01 0.1763600D+01 0.4038300D+03
EXPONENTS  0.1211700D+03 0.4634500D+02 0.1972100D+02 0.8862400D+01 0.3996200D+01
EXPONENTS  0.1763600D+01 0.4038300D+03 0.1211700D+03 0.4634500D+02 0.1972100D+02
EXPONENTS  0.8862400D+01 0.3996200D+01 0.1763600D+01 0.4038300D+03 0.1211700D+03
EXPONENTS  0.4634500D+02 0.1972100D+02 0.8862400D+01 0.3996200D+01 0.1763600D+01
EXPONENTS  0.7061900D+00 0.7061900D+00 0.7061900D+00 0.7061900D+00 0.7061900D+00
EXPONENTS  0.7061900D+00 0.2639000D+00 0.2639000D+00 0.2639000D+00 0.2639000D+00
EXPONENTS  0.2639000D+00 0.2639000D+00 0.1047000D+00 0.1047000D+00 0.1047000D+00
EXPONENTS  0.1047000D+00 0.1047000D+00 0.1047000D+00 0.5515000D+00 0.5515000D+00
EXPONENTS  0.5515000D+00 0.5515000D+00 0.5515000D+00 0.5515000D+00 0.5515000D+00
EXPONENTS  0.5515000D+00 0.5515000D+00 0.5515000D+00 0.2580000D+00 0.2580000D+00
EXPONENTS  0.2580000D+00 0.2580000D+00 0.2580000D+00 0.2580000D+00 0.2580000D+00
EXPONENTS  0.2580000D+00 0.2580000D+00 0.2580000D+00 0.1063900D+08 0.1593400D+07
EXPONENTS  0.3626100D+06 0.1027000D+06 0.3350100D+05 0.1209300D+05 0.4715900D+04
EXPONENTS  0.1955600D+04 0.8526100D+03 0.3876700D+03 0.1826800D+03 0.8824500D+02
EXPONENTS  0.3926300D+02 0.9405700D+01 0.1899500D+01 0.3350100D+05 0.1209300D+05
EXPONENTS  0.4715900D+04 0.1955600D+04 0.8526100D+03 0.3876700D+03 0.1826800D+03
EXPONENTS  0.8824500D+02 0.3926300D+02 0.1923400D+02 0.9405700D+01 0.1899500D+01
EXPONENTS  0.4715900D+04 0.8526100D+03 0.3876700D+03 0.1826800D+03 0.8824500D+02
EXPONENTS  0.3926300D+02 0.1923400D+02 0.9405700D+01 0.4160100D+01 0.1899500D+01
EXPONENTS  0.4715900D+04 0.8526100D+03 0.3876700D+03 0.8824500D+02 0.3926300D+02
EXPONENTS  0.1923400D+02 0.9405700D+01 0.4160100D+01 0.1899500D+01 0.3011400D+00
EXPONENTS  0.6047200D+00 0.1251500D+00 0.4559300D-01 0.8676500D+04 0.2055900D+04
EXPONENTS  0.6662300D+03 0.2531000D+03 0.1061200D+03 0.4724200D+02 0.2182500D+02
EXPONENTS  0.9968400D+01 0.1998200D+01 0.8676500D+04 0.2055900D+04 0.6662300D+03
EXPONENTS  0.2531000D+03 0.1061200D+03 0.4724200D+02 0.2182500D+02 0.9968400D+01
EXPONENTS  0.1998200D+01 0.8676500D+04 0.2055900D+04 0.6662300D+03 0.2531000D+03
EXPONENTS  0.1061200D+03 0.4724200D+02 0.2182500D+02 0.9968400D+01 0.1998200D+01
EXPONENTS  0.8676500D+04 0.6662300D+03 0.2531000D+03 0.1061200D+03 0.4724200D+02
EXPONENTS  0.2182500D+02 0.9968400D+01 0.4517100D+01 0.1998200D+01 0.8676500D+04
EXPONENTS  0.6662300D+03 0.2531000D+03 0.1061200D+03 0.4724200D+02 0.2182500D+02
EXPONENTS  0.9968400D+01 0.4517100D+01 0.1998200D+01 0.8676500D+04 0.6662300D+03
EXPONENTS  0.2531000D+03 0.1061200D+03 0.4724200D+02 0.2182500D+02 0.9968400D+01
EXPONENTS  0.4517100D+01 0.1998200D+01 0.6662300D+03 0.1061200D+03 0.4724200D+02
EXPONENTS  0.2182500D+02 0.9968400D+01 0.4517100D+01 0.1998200D+01 0.2814500D+00
EXPONENTS  0.6662300D+03 0.1061200D+03 0.4724200D+02 0.2182500D+02 0.9968400D+01
EXPONENTS  0.4517100D+01 0.1998200D+01 0.2814500D+00 0.6662300D+03 0.1061200D+03
EXPONENTS  0.4724200D+02 0.2182500D+02 0.9968400D+01 0.4517100D+01 0.1998200D+01
EXPONENTS  0.2814500D+00 0.7098800D+00 0.7098800D+00 0.7098800D+00 0.1020400D+00
EXPONENTS  0.1020400D+00 0.1020400D+00 0.3514200D-01 0.3514200D-01 0.3514200D-01
EXPONENTS  0.4038300D+03 0.1211700D+03 0.4634500D+02 0.1972100D+02 0.8862400D+01
EXPONENTS  0.3996200D+01 0.1763600D+01 0.4038300D+03 0.1211700D+03 0.4634500D+02
EXPONENTS  0.1972100D+02 0.8862400D+01 0.3996200D+01 0.1763600D+01 0.4038300D+03
EXPONENTS  0.1211700D+03 0.4634500D+02 0.1972100D+02 0.8862400D+01 0.3996200D+01
EXPONENTS  0.1763600D+01 0.4038300D+03 0.1211700D+03 0.4634500D+02 0.1972100D+02
EXPONENTS  0.8862400D+01 0.3996200D+01 0.1763600D+01 0.4038300D+03 0.1211700D+03
EXPONENTS  0.4634500D+02 0.1972100D+02 0.8862400D+01 0.3996200D+01 0.1763600D+01
EXPONENTS  0.4038300D+03 0.1211700D+03 0.4634500D+02 0.1972100D+02 0.8862400D+01
EXPONENTS  0.3996200D+01 0.1763600D+01 0.7061900D+00 0.7061900D+00 0.7061900D+00
EXPONENTS  0.7061900D+00 0.7061900D+00 0.7061900D+00 0.2639000D+00 0.2639000D+00
EXPONENTS  0.2639000D+00 0.2639000D+00 0.2639000D+00 0.2639000D+00 0.1047000D+00
EXPONENTS  0.1047000D+00 0.1047000D+00 0.1047000D+00 0.1047000D+00 0.1047000D+00
EXPONENTS  0.5515000D+00 0.5515000D+00 0.5515000D+00 0.5515000D+00 0.5515000D+00
EXPONENTS  0.5515000D+00 0.5515000D+00 0.5515000D+00 0.5515000D+00 0.5515000D+00
EXPONENTS  0.2580000D+00 0.2580000D+00 0.2580000D+00 0.2580000D+00 0.2580000D+00
EXPONENTS  0.2580000D+00 0.2580000D+00 0.2580000D+00 0.2580000D+00 0.2580000D+00
MO    1     MO 0.0        OCC NO =    2.0000283  ORB. ENERGY =    0.000000
 -0.73653236D-06 -0.13730447D-05 -0.23206326D-05 -0.34883436D-05 -0.42848053D-05
 -0.36162246D-05 -0.13597949D-05 -0.11753223D-09 -0.87848060D-09 -0.32830826D-08
 -0.91592892D-08 -0.12270922D-07  0.14489671D-07 -0.59767167D-07 -0.65440048D-07
 -0.15734419D-07  0.83443778D-05  0.78233846D-05  0.55707159D-05 -0.26176044D-02
 -0.24541705D-02 -0.17475156D-02  0.11759013D-06  0.11024822D-06  0.78503303D-07
  0.17571784D-05 -0.55122263D-03  0.92405439D-08 -0.41037527D-05  0.12873904D-02
  0.17844559D-07 -0.25666831D-06  0.80520685D-04  0.16733613D-08 -0.23878328D-09
 -0.25640813D-08  0.28028646D-08  0.21468458D-07  0.37880077D-05 -0.11883253D-02
  0.50985822D-08  0.17052949D-08 -0.68038771D-08 -0.12328880D-05 -0.50184759D-08
  0.15824288D-05  0.46592443D-08 -0.30661855D-08 -0.15930589D-08 -0.13829094D-05
  0.10243901D-05 -0.32135527D-03 -0.87704824D-06  0.11230940D-03 -0.36587464D-09
  0.68006151D-06  0.27513102D-03  0.25704858D-08  0.19510832D-05 -0.61205922D-03
 -0.14728618D-08 -0.10998744D-05  0.43986843D-06 -0.68582241D-04  0.18696926D-08
 -0.22388829D-06 -0.13798705D-03 -0.33671171D-08 -0.10957170D-05  0.34373378D-03
 -0.22419608D-08  0.62524182D-06 -0.20682066D-05 -0.38667206D-05 -0.66828425D-05
 -0.10809222D-04 -0.16337778D-04 -0.22500503D-04 -0.26300348D-04 -0.22730539D-04
 -0.10608461D-04 -0.14372137D-05  0.10511988D-07 -0.25724611D-07 -0.33068729D-06
 -0.12062997D-05 -0.40700253D-05 -0.89396018D-05 -0.11547527D-04  0.18557859D-05
  0.15567838D-04  0.85434284D-05 -0.22926217D-09 -0.26114387D-08 -0.54222881D-08
 -0.14909915D-07  0.19332417D-08  0.67415846D-07  0.16814583D-06 -0.13918868D-06
  0.46842444D-06  0.22188968D-08 -0.37518701D-08 -0.30935125D-01 -0.40585125D-01
 -0.44513099D-01 -0.36624037D-01 -0.19306110D-01 -0.50230866D-02  0.97045012D+01
  0.12731754D+02  0.13963978D+02  0.11489141D+02  0.60564218D+01  0.15757670D+01
  0.14547947D-03  0.19086080D-03  0.20933299D-03  0.17223288D-03  0.90791379D-04
  0.23622209D-04 -0.28227425D-06 -0.10132412D-04 -0.16075326D-04 -0.19088957D-04
 -0.28886623D-05  0.21023143D-04  0.88550855D-04  0.31785888D-02  0.50429109D-02
  0.59883020D-02  0.90618793D-03 -0.65950659D-02  0.13000035D-08  0.46664445D-07
  0.74034312D-07  0.87913474D-07  0.13303626D-07 -0.96821296D-07 -0.21451979D-03
  0.67295909D-01  0.10481419D-05  0.10229155D-05 -0.32090209D-03 -0.84598740D-08
  0.89360403D-07 -0.28033778D-04 -0.14986763D-09 -0.58791688D-08 -0.29840906D-08
  0.88632594D-08  0.89699434D-07 -0.24483388D-05  0.76806220D-03  0.36492728D-08
 -0.58348939D-08  0.21856211D-08 -0.24694174D-06  0.23223174D-05 -0.72853988D-03
 -0.90349988D-09  0.52315735D-09  0.38034252D-09  0.24089293D-06  0.13190646D-06
 -0.41377336D-04 -0.44147845D-06  0.35476740D-05 -0.12689617D-08  0.84904106D-06
  0.13849097D-03  0.77754666D-09  0.47539428D-06 -0.14913399D-03  0.30293384D-08
  0.81688247D-06 -0.90551442D-08  0.32000551D-04 -0.76351265D-09 -0.28791284D-06
  0.28417194D-05  0.20293820D-08  0.31507827D-06 -0.98843374D-04  0.26115595D-09
 -0.29916475D-06  0.36939356D-03  0.69488493D-03  0.12028813D-02  0.19717534D-02
  0.30887818D-02  0.46426903D-02  0.66354959D-02  0.88086064D-02  0.10258259D-01
  0.94210237D-02  0.55072069D-02  0.14450590D-02  0.82159630D-04  0.14335972D-05
  0.14430787D-06  0.18588709D-04  0.53698495D-04  0.24611282D-03  0.72854754D-03
  0.21128091D-02  0.43916688D-02  0.62823344D-02  0.18013459D-02 -0.71984196D-02
 -0.69601753D-02 -0.15191646D-02  0.21989449D-04  0.12200311D-04  0.56916973D-04
  0.11550877D-03  0.45269897D-03  0.31766959D-03 -0.20687846D-02 -0.64104532D-02
 -0.78414199D-03  0.56037090D-02  0.26298204D-02 -0.96432314D-06 -0.13220105D-05
  0.25346139D-05  0.53868879D-05 -0.20363944D-04 -0.65851821D-04 -0.22902262D-04
  0.22400906D-03  0.49965633D-03 -0.33155674D-03 -0.56645489D-04  0.15391528D-02
  0.47886807D-03  0.95383621D-03  0.13686126D-02  0.18121695D-02  0.20927404D-02
  0.19403650D-02  0.12565543D-02  0.44338677D-03  0.51088734D-04 -0.83463296D-07
  0.11929283D+01  0.17116741D+01  0.22664146D+01  0.26173144D+01  0.24267440D+01
  0.15715269D+01  0.55452772D+00  0.63894824D-01 -0.10438451D-03  0.10397628D+01
  0.14919045D+01  0.19754194D+01  0.22812655D+01  0.21151634D+01  0.13697514D+01
  0.48332939D+00  0.55691078D-01 -0.90982112D-04 -0.59082392D-05  0.16845442D-04
  0.82224771D-04  0.17038536D-03  0.21381681D-03  0.33907500D-04 -0.27446976D-03
 -0.23937742D-03 -0.61535529D-04 -0.72371525D-02  0.20634411D-01  0.10071921D+00
  0.20870937D+00  0.26190965D+00  0.41534160D-01 -0.33620499D+00 -0.29321950D+00
 -0.75376436D-01 -0.64249435D-02  0.18318658D-01  0.89415727D-01  0.18528639D+00
  0.23251613D+00  0.36872876D-01 -0.29847348D+00 -0.26031215D+00 -0.66917111D-01
 -0.85635374D-07 -0.12098042D-06  0.56291559D-07 -0.11280882D-06 -0.12383883D-06
 -0.33427982D-06 -0.10534040D-06  0.22616808D-06 -0.73473107D-04 -0.10379831D-03
  0.48296814D-04 -0.96787270D-04 -0.10625076D-03 -0.28680410D-03 -0.90379550D-04
  0.19404681D-03  0.57997174D-04  0.81934863D-04 -0.38123864D-04  0.76400583D-04
  0.83870739D-04  0.22639341D-03  0.71342546D-04 -0.15317396D-03 -0.34001540D-05
 -0.31192217D-02 -0.28954688D-02 -0.23617360D-06  0.38457550D-03  0.16655652D-03
  0.31438564D-07  0.14776795D-04  0.12340815D-04  0.14805941D+00  0.15492822D+00
  0.13200713D+00  0.86936677D-01  0.40066526D-01  0.11997986D-01  0.20413556D-02
 -0.14934267D+00 -0.15627101D+00 -0.13315127D+00 -0.87690175D-01 -0.40413791D-01
 -0.12101975D-01 -0.20590485D-02  0.12832609D-02  0.13427943D-02  0.11441326D-02
  0.75349782D-03  0.34726471D-03  0.10398898D-03  0.17692843D-04 -0.24965086D-03
 -0.26123273D-03 -0.22258426D-03 -0.14658857D-03 -0.67558306D-04 -0.20230444D-04
 -0.34420385D-05  0.76818496D-04  0.80382279D-04  0.68490004D-04  0.45105846D-04
  0.20787941D-04  0.62249827D-05  0.10591280D-05 -0.47833971D+00 -0.50053096D+00
 -0.42647917D+00 -0.28086878D+00 -0.12944406D+00 -0.38762232D-01 -0.65950652D-02
  0.65192746D-04 -0.11687120D-03  0.51678459D-04 -0.94947464D-06  0.42176408D-06
 -0.35258423D-03 -0.54739642D-04  0.57010345D-04 -0.22707033D-05  0.62010690D-06
  0.14065219D-06  0.93783625D-04 -0.15694216D-04  0.18611832D-04 -0.29176166D-05
  0.10911630D-06 -0.13942820D-06  0.63876745D-04  0.31041086D-07  0.27891728D-04
  0.31892095D-04 -0.75478866D-06 -0.51887438D-04 -0.39848953D-04  0.66166540D-06
 -0.31787745D-04 -0.55827331D-04 -0.78102633D-07 -0.56346682D-07 -0.17045099D-05
 -0.13804180D-05  0.43918953D-06  0.12489813D-04  0.22892852D-05 -0.27014949D-06
 -0.73762835D-05  0.18519687D-05  0.33801638D-07 -0.36952321D-03 -0.69512882D-03
 -0.12033035D-02 -0.19724455D-02 -0.30898659D-02 -0.46443198D-02 -0.66378249D-02
 -0.88116981D-02 -0.10261859D-01 -0.94243303D-02 -0.55091399D-02 -0.14455662D-02
 -0.82188466D-04 -0.14341004D-05 -0.14435852D-06 -0.18594913D-04 -0.53716417D-04
 -0.24619496D-03 -0.72879069D-03 -0.21135143D-02 -0.43931345D-02 -0.62844311D-02
 -0.18019471D-02  0.72008220D-02  0.69624983D-02  0.15196717D-02 -0.21996788D-04
 -0.12204058D-04 -0.56934454D-04 -0.11554425D-03 -0.45283801D-03 -0.31776715D-03
  0.20694200D-02  0.64124221D-02  0.78438282D-03 -0.56054301D-02 -0.26306281D-02
  0.96433221D-06  0.13220229D-05 -0.25346377D-05 -0.53869386D-05  0.20364135D-04
  0.65852440D-04  0.22902477D-04 -0.22401117D-03 -0.49966103D-03  0.33155986D-03
  0.56610864D-04 -0.15391062D-02 -0.47885026D-03 -0.85593228D-02 -0.12281351D-01
 -0.16261643D-01 -0.18779367D-01 -0.17412015D-01 -0.11275787D-01 -0.39787653D-02
 -0.45844870D-03  0.74896432D-06  0.11929355D+01  0.17116844D+01  0.22664283D+01
  0.26173302D+01  0.24267587D+01  0.15715364D+01  0.55453107D+00  0.63895210D-01
 -0.10438514D-03 -0.10397510D+01 -0.14918875D+01 -0.19753968D+01 -0.22812395D+01
 -0.21151392D+01 -0.13697358D+01 -0.48332388D+00 -0.55690443D-01  0.90981075D-04
  0.52048639D-04 -0.14839994D-03 -0.72435920D-03 -0.15010100D-02 -0.18836194D-02
 -0.29870816D-03  0.24179416D-02  0.21087957D-02  0.54209730D-03 -0.72372183D-02
  0.20634599D-01  0.10072013D+00  0.20871126D+00  0.26191203D+00  0.41534538D-01
 -0.33620805D+00 -0.29322216D+00 -0.75377121D-01  0.64248690D-02 -0.18318446D-01
 -0.89414692D-01 -0.18528424D+00 -0.23251344D+00 -0.36872449D-01  0.29847002D+00
  0.26030913D+00  0.66916336D-01  0.55399168D-06  0.78264558D-06 -0.36416090D-06
  0.72978188D-06  0.80113716D-06  0.21625203D-05  0.68146728D-06 -0.14631247D-05
 -0.73460950D-04 -0.10378114D-03  0.48288822D-04 -0.96771256D-04 -0.10623318D-03
 -0.28675665D-03 -0.90364596D-04  0.19401471D-03 -0.57996029D-04 -0.81933246D-04
  0.38123111D-04 -0.76399075D-04 -0.83869084D-04 -0.22638894D-03 -0.71341138D-04
  0.15317094D-03  0.23286770D-04 -0.31192635D-02  0.28954329D-02 -0.22155675D-05
  0.38455972D-03 -0.16655100D-03 -0.12564327D-06  0.14775805D-04 -0.12340553D-04
 -0.14803036D+00 -0.15489782D+00 -0.13198124D+00 -0.86919622D-01 -0.40058666D-01
 -0.11995632D-01 -0.20409552D-02  0.14931718D+00  0.15624434D+00  0.13312854D+00
  0.87675206D-01  0.40406892D-01  0.12099909D-01  0.20586970D-02 -0.12868135D-02
 -0.13465117D-02 -0.11473000D-02 -0.75558379D-03 -0.34822608D-03 -0.10427686D-03
 -0.17741824D-04 -0.40413103D-02 -0.42287958D-02 -0.36031603D-02 -0.23729535D-02
 -0.10936236D-02 -0.32748736D-03 -0.55719198D-04  0.29724814D-02  0.31103815D-02
  0.26502115D-02  0.17453647D-02  0.80438660D-03  0.24087487D-03  0.40982817D-04
 -0.47828984D+00 -0.50047878D+00 -0.42643471D+00 -0.28083949D+00 -0.12943056D+00
 -0.38758191D-01 -0.65943776D-02 -0.65167712D-04  0.11684516D-03 -0.51677449D-04
 -0.32704839D-05  0.18258506D-05 -0.35254158D-03  0.54732150D-04 -0.57004296D-04
  0.22721467D-05  0.20449405D-05 -0.73857460D-06  0.93786099D-04  0.15692474D-04
 -0.18610499D-04  0.29180244D-05  0.54652856D-06 -0.26781419D-06  0.63876212D-04
  0.29977836D-06  0.27894103D-04 -0.31889081D-04 -0.44037319D-06 -0.51889197D-04
  0.39846894D-04 -0.45896190D-06 -0.31793113D-04  0.55820350D-04 -0.28176573D-06
 -0.23292769D-07 -0.17069531D-05  0.13805603D-05 -0.24727713D-06  0.12493846D-04
 -0.22884901D-05  0.31715544D-06 -0.73729862D-05 -0.18531909D-05  0.28246060D-07
MO    2     MO 0.0        OCC NO =    2.0000240  ORB. ENERGY =    0.000000
 -0.58964137D-01 -0.10992103D+00 -0.18578152D+00 -0.27926427D+00 -0.34302614D+00
 -0.28950196D+00 -0.10886030D+00 -0.10359421D-04 -0.77430254D-04 -0.28937454D-03
 -0.80730990D-03 -0.10815727D-02  0.12771357D-02 -0.44808799D-02 -0.17442253D-02
 -0.31722825D-03 -0.16992120D-05 -0.15931193D-05 -0.11343958D-05  0.50476109D-07
  0.47324561D-07  0.33697906D-07  0.22937101D-02  0.21504990D-02  0.15312834D-02
 -0.28233574D-06  0.12126322D-07 -0.21677357D-03 -0.52638817D-06 -0.30760077D-07
 -0.96652040D-03  0.62743905D-07 -0.15771999D-08  0.10759460D-05  0.12463662D-03
  0.11493693D-04 -0.13613031D-03  0.72131837D-06 -0.12069216D-05  0.66614429D-08
  0.11848371D-03  0.12835116D-03 -0.24683487D-03 -0.62894863D-07 -0.11830862D-06
  0.18878487D-08  0.23564058D-04  0.10023354D-03 -0.12379760D-03 -0.48878011D-06
 -0.14658032D-06  0.90348958D-08  0.10090185D-06 -0.38087466D-08 -0.97814744D-05
 -0.39374893D-06 -0.15075778D-08 -0.90597437D-04  0.91043387D-07  0.12933818D-07
  0.11994186D-03 -0.13422550D-05 -0.14069931D-07  0.20768343D-08  0.13250549D-04
  0.21691048D-06  0.11387083D-08  0.44744939D-04 -0.17470069D-06 -0.73692112D-08
 -0.84496585D-04  0.82396182D-06 -0.12703234D+00 -0.23749975D+00 -0.41047016D+00
 -0.66391857D+00 -0.10034907D+01 -0.13820145D+01 -0.16154066D+01 -0.13961436D+01
 -0.65158750D+00 -0.88275808D-01  0.64566198D-03 -0.15829227D-02 -0.20348312D-01
 -0.74227716D-01 -0.25044247D+00 -0.55008405D+00 -0.71055855D+00  0.11419280D+00
  0.95794190D+00  0.52570616D+00 -0.12725632D-04 -0.14495286D-03 -0.30097439D-03
 -0.82760314D-03  0.10730825D-03  0.37420445D-02  0.93332533D-02 -0.77259319D-02
  0.29339453D-01  0.18108329D-02  0.12896380D-03  0.62077016D-02  0.81441515D-02
  0.89323716D-02  0.73492863D-02  0.38741259D-02  0.10079747D-02 -0.16424968D-03
 -0.21548624D-03 -0.23634177D-03 -0.19445489D-03 -0.10250556D-03 -0.26670019D-04
  0.62312660D+01  0.81750667D+01  0.89662789D+01  0.73771841D+01  0.38888320D+01
  0.10118009D+01  0.45170040D-07  0.16214071D-05  0.25724030D-05  0.30546497D-05
  0.46224901D-06 -0.33641617D-05 -0.14480633D-08 -0.51979147D-07 -0.82466220D-07
 -0.97926106D-07 -0.14818801D-07  0.10784846D-06  0.57977846D-04  0.20811514D-02
  0.33017988D-02  0.39207848D-02  0.59331808D-03 -0.43180578D-02  0.42789607D-04
 -0.11615605D-05  0.45895499D-01  0.89045838D-07  0.64132877D-09 -0.77424348D-03
 -0.33561379D-07  0.39775935D-09 -0.50007972D-05 -0.24706492D-03 -0.13341002D-03
  0.38047495D-03 -0.72460577D-06  0.62900709D-07 -0.12906485D-07  0.21031279D-03
 -0.39860366D-03  0.18829086D-03  0.38821444D-05 -0.78177312D-06  0.61426413D-08
 -0.54234714D-05 -0.30839551D-04  0.36263023D-04  0.16203511D-06 -0.82856627D-07
  0.13307358D-08  0.94249396D-07  0.28278169D-09 -0.74221179D-04  0.93000774D-08
 -0.15939572D-08  0.20819940D-03 -0.29204827D-06  0.74561218D-09  0.14464132D-04
  0.12351385D-05 -0.19398577D-07 -0.62669724D-09 -0.20807176D-04 -0.18262149D-07
 -0.10848471D-09  0.19386094D-04  0.76457882D-07  0.19885764D-08  0.43035435D-04
 -0.15077052D-06  0.58125735D-03  0.10934326D-02  0.18927877D-02  0.31026425D-02
  0.48603368D-02  0.73054816D-02  0.10441251D-01  0.13860738D-01  0.16141830D-01
  0.14824404D-01  0.86658373D-02  0.22738652D-02  0.12928187D-03  0.22558295D-05
  0.22707490D-06  0.27636540D-04  0.79835594D-04  0.36590529D-03  0.10831593D-02
  0.31411937D-02  0.65292610D-02  0.93401855D-02  0.26781295D-02 -0.10702164D-01
 -0.10347957D-01 -0.22585999D-02  0.32692550D-04  0.17526053D-04  0.81762661D-04
  0.16593125D-03  0.65031344D-03  0.45634034D-03 -0.29718610D-02 -0.92087770D-02
 -0.11264397D-02  0.80498687D-02  0.37778031D-02 -0.20725101D-06 -0.28412468D-06
  0.54473574D-06  0.11577426D-05 -0.43765909D-05 -0.14152783D-04 -0.49221227D-05
  0.48143720D-04  0.10738545D-03 -0.71257720D-04  0.82836600D-04 -0.29145629D-03
  0.76379529D-04 -0.55484339D-03 -0.79611746D-03 -0.10541331D-02 -0.12173402D-02
 -0.11287040D-02 -0.73093354D-03 -0.25791663D-03 -0.29718149D-04  0.48550326D-07
  0.25611155D+00  0.36748185D+00  0.48657993D+00  0.56191513D+00  0.52100129D+00
  0.33739344D+00  0.11905238D+00  0.13717675D-01 -0.22410467D-04  0.32133788D+00
  0.46107190D+00  0.61050180D+00  0.70502332D+00  0.65368957D+00  0.42332060D+00
  0.14937257D+00  0.17211284D-01 -0.28117950D-04  0.35848974D-05 -0.10221181D-04