 Entering Gaussian System, Link 0=/home/bruns/programas/chemistry/gaussian/g09/g09
 Input=GAUSSIAN.com
 Output=GAUSSIAN.log
 Initial command:
 /home/bruns/programas/chemistry/gaussian/g09/l1.exe /home/bruns/programas/chemistry/gaussian/work/Gau-4717.inp -scrdir=/home/bruns/programas/chemistry/gaussian/work/
 Entering Link 1 = /home/bruns/programas/chemistry/gaussian/g09/l1.exe PID=      4719.
  
 Copyright (c) 1988,1990,1992,1993,1995,1998,2003,2009,2010,
            Gaussian, Inc.  All Rights Reserved.
  
 This is part of the Gaussian(R) 09 program.  It is based on
 the Gaussian(R) 03 system (copyright 2003, Gaussian, Inc.),
 the Gaussian(R) 98 system (copyright 1998, Gaussian, Inc.),
 the Gaussian(R) 94 system (copyright 1995, Gaussian, Inc.),
 the Gaussian 92(TM) system (copyright 1992, Gaussian, Inc.),
 the Gaussian 90(TM) system (copyright 1990, Gaussian, Inc.),
 the Gaussian 88(TM) system (copyright 1988, Gaussian, Inc.),
 the Gaussian 86(TM) system (copyright 1986, Carnegie Mellon
 University), and the Gaussian 82(TM) system (copyright 1983,
 Carnegie Mellon University). Gaussian is a federally registered
 trademark of Gaussian, Inc.
  
 This software contains proprietary and confidential information,
 including trade secrets, belonging to Gaussian, Inc.
  
 This software is provided under written license and may be
 used, copied, transmitted, or stored only in accord with that
 written license.
  
 The following legend is applicable only to US Government
 contracts under FAR:
  
                    RESTRICTED RIGHTS LEGEND
  
 Use, reproduction and disclosure by the US Government is
 subject to restrictions as set forth in subparagraphs (a)
 and (c) of the Commercial Computer Software - Restricted
 Rights clause in FAR 52.227-19.
  
 Gaussian, Inc.
 340 Quinnipiac St., Bldg. 40, Wallingford CT 06492
  
  
 ---------------------------------------------------------------
 Warning -- This program may not be used in any manner that
 competes with the business of Gaussian, Inc. or will provide
 assistance to any competitor of Gaussian, Inc.  The licensee
 of this program is prohibited from giving any competitor of
 Gaussian, Inc. access to this program.  By using this program,
 the user acknowledges that Gaussian, Inc. is engaged in the
 business of creating and licensing software in the field of
 computational chemistry and represents and warrants to the
 licensee that it is not a competitor of Gaussian, Inc. and that
 it will not use this program in any manner prohibited above.
 ---------------------------------------------------------------
  

 Cite this work as:
 Gaussian 09, Revision B.01,
 M. J. Frisch, G. W. Trucks, H. B. Schlegel, G. E. Scuseria, 
 M. A. Robb, J. R. Cheeseman, G. Scalmani, V. Barone, B. Mennucci, 
 G. A. Petersson, H. Nakatsuji, M. Caricato, X. Li, H. P. Hratchian, 
 A. F. Izmaylov, J. Bloino, G. Zheng, J. L. Sonnenberg, M. Hada, 
 M. Ehara, K. Toyota, R. Fukuda, J. Hasegawa, M. Ishida, T. Nakajima, 
 Y. Honda, O. Kitao, H. Nakai, T. Vreven, J. A. Montgomery, Jr., 
 J. E. Peralta, F. Ogliaro, M. Bearpark, J. J. Heyd, E. Brothers, 
 K. N. Kudin, V. N. Staroverov, T. Keith, R. Kobayashi, J. Normand, 
 K. Raghavachari, A. Rendell, J. C. Burant, S. S. Iyengar, J. Tomasi, 
 M. Cossi, N. Rega, J. M. Millam, M. Klene, J. E. Knox, J. B. Cross, 
 V. Bakken, C. Adamo, J. Jaramillo, R. Gomperts, R. E. Stratmann, 
 O. Yazyev, A. J. Austin, R. Cammi, C. Pomelli, J. W. Ochterski, 
 R. L. Martin, K. Morokuma, V. G. Zakrzewski, G. A. Voth, 
 P. Salvador, J. J. Dannenberg, S. Dapprich, A. D. Daniels, 
 O. Farkas, J. B. Foresman, J. V. Ortiz, J. Cioslowski, 
 and D. J. Fox, Gaussian, Inc., Wallingford CT, 2010.
 
 ******************************************
 Gaussian 09:  EM64L-G09RevB.01 12-Aug-2010
                29-Nov-2021 
 ******************************************
 %nproc=8
 Will use up to    8 processors via shared memory.
 %mem=8GB
 -----------------------------------------------------
 # qcisd/aug-cc-pvtz nosymm density=current output=wfn
 -----------------------------------------------------
 1/30=1,38=1/1;
 2/12=2,15=1,17=6,18=5,40=1/2;
 3/5=16,6=1,7=10,11=9,16=1,25=1,30=1,71=1/1,2,3;
 4//1;
 5/5=2,38=5/2;
 8/6=4,9=120000,10=1/1,4;
 9/5=8,15=1/13;
 11/28=-7,31=1,32=3,42=3/11;
 10/5=6,13=10,31=1/2;
 6/7=2,8=2,9=2,10=2,22=-1,31=1/1;
 99/5=1,6=1100,9=1/99;
 ------------------
 br2cs-wavefunction
 ------------------
 Symbolic Z-matrix:
 Charge =  0 Multiplicity = 1
 C                    -0.01      0.       -0.51945 
 S                     0.        0.        1.08369 
 Br                    0.       -1.56852  -1.57857 
 Br                    0.        1.56852  -1.57857 
 
                          Input orientation:                          
 ---------------------------------------------------------------------
 Center     Atomic      Atomic             Coordinates (Angstroms)
 Number     Number       Type             X           Y           Z
 ---------------------------------------------------------------------
      1          6           0       -0.010000    0.000000   -0.519451
      2         16           0        0.000000    0.000000    1.083692
      3         35           0        0.000000   -1.568516   -1.578570
      4         35           0        0.000000    1.568516   -1.578570
 ---------------------------------------------------------------------
                    Distance matrix (angstroms):
                    1          2          3          4
     1  C    0.000000
     2  S    1.603174   0.000000
     3  Br   1.892637   3.089965   0.000000
     4  Br   1.892637   3.089965   3.137032   0.000000
 Symmetry turned off by external request.
 Stoichiometry    CBr2S
 Framework group  CS[SG(CS),X(Br2)]
 Deg. of freedom     4
 Full point group                 CS      NOp   2
 Rotational constants (GHZ):      2.6233525      1.3014579      0.8699009
 Standard basis: Aug-CC-pVTZ (5D, 7F)
 Integral buffers will be    131072 words long.
 Raffenetti 1 integral format.
 Two-electron integral symmetry is turned off.
   214 basis functions,   620 primitive gaussians,   252 cartesian basis functions
    46 alpha electrons       46 beta electrons
       nuclear repulsion energy       547.5682199029 Hartrees.
 NAtoms=    4 NActive=    4 NUniq=    4 SFac= 1.00D+00 NAtFMM=   50 NAOKFM=F Big=F
 One-electron integrals computed using PRISM.
 NBasis=   214 RedAO= T  NBF=   214
 NBsUse=   214 1.00D-06 NBFU=   214
 Harris functional with IExCor=  205 diagonalized for initial guess.
 ExpMin= 3.51D-02 ExpMax= 1.06D+07 ExpMxC= 1.21D+04 IAcc=3 IRadAn=         0 AccDes= 0.00D+00
 HarFok:  IExCor=  205 AccDes= 0.00D+00 IRadAn=         0 IDoV= 1
 ScaDFX=  1.000000  1.000000  1.000000  1.000000
 FoFCou: FMM=F IPFlag=           0 FMFlag=      100000 FMFlg1=           0
         NFxFlg=           0 DoJE=T BraDBF=F KetDBF=T FulRan=T
         Omega=  0.000000  0.000000  1.000000  0.000000  0.000000 ICntrl=     500 IOpCl=  0
         NMat0=    1 NMatS0=    1 NMatT0=    0 NMatD0=    1 NMtDS0=    0 NMtDT0=    0
         I1Cent=           4 NGrid=           0.
 Symmetry not used in FoFCou.
 Requested convergence on RMS density matrix=1.00D-08 within 128 cycles.
 Requested convergence on MAX density matrix=1.00D-06.
 Requested convergence on             energy=1.00D-06.
 No special actions if energy rises.
 Keep R1 ints in memory in canonical form, NReq=516428601.
 SCF Done:  E(RHF) =  -5580.30866354     A.U. after   14 cycles
             Convg  =    0.3222D-08             -V/T =  2.0000
 ExpMin= 3.51D-02 ExpMax= 1.06D+07 ExpMxC= 1.21D+04 IAcc=3 IRadAn=         5 AccDes= 0.00D+00
 HarFok:  IExCor=  205 AccDes= 0.00D+00 IRadAn=         5 IDoV=-2
 ScaDFX=  1.000000  1.000000  1.000000  1.000000
 DSYEVD returned Info=          89 IAlg= 4 N=    59 NDim=    59 NE2=    18196455 trying DSYEV.
 DSYEVD returned Info=          89 IAlg= 4 N=    59 NDim=    59 NE2=    18196455 trying DSYEV.
 Range of M.O.s used for correlation:    25   214
 NBasis=   214 NAE=    46 NBE=    46 NFC=    24 NFV=     0
 NROrb=    190 NOA=    22 NOB=    22 NVA=   168 NVB=   168

 **** Warning!!: The largest alpha MO coefficient is  0.30764895D+02

 Semi-Direct transformation.
 ModeAB=           2 MOrb=            22 LenV=    1072457083
 LASXX=     69628944 LTotXX=    69628944 LenRXX=    69628944
 LTotAB=    70719517 MaxLAS=   133250040 LenRXY=   133250040
 NonZer=   139257888 LenScr=   209707008 LnRSAI=           0
 LnScr1=           0 LExtra=           0 Total=    412585992
 MaxDsk=          -1 SrtSym=           F ITran=            4
 JobTyp=0 Pass  1:  I=   1 to  22.
 (rs|ai) integrals will be sorted in core.
 Spin components of T(2) and E(2):
     alpha-alpha T2 =       0.4287516327D-01 E2=     -0.1154002562D+00
     alpha-beta  T2 =       0.2166630961D+00 E2=     -0.5793071937D+00
     beta-beta   T2 =       0.4287516327D-01 E2=     -0.1154002562D+00
 ANorm=    0.1141233290D+01
 E2 =    -0.8101077061D+00 EUMP2 =    -0.55811187712426D+04
 R2 and R3 integrals will be kept in memory, NReq=  1024335774.
 Iterations=  50 Convergence= 0.100D-07
 Iteration Nr.   1
 **********************
 DD1Dir will call FoFMem   1 times, MxPair=       506
 NAB=   253 NAA=     0 NBB=     0.
 MP4(R+Q)=  0.23475245D-01
 E3=       -0.12177476D-01        EUMP3=      -0.55811309487D+04
 E4(DQ)=   -0.51048937D-03        UMP4(DQ)=   -0.55811314592D+04
 E4(SDQ)=  -0.10186178D-01        UMP4(SDQ)=  -0.55811411349D+04
 DE(Corr)= -0.79880994     E(Corr)=     -5581.1074735    
 NORM(A)=   0.11410221D+01
 Iteration Nr.   2
 **********************
 DD1Dir will call FoFMem   1 times, MxPair=       506
 NAB=   253 NAA=     0 NBB=     0.
 DE(Corr)= -0.82758015     E(CORR)=     -5581.1362437     Delta=-2.88D-02
 NORM(A)=   0.11532108D+01
 Iteration Nr.   3
 **********************
 DD1Dir will call FoFMem   1 times, MxPair=       506
 NAB=   253 NAA=     0 NBB=     0.
 DE(Corr)= -0.82617222     E(CORR)=     -5581.1348358     Delta= 1.41D-03
 NORM(A)=   0.11560474D+01
 Iteration Nr.   4
 **********************
 DD1Dir will call FoFMem   1 times, MxPair=       506
 NAB=   253 NAA=     0 NBB=     0.
 DE(Corr)= -0.82852356     E(CORR)=     -5581.1371871     Delta=-2.35D-03
 NORM(A)=   0.11573545D+01
 Iteration Nr.   5
 **********************
 DD1Dir will call FoFMem   1 times, MxPair=       506
 NAB=   253 NAA=     0 NBB=     0.
 DE(Corr)= -0.82883275     E(CORR)=     -5581.1374963     Delta=-3.09D-04
 NORM(A)=   0.11579916D+01
 Iteration Nr.   6
 **********************
 DD1Dir will call FoFMem   1 times, MxPair=       506
 NAB=   253 NAA=     0 NBB=     0.
 DE(Corr)= -0.82889749     E(CORR)=     -5581.1375610     Delta=-6.47D-05
 NORM(A)=   0.11580717D+01
 Iteration Nr.   7
 **********************
 DD1Dir will call FoFMem   1 times, MxPair=       506
 NAB=   253 NAA=     0 NBB=     0.
 DE(Corr)= -0.82890931     E(CORR)=     -5581.1375728     Delta=-1.18D-05
 NORM(A)=   0.11580885D+01
 Iteration Nr.   8
 **********************
 DD1Dir will call FoFMem   1 times, MxPair=       506
 NAB=   253 NAA=     0 NBB=     0.
 DE(Corr)= -0.82890543     E(CORR)=     -5581.1375690     Delta= 3.88D-06
 NORM(A)=   0.11580968D+01
 Iteration Nr.   9
 **********************
 DD1Dir will call FoFMem   1 times, MxPair=       506
 NAB=   253 NAA=     0 NBB=     0.
 DE(Corr)= -0.82890712     E(CORR)=     -5581.1375707     Delta=-1.69D-06
 NORM(A)=   0.11580975D+01
 Iteration Nr.  10
 **********************
 DD1Dir will call FoFMem   1 times, MxPair=       506
 NAB=   253 NAA=     0 NBB=     0.
 DE(Corr)= -0.82890724     E(CORR)=     -5581.1375708     Delta=-1.17D-07
 NORM(A)=   0.11581012D+01
 Iteration Nr.  11
 **********************
 DD1Dir will call FoFMem   1 times, MxPair=       506
 NAB=   253 NAA=     0 NBB=     0.
 DE(Corr)= -0.82890882     E(CORR)=     -5581.1375724     Delta=-1.58D-06
 NORM(A)=   0.11581032D+01
 Iteration Nr.  12
 **********************
 DD1Dir will call FoFMem   1 times, MxPair=       506
 NAB=   253 NAA=     0 NBB=     0.
 DE(Corr)= -0.82890890     E(CORR)=     -5581.1375724     Delta=-7.85D-08
 NORM(A)=   0.11581047D+01
 Iteration Nr.  13
 **********************
 DD1Dir will call FoFMem   1 times, MxPair=       506
 NAB=   253 NAA=     0 NBB=     0.
 DE(Corr)= -0.82890954     E(CORR)=     -5581.1375731     Delta=-6.35D-07
 NORM(A)=   0.11581057D+01
 Iteration Nr.  14
 **********************
 DD1Dir will call FoFMem   1 times, MxPair=       506
 NAB=   253 NAA=     0 NBB=     0.
 DE(Corr)= -0.82890955     E(CORR)=     -5581.1375731     Delta=-1.19D-08
 NORM(A)=   0.11581062D+01
 Iteration Nr.  15
 **********************
 DD1Dir will call FoFMem   1 times, MxPair=       506
 NAB=   253 NAA=     0 NBB=     0.
 DE(Corr)= -0.82890966     E(CORR)=     -5581.1375732     Delta=-1.15D-07
 NORM(A)=   0.11581064D+01
 Iteration Nr.  16
 **********************
 DD1Dir will call FoFMem   1 times, MxPair=       506
 NAB=   253 NAA=     0 NBB=     0.
 DE(Corr)= -0.82890969     E(CORR)=     -5581.1375732     Delta=-2.84D-08
 NORM(A)=   0.11581065D+01
 Iteration Nr.  17
 **********************
 DD1Dir will call FoFMem   1 times, MxPair=       506
 NAB=   253 NAA=     0 NBB=     0.
 DE(Corr)= -0.82890968     E(CORR)=     -5581.1375732     Delta= 1.51D-08
 NORM(A)=   0.11581065D+01
 Iteration Nr.  18
 **********************
 DD1Dir will call FoFMem   1 times, MxPair=       506
 NAB=   253 NAA=     0 NBB=     0.
 DE(Corr)= -0.82890969     E(CORR)=     -5581.1375732     Delta=-1.40D-08
 NORM(A)=   0.11581065D+01
 Iteration Nr.  19
 **********************
 DD1Dir will call FoFMem   1 times, MxPair=       506
 NAB=   253 NAA=     0 NBB=     0.
 DE(Corr)= -0.82890969     E(CORR)=     -5581.1375732     Delta=-4.43D-09
 NORM(A)=   0.11581065D+01
 Iteration Nr.  20
 **********************
 DD1Dir will call FoFMem   1 times, MxPair=       506
 NAB=   253 NAA=     0 NBB=     0.
 DE(Corr)= -0.82890969     E(CORR)=     -5581.1375732     Delta= 2.54D-10
 NORM(A)=   0.11581065D+01
 Iteration Nr.  21
 **********************
 DD1Dir will call FoFMem   1 times, MxPair=       506
 NAB=   253 NAA=     0 NBB=     0.
 DE(Corr)= -0.82890970     E(CORR)=     -5581.1375732     Delta=-1.59D-09
 NORM(A)=   0.11581065D+01
 Iteration Nr.  22
 **********************
 DD1Dir will call FoFMem   1 times, MxPair=       506
 NAB=   253 NAA=     0 NBB=     0.
 DE(Corr)= -0.82890970     E(CORR)=     -5581.1375732     Delta= 5.21D-10
 NORM(A)=   0.11581065D+01
 Iteration Nr.  23
 **********************
 DD1Dir will call FoFMem   1 times, MxPair=       506
 NAB=   253 NAA=     0 NBB=     0.
 DE(Corr)= -0.82890969     E(CORR)=     -5581.1375732     Delta= 5.03D-09
 NORM(A)=   0.11581065D+01
 Iteration Nr.  24
 **********************
 DD1Dir will call FoFMem   1 times, MxPair=       506
 NAB=   253 NAA=     0 NBB=     0.
 DE(Corr)= -0.82890969     E(CORR)=     -5581.1375732     Delta=-3.79D-10
 NORM(A)=   0.11581065D+01
 Iteration Nr.  25
 **********************
 DD1Dir will call FoFMem   1 times, MxPair=       506
 NAB=   253 NAA=     0 NBB=     0.
 DE(Corr)= -0.82890969     E(CORR)=     -5581.1375732     Delta= 7.90D-12
 NORM(A)=   0.11581065D+01
 Iteration Nr.  26
 **********************
 DD1Dir will call FoFMem   1 times, MxPair=       506
 NAB=   253 NAA=     0 NBB=     0.
 DE(Corr)= -0.82890969     E(CORR)=     -5581.1375732     Delta=-8.50D-12
 NORM(A)=   0.11581065D+01
 Iteration Nr.  27
 **********************
 DD1Dir will call FoFMem   1 times, MxPair=       506
 NAB=   253 NAA=     0 NBB=     0.
 DE(Corr)= -0.82890969     E(CORR)=     -5581.1375732     Delta=-1.56D-09
 NORM(A)=   0.11581065D+01
 Iteration Nr.  28
 **********************
 DD1Dir will call FoFMem   1 times, MxPair=       506
 NAB=   253 NAA=     0 NBB=     0.
 DE(Corr)= -0.82890969     E(CORR)=     -5581.1375732     Delta=-3.18D-10
 NORM(A)=   0.11581065D+01
 Iteration Nr.  29
 **********************
 DD1Dir will call FoFMem   1 times, MxPair=       506
 NAB=   253 NAA=     0 NBB=     0.
 DE(Corr)= -0.82890969     E(CORR)=     -5581.1375732     Delta=-5.94D-11
 NORM(A)=   0.11581065D+01
 Largest amplitude= 7.67D-02

 Z-AMPLITUDE ITERATIONS

 Iteration Nr.   1
 **********************
 DD1Dir will call FoFMem   1 times, MxPair=       506
 NAB=   253 NAA=     0 NBB=     0.
 DE(Z)  -0.79824882D+00          E(Z)=    -0.55811069124D+04
 NORM(A)=   0.11578446D+01
 Iteration Nr.   2
 **********************
 DD1Dir will call FoFMem   1 times, MxPair=       506
 NAB=   253 NAA=     0 NBB=     0.
 DE(Z)  -0.79824691D+00          E(Z)=    -0.55811069104D+04
 NORM(A)=   0.11577408D+01
 Iteration Nr.   3
 **********************
 DD1Dir will call FoFMem   1 times, MxPair=       506
 NAB=   253 NAA=     0 NBB=     0.
 DE(Z)  -0.79824651D+00          E(Z)=    -0.55811069100D+04
 NORM(A)=   0.11574408D+01
 Iteration Nr.   4
 **********************
 DD1Dir will call FoFMem   1 times, MxPair=       506
 NAB=   253 NAA=     0 NBB=     0.
 DE(Z)  -0.79824391D+00          E(Z)=    -0.55811069074D+04
 NORM(A)=   0.11567241D+01
 Iteration Nr.   5
 **********************
 DD1Dir will call FoFMem   1 times, MxPair=       506
 NAB=   253 NAA=     0 NBB=     0.
 DE(Z)  -0.79823611D+00          E(Z)=    -0.55811068996D+04
 NORM(A)=   0.11448449D+01
 Iteration Nr.   6
 **********************
 DD1Dir will call FoFMem   1 times, MxPair=       506
 NAB=   253 NAA=     0 NBB=     0.
 DE(Z)  -0.79813178D+00          E(Z)=    -0.55811067953D+04
 NORM(A)=   0.11448458D+01
 Iteration Nr.   7
 **********************
 DD1Dir will call FoFMem   1 times, MxPair=       506
 NAB=   253 NAA=     0 NBB=     0.
 DE(Z)  -0.79812925D+00          E(Z)=    -0.55811067928D+04
 NORM(A)=   0.11448448D+01
 Iteration Nr.   8
 **********************
 DD1Dir will call FoFMem   1 times, MxPair=       506
 NAB=   253 NAA=     0 NBB=     0.
 DE(Z)  -0.79813011D+00          E(Z)=    -0.55811067937D+04
 NORM(A)=   0.11448443D+01
 Iteration Nr.   9
 **********************
 DD1Dir will call FoFMem   1 times, MxPair=       506
 NAB=   253 NAA=     0 NBB=     0.
 DE(Z)  -0.79812924D+00          E(Z)=    -0.55811067928D+04
 NORM(A)=   0.11448442D+01
 Iteration Nr.  10
 **********************
 DD1Dir will call FoFMem   1 times, MxPair=       506
 NAB=   253 NAA=     0 NBB=     0.
 DE(Z)  -0.79812910D+00          E(Z)=    -0.55811067926D+04
 NORM(A)=   0.11448443D+01
 Iteration Nr.  11
 **********************
 DD1Dir will call FoFMem   1 times, MxPair=       506
 NAB=   253 NAA=     0 NBB=     0.
 DE(Z)  -0.79812916D+00          E(Z)=    -0.55811067927D+04
 NORM(A)=   0.11448446D+01
 Iteration Nr.  12
 **********************
 DD1Dir will call FoFMem   1 times, MxPair=       506
 NAB=   253 NAA=     0 NBB=     0.
 DE(Z)  -0.79812914D+00          E(Z)=    -0.55811067927D+04
 NORM(A)=   0.11448447D+01
 Iteration Nr.  13
 **********************
 DD1Dir will call FoFMem   1 times, MxPair=       506
 NAB=   253 NAA=     0 NBB=     0.
 DE(Z)  -0.79812917D+00          E(Z)=    -0.55811067927D+04
 NORM(A)=   0.11448447D+01
 Iteration Nr.  14
 **********************
 DD1Dir will call FoFMem   1 times, MxPair=       506
 NAB=   253 NAA=     0 NBB=     0.
 DE(Z)  -0.79812917D+00          E(Z)=    -0.55811067927D+04
 NORM(A)=   0.11448447D+01
 Iteration Nr.  15
 **********************
 DD1Dir will call FoFMem   1 times, MxPair=       506
 NAB=   253 NAA=     0 NBB=     0.
 DE(Z)  -0.79812918D+00          E(Z)=    -0.55811067927D+04
 NORM(A)=   0.11448449D+01
 Iteration Nr.  16
 **********************
 DD1Dir will call FoFMem   1 times, MxPair=       506
 NAB=   253 NAA=     0 NBB=     0.
 DE(Z)  -0.79812919D+00          E(Z)=    -0.55811067927D+04
 NORM(A)=   0.11448452D+01
 Iteration Nr.  17
 **********************
 DD1Dir will call FoFMem   1 times, MxPair=       506
 NAB=   253 NAA=     0 NBB=     0.
 DE(Z)  -0.79812920D+00          E(Z)=    -0.55811067927D+04
 NORM(A)=   0.11448449D+01
 Iteration Nr.  18
 **********************
 DD1Dir will call FoFMem   1 times, MxPair=       506
 NAB=   253 NAA=     0 NBB=     0.
 DE(Z)  -0.79812919D+00          E(Z)=    -0.55811067927D+04
 NORM(A)=   0.11448448D+01
 Iteration Nr.  19
 **********************
 DD1Dir will call FoFMem   1 times, MxPair=       506
 NAB=   253 NAA=     0 NBB=     0.
 DE(Z)  -0.79812918D+00          E(Z)=    -0.55811067927D+04
 NORM(A)=   0.11448448D+01
 Iteration Nr.  20
 **********************
 DD1Dir will call FoFMem   1 times, MxPair=       506
 NAB=   253 NAA=     0 NBB=     0.
 DE(Z)  -0.79812918D+00          E(Z)=    -0.55811067927D+04
 NORM(A)=   0.11448448D+01
 Iteration Nr.  21
 **********************
 DD1Dir will call FoFMem   1 times, MxPair=       506
 NAB=   253 NAA=     0 NBB=     0.
 DE(Z)  -0.79812918D+00          E(Z)=    -0.55811067927D+04
 NORM(A)=   0.11448448D+01
 Discarding MO integrals.
          Differentiating once with respect to electric field.
                with respect to dipole field.
          Electric field/nuclear overlap derivatives assumed to be zero.
          Keep R1 ints in memory in canonical form, NReq=510060614.
          There are     1 degrees of freedom in the 1st order CPHF.  IDoFFX=0.
 LinEq1:  Iter=  0 NonCon=     1 RMS=1.78D-03 Max=6.60D-02
 AX will form     1 AO Fock derivatives at one time.
 LinEq1:  Iter=  1 NonCon=     1 RMS=8.41D-04 Max=1.81D-02
 LinEq1:  Iter=  2 NonCon=     1 RMS=3.81D-04 Max=1.47D-02
 LinEq1:  Iter=  3 NonCon=     1 RMS=1.25D-04 Max=4.33D-03
 LinEq1:  Iter=  4 NonCon=     1 RMS=4.84D-05 Max=9.28D-04
 LinEq1:  Iter=  5 NonCon=     1 RMS=9.57D-06 Max=1.72D-04
 LinEq1:  Iter=  6 NonCon=     1 RMS=3.25D-06 Max=7.86D-05
 LinEq1:  Iter=  7 NonCon=     1 RMS=7.08D-07 Max=2.20D-05
 LinEq1:  Iter=  8 NonCon=     1 RMS=1.38D-07 Max=4.12D-06
 LinEq1:  Iter=  9 NonCon=     1 RMS=3.37D-08 Max=1.03D-06
 LinEq1:  Iter= 10 NonCon=     1 RMS=9.44D-09 Max=2.07D-07
 LinEq1:  Iter= 11 NonCon=     1 RMS=1.98D-09 Max=4.95D-08
 LinEq1:  Iter= 12 NonCon=     1 RMS=3.83D-10 Max=9.04D-09
 LinEq1:  Iter= 13 NonCon=     1 RMS=9.86D-11 Max=1.98D-09
 LinEq1:  Iter= 14 NonCon=     0 RMS=2.68D-11 Max=4.87D-10
 Linear equations converged to 1.000D-10 1.000D-09 after    14 iterations.
 End of Minotr Frequency-dependent properties file   721 does not exist.
 End of Minotr Frequency-dependent properties file   722 does not exist.

 **********************************************************************

            Population analysis using the QCI/CC density.

 **********************************************************************

     Natural Orbital Coefficients:
                           1         2         3         4         5
     Eigenvalues --     2.00003   2.00002   2.00002   2.00002   2.00001
   1 1   C  1S          0.00000  -0.17656   0.31652   0.00000  -0.47062
   2        2S          0.00000   0.00356  -0.00987   0.00000   0.00723
   3        3S          0.00000  -0.00677   0.01187   0.00000  -0.01901
   4        4S          0.00000  -0.01140  -0.01475   0.00000  -0.00525
   5        5S          0.00000  -0.00463  -0.00481   0.00000  -0.00427
   6        6PX         0.00000   0.00001  -0.00001   0.00000   0.00002
   7        6PY        -0.00120   0.00000   0.00000  -0.00301   0.00000
   8        6PZ         0.00000   0.00105   0.00152   0.00000   0.00246
   9        7PX         0.00000   0.00000  -0.00003   0.00000   0.00001
  10        7PY        -0.00128   0.00000   0.00000  -0.00517   0.00000
  11        7PZ         0.00000  -0.00051   0.00391   0.00000   0.00053
  12        8PX         0.00000  -0.00004  -0.00005   0.00000  -0.00002
  13        8PY         0.01267   0.00000   0.00000  -0.00428   0.00000
  14        8PZ         0.00000  -0.00951   0.00639   0.00000  -0.00851
  15        9PX         0.00000  -0.00001   0.00001   0.00000   0.00001
  16        9PY         0.00364   0.00000   0.00000   0.00041   0.00000
  17        9PZ         0.00000   0.00005   0.00084   0.00000  -0.00140
  18       10D 0        0.00000  -0.00007   0.00012   0.00000  -0.00003
  19       10D+1        0.00000   0.00000   0.00000   0.00000   0.00000
  20       10D-1       -0.00035   0.00000   0.00000   0.00035   0.00000
  21       10D+2        0.00000   0.00003   0.00012   0.00000   0.00022
  22       10D-2        0.00000   0.00000   0.00000   0.00000   0.00000
  23       11D 0        0.00000  -0.00111  -0.00031   0.00000  -0.00015
  24       11D+1        0.00000  -0.00001   0.00001   0.00000  -0.00001
  25       11D-1        0.00000   0.00000   0.00000   0.00114   0.00000
  26       11D+2        0.00000  -0.00003   0.00160   0.00000  -0.00066
  27       11D-2        0.00001   0.00000   0.00000  -0.00001   0.00000
  28       12D 0        0.00000  -0.00423   0.00100   0.00000  -0.00476
  29       12D+1        0.00000  -0.00003   0.00002   0.00000   0.00000
  30       12D-1       -0.00633   0.00000   0.00000   0.00305   0.00000
  31       12D+2        0.00000  -0.00151   0.00200   0.00000  -0.00201
  32       12D-2        0.00005   0.00000   0.00000  -0.00003   0.00000
  33       13F 0        0.00000  -0.00001   0.00001   0.00000   0.00009
  34       13F+1        0.00000   0.00000   0.00000   0.00000   0.00000
  35       13F-1       -0.00031   0.00000   0.00000  -0.00007   0.00000
  36       13F+2        0.00000  -0.00007   0.00001   0.00000  -0.00009
  37       13F-2        0.00000   0.00000   0.00000   0.00000   0.00000
  38       13F+3        0.00000   0.00000   0.00000   0.00000   0.00000
  39       13F-3        0.00006   0.00000   0.00000  -0.00007   0.00000
  40       14F 0        0.00000   0.00017  -0.00011   0.00000   0.00104
  41       14F+1        0.00000   0.00000  -0.00001   0.00000  -0.00001
  42       14F-1        0.00184   0.00000   0.00000   0.00072   0.00000
  43       14F+2        0.00000   0.00044  -0.00036   0.00000   0.00106
  44       14F-2        0.00001   0.00000   0.00000  -0.00001   0.00000
  45       14F+3        0.00000   0.00001   0.00000   0.00000   0.00001
  46       14F-3       -0.00029   0.00000   0.00000   0.00021   0.00000
  47 2   S  1S          0.00000  -0.21720  -0.00892   0.00000   0.15684
  48        2S          0.00000   0.74232   0.03101   0.00000  -0.54144
  49        3S          0.00000  -0.02058  -0.00111   0.00000   0.00839
  50        4S          0.00000   0.04976   0.00204   0.00000  -0.03880
  51        5S          0.00000   0.01158  -0.00108   0.00000   0.01514
  52        6S          0.00000   0.00172   0.00026   0.00000   0.00422
  53        7PX         0.00000   0.00183   0.00133   0.00000  -0.00515
  54        7PY         0.97039   0.00000   0.00000   0.09475   0.00000
  55        7PZ         0.00000   0.62306   0.02304   0.00000   0.49628
  56        8PX         0.00000  -0.00005  -0.00002   0.00000   0.00006
  57        8PY        -0.01890   0.00000   0.00000  -0.00127   0.00000
  58        8PZ         0.00000  -0.01237  -0.00058   0.00000  -0.00849
  59        9PX         0.00000   0.00012   0.00008   0.00000  -0.00032
  60        9PY         0.05629   0.00000   0.00000   0.00579   0.00000
  61        9PZ         0.00000   0.03838   0.00150   0.00000   0.03232
  62       10PX         0.00000  -0.00006  -0.00001   0.00000  -0.00006
  63       10PY        -0.00357   0.00000   0.00000  -0.00104   0.00000
  64       10PZ         0.00000  -0.00859  -0.00066   0.00000  -0.00538
  65       11PX         0.00000   0.00000  -0.00001   0.00000   0.00000
  66       11PY        -0.00129   0.00000   0.00000  -0.00007   0.00000
  67       11PZ         0.00000  -0.00023  -0.00020   0.00000  -0.00027
  68       12D 0        0.00000   0.00230   0.00017   0.00000   0.00223
  69       12D+1        0.00000   0.00003   0.00000   0.00000   0.00001
  70       12D-1        0.00268   0.00000   0.00000   0.00071   0.00000
  71       12D+2        0.00000  -0.00040  -0.00006   0.00000  -0.00009
  72       12D-2        0.00002   0.00000   0.00000   0.00001   0.00000
  73       13D 0        0.00000   0.00016  -0.00015   0.00000  -0.00021
  74       13D+1        0.00000   0.00000   0.00000   0.00000   0.00000
  75       13D-1       -0.00036   0.00000   0.00000   0.00019   0.00000
  76       13D+2        0.00000   0.00030   0.00002   0.00000  -0.00017
  77       13D-2        0.00000   0.00000   0.00000   0.00000   0.00000
  78       14D 0        0.00000   0.00122   0.00027   0.00000   0.00045
  79       14D+1        0.00000   0.00002   0.00001   0.00000   0.00002
  80       14D-1       -0.00080   0.00000   0.00000   0.00021   0.00000
  81       14D+2        0.00000   0.00049  -0.00036   0.00000   0.00032
  82       14D-2       -0.00002   0.00000   0.00000   0.00002   0.00000
  83       15F 0        0.00000  -0.00019   0.00011   0.00000  -0.00017
  84       15F+1        0.00000   0.00000   0.00000   0.00000   0.00000
  85       15F-1       -0.00015   0.00000   0.00000  -0.00011   0.00000
  86       15F+2        0.00000   0.00013   0.00002   0.00000   0.00017
  87       15F-2        0.00000   0.00000   0.00000   0.00000   0.00000
  88       15F+3        0.00000   0.00000   0.00000   0.00000   0.00000
  89       15F-3        0.00011   0.00000   0.00000   0.00000   0.00000
  90       16F 0        0.00000  -0.00044  -0.00005   0.00000  -0.00034
  91       16F+1        0.00000  -0.00001   0.00000   0.00000  -0.00001
  92       16F-1       -0.00084   0.00000   0.00000  -0.00009   0.00000
  93       16F+2        0.00000  -0.00013   0.00012   0.00000  -0.00004
  94       16F-2        0.00000   0.00000   0.00000  -0.00001   0.00000
  95       16F+3        0.00000   0.00000   0.00000   0.00000   0.00000
  96       16F-3       -0.00019   0.00000   0.00000   0.00001   0.00000
  97 3   Br 1S          0.00047   0.00074  -0.04005   0.03728  -0.04184
  98        2S         -0.00185  -0.00276   0.14816  -0.13788   0.15563
  99        3S          0.00419   0.00602  -0.31090   0.28804  -0.33426
 100        4S         -0.00097  -0.00021  -0.00083   0.00067  -0.00207
 101        5S         -0.00012   0.00017  -0.01686   0.01551  -0.01622
 102        6S          0.01026  -0.00194   0.00550  -0.00302  -0.00565
 103        7S          0.00681   0.00109   0.00240   0.00058   0.00022
 104        8PX        -0.00018   0.00002  -0.00154   0.00166   0.00107
 105        8PY         0.02286   0.00491   0.20296  -0.22284  -0.01571
 106        8PZ         0.01993   0.00616   0.12984  -0.13384   0.01193
 107        9PX         0.00047  -0.00007   0.00398  -0.00431  -0.00310
 108        9PY        -0.06056  -0.01266  -0.52751   0.58120   0.05250
 109        9PZ        -0.05376  -0.01679  -0.33809   0.34740  -0.02862
 110       10PX        -0.00001   0.00000  -0.00002   0.00001   0.00000
 111       10PY         0.00065  -0.00051   0.00264  -0.00088  -0.00078
 112       10PZ        -0.00051  -0.00040   0.00140  -0.00135  -0.00092
 113       11PX         0.00003  -0.00001   0.00019  -0.00021  -0.00015
 114       11PY        -0.00336  -0.00063  -0.02505   0.02746   0.00243
 115       11PZ        -0.00312  -0.00100  -0.01616   0.01642  -0.00142
 116       12PX        -0.00003   0.00000  -0.00001  -0.00001   0.00000
 117       12PY         0.00468   0.00018   0.00156   0.00111   0.00049
 118       12PZ         0.00203  -0.00164   0.00126   0.00026  -0.00218
 119       13PX        -0.00001   0.00000  -0.00001   0.00000   0.00000
 120       13PY         0.00068   0.00025   0.00044   0.00002   0.00004
 121       13PZ         0.00057   0.00012   0.00017   0.00001   0.00025
 122       14D 0        0.00001  -0.00001   0.00167  -0.00161   0.00090
 123       14D+1        0.00002   0.00000   0.00020  -0.00021   0.00002
 124       14D-1       -0.00304  -0.00089  -0.02814   0.03039  -0.00190
 125       14D+2        0.00189   0.00066   0.01791  -0.01924   0.00220
 126       14D-2        0.00003   0.00001   0.00029  -0.00031   0.00003
 127       15D 0        0.00006   0.00000   0.00021  -0.00010   0.00006
 128       15D+1        0.00000   0.00000   0.00002  -0.00002   0.00000
 129       15D-1       -0.00023  -0.00010  -0.00277   0.00294  -0.00034
 130       15D+2        0.00012   0.00011   0.00189  -0.00189   0.00037
 131       15D-2        0.00000   0.00000   0.00003  -0.00003   0.00000
 132       16D 0       -0.00001   0.00020  -0.00001  -0.00017   0.00025
 133       16D+1        0.00000   0.00000  -0.00001   0.00001   0.00001
 134       16D-1        0.00034   0.00009   0.00108  -0.00057  -0.00033
 135       16D+2       -0.00040  -0.00001  -0.00085   0.00034   0.00009
 136       16D-2       -0.00001   0.00000  -0.00001   0.00001   0.00001
 137       17D 0       -0.00009  -0.00025   0.00003   0.00017  -0.00036
 138       17D+1        0.00000   0.00001  -0.00001  -0.00001   0.00001
 139       17D-1        0.00116  -0.00022   0.00062  -0.00025  -0.00029
 140       17D+2       -0.00062  -0.00024  -0.00044  -0.00016  -0.00032
 141       17D-2       -0.00001   0.00000   0.00000   0.00000   0.00000
 142       18F 0        0.00008   0.00002   0.00025  -0.00031   0.00004
 143       18F+1        0.00000   0.00000   0.00000   0.00000   0.00000
 144       18F-1       -0.00003   0.00000  -0.00011   0.00013  -0.00004
 145       18F+2        0.00001   0.00004   0.00040  -0.00044   0.00010
 146       18F-2        0.00000   0.00000   0.00001  -0.00001   0.00000
 147       18F+3        0.00000   0.00000   0.00000   0.00001   0.00000
 148       18F-3       -0.00007   0.00003   0.00021  -0.00023   0.00007
 149       19F 0       -0.00002   0.00006  -0.00032   0.00032   0.00025
 150       19F+1        0.00001   0.00000   0.00000   0.00000   0.00000
 151       19F-1       -0.00004   0.00006   0.00018  -0.00027   0.00006
 152       19F+2        0.00000  -0.00006  -0.00059   0.00046   0.00002
 153       19F-2        0.00000   0.00000  -0.00001   0.00001   0.00001
 154       19F+3        0.00001   0.00000   0.00001  -0.00001   0.00000
 155       19F-3        0.00006  -0.00008  -0.00034   0.00017  -0.00011
 156 4   Br 1S         -0.00047   0.00074  -0.04005  -0.03728  -0.04184
 157        2S          0.00185  -0.00276   0.14816   0.13788   0.15563
 158        3S         -0.00419   0.00602  -0.31090  -0.28804  -0.33426
 159        4S          0.00097  -0.00021  -0.00083  -0.00067  -0.00207
 160        5S          0.00012   0.00017  -0.01686  -0.01551  -0.01622
 161        6S         -0.01026  -0.00194   0.00550   0.00302  -0.00565
 162        7S         -0.00681   0.00109   0.00240  -0.00058   0.00022
 163        8PX         0.00018   0.00002  -0.00154  -0.00166   0.00107
 164        8PY         0.02286  -0.00491  -0.20296  -0.22284   0.01571
 165        8PZ        -0.01993   0.00616   0.12984   0.13384   0.01193
 166        9PX        -0.00047  -0.00007   0.00398   0.00431  -0.00310
 167        9PY        -0.06056   0.01266   0.52751   0.58120  -0.05250
 168        9PZ         0.05376  -0.01679  -0.33809  -0.34740  -0.02862
 169       10PX         0.00001   0.00000  -0.00002  -0.00001   0.00000
 170       10PY         0.00065   0.00051  -0.00264  -0.00088   0.00078
 171       10PZ         0.00051  -0.00040   0.00140   0.00135  -0.00092
 172       11PX        -0.00003  -0.00001   0.00019   0.00021  -0.00015
 173       11PY        -0.00336   0.00063   0.02505   0.02746  -0.00243
 174       11PZ         0.00312  -0.00100  -0.01616  -0.01642  -0.00142
 175       12PX         0.00003   0.00000  -0.00001   0.00001   0.00000
 176       12PY         0.00468  -0.00018  -0.00156   0.00111  -0.00049
 177       12PZ        -0.00203  -0.00164   0.00126  -0.00026  -0.00218
 178       13PX         0.00001   0.00000  -0.00001   0.00000   0.00000
 179       13PY         0.00068  -0.00025  -0.00044   0.00002  -0.00004
 180       13PZ        -0.00057   0.00012   0.00017  -0.00001   0.00025
 181       14D 0       -0.00001  -0.00001   0.00167   0.00161   0.00090
 182       14D+1       -0.00002   0.00000   0.00020   0.00021   0.00002
 183       14D-1       -0.00304   0.00089   0.02814   0.03039   0.00190
 184       14D+2       -0.00189   0.00066   0.01791   0.01924   0.00220
 185       14D-2        0.00003  -0.00001  -0.00029  -0.00031  -0.00003
 186       15D 0       -0.00006   0.00000   0.00021   0.00010   0.00006
 187       15D+1        0.00000   0.00000   0.00002   0.00002   0.00000
 188       15D-1       -0.00023   0.00010   0.00277   0.00294   0.00034
 189       15D+2       -0.00012   0.00011   0.00189   0.00189   0.00037
 190       15D-2        0.00000   0.00000  -0.00003  -0.00003   0.00000
 191       16D 0        0.00001   0.00020  -0.00001   0.00017   0.00025
 192       16D+1        0.00000   0.00000  -0.00001  -0.00001   0.00001
 193       16D-1        0.00034  -0.00009  -0.00108  -0.00057   0.00033
 194       16D+2        0.00040  -0.00001  -0.00085  -0.00034   0.00009
 195       16D-2       -0.00001   0.00000   0.00001   0.00001  -0.00001
 196       17D 0        0.00009  -0.00025   0.00003  -0.00017  -0.00036
 197       17D+1        0.00000   0.00001  -0.00001   0.00001   0.00001
 198       17D-1        0.00116   0.00022  -0.00062  -0.00025   0.00029
 199       17D+2        0.00062  -0.00024  -0.00044   0.00016  -0.00032
 200       17D-2       -0.00001   0.00000   0.00000   0.00000   0.00000
 201       18F 0       -0.00008   0.00002   0.00025   0.00031   0.00004
 202       18F+1        0.00000   0.00000   0.00000   0.00000   0.00000
 203       18F-1       -0.00003   0.00000   0.00011   0.00013   0.00004
 204       18F+2       -0.00001   0.00004   0.00040   0.00044   0.00010
 205       18F-2        0.00000   0.00000  -0.00001  -0.00001   0.00000
 206       18F+3        0.00000   0.00000   0.00000  -0.00001   0.00000
 207       18F-3       -0.00007  -0.00003  -0.00021  -0.00023  -0.00007
 208       19F 0        0.00002   0.00006  -0.00032  -0.00032   0.00025
 209       19F+1       -0.00001   0.00000   0.00000   0.00000   0.00000
 210       19F-1       -0.00004  -0.00006  -0.00018  -0.00027  -0.00006
 211       19F+2        0.00000  -0.00006  -0.00059  -0.00046   0.00002
 212       19F-2        0.00000   0.00000   0.00001   0.00001  -0.00001
 213       19F+3       -0.00001   0.00000   0.00001   0.00001   0.00000
 214       19F-3        0.00006   0.00008   0.00034   0.00017   0.00011
                           6         7         8         9        10
     Eigenvalues --     2.00001   2.00001   2.00001   2.00001   2.00001
   1 1   C  1S          0.00000   0.08433  -0.00774   0.00000  -0.09447
   2        2S          0.00000  -0.00244   0.00010   0.00000   0.00143
   3        3S          0.00000   0.00315  -0.00031   0.00000  -0.00386
   4        4S          0.00000   0.00911  -0.00008   0.00000   0.00130
   5        5S          0.00000   0.00135   0.00002   0.00000  -0.00071
   6        6PX         0.00000  -0.00001  -0.00073   0.00000  -0.00001
   7        6PY         0.00001   0.00000   0.00000  -0.00032   0.00000
   8        6PZ         0.00000  -0.00114   0.00002   0.00000   0.00055
   9        7PX         0.00000   0.00000  -0.00006   0.00000   0.00000
  10        7PY         0.00017   0.00000   0.00000  -0.00044   0.00000
  11        7PZ         0.00000  -0.00052  -0.00001   0.00000   0.00013
  12        8PX         0.00000   0.00003   0.00157   0.00000   0.00005
  13        8PY         0.00061   0.00000   0.00000  -0.00527   0.00000
  14        8PZ         0.00000   0.00320  -0.00039   0.00000   0.00942
  15        9PX         0.00000  -0.00001  -0.00091   0.00000  -0.00001
  16        9PY         0.00257   0.00000   0.00000  -0.00119   0.00000
  17        9PZ         0.00000   0.00109  -0.00008   0.00000   0.00166
  18       10D 0        0.00000  -0.00008   0.00000   0.00000  -0.00015
  19       10D+1        0.00000   0.00000  -0.00021   0.00000   0.00000
  20       10D-1       -0.00013   0.00000   0.00000  -0.00005   0.00000
  21       10D+2        0.00000   0.00007   0.00000   0.00000  -0.00006
  22       10D-2        0.00000   0.00000   0.00000   0.00000   0.00000
  23       11D 0        0.00000   0.00029  -0.00002   0.00000  -0.00029
  24       11D+1        0.00000   0.00000   0.00057   0.00000   0.00001
  25       11D-1       -0.00001   0.00000   0.00000  -0.00039   0.00000
  26       11D+2        0.00000  -0.00026   0.00000   0.00000  -0.00031
  27       11D-2        0.00000   0.00000   0.00000  -0.00001   0.00000
  28       12D 0        0.00000   0.00183  -0.00008   0.00000   0.00016
  29       12D+1        0.00000   0.00001  -0.00136   0.00000   0.00005
  30       12D-1        0.00099   0.00000   0.00000   0.00065   0.00000
  31       12D+2        0.00000   0.00020  -0.00002   0.00000   0.00041
  32       12D-2        0.00000   0.00000   0.00000  -0.00003   0.00000
  33       13F 0        0.00000  -0.00013   0.00000   0.00000  -0.00002
  34       13F+1        0.00000   0.00000  -0.00013   0.00000   0.00000
  35       13F-1        0.00002   0.00000   0.00000   0.00003   0.00000
  36       13F+2        0.00000  -0.00001   0.00000   0.00000   0.00005
  37       13F-2        0.00000   0.00000   0.00000   0.00000   0.00000
  38       13F+3        0.00000   0.00000   0.00005   0.00000   0.00000
  39       13F-3       -0.00002   0.00000   0.00000  -0.00003   0.00000
  40       14F 0        0.00000   0.00002  -0.00001   0.00000   0.00048
  41       14F+1        0.00000   0.00000   0.00095   0.00000   0.00001
  42       14F-1        0.00000   0.00000   0.00000  -0.00032   0.00000
  43       14F+2        0.00000  -0.00001   0.00002   0.00000  -0.00032
  44       14F-2        0.00000   0.00000   0.00000   0.00000   0.00000
  45       14F+3        0.00000  -0.00001  -0.00031   0.00000  -0.00001
  46       14F-3        0.00002   0.00000   0.00000   0.00022   0.00000
  47 2   S  1S          0.00000  -0.08748   0.00096   0.00000   0.01598
  48        2S          0.00000   0.30152  -0.00333   0.00000  -0.05598
  49        3S          0.00000  -0.00497   0.00004   0.00000   0.00095
  50        4S          0.00000   0.02164  -0.00025   0.00000  -0.00404
  51        5S          0.00000  -0.00803   0.00039   0.00000  -0.00616
  52        6S          0.00000  -0.00274   0.00018   0.00000  -0.00417
  53        7PX         0.00000   0.00189   0.72625   0.00000   0.00812
  54        7PY         0.04504   0.00000   0.00000   0.02314   0.00000
  55        7PZ         0.00000  -0.29397  -0.00047   0.00000   0.04935
  56        8PX         0.00000  -0.00001  -0.00923   0.00000  -0.00009
  57        8PY        -0.00054   0.00000   0.00000   0.00040   0.00000
  58        8PZ         0.00000   0.00525  -0.00005   0.00000  -0.00004
  59        9PX         0.00000   0.00011   0.04623   0.00000   0.00051
  60        9PY         0.00278   0.00000   0.00000   0.00136   0.00000
  61        9PZ         0.00000  -0.01907  -0.00001   0.00000   0.00315
  62       10PX         0.00000   0.00003   0.00045   0.00000  -0.00002
  63       10PY        -0.00063   0.00000   0.00000   0.00135   0.00000
  64       10PZ         0.00000   0.00350  -0.00019   0.00000   0.00394
  65       11PX         0.00000   0.00000  -0.00015   0.00000   0.00000
  66       11PY        -0.00047   0.00000   0.00000   0.00012   0.00000
  67       11PZ         0.00000   0.00020  -0.00001   0.00000   0.00052
  68       12D 0        0.00000  -0.00140   0.00001   0.00000   0.00017
  69       12D+1        0.00000  -0.00001   0.00161   0.00000   0.00001
  70       12D-1        0.00022   0.00000   0.00000  -0.00046   0.00000
  71       12D+2        0.00000  -0.00010   0.00001   0.00000   0.00008
  72       12D-2        0.00000   0.00000   0.00000   0.00000   0.00000
  73       13D 0        0.00000   0.00016   0.00000   0.00000  -0.00004
  74       13D+1        0.00000   0.00000  -0.00018   0.00000   0.00000
  75       13D-1        0.00000   0.00000   0.00000   0.00008   0.00000
  76       13D+2        0.00000   0.00012   0.00000   0.00000  -0.00005
  77       13D-2        0.00000   0.00000   0.00000   0.00000   0.00000
  78       14D 0        0.00000  -0.00044   0.00003   0.00000  -0.00062
  79       14D+1        0.00000  -0.00001  -0.00044   0.00000   0.00001
  80       14D-1        0.00015   0.00000   0.00000  -0.00053   0.00000
  81       14D+2        0.00000  -0.00001  -0.00001   0.00000  -0.00010
  82       14D-2        0.00001   0.00000   0.00000   0.00000   0.00000
  83       15F 0        0.00000   0.00003   0.00000   0.00000  -0.00002
  84       15F+1        0.00000   0.00000  -0.00019   0.00000   0.00000
  85       15F-1       -0.00004   0.00000   0.00000   0.00006   0.00000
  86       15F+2        0.00000  -0.00007   0.00000   0.00000  -0.00005
  87       15F-2        0.00000   0.00000   0.00000   0.00000   0.00000
  88       15F+3        0.00000   0.00000   0.00011   0.00000   0.00000
  89       15F-3        0.00001   0.00000   0.00000  -0.00001   0.00000
  90       16F 0        0.00000   0.00028   0.00001   0.00000  -0.00023
  91       16F+1        0.00000   0.00000  -0.00036   0.00000  -0.00001
  92       16F-1       -0.00003   0.00000   0.00000   0.00018   0.00000
  93       16F+2        0.00000   0.00010   0.00000   0.00000   0.00003
  94       16F-2        0.00000   0.00000   0.00000   0.00000   0.00000
  95       16F+3        0.00000   0.00000  -0.00009   0.00000   0.00000
  96       16F-3       -0.00004   0.00000   0.00000   0.00002   0.00000
  97 3   Br 1S         -0.08440  -0.07176  -0.00006  -0.00585   0.00598
  98        2S          0.31434   0.26739   0.00022   0.02192  -0.02242
  99        3S         -0.67781  -0.57780  -0.00045  -0.04762   0.04917
 100        4S         -0.00211  -0.00150   0.00000  -0.00010  -0.00007
 101        5S         -0.03285  -0.02777  -0.00002  -0.00227   0.00233
 102        6S         -0.00624  -0.00572  -0.00014  -0.00323   0.00342
 103        7S          0.00415   0.00079  -0.00009  -0.00204   0.00205
 104        8PX         0.00054  -0.00007  -0.17436  -0.00103  -0.00268
 105        8PY        -0.09733  -0.07881  -0.00250   0.12886   0.15808
 106        8PZ        -0.03662  -0.08906   0.00274  -0.23025  -0.20932
 107        9PX        -0.00152   0.00026   0.49304   0.00290   0.00752
 108        9PY         0.27376   0.21609   0.00717  -0.36358  -0.43944
 109        9PZ         0.10301   0.24784  -0.00760   0.64474   0.58883
 110       10PX         0.00000   0.00001   0.00120   0.00001   0.00001
 111       10PY         0.00005  -0.00057  -0.00001  -0.00134   0.00014
 112       10PZ        -0.00023   0.00010  -0.00001   0.00089   0.00113
 113       11PX        -0.00007   0.00001   0.02217   0.00013   0.00034
 114       11PY         0.01241   0.00976   0.00032  -0.01616  -0.01946
 115       11PZ         0.00462   0.01136  -0.00034   0.02868   0.02614
 116       12PX        -0.00001   0.00001   0.00154   0.00001   0.00003
 117       12PY         0.00209   0.00001  -0.00004  -0.00355   0.00025
 118       12PZ         0.00100   0.00134  -0.00009   0.00213   0.00325
 119       13PX        -0.00001   0.00000   0.00022   0.00000   0.00000
 120       13PY         0.00042   0.00011  -0.00002  -0.00011   0.00048
 121       13PZ         0.00047  -0.00007   0.00000  -0.00047  -0.00007
 122       14D 0        0.00070  -0.00154   0.00012  -0.00988  -0.00980
 123       14D+1       -0.00003  -0.00005  -0.00036  -0.00002   0.00000
 124       14D-1        0.00630   0.00736   0.00002  -0.00406  -0.00751
 125       14D+2       -0.00278  -0.00561   0.00010  -0.00693  -0.00496
 126       14D-2       -0.00005  -0.00008  -0.00012  -0.00004  -0.00001
 127       15D 0        0.00007  -0.00010   0.00001  -0.00062  -0.00058
 128       15D+1        0.00000   0.00000  -0.00001   0.00000   0.00000
 129       15D-1        0.00033   0.00053   0.00000  -0.00026  -0.00047
 130       15D+2       -0.00011  -0.00042   0.00001  -0.00046  -0.00027
 131       15D-2        0.00000  -0.00001   0.00010   0.00000   0.00000
 132       16D 0        0.00004  -0.00018   0.00001  -0.00026  -0.00042
 133       16D+1        0.00000   0.00000  -0.00015   0.00000   0.00000
 134       16D-1        0.00027  -0.00011   0.00000  -0.00019  -0.00018
 135       16D+2       -0.00011   0.00002   0.00002  -0.00012  -0.00031
 136       16D-2        0.00000   0.00000  -0.00035   0.00000  -0.00001
 137       17D 0        0.00010   0.00006   0.00000   0.00006  -0.00033
 138       17D+1        0.00000   0.00000  -0.00027   0.00000  -0.00001
 139       17D-1        0.00023   0.00001  -0.00002  -0.00032   0.00024
 140       17D+2       -0.00031   0.00020   0.00001   0.00022  -0.00041
 141       17D-2        0.00000   0.00000  -0.00054   0.00000   0.00000
 142       18F 0       -0.00008  -0.00009   0.00000   0.00005   0.00010
 143       18F+1        0.00000   0.00000   0.00001   0.00000   0.00000
 144       18F-1        0.00001   0.00006   0.00000   0.00035   0.00032
 145       18F+2       -0.00010  -0.00014   0.00000  -0.00002   0.00002
 146       18F-2        0.00000   0.00000   0.00018   0.00000   0.00000
 147       18F+3        0.00000   0.00000  -0.00018   0.00000   0.00000
 148       18F-3       -0.00003  -0.00008   0.00000   0.00013   0.00009
 149       19F 0        0.00007   0.00002   0.00000  -0.00005  -0.00008
 150       19F+1        0.00000   0.00000  -0.00001   0.00000   0.00000
 151       19F-1        0.00004  -0.00013   0.00001  -0.00029  -0.00042
 152       19F+2        0.00002   0.00014   0.00000   0.00000   0.00002
 153       19F-2        0.00000   0.00000  -0.00021   0.00000   0.00000
 154       19F+3        0.00000   0.00000   0.00035   0.00000   0.00001
 155       19F-3       -0.00004   0.00010   0.00001  -0.00016  -0.00010
 156 4   Br 1S          0.08440  -0.07176  -0.00006   0.00585   0.00598
 157        2S         -0.31434   0.26739   0.00022  -0.02192  -0.02242
 158        3S          0.67781  -0.57780  -0.00045   0.04762   0.04917
 159        4S          0.00211  -0.00150   0.00000   0.00010  -0.00007
 160        5S          0.03285  -0.02777  -0.00002   0.00227   0.00233
 161        6S          0.00624  -0.00572  -0.00014   0.00323   0.00342
 162        7S         -0.00415   0.00079  -0.00009   0.00204   0.00205
 163        8PX        -0.00054  -0.00007  -0.17436   0.00103  -0.00268
 164        8PY        -0.09733   0.07881   0.00250   0.12886  -0.15808
 165        8PZ         0.03662  -0.08906   0.00274   0.23025  -0.20932
 166        9PX         0.00152   0.00026   0.49304  -0.00290   0.00752
 167        9PY         0.27376  -0.21609  -0.00717  -0.36358   0.43944
 168        9PZ        -0.10301   0.24784  -0.00760  -0.64474   0.58883
 169       10PX         0.00000   0.00001   0.00120  -0.00001   0.00001
 170       10PY         0.00005   0.00057   0.00001  -0.00134  -0.00014
 171       10PZ         0.00023   0.00010  -0.00001  -0.00089   0.00113
 172       11PX         0.00007   0.00001   0.02217  -0.00013   0.00034
 173       11PY         0.01241  -0.00976  -0.00032  -0.01616   0.01946
 174       11PZ        -0.00462   0.01136  -0.00034  -0.02868   0.02614
 175       12PX         0.00001   0.00001   0.00154  -0.00001   0.00003
 176       12PY         0.00209  -0.00001   0.00004  -0.00355  -0.00025
 177       12PZ        -0.00100   0.00134  -0.00009  -0.00213   0.00325
 178       13PX         0.00001   0.00000   0.00022   0.00000   0.00000
 179       13PY         0.00042  -0.00011   0.00002  -0.00011  -0.00048
 180       13PZ        -0.00047  -0.00007   0.00000   0.00047  -0.00007
 181       14D 0       -0.00070  -0.00154   0.00012   0.00988  -0.00980
 182       14D+1        0.00003  -0.00005  -0.00036   0.00002   0.00000
 183       14D-1        0.00630  -0.00736  -0.00002  -0.00406   0.00751
 184       14D+2        0.00278  -0.00561   0.00010   0.00693  -0.00496
 185       14D-2       -0.00005   0.00008   0.00012  -0.00004   0.00001
 186       15D 0       -0.00007  -0.00010   0.00001   0.00062  -0.00058
 187       15D+1        0.00000   0.00000  -0.00001   0.00000   0.00000
 188       15D-1        0.00033  -0.00053   0.00000  -0.00026   0.00047
 189       15D+2        0.00011  -0.00042   0.00001   0.00046  -0.00027
 190       15D-2        0.00000   0.00001  -0.00010   0.00000   0.00000
 191       16D 0       -0.00004  -0.00018   0.00001   0.00026  -0.00042
 192       16D+1        0.00000   0.00000  -0.00015   0.00000   0.00000
 193       16D-1        0.00027   0.00011   0.00000  -0.00019   0.00018
 194       16D+2        0.00011   0.00002   0.00002   0.00012  -0.00031
 195       16D-2        0.00000   0.00000   0.00035   0.00000   0.00001
 196       17D 0       -0.00010   0.00006   0.00000  -0.00006  -0.00033
 197       17D+1        0.00000   0.00000  -0.00027   0.00000  -0.00001
 198       17D-1        0.00023  -0.00001   0.00002  -0.00032  -0.00024
 199       17D+2        0.00031   0.00020   0.00001  -0.00022  -0.00041
 200       17D-2        0.00000   0.00000   0.00054   0.00000   0.00000
 201       18F 0        0.00008  -0.00009   0.00000  -0.00005   0.00010
 202       18F+1        0.00000   0.00000   0.00001   0.00000   0.00000
 203       18F-1        0.00001  -0.00006   0.00000   0.00035  -0.00032
 204       18F+2        0.00010  -0.00014   0.00000   0.00002   0.00002
 205       18F-2        0.00000   0.00000  -0.00018   0.00000   0.00000
 206       18F+3        0.00000   0.00000  -0.00018   0.00000   0.00000
 207       18F-3       -0.00003   0.00008   0.00000   0.00013  -0.00009
 208       19F 0       -0.00007   0.00002   0.00000   0.00005  -0.00008
 209       19F+1        0.00000   0.00000  -0.00001   0.00000   0.00000
 210       19F-1        0.00004   0.00013  -0.00001  -0.00029   0.00042
 211       19F+2       -0.00002   0.00014   0.00000   0.00000   0.00002
 212       19F-2        0.00000   0.00000   0.00021   0.00000   0.00000
 213       19F+3        0.00000   0.00000   0.00035   0.00000   0.00001
 214       19F-3       -0.00004  -0.00010  -0.00001  -0.00016   0.00010
                          11        12        13        14        15
     Eigenvalues --     2.00001   2.00000   2.00000   2.00000   2.00000
   1 1   C  1S          0.00000  -0.00919   0.76996  -0.00107   0.00000
   2        2S          0.00000   0.00011  -0.00782   0.00001   0.00000
   3        3S          0.00000  -0.00038   0.03228  -0.00005   0.00000
   4        4S          0.00000  -0.00001  -0.01010  -0.00017   0.00000
   5        5S          0.00000   0.00004  -0.00549   0.00007   0.00000
   6        6PX         0.00000  -0.00154  -0.00001   0.00000   0.00000
   7        6PY         0.00000   0.00000   0.00000   0.00000   0.00000
   8        6PZ         0.00000   0.00001  -0.00058   0.00001   0.00000
   9        7PX         0.00000  -0.00173  -0.00001   0.00000   0.00000
  10        7PY         0.00000   0.00000   0.00000   0.00000  -0.00001
  11        7PZ         0.00000  -0.00002   0.00165   0.00002   0.00000
  12        8PX         0.00000  -0.00154  -0.00004   0.00000   0.00000
  13        8PY         0.00009   0.00000   0.00000   0.00000   0.00033
  14        8PZ         0.00000  -0.00023  -0.00401  -0.00102   0.00000
  15        9PX         0.00000  -0.00048  -0.00004   0.00000   0.00000
  16        9PY         0.00005   0.00000   0.00000   0.00000   0.00012
  17        9PZ         0.00000  -0.00006   0.00069  -0.00018   0.00000
  18       10D 0        0.00000   0.00000   0.00030   0.00000   0.00000
  19       10D+1        0.00000  -0.00008   0.00000   0.00000   0.00000
  20       10D-1        0.00000   0.00000   0.00000   0.00000   0.00000
  21       10D+2        0.00000   0.00000  -0.00027   0.00000   0.00000
  22       10D-2       -0.00009   0.00000   0.00000   0.00000   0.00000
  23       11D 0        0.00000  -0.00002  -0.00032   0.00001   0.00000
  24       11D+1        0.00000   0.00108   0.00003   0.00000   0.00000
  25       11D-1       -0.00001   0.00000   0.00000   0.00000   0.00002
  26       11D+2        0.00000  -0.00002   0.00151   0.00001   0.00000
  27       11D-2       -0.00066   0.00000   0.00000   0.00000   0.00000
  28       12D 0        0.00000  -0.00002  -0.00404  -0.00010   0.00000
  29       12D+1        0.00000  -0.00147  -0.00004  -0.00001   0.00000
  30       12D-1       -0.00009   0.00000   0.00000   0.00000  -0.00001
  31       12D+2        0.00000  -0.00002  -0.00150  -0.00008   0.00000
  32       12D-2        0.00006   0.00000   0.00000   0.00000   0.00000
  33       13F 0        0.00000   0.00000   0.00034   0.00001   0.00000
  34       13F+1        0.00000  -0.00008   0.00000   0.00000   0.00000
  35       13F-1        0.00000   0.00000   0.00000   0.00000   0.00001
  36       13F+2        0.00000   0.00000  -0.00007  -0.00001   0.00000
  37       13F-2        0.00000   0.00000   0.00000   0.00000   0.00000
  38       13F+3        0.00000   0.00001   0.00000   0.00000   0.00000
  39       13F-3        0.00000   0.00000   0.00000   0.00000   0.00000
  40       14F 0        0.00000  -0.00001  -0.00109  -0.00004   0.00000
  41       14F+1        0.00000   0.00051   0.00002   0.00000   0.00000
  42       14F-1        0.00000   0.00000   0.00000   0.00000  -0.00006
  43       14F+2        0.00000   0.00002  -0.00087   0.00005   0.00000
  44       14F-2        0.00019   0.00000   0.00000   0.00000   0.00000
  45       14F+3        0.00000   0.00019   0.00001   0.00000   0.00000
  46       14F-3       -0.00001   0.00000   0.00000   0.00000  -0.00004
  47 2   S  1S          0.00000  -0.00035   0.06081  -0.00227   0.00000
  48        2S          0.00000   0.00122  -0.21163  -0.00005   0.00000
  49        3S          0.00000  -0.00002   0.00232  -0.00003   0.00000
  50        4S          0.00000   0.00008  -0.01560   0.00000   0.00000
  51        5S          0.00000   0.00020   0.00958   0.00080   0.00000
  52        6S          0.00000   0.00013   0.00017   0.00047   0.00000
  53        7PX         0.00000   0.64586   0.01248  -0.00001   0.00000
  54        7PY        -0.00007   0.00000   0.00000   0.00000  -0.00007
  55        7PZ         0.00000  -0.00624   0.47165  -0.00017   0.00000
  56        8PX         0.00000  -0.00703  -0.00014   0.00000   0.00000
  57        8PY         0.00000   0.00000   0.00000   0.00000   0.00002
  58        8PZ         0.00000   0.00003  -0.00545  -0.00007   0.00000
  59        9PX         0.00000   0.04158   0.00082   0.00000   0.00000
  60        9PY         0.00000   0.00000   0.00000   0.00000   0.00000
  61        9PZ         0.00000  -0.00039   0.03106   0.00000   0.00000
  62       10PX         0.00000   0.00270   0.00001   0.00000   0.00000
  63       10PY         0.00005   0.00000   0.00000   0.00000  -0.00008
  64       10PZ         0.00000  -0.00013  -0.00139  -0.00046   0.00000
  65       11PX         0.00000  -0.00024   0.00001   0.00000   0.00000
  66       11PY        -0.00001   0.00000   0.00000   0.00000  -0.00001
  67       11PZ         0.00000  -0.00001  -0.00003  -0.00005   0.00000
  68       12D 0        0.00000   0.00000   0.00094   0.00001   0.00000
  69       12D+1        0.00000   0.00123   0.00005   0.00000   0.00000
  70       12D-1        0.00000   0.00000   0.00000   0.00000   0.00001
  71       12D+2        0.00000   0.00000   0.00029  -0.00002   0.00000
  72       12D-2       -0.00004   0.00000   0.00000   0.00000   0.00000
  73       13D 0        0.00000   0.00000  -0.00055   0.00000   0.00000
  74       13D+1        0.00000  -0.00006  -0.00001   0.00000   0.00000
  75       13D-1        0.00000   0.00000   0.00000   0.00000  -0.00001
  76       13D+2        0.00000   0.00000  -0.00010   0.00000   0.00000
  77       13D-2       -0.00003   0.00000   0.00000   0.00000   0.00000
  78       14D 0        0.00000   0.00003  -0.00002   0.00007   0.00000
  79       14D+1        0.00000  -0.00109  -0.00001   0.00000   0.00000
  80       14D-1       -0.00001   0.00000   0.00000   0.00000   0.00004
  81       14D+2        0.00000  -0.00001   0.00055   0.00001   0.00000
  82       14D-2        0.00000   0.00000   0.00000   0.00000   0.00000
  83       15F 0        0.00000   0.00000   0.00040   0.00000   0.00000
  84       15F+1        0.00000  -0.00021   0.00000   0.00000   0.00000
  85       15F-1        0.00000   0.00000   0.00000   0.00000   0.00000
  86       15F+2        0.00000   0.00000   0.00011   0.00001   0.00000
  87       15F-2        0.00000   0.00000   0.00000   0.00000   0.00000
  88       15F+3        0.00000   0.00009   0.00000   0.00000   0.00000
  89       15F-3        0.00000   0.00000   0.00000   0.00000   0.00000
  90       16F 0        0.00000   0.00001  -0.00037   0.00002   0.00000
  91       16F+1        0.00000  -0.00012  -0.00001   0.00000   0.00000
  92       16F-1        0.00000   0.00000   0.00000   0.00000  -0.00001
  93       16F+2        0.00000   0.00000  -0.00045   0.00000   0.00000
  94       16F-2        0.00001   0.00000   0.00000   0.00000   0.00000
  95       16F+3        0.00000  -0.00012  -0.00001   0.00000   0.00000
  96       16F-3        0.00000   0.00000   0.00000   0.00000   0.00000
  97 3   Br 1S          0.00006  -0.00005   0.00144  -0.00119   0.01206
  98        2S         -0.00022   0.00019  -0.00411   0.00167  -0.03720
  99        3S          0.00048  -0.00034  -0.00669  -0.00008  -0.00346
 100        4S          0.00000   0.00000   0.00065   0.00003   0.00000
 101        5S          0.00002  -0.00001  -0.00050   0.00000  -0.00011
 102        6S          0.00010  -0.00010   0.00086  -0.00036   0.00014
 103        7S          0.00007  -0.00007   0.00248  -0.00023   0.00023
 104        8PX        -0.26236   0.19711   0.00167   0.00233   0.00251
 105        8PY        -0.00190   0.00181  -0.08212  -0.40825  -0.50136
 106        8PZ         0.00010   0.00083  -0.07215   0.58332   0.50474
 107        9PX         0.74194  -0.55486  -0.00431  -0.00003  -0.00002
 108        9PY         0.00542  -0.00489   0.16777   0.00694   0.00679
 109        9PZ        -0.00025  -0.00219   0.16219  -0.01230  -0.01241
 110       10PX         0.00125   0.00030   0.00001   0.00000   0.00000
 111       10PY         0.00002  -0.00002  -0.00025  -0.00024  -0.00021
 112       10PZ         0.00001   0.00000  -0.00001   0.00024   0.00024
 113       11PX         0.03313  -0.02417  -0.00018   0.00000   0.00000
 114       11PY         0.00024  -0.00020   0.00692   0.00061   0.00067
 115       11PZ        -0.00001  -0.00009   0.00662  -0.00095  -0.00089
 116       12PX         0.00382  -0.00248  -0.00002   0.00000   0.00000
 117       12PY         0.00008  -0.00007   0.00193  -0.00017   0.00018
 118       12PZ         0.00001  -0.00004  -0.00013  -0.00017   0.00001
 119       13PX        -0.00031   0.00038   0.00001   0.00000   0.00000
 120       13PY         0.00000  -0.00001   0.00037  -0.00005   0.00002
 121       13PZ         0.00001   0.00000   0.00018   0.00001   0.00005
 122       14D 0        0.00001   0.00002  -0.00135   0.00040   0.00039
 123       14D+1       -0.00057   0.00022  -0.00007   0.00000   0.00000
 124       14D-1        0.00003  -0.00011   0.01055   0.00020   0.00027
 125       14D+2       -0.00001   0.00009  -0.00735   0.00024   0.00019
 126       14D-2        0.00017  -0.00030  -0.00011   0.00000   0.00000
 127       15D 0        0.00000   0.00000  -0.00010   0.00001   0.00001
 128       15D+1        0.00004  -0.00010  -0.00001   0.00000   0.00000
 129       15D-1        0.00000  -0.00001   0.00092   0.00000   0.00002
 130       15D+2        0.00000   0.00001  -0.00065   0.00001   0.00000
 131       15D-2        0.00012  -0.00016  -0.00001   0.00000   0.00000
 132       16D 0        0.00000   0.00001   0.00013   0.00006   0.00006
 133       16D+1       -0.00011   0.00012   0.00000   0.00000   0.00000
 134       16D-1        0.00000  -0.00001   0.00099   0.00002   0.00002
 135       16D+2        0.00000   0.00001  -0.00042   0.00006   0.00003
 136       16D-2       -0.00019  -0.00001  -0.00001   0.00000   0.00000
 137       17D 0       -0.00001   0.00000  -0.00024   0.00001  -0.00002
 138       17D+1        0.00007  -0.00011   0.00001   0.00000   0.00000
 139       17D-1        0.00001  -0.00001   0.00011  -0.00004   0.00002
 140       17D+2       -0.00001   0.00001  -0.00052   0.00003  -0.00004
 141       17D-2        0.00013  -0.00036  -0.00001   0.00000   0.00000
 142       18F 0        0.00000   0.00000  -0.00012   0.00000   0.00000
 143       18F+1        0.00002  -0.00002   0.00000   0.00000   0.00000
 144       18F-1        0.00000   0.00000   0.00011  -0.00001   0.00000
 145       18F+2        0.00000   0.00001  -0.00019   0.00000   0.00000
 146       18F-2        0.00023  -0.00018  -0.00001   0.00000   0.00000
 147       18F+3       -0.00018   0.00011   0.00000   0.00000   0.00000
 148       18F-3       -0.00001   0.00000  -0.00007   0.00000   0.00000
 149       19F 0        0.00000   0.00000  -0.00007   0.00001   0.00001
 150       19F+1       -0.00002   0.00006   0.00001   0.00000   0.00000
 151       19F-1        0.00000   0.00000   0.00021   0.00003   0.00002
 152       19F+2        0.00000   0.00000  -0.00022   0.00000   0.00001
 153       19F-2       -0.00018   0.00016   0.00000   0.00000   0.00000
 154       19F+3        0.00014   0.00002   0.00001   0.00000   0.00000
 155       19F-3        0.00001   0.00000  -0.00006   0.00001   0.00001
 156 4   Br 1S         -0.00006  -0.00005   0.00144  -0.00118  -0.01207
 157        2S          0.00022   0.00019  -0.00411   0.00164   0.03720
 158        3S         -0.00048  -0.00034  -0.00669  -0.00008   0.00346
 159        4S          0.00000   0.00000   0.00065   0.00003   0.00000
 160        5S         -0.00002  -0.00001  -0.00050   0.00000   0.00011
 161        6S         -0.00010  -0.00010   0.00086  -0.00036  -0.00014
 162        7S         -0.00007  -0.00007   0.00248  -0.00023  -0.00023
 163        8PX         0.26236   0.19711   0.00167   0.00234  -0.00251
 164        8PY        -0.00190  -0.00181   0.08212   0.40866  -0.50102
 165        8PZ        -0.00010   0.00083  -0.07215   0.58373  -0.50426
 166        9PX        -0.74194  -0.55486  -0.00431  -0.00003   0.00002
 167        9PY         0.00542   0.00489  -0.16777  -0.00695   0.00679
 168        9PZ         0.00025  -0.00219   0.16219  -0.01231   0.01240
 169       10PX        -0.00125   0.00030   0.00001   0.00000   0.00000
 170       10PY         0.00002   0.00002   0.00025   0.00024  -0.00021
 171       10PZ        -0.00001   0.00000  -0.00001   0.00024  -0.00024
 172       11PX        -0.03313  -0.02417  -0.00018   0.00000   0.00000
 173       11PY         0.00024   0.00020  -0.00692  -0.00061   0.00067
 174       11PZ         0.00001  -0.00009   0.00662  -0.00095   0.00089
 175       12PX        -0.00382  -0.00248  -0.00002   0.00000   0.00000
 176       12PY         0.00008   0.00007  -0.00193   0.00017   0.00018
 177       12PZ        -0.00001  -0.00004  -0.00013  -0.00017  -0.00001
 178       13PX         0.00031   0.00038   0.00001   0.00000   0.00000
 179       13PY         0.00000   0.00001  -0.00037   0.00005   0.00002
 180       13PZ        -0.00001   0.00000   0.00018   0.00001  -0.00005
 181       14D 0       -0.00001   0.00002  -0.00135   0.00040  -0.00039
 182       14D+1        0.00057   0.00022  -0.00007   0.00000   0.00000
 183       14D-1        0.00003   0.00011  -0.01055  -0.00020   0.00027
 184       14D+2        0.00001   0.00009  -0.00735   0.00024  -0.00019
 185       14D-2        0.00017   0.00030   0.00011   0.00000   0.00000
 186       15D 0        0.00000   0.00000  -0.00010   0.00001  -0.00001
 187       15D+1       -0.00004  -0.00010  -0.00001   0.00000   0.00000
 188       15D-1        0.00000   0.00001  -0.00092   0.00000   0.00002
 189       15D+2        0.00000   0.00001  -0.00065   0.00001   0.00000
 190       15D-2        0.00012   0.00016   0.00001   0.00000   0.00000
 191       16D 0        0.00000   0.00001   0.00013   0.00006  -0.00006
 192       16D+1        0.00011   0.00012   0.00000   0.00000   0.00000
 193       16D-1        0.00000   0.00001  -0.00099  -0.00002   0.00002
 194       16D+2        0.00000   0.00001  -0.00042   0.00006  -0.00003
 195       16D-2       -0.00019   0.00001   0.00001   0.00000   0.00000
 196       17D 0        0.00001   0.00000  -0.00024   0.00001   0.00002
 197       17D+1       -0.00007  -0.00011   0.00001   0.00000   0.00000
 198       17D-1        0.00001   0.00001  -0.00011   0.00004   0.00002
 199       17D+2        0.00001   0.00001  -0.00052   0.00003   0.00004
 200       17D-2        0.00013   0.00036   0.00001   0.00000   0.00000
 201       18F 0        0.00000   0.00000  -0.00012   0.00000   0.00000
 202       18F+1       -0.00002  -0.00002   0.00000   0.00000   0.00000
 203       18F-1        0.00000   0.00000  -0.00011   0.00001   0.00000
 204       18F+2        0.00000   0.00001  -0.00019   0.00000   0.00000
 205       18F-2        0.00023   0.00018   0.00001   0.00000   0.00000
 206       18F+3        0.00018   0.00011   0.00000   0.00000   0.00000
 207       18F-3       -0.00001   0.00000   0.00007   0.00000   0.00000
 208       19F 0        0.00000   0.00000  -0.00007   0.00001  -0.00001
 209       19F+1        0.00002   0.00006   0.00001   0.00000   0.00000
 210       19F-1        0.00000   0.00000  -0.00021  -0.00003   0.00002
 211       19F+2        0.00000   0.00000  -0.00022   0.00000  -0.00001
 212       19F-2       -0.00018  -0.00016   0.00000   0.00000   0.00000
 213       19F+3       -0.00014   0.00002   0.00001   0.00000   0.00000
 214       19F-3        0.00001   0.00000   0.00006  -0.00001   0.00001
                          16        17        18        19        20
     Eigenvalues --     2.00000   2.00000   2.00000   2.00000   2.00000
   1 1   C  1S          0.00000   0.00010   0.00000   0.02385   0.00000
   2        2S          0.00000   0.00000   0.00000  -0.00022   0.00000
   3        3S          0.00000   0.00000   0.00000   0.00105   0.00000
   4        4S          0.00000  -0.00001   0.00000  -0.00137   0.00000
   5        5S          0.00000   0.00000   0.00000  -0.00064   0.00000
   6        6PX         0.00000   0.00001   0.00000   0.00000   0.00000
   7        6PY        -0.00003   0.00000   0.00000   0.00000   0.00000
   8        6PZ         0.00000   0.00000   0.00000  -0.00004   0.00000
   9        7PX         0.00000  -0.00002   0.00000   0.00000   0.00000
  10        7PY         0.00006   0.00000   0.00000   0.00000  -0.00002
  11        7PZ         0.00000   0.00000   0.00000   0.00007   0.00000
  12        8PX         0.00000  -0.00015   0.00000  -0.00001   0.00000
  13        8PY         0.00061   0.00000  -0.00001   0.00000  -0.00002
  14        8PZ         0.00000   0.00000   0.00000   0.00053   0.00000
  15        9PX         0.00000   0.00003   0.00000   0.00000   0.00000
  16        9PY         0.00007   0.00000   0.00000   0.00000   0.00001
  17        9PZ         0.00000   0.00000   0.00000   0.00013   0.00000
  18       10D 0        0.00000   0.00000   0.00000   0.00001   0.00000
  19       10D+1        0.00000   0.00000   0.00000   0.00000   0.00000
  20       10D-1        0.00000   0.00000   0.00000   0.00000   0.00000
  21       10D+2        0.00000   0.00000   0.00000  -0.00001   0.00000
  22       10D-2        0.00000   0.00000  -0.00001   0.00000   0.00000
  23       11D 0        0.00000   0.00000   0.00000  -0.00003   0.00000
  24       11D+1        0.00000   0.00002   0.00000   0.00000   0.00000
  25       11D-1       -0.00008   0.00000   0.00000   0.00000   0.00001
  26       11D+2        0.00000   0.00000   0.00000   0.00014   0.00000
  27       11D-2        0.00000   0.00000   0.00004   0.00000   0.00000
  28       12D 0        0.00000   0.00000   0.00000   0.00011   0.00000
  29       12D+1        0.00000  -0.00004   0.00000   0.00000   0.00000
  30       12D-1       -0.00042   0.00000   0.00000   0.00000   0.00005
  31       12D+2        0.00000   0.00000   0.00000   0.00021   0.00000
  32       12D-2        0.00000   0.00000  -0.00004   0.00000   0.00000
  33       13F 0        0.00000   0.00000   0.00000   0.00000   0.00000
  34       13F+1        0.00000   0.00000   0.00000   0.00000   0.00000
  35       13F-1        0.00000   0.00000   0.00000   0.00000   0.00000
  36       13F+2        0.00000   0.00000   0.00000   0.00000   0.00000
  37       13F-2        0.00000   0.00000   0.00000   0.00000   0.00000
  38       13F+3        0.00000  -0.00001   0.00000   0.00000   0.00000
  39       13F-3        0.00001   0.00000   0.00000   0.00000   0.00000
  40       14F 0        0.00000   0.00000   0.00000  -0.00001   0.00000
  41       14F+1        0.00000  -0.00002   0.00000   0.00000   0.00000
  42       14F-1       -0.00005   0.00000   0.00000   0.00000   0.00001
  43       14F+2        0.00000   0.00000   0.00000  -0.00004   0.00000
  44       14F-2        0.00000   0.00000  -0.00003   0.00000   0.00000
  45       14F+3        0.00000   0.00004   0.00000   0.00000   0.00000
  46       14F-3       -0.00004   0.00000   0.00000   0.00000   0.00001
  47 2   S  1S          0.00000  -0.00011   0.00000  -0.03428   0.00000
  48        2S          0.00000  -0.00003   0.00000  -0.00604   0.00000
  49        3S          0.00000   0.00000   0.00000   0.00002   0.00000
  50        4S          0.00000   0.00000   0.00000  -0.00043   0.00000
  51        5S          0.00000   0.00000   0.00000   0.00003   0.00000
  52        6S          0.00000   0.00000   0.00000   0.00003   0.00000
  53        7PX         0.00000  -0.00082   0.00000   0.00030   0.00000
  54        7PY         0.00056   0.00000   0.00000   0.00000   0.00004
  55        7PZ         0.00000   0.00006   0.00000   0.01331   0.00000
  56        8PX         0.00000   0.00001   0.00000   0.00000   0.00000
  57        8PY         0.00000   0.00000   0.00000   0.00000  -0.00001
  58        8PZ         0.00000   0.00000   0.00000  -0.00016   0.00000
  59        9PX         0.00000  -0.00005   0.00000   0.00002   0.00000
  60        9PY         0.00004   0.00000   0.00000   0.00000   0.00000
  61        9PZ         0.00000   0.00000   0.00000   0.00089   0.00000
  62       10PX         0.00000   0.00010   0.00000   0.00000   0.00000
  63       10PY         0.00018   0.00000   0.00000   0.00000  -0.00001
  64       10PZ         0.00000   0.00000   0.00000  -0.00006   0.00000
  65       11PX         0.00000  -0.00001   0.00000   0.00000   0.00000
  66       11PY         0.00000   0.00000   0.00000   0.00000   0.00000
  67       11PZ         0.00000   0.00000   0.00000  -0.00003   0.00000
  68       12D 0        0.00000   0.00000   0.00000   0.00007   0.00000
  69       12D+1        0.00000  -0.00002   0.00000   0.00000   0.00000
  70       12D-1       -0.00001   0.00000   0.00000   0.00000   0.00000
  71       12D+2        0.00000   0.00000   0.00000  -0.00001   0.00000
  72       12D-2        0.00000   0.00000   0.00001   0.00000   0.00000
  73       13D 0        0.00000   0.00000   0.00000  -0.00002   0.00000
  74       13D+1        0.00000   0.00000   0.00000   0.00000   0.00000
  75       13D-1        0.00000   0.00000   0.00000   0.00000   0.00000
  76       13D+2        0.00000   0.00000   0.00000   0.00000   0.00000
  77       13D-2        0.00000   0.00000   0.00000   0.00000   0.00000
  78       14D 0        0.00000   0.00000   0.00000   0.00003   0.00000
  79       14D+1        0.00000  -0.00005   0.00000   0.00000   0.00000
  80       14D-1       -0.00004   0.00000   0.00000   0.00000   0.00000
  81       14D+2        0.00000   0.00000   0.00000  -0.00002   0.00000
  82       14D-2        0.00000   0.00000   0.00001   0.00000   0.00000
  83       15F 0        0.00000   0.00000   0.00000   0.00001   0.00000
  84       15F+1        0.00000   0.00000   0.00000   0.00000   0.00000
  85       15F-1        0.00000   0.00000   0.00000   0.00000   0.00000
  86       15F+2        0.00000   0.00000   0.00000   0.00001   0.00000
  87       15F-2        0.00000   0.00000   0.00000   0.00000   0.00000
  88       15F+3        0.00000   0.00000   0.00000   0.00000   0.00000
  89       15F-3        0.00000   0.00000   0.00000   0.00000   0.00000
  90       16F 0        0.00000   0.00000   0.00000  -0.00002   0.00000
  91       16F+1        0.00000   0.00002   0.00000   0.00000   0.00000
  92       16F-1        0.00000   0.00000   0.00000   0.00000   0.00000
  93       16F+2        0.00000   0.00000   0.00000   0.00000   0.00000
  94       16F-2        0.00000   0.00000  -0.00001   0.00000   0.00000
  95       16F+3        0.00000  -0.00001   0.00000   0.00000   0.00000
  96       16F-3        0.00000   0.00000   0.00000   0.00000   0.00000
  97 3   Br 1S         -0.05064  -0.00016  -0.00003   0.00606  -0.21874
  98        2S          0.15832   0.00054   0.00011  -0.02023   0.70919
  99        3S          0.01475   0.00004  -0.00003   0.00679   0.03029
 100        4S         -0.00014   0.00000   0.00000  -0.00008  -0.00020
 101        5S          0.00044   0.00000   0.00000   0.00022   0.00071
 102        6S          0.00076   0.00000  -0.00001   0.00078   0.00003
 103        7S          0.00008   0.00000   0.00000   0.00029   0.00003
 104        8PX        -0.00146   0.71285   0.71320  -0.00570   0.00038
 105        8PY         0.48034   0.00608   0.00291   0.57484  -0.13780
 106        8PZ         0.49267   0.00140  -0.00068   0.40320  -0.08626
 107        9PX        -0.00010  -0.01583  -0.01656  -0.00011   0.00000
 108        9PY         0.00506  -0.00009  -0.00013   0.00883   0.00236
 109        9PZ        -0.00004   0.00001  -0.00002   0.00575   0.00145
 110       10PX         0.00000   0.00028   0.00029   0.00000   0.00000
 111       10PY         0.00026   0.00000   0.00000   0.00035  -0.00007
 112       10PZ         0.00029   0.00000   0.00000   0.00023  -0.00005
 113       11PX         0.00000  -0.00121  -0.00124   0.00000   0.00000
 114       11PY        -0.00022  -0.00001  -0.00001  -0.00017   0.00022
 115       11PZ        -0.00043   0.00000   0.00000  -0.00013   0.00014
 116       12PX         0.00000  -0.00008  -0.00013   0.00000   0.00000
 117       12PY         0.00023   0.00000   0.00000   0.00025   0.00005
 118       12PZ         0.00008   0.00000   0.00000   0.00024   0.00003
 119       13PX         0.00000   0.00001   0.00003   0.00000   0.00000
 120       13PY         0.00000   0.00000   0.00000   0.00004   0.00000
 121       13PZ         0.00001   0.00000   0.00000   0.00001   0.00000
 122       14D 0        0.00007   0.00000   0.00000  -0.00001  -0.00003
 123       14D+1        0.00000   0.00003   0.00003   0.00000   0.00000
 124       14D-1       -0.00022   0.00000   0.00000   0.00008   0.00001
 125       14D+2        0.00024   0.00000   0.00000  -0.00003   0.00006
 126       14D-2        0.00000  -0.00001  -0.00002   0.00000   0.00000
 127       15D 0        0.00000   0.00000   0.00000   0.00000   0.00000
 128       15D+1        0.00000  -0.00001  -0.00001   0.00000   0.00000
 129       15D-1       -0.00004   0.00000   0.00000  -0.00002   0.00000
 130       15D+2        0.00003   0.00000   0.00000   0.00002   0.00000
 131       15D-2        0.00000  -0.00002  -0.00002   0.00000   0.00000
 132       16D 0        0.00003   0.00000   0.00000  -0.00001  -0.00001
 133       16D+1        0.00000   0.00003   0.00002   0.00000   0.00000
 134       16D-1        0.00010   0.00000   0.00000   0.00014  -0.00001
 135       16D+2       -0.00005   0.00000   0.00000  -0.00011   0.00000
 136       16D-2        0.00000   0.00004   0.00004   0.00000   0.00000
 137       17D 0       -0.00003   0.00000   0.00000   0.00001   0.00000
 138       17D+1        0.00000   0.00000  -0.00002   0.00000   0.00000
 139       17D-1        0.00003   0.00000   0.00000   0.00006   0.00001
 140       17D+2       -0.00001   0.00000   0.00000  -0.00003  -0.00002
 141       17D-2        0.00000   0.00000  -0.00002   0.00000   0.00000
 142       18F 0        0.00000   0.00000   0.00000   0.00000   0.00000
 143       18F+1        0.00000   0.00000   0.00000   0.00000   0.00000
 144       18F-1        0.00001   0.00000   0.00000   0.00000   0.00000
 145       18F+2       -0.00001   0.00000   0.00000  -0.00001   0.00000
 146       18F-2        0.00000  -0.00001   0.00000   0.00000   0.00000
 147       18F+3        0.00000   0.00000   0.00000   0.00000   0.00000
 148       18F-3        0.00000   0.00000   0.00000  -0.00001   0.00000
 149       19F 0       -0.00001   0.00000   0.00000  -0.00002   0.00000
[...]
 167        9PY         0.01049  -0.02983  -0.01232   0.01173  -0.00109
 168        9PZ        -0.00751   0.01193  -0.00315   0.00541   0.00099
 169       10PX         0.00129  -0.00327  -0.00426   0.00070  -0.10231
 170       10PY         0.26366  -0.47292   0.00139   0.14899  -0.01327
 171       10PZ        -0.16769   0.18263  -0.11483   0.04510   0.01256
 172       11PX         0.00016  -0.00004   0.00156  -0.00001   0.03542
 173       11PY         0.01246   0.00136   0.05302  -0.00052   0.00126
 174       11PZ        -0.00862  -0.00008  -0.01222  -0.01901  -0.00128
 175       12PX         0.04522  -0.04351   0.03397  -0.04346   0.38344
 176       12PY         7.91680  -5.31822   2.94563  -5.75119   0.00255
 177       12PZ        -3.13651   5.99905  -1.79128   2.51647   0.02971
 178       13PX         0.01551   0.01625  -0.04172   0.00350  -2.12113
 179       13PY        -0.55517  -1.07630   2.00622  -3.30544   0.02211
 180       13PZ        -1.67889   0.73271   0.21602   1.13751  -0.21908
 181       14D 0        0.00295  -0.00146  -0.00419  -0.00022   0.00016
 182       14D+1        0.00001  -0.00004   0.00005   0.00000   0.00096
 183       14D-1        0.00392   0.00096   0.00023   0.00004  -0.00016
 184       14D+2        0.00410  -0.00133   0.00255   0.00375  -0.00009
 185       14D-2       -0.00004   0.00003  -0.00001  -0.00002  -0.00122
 186       15D 0       -0.03642   0.02528   0.04824   0.00237  -0.00178
 187       15D+1       -0.00007   0.00065  -0.00074   0.00016  -0.01481
 188       15D-1       -0.05351   0.00291  -0.01563   0.01192   0.00231
 189       15D+2       -0.04989   0.02713  -0.03454  -0.03401   0.00115
 190       15D-2        0.00052  -0.00068   0.00048   0.00000   0.02426
 191       16D 0        0.23290  -0.17947  -0.24490  -0.02096   0.00839
 192       16D+1        0.00055  -0.00573   0.00419  -0.00111   0.07172
 193       16D-1        0.44986  -0.38064   0.30009  -0.14066  -0.01666
 194       16D+2        0.41225  -0.41070   0.28168   0.09987  -0.00831
 195       16D-2       -0.00289   0.00787  -0.00359   0.00069  -0.12733
 196       17D 0        0.61829   0.80543   0.30662  -0.47562  -0.01938
 197       17D+1       -0.00394  -0.01874  -0.00030  -0.01014  -0.16057
 198       17D-1        0.94870  -1.75009   0.00090  -1.41500   0.01500
 199       17D+2        0.77522  -0.49723  -0.02696  -2.00689   0.01984
 200       17D-2       -0.01511   0.00155  -0.00227   0.02037   0.14800
 201       18F 0       -0.03682  -0.00153   0.02627  -0.00409  -0.00033
 202       18F+1        0.00189   0.00117  -0.00125  -0.00013  -0.01539
 203       18F-1        0.00244  -0.03637   0.00156   0.01255   0.00000
 204       18F+2       -0.00780  -0.01201  -0.00020   0.03796   0.00143
 205       18F-2       -0.00010  -0.00090  -0.00008  -0.00111   0.00480
 206       18F+3        0.00035   0.00025   0.00110  -0.00072   0.04306
 207       18F-3       -0.02339  -0.01547  -0.01286  -0.03356   0.00131
 208       19F 0        0.20100  -0.09512  -0.06835  -0.06556  -0.00250
 209       19F+1       -0.00601  -0.00399   0.00301   0.00041   0.02370
 210       19F-1       -0.02111   0.03542   0.05112  -0.03830  -0.00047
 211       19F+2        0.13244  -0.11260   0.02467  -0.19766  -0.00475
 212       19F-2        0.00080   0.00563  -0.00034   0.00377  -0.01465
 213       19F+3       -0.00105   0.00031  -0.00266   0.00275  -0.10271
 214       19F-3        0.00327   0.09018   0.01715   0.17890  -0.00299
                         211       212       213       214
     Eigenvalues --     0.00000   0.00000   0.00000   0.00000
   1 1   C  1S         -0.12794   0.00000   0.02588  -0.01999
   2        2S         -0.60902   0.00000   0.10281  -0.06106
   3        3S          0.09115   0.00000  -0.06565   0.11050
   4        4S          3.15075   0.00000  -3.53724   1.01359
   5        5S         21.28323   0.00000   2.62364  26.11017
   6        6PX         0.00233   0.00000   0.00007   0.00069
   7        6PY         0.00000  -0.01521   0.00000   0.00000
   8        6PZ        -0.00624   0.00000  -0.02077   0.01767
   9        7PX        -0.00584   0.00000  -0.00141  -0.00410
  10        7PY         0.00000   0.02365   0.00000   0.00000
  11        7PZ         0.10719   0.00000   0.01260  -0.17045
  12        8PX         0.01316   0.00000  -0.01117   0.00326
  13        8PY         0.00000  -5.93141   0.00000   0.00000
  14        8PZ         3.64281   0.00000  -5.10710   0.28544
  15        9PX        -0.35094   0.00000   0.01968   0.09089
  16        9PY         0.00000 -19.77450   0.00000   0.00000
  17        9PZ         8.44647   0.00000 -12.92597  -0.38672
  18       10D 0        0.00976   0.00000   0.00928   0.01168
  19       10D+1       -0.00115   0.00000   0.00012  -0.00009
  20       10D-1        0.00000  -0.01292   0.00000   0.00000
  21       10D+2       -0.03231   0.00000   0.01093  -0.03151
  22       10D-2        0.00000  -0.00040   0.00000   0.00000
  23       11D 0        0.20826   0.00000  -0.02948  -0.30860
  24       11D+1        0.00720   0.00000  -0.00284  -0.00107
  25       11D-1        0.00000   0.25216   0.00000   0.00000
  26       11D+2        0.15914   0.00000  -0.05676   0.18653
  27       11D-2        0.00000  -0.00269   0.00000   0.00000
  28       12D 0        2.86895   0.00000  -0.66288  -0.45302
  29       12D+1       -0.03132   0.00000  -0.02367  -0.00322
  30       12D-1        0.00000   2.17398   0.00000   0.00000
  31       12D+2       -0.08208   0.00000  -0.50591  -0.64523
  32       12D-2        0.00000  -0.04359   0.00000   0.00000
  33       13F 0       -0.00984   0.00000  -0.01077  -0.02712
  34       13F+1        0.00226   0.00000   0.00046  -0.00019
  35       13F-1        0.00000  -0.00460   0.00000   0.00000
  36       13F+2       -0.00521   0.00000   0.00719  -0.00778
  37       13F-2        0.00000  -0.00053   0.00000   0.00000
  38       13F+3       -0.00231   0.00000   0.00050   0.00013
  39       13F-3        0.00000   0.00859   0.00000   0.00000
  40       14F 0        0.04126   0.00000   0.06950  -0.14078
  41       14F+1        0.00079   0.00000  -0.00217  -0.00164
  42       14F-1        0.00000  -0.01676   0.00000   0.00000
  43       14F+2       -0.06814   0.00000  -0.03285  -0.09975
  44       14F-2        0.00000   0.00453   0.00000   0.00000
  45       14F+3        0.00104   0.00000  -0.00179   0.00108
  46       14F-3        0.00000  -0.01545   0.00000   0.00000
  47 2   S  1S          0.00677   0.00000   0.00246   0.00191
  48        2S          0.11948   0.00000   0.09589   0.01832
  49        3S          0.31514   0.00000   0.16092   0.07144
  50        4S         -0.02986   0.00000  -0.18205  -0.01063
  51        5S         -6.80026   0.00000   1.48333   1.59377
  52        6S        -11.32932   0.00000  20.43463 -12.71064
  53        7PX         0.00176   0.00000   0.00003  -0.00036
  54        7PY         0.00000   0.00813   0.00000   0.00000
  55        7PZ         0.01623   0.00000   0.03036  -0.03691
  56        8PX         0.01326   0.00000   0.00182  -0.00607
  57        8PY         0.00000   0.08242   0.00000   0.00000
  58        8PZ         0.49743   0.00000   0.44659  -0.76221
  59        9PX        -0.00638   0.00000   0.00000   0.00118
  60        9PY         0.00000  -0.02681   0.00000   0.00000
  61        9PZ        -0.03923   0.00000  -0.10475   0.11255
  62       10PX         0.05237   0.00000  -0.01636   0.01681
  63       10PY         0.00000  -0.48257   0.00000   0.00000
  64       10PZ         2.67788   0.00000  -5.99370   2.17155
  65       11PX         0.25598   0.00000  -0.05783  -0.00049
  66       11PY         0.00000   5.07841   0.00000   0.00000
  67       11PZ        -1.33110   0.00000  -2.02877   4.21722
  68       12D 0       -0.61384   0.00000   0.22634   0.34567
  69       12D+1        0.01279   0.00000  -0.00314   0.00357
  70       12D-1        0.00000   0.13430   0.00000   0.00000
  71       12D+2        0.20215   0.00000   0.01271   0.07797
  72       12D-2        0.00000   0.00421   0.00000   0.00000
  73       13D 0        0.10593   0.00000  -0.03559  -0.00989
  74       13D+1       -0.00291   0.00000   0.00039   0.00000
  75       13D-1        0.00000  -0.03578   0.00000   0.00000
  76       13D+2       -0.05383   0.00000   0.00239  -0.01742
  77       13D-2        0.00000  -0.00131   0.00000   0.00000
  78       14D 0        1.21410   0.00000   1.69399  -1.20590
  79       14D+1       -0.06818   0.00000   0.01658  -0.01329
  80       14D-1        0.00000  -0.27043   0.00000   0.00000
  81       14D+2       -0.53110   0.00000  -0.02480   0.00042
  82       14D-2        0.00000  -0.00178   0.00000   0.00000
  83       15F 0        0.03871   0.00000   0.06656  -0.05846
  84       15F+1       -0.00030   0.00000   0.00097  -0.00153
  85       15F-1        0.00000  -0.01279   0.00000   0.00000
  86       15F+2       -0.01514   0.00000  -0.01010   0.01454
  87       15F-2        0.00000   0.00144   0.00000   0.00000
  88       15F+3       -0.00130   0.00000  -0.00002   0.00015
  89       15F-3        0.00000  -0.03764   0.00000   0.00000
  90       16F 0       -0.15665   0.00000  -0.29819   0.08179
  91       16F+1       -0.00061   0.00000  -0.00218   0.00266
  92       16F-1        0.00000   0.03309   0.00000   0.00000
  93       16F+2        0.06781   0.00000   0.01667  -0.07441
  94       16F-2        0.00000  -0.00341   0.00000   0.00000
  95       16F+3        0.00276   0.00000  -0.00027  -0.00103
  96       16F-3        0.00000   0.10138   0.00000   0.00000
  97 3   Br 1S          0.00026  -0.00013  -0.00021   0.00023
  98        2S          0.00244   0.00229   0.00044   0.00089
  99        3S          0.01031   0.00274  -0.00298   0.00623
 100        4S          0.03259   0.03852   0.00788   0.01061
 101        5S          0.00869   0.11543   0.04101  -0.02879
 102        6S          0.28821  -1.95874  -0.43571   0.07052
 103        7S         -4.66668 -21.43598 -10.30066  -7.26609
 104        8PX        -0.00008  -0.00002  -0.00001   0.00001
 105        8PY        -0.00060  -0.00100  -0.00003  -0.00004
 106        8PZ         0.00002  -0.00062  -0.00025  -0.00012
 107        9PX         0.00069   0.00023   0.00004  -0.00028
 108        9PY         0.01825   0.01708   0.00517   0.01757
 109        9PZ         0.01393   0.00600   0.01214   0.01082
 110       10PX         0.00402   0.00177   0.00015  -0.00264
 111       10PY         0.18331   0.14960   0.05959   0.20322
 112       10PZ         0.16219   0.03913   0.12922   0.12134
 113       11PX        -0.00173  -0.00054  -0.00012   0.00051
 114       11PY        -0.03010  -0.02776  -0.00500  -0.02479
 115       11PZ        -0.02067  -0.01241  -0.01739  -0.01439
 116       12PX        -0.01379   0.00442   0.00413   0.00989
 117       12PY        -0.99785  -4.57606  -1.69988  -0.47636
 118       12PZ        -0.20959  -2.69375  -1.56063  -0.61350
 119       13PX         0.11732   0.06327   0.02425  -0.00361
 120       13PY        -0.82303  -1.77141  -2.96823  -2.36787
 121       13PZ        -3.06828  -3.44159   0.33485  -1.42976
 122       14D 0        0.00101   0.00010  -0.00146  -0.00059
 123       14D+1       -0.00008  -0.00005   0.00001   0.00000
 124       14D-1        0.00207   0.00079   0.00087   0.00156
 125       14D+2       -0.00018   0.00098  -0.00070  -0.00070
 126       14D-2       -0.00008  -0.00001  -0.00003   0.00000
 127       15D 0       -0.01235  -0.00325   0.01513   0.01004
 128       15D+1        0.00119   0.00062  -0.00010   0.00001
 129       15D-1       -0.02795   0.00619  -0.00811  -0.02321
 130       15D+2       -0.00059  -0.02122   0.00672   0.01255
 131       15D-2        0.00143   0.00013   0.00031   0.00010
 132       16D 0        0.06386   0.01638  -0.05192  -0.06629
 133       16D+1       -0.00602  -0.00277   0.00014  -0.00074
 134       16D-1        0.17268  -0.14850   0.02908   0.19881
 135       16D+2       -0.01095   0.16617  -0.02119  -0.12806
 136       16D-2       -0.00814  -0.00077  -0.00160  -0.00152
 137       17D 0       -0.20630   0.17072   0.06010   0.05012
 138       17D+1        0.00938   0.00652   0.00148   0.00425
 139       17D-1       -0.30531  -1.12727  -0.73027  -0.40071
 140       17D+2        0.28776   0.79343   0.47982   0.11858
 141       17D-2        0.01397   0.00650   0.00583   0.00258
 142       18F 0        0.00242  -0.02778   0.00931   0.00233
 143       18F+1        0.00103   0.00043  -0.00027  -0.00027
 144       18F-1        0.00001   0.01010   0.00399   0.00239
 145       18F+2        0.01819  -0.01498  -0.01443   0.00322
 146       18F-2        0.00059   0.00034  -0.00019  -0.00046
 147       18F+3       -0.00169   0.00004  -0.00014   0.00007
 148       18F-3       -0.02791  -0.02963  -0.00541   0.00475
 149       19F 0       -0.05186   0.12645  -0.00333  -0.02830
 150       19F+1       -0.00209  -0.00123   0.00030   0.00083
 151       19F-1       -0.00157  -0.05085  -0.02084  -0.00301
 152       19F+2       -0.05551   0.12402   0.06860  -0.04164
 153       19F-2       -0.00228  -0.00061   0.00028   0.00056
 154       19F+3        0.00404  -0.00011   0.00015   0.00045
 155       19F-3        0.06845   0.12214   0.02650  -0.03393
 156 4   Br 1S          0.00026   0.00013  -0.00021   0.00023
 157        2S          0.00244  -0.00229   0.00044   0.00089
 158        3S          0.01031  -0.00274  -0.00298   0.00623
 159        4S          0.03259  -0.03852   0.00788   0.01061
 160        5S          0.00869  -0.11543   0.04101  -0.02879
 161        6S          0.28821   1.95874  -0.43571   0.07052
 162        7S         -4.66668  21.43598 -10.30066  -7.26609
 163        8PX        -0.00008   0.00002  -0.00001   0.00001
 164        8PY         0.00060  -0.00100   0.00003   0.00004
 165        8PZ         0.00002   0.00062  -0.00025  -0.00012
 166        9PX         0.00069  -0.00023   0.00004  -0.00028
 167        9PY        -0.01825   0.01708  -0.00517  -0.01757
 168        9PZ         0.01393  -0.00600   0.01214   0.01082
 169       10PX         0.00402  -0.00177   0.00015  -0.00264
 170       10PY        -0.18331   0.14960  -0.05959  -0.20322
 171       10PZ         0.16219  -0.03913   0.12922   0.12134
 172       11PX        -0.00173   0.00054  -0.00012   0.00051
 173       11PY         0.03010  -0.02776   0.00500   0.02479
 174       11PZ        -0.02067   0.01241  -0.01739  -0.01439
 175       12PX        -0.01379  -0.00442   0.00413   0.00989
 176       12PY         0.99785  -4.57606   1.69988   0.47636
 177       12PZ        -0.20959   2.69375  -1.56063  -0.61350
 178       13PX         0.11732  -0.06327   0.02425  -0.00361
 179       13PY         0.82303  -1.77141   2.96823   2.36787
 180       13PZ        -3.06828   3.44159   0.33485  -1.42976
 181       14D 0        0.00101  -0.00010  -0.00146  -0.00059
 182       14D+1       -0.00008   0.00005   0.00001   0.00000
 183       14D-1       -0.00207   0.00079  -0.00087  -0.00156
 184       14D+2       -0.00018  -0.00098  -0.00070  -0.00070
 185       14D-2        0.00008  -0.00001   0.00003   0.00000
 186       15D 0       -0.01235   0.00325   0.01513   0.01004
 187       15D+1        0.00119  -0.00062  -0.00010   0.00001
 188       15D-1        0.02795   0.00619   0.00811   0.02321
 189       15D+2       -0.00059   0.02122   0.00672   0.01255
 190       15D-2       -0.00143   0.00013  -0.00031  -0.00010
 191       16D 0        0.06386  -0.01638  -0.05192  -0.06629
 192       16D+1       -0.00602   0.00277   0.00014  -0.00074
 193       16D-1       -0.17268  -0.14850  -0.02908  -0.19881
 194       16D+2       -0.01095  -0.16617  -0.02119  -0.12806
 195       16D-2        0.00814  -0.00077   0.00160   0.00152
 196       17D 0       -0.20630  -0.17072   0.06010   0.05012
 197       17D+1        0.00938  -0.00652   0.00148   0.00425
 198       17D-1        0.30531  -1.12727   0.73027   0.40071
 199       17D+2        0.28776  -0.79343   0.47982   0.11858
 200       17D-2       -0.01397   0.00650  -0.00583  -0.00258
 201       18F 0        0.00242   0.02778   0.00931   0.00233
 202       18F+1        0.00103  -0.00043  -0.00027  -0.00027
 203       18F-1       -0.00001   0.01010  -0.00399  -0.00239
 204       18F+2        0.01819   0.01498  -0.01443   0.00322
 205       18F-2       -0.00059   0.00034   0.00019   0.00046
 206       18F+3       -0.00169  -0.00004  -0.00014   0.00007
 207       18F-3        0.02791  -0.02963   0.00541  -0.00475
 208       19F 0       -0.05186  -0.12645  -0.00333  -0.02830
 209       19F+1       -0.00209   0.00123   0.00030   0.00083
 210       19F-1        0.00157  -0.05085   0.02084   0.00301
 211       19F+2       -0.05551  -0.12402   0.06860  -0.04164
 212       19F-2        0.00228  -0.00061  -0.00028  -0.00056
 213       19F+3        0.00404   0.00011   0.00015   0.00045
 214       19F-3       -0.06845   0.12214  -0.02650   0.03393
          Condensed to atoms (all electrons):
              1          2          3          4
     1  C    6.376428  -0.030992  -0.092522  -0.092522
     2  S   -0.030992  16.451626  -0.188082  -0.188082
     3  Br  -0.092522  -0.188082  35.314562  -0.136389
     4  Br  -0.092522  -0.188082  -0.136389  35.314562
 Mulliken atomic charges:
              1
     1  C   -0.160392
     2  S   -0.044469
     3  Br   0.102431
     4  Br   0.102431
 Sum of Mulliken atomic charges =   0.00000
 Mulliken charges with hydrogens summed into heavy atoms:
              1
     1  C   -0.160392
     2  S   -0.044469
     3  Br   0.102431
     4  Br   0.102431
 Sum of Mulliken charges with hydrogens summed into heavy atoms =   0.00000
 Electronic spatial extent (au):  <R**2>=           1431.6409
 Charge=              0.0000 electrons
 Dipole moment (field-independent basis, Debye):
    X=              0.0081    Y=              0.0000    Z=             -0.4732  Tot=              0.4733
 Quadrupole moment (field-independent basis, Debye-Ang):
   XX=            -54.9567   YY=            -53.8195   ZZ=            -53.7724
   XY=              0.0000   XZ=             -0.0061   YZ=              0.0000
 Traceless Quadrupole moment (field-independent basis, Debye-Ang):
   XX=             -0.7738   YY=              0.3633   ZZ=              0.4105
   XY=              0.0000   XZ=             -0.0061   YZ=              0.0000
 Octapole moment (field-independent basis, Debye-Ang**2):
  XXX=              0.1919  YYY=              0.0000  ZZZ=            141.2599  XYY=              0.1491
  XXY=              0.0000  XXZ=             47.7783  XZZ=              0.1453  YZZ=              0.0000
  YYZ=             35.3456  XYZ=              0.0000
 Hexadecapole moment (field-independent basis, Debye-Ang**3):
 XXXX=            -67.2533 YYYY=           -572.3476 ZZZZ=           -700.4580 XXXY=              0.0000
 XXXZ=             -0.0847 YYYX=              0.0000 YYYZ=              0.0000 ZZZX=             -0.2220
 ZZZY=              0.0000 XXYY=           -113.5368 XXZZ=           -130.5004 YYZZ=           -194.9057
 XXYZ=              0.0000 YYXZ=             -0.2233 ZZXY=              0.0000
 N-N= 5.475682199029D+02 E-N=-1.443633082723D+04  KE= 5.579845827277D+03
 1\1\GINC-TRAPISTA\SP\RQCISD-FC\Aug-CC-pVTZ\C1Br2S1\BRUNS\29-Nov-2021\0
 \\# qcisd/aug-cc-pvtz nosymm density=current output=wfn\\br2cs-wavefun
 ction\\0,1\C,0,-0.01,0.,-0.519451\S,0,0.,0.,1.083692\Br,0,0.,-1.568516
 ,-1.57857\Br,0,0.,1.568516,-1.57857\\Version=EM64L-G09RevB.01\HF=-5580
 .3086635\MP2=-5581.1187712\MP3=-5581.1309487\MP4D=-5581.1549345\MP4DQ=
 -5581.1314592\MP4SDQ=-5581.1411349\QCISD=-5581.1375732\RMSD=3.222e-09\
 Dipole=0.0031896,0.,-0.1861699\Quadrupole=-0.5753236,0.270125,0.305198
 5,0.,-0.004501,0.\PG=CS [SG(C1S1),X(Br2)]\\@

 Writing a WFN file to GAUSSIAN.wfn.


 THE HURRIEDER I GO, THE BEHINDER I GET.
 Job cpu time:  0 days  6 hours 57 minutes 40.6 seconds.
 File lengths (MBytes):  RWF=  25271 Int=      0 D2E=      0 Chk=      4 Scr=      1
 Normal termination of Gaussian 09 at Mon Nov 29 01:51:43 2021.
