 Entering Gaussian System, Link 0=/home/bruns/programas/chemistry/gaussian/g09/g09
 Input=GAUSSIAN.com
 Output=GAUSSIAN.log
 Initial command:
 /home/bruns/programas/chemistry/gaussian/g09/l1.exe /home/bruns/programas/chemistry/gaussian/work/Gau-9050.inp -scrdir=/home/bruns/programas/chemistry/gaussian/work/
 Entering Link 1 = /home/bruns/programas/chemistry/gaussian/g09/l1.exe PID=      9052.
  
 Copyright (c) 1988,1990,1992,1993,1995,1998,2003,2009,2010,
            Gaussian, Inc.  All Rights Reserved.
  
 This is part of the Gaussian(R) 09 program.  It is based on
 the Gaussian(R) 03 system (copyright 2003, Gaussian, Inc.),
 the Gaussian(R) 98 system (copyright 1998, Gaussian, Inc.),
 the Gaussian(R) 94 system (copyright 1995, Gaussian, Inc.),
 the Gaussian 92(TM) system (copyright 1992, Gaussian, Inc.),
 the Gaussian 90(TM) system (copyright 1990, Gaussian, Inc.),
 the Gaussian 88(TM) system (copyright 1988, Gaussian, Inc.),
 the Gaussian 86(TM) system (copyright 1986, Carnegie Mellon
 University), and the Gaussian 82(TM) system (copyright 1983,
 Carnegie Mellon University). Gaussian is a federally registered
 trademark of Gaussian, Inc.
  
 This software contains proprietary and confidential information,
 including trade secrets, belonging to Gaussian, Inc.
  
 This software is provided under written license and may be
 used, copied, transmitted, or stored only in accord with that
 written license.
  
 The following legend is applicable only to US Government
 contracts under FAR:
  
                    RESTRICTED RIGHTS LEGEND
  
 Use, reproduction and disclosure by the US Government is
 subject to restrictions as set forth in subparagraphs (a)
 and (c) of the Commercial Computer Software - Restricted
 Rights clause in FAR 52.227-19.
  
 Gaussian, Inc.
 340 Quinnipiac St., Bldg. 40, Wallingford CT 06492
  
  
 ---------------------------------------------------------------
 Warning -- This program may not be used in any manner that
 competes with the business of Gaussian, Inc. or will provide
 assistance to any competitor of Gaussian, Inc.  The licensee
 of this program is prohibited from giving any competitor of
 Gaussian, Inc. access to this program.  By using this program,
 the user acknowledges that Gaussian, Inc. is engaged in the
 business of creating and licensing software in the field of
 computational chemistry and represents and warrants to the
 licensee that it is not a competitor of Gaussian, Inc. and that
 it will not use this program in any manner prohibited above.
 ---------------------------------------------------------------
  

 Cite this work as:
 Gaussian 09, Revision B.01,
 M. J. Frisch, G. W. Trucks, H. B. Schlegel, G. E. Scuseria, 
 M. A. Robb, J. R. Cheeseman, G. Scalmani, V. Barone, B. Mennucci, 
 G. A. Petersson, H. Nakatsuji, M. Caricato, X. Li, H. P. Hratchian, 
 A. F. Izmaylov, J. Bloino, G. Zheng, J. L. Sonnenberg, M. Hada, 
 M. Ehara, K. Toyota, R. Fukuda, J. Hasegawa, M. Ishida, T. Nakajima, 
 Y. Honda, O. Kitao, H. Nakai, T. Vreven, J. A. Montgomery, Jr., 
 J. E. Peralta, F. Ogliaro, M. Bearpark, J. J. Heyd, E. Brothers, 
 K. N. Kudin, V. N. Staroverov, T. Keith, R. Kobayashi, J. Normand, 
 K. Raghavachari, A. Rendell, J. C. Burant, S. S. Iyengar, J. Tomasi, 
 M. Cossi, N. Rega, J. M. Millam, M. Klene, J. E. Knox, J. B. Cross, 
 V. Bakken, C. Adamo, J. Jaramillo, R. Gomperts, R. E. Stratmann, 
 O. Yazyev, A. J. Austin, R. Cammi, C. Pomelli, J. W. Ochterski, 
 R. L. Martin, K. Morokuma, V. G. Zakrzewski, G. A. Voth, 
 P. Salvador, J. J. Dannenberg, S. Dapprich, A. D. Daniels, 
 O. Farkas, J. B. Foresman, J. V. Ortiz, J. Cioslowski, 
 and D. J. Fox, Gaussian, Inc., Wallingford CT, 2010.
 
 ******************************************
 Gaussian 09:  EM64L-G09RevB.01 12-Aug-2010
                29-Nov-2021 
 ******************************************
 %nproc=8
 Will use up to    8 processors via shared memory.
 %mem=8GB
 -----------------------------------------------------
 # qcisd/aug-cc-pvtz nosymm density=current output=wfn
 -----------------------------------------------------
 1/30=1,38=1/1;
 2/12=2,15=1,17=6,18=5,40=1/2;
 3/5=16,6=1,7=10,11=9,16=1,25=1,30=1,71=1/1,2,3;
 4//1;
 5/5=2,38=5/2;
 8/6=4,9=120000,10=1/1,4;
 9/5=8,15=1/13;
 11/28=-7,31=1,32=3,42=3/11;
 10/5=6,13=10,31=1/2;
 6/7=2,8=2,9=2,10=2,22=-1,31=1/1;
 99/5=1,6=1100,9=1/99;
 ------------------
 br2cs-wavefunction
 ------------------
 Symbolic Z-matrix:
 Charge =  0 Multiplicity = 1
 C                     0.        0.       -0.51945 
 S                     0.        0.01      1.08369 
 Br                    0.       -1.56852  -1.57857 
 Br                    0.        1.56852  -1.57857 
 
                          Input orientation:                          
 ---------------------------------------------------------------------
 Center     Atomic      Atomic             Coordinates (Angstroms)
 Number     Number       Type             X           Y           Z
 ---------------------------------------------------------------------
      1          6           0        0.000000    0.000000   -0.519451
      2         16           0        0.000000    0.010000    1.083692
      3         35           0        0.000000   -1.568516   -1.578570
      4         35           0        0.000000    1.568516   -1.578570
 ---------------------------------------------------------------------
                    Distance matrix (angstroms):
                    1          2          3          4
     1  C    0.000000
     2  S    1.603174   0.000000
     3  Br   1.892611   3.095053   0.000000
     4  Br   1.892611   3.084900   3.137032   0.000000
 Symmetry turned off by external request.
 Stoichiometry    CBr2S
 Framework group  CS[SG(CBr2S)]
 Deg. of freedom     5
 Full point group                 CS      NOp   2
 Rotational constants (GHZ):      2.6234016      1.3014443      0.8698969
 Standard basis: Aug-CC-pVTZ (5D, 7F)
 Integral buffers will be    131072 words long.
 Raffenetti 1 integral format.
 Two-electron integral symmetry is turned off.
   214 basis functions,   620 primitive gaussians,   252 cartesian basis functions
    46 alpha electrons       46 beta electrons
       nuclear repulsion energy       547.5696310918 Hartrees.
 NAtoms=    4 NActive=    4 NUniq=    4 SFac= 1.00D+00 NAtFMM=   50 NAOKFM=F Big=F
 One-electron integrals computed using PRISM.
 NBasis=   214 RedAO= T  NBF=   214
 NBsUse=   214 1.00D-06 NBFU=   214
 Harris functional with IExCor=  205 diagonalized for initial guess.
 ExpMin= 3.51D-02 ExpMax= 1.06D+07 ExpMxC= 1.21D+04 IAcc=3 IRadAn=         0 AccDes= 0.00D+00
 HarFok:  IExCor=  205 AccDes= 0.00D+00 IRadAn=         0 IDoV= 1
 ScaDFX=  1.000000  1.000000  1.000000  1.000000
 FoFCou: FMM=F IPFlag=           0 FMFlag=      100000 FMFlg1=           0
         NFxFlg=           0 DoJE=T BraDBF=F KetDBF=T FulRan=T
         Omega=  0.000000  0.000000  1.000000  0.000000  0.000000 ICntrl=     500 IOpCl=  0
         NMat0=    1 NMatS0=    1 NMatT0=    0 NMatD0=    1 NMtDS0=    0 NMtDT0=    0
         I1Cent=           4 NGrid=           0.
 Symmetry not used in FoFCou.
 Requested convergence on RMS density matrix=1.00D-08 within 128 cycles.
 Requested convergence on MAX density matrix=1.00D-06.
 Requested convergence on             energy=1.00D-06.
 No special actions if energy rises.
 Keep R1 ints in memory in canonical form, NReq=516428601.
 SCF Done:  E(RHF) =  -5580.30867130     A.U. after   14 cycles
             Convg  =    0.3248D-08             -V/T =  2.0000
 ExpMin= 3.51D-02 ExpMax= 1.06D+07 ExpMxC= 1.21D+04 IAcc=3 IRadAn=         5 AccDes= 0.00D+00
 HarFok:  IExCor=  205 AccDes= 0.00D+00 IRadAn=         5 IDoV=-2
 ScaDFX=  1.000000  1.000000  1.000000  1.000000
 DSYEVD returned Info=          89 IAlg= 4 N=    59 NDim=    59 NE2=    18196455 trying DSYEV.
 DSYEVD returned Info=          89 IAlg= 4 N=    59 NDim=    59 NE2=    18196455 trying DSYEV.
 Range of M.O.s used for correlation:    25   214
 NBasis=   214 NAE=    46 NBE=    46 NFC=    24 NFV=     0
 NROrb=    190 NOA=    22 NOB=    22 NVA=   168 NVB=   168

 **** Warning!!: The largest alpha MO coefficient is  0.30758641D+02

 Semi-Direct transformation.
 ModeAB=           2 MOrb=            22 LenV=    1072457069
 LASXX=     69628944 LTotXX=    69628944 LenRXX=    69628944
 LTotAB=    70719517 MaxLAS=   133250040 LenRXY=   133250040
 NonZer=   139257888 LenScr=   209707008 LnRSAI=           0
 LnScr1=           0 LExtra=           0 Total=    412585992
 MaxDsk=          -1 SrtSym=           F ITran=            4
 JobTyp=0 Pass  1:  I=   1 to  22.
 (rs|ai) integrals will be sorted in core.
 Spin components of T(2) and E(2):
     alpha-alpha T2 =       0.4287493486D-01 E2=     -0.1154002896D+00
     alpha-beta  T2 =       0.2166602700D+00 E2=     -0.5793054500D+00
     beta-beta   T2 =       0.4287493486D-01 E2=     -0.1154002896D+00
 ANorm=    0.1141231852D+01
 E2 =    -0.8101060293D+00 EUMP2 =    -0.55811187773259D+04
 R2 and R3 integrals will be kept in memory, NReq=  1024335774.
 Iterations=  50 Convergence= 0.100D-07
 Iteration Nr.   1
 **********************
 DD1Dir will call FoFMem   1 times, MxPair=       506
 NAB=   253 NAA=     0 NBB=     0.
 MP4(R+Q)=  0.23474796D-01
 E3=       -0.12177525D-01        EUMP3=      -0.55811309549D+04
 E4(DQ)=   -0.51041402D-03        UMP4(DQ)=   -0.55811314653D+04
 E4(SDQ)=  -0.10186030D-01        UMP4(SDQ)=  -0.55811411409D+04
 DE(Corr)= -0.79880876     E(Corr)=     -5581.1074801    
 NORM(A)=   0.11410208D+01
 Iteration Nr.   2
 **********************
 DD1Dir will call FoFMem   1 times, MxPair=       506
 NAB=   253 NAA=     0 NBB=     0.
 DE(Corr)= -0.82757849     E(CORR)=     -5581.1362498     Delta=-2.88D-02
 NORM(A)=   0.11532090D+01
 Iteration Nr.   3
 **********************
 DD1Dir will call FoFMem   1 times, MxPair=       506
 NAB=   253 NAA=     0 NBB=     0.
 DE(Corr)= -0.82617058     E(CORR)=     -5581.1348419     Delta= 1.41D-03
 NORM(A)=   0.11560455D+01
 Iteration Nr.   4
 **********************
 DD1Dir will call FoFMem   1 times, MxPair=       506
 NAB=   253 NAA=     0 NBB=     0.
 DE(Corr)= -0.82852184     E(CORR)=     -5581.1371931     Delta=-2.35D-03
 NORM(A)=   0.11573525D+01
 Iteration Nr.   5
 **********************
 DD1Dir will call FoFMem   1 times, MxPair=       506
 NAB=   253 NAA=     0 NBB=     0.
 DE(Corr)= -0.82883103     E(CORR)=     -5581.1375023     Delta=-3.09D-04
 NORM(A)=   0.11579896D+01
 Iteration Nr.   6
 **********************
 DD1Dir will call FoFMem   1 times, MxPair=       506
 NAB=   253 NAA=     0 NBB=     0.
 DE(Corr)= -0.82889576     E(CORR)=     -5581.1375671     Delta=-6.47D-05
 NORM(A)=   0.11580697D+01
 Iteration Nr.   7
 **********************
 DD1Dir will call FoFMem   1 times, MxPair=       506
 NAB=   253 NAA=     0 NBB=     0.
 DE(Corr)= -0.82890758     E(CORR)=     -5581.1375789     Delta=-1.18D-05
 NORM(A)=   0.11580865D+01
 Iteration Nr.   8
 **********************
 DD1Dir will call FoFMem   1 times, MxPair=       506
 NAB=   253 NAA=     0 NBB=     0.
 DE(Corr)= -0.82890371     E(CORR)=     -5581.1375750     Delta= 3.88D-06
 NORM(A)=   0.11580948D+01
 Iteration Nr.   9
 **********************
 DD1Dir will call FoFMem   1 times, MxPair=       506
 NAB=   253 NAA=     0 NBB=     0.
 DE(Corr)= -0.82890539     E(CORR)=     -5581.1375767     Delta=-1.69D-06
 NORM(A)=   0.11580955D+01
 Iteration Nr.  10
 **********************
 DD1Dir will call FoFMem   1 times, MxPair=       506
 NAB=   253 NAA=     0 NBB=     0.
 DE(Corr)= -0.82890551     E(CORR)=     -5581.1375768     Delta=-1.19D-07
 NORM(A)=   0.11580992D+01
 Iteration Nr.  11
 **********************
 DD1Dir will call FoFMem   1 times, MxPair=       506
 NAB=   253 NAA=     0 NBB=     0.
 DE(Corr)= -0.82890709     E(CORR)=     -5581.1375784     Delta=-1.58D-06
 NORM(A)=   0.11581012D+01
 Iteration Nr.  12
 **********************
 DD1Dir will call FoFMem   1 times, MxPair=       506
 NAB=   253 NAA=     0 NBB=     0.
 DE(Corr)= -0.82890717     E(CORR)=     -5581.1375785     Delta=-7.88D-08
 NORM(A)=   0.11581027D+01
 Iteration Nr.  13
 **********************
 DD1Dir will call FoFMem   1 times, MxPair=       506
 NAB=   253 NAA=     0 NBB=     0.
 DE(Corr)= -0.82890781     E(CORR)=     -5581.1375791     Delta=-6.35D-07
 NORM(A)=   0.11581037D+01
 Iteration Nr.  14
 **********************
 DD1Dir will call FoFMem   1 times, MxPair=       506
 NAB=   253 NAA=     0 NBB=     0.
 DE(Corr)= -0.82890782     E(CORR)=     -5581.1375791     Delta=-1.18D-08
 NORM(A)=   0.11581042D+01
 Iteration Nr.  15
 **********************
 DD1Dir will call FoFMem   1 times, MxPair=       506
 NAB=   253 NAA=     0 NBB=     0.
 DE(Corr)= -0.82890794     E(CORR)=     -5581.1375792     Delta=-1.16D-07
 NORM(A)=   0.11581044D+01
 Iteration Nr.  16
 **********************
 DD1Dir will call FoFMem   1 times, MxPair=       506
 NAB=   253 NAA=     0 NBB=     0.
 DE(Corr)= -0.82890796     E(CORR)=     -5581.1375793     Delta=-2.87D-08
 NORM(A)=   0.11581045D+01
 Iteration Nr.  17
 **********************
 DD1Dir will call FoFMem   1 times, MxPair=       506
 NAB=   253 NAA=     0 NBB=     0.
 DE(Corr)= -0.82890795     E(CORR)=     -5581.1375792     Delta= 1.27D-08
 NORM(A)=   0.11581045D+01
 Iteration Nr.  18
 **********************
 DD1Dir will call FoFMem   1 times, MxPair=       506
 NAB=   253 NAA=     0 NBB=     0.
 DE(Corr)= -0.82890797     E(CORR)=     -5581.1375793     Delta=-1.67D-08
 NORM(A)=   0.11581045D+01
 Iteration Nr.  19
 **********************
 DD1Dir will call FoFMem   1 times, MxPair=       506
 NAB=   253 NAA=     0 NBB=     0.
 DE(Corr)= -0.82890796     E(CORR)=     -5581.1375793     Delta= 4.45D-09
 NORM(A)=   0.11581045D+01
 Iteration Nr.  20
 **********************
 DD1Dir will call FoFMem   1 times, MxPair=       506
 NAB=   253 NAA=     0 NBB=     0.
 DE(Corr)= -0.82890797     E(CORR)=     -5581.1375793     Delta=-2.93D-09
 NORM(A)=   0.11581045D+01
 Iteration Nr.  21
 **********************
 DD1Dir will call FoFMem   1 times, MxPair=       506
 NAB=   253 NAA=     0 NBB=     0.
 DE(Corr)= -0.82890797     E(CORR)=     -5581.1375793     Delta=-2.91D-10
 NORM(A)=   0.11581043D+01
 Iteration Nr.  22
 **********************
 DD1Dir will call FoFMem   1 times, MxPair=       506
 NAB=   253 NAA=     0 NBB=     0.
 DE(Corr)= -0.82890799     E(CORR)=     -5581.1375793     Delta=-2.19D-08
 NORM(A)=   0.11581045D+01
 Iteration Nr.  23
 **********************
 DD1Dir will call FoFMem   1 times, MxPair=       506
 NAB=   253 NAA=     0 NBB=     0.
 DE(Corr)= -0.82890797     E(CORR)=     -5581.1375793     Delta= 2.18D-08
 NORM(A)=   0.11581045D+01
 Iteration Nr.  24
 **********************
 DD1Dir will call FoFMem   1 times, MxPair=       506
 NAB=   253 NAA=     0 NBB=     0.
 DE(Corr)= -0.82890797     E(CORR)=     -5581.1375793     Delta= 6.17D-10
 NORM(A)=   0.11581045D+01
 Largest amplitude= 7.67D-02

 Z-AMPLITUDE ITERATIONS

 Iteration Nr.   1
 **********************
 DD1Dir will call FoFMem   1 times, MxPair=       506
 NAB=   253 NAA=     0 NBB=     0.
 DE(Z)  -0.79824788D+00          E(Z)=    -0.55811069192D+04
 NORM(A)=   0.11583876D+01
 Iteration Nr.   2
 **********************
 DD1Dir will call FoFMem   1 times, MxPair=       506
 NAB=   253 NAA=     0 NBB=     0.
 DE(Z)  -0.79824995D+00          E(Z)=    -0.55811069212D+04
 NORM(A)=   0.11585154D+01
 Iteration Nr.   3
 **********************
 DD1Dir will call FoFMem   1 times, MxPair=       506
 NAB=   253 NAA=     0 NBB=     0.
 DE(Z)  -0.79825048D+00          E(Z)=    -0.55811069218D+04
 NORM(A)=   0.11587143D+01
 Iteration Nr.   4
 **********************
 DD1Dir will call FoFMem   1 times, MxPair=       506
 NAB=   253 NAA=     0 NBB=     0.
 DE(Z)  -0.79825237D+00          E(Z)=    -0.55811069237D+04
 NORM(A)=   0.11597227D+01
 Iteration Nr.   5
 **********************
 DD1Dir will call FoFMem   1 times, MxPair=       506
 NAB=   253 NAA=     0 NBB=     0.
 DE(Z)  -0.79826269D+00          E(Z)=    -0.55811069340D+04
 NORM(A)=   0.11448434D+01
 Iteration Nr.   6
 **********************
 DD1Dir will call FoFMem   1 times, MxPair=       506
 NAB=   253 NAA=     0 NBB=     0.
 DE(Z)  -0.79813076D+00          E(Z)=    -0.55811068021D+04
 NORM(A)=   0.11448442D+01
 Iteration Nr.   7
 **********************
 DD1Dir will call FoFMem   1 times, MxPair=       506
 NAB=   253 NAA=     0 NBB=     0.
 DE(Z)  -0.79812803D+00          E(Z)=    -0.55811067993D+04
 NORM(A)=   0.11448431D+01
 Iteration Nr.   8
 **********************
 DD1Dir will call FoFMem   1 times, MxPair=       506
 NAB=   253 NAA=     0 NBB=     0.
 DE(Z)  -0.79812899D+00          E(Z)=    -0.55811068003D+04
 NORM(A)=   0.11448428D+01
 Iteration Nr.   9
 **********************
 DD1Dir will call FoFMem   1 times, MxPair=       506
 NAB=   253 NAA=     0 NBB=     0.
 DE(Z)  -0.79812821D+00          E(Z)=    -0.55811067995D+04
 NORM(A)=   0.11448427D+01
 Iteration Nr.  10
 **********************
 DD1Dir will call FoFMem   1 times, MxPair=       506
 NAB=   253 NAA=     0 NBB=     0.
 DE(Z)  -0.79812811D+00          E(Z)=    -0.55811067994D+04
 NORM(A)=   0.11448429D+01
 Iteration Nr.  11
 **********************
 DD1Dir will call FoFMem   1 times, MxPair=       506
 NAB=   253 NAA=     0 NBB=     0.
 DE(Z)  -0.79812814D+00          E(Z)=    -0.55811067994D+04
 NORM(A)=   0.11448431D+01
 Iteration Nr.  12
 **********************
 DD1Dir will call FoFMem   1 times, MxPair=       506
 NAB=   253 NAA=     0 NBB=     0.
 DE(Z)  -0.79812813D+00          E(Z)=    -0.55811067994D+04
 NORM(A)=   0.11448433D+01
 Iteration Nr.  13
 **********************
 DD1Dir will call FoFMem   1 times, MxPair=       506
 NAB=   253 NAA=     0 NBB=     0.
 DE(Z)  -0.79812818D+00          E(Z)=    -0.55811067995D+04
 NORM(A)=   0.11448434D+01
 Iteration Nr.  14
 **********************
 DD1Dir will call FoFMem   1 times, MxPair=       506
 NAB=   253 NAA=     0 NBB=     0.
 DE(Z)  -0.79812818D+00          E(Z)=    -0.55811067995D+04
 NORM(A)=   0.11448432D+01
 Iteration Nr.  15
 **********************
 DD1Dir will call FoFMem   1 times, MxPair=       506
 NAB=   253 NAA=     0 NBB=     0.
 DE(Z)  -0.79812816D+00          E(Z)=    -0.55811067995D+04
 NORM(A)=   0.11448433D+01
 Iteration Nr.  16
 **********************
 DD1Dir will call FoFMem   1 times, MxPair=       506
 NAB=   253 NAA=     0 NBB=     0.
 DE(Z)  -0.79812816D+00          E(Z)=    -0.55811067995D+04
 NORM(A)=   0.11448432D+01
 Iteration Nr.  17
 **********************
 DD1Dir will call FoFMem   1 times, MxPair=       506
 NAB=   253 NAA=     0 NBB=     0.
 DE(Z)  -0.79812817D+00          E(Z)=    -0.55811067995D+04
 NORM(A)=   0.11448433D+01
 Iteration Nr.  18
 **********************
 DD1Dir will call FoFMem   1 times, MxPair=       506
 NAB=   253 NAA=     0 NBB=     0.
 DE(Z)  -0.79812816D+00          E(Z)=    -0.55811067995D+04
 NORM(A)=   0.11448433D+01
 Iteration Nr.  19
 **********************
 DD1Dir will call FoFMem   1 times, MxPair=       506
 NAB=   253 NAA=     0 NBB=     0.
 DE(Z)  -0.79812817D+00          E(Z)=    -0.55811067995D+04
 NORM(A)=   0.11448433D+01
 Iteration Nr.  20
 **********************
 DD1Dir will call FoFMem   1 times, MxPair=       506
 NAB=   253 NAA=     0 NBB=     0.
 DE(Z)  -0.79812817D+00          E(Z)=    -0.55811067995D+04
 NORM(A)=   0.11448433D+01
 Discarding MO integrals.
          Differentiating once with respect to electric field.
                with respect to dipole field.
          Electric field/nuclear overlap derivatives assumed to be zero.
          Keep R1 ints in memory in canonical form, NReq=510060614.
          There are     1 degrees of freedom in the 1st order CPHF.  IDoFFX=0.
 LinEq1:  Iter=  0 NonCon=     1 RMS=1.78D-03 Max=6.60D-02
 AX will form     1 AO Fock derivatives at one time.
 LinEq1:  Iter=  1 NonCon=     1 RMS=8.41D-04 Max=1.81D-02
 LinEq1:  Iter=  2 NonCon=     1 RMS=3.81D-04 Max=1.47D-02
 LinEq1:  Iter=  3 NonCon=     1 RMS=1.25D-04 Max=4.33D-03
 LinEq1:  Iter=  4 NonCon=     1 RMS=4.84D-05 Max=9.29D-04
 LinEq1:  Iter=  5 NonCon=     1 RMS=9.57D-06 Max=1.72D-04
 LinEq1:  Iter=  6 NonCon=     1 RMS=3.25D-06 Max=7.86D-05
 LinEq1:  Iter=  7 NonCon=     1 RMS=7.08D-07 Max=2.20D-05
 LinEq1:  Iter=  8 NonCon=     1 RMS=1.38D-07 Max=4.12D-06
 LinEq1:  Iter=  9 NonCon=     1 RMS=3.37D-08 Max=1.03D-06
 LinEq1:  Iter= 10 NonCon=     1 RMS=9.46D-09 Max=2.07D-07
 LinEq1:  Iter= 11 NonCon=     1 RMS=2.01D-09 Max=4.99D-08
 LinEq1:  Iter= 12 NonCon=     1 RMS=4.24D-10 Max=9.63D-09
 LinEq1:  Iter= 13 NonCon=     1 RMS=1.32D-10 Max=1.91D-09
 LinEq1:  Iter= 14 NonCon=     0 RMS=3.05D-11 Max=5.43D-10
 Linear equations converged to 1.000D-10 1.000D-09 after    14 iterations.
 End of Minotr Frequency-dependent properties file   721 does not exist.
 End of Minotr Frequency-dependent properties file   722 does not exist.

 **********************************************************************

            Population analysis using the QCI/CC density.

 **********************************************************************

     Natural Orbital Coefficients:
                           1         2         3         4         5
     Eigenvalues --     2.00003   2.00002   2.00002   2.00002   2.00001
   1 1   C  1S          0.00148  -0.17654   0.31645   0.00377   0.47056
   2        2S         -0.00005   0.00356  -0.00987  -0.00012  -0.00723
   3        3S          0.00005  -0.00677   0.01187   0.00014   0.01901
   4        4S          0.00008  -0.01140  -0.01475  -0.00020   0.00524
   5        5S          0.00003  -0.00463  -0.00481  -0.00006   0.00427
   6        6PX         0.00000   0.00000   0.00000   0.00000   0.00000
   7        6PY        -0.00120   0.00000   0.00004  -0.00301  -0.00001
   8        6PZ        -0.00001   0.00105   0.00152   0.00002  -0.00246
   9        7PX         0.00000   0.00000   0.00000   0.00000   0.00000
  10        7PY        -0.00128   0.00000   0.00007  -0.00517   0.00001
  11        7PZ        -0.00001  -0.00051   0.00391   0.00005  -0.00053
  12        8PX         0.00000   0.00000   0.00000   0.00000   0.00000
  13        8PY         0.01267  -0.00003   0.00004  -0.00428   0.00011
  14        8PZ         0.00013  -0.00951   0.00639   0.00006   0.00851
  15        9PX         0.00000   0.00000   0.00000   0.00000   0.00000
  16        9PY         0.00364  -0.00001   0.00001   0.00041   0.00007
  17        9PZ         0.00001   0.00005   0.00084   0.00000   0.00140
  18       10D 0        0.00000  -0.00007   0.00012   0.00000   0.00003
  19       10D+1        0.00000   0.00000   0.00000   0.00000   0.00000
  20       10D-1       -0.00035   0.00000   0.00000   0.00035   0.00000
  21       10D+2        0.00000   0.00003   0.00012   0.00000  -0.00022
  22       10D-2        0.00000   0.00000   0.00000   0.00000   0.00000
  23       11D 0        0.00000  -0.00111  -0.00031  -0.00001   0.00015
  24       11D+1        0.00000   0.00000   0.00000   0.00000   0.00000
  25       11D-1        0.00000  -0.00001  -0.00003   0.00114  -0.00001
  26       11D+2        0.00000  -0.00003   0.00160   0.00002   0.00066
  27       11D-2        0.00000   0.00000   0.00000   0.00000   0.00000
  28       12D 0        0.00002  -0.00423   0.00100  -0.00001   0.00476
  29       12D+1        0.00000   0.00000   0.00000   0.00000   0.00000
  30       12D-1       -0.00634  -0.00003  -0.00009   0.00305   0.00007
  31       12D+2        0.00001  -0.00151   0.00200   0.00001   0.00201
  32       12D-2        0.00000   0.00000   0.00000   0.00000   0.00000
  33       13F 0        0.00000  -0.00001   0.00001   0.00000  -0.00009
  34       13F+1        0.00000   0.00000   0.00000   0.00000   0.00000
  35       13F-1       -0.00031   0.00000   0.00000  -0.00007   0.00000
  36       13F+2        0.00000  -0.00007   0.00001   0.00000   0.00009
  37       13F-2        0.00000   0.00000   0.00000   0.00000   0.00000
  38       13F+3        0.00000   0.00000   0.00000   0.00000   0.00000
  39       13F-3        0.00006   0.00000   0.00000  -0.00007   0.00000
  40       14F 0       -0.00002   0.00017  -0.00011  -0.00001  -0.00104
  41       14F+1        0.00000   0.00000   0.00000   0.00000   0.00000
  42       14F-1        0.00184   0.00003  -0.00003   0.00072  -0.00005
  43       14F+2       -0.00003   0.00044  -0.00036  -0.00001  -0.00106
  44       14F-2        0.00000   0.00000   0.00000   0.00000   0.00000
  45       14F+3        0.00000   0.00000   0.00000   0.00000   0.00000
  46       14F-3       -0.00029   0.00001  -0.00001   0.00021  -0.00002
  47 2   S  1S          0.00068  -0.21721  -0.00889  -0.00048  -0.15675
  48        2S         -0.00229   0.74234   0.03093   0.00165   0.54114
  49        3S          0.00008  -0.02058  -0.00111  -0.00004  -0.00838
  50        4S         -0.00015   0.04976   0.00203   0.00011   0.03878
  51        5S         -0.00012   0.01159  -0.00108   0.00000  -0.01514
  52        6S         -0.00004   0.00172   0.00026   0.00003  -0.00422
  53        7PX         0.00000   0.00000   0.00000   0.00000   0.00000
  54        7PY         0.97031   0.00969  -0.00205   0.09474  -0.00478
  55        7PZ        -0.01230   0.62296   0.02307  -0.00071  -0.49596
  56        8PX         0.00000   0.00000   0.00000   0.00000   0.00000
  57        8PY        -0.01889  -0.00019   0.00004  -0.00127   0.00009
  58        8PZ         0.00024  -0.01237  -0.00058   0.00000   0.00848
  59        9PX         0.00000   0.00000   0.00000   0.00000   0.00000
  60        9PY         0.05628   0.00058  -0.00012   0.00579  -0.00031
  61        9PZ        -0.00073   0.03838   0.00151  -0.00004  -0.03230
  62       10PX         0.00000   0.00000   0.00000   0.00000   0.00000
  63       10PY        -0.00356  -0.00010   0.00008  -0.00104   0.00003
  64       10PZ         0.00013  -0.00859  -0.00066  -0.00002   0.00538
  65       11PX         0.00000   0.00000   0.00000   0.00000   0.00000
  66       11PY        -0.00129   0.00000   0.00000  -0.00007  -0.00001
  67       11PZ         0.00001  -0.00023  -0.00020  -0.00001   0.00027
  68       12D 0       -0.00005   0.00230   0.00017  -0.00001  -0.00223
  69       12D+1        0.00000   0.00000   0.00000   0.00000   0.00000
  70       12D-1        0.00268   0.00004  -0.00003   0.00071  -0.00004
  71       12D+2       -0.00001  -0.00040  -0.00006   0.00000   0.00009
  72       12D-2        0.00000   0.00000   0.00000   0.00000   0.00000
  73       13D 0        0.00000   0.00016  -0.00015   0.00000   0.00021
  74       13D+1        0.00000   0.00000   0.00000   0.00000   0.00000
  75       13D-1       -0.00036   0.00000   0.00000   0.00019   0.00000
  76       13D+2        0.00000   0.00030   0.00002   0.00000   0.00017
  77       13D-2        0.00000   0.00000   0.00000   0.00000   0.00000
  78       14D 0       -0.00001   0.00122   0.00027   0.00000  -0.00045
  79       14D+1        0.00000   0.00000   0.00000   0.00000   0.00000
  80       14D-1       -0.00080   0.00002  -0.00002   0.00021   0.00000
  81       14D+2        0.00000   0.00049  -0.00036  -0.00001  -0.00032
  82       14D-2        0.00000   0.00000   0.00000   0.00000   0.00000
  83       15F 0        0.00000  -0.00019   0.00011   0.00000   0.00017
  84       15F+1        0.00000   0.00000   0.00000   0.00000   0.00000
  85       15F-1       -0.00015   0.00000   0.00001  -0.00011   0.00000
  86       15F+2        0.00000   0.00013   0.00002   0.00000  -0.00017
  87       15F-2        0.00000   0.00000   0.00000   0.00000   0.00000
  88       15F+3        0.00000   0.00000   0.00000   0.00000   0.00000
  89       15F-3        0.00011   0.00000   0.00000   0.00000   0.00000
  90       16F 0        0.00001  -0.00044  -0.00005   0.00000   0.00034
  91       16F+1        0.00000   0.00000   0.00000   0.00000   0.00000
  92       16F-1       -0.00084  -0.00001   0.00001  -0.00009   0.00001
  93       16F+2        0.00001  -0.00013   0.00012   0.00000   0.00004
  94       16F-2        0.00000   0.00000   0.00000   0.00000   0.00000
  95       16F+3        0.00000   0.00000   0.00000   0.00000   0.00000
  96       16F-3       -0.00019   0.00000   0.00000   0.00001   0.00000
  97 3   Br 1S          0.00044   0.00074  -0.04046   0.03672   0.04020
  98        2S         -0.00173  -0.00273   0.14969  -0.13583  -0.14954
  99        3S          0.00393   0.00598  -0.31408   0.28370   0.32113
 100        4S         -0.00095  -0.00021  -0.00084   0.00066   0.00203
 101        5S         -0.00013   0.00017  -0.01703   0.01528   0.01558
 102        6S          0.01030  -0.00192   0.00558  -0.00297   0.00554
 103        7S          0.00681   0.00108   0.00242   0.00060  -0.00012
 104        8PX         0.00000   0.00000   0.00000   0.00000   0.00000
 105        8PY         0.02303   0.00522   0.20571  -0.22035   0.01393
 106        8PZ         0.02004   0.00640   0.13160  -0.13228  -0.01256
 107        9PX         0.00000   0.00000   0.00000   0.00000   0.00000
 108        9PY        -0.06101  -0.01349  -0.53467   0.57472  -0.04748
 109        9PZ        -0.05406  -0.01745  -0.34267   0.34331   0.03039
 110       10PX         0.00000   0.00000   0.00000   0.00000   0.00000
 111       10PY         0.00066  -0.00050   0.00265  -0.00084   0.00078
 112       10PZ        -0.00051  -0.00042   0.00143  -0.00134   0.00093
 113       11PX         0.00000   0.00000   0.00000   0.00000   0.00000
 114       11PY        -0.00338  -0.00067  -0.02538   0.02716  -0.00220
 115       11PZ        -0.00313  -0.00103  -0.01638   0.01622   0.00150
 116       12PX         0.00000   0.00000   0.00000   0.00000   0.00000
 117       12PY         0.00469   0.00018   0.00156   0.00113  -0.00045
 118       12PZ         0.00204  -0.00166   0.00127   0.00026   0.00223
 119       13PX         0.00000   0.00000   0.00000   0.00000   0.00000
 120       13PY         0.00068   0.00025   0.00044   0.00002  -0.00004
 121       13PZ         0.00057   0.00012   0.00017   0.00002  -0.00024
 122       14D 0        0.00001  -0.00001   0.00157  -0.00146  -0.00087
 123       14D+1        0.00000   0.00000   0.00000   0.00000   0.00000
 124       14D-1       -0.00306  -0.00093  -0.02857   0.03010   0.00201
 125       14D+2        0.00190   0.00068   0.01815  -0.01902  -0.00225
 126       14D-2        0.00000   0.00000   0.00000   0.00000   0.00000
 127       15D 0        0.00006   0.00000   0.00020  -0.00008  -0.00006
 128       15D+1        0.00000   0.00000   0.00000   0.00000   0.00000
 129       15D-1       -0.00023  -0.00010  -0.00282   0.00291   0.00035
 130       15D+2        0.00012   0.00011   0.00191  -0.00187  -0.00037
 131       15D-2        0.00000   0.00000   0.00000   0.00000   0.00000
 132       16D 0       -0.00002   0.00019   0.00000  -0.00017  -0.00023
 133       16D+1        0.00000   0.00000   0.00000   0.00000   0.00000
 134       16D-1        0.00034   0.00009   0.00110  -0.00056   0.00035
 135       16D+2       -0.00041  -0.00002  -0.00085   0.00033  -0.00009
 136       16D-2        0.00000   0.00000   0.00000   0.00000   0.00000
 137       17D 0       -0.00010  -0.00025   0.00003   0.00017   0.00037
 138       17D+1        0.00000   0.00000   0.00000   0.00000   0.00000
 139       17D-1        0.00117  -0.00022   0.00063  -0.00024   0.00031
 140       17D+2       -0.00063  -0.00024  -0.00044  -0.00016   0.00031
 141       17D-2        0.00000   0.00000   0.00000   0.00000   0.00000
 142       18F 0        0.00008   0.00002   0.00026  -0.00030  -0.00004
 143       18F+1        0.00000   0.00000   0.00000   0.00000   0.00000
 144       18F-1       -0.00004   0.00000  -0.00011   0.00013   0.00004
 145       18F+2        0.00001   0.00004   0.00040  -0.00044  -0.00011
 146       18F-2        0.00000   0.00000   0.00000   0.00000   0.00000
 147       18F+3        0.00000   0.00000   0.00000   0.00000   0.00000
 148       18F-3       -0.00007   0.00003   0.00021  -0.00023  -0.00007
 149       19F 0       -0.00002   0.00006  -0.00033   0.00032  -0.00024
 150       19F+1        0.00000   0.00000   0.00000   0.00000   0.00000
 151       19F-1       -0.00004   0.00006   0.00019  -0.00027  -0.00005
 152       19F+2        0.00000  -0.00006  -0.00060   0.00045  -0.00002
 153       19F-2        0.00000   0.00000   0.00000   0.00000   0.00000
 154       19F+3        0.00000   0.00000   0.00000   0.00000   0.00000
 155       19F-3        0.00007  -0.00008  -0.00034   0.00017   0.00012
 156 4   Br 1S         -0.00051   0.00075  -0.03961  -0.03781   0.04355
 157        2S          0.00198  -0.00277   0.14655   0.13985  -0.16199
 158        3S         -0.00445   0.00605  -0.30756  -0.29218   0.34797
 159        4S          0.00098  -0.00020  -0.00082  -0.00068   0.00212
 160        5S          0.00011   0.00017  -0.01667  -0.01573   0.01689
 161        6S         -0.01023  -0.00197   0.00542   0.00308   0.00577
 162        7S         -0.00680   0.00109   0.00239  -0.00055  -0.00032
 163        8PX         0.00000   0.00000   0.00000   0.00000   0.00000
 164        8PY         0.02269  -0.00461  -0.20021  -0.22532  -0.01759
 165        8PZ        -0.01981   0.00592   0.12808   0.13541  -0.01117
 166        9PX         0.00000   0.00000   0.00000   0.00000   0.00000
 167        9PY        -0.06012   0.01187   0.52034   0.58765   0.05780
 168        9PZ         0.05348  -0.01615  -0.33353  -0.35151   0.02650
 169       10PX         0.00000   0.00000   0.00000   0.00000   0.00000
 170       10PY         0.00064   0.00051  -0.00262  -0.00091  -0.00078
 171       10PZ         0.00052  -0.00038   0.00138   0.00137   0.00090
 172       11PX         0.00000   0.00000   0.00000   0.00000   0.00000
 173       11PY        -0.00334   0.00059   0.02471   0.02777   0.00267
 174       11PZ         0.00311  -0.00096  -0.01594  -0.01661   0.00133
 175       12PX         0.00000   0.00000   0.00000   0.00000   0.00000
 176       12PY         0.00466  -0.00017  -0.00156   0.00109   0.00053
 177       12PZ        -0.00202  -0.00164   0.00126  -0.00025   0.00213
 178       13PX         0.00000   0.00000   0.00000   0.00000   0.00000
 179       13PY         0.00068  -0.00025  -0.00043   0.00002   0.00005
 180       13PZ        -0.00057   0.00013   0.00017  -0.00001  -0.00026
 181       14D 0       -0.00002  -0.00001   0.00177   0.00177  -0.00093
 182       14D+1        0.00000   0.00000   0.00000   0.00000   0.00000
 183       14D-1       -0.00301   0.00085   0.02773   0.03070  -0.00179
 184       14D+2       -0.00188   0.00063   0.01768   0.01948  -0.00215
 185       14D-2        0.00000   0.00000   0.00000   0.00000   0.00000
 186       15D 0       -0.00006   0.00000   0.00022   0.00011  -0.00006
 187       15D+1        0.00000   0.00000   0.00000   0.00000   0.00000
 188       15D-1       -0.00022   0.00009   0.00273   0.00297  -0.00034
 189       15D+2       -0.00012   0.00011   0.00186   0.00191  -0.00037
 190       15D-2        0.00000   0.00000   0.00000   0.00000   0.00000
 191       16D 0        0.00001   0.00020  -0.00002   0.00017  -0.00027
 192       16D+1        0.00000   0.00000   0.00000   0.00000   0.00000
 193       16D-1        0.00034  -0.00009  -0.00107  -0.00058  -0.00031
 194       16D+2        0.00040  -0.00001  -0.00084  -0.00035  -0.00010
 195       16D-2        0.00000   0.00000   0.00000   0.00000   0.00000
 196       17D 0        0.00009  -0.00025   0.00004  -0.00017   0.00035
 197       17D+1        0.00000   0.00000   0.00000   0.00000   0.00000
 198       17D-1        0.00116   0.00022  -0.00062  -0.00026  -0.00028
 199       17D+2        0.00062  -0.00024  -0.00044   0.00015   0.00032
 200       17D-2        0.00000   0.00000   0.00000   0.00000   0.00000
 201       18F 0       -0.00008   0.00002   0.00025   0.00031  -0.00004
 202       18F+1        0.00000   0.00000   0.00000   0.00000   0.00000
 203       18F-1       -0.00003   0.00000   0.00011   0.00013  -0.00004
 204       18F+2       -0.00001   0.00004   0.00039   0.00045  -0.00010
 205       18F-2        0.00000   0.00000   0.00000   0.00000   0.00000
 206       18F+3        0.00000   0.00000   0.00000   0.00000   0.00000
 207       18F-3       -0.00007  -0.00004  -0.00020  -0.00024   0.00007
 208       19F 0        0.00002   0.00006  -0.00032  -0.00033  -0.00025
 209       19F+1        0.00000   0.00000   0.00000   0.00000   0.00000
 210       19F-1       -0.00004  -0.00007  -0.00018  -0.00027   0.00007
 211       19F+2        0.00000  -0.00006  -0.00058  -0.00047  -0.00002
 212       19F-2        0.00000   0.00000   0.00000   0.00000   0.00000
 213       19F+3        0.00000   0.00000   0.00000   0.00000   0.00000
 214       19F-3        0.00006   0.00008   0.00033   0.00018  -0.00011
                           6         7         8         9        10
     Eigenvalues --     2.00001   2.00001   2.00001   2.00001   2.00001
   1 1   C  1S         -0.00917   0.08471   0.00000   0.01031  -0.09383
   2        2S          0.00014  -0.00244   0.00000  -0.00016   0.00142
   3        3S         -0.00037   0.00317   0.00000   0.00042  -0.00384
   4        4S         -0.00013   0.00911   0.00000  -0.00012   0.00130
   5        5S         -0.00010   0.00135   0.00000   0.00009  -0.00071
   6        6PX         0.00000   0.00000  -0.00073   0.00000   0.00000
   7        6PY         0.00002   0.00000   0.00000  -0.00031  -0.00004
   8        6PZ         0.00005  -0.00114   0.00000  -0.00006   0.00054
   9        7PX         0.00000   0.00000  -0.00006   0.00000   0.00000
  10        7PY         0.00017   0.00000   0.00000  -0.00044  -0.00006
  11        7PZ         0.00001  -0.00052   0.00000  -0.00001   0.00013
  12        8PX         0.00000   0.00000   0.00157   0.00000   0.00000
  13        8PY         0.00061   0.00004   0.00000  -0.00525  -0.00056
  14        8PZ        -0.00017   0.00321   0.00000  -0.00114   0.00936
  15        9PX         0.00000   0.00000  -0.00091   0.00000   0.00000
  16        9PY         0.00257   0.00002   0.00000  -0.00119  -0.00013
  17        9PZ        -0.00003   0.00109   0.00000  -0.00020   0.00165
  18       10D 0        0.00000  -0.00008   0.00000   0.00002  -0.00015
  19       10D+1        0.00000   0.00000  -0.00021   0.00000   0.00000
  20       10D-1       -0.00013   0.00000   0.00000  -0.00005  -0.00001
  21       10D+2        0.00000   0.00007   0.00000   0.00001  -0.00006
  22       10D-2        0.00000   0.00000   0.00000   0.00000   0.00000
  23       11D 0        0.00000   0.00029   0.00000   0.00004  -0.00029
  24       11D+1        0.00000   0.00000   0.00057   0.00000   0.00000
  25       11D-1       -0.00001  -0.00001   0.00000  -0.00039  -0.00004
  26       11D+2       -0.00001  -0.00025   0.00000   0.00003  -0.00031
  27       11D-2        0.00000   0.00000   0.00001   0.00000   0.00000
  28       12D 0       -0.00009   0.00183   0.00000  -0.00003   0.00016
  29       12D+1        0.00000   0.00000  -0.00136   0.00000   0.00000
  30       12D-1        0.00099   0.00002   0.00000   0.00064   0.00011
  31       12D+2       -0.00004   0.00020   0.00000  -0.00006   0.00041
  32       12D-2        0.00000   0.00000   0.00001   0.00000   0.00000
  33       13F 0        0.00000  -0.00013   0.00000   0.00000  -0.00002
  34       13F+1        0.00000   0.00000  -0.00013   0.00000   0.00000
  35       13F-1        0.00002   0.00000   0.00000   0.00003   0.00000
  36       13F+2        0.00000  -0.00001   0.00000  -0.00001   0.00005
  37       13F-2        0.00000   0.00000   0.00000   0.00000   0.00000
  38       13F+3        0.00000   0.00000   0.00005   0.00000   0.00000
  39       13F-3       -0.00002   0.00000   0.00000  -0.00003   0.00000
  40       14F 0        0.00002   0.00002   0.00000  -0.00005   0.00048
  41       14F+1        0.00000   0.00000   0.00095   0.00000   0.00000
  42       14F-1        0.00000  -0.00003   0.00000  -0.00032  -0.00003
  43       14F+2        0.00002  -0.00001   0.00000   0.00004  -0.00032
  44       14F-2        0.00000   0.00000   0.00001   0.00000   0.00000
  45       14F+3        0.00000   0.00000  -0.00031   0.00000   0.00000
  46       14F-3        0.00002  -0.00001   0.00000   0.00022   0.00003
  47 2   S  1S          0.00311  -0.08757   0.00000  -0.00208   0.01583
  48        2S         -0.01074   0.30184   0.00000   0.00729  -0.05545
  49        3S          0.00016  -0.00497   0.00000  -0.00011   0.00094
  50        4S         -0.00077   0.02166   0.00000   0.00053  -0.00400
  51        5S          0.00031  -0.00804   0.00000   0.00074  -0.00612
  52        6S          0.00009  -0.00274   0.00000   0.00051  -0.00414
  53        7PX         0.00000   0.00000   0.72641   0.00000   0.00000
  54        7PY         0.04514  -0.00320   0.00000   0.02289   0.00336
  55        7PZ         0.00985  -0.29422   0.00000  -0.00683   0.04887
  56        8PX         0.00000   0.00000  -0.00923   0.00000   0.00000
  57        8PY        -0.00054   0.00007   0.00000   0.00040   0.00004
  58        8PZ        -0.00017   0.00525   0.00000   0.00001  -0.00003
  59        9PX         0.00000   0.00000   0.04624   0.00000   0.00000
  60        9PY         0.00278  -0.00021   0.00000   0.00135   0.00020
  61        9PZ         0.00064  -0.01909   0.00000  -0.00044   0.00312
  62       10PX         0.00000   0.00000   0.00045   0.00000   0.00000
  63       10PY        -0.00063   0.00003   0.00000   0.00134   0.00017
  64       10PZ        -0.00012   0.00351   0.00000  -0.00047   0.00391
  65       11PX         0.00000   0.00000  -0.00015   0.00000   0.00000
  66       11PY        -0.00047   0.00000   0.00000   0.00012   0.00002
  67       11PZ        -0.00001   0.00020   0.00000  -0.00006   0.00051
  68       12D 0        0.00004  -0.00140   0.00000  -0.00002   0.00017
  69       12D+1        0.00000   0.00000   0.00161   0.00000   0.00000
  70       12D-1        0.00022  -0.00004   0.00000  -0.00045  -0.00005
  71       12D+2        0.00000  -0.00010   0.00000  -0.00001   0.00008
  72       12D-2        0.00000   0.00000   0.00001   0.00000   0.00000
  73       13D 0       -0.00001   0.00016   0.00000   0.00001  -0.00004
  74       13D+1        0.00000   0.00000  -0.00018   0.00000   0.00000
  75       13D-1        0.00000   0.00000   0.00000   0.00008   0.00001
  76       13D+2        0.00000   0.00012   0.00000   0.00001  -0.00005
  77       13D-2        0.00000   0.00000   0.00000   0.00000   0.00000
  78       14D 0        0.00001  -0.00044   0.00000   0.00008  -0.00062
  79       14D+1        0.00000   0.00000  -0.00045   0.00000   0.00000
  80       14D-1        0.00015  -0.00001   0.00000  -0.00053  -0.00007
  81       14D+2        0.00000  -0.00001   0.00000   0.00002  -0.00010
  82       14D-2        0.00000   0.00000  -0.00001   0.00000   0.00000
  83       15F 0        0.00000   0.00003   0.00000   0.00000  -0.00002
  84       15F+1        0.00000   0.00000  -0.00019   0.00000   0.00000
  85       15F-1       -0.00004   0.00000   0.00000   0.00006   0.00001
  86       15F+2        0.00000  -0.00007   0.00000   0.00001  -0.00005
  87       15F-2        0.00000   0.00000   0.00000   0.00000   0.00000
  88       15F+3        0.00000   0.00000   0.00011   0.00000   0.00000
  89       15F-3        0.00001   0.00000   0.00000  -0.00001   0.00000
  90       16F 0       -0.00001   0.00028   0.00000   0.00003  -0.00022
  91       16F+1        0.00000   0.00000  -0.00036   0.00000   0.00000
  92       16F-1       -0.00003   0.00001   0.00000   0.00018   0.00002
  93       16F+2        0.00000   0.00010   0.00000  -0.00001   0.00003
  94       16F-2        0.00000   0.00000   0.00000   0.00000   0.00000
  95       16F+3        0.00000   0.00000  -0.00009   0.00000   0.00000
  96       16F-3       -0.00004   0.00000   0.00000   0.00002   0.00000
  97 3   Br 1S         -0.08513  -0.07188   0.00000  -0.00661   0.00516
  98        2S          0.31706   0.26784   0.00000   0.02477  -0.01937
  99        3S         -0.68367  -0.57876   0.00000  -0.05387   0.04254
 100        4S         -0.00215  -0.00151   0.00000  -0.00009  -0.00008
 101        5S         -0.03313  -0.02782   0.00000  -0.00256   0.00201
 102        6S         -0.00634  -0.00572   0.00000  -0.00364   0.00302
 103        7S          0.00416   0.00082   0.00000  -0.00228   0.00181
 104        8PX         0.00000   0.00000  -0.17372   0.00000   0.00000
 105        8PY        -0.09754  -0.07892   0.00000   0.10958   0.17193
 106        8PZ        -0.03599  -0.08865   0.00000  -0.20420  -0.23478
 107        9PX         0.00000   0.00000   0.49121   0.00000   0.00000
 108        9PY         0.27452   0.21641   0.00000  -0.30999  -0.47865
 109        9PZ         0.10138   0.24676   0.00000   0.57161   0.66021
 110       10PX         0.00000   0.00000   0.00119   0.00000   0.00000
 111       10PY         0.00004  -0.00057   0.00000  -0.00135  -0.00001
 112       10PZ        -0.00025   0.00012   0.00000   0.00075   0.00122
 113       11PX         0.00000   0.00000   0.02209   0.00000   0.00000
 114       11PY         0.01244   0.00977   0.00000  -0.01379  -0.02120
 115       11PZ         0.00454   0.01130   0.00000   0.02543   0.02931
 116       12PX         0.00000   0.00000   0.00154   0.00000   0.00000
 117       12PY         0.00210   0.00002   0.00000  -0.00357  -0.00016
 118       12PZ         0.00096   0.00135   0.00000   0.00172   0.00349
 119       13PX         0.00000   0.00000   0.00022   0.00000   0.00000
 120       13PY         0.00042   0.00011   0.00000  -0.00017   0.00046
 121       13PZ         0.00048  -0.00007   0.00000  -0.00046  -0.00012
 122       14D 0        0.00074  -0.00149   0.00000  -0.00857  -0.01076
 123       14D+1        0.00000   0.00000  -0.00033   0.00000   0.00000
 124       14D-1        0.00627   0.00738   0.00000  -0.00314  -0.00789
 125       14D+2       -0.00271  -0.00558   0.00000  -0.00628  -0.00573
 126       14D-2        0.00000   0.00000  -0.00011   0.00000   0.00000
 127       15D 0        0.00007  -0.00010   0.00000  -0.00054  -0.00064
 128       15D+1        0.00000   0.00000  -0.00001   0.00000   0.00000
 129       15D-1        0.00032   0.00053   0.00000  -0.00020  -0.00049
 130       15D+2       -0.00011  -0.00042   0.00000  -0.00042  -0.00032
 131       15D-2        0.00000   0.00000   0.00010   0.00000   0.00000
 132       16D 0        0.00005  -0.00016   0.00000  -0.00020  -0.00045
 133       16D+1        0.00000   0.00000  -0.00015   0.00000   0.00000
 134       16D-1        0.00027  -0.00010   0.00000  -0.00017  -0.00020
 135       16D+2       -0.00011   0.00003   0.00000  -0.00008  -0.00033
 136       16D-2        0.00000   0.00000  -0.00035   0.00000   0.00000
 137       17D 0        0.00009   0.00007   0.00000   0.00010  -0.00031
 138       17D+1        0.00000   0.00000  -0.00027   0.00000   0.00000
 139       17D-1        0.00023   0.00001   0.00000  -0.00035   0.00021
 140       17D+2       -0.00032   0.00020   0.00000   0.00027  -0.00038
 141       17D-2        0.00000   0.00000  -0.00054   0.00000   0.00000
 142       18F 0       -0.00008  -0.00009   0.00000   0.00004   0.00010
 143       18F+1        0.00000   0.00000   0.00001   0.00000   0.00000
 144       18F-1        0.00001   0.00006   0.00000   0.00031   0.00036
 145       18F+2       -0.00009  -0.00014   0.00000  -0.00002   0.00002
 146       18F-2        0.00000   0.00000   0.00018   0.00000   0.00000
 147       18F+3        0.00000   0.00000  -0.00018   0.00000   0.00000
 148       18F-3       -0.00003  -0.00008   0.00000   0.00012   0.00010
 149       19F 0        0.00007   0.00002   0.00000  -0.00004  -0.00009
 150       19F+1        0.00000   0.00000  -0.00001   0.00000   0.00000
 151       19F-1        0.00004  -0.00013   0.00000  -0.00024  -0.00045
 152       19F+2        0.00002   0.00014   0.00000   0.00000   0.00002
 153       19F-2        0.00000   0.00000  -0.00021   0.00000   0.00000
 154       19F+3        0.00000   0.00000   0.00035   0.00000   0.00000
 155       19F-3       -0.00004   0.00010   0.00000  -0.00015  -0.00012
 156 4   Br 1S          0.08364  -0.07160   0.00000   0.00499   0.00668
 157        2S         -0.31152   0.26680   0.00000  -0.01869  -0.02504
 158        3S          0.67176  -0.57650   0.00000   0.04053   0.05487
 159        4S          0.00207  -0.00150   0.00000   0.00010  -0.00005
 160        5S          0.03255  -0.02770   0.00000   0.00193   0.00260
 161        6S          0.00614  -0.00572   0.00000   0.00277   0.00377
 162        7S         -0.00413   0.00077   0.00000   0.00178   0.00226
 163        8PX         0.00000   0.00000  -0.17502   0.00000   0.00000
 164        8PY        -0.09704   0.07865   0.00000   0.14645  -0.14212
 165        8PZ         0.03724  -0.08945   0.00000   0.25314  -0.18103
 166        9PX         0.00000   0.00000   0.49489   0.00000   0.00000
 167        9PY         0.27274  -0.21563   0.00000  -0.41236   0.39435
 168        9PZ        -0.10461   0.24887   0.00000  -0.70900   0.50952
 169       10PX         0.00000   0.00000   0.00121   0.00000   0.00000
 170       10PY         0.00006   0.00057   0.00000  -0.00130  -0.00030
 171       10PZ         0.00021   0.00009   0.00000  -0.00102   0.00102
 172       11PX         0.00000   0.00000   0.02225   0.00000   0.00000
 173       11PY         0.01236  -0.00974   0.00000  -0.01833   0.01745
 174       11PZ        -0.00469   0.01140   0.00000  -0.03153   0.02261
 175       12PX         0.00000   0.00000   0.00155   0.00000   0.00000
 176       12PY         0.00208   0.00000   0.00000  -0.00349  -0.00065
 177       12PZ        -0.00105   0.00133   0.00000  -0.00250   0.00297
 178       13PX         0.00000   0.00000   0.00022   0.00000   0.00000
 179       13PY         0.00042  -0.00011   0.00000  -0.00006  -0.00049
 180       13PZ        -0.00046  -0.00007   0.00000   0.00047  -0.00001
 181       14D 0       -0.00066  -0.00160   0.00000   0.01108  -0.00866
 182       14D+1        0.00000   0.00000  -0.00038   0.00000   0.00000
 183       14D-1        0.00633  -0.00735   0.00000  -0.00494   0.00702
 184       14D+2        0.00285  -0.00565   0.00000   0.00747  -0.00412
 185       14D-2        0.00000   0.00000   0.00012   0.00000   0.00000
 186       15D 0       -0.00007  -0.00011   0.00000   0.00070  -0.00051
 187       15D+1        0.00000   0.00000  -0.00001   0.00000   0.00000
 188       15D-1        0.00033  -0.00053   0.00000  -0.00031   0.00044
 189       15D+2        0.00012  -0.00042   0.00000   0.00049  -0.00022
 190       15D-2        0.00000   0.00000  -0.00010   0.00000   0.00000
 191       16D 0       -0.00004  -0.00019   0.00000   0.00030  -0.00039
 192       16D+1        0.00000   0.00000  -0.00015   0.00000   0.00000
 193       16D-1        0.00028   0.00012   0.00000  -0.00021   0.00016
 194       16D+2        0.00011   0.00002   0.00000   0.00016  -0.00029
 195       16D-2        0.00000   0.00000   0.00034   0.00000   0.00000
 196       17D 0       -0.00011   0.00006   0.00000  -0.00003  -0.00034
 197       17D+1        0.00000   0.00000  -0.00028   0.00000   0.00000
 198       17D-1        0.00024   0.00000   0.00000  -0.00029  -0.00027
 199       17D+2        0.00030   0.00020   0.00000  -0.00017  -0.00043
 200       17D-2        0.00000   0.00000   0.00054   0.00000   0.00000
 201       18F 0        0.00008  -0.00009   0.00000  -0.00006   0.00009
 202       18F+1        0.00000   0.00000   0.00000   0.00000   0.00000
 203       18F-1        0.00001  -0.00006   0.00000   0.00038  -0.00028
 204       18F+2        0.00010  -0.00014   0.00000   0.00001   0.00003
 205       18F-2        0.00000   0.00000  -0.00018   0.00000   0.00000
 206       18F+3        0.00000   0.00000  -0.00018   0.00000   0.00000
 207       18F-3       -0.00003   0.00008   0.00000   0.00014  -0.00007
 208       19F 0       -0.00006   0.00002   0.00000   0.00006  -0.00008
 209       19F+1        0.00000   0.00000  -0.00001   0.00000   0.00000
 210       19F-1        0.00004   0.00014   0.00000  -0.00034   0.00038
 211       19F+2       -0.00002   0.00014   0.00000  -0.00001   0.00002
 212       19F-2        0.00000   0.00000   0.00022   0.00000   0.00000
 213       19F+3        0.00000   0.00000   0.00035   0.00000   0.00000
 214       19F-3       -0.00004  -0.00010   0.00000  -0.00017   0.00008
                          11        12        13        14        15
     Eigenvalues --     2.00001   2.00000   2.00000   2.00000   2.00000
   1 1   C  1S          0.00000   0.00000   0.77003   0.00078  -0.00073
   2        2S          0.00000   0.00000  -0.00782  -0.00001   0.00001
   3        3S          0.00000   0.00000   0.03229   0.00003  -0.00003
   4        4S          0.00000   0.00000  -0.01010   0.00013  -0.00011
   5        5S          0.00000   0.00000  -0.00549  -0.00005   0.00005
   6        6PX         0.00000  -0.00154   0.00000   0.00000   0.00000
   7        6PY         0.00000   0.00000   0.00000   0.00000   0.00000
   8        6PZ         0.00000   0.00000  -0.00058  -0.00001   0.00000
   9        7PX         0.00000  -0.00173   0.00000   0.00000   0.00000
  10        7PY         0.00000   0.00000   0.00001  -0.00001  -0.00001
  11        7PZ         0.00000   0.00000   0.00165  -0.00002   0.00001
  12        8PX         0.00000  -0.00154   0.00000   0.00000   0.00000
  13        8PY         0.00000   0.00000   0.00000   0.00023   0.00024
  14        8PZ         0.00000   0.00000  -0.00401   0.00079  -0.00065
  15        9PX         0.00000  -0.00048   0.00000   0.00000   0.00000
  16        9PY         0.00000   0.00000  -0.00001   0.00008   0.00009
  17        9PZ         0.00000   0.00000   0.00069   0.00014  -0.00011
  18       10D 0        0.00000   0.00000   0.00030   0.00000   0.00000
  19       10D+1        0.00000  -0.00008   0.00000   0.00000   0.00000
  20       10D-1        0.00000   0.00000   0.00000   0.00000   0.00000
  21       10D+2        0.00000   0.00000  -0.00027   0.00000   0.00000
  22       10D-2       -0.00009   0.00000   0.00000   0.00000   0.00000
  23       11D 0        0.00000   0.00000  -0.00032  -0.00001   0.00001
  24       11D+1        0.00000   0.00108   0.00000   0.00000   0.00000
  25       11D-1        0.00000   0.00000   0.00001   0.00001   0.00001
  26       11D+2        0.00000   0.00000   0.00151  -0.00001   0.00000
  27       11D-2       -0.00066   0.00000   0.00000   0.00000   0.00000
  28       12D 0        0.00000   0.00000  -0.00405   0.00008  -0.00006
  29       12D+1       -0.00001  -0.00147   0.00000   0.00000   0.00000
  30       12D-1        0.00000   0.00000   0.00002  -0.00001  -0.00001
  31       12D+2        0.00000   0.00000  -0.00150   0.00006  -0.00005
  32       12D-2        0.00006   0.00000   0.00000   0.00000   0.00000
  33       13F 0        0.00000   0.00000   0.00034   0.00000   0.00000
  34       13F+1        0.00000  -0.00008   0.00000   0.00000   0.00000
  35       13F-1        0.00000   0.00000   0.00000   0.00000   0.00001
  36       13F+2        0.00000   0.00000  -0.00007   0.00000   0.00000
  37       13F-2        0.00000   0.00000   0.00000   0.00000   0.00000
  38       13F+3        0.00000   0.00001   0.00000   0.00000   0.00000
  39       13F-3        0.00000   0.00000   0.00000   0.00000   0.00000
  40       14F 0        0.00000   0.00000  -0.00109   0.00003  -0.00003
  41       14F+1        0.00000   0.00051   0.00000   0.00000   0.00000
  42       14F-1        0.00000   0.00000   0.00003  -0.00004  -0.00004
  43       14F+2        0.00000   0.00000  -0.00087  -0.00004   0.00003
  44       14F-2        0.00019   0.00001   0.00000   0.00000   0.00000
  45       14F+3        0.00000   0.00019   0.00000   0.00000   0.00000
  46       14F-3        0.00000   0.00000   0.00001  -0.00002  -0.00003
  47 2   S  1S          0.00000   0.00000   0.06081   0.00178  -0.00140
  48        2S          0.00000   0.00000  -0.21165   0.00005  -0.00002
  49        3S          0.00000   0.00000   0.00232   0.00002  -0.00002
  50        4S          0.00000   0.00000  -0.01560   0.00000   0.00000
  51        5S          0.00000   0.00000   0.00958  -0.00062   0.00051
  52        6S          0.00000   0.00000   0.00017  -0.00036   0.00030
  53        7PX         0.00222   0.64587   0.00000   0.00000   0.00000
  54        7PY         0.00000   0.00000   0.00462  -0.00003  -0.00006
  55        7PZ         0.00000   0.00000   0.47172   0.00011  -0.00014
  56        8PX        -0.00003  -0.00703   0.00000   0.00000   0.00000
  57        8PY         0.00000   0.00000  -0.00008   0.00001   0.00001
  58        8PZ         0.00000   0.00000  -0.00545   0.00006  -0.00005
  59        9PX         0.00014   0.04159   0.00000   0.00000   0.00000
  60        9PY         0.00000   0.00000   0.00031   0.00000   0.00000
  61        9PZ         0.00000   0.00000   0.03107   0.00000   0.00000
  62       10PX         0.00001   0.00271   0.00000   0.00000   0.00000
  63       10PY         0.00000   0.00000  -0.00008  -0.00005  -0.00007
  64       10PZ         0.00000   0.00000  -0.00138   0.00035  -0.00029
  65       11PX         0.00000  -0.00024   0.00000   0.00000   0.00000
  66       11PY         0.00000   0.00000   0.00000  -0.00001  -0.00001
  67       11PZ         0.00000   0.00000  -0.00003   0.00004  -0.00003
  68       12D 0        0.00000   0.00000   0.00094  -0.00001   0.00001
  69       12D+1        0.00000   0.00123   0.00000   0.00000   0.00000
  70       12D-1        0.00000   0.00000   0.00005   0.00001   0.00001
  71       12D+2        0.00000   0.00000   0.00029   0.00001  -0.00001
  72       12D-2       -0.00004   0.00001   0.00000   0.00000   0.00000
  73       13D 0        0.00000   0.00000  -0.00055   0.00000   0.00000
  74       13D+1        0.00000  -0.00006   0.00000   0.00000   0.00000
  75       13D-1        0.00000   0.00000  -0.00001   0.00000   0.00000
  76       13D+2        0.00000   0.00000  -0.00010   0.00000   0.00000
  77       13D-2       -0.00003   0.00000   0.00000   0.00000   0.00000
  78       14D 0        0.00000   0.00000  -0.00002  -0.00005   0.00004
  79       14D+1        0.00000  -0.00110   0.00000   0.00000   0.00000
  80       14D-1        0.00000   0.00000   0.00003   0.00003   0.00003
  81       14D+2        0.00000   0.00000   0.00055  -0.00001   0.00001
  82       14D-2        0.00000  -0.00001   0.00000   0.00000   0.00000
  83       15F 0        0.00000   0.00000   0.00040   0.00000   0.00000
  84       15F+1        0.00000  -0.00021   0.00000   0.00000   0.00000
  85       15F-1        0.00000   0.00000   0.00000   0.00000   0.00000
  86       15F+2        0.00000   0.00000   0.00011  -0.00001   0.00001
  87       15F-2        0.00000   0.00000   0.00000   0.00000   0.00000
  88       15F+3        0.00000   0.00009   0.00000   0.00000   0.00000
  89       15F-3        0.00000   0.00000   0.00000   0.00000   0.00000
  90       16F 0        0.00000   0.00000  -0.00037  -0.00001   0.00001
  91       16F+1        0.00000  -0.00012   0.00000   0.00000   0.00000
  92       16F-1        0.00000   0.00000  -0.00002   0.00000   0.00000
  93       16F+2        0.00000   0.00000  -0.00045   0.00000   0.00000
  94       16F-2        0.00001   0.00000   0.00000   0.00000   0.00000
  95       16F+3        0.00000  -0.00012   0.00000   0.00000   0.00000
  96       16F-3        0.00000   0.00000  -0.00001   0.00000   0.00000
  97 3   Br 1S          0.00000   0.00000   0.00146   0.00791   0.00891
  98        2S          0.00000   0.00000  -0.00416  -0.02281  -0.02875
  99        3S          0.00000   0.00000  -0.00664  -0.00194  -0.00286
 100        4S          0.00000   0.00000   0.00066  -0.00002   0.00002
 101        5S          0.00000   0.00000  -0.00050  -0.00007  -0.00009
 102        6S          0.00000   0.00000   0.00084   0.00038  -0.00014
 103        7S          0.00000   0.00000   0.00246   0.00033   0.00003
 104        8PX        -0.26267   0.19731   0.00000   0.00000   0.00000
 105        8PY         0.00000   0.00000  -0.08211   0.00060  -0.65367
 106        8PZ         0.00000   0.00000  -0.07246  -0.11888   0.75365
 107        9PX         0.74283  -0.55542   0.00000   0.00000   0.00000
 108        9PY         0.00000   0.00000   0.16755  -0.00094   0.00962
 109        9PZ         0.00000   0.00000   0.16309   0.00153  -0.01747
 110       10PX         0.00125   0.00030   0.00000   0.00000   0.00000
 111       10PY         0.00000   0.00000  -0.00024   0.00005  -0.00032
 112       10PZ         0.00000   0.00000  -0.00002  -0.00002   0.00033
 113       11PX         0.03317  -0.02420   0.00000   0.00000   0.00000
 114       11PY         0.00000   0.00000   0.00691  -0.00005   0.00091
 115       11PZ         0.00000   0.00000   0.00666   0.00015  -0.00129
 116       12PX         0.00382  -0.00248   0.00000   0.00000   0.00000
 117       12PY         0.00000   0.00000   0.00192   0.00025   0.00003
 118       12PZ         0.00000   0.00000  -0.00015   0.00014  -0.00010
 119       13PX        -0.00031   0.00038   0.00000   0.00000   0.00000
 120       13PY         0.00000   0.00000   0.00037   0.00005  -0.00002
 121       13PZ         0.00000   0.00000   0.00018   0.00002   0.00004
 122       14D 0        0.00000   0.00000  -0.00132  -0.00005   0.00055
 123       14D+1       -0.00053   0.00019   0.00000   0.00000   0.00000
 124       14D-1        0.00000   0.00000   0.01058   0.00002   0.00033
 125       14D+2        0.00000   0.00000  -0.00736  -0.00006   0.00029
 126       14D-2        0.00018  -0.00031   0.00000   0.00000   0.00000
 127       15D 0        0.00000   0.00000  -0.00009   0.00000   0.00001
 128       15D+1        0.00004  -0.00010   0.00000   0.00000   0.00000
 129       15D-1        0.00000   0.00000   0.00092   0.00001   0.00001
 130       15D+2        0.00000   0.00000  -0.00065   0.00000   0.00000
 131       15D-2        0.00012  -0.00016   0.00000   0.00000   0.00000
 132       16D 0        0.00000   0.00000   0.00012  -0.00001   0.00009
 133       16D+1       -0.00011   0.00012   0.00000   0.00000   0.00000
 134       16D-1        0.00000   0.00000   0.00098   0.00000   0.00003
 135       16D+2        0.00000   0.00000  -0.00043  -0.00002   0.00006
 136       16D-2       -0.00019  -0.00001   0.00000   0.00000   0.00000
 137       17D 0        0.00000   0.00000  -0.00025  -0.00002  -0.00001
 138       17D+1        0.00007  -0.00011   0.00000   0.00000   0.00000
 139       17D-1        0.00000   0.00000   0.00011   0.00004  -0.00001
 140       17D+2        0.00000   0.00000  -0.00052  -0.00005  -0.00001
 141       17D-2        0.00013  -0.00036   0.00000   0.00000   0.00000
 142       18F 0        0.00000   0.00000  -0.00012   0.00000   0.00000
 143       18F+1        0.00002  -0.00002   0.00000   0.00000   0.00000
 144       18F-1        0.00000   0.00000   0.00011   0.00000  -0.00001
 145       18F+2        0.00000   0.00000  -0.00019   0.00000   0.00000
 146       18F-2        0.00023  -0.00018   0.00000   0.00000   0.00000
 147       18F+3       -0.00018   0.00011   0.00000   0.00000   0.00000
 148       18F-3        0.00000   0.00000  -0.00007  -0.00001   0.00000
 149       19F 0        0.00000   0.00000  -0.00007   0.00000   0.00001
 150       19F+1       -0.00002   0.00006   0.00000   0.00000   0.00000
 151       19F-1        0.00000   0.00000   0.00021  -0.00001   0.00004
 152       19F+2        0.00000   0.00000  -0.00022   0.00000   0.00000
 153       19F-2       -0.00018   0.00016   0.00000   0.00000   0.00000
 154       19F+3        0.00014   0.00002   0.00000   0.00000   0.00000
 155       19F-3        0.00000   0.00000  -0.00006   0.00000   0.00001
 156 4   Br 1S          0.00000   0.00000   0.00143  -0.00639  -0.01080
 157        2S          0.00000   0.00000  -0.00406   0.02126   0.03203
 158        3S          0.00000   0.00000  -0.00673   0.00212   0.00282
 159        4S          0.00000   0.00000   0.00065  -0.00002   0.00002
 160        5S          0.00000   0.00000  -0.00050   0.00006   0.00009
 161        6S          0.00000   0.00000   0.00088   0.00018  -0.00032
 162        7S          0.00000   0.00000   0.00250   0.00003  -0.00032
 163        8PX         0.26206   0.19698   0.00000   0.00000   0.00000
 164        8PY         0.00000   0.00000   0.08212  -0.62705  -0.13106
 165        8PZ         0.00000   0.00000  -0.07183  -0.77860  -0.00799
 166        9PX        -0.74110  -0.55445   0.00000   0.00000   0.00000
 167        9PY         0.00000   0.00000  -0.16796   0.00973   0.00072
 168        9PZ         0.00000   0.00000   0.16130   0.01732   0.00166
 169       10PX        -0.00125   0.00030   0.00000   0.00000   0.00000
 170       10PY         0.00000   0.00000   0.00025  -0.00031  -0.00002
 171       10PZ         0.00000   0.00000   0.00000  -0.00034  -0.00003
 172       11PX        -0.03309  -0.02415   0.00000   0.00000   0.00000
 173       11PY         0.00000   0.00000  -0.00693   0.00089   0.00013
 174       11PZ         0.00000   0.00000   0.00658   0.00131   0.00007
 175       12PX        -0.00382  -0.00248   0.00000   0.00000   0.00000
 176       12PY         0.00000   0.00000  -0.00193  -0.00001   0.00024
 177       12PZ         0.00000   0.00000  -0.00012   0.00012  -0.00011
 178       13PX         0.00031   0.00038   0.00000   0.00000   0.00000
 179       13PY         0.00000   0.00000  -0.00037  -0.00003   0.00004
 180       13PZ         0.00000   0.00000   0.00019  -0.00004  -0.00003
 181       14D 0        0.00000   0.00000  -0.00139  -0.00056  -0.00005
 182       14D+1        0.00060   0.00025   0.00000   0.00000   0.00000
 183       14D-1        0.00000   0.00000  -0.01052   0.00032   0.00008
 184       14D+2        0.00000   0.00000  -0.00734  -0.00031   0.00002
 185       14D-2        0.00017   0.00030   0.00000   0.00000   0.00000
 186       15D 0        0.00000   0.00000  -0.00010  -0.00001   0.00000
 187       15D+1       -0.00004  -0.00009   0.00000   0.00000   0.00000
 188       15D-1        0.00000   0.00000  -0.00091   0.00001   0.00001
 189       15D+2        0.00000   0.00000  -0.00065   0.00000   0.00001
 190       15D-2        0.00012   0.00016   0.00000   0.00000   0.00000
 191       16D 0        0.00000   0.00000   0.00015  -0.00009   0.00000
 192       16D+1        0.00011   0.00012   0.00000   0.00000   0.00000
 193       16D-1        0.00000   0.00000  -0.00100   0.00003   0.00000
 194       16D+2        0.00000   0.00000  -0.00042  -0.00006   0.00001
 195       16D-2       -0.00019   0.00001   0.00000   0.00000   0.00000
 196       17D 0        0.00000   0.00000  -0.00024   0.00000   0.00002
 197       17D+1       -0.00007  -0.00012   0.00000   0.00000   0.00000
 198       17D-1        0.00000   0.00000  -0.00011  -0.00002   0.00004
 199       17D+2        0.00000   0.00000  -0.00052   0.00000   0.00005
 200       17D-2        0.00013   0.00036   0.00000   0.00000   0.00000
 201       18F 0        0.00000   0.00000  -0.00012   0.00000   0.00000
 202       18F+1       -0.00002  -0.00002   0.00000   0.00000   0.00000
 203       18F-1        0.00000   0.00000  -0.00011  -0.00001   0.00000
 204       18F+2        0.00000   0.00000  -0.00019   0.00000   0.00000
 205       18F-2        0.00023   0.00018   0.00000   0.00000   0.00000
 206       18F+3        0.00018   0.00011   0.00000   0.00000   0.00000
 207       18F-3        0.00000   0.00000   0.00007   0.00000   0.00000
 208       19F 0        0.00000   0.00000  -0.00007  -0.00001  -0.00001
 209       19F+1        0.00002   0.00005   0.00000   0.00000   0.00000
 210       19F-1        0.00000   0.00000  -0.00022   0.00004   0.00000
 211       19F+2        0.00000   0.00000  -0.00022   0.00000  -0.00001
 212       19F-2       -0.00018  -0.00016   0.00000   0.00000   0.00000
 213       19F+3       -0.00014   0.00002   0.00000   0.00000   0.00000
 214       19F-3        0.00000   0.00000   0.00006   0.00001   0.00000
                          16        17        18        19        20
     Eigenvalues --     2.00000   2.00000   2.00000   2.00000   2.00000
   1 1   C  1S         -0.00003   0.00000   0.00000  -0.02385  -0.00003
   2        2S          0.00000   0.00000   0.00000   0.00022   0.00000
   3        3S          0.00000   0.00000   0.00000  -0.00105   0.00000
   4        4S          0.00000   0.00000   0.00000   0.00137   0.00000
   5        5S          0.00000   0.00000   0.00000   0.00064   0.00000
   6        6PX         0.00000   0.00001   0.00000   0.00000   0.00000
   7        6PY        -0.00003   0.00000   0.00000   0.00000   0.00000
   8        6PZ         0.00000   0.00000   0.00000   0.00004   0.00000
   9        7PX         0.00000  -0.00002   0.00000   0.00000   0.00000
  10        7PY         0.00006   0.00000   0.00000   0.00000  -0.00002
  11        7PZ         0.00000   0.00000   0.00000  -0.00007   0.00000
  12        8PX         0.00000  -0.00015   0.00000   0.00000   0.00000
  13        8PY         0.00061   0.00000   0.00000   0.00000  -0.00002
  14        8PZ        -0.00002   0.00000   0.00000  -0.00053   0.00000
  15        9PX         0.00000   0.00003   0.00000   0.00000   0.00000
  16        9PY         0.00007   0.00000   0.00000   0.00000   0.00001
  17        9PZ         0.00000   0.00000   0.00000  -0.00013   0.00000
  18       10D 0        0.00000   0.00000   0.00000  -0.00001   0.00000
  19       10D+1        0.00000   0.00000   0.00000   0.00000   0.00000
  20       10D-1        0.00000   0.00000   0.00000   0.00000   0.00000
  21       10D+2        0.00000   0.00000   0.00000   0.00001   0.00000
  22       10D-2        0.00000   0.00000  -0.00001   0.00000   0.00000
  23       11D 0        0.00000   0.00000   0.00000   0.00003   0.00000
  24       11D+1        0.00000   0.00002   0.00000   0.00000   0.00000
  25       11D-1       -0.00008   0.00000   0.00000   0.00000   0.00001
  26       11D+2        0.00000   0.00000   0.00000  -0.00014   0.00000
  27       11D-2        0.00000   0.00000   0.00004   0.00000   0.00000
  28       12D 0        0.00000   0.00000   0.00000  -0.00011   0.00000
  29       12D+1        0.00000  -0.00004   0.00000   0.00000   0.00000
  30       12D-1       -0.00042   0.00000   0.00000   0.00000   0.00005
  31       12D+2        0.00000   0.00000   0.00000  -0.00021   0.00000
  32       12D-2        0.00000   0.00000  -0.00004   0.00000   0.00000
  33       13F 0        0.00000   0.00000   0.00000   0.00000   0.00000
  34       13F+1        0.00000   0.00000   0.00000   0.00000   0.00000
  35       13F-1        0.00000   0.00000   0.00000   0.00000   0.00000
  36       13F+2        0.00000   0.00000   0.00000   0.00000   0.00000
  37       13F-2        0.00000   0.00000   0.00000   0.00000   0.00000
  38       13F+3        0.00000  -0.00001   0.00000   0.00000   0.00000
  39       13F-3        0.00001   0.00000   0.00000   0.00000   0.00000
  40       14F 0        0.00000   0.00000   0.00000   0.00001   0.00000
  41       14F+1        0.00000  -0.00002   0.00000   0.00000   0.00000
  42       14F-1       -0.00005   0.00000   0.00000   0.00000   0.00001
  43       14F+2        0.00000   0.00000   0.00000   0.00004   0.00000
  44       14F-2        0.00000   0.00000  -0.00003   0.00000   0.00000
  45       14F+3        0.00000   0.00004   0.00000   0.00000   0.00000
  46       14F-3       -0.00004   0.00000   0.00000   0.00000   0.00001
  47 2   S  1S          0.00005   0.00000   0.00000   0.03430   0.00011
  48        2S          0.00000   0.00000   0.00000   0.00604   0.00001
  49        3S          0.00000   0.00000   0.00000  -0.00002   0.00000
  50        4S          0.00000   0.00000   0.00000   0.00043   0.00000
  51        5S          0.00001   0.00000   0.00000  -0.00003   0.00000
  52        6S          0.00000   0.00000   0.00000  -0.00003   0.00000
  53        7PX         0.00000  -0.00082  -0.00001   0.00000   0.00000
  54        7PY         0.00056   0.00000   0.00000  -0.00013   0.00004
  55        7PZ        -0.00001   0.00000   0.00000  -0.01331  -0.00001
  56        8PX         0.00000   0.00001   0.00000   0.00000   0.00000
  57        8PY         0.00000   0.00000   0.00000   0.00000  -0.00001
  58        8PZ         0.00000   0.00000   0.00000   0.00016   0.00000
  59        9PX         0.00000  -0.00005   0.00000   0.00000   0.00000
  60        9PY         0.00004   0.00000   0.00000  -0.00001   0.00000
  61        9PZ         0.00000   0.00000   0.00000  -0.00089   0.00000
  62       10PX         0.00000   0.00010   0.00000   0.00000   0.00000
  63       10PY         0.00018   0.00000   0.00000   0.00000  -0.00001
  64       10PZ        -0.00001   0.00000   0.00000   0.00006   0.00000
  65       11PX         0.00000  -0.00001   0.00000   0.00000   0.00000
  66       11PY         0.00000   0.00000   0.00000   0.00000   0.00000
  67       11PZ         0.00000   0.00000   0.00000   0.00003   0.00000
  68       12D 0        0.00000   0.00000   0.00000  -0.00007   0.00000
  69       12D+1        0.00000  -0.00002   0.00000   0.00000   0.00000
  70       12D-1       -0.00001   0.00000   0.00000   0.00000   0.00000
  71       12D+2        0.00000   0.00000   0.00000   0.00001   0.00000
  72       12D-2        0.00000   0.00000   0.00001   0.00000   0.00000
  73       13D 0        0.00000   0.00000   0.00000   0.00002   0.00000
  74       13D+1        0.00000   0.00000   0.00000   0.00000   0.00000
  75       13D-1        0.00000   0.00000   0.00000   0.00000   0.00000
  76       13D+2        0.00000   0.00000   0.00000   0.00000   0.00000
  77       13D-2        0.00000   0.00000   0.00000   0.00000   0.00000
  78       14D 0        0.00000   0.00000   0.00000  -0.00003   0.00000
  79       14D+1        0.00000  -0.00005   0.00000   0.00000   0.00000
  80       14D-1       -0.00004   0.00000   0.00000   0.00000   0.00000
  81       14D+2        0.00000   0.00000   0.00000   0.00002   0.00000
  82       14D-2        0.00000   0.00000   0.00001   0.00000   0.00000
  83       15F 0        0.00000   0.00000   0.00000  -0.00001   0.00000
  84       15F+1        0.00000   0.00000   0.00000   0.00000   0.00000
  85       15F-1        0.00000   0.00000   0.00000   0.00000   0.00000
  86       15F+2        0.00000   0.00000   0.00000  -0.00001   0.00000
  87       15F-2        0.00000   0.00000   0.00000   0.00000   0.00000
  88       15F+3        0.00000   0.00000   0.00000   0.00000   0.00000
  89       15F-3        0.00000   0.00000   0.00000   0.00000   0.00000
  90       16F 0        0.00000   0.00000   0.00000   0.00002   0.00000
  91       16F+1        0.00000   0.00002   0.00000   0.00000   0.00000
  92       16F-1        0.00000   0.00000   0.00000   0.00000   0.00000
  93       16F+2        0.00000   0.00000   0.00000   0.00000   0.00000
  94       16F-2        0.00000   0.00000  -0.00001   0.00000   0.00000
  95       16F+3        0.00000  -0.00001   0.00000   0.00000   0.00000
  96       16F-3        0.00000   0.00000   0.00000   0.00000   0.00000
  97 3   Br 1S         -0.05067   0.00000   0.00000  -0.00625  -0.21647
  98        2S          0.15839   0.00000   0.00000   0.02084   0.70191
  99        3S          0.01474   0.00000   0.00000  -0.00680   0.02997
 100        4S         -0.00014   0.00000   0.00000   0.00008  -0.00020
 101        5S          0.00044   0.00000   0.00000  -0.00022   0.00071
 102        6S          0.00076   0.00000   0.00000  -0.00078   0.00003
 103        7S          0.00008   0.00000   0.00000  -0.00029   0.00003
 104        8PX         0.00000   0.69747   0.72829   0.00000   0.00000
 105        8PY         0.46988   0.00000   0.00000  -0.57575  -0.13672
 106        8PZ         0.50448   0.00000   0.00000  -0.40460  -0.08641
 107        9PX         0.00000  -0.01547  -0.01690   0.00000   0.00000
 108        9PY         0.00522   0.00000   0.00000  -0.00884   0.00232
 109        9PZ        -0.00031   0.00000   0.00000  -0.00577   0.00145
 110       10PX         0.00000   0.00028   0.00030   0.00000   0.00000
 111       10PY         0.00026   0.00000   0.00000  -0.00036  -0.00007
 112       10PZ         0.00030   0.00000   0.00000  -0.00023  -0.00005
 113       11PX         0.00000  -0.00118  -0.00127   0.00000   0.00000
 114       11PY        -0.00020   0.00000   0.00000   0.00017   0.00022
 115       11PZ        -0.00045   0.00000   0.00000   0.00013   0.00014
 116       12PX         0.00000  -0.00008  -0.00013   0.00000   0.00000
 117       12PY         0.00023   0.00000   0.00000  -0.00025   0.00005
 118       12PZ         0.00008   0.00000   0.00000  -0.00024   0.00003
 119       13PX         0.00000   0.00001   0.00003   0.00000   0.00000
 120       13PY         0.00000   0.00000   0.00000  -0.00004   0.00000
 121       13PZ         0.00001   0.00000   0.00000  -0.00001   0.00000
 122       14D 0        0.00008   0.00000   0.00000   0.00001  -0.00003
 123       14D+1        0.00000   0.00003   0.00003   0.00000   0.00000
 124       14D-1       -0.00021   0.00000   0.00000  -0.00008   0.00001
 125       14D+2        0.00025   0.00000   0.00000   0.00003   0.00006
 126       14D-2        0.00000  -0.00001  -0.00002   0.00000   0.00000
 127       15D 0        0.00000   0.00000   0.00000   0.00000   0.00000
 128       15D+1        0.00000  -0.00001  -0.00001   0.00000   0.00000
 129       15D-1       -0.00004   0.00000   0.00000   0.00002   0.00000
 130       15D+2        0.00003   0.00000   0.00000  -0.00002   0.00000
 131       15D-2        0.00000  -0.00002  -0.00002   0.00000   0.00000
 132       16D 0        0.00003   0.00000   0.00000   0.00001  -0.00001
 133       16D+1        0.00000   0.00003   0.00002   0.00000   0.00000
 134       16D-1        0.00010   0.00000   0.00000  -0.00014  -0.00001
 135       16D+2       -0.00005   0.00000   0.00000   0.00011   0.00000
 136       16D-2        0.00000   0.00004   0.00004   0.00000   0.00000
 137       17D 0       -0.00003   0.00000   0.00000  -0.00001   0.00000
 138       17D+1        0.00000   0.00000  -0.00002   0.00000   0.00000
 139       17D-1        0.00003   0.00000   0.00000  -0.00006   0.00001
 140       17D+2       -0.00001   0.00000   0.00000   0.00003  -0.00002
 141       17D-2        0.00000   0.00000  -0.00002   0.00000   0.00000
 142       18F 0        0.00000   0.00000   0.00000   0.00000   0.00000
 143       18F+1        0.00000   0.00000   0.00000   0.00000   0.00000
 144       18F-1        0.00000   0.00000   0.00000   0.00000   0.00000
 145       18F+2       -0.00001   0.00000   0.00000   0.00001   0.00000
 146       18F-2        0.00000  -0.00001   0.00000   0.00000   0.00000
 147       18F+3        0.00000   0.00000   0.00000   0.00000   0.00000
 148       18F-3        0.00000   0.00000   0.00000   0.00001   0.00000
 149       19F 0       -0.00001   0.00000   0.00000   0.00002   0.00000
 150       19F+1        0.00000   0.00001   0.00000   0.00000   0.00000
 151       19F-1        0.00002   0.00000   0.00000  -0.00001   0.00000
 152       19F+2       -0.00002   0.00000   0.00000   0.00003   0.00000
 153       19F-2        0.00000   0.00002   0.00001   0.00000   0.00000
 154       19F+3        0.00000  -0.00002  -0.00001   0.00000   0.00000
 155       19F-3        0.00000   0.00000   0.00000   0.00002   0.00000
 156 4   Br 1S          0.05056   0.00000   0.00000  -0.00588   0.22094
 157        2S         -0.15809   0.00000   0.00000   0.01960  -0.71640
 158        3S         -0.01475   0.00000   0.00000  -0.00680  -0.03061
 159        4S          0.00014   0.00000   0.00000   0.00008   0.00021
 160        5S         -0.00044   0.00000   0.00000  -0.00022  -0.00072
 161        6S         -0.00077   0.00000   0.00000  -0.00077  -0.00003
 162        7S         -0.00009   0.00000   0.00000  -0.00028  -0.00003
 163        8PX         0.00000   0.72803  -0.69773   0.00000   0.00000
 164        8PY         0.48900   0.00000   0.00000   0.57396  -0.13886
 165        8PZ        -0.48225   0.00000   0.00000  -0.40182   0.08606
 166        9PX         0.00000  -0.01617   0.01622   0.00000   0.00000
 167        9PY         0.00494   0.00000   0.00000   0.00882   0.00240
 168        9PZ        -0.00019   0.00000   0.00000  -0.00573  -0.00145
[...]
 167        9PY         0.00925  -0.03012  -0.01184   0.01169   0.00000
 168        9PZ        -0.00676   0.01161  -0.00377   0.00531   0.00000
 169       10PX         0.00000   0.00000   0.00000   0.00000  -0.10268
 170       10PY         0.24476  -0.48102   0.00700   0.14806   0.00000
 171       10PZ        -0.15714   0.18249  -0.12155   0.04441   0.00000
 172       11PX         0.00000   0.00000   0.00000   0.00000   0.03543
 173       11PY         0.01267   0.00072   0.05249  -0.00057   0.00000
 174       11PZ        -0.00882   0.00130  -0.01137  -0.01879   0.00000
 175       12PX         0.00000   0.00000   0.00000   0.00000   0.39012
 176       12PY         7.70080  -5.50962   2.97936  -5.76637   0.00000
 177       12PZ        -2.94964   6.06662  -1.81328   2.53850   0.00000
 178       13PX         0.00000   0.00000   0.00000   0.00000  -2.11563
 179       13PY        -0.61506  -1.03729   2.00487  -3.30329   0.00000
 180       13PZ        -1.64982   0.78835   0.22239   1.14181   0.00000
 181       14D 0        0.00292  -0.00151  -0.00420  -0.00024   0.00000
 182       14D+1        0.00000   0.00000   0.00000   0.00000   0.00094
 183       14D-1        0.00399   0.00086   0.00023   0.00004   0.00000
 184       14D+2        0.00404  -0.00148   0.00256   0.00375   0.00000
 185       14D-2        0.00000   0.00000   0.00000   0.00000  -0.00121
 186       15D 0       -0.03556   0.02636   0.04843   0.00260   0.00000
 187       15D+1        0.00000   0.00000   0.00000   0.00000  -0.01470
 188       15D-1       -0.05374   0.00410  -0.01575   0.01211   0.00000
 189       15D+2       -0.04864   0.02882  -0.03464  -0.03398   0.00000
 190       15D-2        0.00000   0.00000   0.00000   0.00000   0.02422
 191       16D 0        0.22618  -0.18955  -0.24646  -0.02192   0.00000
 192       16D+1        0.00000   0.00000   0.00000   0.00000   0.07118
 193       16D-1        0.43660  -0.39011   0.30445  -0.14307   0.00000
 194       16D+2        0.39488  -0.42485   0.28453   0.09879   0.00000
 195       16D-2        0.00000   0.00000   0.00000   0.00000  -0.12707
 196       17D 0        0.62604   0.78970   0.31109  -0.46777   0.00000
 197       17D+1        0.00000   0.00000   0.00000   0.00000  -0.15518
 198       17D-1        0.89378  -1.76616   0.00875  -1.42014   0.00000
 199       17D+2        0.75277  -0.50508  -0.02200  -2.00889   0.00000
 200       17D-2        0.00000   0.00000   0.00000   0.00000   0.14445
 201       18F 0       -0.03626  -0.00046   0.02565  -0.00430   0.00000
 202       18F+1        0.00000   0.00000   0.00000   0.00000  -0.01562
 203       18F-1        0.00039  -0.03600   0.00149   0.01249   0.00000
 204       18F+2       -0.00811  -0.01216  -0.00012   0.03799   0.00000
 205       18F-2        0.00000   0.00000   0.00000   0.00000   0.00498
 206       18F+3        0.00000   0.00000   0.00000   0.00000   0.04322
 207       18F-3       -0.02390  -0.01444  -0.01296  -0.03361   0.00000
 208       19F 0        0.19486  -0.10130  -0.06626  -0.06503   0.00000
 209       19F+1        0.00000   0.00000   0.00000   0.00000   0.02447
 210       19F-1       -0.01615   0.03771   0.05158  -0.03894   0.00000
 211       19F+2        0.12821  -0.11497   0.02540  -0.19839   0.00000
 212       19F-2        0.00000   0.00000   0.00000   0.00000  -0.01540
 213       19F+3        0.00000   0.00000   0.00000   0.00000  -0.10313
 214       19F-3        0.00715   0.08952   0.01672   0.17917   0.00000
                         211       212       213       214
     Eigenvalues --     0.00000   0.00000   0.00000   0.00000
   1 1   C  1S         -0.12795  -0.00074   0.02589  -0.01998
   2        2S         -0.60898  -0.00270   0.10289  -0.06098
   3        3S          0.09128   0.00224  -0.06563   0.11053
   4        4S          3.15242  -0.01360  -3.53830   1.01123
   5        5S         21.31084   0.02414   2.62312  26.11093
   6        6PX         0.00000   0.00000   0.00000   0.00000
   7        6PY         0.00000  -0.01521  -0.00019   0.00006
   8        6PZ        -0.00625   0.00066  -0.02076   0.01768
   9        7PX         0.00000   0.00000   0.00000   0.00000
  10        7PY         0.00040   0.02355  -0.00133  -0.00100
  11        7PZ         0.10758  -0.00492   0.01249  -0.17051
  12        8PX         0.00000   0.00000   0.00000   0.00000
  13        8PY         0.01690  -5.93128  -0.10669   0.00749
  14        8PZ         3.65498   0.03074  -5.10603   0.28412
  15        9PX         0.00000   0.00000   0.00000   0.00000
  16        9PY         0.06191 -19.77243  -0.38152  -0.01199
  17        9PZ         8.47637   0.19343 -12.92401  -0.38809
  18       10D 0        0.00977   0.00024   0.00929   0.01171
  19       10D+1        0.00000   0.00000   0.00000   0.00000
  20       10D-1        0.00035  -0.01291  -0.00006  -0.00008
  21       10D+2       -0.03238  -0.00063   0.01090  -0.03153
  22       10D-2        0.00000   0.00000   0.00000   0.00000
  23       11D 0        0.20886  -0.00367  -0.02953  -0.30880
  24       11D+1        0.00000   0.00000   0.00000   0.00000
  25       11D-1       -0.00102   0.25208   0.00411  -0.00235
  26       11D+2        0.15960   0.00311  -0.05661   0.18669
  27       11D-2        0.00000   0.00000   0.00000   0.00000
  28       12D 0        2.87505   0.00096  -0.66225  -0.45400
  29       12D+1        0.00000   0.00000   0.00000   0.00000
  30       12D-1       -0.00850   2.17197   0.04259   0.00554
  31       12D+2       -0.07949  -0.00728  -0.50560  -0.64583
  32       12D-2        0.00000   0.00000   0.00000   0.00000
  33       13F 0       -0.00985   0.00024  -0.01077  -0.02713
  34       13F+1        0.00000   0.00000   0.00000   0.00000
  35       13F-1        0.00038  -0.00460  -0.00033  -0.00032
  36       13F+2       -0.00523   0.00086   0.00721  -0.00777
  37       13F-2        0.00000   0.00000   0.00000   0.00000
  38       13F+3        0.00000   0.00000   0.00000   0.00000
  39       13F-3       -0.00031   0.00860   0.00057  -0.00013
  40       14F 0        0.04111  -0.00358   0.06938  -0.14087
  41       14F+1        0.00000   0.00000   0.00000   0.00000
  42       14F-1       -0.00136  -0.01681   0.00232  -0.00024
  43       14F+2       -0.06843  -0.00370  -0.03299  -0.09987
  44       14F-2        0.00000   0.00000   0.00000   0.00000
  45       14F+3        0.00000   0.00000   0.00000   0.00000
  46       14F-3       -0.00025  -0.01544  -0.00146  -0.00040
  47 2   S  1S          0.00680  -0.00020   0.00246   0.00191
  48        2S          0.11985  -0.00478   0.09586   0.01832
  49        3S          0.31616  -0.01052   0.16086   0.07143
  50        4S         -0.02991   0.00496  -0.18202  -0.01066
  51        5S         -6.81598   0.03589   1.48220   1.59574
  52        6S        -11.36014  -0.25315  20.43403 -12.70748
  53        7PX         0.00000   0.00000   0.00000   0.00000
  54        7PY        -0.00005   0.00812   0.00018  -0.00032
  55        7PZ         0.01627  -0.00078   0.03036  -0.03692
  56        8PX         0.00000   0.00000   0.00000   0.00000
  57        8PY         0.00095   0.08229   0.00209  -0.00666
  58        8PZ         0.49846  -0.01322   0.44660  -0.76241
  59        9PX         0.00000   0.00000   0.00000   0.00000
  60        9PY         0.00027  -0.02679  -0.00061   0.00102
  61        9PZ        -0.03938   0.00254  -0.10474   0.11256
  62       10PX         0.00000   0.00000   0.00000   0.00000
  63       10PY         0.06066  -0.48107  -0.05686   0.00411
  64       10PZ         2.68522   0.04350  -5.99330   2.16998
  65       11PX         0.00000   0.00000   0.00000   0.00000
  66       11PY         0.02280   5.07856   0.04855   0.03296
  67       11PZ        -1.33500   0.01532  -2.02942   4.21673
  68       12D 0       -0.61536   0.00096   0.22626   0.34578
  69       12D+1        0.00000   0.00000   0.00000   0.00000
  70       12D-1       -0.00664   0.13430   0.00474   0.00693
  71       12D+2        0.20241  -0.00074   0.01274   0.07800
  72       12D-2        0.00000   0.00000   0.00000   0.00000
  73       13D 0        0.10621   0.00065  -0.03557  -0.00987
  74       13D+1        0.00000   0.00000   0.00000   0.00000
  75       13D-1        0.00052  -0.03578  -0.00048  -0.00044
  76       13D+2       -0.05389   0.00031   0.00239  -0.01743
  77       13D-2        0.00000   0.00000   0.00000   0.00000
  78       14D 0        1.21618  -0.00570   1.69418  -1.20548
  79       14D+1        0.00000   0.00000   0.00000   0.00000
  80       14D-1       -0.01700  -0.27106   0.02451  -0.00973
  81       14D+2       -0.53187   0.00852  -0.02495   0.00049
  82       14D-2        0.00000   0.00000   0.00000   0.00000
  83       15F 0        0.03876  -0.00102   0.06655  -0.05846
  84       15F+1        0.00000   0.00000   0.00000   0.00000
  85       15F-1        0.00038  -0.01279   0.00084  -0.00096
  86       15F+2       -0.01521   0.00030  -0.01011   0.01456
  87       15F-2        0.00000   0.00000   0.00000   0.00000
  88       15F+3        0.00000   0.00000   0.00000   0.00000
  89       15F-3        0.00003  -0.03765  -0.00068  -0.00009
  90       16F 0       -0.15679   0.00107  -0.29818   0.08174
  91       16F+1        0.00000   0.00000   0.00000   0.00000
  92       16F-1        0.00178   0.03312  -0.00546  -0.00031
  93       16F+2        0.06806  -0.00249   0.01670  -0.07447
  94       16F-2        0.00000   0.00000   0.00000   0.00000
  95       16F+3        0.00000   0.00000   0.00000   0.00000
  96       16F-3        0.00004   0.10138   0.00171  -0.00022
  97 3   Br 1S          0.00026  -0.00010  -0.00022   0.00024
  98        2S          0.00238   0.00245   0.00047   0.00093
  99        3S          0.01005   0.00363  -0.00300   0.00643
 100        4S          0.03171   0.04071   0.00840   0.01113
 101        5S          0.00778   0.11510   0.04286  -0.02886
 102        6S          0.30815  -1.96204  -0.46359   0.06952
 103        7S         -4.61469 -21.32810 -10.69999  -7.29986
 104        8PX         0.00000   0.00000   0.00000   0.00000
 105        8PY        -0.00060  -0.00102  -0.00005  -0.00004
 106        8PZ         0.00001  -0.00061  -0.00025  -0.00012
 107        9PX         0.00000   0.00000   0.00000   0.00000
 108        9PY         0.01838   0.01738   0.00570   0.01766
 109        9PZ         0.01415   0.00599   0.01222   0.01097
 110       10PX         0.00000   0.00000   0.00000   0.00000
 111       10PY         0.18471   0.15247   0.06462   0.20417
 112       10PZ         0.16447   0.03926   0.12996   0.12285
 113       11PX         0.00000   0.00000   0.00000   0.00000
 114       11PY        -0.03035  -0.02810  -0.00574  -0.02489
 115       11PZ        -0.02114  -0.01219  -0.01746  -0.01463
 116       12PX         0.00000   0.00000   0.00000   0.00000
 117       12PY        -0.98544  -4.56298  -1.78535  -0.47926
 118       12PZ        -0.19805  -2.68262  -1.60256  -0.61991
 119       13PX         0.00000   0.00000   0.00000   0.00000
 120       13PY        -0.82932  -1.72011  -2.99740  -2.37415
 121       13PZ        -3.06863  -3.45931   0.26819  -1.43384
 122       14D 0        0.00101   0.00014  -0.00146  -0.00059
 123       14D+1        0.00000   0.00000   0.00000   0.00000
 124       14D-1        0.00207   0.00076   0.00087   0.00156
 125       14D+2       -0.00019   0.00101  -0.00068  -0.00070
 126       14D-2        0.00000   0.00000   0.00000   0.00000
 127       15D 0       -0.01249  -0.00373   0.01506   0.01007
 128       15D+1        0.00000   0.00000   0.00000   0.00000
 129       15D-1       -0.02819   0.00667  -0.00789  -0.02321
 130       15D+2       -0.00039  -0.02164   0.00624   0.01254
 131       15D-2        0.00000   0.00000   0.00000   0.00000
 132       16D 0        0.06536   0.01823  -0.05169  -0.06652
 133       16D+1        0.00000   0.00000   0.00000   0.00000
 134       16D-1        0.17529  -0.14889   0.02655   0.19928
 135       16D+2       -0.01232   0.16700  -0.01871  -0.12838
 136       16D-2        0.00000   0.00000   0.00000   0.00000
 137       17D 0       -0.20756   0.16543   0.06519   0.04973
 138       17D+1        0.00000   0.00000   0.00000   0.00000
 139       17D-1       -0.30455  -1.11627  -0.75057  -0.40153
 140       17D+2        0.28919   0.78564   0.49567   0.11864
 141       17D-2        0.00000   0.00000   0.00000   0.00000
 142       18F 0        0.00264  -0.02828   0.00891   0.00220
 143       18F+1        0.00000   0.00000   0.00000   0.00000
 144       18F-1        0.00014   0.00984   0.00408   0.00241
 145       18F+2        0.01818  -0.01493  -0.01488   0.00327
 146       18F-2        0.00000   0.00000   0.00000   0.00000
 147       18F+3        0.00000   0.00000   0.00000   0.00000
 148       18F-3       -0.02797  -0.02966  -0.00617   0.00475
 149       19F 0       -0.05245   0.12685  -0.00107  -0.02818
 150       19F+1        0.00000   0.00000   0.00000   0.00000
 151       19F-1       -0.00116  -0.04986  -0.02188  -0.00306
 152       19F+2       -0.05587   0.12305   0.07135  -0.04193
 153       19F-2        0.00000   0.00000   0.00000   0.00000
 154       19F+3        0.00000   0.00000   0.00000   0.00000
 155       19F-3        0.06867   0.12206   0.02904  -0.03408
 156 4   Br 1S          0.00027   0.00016  -0.00021   0.00023
 157        2S          0.00248  -0.00212   0.00041   0.00086
 158        3S          0.01048  -0.00182  -0.00294   0.00609
 159        4S          0.03325  -0.03627   0.00740   0.01023
 160        5S          0.00945  -0.11573   0.03911  -0.02875
 161        6S          0.27708   1.95240  -0.40633   0.07131
 162        7S         -4.71609  21.54183  -9.89990  -7.23565
 163        8PX         0.00000   0.00000   0.00000   0.00000
 164        8PY         0.00060  -0.00099   0.00001   0.00004
 165        8PZ         0.00002   0.00062  -0.00024  -0.00011
 166        9PX         0.00000   0.00000   0.00000   0.00000
 167        9PY        -0.01822   0.01679  -0.00468  -0.01752
 168        9PZ         0.01379  -0.00602   0.01207   0.01069
 169       10PX         0.00000   0.00000   0.00000   0.00000
 170       10PY        -0.18309   0.14684  -0.05493  -0.20257
 171       10PZ         0.16097  -0.03921   0.12868   0.12006
 172       11PX         0.00000   0.00000   0.00000   0.00000
 173       11PY         0.02996  -0.02741   0.00431   0.02471
 174       11PZ        -0.02032   0.01264  -0.01733  -0.01416
 175       12PX         0.00000   0.00000   0.00000   0.00000
 176       12PY         1.00808  -4.58749   1.61401   0.47355
 177       12PZ        -0.21741   2.70500  -1.51779  -0.60852
 178       13PX         0.00000   0.00000   0.00000   0.00000
 179       13PY         0.81597  -1.82348   2.93817   2.36240
 180       13PZ        -3.08301   3.42386   0.40075  -1.42594
 181       14D 0        0.00102  -0.00005  -0.00145  -0.00059
 182       14D+1        0.00000   0.00000   0.00000   0.00000
 183       14D-1       -0.00207   0.00083  -0.00086  -0.00156
 184       14D+2       -0.00018  -0.00095  -0.00073  -0.00070
 185       14D-2        0.00000   0.00000   0.00000   0.00000
 186       15D 0       -0.01237   0.00277   0.01519   0.01001
 187       15D+1        0.00000   0.00000   0.00000   0.00000
 188       15D-1        0.02787   0.00571   0.00831   0.02320
 189       15D+2       -0.00067   0.02078   0.00718   0.01256
 190       15D-2        0.00000   0.00000   0.00000   0.00000
 191       16D 0        0.06307  -0.01456  -0.05208  -0.06611
 192       16D+1        0.00000   0.00000   0.00000   0.00000
 193       16D-1       -0.17144  -0.14800  -0.03175  -0.19848
 194       16D+2       -0.01042  -0.16523  -0.02374  -0.12785
 195       16D-2        0.00000   0.00000   0.00000   0.00000
 196       17D 0       -0.20659  -0.17543   0.05500   0.05011
 197       17D+1        0.00000   0.00000   0.00000   0.00000
 198       17D-1        0.30648  -1.13846   0.70970   0.40031
 199       17D+2        0.28748  -0.80118   0.46394   0.11842
 200       17D-2        0.00000   0.00000   0.00000   0.00000
 201       18F 0        0.00216   0.02726   0.00969   0.00246
 202       18F+1        0.00000   0.00000   0.00000   0.00000
 203       18F-1        0.00012   0.01037  -0.00390  -0.00240
 204       18F+2        0.01829   0.01502  -0.01400   0.00316
 205       18F-2        0.00000   0.00000   0.00000   0.00000
 206       18F+3        0.00000   0.00000   0.00000   0.00000
 207       18F-3        0.02792  -0.02960   0.00466  -0.00473
 208       19F 0       -0.05145  -0.12601  -0.00556  -0.02848
 209       19F+1        0.00000   0.00000   0.00000   0.00000
 210       19F-1        0.00189  -0.05189   0.01977   0.00302
 211       19F+2       -0.05558  -0.12496   0.06585  -0.04137
 212       19F-2        0.00000   0.00000   0.00000   0.00000
 213       19F+3        0.00000   0.00000   0.00000   0.00000
 214       19F-3       -0.06838   0.12220  -0.02399   0.03379
          Condensed to atoms (all electrons):
              1          2          3          4
     1  C    6.376639  -0.031076  -0.095946  -0.089295
     2  S   -0.031076  16.451985  -0.187466  -0.188908
     3  Br  -0.095946  -0.187466  35.317190  -0.136454
     4  Br  -0.089295  -0.188908  -0.136454  35.312476
 Mulliken atomic charges:
              1
     1  C   -0.160322
     2  S   -0.044534
     3  Br   0.102676
     4  Br   0.102181
 Sum of Mulliken atomic charges =   0.00000
 Mulliken charges with hydrogens summed into heavy atoms:
              1
     1  C   -0.160322
     2  S   -0.044534
     3  Br   0.102676
     4  Br   0.102181
 Sum of Mulliken charges with hydrogens summed into heavy atoms =   0.00000
 Electronic spatial extent (au):  <R**2>=           1431.6440
 Charge=              0.0000 electrons
 Dipole moment (field-independent basis, Debye):
    X=              0.0000    Y=             -0.0092    Z=             -0.4735  Tot=              0.4736
 Quadrupole moment (field-independent basis, Debye-Ang):
   XX=            -54.9570   YY=            -53.8187   ZZ=            -53.7723
   XY=              0.0000   XZ=              0.0000   YZ=              0.0507
 Traceless Quadrupole moment (field-independent basis, Debye-Ang):
   XX=             -0.7743   YY=              0.3639   ZZ=              0.4104
   XY=              0.0000   XZ=              0.0000   YZ=              0.0507
 Octapole moment (field-independent basis, Debye-Ang**2):
  XXX=              0.0000  YYY=             -0.4512  ZZZ=            141.2585  XYY=              0.0000
  XXY=             -0.1296  XXZ=             47.7782  XZZ=              0.0000  YZZ=             -0.1506
  YYZ=             35.3449  XYZ=              0.0000
 Hexadecapole moment (field-independent basis, Debye-Ang**3):
 XXXX=            -67.2505 YYYY=           -572.3494 ZZZZ=           -700.4569 XXXY=              0.0000
 XXXZ=              0.0000 YYYX=              0.0000 YYYZ=             -0.3224 ZZZX=              0.0000
 ZZZY=             -0.0413 XXYY=           -113.5374 XXZZ=           -130.5003 YYZZ=           -194.9030
 XXYZ=             -0.0966 YYXZ=              0.0000 ZZXY=              0.0000
 N-N= 5.475696310918D+02 E-N=-1.443633357801D+04  KE= 5.579845883798D+03
 1\1\GINC-TRAPISTA\SP\RQCISD-FC\Aug-CC-pVTZ\C1Br2S1\BRUNS\29-Nov-2021\0
 \\# qcisd/aug-cc-pvtz nosymm density=current output=wfn\\br2cs-wavefun
 ction\\0,1\C,0,0.,0.,-0.519451\S,0,0.,0.01,1.083692\Br,0,0.,-1.568516,
 -1.57857\Br,0,0.,1.568516,-1.57857\\Version=EM64L-G09RevB.01\HF=-5580.
 3086713\MP2=-5581.1187773\MP3=-5581.1309549\MP4D=-5581.1549401\MP4DQ=-
 5581.1314653\MP4SDQ=-5581.1411409\QCISD=-5581.1375793\RMSD=3.248e-09\D
 ipole=0.,-0.0036262,-0.1862742\Quadrupole=-0.5756945,0.2705666,0.30512
 79,0.,0.,0.0376976\PG=CS [SG(C1Br2S1)]\\@

 Writing a WFN file to GAUSSIAN.wfn.


 FESTINA LENTE!
     - IMPERATOR AUGUSTUS 
 Job cpu time:  0 days  6 hours  6 minutes 54.3 seconds.
 File lengths (MBytes):  RWF=  25271 Int=      0 D2E=      0 Chk=      4 Scr=      1
 Normal termination of Gaussian 09 at Mon Nov 29 07:33:10 2021.
