 br2cs-wavefunction
GAUSSIAN            214 MOL ORBITALS    620 PRIMITIVES        4 NUCLEI
  C    1    (CENTRE  1)   0.01889726  0.00000000 -0.98162013  CHARGE =  6.0
  S    2    (CENTRE  2)   0.00000000  0.00000000  2.04788109  CHARGE = 16.0
  Br   3    (CENTRE  3)   0.00000000 -2.96406568 -2.98306498  CHARGE = 35.0
  Br   4    (CENTRE  4)   0.00000000  2.96406568 -2.98306498  CHARGE = 35.0
CENTRE ASSIGNMENTS    1  1  1  1  1  1  1  1  1  1  1  1  1  1  1  1  1  1  1  1
CENTRE ASSIGNMENTS    1  1  1  1  1  1  1  1  1  1  1  1  1  1  1  1  1  1  1  1
CENTRE ASSIGNMENTS    1  1  1  1  1  1  1  1  1  1  1  1  1  1  1  1  1  1  1  1
CENTRE ASSIGNMENTS    1  1  1  1  1  1  1  1  1  1  1  1  2  2  2  2  2  2  2  2
CENTRE ASSIGNMENTS    2  2  2  2  2  2  2  2  2  2  2  2  2  2  2  2  2  2  2  2
CENTRE ASSIGNMENTS    2  2  2  2  2  2  2  2  2  2  2  2  2  2  2  2  2  2  2  2
CENTRE ASSIGNMENTS    2  2  2  2  2  2  2  2  2  2  2  2  2  2  2  2  2  2  2  2
CENTRE ASSIGNMENTS    2  2  2  2  2  2  2  2  2  2  2  2  2  2  2  2  2  2  2  2
CENTRE ASSIGNMENTS    2  2  2  2  2  2  2  2  2  2  2  2  2  2  2  2  2  2  2  2
CENTRE ASSIGNMENTS    2  2  2  2  2  2  3  3  3  3  3  3  3  3  3  3  3  3  3  3
CENTRE ASSIGNMENTS    3  3  3  3  3  3  3  3  3  3  3  3  3  3  3  3  3  3  3  3
CENTRE ASSIGNMENTS    3  3  3  3  3  3  3  3  3  3  3  3  3  3  3  3  3  3  3  3
CENTRE ASSIGNMENTS    3  3  3  3  3  3  3  3  3  3  3  3  3  3  3  3  3  3  3  3
CENTRE ASSIGNMENTS    3  3  3  3  3  3  3  3  3  3  3  3  3  3  3  3  3  3  3  3
CENTRE ASSIGNMENTS    3  3  3  3  3  3  3  3  3  3  3  3  3  3  3  3  3  3  3  3
CENTRE ASSIGNMENTS    3  3  3  3  3  3  3  3  3  3  3  3  3  3  3  3  3  3  3  3
CENTRE ASSIGNMENTS    3  3  3  3  3  3  3  3  3  3  3  3  3  3  3  3  3  3  3  3
CENTRE ASSIGNMENTS    3  3  3  3  3  3  3  3  3  3  3  3  3  3  3  3  3  3  3  3
CENTRE ASSIGNMENTS    3  3  3  3  3  3  3  3  3  3  3  3  3  3  3  3  3  3  3  3
CENTRE ASSIGNMENTS    3  3  3  3  3  3  3  3  3  3  3  3  3  3  3  3  3  3  3  3
CENTRE ASSIGNMENTS    3  3  3  4  4  4  4  4  4  4  4  4  4  4  4  4  4  4  4  4
CENTRE ASSIGNMENTS    4  4  4  4  4  4  4  4  4  4  4  4  4  4  4  4  4  4  4  4
CENTRE ASSIGNMENTS    4  4  4  4  4  4  4  4  4  4  4  4  4  4  4  4  4  4  4  4
CENTRE ASSIGNMENTS    4  4  4  4  4  4  4  4  4  4  4  4  4  4  4  4  4  4  4  4
CENTRE ASSIGNMENTS    4  4  4  4  4  4  4  4  4  4  4  4  4  4  4  4  4  4  4  4
CENTRE ASSIGNMENTS    4  4  4  4  4  4  4  4  4  4  4  4  4  4  4  4  4  4  4  4
CENTRE ASSIGNMENTS    4  4  4  4  4  4  4  4  4  4  4  4  4  4  4  4  4  4  4  4
CENTRE ASSIGNMENTS    4  4  4  4  4  4  4  4  4  4  4  4  4  4  4  4  4  4  4  4
CENTRE ASSIGNMENTS    4  4  4  4  4  4  4  4  4  4  4  4  4  4  4  4  4  4  4  4
CENTRE ASSIGNMENTS    4  4  4  4  4  4  4  4  4  4  4  4  4  4  4  4  4  4  4  4
CENTRE ASSIGNMENTS    4  4  4  4  4  4  4  4  4  4  4  4  4  4  4  4  4  4  4  4
TYPE ASSIGNMENTS      1  1  1  1  1  1  1  1  1  1  1  1  1  1  1  1  2  2  2  3
TYPE ASSIGNMENTS      3  3  4  4  4  2  3  4  2  3  4  2  3  4  5  6  7  8  9 10
TYPE ASSIGNMENTS      5  6  7  8  9 10  5  6  7  8  9 10 11 12 13 17 14 15 18 19
TYPE ASSIGNMENTS     16 20 11 12 13 17 14 15 18 19 16 20  1  1  1  1  1  1  1  1
TYPE ASSIGNMENTS      1  1  1  1  1  1  1  1  1  1  1  1  1  1  1  1  1  1  1  1
TYPE ASSIGNMENTS      1  1  1  2  2  2  2  2  2  3  3  3  3  3  3  4  4  4  4  4
TYPE ASSIGNMENTS      4  2  2  2  2  2  2  3  3  3  3  3  3  4  4  4  4  4  4  2
TYPE ASSIGNMENTS      3  4  2  3  4  2  3  4  5  6  7  8  9 10  5  6  7  8  9 10
TYPE ASSIGNMENTS      5  6  7  8  9 10 11 12 13 17 14 15 18 19 16 20 11 12 13 17
TYPE ASSIGNMENTS     14 15 18 19 16 20  1  1  1  1  1  1  1  1  1  1  1  1  1  1
TYPE ASSIGNMENTS      1  1  1  1  1  1  1  1  1  1  1  1  1  1  1  1  1  1  1  1
TYPE ASSIGNMENTS      1  1  1  1  1  1  1  1  1  1  1  1  1  1  1  1  2  2  2  2
TYPE ASSIGNMENTS      2  2  2  2  2  3  3  3  3  3  3  3  3  3  4  4  4  4  4  4
TYPE ASSIGNMENTS      4  4  4  2  2  2  2  2  2  2  2  2  3  3  3  3  3  3  3  3
TYPE ASSIGNMENTS      3  4  4  4  4  4  4  4  4  4  2  2  2  2  2  2  2  2  3  3
TYPE ASSIGNMENTS      3  3  3  3  3  3  4  4  4  4  4  4  4  4  2  3  4  2  3  4
TYPE ASSIGNMENTS      2  3  4  5  5  5  5  5  5  5  6  6  6  6  6  6  6  7  7  7
TYPE ASSIGNMENTS      7  7  7  7  8  8  8  8  8  8  8  9  9  9  9  9  9  9 10 10
TYPE ASSIGNMENTS     10 10 10 10 10  5  6  7  8  9 10  5  6  7  8  9 10  5  6  7
TYPE ASSIGNMENTS      8  9 10 11 12 13 17 14 15 18 19 16 20 11 12 13 17 14 15 18
TYPE ASSIGNMENTS     19 16 20  1  1  1  1  1  1  1  1  1  1  1  1  1  1  1  1  1
TYPE ASSIGNMENTS      1  1  1  1  1  1  1  1  1  1  1  1  1  1  1  1  1  1  1  1
TYPE ASSIGNMENTS      1  1  1  1  1  1  1  1  1  1  1  1  1  2  2  2  2  2  2  2
TYPE ASSIGNMENTS      2  2  3  3  3  3  3  3  3  3  3  4  4  4  4  4  4  4  4  4
TYPE ASSIGNMENTS      2  2  2  2  2  2  2  2  2  3  3  3  3  3  3  3  3  3  4  4
TYPE ASSIGNMENTS      4  4  4  4  4  4  4  2  2  2  2  2  2  2  2  3  3  3  3  3
TYPE ASSIGNMENTS      3  3  3  4  4  4  4  4  4  4  4  2  3  4  2  3  4  2  3  4
TYPE ASSIGNMENTS      5  5  5  5  5  5  5  6  6  6  6  6  6  6  7  7  7  7  7  7
TYPE ASSIGNMENTS      7  8  8  8  8  8  8  8  9  9  9  9  9  9  9 10 10 10 10 10
TYPE ASSIGNMENTS     10 10  5  6  7  8  9 10  5  6  7  8  9 10  5  6  7  8  9 10
TYPE ASSIGNMENTS     11 12 13 17 14 15 18 19 16 20 11 12 13 17 14 15 18 19 16 20
EXPONENTS  0.8236000D+04 0.1235000D+04 0.2808000D+03 0.7927000D+02 0.2559000D+02
EXPONENTS  0.8997000D+01 0.3319000D+01 0.2808000D+03 0.7927000D+02 0.2559000D+02
EXPONENTS  0.8997000D+01 0.3319000D+01 0.3643000D+00 0.9059000D+00 0.1285000D+00
EXPONENTS  0.4402000D-01 0.1871000D+02 0.4133000D+01 0.1200000D+01 0.1871000D+02
EXPONENTS  0.4133000D+01 0.1200000D+01 0.1871000D+02 0.4133000D+01 0.1200000D+01
EXPONENTS  0.3827000D+00 0.3827000D+00 0.3827000D+00 0.1209000D+00 0.1209000D+00
EXPONENTS  0.1209000D+00 0.3569000D-01 0.3569000D-01 0.3569000D-01 0.1097000D+01
EXPONENTS  0.1097000D+01 0.1097000D+01 0.1097000D+01 0.1097000D+01 0.1097000D+01
EXPONENTS  0.3180000D+00 0.3180000D+00 0.3180000D+00 0.3180000D+00 0.3180000D+00
EXPONENTS  0.3180000D+00 0.1000000D+00 0.1000000D+00 0.1000000D+00 0.1000000D+00
EXPONENTS  0.1000000D+00 0.1000000D+00 0.7610000D+00 0.7610000D+00 0.7610000D+00
EXPONENTS  0.7610000D+00 0.7610000D+00 0.7610000D+00 0.7610000D+00 0.7610000D+00
EXPONENTS  0.7610000D+00 0.7610000D+00 0.2680000D+00 0.2680000D+00 0.2680000D+00
EXPONENTS  0.2680000D+00 0.2680000D+00 0.2680000D+00 0.2680000D+00 0.2680000D+00
EXPONENTS  0.2680000D+00 0.2680000D+00 0.3741000D+06 0.5605000D+05 0.1276000D+05
EXPONENTS  0.3615000D+04 0.1183000D+04 0.4288000D+03 0.1678000D+03 0.6947000D+02
EXPONENTS  0.2984000D+02 0.1272000D+02 0.5244000D+01 0.3615000D+04 0.1183000D+04
EXPONENTS  0.4288000D+03 0.1678000D+03 0.6947000D+02 0.2984000D+02 0.1272000D+02
EXPONENTS  0.5244000D+01 0.2219000D+01 0.1183000D+04 0.1678000D+03 0.6947000D+02
EXPONENTS  0.2984000D+02 0.1272000D+02 0.5244000D+01 0.2219000D+01 0.3490000D+00
EXPONENTS  0.7767000D+00 0.1322000D+00 0.4970000D-01 0.5744000D+03 0.1358000D+03
EXPONENTS  0.4319000D+02 0.1587000D+02 0.6208000D+01 0.2483000D+01 0.5744000D+03
EXPONENTS  0.1358000D+03 0.4319000D+02 0.1587000D+02 0.6208000D+01 0.2483000D+01
EXPONENTS  0.5744000D+03 0.1358000D+03 0.4319000D+02 0.1587000D+02 0.6208000D+01
EXPONENTS  0.2483000D+01 0.1358000D+03 0.4319000D+02 0.1587000D+02 0.6208000D+01
EXPONENTS  0.2483000D+01 0.3229000D+00 0.1358000D+03 0.4319000D+02 0.1587000D+02
EXPONENTS  0.6208000D+01 0.2483000D+01 0.3229000D+00 0.1358000D+03 0.4319000D+02
EXPONENTS  0.1587000D+02 0.6208000D+01 0.2483000D+01 0.3229000D+00 0.8688000D+00
EXPONENTS  0.8688000D+00 0.8688000D+00 0.1098000D+00 0.1098000D+00 0.1098000D+00
EXPONENTS  0.3510000D-01 0.3510000D-01 0.3510000D-01 0.2690000D+00 0.2690000D+00
EXPONENTS  0.2690000D+00 0.2690000D+00 0.2690000D+00 0.2690000D+00 0.8190000D+00
EXPONENTS  0.8190000D+00 0.8190000D+00 0.8190000D+00 0.8190000D+00 0.8190000D+00
EXPONENTS  0.1010000D+00 0.1010000D+00 0.1010000D+00 0.1010000D+00 0.1010000D+00
EXPONENTS  0.1010000D+00 0.5570000D+00 0.5570000D+00 0.5570000D+00 0.5570000D+00
EXPONENTS  0.5570000D+00 0.5570000D+00 0.5570000D+00 0.5570000D+00 0.5570000D+00
EXPONENTS  0.5570000D+00 0.2180000D+00 0.2180000D+00 0.2180000D+00 0.2180000D+00
EXPONENTS  0.2180000D+00 0.2180000D+00 0.2180000D+00 0.2180000D+00 0.2180000D+00
EXPONENTS  0.2180000D+00 0.1063900D+08 0.1593400D+07 0.3626100D+06 0.1027000D+06
EXPONENTS  0.3350100D+05 0.1209300D+05 0.4715900D+04 0.1955600D+04 0.8526100D+03
EXPONENTS  0.3876700D+03 0.1826800D+03 0.8824500D+02 0.3926300D+02 0.9405700D+01
EXPONENTS  0.1899500D+01 0.3350100D+05 0.1209300D+05 0.4715900D+04 0.1955600D+04
EXPONENTS  0.8526100D+03 0.3876700D+03 0.1826800D+03 0.8824500D+02 0.3926300D+02
EXPONENTS  0.1923400D+02 0.9405700D+01 0.1899500D+01 0.4715900D+04 0.8526100D+03
EXPONENTS  0.3876700D+03 0.1826800D+03 0.8824500D+02 0.3926300D+02 0.1923400D+02
EXPONENTS  0.9405700D+01 0.4160100D+01 0.1899500D+01 0.4715900D+04 0.8526100D+03
EXPONENTS  0.3876700D+03 0.8824500D+02 0.3926300D+02 0.1923400D+02 0.9405700D+01
EXPONENTS  0.4160100D+01 0.1899500D+01 0.3011400D+00 0.6047200D+00 0.1251500D+00
EXPONENTS  0.4559300D-01 0.8676500D+04 0.2055900D+04 0.6662300D+03 0.2531000D+03
EXPONENTS  0.1061200D+03 0.4724200D+02 0.2182500D+02 0.9968400D+01 0.1998200D+01
EXPONENTS  0.8676500D+04 0.2055900D+04 0.6662300D+03 0.2531000D+03 0.1061200D+03
EXPONENTS  0.4724200D+02 0.2182500D+02 0.9968400D+01 0.1998200D+01 0.8676500D+04
EXPONENTS  0.2055900D+04 0.6662300D+03 0.2531000D+03 0.1061200D+03 0.4724200D+02
EXPONENTS  0.2182500D+02 0.9968400D+01 0.1998200D+01 0.8676500D+04 0.6662300D+03
EXPONENTS  0.2531000D+03 0.1061200D+03 0.4724200D+02 0.2182500D+02 0.9968400D+01
EXPONENTS  0.4517100D+01 0.1998200D+01 0.8676500D+04 0.6662300D+03 0.2531000D+03
EXPONENTS  0.1061200D+03 0.4724200D+02 0.2182500D+02 0.9968400D+01 0.4517100D+01
EXPONENTS  0.1998200D+01 0.8676500D+04 0.6662300D+03 0.2531000D+03 0.1061200D+03
EXPONENTS  0.4724200D+02 0.2182500D+02 0.9968400D+01 0.4517100D+01 0.1998200D+01
EXPONENTS  0.6662300D+03 0.1061200D+03 0.4724200D+02 0.2182500D+02 0.9968400D+01
EXPONENTS  0.4517100D+01 0.1998200D+01 0.2814500D+00 0.6662300D+03 0.1061200D+03
EXPONENTS  0.4724200D+02 0.2182500D+02 0.9968400D+01 0.4517100D+01 0.1998200D+01
EXPONENTS  0.2814500D+00 0.6662300D+03 0.1061200D+03 0.4724200D+02 0.2182500D+02
EXPONENTS  0.9968400D+01 0.4517100D+01 0.1998200D+01 0.2814500D+00 0.7098800D+00
EXPONENTS  0.7098800D+00 0.7098800D+00 0.1020400D+00 0.1020400D+00 0.1020400D+00
EXPONENTS  0.3514200D-01 0.3514200D-01 0.3514200D-01 0.4038300D+03 0.1211700D+03
EXPONENTS  0.4634500D+02 0.1972100D+02 0.8862400D+01 0.3996200D+01 0.1763600D+01
EXPONENTS  0.4038300D+03 0.1211700D+03 0.4634500D+02 0.1972100D+02 0.8862400D+01
EXPONENTS  0.3996200D+01 0.1763600D+01 0.4038300D+03 0.1211700D+03 0.4634500D+02
EXPONENTS  0.1972100D+02 0.8862400D+01 0.3996200D+01 0.1763600D+01 0.4038300D+03
EXPONENTS  0.1211700D+03 0.4634500D+02 0.1972100D+02 0.8862400D+01 0.3996200D+01
EXPONENTS  0.1763600D+01 0.4038300D+03 0.1211700D+03 0.4634500D+02 0.1972100D+02
EXPONENTS  0.8862400D+01 0.3996200D+01 0.1763600D+01 0.4038300D+03 0.1211700D+03
EXPONENTS  0.4634500D+02 0.1972100D+02 0.8862400D+01 0.3996200D+01 0.1763600D+01
EXPONENTS  0.7061900D+00 0.7061900D+00 0.7061900D+00 0.7061900D+00 0.7061900D+00
EXPONENTS  0.7061900D+00 0.2639000D+00 0.2639000D+00 0.2639000D+00 0.2639000D+00
EXPONENTS  0.2639000D+00 0.2639000D+00 0.1047000D+00 0.1047000D+00 0.1047000D+00
EXPONENTS  0.1047000D+00 0.1047000D+00 0.1047000D+00 0.5515000D+00 0.5515000D+00
EXPONENTS  0.5515000D+00 0.5515000D+00 0.5515000D+00 0.5515000D+00 0.5515000D+00
EXPONENTS  0.5515000D+00 0.5515000D+00 0.5515000D+00 0.2580000D+00 0.2580000D+00
EXPONENTS  0.2580000D+00 0.2580000D+00 0.2580000D+00 0.2580000D+00 0.2580000D+00
EXPONENTS  0.2580000D+00 0.2580000D+00 0.2580000D+00 0.1063900D+08 0.1593400D+07
EXPONENTS  0.3626100D+06 0.1027000D+06 0.3350100D+05 0.1209300D+05 0.4715900D+04
EXPONENTS  0.1955600D+04 0.8526100D+03 0.3876700D+03 0.1826800D+03 0.8824500D+02
EXPONENTS  0.3926300D+02 0.9405700D+01 0.1899500D+01 0.3350100D+05 0.1209300D+05
EXPONENTS  0.4715900D+04 0.1955600D+04 0.8526100D+03 0.3876700D+03 0.1826800D+03
EXPONENTS  0.8824500D+02 0.3926300D+02 0.1923400D+02 0.9405700D+01 0.1899500D+01
EXPONENTS  0.4715900D+04 0.8526100D+03 0.3876700D+03 0.1826800D+03 0.8824500D+02
EXPONENTS  0.3926300D+02 0.1923400D+02 0.9405700D+01 0.4160100D+01 0.1899500D+01
EXPONENTS  0.4715900D+04 0.8526100D+03 0.3876700D+03 0.8824500D+02 0.3926300D+02
EXPONENTS  0.1923400D+02 0.9405700D+01 0.4160100D+01 0.1899500D+01 0.3011400D+00
EXPONENTS  0.6047200D+00 0.1251500D+00 0.4559300D-01 0.8676500D+04 0.2055900D+04
EXPONENTS  0.6662300D+03 0.2531000D+03 0.1061200D+03 0.4724200D+02 0.2182500D+02
EXPONENTS  0.9968400D+01 0.1998200D+01 0.8676500D+04 0.2055900D+04 0.6662300D+03
EXPONENTS  0.2531000D+03 0.1061200D+03 0.4724200D+02 0.2182500D+02 0.9968400D+01
EXPONENTS  0.1998200D+01 0.8676500D+04 0.2055900D+04 0.6662300D+03 0.2531000D+03
EXPONENTS  0.1061200D+03 0.4724200D+02 0.2182500D+02 0.9968400D+01 0.1998200D+01
EXPONENTS  0.8676500D+04 0.6662300D+03 0.2531000D+03 0.1061200D+03 0.4724200D+02
EXPONENTS  0.2182500D+02 0.9968400D+01 0.4517100D+01 0.1998200D+01 0.8676500D+04
EXPONENTS  0.6662300D+03 0.2531000D+03 0.1061200D+03 0.4724200D+02 0.2182500D+02
EXPONENTS  0.9968400D+01 0.4517100D+01 0.1998200D+01 0.8676500D+04 0.6662300D+03
EXPONENTS  0.2531000D+03 0.1061200D+03 0.4724200D+02 0.2182500D+02 0.9968400D+01
EXPONENTS  0.4517100D+01 0.1998200D+01 0.6662300D+03 0.1061200D+03 0.4724200D+02
EXPONENTS  0.2182500D+02 0.9968400D+01 0.4517100D+01 0.1998200D+01 0.2814500D+00
EXPONENTS  0.6662300D+03 0.1061200D+03 0.4724200D+02 0.2182500D+02 0.9968400D+01
EXPONENTS  0.4517100D+01 0.1998200D+01 0.2814500D+00 0.6662300D+03 0.1061200D+03
EXPONENTS  0.4724200D+02 0.2182500D+02 0.9968400D+01 0.4517100D+01 0.1998200D+01
EXPONENTS  0.2814500D+00 0.7098800D+00 0.7098800D+00 0.7098800D+00 0.1020400D+00
EXPONENTS  0.1020400D+00 0.1020400D+00 0.3514200D-01 0.3514200D-01 0.3514200D-01
EXPONENTS  0.4038300D+03 0.1211700D+03 0.4634500D+02 0.1972100D+02 0.8862400D+01
EXPONENTS  0.3996200D+01 0.1763600D+01 0.4038300D+03 0.1211700D+03 0.4634500D+02
EXPONENTS  0.1972100D+02 0.8862400D+01 0.3996200D+01 0.1763600D+01 0.4038300D+03
EXPONENTS  0.1211700D+03 0.4634500D+02 0.1972100D+02 0.8862400D+01 0.3996200D+01
EXPONENTS  0.1763600D+01 0.4038300D+03 0.1211700D+03 0.4634500D+02 0.1972100D+02
EXPONENTS  0.8862400D+01 0.3996200D+01 0.1763600D+01 0.4038300D+03 0.1211700D+03
EXPONENTS  0.4634500D+02 0.1972100D+02 0.8862400D+01 0.3996200D+01 0.1763600D+01
EXPONENTS  0.4038300D+03 0.1211700D+03 0.4634500D+02 0.1972100D+02 0.8862400D+01
EXPONENTS  0.3996200D+01 0.1763600D+01 0.7061900D+00 0.7061900D+00 0.7061900D+00
EXPONENTS  0.7061900D+00 0.7061900D+00 0.7061900D+00 0.2639000D+00 0.2639000D+00
EXPONENTS  0.2639000D+00 0.2639000D+00 0.2639000D+00 0.2639000D+00 0.1047000D+00
EXPONENTS  0.1047000D+00 0.1047000D+00 0.1047000D+00 0.1047000D+00 0.1047000D+00
EXPONENTS  0.5515000D+00 0.5515000D+00 0.5515000D+00 0.5515000D+00 0.5515000D+00
EXPONENTS  0.5515000D+00 0.5515000D+00 0.5515000D+00 0.5515000D+00 0.5515000D+00
EXPONENTS  0.2580000D+00 0.2580000D+00 0.2580000D+00 0.2580000D+00 0.2580000D+00
EXPONENTS  0.2580000D+00 0.2580000D+00 0.2580000D+00 0.2580000D+00 0.2580000D+00
MO    1     MO 0.0        OCC NO =    2.0000283  ORB. ENERGY =    0.000000
 -0.44714177D-10 -0.83356234D-10 -0.14088339D-09 -0.21177401D-09 -0.26012645D-09
 -0.21953754D-09 -0.82551849D-10 -0.48686640D-14 -0.36390247D-13 -0.13599866D-12
 -0.37941509D-12 -0.50831162D-12  0.60022124D-12 -0.36107581D-11 -0.32373069D-12
 -0.81647381D-14  0.37395636D-13  0.35060786D-13  0.24965368D-13 -0.26175252D-02
 -0.24540963D-02 -0.17474628D-02  0.15069857D-11  0.14128949D-11  0.10060653D-11
 -0.20387722D-14 -0.55119297D-03  0.27785625D-13  0.45064012D-14  0.12871907D-02
 -0.23556535D-12  0.84560853D-15  0.80488829D-04  0.72863645D-14  0.16690188D-12
 -0.72043807D-13 -0.94858076D-13  0.74825290D-05  0.22115339D-13 -0.11882934D-02
 -0.18368569D-14  0.62308728D-13 -0.60471871D-13 -0.41041881D-05  0.62344688D-15
  0.16064058D-05  0.57868542D-14  0.29697616D-13 -0.35484471D-13 -0.25891533D-05
  0.79767405D-14 -0.32102141D-03 -0.15909438D-14  0.11229063D-03 -0.11334214D-13
  0.28252528D-14  0.27503960D-03 -0.16068973D-13  0.19475786D-14 -0.61191148D-03
  0.50071615D-13  0.74153872D-05  0.15215257D-14 -0.68554865D-04  0.23078195D-13
 -0.91052724D-15 -0.13795343D-03  0.13160647D-13 -0.36540499D-14  0.34361803D-03
 -0.82395232D-13 -0.39325750D-05 -0.77895211D-10 -0.14563294D-09 -0.25169701D-09
 -0.40710954D-09 -0.61533245D-09 -0.84744018D-09 -0.99055438D-09 -0.85610407D-09
 -0.39954823D-09 -0.54130018D-10  0.39591475D-12 -0.54155272D-12 -0.69616057D-11
 -0.25394937D-10 -0.85681888D-10 -0.18819587D-09 -0.24309774D-09  0.39067874D-10
  0.32773303D-09  0.17985566D-09 -0.44924536D-14 -0.51171839D-13 -0.10625118D-12
 -0.29216377D-12  0.37882388D-13  0.13210315D-11  0.32948624D-11 -0.27274394D-11
  0.10021364D-10  0.42289811D-12 -0.61992041D-13 -0.26882597D-09 -0.35268439D-09
 -0.38681845D-09 -0.31826256D-09 -0.16776993D-09 -0.43650579D-10  0.97045724D+01
  0.12731847D+02  0.13964081D+02  0.11489225D+02  0.60564662D+01  0.15757786D+01
  0.23553758D-08  0.30901192D-08  0.33891919D-08  0.27885250D-08  0.14699518D-08
  0.38245382D-09 -0.16676121D-14 -0.59859990D-13 -0.94969375D-13 -0.11277322D-12
 -0.17065561D-13  0.12419995D-12  0.88548496D-04  0.31785041D-02  0.50427765D-02
  0.59881424D-02  0.90616378D-03 -0.65948902D-02  0.21359122D-13  0.76669917D-12
  0.12163874D-11  0.14444228D-11  0.21857924D-12 -0.15907787D-11 -0.20446669D-11
  0.67296092D-01  0.17288077D-10 -0.11781178D-13 -0.32131843D-03 -0.19741553D-12
 -0.15448320D-15 -0.28032863D-04  0.22602094D-14 -0.89393504D-13 -0.37759004D-13
  0.12715251D-12 -0.44927096D-05 -0.12378841D-13  0.76804815D-03  0.66138744D-13
 -0.14884671D-12  0.82707964D-13  0.37257418D-05  0.75528787D-14 -0.72871980D-03
 -0.21640906D-15 -0.69282249D-14  0.71446339D-14  0.10570279D-05  0.39868296D-14
 -0.41301949D-04 -0.36207995D-14  0.35498402D-05 -0.34361730D-13  0.11322290D-14
  0.13847505D-03  0.92150814D-13  0.97301694D-14 -0.14912457D-03  0.10934376D-13
  0.62974137D-05  0.22996611D-15  0.31999221D-04 -0.58153057D-14 -0.40959407D-16
  0.28395061D-05  0.83427846D-14 -0.64893892D-15 -0.98837169D-04  0.91031326D-14
  0.27611141D-06  0.36976624D-03  0.69558599D-03  0.12040949D-02  0.19737427D-02
  0.30918980D-02  0.46473743D-02  0.66421904D-02  0.88174934D-02  0.10268608D-01
  0.94305285D-02  0.55127631D-02  0.14465169D-02  0.82242520D-04  0.14350435D-05
  0.14445346D-06  0.18606260D-04  0.53749196D-04  0.24634519D-03  0.72923543D-03
  0.21148040D-02  0.43958154D-02  0.62882661D-02  0.18030467D-02 -0.72052162D-02
 -0.69667470D-02 -0.15205990D-02  0.22010211D-04  0.12210737D-04  0.56965614D-04
  0.11560749D-03  0.45308585D-03  0.31794107D-03 -0.20705526D-02 -0.64159315D-02
 -0.78481211D-03  0.56084979D-02  0.26320679D-02 -0.96426582D-06 -0.13219319D-05
  0.25344632D-05  0.53865678D-05 -0.20362733D-04 -0.65847907D-04 -0.22900901D-04
  0.22399575D-03  0.49962664D-03 -0.33153703D-03 -0.56549512D-04  0.15383544D-02
  0.47865459D-03  0.93103970D-02  0.13359030D-01  0.17688590D-01  0.20427243D-01
  0.18939906D-01  0.12265229D-01  0.43278990D-02  0.49867723D-03 -0.81468539D-06
  0.11926642D+01  0.17112951D+01  0.22659128D+01  0.26167349D+01  0.24262068D+01
  0.15711789D+01  0.55440495D+00  0.63880678D-01 -0.10436140D-03  0.10395993D+01
  0.14916698D+01  0.19751087D+01  0.22809068D+01  0.21148307D+01  0.13695360D+01
  0.48325338D+00  0.55682319D-01 -0.90967803D-04 -0.56157879D-04  0.16011612D-03
  0.78154737D-03  0.16195148D-02  0.20323312D-02  0.32229117D-03 -0.26088381D-02
 -0.22752851D-02 -0.58489589D-03 -0.72355995D-02  0.20629983D-01  0.10069760D+00
  0.20866458D+00  0.26185345D+00  0.41525247D-01 -0.33613285D+00 -0.29315658D+00
 -0.75360260D-01 -0.64239718D-02  0.18315888D-01  0.89402206D-01  0.18525837D+00
  0.23248097D+00  0.36867300D-01 -0.29842834D+00 -0.26027278D+00 -0.66906991D-01
 -0.14233693D-05 -0.20108491D-05  0.93563760D-06 -0.18750266D-05 -0.20583595D-05
 -0.55561575D-05 -0.17508920D-05  0.37592024D-05 -0.73406335D-04 -0.10370398D-03
  0.48252922D-04 -0.96699311D-04 -0.10615420D-03 -0.28654346D-03 -0.90297414D-04
  0.19387047D-03  0.58010668D-04  0.81953926D-04 -0.38132733D-04  0.76418358D-04
  0.83890252D-04  0.22644608D-03  0.71359144D-04 -0.15320960D-03 -0.26251159D-04
 -0.31186096D-02 -0.28951142D-02  0.22452933D-05  0.38434285D-03  0.16655277D-03
  0.18378961D-06  0.14770189D-04  0.12332771D-04  0.14795063D+00  0.15481439D+00
  0.13191015D+00  0.86872804D-01  0.40037089D-01  0.11989171D-01  0.20398558D-02
 -0.14927089D+00 -0.15619590D+00 -0.13308727D+00 -0.87648028D-01 -0.40394367D-01
 -0.12096158D-01 -0.20580588D-02  0.13202618D-02  0.13815117D-02  0.11771220D-02
  0.77522379D-03  0.35727757D-03  0.10698735D-03  0.18202990D-04 -0.41422377D-02
 -0.43344055D-02 -0.36931454D-02 -0.24322155D-02 -0.11209357D-02 -0.33566601D-03
 -0.57110726D-04 -0.29776142D-02 -0.31157525D-02 -0.26547879D-02 -0.17483785D-02
 -0.80577560D-03 -0.24129081D-03 -0.41053585D-04 -0.47813337D+00 -0.50031505D+00
 -0.42629520D+00 -0.28074762D+00 -0.12938822D+00 -0.38745512D-01 -0.65922203D-02
  0.65129165D-04 -0.11681096D-03  0.51681791D-04 -0.48081006D-05 -0.21634493D-05
 -0.35244079D-03 -0.54727706D-04  0.56951475D-04 -0.22237693D-05  0.38391180D-05
  0.80540574D-06  0.93790037D-04 -0.15693933D-04  0.18591055D-04 -0.28971220D-05
  0.68956839D-06  0.53705872D-07  0.63867401D-04 -0.19741048D-06  0.27879155D-04
  0.31873020D-04 -0.17361072D-06 -0.51866308D-04 -0.39824751D-04  0.76584215D-06
 -0.31771156D-04 -0.55794310D-04 -0.84769994D-06 -0.69217301D-07 -0.17140145D-05
 -0.13688435D-05  0.11277424D-05  0.12492912D-04  0.22715250D-05 -0.92009049D-06
 -0.73508688D-05  0.18350054D-05  0.35052744D-06 -0.36976631D-03 -0.69558611D-03
 -0.12040951D-02 -0.19737430D-02 -0.30918986D-02 -0.46473751D-02 -0.66421916D-02
 -0.88174949D-02 -0.10268610D-01 -0.94305302D-02 -0.55127641D-02 -0.14465171D-02
 -0.82242535D-04 -0.14350438D-05 -0.14445348D-06 -0.18606261D-04 -0.53749198D-04
 -0.24634520D-03 -0.72923546D-03 -0.21148041D-02 -0.43958155D-02 -0.62882663D-02
 -0.18030468D-02  0.72052165D-02  0.69667473D-02  0.15205991D-02 -0.22010212D-04
 -0.12210738D-04 -0.56965616D-04 -0.11560749D-03 -0.45308586D-03 -0.31794108D-03
  0.20705527D-02  0.64159318D-02  0.78481214D-03 -0.56084981D-02 -0.26320680D-02
  0.96426582D-06  0.13219319D-05 -0.25344632D-05 -0.53865678D-05  0.20362733D-04
  0.65847907D-04  0.22900901D-04 -0.22399575D-03 -0.49962664D-03  0.33153703D-03
  0.56549508D-04 -0.15383544D-02 -0.47865459D-03 -0.93103961D-02 -0.13359029D-01
 -0.17688588D-01 -0.20427241D-01 -0.18939904D-01 -0.12265228D-01 -0.43278986D-02
 -0.49867718D-03  0.81468531D-06  0.11926642D+01  0.17112951D+01  0.22659128D+01
  0.26167349D+01  0.24262068D+01  0.15711789D+01  0.55440495D+00  0.63880678D-01
 -0.10436140D-03 -0.10395993D+01 -0.14916698D+01 -0.19751087D+01 -0.22809068D+01
 -0.21148307D+01 -0.13695360D+01 -0.48325338D+00 -0.55682319D-01  0.90967803D-04
  0.56157873D-04 -0.16011610D-03 -0.78154727D-03 -0.16195146D-02 -0.20323309D-02
 -0.32229113D-03  0.26088378D-02  0.22752848D-02  0.58489582D-03 -0.72355995D-02
  0.20629983D-01  0.10069760D+00  0.20866458D+00  0.26185345D+00  0.41525247D-01
 -0.33613284D+00 -0.29315658D+00 -0.75360260D-01  0.64239718D-02 -0.18315888D-01
 -0.89402205D-01 -0.18525837D+00 -0.23248097D+00 -0.36867300D-01  0.29842834D+00
  0.26027278D+00  0.66906991D-01  0.14233693D-05  0.20108492D-05 -0.93563761D-06
  0.18750266D-05  0.20583595D-05  0.55561575D-05  0.17508920D-05 -0.37592024D-05
 -0.73406335D-04 -0.10370398D-03  0.48252922D-04 -0.96699311D-04 -0.10615420D-03
 -0.28654346D-03 -0.90297414D-04  0.19387047D-03 -0.58010668D-04 -0.81953926D-04
  0.38132733D-04 -0.76418358D-04 -0.83890252D-04 -0.22644608D-03 -0.71359144D-04
  0.15320960D-03  0.26251157D-04 -0.31186096D-02  0.28951142D-02 -0.22452934D-05
  0.38434285D-03 -0.16655277D-03 -0.18378961D-06  0.14770189D-04 -0.12332771D-04
 -0.14795063D+00 -0.15481439D+00 -0.13191015D+00 -0.86872804D-01 -0.40037089D-01
 -0.11989171D-01 -0.20398558D-02  0.14927089D+00  0.15619590D+00  0.13308727D+00
  0.87648028D-01  0.40394367D-01  0.12096158D-01  0.20580588D-02 -0.13202617D-02
 -0.13815116D-02 -0.11771219D-02 -0.77522373D-03 -0.35727754D-03 -0.10698734D-03
 -0.18202988D-04 -0.41422383D-02 -0.43344061D-02 -0.36931460D-02 -0.24322158D-02
 -0.11209359D-02 -0.33566606D-03 -0.57110734D-04  0.29776141D-02  0.31157523D-02
  0.26547878D-02  0.17483784D-02  0.80577557D-03  0.24129080D-03  0.41053584D-04
 -0.47813337D+00 -0.50031505D+00 -0.42629520D+00 -0.28074762D+00 -0.12938822D+00
 -0.38745512D-01 -0.65922203D-02 -0.65129165D-04  0.11681096D-03 -0.51681791D-04
 -0.48081011D-05  0.21634492D-05 -0.35244079D-03  0.54727706D-04 -0.56951475D-04
  0.22237693D-05  0.38391180D-05 -0.80540574D-06  0.93790037D-04  0.15693933D-04
 -0.18591055D-04  0.28971220D-05  0.68956838D-06 -0.53705871D-07  0.63867401D-04
  0.19741048D-06  0.27879155D-04 -0.31873020D-04  0.17361070D-06 -0.51866308D-04
  0.39824751D-04 -0.76584215D-06 -0.31771155D-04  0.55794310D-04 -0.84769992D-06
  0.69217300D-07 -0.17140145D-05  0.13688435D-05 -0.11277424D-05  0.12492912D-04
 -0.22715250D-05  0.92009049D-06 -0.73508688D-05 -0.18350054D-05  0.35052744D-06
MO    2     MO 0.0        OCC NO =    2.0000240  ORB. ENERGY =    0.000000
 -0.58960444D-01 -0.10991415D+00 -0.18576988D+00 -0.27924678D+00 -0.34300465D+00
 -0.28948383D+00 -0.10885348D+00 -0.10359315D-04 -0.77429458D-04 -0.28937157D-03
 -0.80730161D-03 -0.10815616D-02  0.12771226D-02 -0.44805443D-02 -0.17440725D-02
 -0.31723878D-03 -0.19946750D-04 -0.18701346D-04 -0.13316472D-04  0.10363827D-11
  0.97167467D-12  0.69189025D-12  0.22932692D-02  0.21500856D-02  0.15309891D-02
  0.41471272D-06  0.22803782D-12 -0.21680376D-03  0.42816852D-05 -0.45384506D-12
 -0.96620200D-03  0.20168016D-06 -0.32726397D-13  0.10758877D-05  0.12459817D-03
  0.11571223D-04 -0.13616939D-03 -0.59774630D-14 -0.75416678D-06  0.41148514D-12
  0.11848059D-03  0.12829871D-03 -0.24677930D-03  0.19605240D-14  0.41648201D-05
  0.40043798D-13  0.23558737D-04  0.10012405D-03 -0.12368279D-03 -0.12304865D-14
  0.13528484D-05  0.15715953D-12  0.90008829D-06 -0.43812813D-13 -0.97729103D-05
 -0.20558142D-05 -0.88567722D-13 -0.90584140D-04 -0.64445068D-06  0.22000616D-12
  0.11990287D-03 -0.40167876D-14 -0.32588093D-06  0.22928555D-13  0.13237503D-04
  0.12474473D-05  0.48387548D-13  0.44741247D-04 -0.26980453D-06 -0.11717321D-12
 -0.84453756D-04  0.74107347D-15 -0.12703661D+00 -0.23750773D+00 -0.41048395D+00
 -0.66394088D+00 -0.10035244D+01 -0.13820609D+01 -0.16154609D+01 -0.13961905D+01
 -0.65160939D+00 -0.88278775D-01  0.64568367D-03 -0.15829757D-02 -0.20348993D-01
 -0.74230203D-01 -0.25045087D+00 -0.55010248D+00 -0.71058236D+00  0.11419663D+00
  0.95797400D+00  0.52572377D+00 -0.12725788D-04 -0.14495463D-03 -0.30097807D-03
 -0.82761326D-03  0.10730956D-03  0.37420903D-02  0.93333674D-02 -0.77260264D-02
  0.29340475D-01  0.18098912D-02  0.12889109D-03 -0.18253518D-01 -0.23947578D-01
 -0.26265310D-01 -0.21610306D-01 -0.11391724D-01 -0.29639124D-02 -0.36294964D-08
 -0.47616929D-08 -0.52225465D-08 -0.42969540D-08 -0.22651098D-08 -0.58933897D-09
  0.62309948D+01  0.81747108D+01  0.89658886D+01  0.73768630D+01  0.38886627D+01
  0.10117569D+01 -0.21162799D-06 -0.75965203D-05 -0.12052070D-04 -0.14311463D-04
 -0.21657016D-05  0.15761571D-04 -0.32739913D-13 -0.11752199D-11 -0.18645158D-11
 -0.22140553D-11 -0.33504492D-12  0.24383941D-11  0.57972396D-04  0.20809557D-02
  0.33014884D-02  0.39204162D-02  0.59326231D-03 -0.43176519D-02 -0.14418038D-03
 -0.25191391D-10  0.45893310D-01  0.51199350D-05  0.51054564D-13 -0.77407533D-03
 -0.80269599D-07  0.96726598D-14 -0.49980019D-05 -0.24704408D-03 -0.13338412D-03
  0.38042820D-03  0.17328401D-14 -0.76176645D-05 -0.25296153D-12  0.21040663D-03
 -0.39863536D-03  0.18822873D-03 -0.38512545D-14 -0.23233047D-05  0.24422300D-12
 -0.54232902D-05 -0.30831095D-04  0.36254386D-04 -0.25591808D-16 -0.79429373D-06
  0.30123726D-13 -0.98537578D-06 -0.35450451D-15 -0.74216057D-04 -0.60129667D-07
 -0.47395009D-13  0.20816331D-03  0.30162570D-05  0.48458523D-13  0.14484863D-04
 -0.18708685D-15 -0.18534304D-06 -0.97973641D-14 -0.20802531D-04 -0.32874840D-06
 -0.35390062D-15  0.19382817D-04  0.88477753D-06  0.29745993D-13  0.43024775D-04
 -0.76693959D-15  0.58158569D-03  0.10940503D-02  0.18938569D-02  0.31043951D-02
  0.48630823D-02  0.73096084D-02  0.10447149D-01  0.13868567D-01  0.16150949D-01
  0.14832778D-01  0.86707325D-02  0.22751496D-02  0.12935489D-03  0.22571038D-05
  0.22720318D-06  0.27652128D-04  0.79880624D-04  0.36611167D-03  0.10837703D-02
  0.31429654D-02  0.65329437D-02  0.93454536D-02  0.26796400D-02 -0.10708201D-01
 -0.10353794D-01 -0.22598738D-02  0.32710989D-04  0.17535202D-04  0.81805343D-04
  0.16601787D-03  0.65065292D-03  0.45657856D-03 -0.29734124D-02 -0.92135842D-02
 -0.11270277D-02  0.80540709D-02  0.37797752D-02 -0.20729291D-06 -0.28418214D-06
  0.54484589D-06  0.11579767D-05 -0.43774759D-05 -0.14155645D-04 -0.49231180D-05
  0.48153456D-04  0.10740717D-03 -0.71272129D-04  0.82931638D-04 -0.29110215D-03
  0.76435022D-04 -0.11370783D-02 -0.16315376D-02 -0.21603066D-02 -0.24947781D-02
 -0.23131298D-02 -0.14979518D-02 -0.52856608D-03 -0.60903424D-04  0.99497484D-07
  0.25590779D+00  0.36718949D+00  0.48619281D+00  0.56146807D+00  0.52058679D+00
  0.33712502D+00  0.11895767D+00  0.13706761D-01 -0.22392637D-04  0.32120858D+00
  0.46088636D+00  0.61025613D+00  0.70473962D+00  0.65342653D+00  0.42315025D+00
  0.14931246D+00  0.17204358D-01 -0.28106635D-04  0.84020176D-05 -0.23955649D-04