 Entering Gaussian System, Link 0=/home/bruns/programas/chemistry/gaussian/g09/g09
 Input=GAUSSIAN.com
 Output=GAUSSIAN.log
 Initial command:
 /home/bruns/programas/chemistry/gaussian/g09/l1.exe /home/bruns/programas/chemistry/gaussian/work/Gau-3375.inp -scrdir=/home/bruns/programas/chemistry/gaussian/work/
 Entering Link 1 = /home/bruns/programas/chemistry/gaussian/g09/l1.exe PID=      3377.
  
 Copyright (c) 1988,1990,1992,1993,1995,1998,2003,2009,2010,
            Gaussian, Inc.  All Rights Reserved.
  
 This is part of the Gaussian(R) 09 program.  It is based on
 the Gaussian(R) 03 system (copyright 2003, Gaussian, Inc.),
 the Gaussian(R) 98 system (copyright 1998, Gaussian, Inc.),
 the Gaussian(R) 94 system (copyright 1995, Gaussian, Inc.),
 the Gaussian 92(TM) system (copyright 1992, Gaussian, Inc.),
 the Gaussian 90(TM) system (copyright 1990, Gaussian, Inc.),
 the Gaussian 88(TM) system (copyright 1988, Gaussian, Inc.),
 the Gaussian 86(TM) system (copyright 1986, Carnegie Mellon
 University), and the Gaussian 82(TM) system (copyright 1983,
 Carnegie Mellon University). Gaussian is a federally registered
 trademark of Gaussian, Inc.
  
 This software contains proprietary and confidential information,
 including trade secrets, belonging to Gaussian, Inc.
  
 This software is provided under written license and may be
 used, copied, transmitted, or stored only in accord with that
 written license.
  
 The following legend is applicable only to US Government
 contracts under FAR:
  
                    RESTRICTED RIGHTS LEGEND
  
 Use, reproduction and disclosure by the US Government is
 subject to restrictions as set forth in subparagraphs (a)
 and (c) of the Commercial Computer Software - Restricted
 Rights clause in FAR 52.227-19.
  
 Gaussian, Inc.
 340 Quinnipiac St., Bldg. 40, Wallingford CT 06492
  
  
 ---------------------------------------------------------------
 Warning -- This program may not be used in any manner that
 competes with the business of Gaussian, Inc. or will provide
 assistance to any competitor of Gaussian, Inc.  The licensee
 of this program is prohibited from giving any competitor of
 Gaussian, Inc. access to this program.  By using this program,
 the user acknowledges that Gaussian, Inc. is engaged in the
 business of creating and licensing software in the field of
 computational chemistry and represents and warrants to the
 licensee that it is not a competitor of Gaussian, Inc. and that
 it will not use this program in any manner prohibited above.
 ---------------------------------------------------------------
  

 Cite this work as:
 Gaussian 09, Revision B.01,
 M. J. Frisch, G. W. Trucks, H. B. Schlegel, G. E. Scuseria, 
 M. A. Robb, J. R. Cheeseman, G. Scalmani, V. Barone, B. Mennucci, 
 G. A. Petersson, H. Nakatsuji, M. Caricato, X. Li, H. P. Hratchian, 
 A. F. Izmaylov, J. Bloino, G. Zheng, J. L. Sonnenberg, M. Hada, 
 M. Ehara, K. Toyota, R. Fukuda, J. Hasegawa, M. Ishida, T. Nakajima, 
 Y. Honda, O. Kitao, H. Nakai, T. Vreven, J. A. Montgomery, Jr., 
 J. E. Peralta, F. Ogliaro, M. Bearpark, J. J. Heyd, E. Brothers, 
 K. N. Kudin, V. N. Staroverov, T. Keith, R. Kobayashi, J. Normand, 
 K. Raghavachari, A. Rendell, J. C. Burant, S. S. Iyengar, J. Tomasi, 
 M. Cossi, N. Rega, J. M. Millam, M. Klene, J. E. Knox, J. B. Cross, 
 V. Bakken, C. Adamo, J. Jaramillo, R. Gomperts, R. E. Stratmann, 
 O. Yazyev, A. J. Austin, R. Cammi, C. Pomelli, J. W. Ochterski, 
 R. L. Martin, K. Morokuma, V. G. Zakrzewski, G. A. Voth, 
 P. Salvador, J. J. Dannenberg, S. Dapprich, A. D. Daniels, 
 O. Farkas, J. B. Foresman, J. V. Ortiz, J. Cioslowski, 
 and D. J. Fox, Gaussian, Inc., Wallingford CT, 2010.
 
 ******************************************
 Gaussian 09:  EM64L-G09RevB.01 12-Aug-2010
                28-Nov-2021 
 ******************************************
 %nproc=8
 Will use up to    8 processors via shared memory.
 %mem=8GB
 -----------------------------------------------------
 # qcisd/aug-cc-pvtz nosymm density=current output=wfn
 -----------------------------------------------------
 1/30=1,38=1/1;
 2/12=2,15=1,17=6,18=5,40=1/2;
 3/5=16,6=1,7=10,11=9,16=1,25=1,30=1,71=1/1,2,3;
 4//1;
 5/5=2,38=5/2;
 8/6=4,9=120000,10=1/1,4;
 9/5=8,15=1/13;
 11/28=-7,31=1,32=3,42=3/11;
 10/5=6,13=10,31=1/2;
 6/7=2,8=2,9=2,10=2,22=-1,31=1/1;
 99/5=1,6=1100,9=1/99;
 ------------------
 br2cs-wavefunction
 ------------------
 Symbolic Z-matrix:
 Charge =  0 Multiplicity = 1
 C                     0.        0.       -0.51945 
 S                     0.        0.        1.08369 
 Br                    0.       -1.56852  -1.57857 
 Br                    0.        1.56852  -1.57857 
 
                          Input orientation:                          
 ---------------------------------------------------------------------
 Center     Atomic      Atomic             Coordinates (Angstroms)
 Number     Number       Type             X           Y           Z
 ---------------------------------------------------------------------
      1          6           0        0.000000    0.000000   -0.519451
      2         16           0        0.000000    0.000000    1.083692
      3         35           0        0.000000   -1.568516   -1.578570
      4         35           0        0.000000    1.568516   -1.578570
 ---------------------------------------------------------------------
                    Distance matrix (angstroms):
                    1          2          3          4
     1  C    0.000000
     2  S    1.603143   0.000000
     3  Br   1.892611   3.089965   0.000000
     4  Br   1.892611   3.089965   3.137032   0.000000
 Symmetry turned off by external request.
 Stoichiometry    CBr2S
 Framework group  C2V[C2(CS),SGV(Br2)]
 Deg. of freedom     3
 Full point group                 C2V     NOp   4
 Rotational constants (GHZ):      2.6233679      1.3014616      0.8699009
 Standard basis: Aug-CC-pVTZ (5D, 7F)
 Integral buffers will be    131072 words long.
 Raffenetti 1 integral format.
 Two-electron integral symmetry is turned off.
   214 basis functions,   620 primitive gaussians,   252 cartesian basis functions
    46 alpha electrons       46 beta electrons
       nuclear repulsion energy       547.5704755571 Hartrees.
 NAtoms=    4 NActive=    4 NUniq=    4 SFac= 1.00D+00 NAtFMM=   50 NAOKFM=F Big=F
 One-electron integrals computed using PRISM.
 NBasis=   214 RedAO= T  NBF=   214
 NBsUse=   214 1.00D-06 NBFU=   214
 Harris functional with IExCor=  205 diagonalized for initial guess.
 ExpMin= 3.51D-02 ExpMax= 1.06D+07 ExpMxC= 1.21D+04 IAcc=3 IRadAn=         0 AccDes= 0.00D+00
 HarFok:  IExCor=  205 AccDes= 0.00D+00 IRadAn=         0 IDoV= 1
 ScaDFX=  1.000000  1.000000  1.000000  1.000000
 FoFCou: FMM=F IPFlag=           0 FMFlag=      100000 FMFlg1=           0
         NFxFlg=           0 DoJE=T BraDBF=F KetDBF=T FulRan=T
         Omega=  0.000000  0.000000  1.000000  0.000000  0.000000 ICntrl=     500 IOpCl=  0
         NMat0=    1 NMatS0=    1 NMatT0=    0 NMatD0=    1 NMtDS0=    0 NMtDT0=    0
         I1Cent=           4 NGrid=           0.
 Symmetry not used in FoFCou.
 Requested convergence on RMS density matrix=1.00D-08 within 128 cycles.
 Requested convergence on MAX density matrix=1.00D-06.
 Requested convergence on             energy=1.00D-06.
 No special actions if energy rises.
 Keep R1 ints in memory in canonical form, NReq=516428601.
 SCF Done:  E(RHF) =  -5580.30868088     A.U. after   14 cycles
             Convg  =    0.3250D-08             -V/T =  2.0000
 ExpMin= 3.51D-02 ExpMax= 1.06D+07 ExpMxC= 1.21D+04 IAcc=3 IRadAn=         5 AccDes= 0.00D+00
 HarFok:  IExCor=  205 AccDes= 0.00D+00 IRadAn=         5 IDoV=-2
 ScaDFX=  1.000000  1.000000  1.000000  1.000000
 DSYEVD returned Info=          93 IAlg= 4 N=    46 NDim=    46 NE2=    18196455 trying DSYEV.
 DSYEVD returned Info=          89 IAlg= 4 N=    59 NDim=    59 NE2=    18196455 trying DSYEV.
 Range of M.O.s used for correlation:    25   214
 NBasis=   214 NAE=    46 NBE=    46 NFC=    24 NFV=     0
 NROrb=    190 NOA=    22 NOB=    22 NVA=   168 NVB=   168

 **** Warning!!: The largest alpha MO coefficient is  0.30763865D+02

 Semi-Direct transformation.
 ModeAB=           2 MOrb=            22 LenV=    1072457083
 LASXX=     69628944 LTotXX=    69628944 LenRXX=    69628944
 LTotAB=    70719517 MaxLAS=   133250040 LenRXY=   133250040
 NonZer=   139257888 LenScr=   209707008 LnRSAI=           0
 LnScr1=           0 LExtra=           0 Total=    412585992
 MaxDsk=          -1 SrtSym=           F ITran=            4
 JobTyp=0 Pass  1:  I=   1 to  22.
 (rs|ai) integrals will be sorted in core.
 Spin components of T(2) and E(2):
     alpha-alpha T2 =       0.4287457263D-01 E2=     -0.1154000850D+00
     alpha-beta  T2 =       0.2166580647D+00 E2=     -0.5793039023D+00
     beta-beta   T2 =       0.4287457263D-01 E2=     -0.1154000850D+00
 ANorm=    0.1141230568D+01
 E2 =    -0.8101040723D+00 EUMP2 =    -0.55811187849536D+04
 R2 and R3 integrals will be kept in memory, NReq=  1024335774.
 Iterations=  50 Convergence= 0.100D-07
 Iteration Nr.   1
 **********************
 DD1Dir will call FoFMem   1 times, MxPair=       506
 NAB=   253 NAA=     0 NBB=     0.
 MP4(R+Q)=  0.23474482D-01
 E3=       -0.12178146D-01        EUMP3=      -0.55811309631D+04
 E4(DQ)=   -0.51027227D-03        UMP4(DQ)=   -0.55811314734D+04
 E4(SDQ)=  -0.10185526D-01        UMP4(SDQ)=  -0.55811411486D+04
 DE(Corr)= -0.79880774     E(Corr)=     -5581.1074886    
 NORM(A)=   0.11410197D+01
 Iteration Nr.   2
 **********************
 DD1Dir will call FoFMem   1 times, MxPair=       506
 NAB=   253 NAA=     0 NBB=     0.
 DE(Corr)= -0.82757669     E(CORR)=     -5581.1362576     Delta=-2.88D-02
 NORM(A)=   0.11532076D+01
 Iteration Nr.   3
 **********************
 DD1Dir will call FoFMem   1 times, MxPair=       506
 NAB=   253 NAA=     0 NBB=     0.
 DE(Corr)= -0.82616899     E(CORR)=     -5581.1348499     Delta= 1.41D-03
 NORM(A)=   0.11560439D+01
 Iteration Nr.   4
 **********************
 DD1Dir will call FoFMem   1 times, MxPair=       506
 NAB=   253 NAA=     0 NBB=     0.
 DE(Corr)= -0.82852010     E(CORR)=     -5581.1372010     Delta=-2.35D-03
 NORM(A)=   0.11573508D+01
 Iteration Nr.   5
 **********************
 DD1Dir will call FoFMem   1 times, MxPair=       506
 NAB=   253 NAA=     0 NBB=     0.
 DE(Corr)= -0.82882926     E(CORR)=     -5581.1375101     Delta=-3.09D-04
 NORM(A)=   0.11579878D+01
 Iteration Nr.   6
 **********************
 DD1Dir will call FoFMem   1 times, MxPair=       506
 NAB=   253 NAA=     0 NBB=     0.
 DE(Corr)= -0.82889398     E(CORR)=     -5581.1375749     Delta=-6.47D-05
 NORM(A)=   0.11580678D+01
 Iteration Nr.   7
 **********************
 DD1Dir will call FoFMem   1 times, MxPair=       506
 NAB=   253 NAA=     0 NBB=     0.
 DE(Corr)= -0.82890580     E(CORR)=     -5581.1375867     Delta=-1.18D-05
 NORM(A)=   0.11580846D+01
 Iteration Nr.   8
 **********************
 DD1Dir will call FoFMem   1 times, MxPair=       506
 NAB=   253 NAA=     0 NBB=     0.
 DE(Corr)= -0.82890192     E(CORR)=     -5581.1375828     Delta= 3.88D-06
 NORM(A)=   0.11580930D+01
 Iteration Nr.   9
 **********************
 DD1Dir will call FoFMem   1 times, MxPair=       506
 NAB=   253 NAA=     0 NBB=     0.
 DE(Corr)= -0.82890362     E(CORR)=     -5581.1375845     Delta=-1.69D-06
 NORM(A)=   0.11580936D+01
 Iteration Nr.  10
 **********************
 DD1Dir will call FoFMem   1 times, MxPair=       506
 NAB=   253 NAA=     0 NBB=     0.
 DE(Corr)= -0.82890373     E(CORR)=     -5581.1375846     Delta=-1.16D-07
 NORM(A)=   0.11580974D+01
 Iteration Nr.  11
 **********************
 DD1Dir will call FoFMem   1 times, MxPair=       506
 NAB=   253 NAA=     0 NBB=     0.
 DE(Corr)= -0.82890531     E(CORR)=     -5581.1375862     Delta=-1.58D-06
 NORM(A)=   0.11580993D+01
 Iteration Nr.  12
 **********************
 DD1Dir will call FoFMem   1 times, MxPair=       506
 NAB=   253 NAA=     0 NBB=     0.
 DE(Corr)= -0.82890539     E(CORR)=     -5581.1375863     Delta=-7.83D-08
 NORM(A)=   0.11581009D+01
 Iteration Nr.  13
 **********************
 DD1Dir will call FoFMem   1 times, MxPair=       506
 NAB=   253 NAA=     0 NBB=     0.
 DE(Corr)= -0.82890603     E(CORR)=     -5581.1375869     Delta=-6.35D-07
 NORM(A)=   0.11581019D+01
 Iteration Nr.  14
 **********************
 DD1Dir will call FoFMem   1 times, MxPair=       506
 NAB=   253 NAA=     0 NBB=     0.
 DE(Corr)= -0.82890604     E(CORR)=     -5581.1375869     Delta=-1.19D-08
 NORM(A)=   0.11581023D+01
 Iteration Nr.  15
 **********************
 DD1Dir will call FoFMem   1 times, MxPair=       506
 NAB=   253 NAA=     0 NBB=     0.
 DE(Corr)= -0.82890615     E(CORR)=     -5581.1375870     Delta=-1.15D-07
 NORM(A)=   0.11581025D+01
 Iteration Nr.  16
 **********************
 DD1Dir will call FoFMem   1 times, MxPair=       506
 NAB=   253 NAA=     0 NBB=     0.
 DE(Corr)= -0.82890618     E(CORR)=     -5581.1375871     Delta=-2.88D-08
 NORM(A)=   0.11581026D+01
 Iteration Nr.  17
 **********************
 DD1Dir will call FoFMem   1 times, MxPair=       506
 NAB=   253 NAA=     0 NBB=     0.
 DE(Corr)= -0.82890617     E(CORR)=     -5581.1375871     Delta= 1.24D-08
 NORM(A)=   0.11581026D+01
 Iteration Nr.  18
 **********************
 DD1Dir will call FoFMem   1 times, MxPair=       506
 NAB=   253 NAA=     0 NBB=     0.
 DE(Corr)= -0.82890619     E(CORR)=     -5581.1375871     Delta=-1.69D-08
 NORM(A)=   0.11581026D+01
 Iteration Nr.  19
 **********************
 DD1Dir will call FoFMem   1 times, MxPair=       506
 NAB=   253 NAA=     0 NBB=     0.
 DE(Corr)= -0.82890618     E(CORR)=     -5581.1375871     Delta= 1.25D-08
 NORM(A)=   0.11581026D+01
 Iteration Nr.  20
 **********************
 DD1Dir will call FoFMem   1 times, MxPair=       506
 NAB=   253 NAA=     0 NBB=     0.
 DE(Corr)= -0.82890618     E(CORR)=     -5581.1375871     Delta=-6.66D-09
 NORM(A)=   0.11581026D+01
 Iteration Nr.  21
 **********************
 DD1Dir will call FoFMem   1 times, MxPair=       506
 NAB=   253 NAA=     0 NBB=     0.
 DE(Corr)= -0.82890618     E(CORR)=     -5581.1375871     Delta=-2.25D-10
 NORM(A)=   0.11581026D+01
 Iteration Nr.  22
 **********************
 DD1Dir will call FoFMem   1 times, MxPair=       506
 NAB=   253 NAA=     0 NBB=     0.
 DE(Corr)= -0.82890618     E(CORR)=     -5581.1375871     Delta=-9.61D-10
 NORM(A)=   0.11581026D+01
 Largest amplitude= 7.67D-02

 Z-AMPLITUDE ITERATIONS

 Iteration Nr.   1
 **********************
 DD1Dir will call FoFMem   1 times, MxPair=       506
 NAB=   253 NAA=     0 NBB=     0.
 DE(Z)  -0.79824667D+00          E(Z)=    -0.55811069275D+04
 NORM(A)=   0.11614025D+01
 Iteration Nr.   2
 **********************
 DD1Dir will call FoFMem   1 times, MxPair=       506
 NAB=   253 NAA=     0 NBB=     0.
 DE(Z)  -0.79827066D+00          E(Z)=    -0.55811069515D+04
 NORM(A)=   0.11597176D+01
 Iteration Nr.   3
 **********************
 DD1Dir will call FoFMem   1 times, MxPair=       506
 NAB=   253 NAA=     0 NBB=     0.
 DE(Z)  -0.79825686D+00          E(Z)=    -0.55811069377D+04
 NORM(A)=   0.11706941D+01
 Iteration Nr.   4
 **********************
 DD1Dir will call FoFMem   1 times, MxPair=       506
 NAB=   253 NAA=     0 NBB=     0.
 DE(Z)  -0.79833761D+00          E(Z)=    -0.55811070185D+04
 NORM(A)=   0.11811536D+01
 Iteration Nr.   5
 **********************
 DD1Dir will call FoFMem   1 times, MxPair=       506
 NAB=   253 NAA=     0 NBB=     0.
 DE(Z)  -0.79845044D+00          E(Z)=    -0.55811071313D+04
 NORM(A)=   0.11448420D+01
 Iteration Nr.   6
 **********************
 DD1Dir will call FoFMem   1 times, MxPair=       506
 NAB=   253 NAA=     0 NBB=     0.
 DE(Z)  -0.79812950D+00          E(Z)=    -0.55811068104D+04
 NORM(A)=   0.11448409D+01
 Iteration Nr.   7
 **********************
 DD1Dir will call FoFMem   1 times, MxPair=       506
 NAB=   253 NAA=     0 NBB=     0.
 DE(Z)  -0.79812633D+00          E(Z)=    -0.55811068072D+04
 NORM(A)=   0.11448407D+01
 Iteration Nr.   8
 **********************
 DD1Dir will call FoFMem   1 times, MxPair=       506
 NAB=   253 NAA=     0 NBB=     0.
 DE(Z)  -0.79812727D+00          E(Z)=    -0.55811068082D+04
 NORM(A)=   0.11448408D+01
 Iteration Nr.   9
 **********************
 DD1Dir will call FoFMem   1 times, MxPair=       506
 NAB=   253 NAA=     0 NBB=     0.
 DE(Z)  -0.79812681D+00          E(Z)=    -0.55811068077D+04
 NORM(A)=   0.11448413D+01
 Iteration Nr.  10
 **********************
 DD1Dir will call FoFMem   1 times, MxPair=       506
 NAB=   253 NAA=     0 NBB=     0.
 DE(Z)  -0.79812684D+00          E(Z)=    -0.55811068077D+04
 NORM(A)=   0.11448416D+01
 Iteration Nr.  11
 **********************
 DD1Dir will call FoFMem   1 times, MxPair=       506
 NAB=   253 NAA=     0 NBB=     0.
 DE(Z)  -0.79812691D+00          E(Z)=    -0.55811068078D+04
 NORM(A)=   0.11448418D+01
 Iteration Nr.  12
 **********************
 DD1Dir will call FoFMem   1 times, MxPair=       506
 NAB=   253 NAA=     0 NBB=     0.
 DE(Z)  -0.79812688D+00          E(Z)=    -0.55811068078D+04
 NORM(A)=   0.11448418D+01
 Iteration Nr.  13
 **********************
 DD1Dir will call FoFMem   1 times, MxPair=       506
 NAB=   253 NAA=     0 NBB=     0.
 DE(Z)  -0.79812691D+00          E(Z)=    -0.55811068078D+04
 NORM(A)=   0.11448418D+01
 Iteration Nr.  14
 **********************
 DD1Dir will call FoFMem   1 times, MxPair=       506
 NAB=   253 NAA=     0 NBB=     0.
 DE(Z)  -0.79812690D+00          E(Z)=    -0.55811068078D+04
 NORM(A)=   0.11448418D+01
 Iteration Nr.  15
 **********************
 DD1Dir will call FoFMem   1 times, MxPair=       506
 NAB=   253 NAA=     0 NBB=     0.
 DE(Z)  -0.79812691D+00          E(Z)=    -0.55811068078D+04
 NORM(A)=   0.11448418D+01
 Iteration Nr.  16
 **********************
 DD1Dir will call FoFMem   1 times, MxPair=       506
 NAB=   253 NAA=     0 NBB=     0.
 DE(Z)  -0.79812690D+00          E(Z)=    -0.55811068078D+04
 NORM(A)=   0.11448418D+01
 Discarding MO integrals.
          Differentiating once with respect to electric field.
                with respect to dipole field.
          Electric field/nuclear overlap derivatives assumed to be zero.
          Keep R1 ints in memory in canonical form, NReq=510060614.
          There are     1 degrees of freedom in the 1st order CPHF.  IDoFFX=0.
 LinEq1:  Iter=  0 NonCon=     1 RMS=1.78D-03 Max=6.60D-02
 AX will form     1 AO Fock derivatives at one time.
 LinEq1:  Iter=  1 NonCon=     1 RMS=8.41D-04 Max=1.81D-02
 LinEq1:  Iter=  2 NonCon=     1 RMS=3.81D-04 Max=1.47D-02
 LinEq1:  Iter=  3 NonCon=     1 RMS=1.25D-04 Max=4.33D-03
 LinEq1:  Iter=  4 NonCon=     1 RMS=4.84D-05 Max=9.28D-04
 LinEq1:  Iter=  5 NonCon=     1 RMS=9.56D-06 Max=1.72D-04
 LinEq1:  Iter=  6 NonCon=     1 RMS=3.25D-06 Max=7.85D-05
 LinEq1:  Iter=  7 NonCon=     1 RMS=7.08D-07 Max=2.20D-05
 LinEq1:  Iter=  8 NonCon=     1 RMS=1.38D-07 Max=4.12D-06
 LinEq1:  Iter=  9 NonCon=     1 RMS=3.37D-08 Max=1.03D-06
 LinEq1:  Iter= 10 NonCon=     1 RMS=9.42D-09 Max=2.07D-07
 LinEq1:  Iter= 11 NonCon=     1 RMS=1.96D-09 Max=4.93D-08
 LinEq1:  Iter= 12 NonCon=     1 RMS=3.59D-10 Max=8.73D-09
 LinEq1:  Iter= 13 NonCon=     1 RMS=6.90D-11 Max=1.14D-09
 LinEq1:  Iter= 14 NonCon=     0 RMS=1.94D-11 Max=3.99D-10
 Linear equations converged to 1.000D-10 1.000D-09 after    14 iterations.
 End of Minotr Frequency-dependent properties file   721 does not exist.
 End of Minotr Frequency-dependent properties file   722 does not exist.

 **********************************************************************

            Population analysis using the QCI/CC density.

 **********************************************************************

     Natural Orbital Coefficients:
                           1         2         3         4         5
     Eigenvalues --     2.00003   2.00002   2.00002   2.00002   2.00001
   1 1   C  1S          0.00000  -0.17657   0.31646   0.00000   0.47068
   2        2S          0.00000   0.00356  -0.00987   0.00000  -0.00724
   3        3S          0.00000  -0.00677   0.01187   0.00000   0.01902
   4        4S          0.00000  -0.01140  -0.01475   0.00000   0.00524
   5        5S          0.00000  -0.00463  -0.00481   0.00000   0.00427
   6        6PX         0.00000   0.00000   0.00000   0.00000   0.00000
   7        6PY        -0.00120   0.00000   0.00000  -0.00301   0.00000
   8        6PZ         0.00000   0.00105   0.00152   0.00000  -0.00246
   9        7PX         0.00000   0.00000   0.00000   0.00000   0.00000
  10        7PY        -0.00128   0.00000   0.00000  -0.00517   0.00000
  11        7PZ         0.00000  -0.00051   0.00391   0.00000  -0.00053
  12        8PX         0.00000   0.00000   0.00000   0.00000   0.00000
  13        8PY         0.01267   0.00000   0.00000  -0.00428   0.00000
  14        8PZ         0.00000  -0.00951   0.00639   0.00000   0.00852
  15        9PX         0.00000   0.00000   0.00000   0.00000   0.00000
  16        9PY         0.00364   0.00000   0.00000   0.00041   0.00000
  17        9PZ         0.00000   0.00005   0.00084   0.00000   0.00140
  18       10D 0        0.00000  -0.00007   0.00012   0.00000   0.00003
  19       10D+1        0.00000   0.00000   0.00000   0.00000   0.00000
  20       10D-1       -0.00035   0.00000   0.00000   0.00035   0.00000
  21       10D+2        0.00000   0.00003   0.00012   0.00000  -0.00022
  22       10D-2        0.00000   0.00000   0.00000   0.00000   0.00000
  23       11D 0        0.00000  -0.00111  -0.00031   0.00000   0.00015
  24       11D+1        0.00000   0.00000   0.00000   0.00000   0.00000
  25       11D-1        0.00000   0.00000   0.00000   0.00114   0.00000
  26       11D+2        0.00000  -0.00003   0.00160   0.00000   0.00066
  27       11D-2        0.00000   0.00000   0.00000   0.00000   0.00000
  28       12D 0        0.00000  -0.00423   0.00100   0.00000   0.00476
  29       12D+1        0.00000   0.00000   0.00000   0.00000   0.00000
  30       12D-1       -0.00634   0.00000   0.00000   0.00305   0.00000
  31       12D+2        0.00000  -0.00151   0.00200   0.00000   0.00201
  32       12D-2        0.00000   0.00000   0.00000   0.00000   0.00000
  33       13F 0        0.00000  -0.00001   0.00001   0.00000  -0.00009
  34       13F+1        0.00000   0.00000   0.00000   0.00000   0.00000
  35       13F-1       -0.00031   0.00000   0.00000  -0.00007   0.00000
  36       13F+2        0.00000  -0.00007   0.00001   0.00000   0.00009
  37       13F-2        0.00000   0.00000   0.00000   0.00000   0.00000
  38       13F+3        0.00000   0.00000   0.00000   0.00000   0.00000
  39       13F-3        0.00006   0.00000   0.00000  -0.00007   0.00000
  40       14F 0        0.00000   0.00017  -0.00011   0.00000  -0.00104
  41       14F+1        0.00000   0.00000   0.00000   0.00000   0.00000
  42       14F-1        0.00184   0.00000   0.00000   0.00073   0.00000
  43       14F+2        0.00000   0.00044  -0.00036   0.00000  -0.00106
  44       14F-2        0.00000   0.00000   0.00000   0.00000   0.00000
  45       14F+3        0.00000   0.00000   0.00000   0.00000   0.00000
  46       14F-3       -0.00029   0.00000   0.00000   0.00021   0.00000
  47 2   S  1S          0.00000  -0.21720  -0.00890   0.00000  -0.15686
  48        2S          0.00000   0.74230   0.03096   0.00000   0.54151
  49        3S          0.00000  -0.02058  -0.00111   0.00000  -0.00839
  50        4S          0.00000   0.04976   0.00203   0.00000   0.03881
  51        5S          0.00000   0.01159  -0.00108   0.00000  -0.01515
  52        6S          0.00000   0.00172   0.00026   0.00000  -0.00423
  53        7PX         0.00000   0.00000   0.00000   0.00000   0.00000
  54        7PY         0.97039   0.00000   0.00000   0.09478   0.00000
  55        7PZ         0.00000   0.62308   0.02306   0.00000  -0.49628
  56        8PX         0.00000   0.00000   0.00000   0.00000   0.00000
  57        8PY        -0.01890   0.00000   0.00000  -0.00127   0.00000
  58        8PZ         0.00000  -0.01237  -0.00058   0.00000   0.00849
  59        9PX         0.00000   0.00000   0.00000   0.00000   0.00000
  60        9PY         0.05629   0.00000   0.00000   0.00579   0.00000
  61        9PZ         0.00000   0.03839   0.00150   0.00000  -0.03232
  62       10PX         0.00000   0.00000   0.00000   0.00000   0.00000
  63       10PY        -0.00356   0.00000   0.00000  -0.00104   0.00000
  64       10PZ         0.00000  -0.00859  -0.00066   0.00000   0.00538
  65       11PX         0.00000   0.00000   0.00000   0.00000   0.00000
  66       11PY        -0.00129   0.00000   0.00000  -0.00007   0.00000
  67       11PZ         0.00000  -0.00023  -0.00020   0.00000   0.00027
  68       12D 0        0.00000   0.00230   0.00017   0.00000  -0.00223
  69       12D+1        0.00000   0.00000   0.00000   0.00000   0.00000
  70       12D-1        0.00268   0.00000   0.00000   0.00071   0.00000
  71       12D+2        0.00000  -0.00040  -0.00006   0.00000   0.00009
  72       12D-2        0.00000   0.00000   0.00000   0.00000   0.00000
  73       13D 0        0.00000   0.00016  -0.00015   0.00000   0.00021
  74       13D+1        0.00000   0.00000   0.00000   0.00000   0.00000
  75       13D-1       -0.00036   0.00000   0.00000   0.00019   0.00000
  76       13D+2        0.00000   0.00030   0.00002   0.00000   0.00017
  77       13D-2        0.00000   0.00000   0.00000   0.00000   0.00000
  78       14D 0        0.00000   0.00122   0.00027   0.00000  -0.00045
  79       14D+1        0.00000   0.00000   0.00000   0.00000   0.00000
  80       14D-1       -0.00080   0.00000   0.00000   0.00021   0.00000
  81       14D+2        0.00000   0.00049  -0.00036   0.00000  -0.00032
  82       14D-2        0.00000   0.00000   0.00000   0.00000   0.00000
  83       15F 0        0.00000  -0.00019   0.00011   0.00000   0.00017
  84       15F+1        0.00000   0.00000   0.00000   0.00000   0.00000
  85       15F-1       -0.00015   0.00000   0.00000  -0.00011   0.00000
  86       15F+2        0.00000   0.00013   0.00002   0.00000  -0.00017
  87       15F-2        0.00000   0.00000   0.00000   0.00000   0.00000
  88       15F+3        0.00000   0.00000   0.00000   0.00000   0.00000
  89       15F-3        0.00011   0.00000   0.00000   0.00000   0.00000
  90       16F 0        0.00000  -0.00044  -0.00005   0.00000   0.00034
  91       16F+1        0.00000   0.00000   0.00000   0.00000   0.00000
  92       16F-1       -0.00084   0.00000   0.00000  -0.00009   0.00000
  93       16F+2        0.00000  -0.00013   0.00012   0.00000   0.00004
  94       16F-2        0.00000   0.00000   0.00000   0.00000   0.00000
  95       16F+3        0.00000   0.00000   0.00000   0.00000   0.00000
  96       16F-3       -0.00019   0.00000   0.00000   0.00001   0.00000
  97 3   Br 1S          0.00047   0.00074  -0.04004   0.03727   0.04183
  98        2S         -0.00185  -0.00275   0.14813  -0.13785  -0.15560
  99        3S          0.00419   0.00602  -0.31084   0.28795   0.33419
 100        4S         -0.00097  -0.00021  -0.00083   0.00067   0.00207
 101        5S         -0.00012   0.00017  -0.01685   0.01550   0.01622
 102        6S          0.01026  -0.00194   0.00550  -0.00303   0.00565
 103        7S          0.00681   0.00109   0.00240   0.00058  -0.00022
 104        8PX         0.00000   0.00000   0.00000   0.00000   0.00000
 105        8PY         0.02287   0.00491   0.20298  -0.22286   0.01571
 106        8PZ         0.01993   0.00616   0.12985  -0.13385  -0.01193
 107        9PX         0.00000   0.00000   0.00000   0.00000   0.00000
 108        9PY        -0.06057  -0.01267  -0.52756   0.58124  -0.05249
 109        9PZ        -0.05377  -0.01680  -0.33811   0.34743   0.02863
 110       10PX         0.00000   0.00000   0.00000   0.00000   0.00000
 111       10PY         0.00065  -0.00051   0.00264  -0.00088   0.00078
 112       10PZ        -0.00051  -0.00040   0.00140  -0.00135   0.00092
 113       11PX         0.00000   0.00000   0.00000   0.00000   0.00000
 114       11PY        -0.00336  -0.00063  -0.02505   0.02746  -0.00243
 115       11PZ        -0.00312  -0.00100  -0.01616   0.01642   0.00142
 116       12PX         0.00000   0.00000   0.00000   0.00000   0.00000
 117       12PY         0.00468   0.00018   0.00156   0.00111  -0.00049
 118       12PZ         0.00203  -0.00165   0.00127   0.00026   0.00218
 119       13PX         0.00000   0.00000   0.00000   0.00000   0.00000
 120       13PY         0.00068   0.00025   0.00044   0.00002  -0.00004
 121       13PZ         0.00057   0.00012   0.00017   0.00001  -0.00025
 122       14D 0        0.00001  -0.00001   0.00167  -0.00161  -0.00090
 123       14D+1        0.00000   0.00000   0.00000   0.00000   0.00000
 124       14D-1       -0.00304  -0.00089  -0.02815   0.03040   0.00190
 125       14D+2        0.00189   0.00066   0.01791  -0.01925  -0.00220
 126       14D-2        0.00000   0.00000   0.00000   0.00000   0.00000
 127       15D 0        0.00006   0.00000   0.00021  -0.00010  -0.00006
 128       15D+1        0.00000   0.00000   0.00000   0.00000   0.00000
 129       15D-1       -0.00023  -0.00010  -0.00278   0.00294   0.00034
 130       15D+2        0.00012   0.00011   0.00189  -0.00189  -0.00037
 131       15D-2        0.00000   0.00000   0.00000   0.00000   0.00000
 132       16D 0       -0.00001   0.00020  -0.00001  -0.00017  -0.00025
 133       16D+1        0.00000   0.00000   0.00000   0.00000   0.00000
 134       16D-1        0.00034   0.00009   0.00108  -0.00057   0.00033
 135       16D+2       -0.00040  -0.00001  -0.00085   0.00034  -0.00009
 136       16D-2        0.00000   0.00000   0.00000   0.00000   0.00000
 137       17D 0       -0.00009  -0.00025   0.00003   0.00017   0.00036
 138       17D+1        0.00000   0.00000   0.00000   0.00000   0.00000
 139       17D-1        0.00116  -0.00022   0.00062  -0.00025   0.00030
 140       17D+2       -0.00062  -0.00024  -0.00044  -0.00016   0.00032
 141       17D-2        0.00000   0.00000   0.00000   0.00000   0.00000
 142       18F 0        0.00008   0.00002   0.00025  -0.00031  -0.00004
 143       18F+1        0.00000   0.00000   0.00000   0.00000   0.00000
 144       18F-1       -0.00003   0.00000  -0.00011   0.00013   0.00004
 145       18F+2        0.00001   0.00004   0.00040  -0.00044  -0.00010
 146       18F-2        0.00000   0.00000   0.00000   0.00000   0.00000
 147       18F+3        0.00000   0.00000   0.00000   0.00000   0.00000
 148       18F-3       -0.00007   0.00003   0.00021  -0.00023  -0.00007
 149       19F 0       -0.00002   0.00006  -0.00032   0.00032  -0.00025
 150       19F+1        0.00000   0.00000   0.00000   0.00000   0.00000
 151       19F-1       -0.00004   0.00006   0.00018  -0.00027  -0.00006
 152       19F+2        0.00000  -0.00006  -0.00059   0.00046  -0.00002
 153       19F-2        0.00000   0.00000   0.00000   0.00000   0.00000
 154       19F+3        0.00000   0.00000   0.00000   0.00000   0.00000
 155       19F-3        0.00006  -0.00008  -0.00034   0.00017   0.00011
 156 4   Br 1S         -0.00047   0.00074  -0.04004  -0.03727   0.04183
 157        2S          0.00185  -0.00275   0.14813   0.13785  -0.15560
 158        3S         -0.00419   0.00602  -0.31084  -0.28795   0.33419
 159        4S          0.00097  -0.00021  -0.00083  -0.00067   0.00207
 160        5S          0.00012   0.00017  -0.01685  -0.01550   0.01622
 161        6S         -0.01026  -0.00194   0.00550   0.00303   0.00565
 162        7S         -0.00681   0.00109   0.00240  -0.00058  -0.00022
 163        8PX         0.00000   0.00000   0.00000   0.00000   0.00000
 164        8PY         0.02287  -0.00491  -0.20298  -0.22286  -0.01571
 165        8PZ        -0.01993   0.00616   0.12985   0.13385  -0.01193
 166        9PX         0.00000   0.00000   0.00000   0.00000   0.00000
 167        9PY        -0.06057   0.01267   0.52756   0.58124   0.05249
 168        9PZ         0.05377  -0.01680  -0.33811  -0.34743   0.02863
 169       10PX         0.00000   0.00000   0.00000   0.00000   0.00000
 170       10PY         0.00065   0.00051  -0.00264  -0.00088  -0.00078
 171       10PZ         0.00051  -0.00040   0.00140   0.00135   0.00092
 172       11PX         0.00000   0.00000   0.00000   0.00000   0.00000
 173       11PY        -0.00336   0.00063   0.02505   0.02746   0.00243
 174       11PZ         0.00312  -0.00100  -0.01616  -0.01642   0.00142
 175       12PX         0.00000   0.00000   0.00000   0.00000   0.00000
 176       12PY         0.00468  -0.00018  -0.00156   0.00111   0.00049
 177       12PZ        -0.00203  -0.00165   0.00127  -0.00026   0.00218
 178       13PX         0.00000   0.00000   0.00000   0.00000   0.00000
 179       13PY         0.00068  -0.00025  -0.00044   0.00002   0.00004
 180       13PZ        -0.00057   0.00012   0.00017  -0.00001  -0.00025
 181       14D 0       -0.00001  -0.00001   0.00167   0.00161  -0.00090
 182       14D+1        0.00000   0.00000   0.00000   0.00000   0.00000
 183       14D-1       -0.00304   0.00089   0.02815   0.03040  -0.00190
 184       14D+2       -0.00189   0.00066   0.01791   0.01925  -0.00220
 185       14D-2        0.00000   0.00000   0.00000   0.00000   0.00000
 186       15D 0       -0.00006   0.00000   0.00021   0.00010  -0.00006
 187       15D+1        0.00000   0.00000   0.00000   0.00000   0.00000
 188       15D-1       -0.00023   0.00010   0.00278   0.00294  -0.00034
 189       15D+2       -0.00012   0.00011   0.00189   0.00189  -0.00037
 190       15D-2        0.00000   0.00000   0.00000   0.00000   0.00000
 191       16D 0        0.00001   0.00020  -0.00001   0.00017  -0.00025
 192       16D+1        0.00000   0.00000   0.00000   0.00000   0.00000
 193       16D-1        0.00034  -0.00009  -0.00108  -0.00057  -0.00033
 194       16D+2        0.00040  -0.00001  -0.00085  -0.00034  -0.00009
 195       16D-2        0.00000   0.00000   0.00000   0.00000   0.00000
 196       17D 0        0.00009  -0.00025   0.00003  -0.00017   0.00036
 197       17D+1        0.00000   0.00000   0.00000   0.00000   0.00000
 198       17D-1        0.00116   0.00022  -0.00062  -0.00025  -0.00030
 199       17D+2        0.00062  -0.00024  -0.00044   0.00016   0.00032
 200       17D-2        0.00000   0.00000   0.00000   0.00000   0.00000
 201       18F 0       -0.00008   0.00002   0.00025   0.00031  -0.00004
 202       18F+1        0.00000   0.00000   0.00000   0.00000   0.00000
 203       18F-1       -0.00003   0.00000   0.00011   0.00013  -0.00004
 204       18F+2       -0.00001   0.00004   0.00040   0.00044  -0.00010
 205       18F-2        0.00000   0.00000   0.00000   0.00000   0.00000
 206       18F+3        0.00000   0.00000   0.00000   0.00000   0.00000
 207       18F-3       -0.00007  -0.00003  -0.00021  -0.00023   0.00007
 208       19F 0        0.00002   0.00006  -0.00032  -0.00032  -0.00025
 209       19F+1        0.00000   0.00000   0.00000   0.00000   0.00000
 210       19F-1       -0.00004  -0.00006  -0.00018  -0.00027   0.00006
 211       19F+2        0.00000  -0.00006  -0.00059  -0.00046  -0.00002
 212       19F-2        0.00000   0.00000   0.00000   0.00000   0.00000
 213       19F+3        0.00000   0.00000   0.00000   0.00000   0.00000
 214       19F-3        0.00006   0.00008   0.00034   0.00017  -0.00011
                           6         7         8         9        10
     Eigenvalues --     2.00001   2.00001   2.00001   2.00001   2.00001
   1 1   C  1S          0.00000   0.08437   0.00000   0.00000  -0.09438
   2        2S          0.00000  -0.00244   0.00000   0.00000   0.00143
   3        3S          0.00000   0.00315   0.00000   0.00000  -0.00386
   4        4S          0.00000   0.00911   0.00000   0.00000   0.00131
   5        5S          0.00000   0.00135   0.00000   0.00000  -0.00071
   6        6PX         0.00000   0.00000  -0.00073   0.00000   0.00000
   7        6PY         0.00002   0.00000   0.00000  -0.00032   0.00000
   8        6PZ         0.00000  -0.00114   0.00000   0.00000   0.00055
   9        7PX         0.00000   0.00000  -0.00006   0.00000   0.00000
  10        7PY         0.00017   0.00000   0.00000  -0.00044   0.00000
  11        7PZ         0.00000  -0.00052   0.00000   0.00000   0.00013
  12        8PX         0.00000   0.00000   0.00157   0.00000   0.00000
  13        8PY         0.00061   0.00000   0.00000  -0.00527   0.00000
  14        8PZ         0.00000   0.00320   0.00000   0.00000   0.00943
  15        9PX         0.00000   0.00000  -0.00091   0.00000   0.00000
  16        9PY         0.00257   0.00000   0.00000  -0.00119   0.00000
  17        9PZ         0.00000   0.00109   0.00000   0.00000   0.00166
  18       10D 0        0.00000  -0.00008   0.00000   0.00000  -0.00015
  19       10D+1        0.00000   0.00000  -0.00021   0.00000   0.00000
  20       10D-1       -0.00013   0.00000   0.00000  -0.00005   0.00000
  21       10D+2        0.00000   0.00007   0.00000   0.00000  -0.00006
  22       10D-2        0.00000   0.00000   0.00000   0.00000   0.00000
  23       11D 0        0.00000   0.00029   0.00000   0.00000  -0.00029
  24       11D+1        0.00000   0.00000   0.00057   0.00000   0.00000
  25       11D-1       -0.00001   0.00000   0.00000  -0.00039   0.00000
  26       11D+2        0.00000  -0.00026   0.00000   0.00000  -0.00031
  27       11D-2        0.00000   0.00000   0.00000   0.00000   0.00000
  28       12D 0        0.00000   0.00183   0.00000   0.00000   0.00016
  29       12D+1        0.00000   0.00000  -0.00136   0.00000   0.00000
  30       12D-1        0.00099   0.00000   0.00000   0.00065   0.00000
  31       12D+2        0.00000   0.00020   0.00000   0.00000   0.00041
  32       12D-2        0.00000   0.00000   0.00000   0.00000   0.00000
  33       13F 0        0.00000  -0.00013   0.00000   0.00000  -0.00002
  34       13F+1        0.00000   0.00000  -0.00013   0.00000   0.00000
  35       13F-1        0.00002   0.00000   0.00000   0.00003   0.00000
  36       13F+2        0.00000  -0.00001   0.00000   0.00000   0.00005
  37       13F-2        0.00000   0.00000   0.00000   0.00000   0.00000
  38       13F+3        0.00000   0.00000   0.00005   0.00000   0.00000
  39       13F-3       -0.00002   0.00000   0.00000  -0.00003   0.00000
  40       14F 0        0.00000   0.00002   0.00000   0.00000   0.00048
  41       14F+1        0.00000   0.00000   0.00095   0.00000   0.00000
  42       14F-1        0.00000   0.00000   0.00000  -0.00032   0.00000
  43       14F+2        0.00000  -0.00001   0.00000   0.00000  -0.00032
  44       14F-2        0.00000   0.00000   0.00000   0.00000   0.00000
  45       14F+3        0.00000   0.00000  -0.00031   0.00000   0.00000
  46       14F-3        0.00002   0.00000   0.00000   0.00022   0.00000
  47 2   S  1S          0.00000  -0.08746   0.00000   0.00000   0.01596
  48        2S          0.00000   0.30149   0.00000   0.00000  -0.05589
  49        3S          0.00000  -0.00497   0.00000   0.00000   0.00095
  50        4S          0.00000   0.02163   0.00000   0.00000  -0.00404
  51        5S          0.00000  -0.00803   0.00000   0.00000  -0.00617
  52        6S          0.00000  -0.00274   0.00000   0.00000  -0.00417
  53        7PX         0.00000   0.00000   0.72646   0.00000   0.00000
  54        7PY         0.04503   0.00000   0.00000   0.02314   0.00000
  55        7PZ         0.00000  -0.29388   0.00000   0.00000   0.04930
  56        8PX         0.00000   0.00000  -0.00923   0.00000   0.00000
  57        8PY        -0.00054   0.00000   0.00000   0.00040   0.00000
  58        8PZ         0.00000   0.00524   0.00000   0.00000  -0.00003
  59        9PX         0.00000   0.00000   0.04624   0.00000   0.00000
  60        9PY         0.00277   0.00000   0.00000   0.00136   0.00000
  61        9PZ         0.00000  -0.01907   0.00000   0.00000   0.00315
  62       10PX         0.00000   0.00000   0.00045   0.00000   0.00000
  63       10PY        -0.00063   0.00000   0.00000   0.00135   0.00000
  64       10PZ         0.00000   0.00350   0.00000   0.00000   0.00394
  65       11PX         0.00000   0.00000  -0.00015   0.00000   0.00000
  66       11PY        -0.00047   0.00000   0.00000   0.00012   0.00000
  67       11PZ         0.00000   0.00020   0.00000   0.00000   0.00052
  68       12D 0        0.00000  -0.00140   0.00000   0.00000   0.00017
  69       12D+1        0.00000   0.00000   0.00161   0.00000   0.00000
  70       12D-1        0.00022   0.00000   0.00000  -0.00046   0.00000
  71       12D+2        0.00000  -0.00010   0.00000   0.00000   0.00008
  72       12D-2        0.00000   0.00000   0.00000   0.00000   0.00000
  73       13D 0        0.00000   0.00016   0.00000   0.00000  -0.00004
  74       13D+1        0.00000   0.00000  -0.00018   0.00000   0.00000
  75       13D-1        0.00000   0.00000   0.00000   0.00008   0.00000
  76       13D+2        0.00000   0.00012   0.00000   0.00000  -0.00005
  77       13D-2        0.00000   0.00000   0.00000   0.00000   0.00000
  78       14D 0        0.00000  -0.00044   0.00000   0.00000  -0.00062
  79       14D+1        0.00000   0.00000  -0.00045   0.00000   0.00000
  80       14D-1        0.00015   0.00000   0.00000  -0.00053   0.00000
  81       14D+2        0.00000  -0.00001   0.00000   0.00000  -0.00010
  82       14D-2        0.00000   0.00000   0.00000   0.00000   0.00000
  83       15F 0        0.00000   0.00003   0.00000   0.00000  -0.00002
  84       15F+1        0.00000   0.00000  -0.00019   0.00000   0.00000
  85       15F-1       -0.00004   0.00000   0.00000   0.00006   0.00000
  86       15F+2        0.00000  -0.00007   0.00000   0.00000  -0.00005
  87       15F-2        0.00000   0.00000   0.00000   0.00000   0.00000
  88       15F+3        0.00000   0.00000   0.00011   0.00000   0.00000
  89       15F-3        0.00001   0.00000   0.00000  -0.00001   0.00000
  90       16F 0        0.00000   0.00028   0.00000   0.00000  -0.00023
  91       16F+1        0.00000   0.00000  -0.00036   0.00000   0.00000
  92       16F-1       -0.00003   0.00000   0.00000   0.00018   0.00000
  93       16F+2        0.00000   0.00010   0.00000   0.00000   0.00003
  94       16F-2        0.00000   0.00000   0.00000   0.00000   0.00000
  95       16F+3        0.00000   0.00000  -0.00009   0.00000   0.00000
  96       16F-3       -0.00004   0.00000   0.00000   0.00002   0.00000
  97 3   Br 1S         -0.08441  -0.07177   0.00000  -0.00585   0.00597
  98        2S          0.31435   0.26743   0.00000   0.02192  -0.02240
  99        3S         -0.67785  -0.57788   0.00000  -0.04761   0.04913
 100        4S         -0.00211  -0.00150   0.00000  -0.00010  -0.00007
 101        5S         -0.03285  -0.02777   0.00000  -0.00226   0.00233
 102        6S         -0.00624  -0.00572   0.00000  -0.00323   0.00342
 103        7S          0.00415   0.00079   0.00000  -0.00204   0.00205
 104        8PX         0.00000   0.00000  -0.17435   0.00000   0.00000
 105        8PY        -0.09731  -0.07880   0.00000   0.12887   0.15809
 106        8PZ        -0.03661  -0.08903   0.00000  -0.23025  -0.20934
 107        9PX         0.00000   0.00000   0.49301   0.00000   0.00000
 108        9PY         0.27368   0.21608   0.00000  -0.36361  -0.43947
 109        9PZ         0.10299   0.24776   0.00000   0.64473   0.58890
 110       10PX         0.00000   0.00000   0.00120   0.00000   0.00000
 111       10PY         0.00005  -0.00057   0.00000  -0.00134   0.00014
 112       10PZ        -0.00023   0.00010   0.00000   0.00089   0.00113
 113       11PX         0.00000   0.00000   0.02217   0.00000   0.00000
 114       11PY         0.01241   0.00976   0.00000  -0.01617  -0.01946
 115       11PZ         0.00462   0.01135   0.00000   0.02868   0.02614
 116       12PX         0.00000   0.00000   0.00154   0.00000   0.00000
 117       12PY         0.00209   0.00001   0.00000  -0.00355   0.00025
 118       12PZ         0.00100   0.00134   0.00000   0.00213   0.00325
 119       13PX         0.00000   0.00000   0.00022   0.00000   0.00000
 120       13PY         0.00042   0.00011   0.00000  -0.00011   0.00048
 121       13PZ         0.00047  -0.00007   0.00000  -0.00047  -0.00007
 122       14D 0        0.00070  -0.00154   0.00000  -0.00988  -0.00979
 123       14D+1        0.00000   0.00000  -0.00036   0.00000   0.00000
 124       14D-1        0.00630   0.00736   0.00000  -0.00406  -0.00751
 125       14D+2       -0.00278  -0.00561   0.00000  -0.00692  -0.00496
 126       14D-2        0.00000   0.00000  -0.00012   0.00000   0.00000
 127       15D 0        0.00007  -0.00010   0.00000  -0.00062  -0.00058
 128       15D+1        0.00000   0.00000  -0.00001   0.00000   0.00000
 129       15D-1        0.00033   0.00053   0.00000  -0.00025  -0.00047
 130       15D+2       -0.00011  -0.00042   0.00000  -0.00046  -0.00027
 131       15D-2        0.00000   0.00000   0.00010   0.00000   0.00000
 132       16D 0        0.00004  -0.00018   0.00000  -0.00026  -0.00042
 133       16D+1        0.00000   0.00000  -0.00015   0.00000   0.00000
 134       16D-1        0.00027  -0.00011   0.00000  -0.00019  -0.00018
 135       16D+2       -0.00011   0.00002   0.00000  -0.00012  -0.00031
 136       16D-2        0.00000   0.00000  -0.00035   0.00000   0.00000
 137       17D 0        0.00010   0.00006   0.00000   0.00006  -0.00033
 138       17D+1        0.00000   0.00000  -0.00027   0.00000   0.00000
 139       17D-1        0.00023   0.00001   0.00000  -0.00032   0.00024
 140       17D+2       -0.00031   0.00020   0.00000   0.00022  -0.00041
 141       17D-2        0.00000   0.00000  -0.00054   0.00000   0.00000
 142       18F 0       -0.00008  -0.00009   0.00000   0.00005   0.00010
 143       18F+1        0.00000   0.00000   0.00001   0.00000   0.00000
 144       18F-1        0.00001   0.00006   0.00000   0.00035   0.00032
 145       18F+2       -0.00010  -0.00014   0.00000  -0.00002   0.00002
 146       18F-2        0.00000   0.00000   0.00018   0.00000   0.00000
 147       18F+3        0.00000   0.00000  -0.00018   0.00000   0.00000
 148       18F-3       -0.00003  -0.00008   0.00000   0.00013   0.00009
 149       19F 0        0.00007   0.00002   0.00000  -0.00005  -0.00008
 150       19F+1        0.00000   0.00000  -0.00001   0.00000   0.00000
 151       19F-1        0.00004  -0.00013   0.00000  -0.00029  -0.00042
 152       19F+2        0.00002   0.00014   0.00000   0.00000   0.00002
 153       19F-2        0.00000   0.00000  -0.00021   0.00000   0.00000
 154       19F+3        0.00000   0.00000   0.00035   0.00000   0.00000
 155       19F-3       -0.00004   0.00010   0.00000  -0.00016  -0.00010
 156 4   Br 1S          0.08441  -0.07177   0.00000   0.00585   0.00597
 157        2S         -0.31435   0.26743   0.00000  -0.02192  -0.02240
 158        3S          0.67785  -0.57788   0.00000   0.04761   0.04913
 159        4S          0.00211  -0.00150   0.00000   0.00010  -0.00007
 160        5S          0.03285  -0.02777   0.00000   0.00226   0.00233
 161        6S          0.00624  -0.00572   0.00000   0.00323   0.00342
 162        7S         -0.00415   0.00079   0.00000   0.00204   0.00205
 163        8PX         0.00000   0.00000  -0.17435   0.00000   0.00000
 164        8PY        -0.09731   0.07880   0.00000   0.12887  -0.15809
 165        8PZ         0.03661  -0.08903   0.00000   0.23025  -0.20934
 166        9PX         0.00000   0.00000   0.49301   0.00000   0.00000
 167        9PY         0.27368  -0.21608   0.00000  -0.36361   0.43947
 168        9PZ        -0.10299   0.24776   0.00000  -0.64473   0.58890
 169       10PX         0.00000   0.00000   0.00120   0.00000   0.00000
 170       10PY         0.00005   0.00057   0.00000  -0.00134  -0.00014
 171       10PZ         0.00023   0.00010   0.00000  -0.00089   0.00113
 172       11PX         0.00000   0.00000   0.02217   0.00000   0.00000
 173       11PY         0.01241  -0.00976   0.00000  -0.01617   0.01946
 174       11PZ        -0.00462   0.01135   0.00000  -0.02868   0.02614
 175       12PX         0.00000   0.00000   0.00154   0.00000   0.00000
 176       12PY         0.00209  -0.00001   0.00000  -0.00355  -0.00025
 177       12PZ        -0.00100   0.00134   0.00000  -0.00213   0.00325
 178       13PX         0.00000   0.00000   0.00022   0.00000   0.00000
 179       13PY         0.00042  -0.00011   0.00000  -0.00011  -0.00048
 180       13PZ        -0.00047  -0.00007   0.00000   0.00047  -0.00007
 181       14D 0       -0.00070  -0.00154   0.00000   0.00988  -0.00979
 182       14D+1        0.00000   0.00000  -0.00036   0.00000   0.00000
 183       14D-1        0.00630  -0.00736   0.00000  -0.00406   0.00751
 184       14D+2        0.00278  -0.00561   0.00000   0.00692  -0.00496
 185       14D-2        0.00000   0.00000   0.00012   0.00000   0.00000
 186       15D 0       -0.00007  -0.00010   0.00000   0.00062  -0.00058
 187       15D+1        0.00000   0.00000  -0.00001   0.00000   0.00000
 188       15D-1        0.00033  -0.00053   0.00000  -0.00025   0.00047
 189       15D+2        0.00011  -0.00042   0.00000   0.00046  -0.00027
 190       15D-2        0.00000   0.00000  -0.00010   0.00000   0.00000
 191       16D 0       -0.00004  -0.00018   0.00000   0.00026  -0.00042
 192       16D+1        0.00000   0.00000  -0.00015   0.00000   0.00000
 193       16D-1        0.00027   0.00011   0.00000  -0.00019   0.00018
 194       16D+2        0.00011   0.00002   0.00000   0.00012  -0.00031
 195       16D-2        0.00000   0.00000   0.00035   0.00000   0.00000
 196       17D 0       -0.00010   0.00006   0.00000  -0.00006  -0.00033
 197       17D+1        0.00000   0.00000  -0.00027   0.00000   0.00000
 198       17D-1        0.00023  -0.00001   0.00000  -0.00032  -0.00024
 199       17D+2        0.00031   0.00020   0.00000  -0.00022  -0.00041
 200       17D-2        0.00000   0.00000   0.00054   0.00000   0.00000
 201       18F 0        0.00008  -0.00009   0.00000  -0.00005   0.00010
 202       18F+1        0.00000   0.00000   0.00001   0.00000   0.00000
 203       18F-1        0.00001  -0.00006   0.00000   0.00035  -0.00032
 204       18F+2        0.00010  -0.00014   0.00000   0.00002   0.00002
 205       18F-2        0.00000   0.00000  -0.00018   0.00000   0.00000
 206       18F+3        0.00000   0.00000  -0.00018   0.00000   0.00000
 207       18F-3       -0.00003   0.00008   0.00000   0.00013  -0.00009
 208       19F 0       -0.00007   0.00002   0.00000   0.00005  -0.00008
 209       19F+1        0.00000   0.00000  -0.00001   0.00000   0.00000
 210       19F-1        0.00004   0.00013   0.00000  -0.00029   0.00042
 211       19F+2       -0.00002   0.00014   0.00000   0.00000   0.00002
 212       19F-2        0.00000   0.00000   0.00021   0.00000   0.00000
 213       19F+3        0.00000   0.00000   0.00035   0.00000   0.00000
 214       19F-3       -0.00004  -0.00010   0.00000  -0.00016   0.00010
                          11        12        13        14        15
     Eigenvalues --     2.00001   2.00000   2.00000   2.00000   2.00000
   1 1   C  1S          0.00000   0.00000   0.77005  -0.00107   0.00000
   2        2S          0.00000   0.00000  -0.00782   0.00001   0.00000
   3        3S          0.00000   0.00000   0.03229  -0.00005   0.00000
   4        4S          0.00000   0.00000  -0.01010  -0.00017   0.00000
   5        5S          0.00000   0.00000  -0.00549   0.00007   0.00000
   6        6PX         0.00000  -0.00154   0.00000   0.00000   0.00000
   7        6PY         0.00000   0.00000   0.00000   0.00000   0.00000
   8        6PZ         0.00000   0.00000  -0.00058   0.00001   0.00000
   9        7PX         0.00000  -0.00173   0.00000   0.00000   0.00000
  10        7PY         0.00000   0.00000   0.00000   0.00000  -0.00001
  11        7PZ         0.00000   0.00000   0.00165   0.00002   0.00000
  12        8PX         0.00000  -0.00155   0.00000   0.00000   0.00000
  13        8PY         0.00000   0.00000   0.00000   0.00000   0.00033
  14        8PZ         0.00000   0.00000  -0.00401  -0.00102   0.00000
  15        9PX         0.00000  -0.00048   0.00000   0.00000   0.00000
  16        9PY         0.00000   0.00000   0.00000   0.00000   0.00012
  17        9PZ         0.00000   0.00000   0.00069  -0.00018   0.00000
  18       10D 0        0.00000   0.00000   0.00030   0.00000   0.00000
  19       10D+1        0.00000  -0.00008   0.00000   0.00000   0.00000
  20       10D-1        0.00000   0.00000   0.00000   0.00000   0.00000
  21       10D+2        0.00000   0.00000  -0.00027   0.00000   0.00000
  22       10D-2       -0.00009   0.00000   0.00000   0.00000   0.00000
  23       11D 0        0.00000   0.00000  -0.00032   0.00001   0.00000
  24       11D+1        0.00000   0.00108   0.00000   0.00000   0.00000
  25       11D-1        0.00000   0.00000   0.00000   0.00000   0.00002
  26       11D+2        0.00000   0.00000   0.00151   0.00001   0.00000
  27       11D-2       -0.00066   0.00000   0.00000   0.00000   0.00000
  28       12D 0        0.00000   0.00000  -0.00405  -0.00010   0.00000
  29       12D+1        0.00000  -0.00147   0.00000   0.00000   0.00000
  30       12D-1        0.00000   0.00000   0.00000   0.00000  -0.00001
  31       12D+2        0.00000   0.00000  -0.00150  -0.00008   0.00000
  32       12D-2        0.00006   0.00000   0.00000   0.00000   0.00000
  33       13F 0        0.00000   0.00000   0.00034   0.00001   0.00000
  34       13F+1        0.00000  -0.00008   0.00000   0.00000   0.00000
  35       13F-1        0.00000   0.00000   0.00000   0.00000   0.00001
  36       13F+2        0.00000   0.00000  -0.00007  -0.00001   0.00000
  37       13F-2        0.00000   0.00000   0.00000   0.00000   0.00000
  38       13F+3        0.00000   0.00001   0.00000   0.00000   0.00000
  39       13F-3        0.00000   0.00000   0.00000   0.00000   0.00000
  40       14F 0        0.00000   0.00000  -0.00109  -0.00004   0.00000
  41       14F+1        0.00000   0.00051   0.00000   0.00000   0.00000
  42       14F-1        0.00000   0.00000   0.00000   0.00000  -0.00006
  43       14F+2        0.00000   0.00000  -0.00087   0.00005   0.00000
  44       14F-2        0.00019   0.00000   0.00000   0.00000   0.00000
  45       14F+3        0.00000   0.00019   0.00000   0.00000   0.00000
  46       14F-3        0.00000   0.00000   0.00000   0.00000  -0.00004
  47 2   S  1S          0.00000   0.00000   0.06081  -0.00227   0.00000
  48        2S          0.00000   0.00000  -0.21164  -0.00005   0.00000
  49        3S          0.00000   0.00000   0.00232  -0.00003   0.00000
  50        4S          0.00000   0.00000  -0.01560   0.00000   0.00000
  51        5S          0.00000   0.00000   0.00958   0.00080   0.00000
  52        6S          0.00000   0.00000   0.00017   0.00047   0.00000
  53        7PX         0.00000   0.64582   0.00000   0.00000   0.00000
  54        7PY         0.00000   0.00000   0.00000   0.00000  -0.00007
  55        7PZ         0.00000   0.00000   0.47172  -0.00017   0.00000
  56        8PX         0.00000  -0.00703   0.00000   0.00000   0.00000
  57        8PY         0.00000   0.00000   0.00000   0.00000   0.00002
  58        8PZ         0.00000   0.00000  -0.00545  -0.00007   0.00000
  59        9PX         0.00000   0.04158   0.00000   0.00000   0.00000
  60        9PY         0.00000   0.00000   0.00000   0.00000   0.00000
  61        9PZ         0.00000   0.00000   0.03107   0.00000   0.00000
  62       10PX         0.00000   0.00271   0.00000   0.00000   0.00000
  63       10PY         0.00000   0.00000   0.00000   0.00000  -0.00008
  64       10PZ         0.00000   0.00000  -0.00138  -0.00046   0.00000
  65       11PX         0.00000  -0.00024   0.00000   0.00000   0.00000
  66       11PY         0.00000   0.00000   0.00000   0.00000  -0.00001
  67       11PZ         0.00000   0.00000  -0.00003  -0.00005   0.00000
  68       12D 0        0.00000   0.00000   0.00094   0.00001   0.00000
  69       12D+1        0.00000   0.00123   0.00000   0.00000   0.00000
  70       12D-1        0.00000   0.00000   0.00000   0.00000   0.00001
  71       12D+2        0.00000   0.00000   0.00029  -0.00002   0.00000
  72       12D-2       -0.00004   0.00000   0.00000   0.00000   0.00000
  73       13D 0        0.00000   0.00000  -0.00055   0.00000   0.00000
  74       13D+1        0.00000  -0.00006   0.00000   0.00000   0.00000
  75       13D-1        0.00000   0.00000   0.00000   0.00000  -0.00001
  76       13D+2        0.00000   0.00000  -0.00010   0.00000   0.00000
  77       13D-2       -0.00003   0.00000   0.00000   0.00000   0.00000
  78       14D 0        0.00000   0.00000  -0.00002   0.00007   0.00000
  79       14D+1        0.00000  -0.00110   0.00000   0.00000   0.00000
  80       14D-1        0.00000   0.00000   0.00000   0.00000   0.00004
  81       14D+2        0.00000   0.00000   0.00055   0.00001   0.00000
  82       14D-2        0.00000   0.00000   0.00000   0.00000   0.00000
  83       15F 0        0.00000   0.00000   0.00040   0.00000   0.00000
  84       15F+1        0.00000  -0.00021   0.00000   0.00000   0.00000
  85       15F-1        0.00000   0.00000   0.00000   0.00000   0.00000
  86       15F+2        0.00000   0.00000   0.00011   0.00001   0.00000
  87       15F-2        0.00000   0.00000   0.00000   0.00000   0.00000
  88       15F+3        0.00000   0.00009   0.00000   0.00000   0.00000
  89       15F-3        0.00000   0.00000   0.00000   0.00000   0.00000
  90       16F 0        0.00000   0.00000  -0.00037   0.00002   0.00000
  91       16F+1        0.00000  -0.00012   0.00000   0.00000   0.00000
  92       16F-1        0.00000   0.00000   0.00000   0.00000  -0.00001
  93       16F+2        0.00000   0.00000  -0.00045   0.00000   0.00000
  94       16F-2        0.00001   0.00000   0.00000   0.00000   0.00000
  95       16F+3        0.00000  -0.00012   0.00000   0.00000   0.00000
  96       16F-3        0.00000   0.00000   0.00000   0.00000   0.00000
  97 3   Br 1S          0.00000   0.00000   0.00144  -0.00119   0.01211
  98        2S          0.00000   0.00000  -0.00411   0.00166  -0.03733
  99        3S          0.00000   0.00000  -0.00668  -0.00008  -0.00347
 100        4S          0.00000   0.00000   0.00065   0.00003   0.00000
 101        5S          0.00000   0.00000  -0.00050   0.00000  -0.00011
 102        6S          0.00000   0.00000   0.00086  -0.00036   0.00014
 103        7S          0.00000   0.00000   0.00248  -0.00023   0.00023
 104        8PX        -0.26237   0.19716   0.00000   0.00000   0.00000
 105        8PY         0.00000   0.00000  -0.08211  -0.40846  -0.50161
 106        8PZ         0.00000   0.00000  -0.07215   0.58349   0.50411
 107        9PX         0.74196  -0.55497   0.00000   0.00000   0.00000
 108        9PY         0.00000   0.00000   0.16775   0.00695   0.00679
 109        9PZ         0.00000   0.00000   0.16220  -0.01230  -0.01241
 110       10PX         0.00125   0.00030   0.00000   0.00000   0.00000
 111       10PY         0.00000   0.00000  -0.00025  -0.00024  -0.00021
 112       10PZ         0.00000   0.00000  -0.00001   0.00024   0.00024
 113       11PX         0.03313  -0.02418   0.00000   0.00000   0.00000
 114       11PY         0.00000   0.00000   0.00692   0.00061   0.00067
 115       11PZ         0.00000   0.00000   0.00662  -0.00095  -0.00089
 116       12PX         0.00382  -0.00248   0.00000   0.00000   0.00000
 117       12PY         0.00000   0.00000   0.00193  -0.00017   0.00018
 118       12PZ         0.00000   0.00000  -0.00013  -0.00017   0.00001
 119       13PX        -0.00031   0.00038   0.00000   0.00000   0.00000
 120       13PY         0.00000   0.00000   0.00037  -0.00005   0.00002
 121       13PZ         0.00000   0.00000   0.00018   0.00001   0.00005
 122       14D 0        0.00000   0.00000  -0.00135   0.00040   0.00039
 123       14D+1       -0.00057   0.00022   0.00000   0.00000   0.00000
 124       14D-1        0.00000   0.00000   0.01055   0.00020   0.00027
 125       14D+2        0.00000   0.00000  -0.00735   0.00024   0.00019
 126       14D-2        0.00017  -0.00031   0.00000   0.00000   0.00000
 127       15D 0        0.00000   0.00000  -0.00010   0.00001   0.00001
 128       15D+1        0.00004  -0.00010   0.00000   0.00000   0.00000
 129       15D-1        0.00000   0.00000   0.00092   0.00000   0.00002
 130       15D+2        0.00000   0.00000  -0.00065   0.00001   0.00000
 131       15D-2        0.00012  -0.00016   0.00000   0.00000   0.00000
 132       16D 0        0.00000   0.00000   0.00013   0.00006   0.00006
 133       16D+1       -0.00011   0.00012   0.00000   0.00000   0.00000
 134       16D-1        0.00000   0.00000   0.00099   0.00002   0.00002
 135       16D+2        0.00000   0.00000  -0.00042   0.00006   0.00003
 136       16D-2       -0.00019  -0.00001   0.00000   0.00000   0.00000
 137       17D 0        0.00000   0.00000  -0.00024   0.00001  -0.00002
 138       17D+1        0.00007  -0.00011   0.00000   0.00000   0.00000
 139       17D-1        0.00000   0.00000   0.00011  -0.00004   0.00002
 140       17D+2        0.00000   0.00000  -0.00052   0.00003  -0.00004
 141       17D-2        0.00013  -0.00036   0.00000   0.00000   0.00000
 142       18F 0        0.00000   0.00000  -0.00012   0.00000   0.00000
 143       18F+1        0.00002  -0.00002   0.00000   0.00000   0.00000
 144       18F-1        0.00000   0.00000   0.00011  -0.00001   0.00000
 145       18F+2        0.00000   0.00000  -0.00019   0.00000   0.00000
 146       18F-2        0.00023  -0.00018   0.00000   0.00000   0.00000
 147       18F+3       -0.00018   0.00011   0.00000   0.00000   0.00000
 148       18F-3        0.00000   0.00000  -0.00007   0.00000   0.00000
 149       19F 0        0.00000   0.00000  -0.00007   0.00001   0.00001
 150       19F+1       -0.00002   0.00006   0.00000   0.00000   0.00000
 151       19F-1        0.00000   0.00000   0.00021   0.00003   0.00002
 152       19F+2        0.00000   0.00000  -0.00022   0.00000   0.00001
 153       19F-2       -0.00018   0.00016   0.00000   0.00000   0.00000
 154       19F+3        0.00014   0.00002   0.00000   0.00000   0.00000
 155       19F-3        0.00000   0.00000  -0.00006   0.00001   0.00001
 156 4   Br 1S          0.00000   0.00000   0.00144  -0.00119  -0.01210
 157        2S          0.00000   0.00000  -0.00411   0.00165   0.03733
 158        3S          0.00000   0.00000  -0.00668  -0.00008   0.00347
 159        4S          0.00000   0.00000   0.00065   0.00003   0.00000
 160        5S          0.00000   0.00000  -0.00050   0.00000   0.00011
 161        6S          0.00000   0.00000   0.00086  -0.00036  -0.00014
 162        7S          0.00000   0.00000   0.00248  -0.00023  -0.00023
 163        8PX         0.26237   0.19716   0.00000   0.00000   0.00000
 164        8PY         0.00000   0.00000   0.08211   0.40850  -0.50158
 165        8PZ         0.00000   0.00000  -0.07215   0.58353  -0.50407
 166        9PX        -0.74196  -0.55497   0.00000   0.00000   0.00000
 167        9PY         0.00000   0.00000  -0.16775  -0.00695   0.00679
 168        9PZ         0.00000   0.00000   0.16220  -0.01230   0.01240
 169       10PX        -0.00125   0.00030   0.00000   0.00000   0.00000
 170       10PY         0.00000   0.00000   0.00025   0.00024  -0.00021
 171       10PZ         0.00000   0.00000  -0.00001   0.00024  -0.00024
 172       11PX        -0.03313  -0.02418   0.00000   0.00000   0.00000
 173       11PY         0.00000   0.00000  -0.00692  -0.00061   0.00067
 174       11PZ         0.00000   0.00000   0.00662  -0.00095   0.00089
 175       12PX        -0.00382  -0.00248   0.00000   0.00000   0.00000
 176       12PY         0.00000   0.00000  -0.00193   0.00017   0.00018
 177       12PZ         0.00000   0.00000  -0.00013  -0.00017  -0.00001
 178       13PX         0.00031   0.00038   0.00000   0.00000   0.00000
 179       13PY         0.00000   0.00000  -0.00037   0.00005   0.00002
 180       13PZ         0.00000   0.00000   0.00018   0.00001  -0.00005
 181       14D 0        0.00000   0.00000  -0.00135   0.00040  -0.00039
 182       14D+1        0.00057   0.00022   0.00000   0.00000   0.00000
 183       14D-1        0.00000   0.00000  -0.01055  -0.00020   0.00027
 184       14D+2        0.00000   0.00000  -0.00735   0.00024  -0.00019
 185       14D-2        0.00017   0.00031   0.00000   0.00000   0.00000
 186       15D 0        0.00000   0.00000  -0.00010   0.00001  -0.00001
 187       15D+1       -0.00004  -0.00010   0.00000   0.00000   0.00000
 188       15D-1        0.00000   0.00000  -0.00092   0.00000   0.00002
 189       15D+2        0.00000   0.00000  -0.00065   0.00001   0.00000
 190       15D-2        0.00012   0.00016   0.00000   0.00000   0.00000
 191       16D 0        0.00000   0.00000   0.00013   0.00006  -0.00006
 192       16D+1        0.00011   0.00012   0.00000   0.00000   0.00000
 193       16D-1        0.00000   0.00000  -0.00099  -0.00002   0.00002
 194       16D+2        0.00000   0.00000  -0.00042   0.00006  -0.00003
 195       16D-2       -0.00019   0.00001   0.00000   0.00000   0.00000
 196       17D 0        0.00000   0.00000  -0.00024   0.00001   0.00002
 197       17D+1       -0.00007  -0.00011   0.00000   0.00000   0.00000
 198       17D-1        0.00000   0.00000  -0.00011   0.00004   0.00002
 199       17D+2        0.00000   0.00000  -0.00052   0.00003   0.00004
 200       17D-2        0.00013   0.00036   0.00000   0.00000   0.00000
 201       18F 0        0.00000   0.00000  -0.00012   0.00000   0.00000
 202       18F+1       -0.00002  -0.00002   0.00000   0.00000   0.00000
 203       18F-1        0.00000   0.00000  -0.00011   0.00001   0.00000
 204       18F+2        0.00000   0.00000  -0.00019   0.00000   0.00000
 205       18F-2        0.00023   0.00018   0.00000   0.00000   0.00000
 206       18F+3        0.00018   0.00011   0.00000   0.00000   0.00000
 207       18F-3        0.00000   0.00000   0.00007   0.00000   0.00000
 208       19F 0        0.00000   0.00000  -0.00007   0.00001  -0.00001
 209       19F+1        0.00002   0.00006   0.00000   0.00000   0.00000
 210       19F-1        0.00000   0.00000  -0.00021  -0.00003   0.00002
 211       19F+2        0.00000   0.00000  -0.00022   0.00000  -0.00001
 212       19F-2       -0.00018  -0.00016   0.00000   0.00000   0.00000
 213       19F+3       -0.00014   0.00002   0.00000   0.00000   0.00000
 214       19F-3        0.00000   0.00000   0.00006  -0.00001   0.00001
                          16        17        18        19        20
     Eigenvalues --     2.00000   2.00000   2.00000   2.00000   2.00000
   1 1   C  1S          0.00000   0.00000   0.00000   0.02385   0.00000
   2        2S          0.00000   0.00000   0.00000  -0.00022   0.00000
   3        3S          0.00000   0.00000   0.00000   0.00105   0.00000
   4        4S          0.00000   0.00000   0.00000  -0.00137   0.00000
   5        5S          0.00000   0.00000   0.00000  -0.00064   0.00000
   6        6PX         0.00000   0.00001   0.00000   0.00000   0.00000
   7        6PY        -0.00003   0.00000   0.00000   0.00000   0.00000
   8        6PZ         0.00000   0.00000   0.00000  -0.00004   0.00000
   9        7PX         0.00000  -0.00002   0.00000   0.00000   0.00000
  10        7PY         0.00006   0.00000   0.00000   0.00000  -0.00002
  11        7PZ         0.00000   0.00000   0.00000   0.00007   0.00000
  12        8PX         0.00000  -0.00015   0.00000   0.00000   0.00000
  13        8PY         0.00061   0.00000   0.00000   0.00000  -0.00002
  14        8PZ         0.00000   0.00000   0.00000   0.00053   0.00000
  15        9PX         0.00000   0.00003   0.00000   0.00000   0.00000
  16        9PY         0.00007   0.00000   0.00000   0.00000   0.00001
  17        9PZ         0.00000   0.00000   0.00000   0.00013   0.00000
  18       10D 0        0.00000   0.00000   0.00000   0.00001   0.00000
  19       10D+1        0.00000   0.00000   0.00000   0.00000   0.00000
  20       10D-1        0.00000   0.00000   0.00000   0.00000   0.00000
  21       10D+2        0.00000   0.00000   0.00000  -0.00001   0.00000
  22       10D-2        0.00000   0.00000  -0.00001   0.00000   0.00000
  23       11D 0        0.00000   0.00000   0.00000  -0.00003   0.00000
  24       11D+1        0.00000   0.00002   0.00000   0.00000   0.00000
  25       11D-1       -0.00008   0.00000   0.00000   0.00000   0.00001
  26       11D+2        0.00000   0.00000   0.00000   0.00014   0.00000
  27       11D-2        0.00000   0.00000   0.00004   0.00000   0.00000
  28       12D 0        0.00000   0.00000   0.00000   0.00011   0.00000
  29       12D+1        0.00000  -0.00004   0.00000   0.00000   0.00000
  30       12D-1       -0.00042   0.00000   0.00000   0.00000   0.00005
  31       12D+2        0.00000   0.00000   0.00000   0.00021   0.00000
  32       12D-2        0.00000   0.00000  -0.00004   0.00000   0.00000
  33       13F 0        0.00000   0.00000   0.00000   0.00000   0.00000
  34       13F+1        0.00000   0.00000   0.00000   0.00000   0.00000
  35       13F-1        0.00000   0.00000   0.00000   0.00000   0.00000
  36       13F+2        0.00000   0.00000   0.00000   0.00000   0.00000
  37       13F-2        0.00000   0.00000   0.00000   0.00000   0.00000
  38       13F+3        0.00000  -0.00001   0.00000   0.00000   0.00000
  39       13F-3        0.00001   0.00000   0.00000   0.00000   0.00000
  40       14F 0        0.00000   0.00000   0.00000  -0.00001   0.00000
  41       14F+1        0.00000  -0.00002   0.00000   0.00000   0.00000
  42       14F-1       -0.00005   0.00000   0.00000   0.00000   0.00001
  43       14F+2        0.00000   0.00000   0.00000  -0.00004   0.00000
  44       14F-2        0.00000   0.00000  -0.00003   0.00000   0.00000
  45       14F+3        0.00000   0.00004   0.00000   0.00000   0.00000
  46       14F-3       -0.00004   0.00000   0.00000   0.00000   0.00001
  47 2   S  1S          0.00000   0.00000   0.00000  -0.03430   0.00000
  48        2S          0.00000   0.00000   0.00000  -0.00604   0.00000
  49        3S          0.00000   0.00000   0.00000   0.00002   0.00000
  50        4S          0.00000   0.00000   0.00000  -0.00043   0.00000
  51        5S          0.00000   0.00000   0.00000   0.00003   0.00000
  52        6S          0.00000   0.00000   0.00000   0.00003   0.00000
  53        7PX         0.00000  -0.00082   0.00000   0.00000   0.00000
  54        7PY         0.00056   0.00000   0.00000   0.00000   0.00004
  55        7PZ         0.00000   0.00000   0.00000   0.01331   0.00000
  56        8PX         0.00000   0.00001   0.00000   0.00000   0.00000
  57        8PY         0.00000   0.00000   0.00000   0.00000  -0.00001
  58        8PZ         0.00000   0.00000   0.00000  -0.00016   0.00000
  59        9PX         0.00000  -0.00005   0.00000   0.00000   0.00000
  60        9PY         0.00004   0.00000   0.00000   0.00000   0.00000
  61        9PZ         0.00000   0.00000   0.00000   0.00089   0.00000
  62       10PX         0.00000   0.00010   0.00000   0.00000   0.00000
  63       10PY         0.00018   0.00000   0.00000   0.00000  -0.00001
  64       10PZ         0.00000   0.00000   0.00000  -0.00006   0.00000
  65       11PX         0.00000  -0.00001   0.00000   0.00000   0.00000
  66       11PY         0.00000   0.00000   0.00000   0.00000   0.00000
  67       11PZ         0.00000   0.00000   0.00000  -0.00003   0.00000
  68       12D 0        0.00000   0.00000   0.00000   0.00007   0.00000
  69       12D+1        0.00000  -0.00002   0.00000   0.00000   0.00000
  70       12D-1       -0.00001   0.00000   0.00000   0.00000   0.00000
  71       12D+2        0.00000   0.00000   0.00000  -0.00001   0.00000
  72       12D-2        0.00000   0.00000   0.00001   0.00000   0.00000
  73       13D 0        0.00000   0.00000   0.00000  -0.00002   0.00000
  74       13D+1        0.00000   0.00000   0.00000   0.00000   0.00000
  75       13D-1        0.00000   0.00000   0.00000   0.00000   0.00000
  76       13D+2        0.00000   0.00000   0.00000   0.00000   0.00000
  77       13D-2        0.00000   0.00000   0.00000   0.00000   0.00000
  78       14D 0        0.00000   0.00000   0.00000   0.00003   0.00000
  79       14D+1        0.00000  -0.00005   0.00000   0.00000   0.00000
  80       14D-1       -0.00004   0.00000   0.00000   0.00000   0.00000
  81       14D+2        0.00000   0.00000   0.00000  -0.00002   0.00000
  82       14D-2        0.00000   0.00000   0.00001   0.00000   0.00000
  83       15F 0        0.00000   0.00000   0.00000   0.00001   0.00000
  84       15F+1        0.00000   0.00000   0.00000   0.00000   0.00000
  85       15F-1        0.00000   0.00000   0.00000   0.00000   0.00000
  86       15F+2        0.00000   0.00000   0.00000   0.00001   0.00000
  87       15F-2        0.00000   0.00000   0.00000   0.00000   0.00000
  88       15F+3        0.00000   0.00000   0.00000   0.00000   0.00000
  89       15F-3        0.00000   0.00000   0.00000   0.00000   0.00000
  90       16F 0        0.00000   0.00000   0.00000  -0.00002   0.00000
  91       16F+1        0.00000   0.00002   0.00000   0.00000   0.00000
  92       16F-1        0.00000   0.00000   0.00000   0.00000   0.00000
  93       16F+2        0.00000   0.00000   0.00000   0.00000   0.00000
  94       16F-2        0.00000   0.00000  -0.00001   0.00000   0.00000
  95       16F+3        0.00000  -0.00001   0.00000   0.00000   0.00000
  96       16F-3        0.00000   0.00000   0.00000   0.00000   0.00000
  97 3   Br 1S         -0.05063   0.00000   0.00000   0.00605  -0.21873
  98        2S          0.15828   0.00000   0.00000  -0.02021   0.70917
  99        3S          0.01475   0.00000   0.00000   0.00680   0.03029
 100        4S         -0.00014   0.00000   0.00000  -0.00008  -0.00020
 101        5S          0.00044   0.00000   0.00000   0.00022   0.00071
 102        6S          0.00076   0.00000   0.00000   0.00078   0.00003
 103        7S          0.00008   0.00000   0.00000   0.00029   0.00003
 104        8PX         0.00000   0.71303   0.71306   0.00000   0.00000
 105        8PY         0.47992   0.00000   0.00000   0.57485  -0.13779
 106        8PZ         0.49309   0.00000   0.00000   0.40322  -0.08626
 107        9PX         0.00000  -0.01583  -0.01656   0.00000   0.00000
 108        9PY         0.00507   0.00000   0.00000   0.00883   0.00236
 109        9PZ        -0.00005   0.00000   0.00000   0.00575   0.00145
 110       10PX         0.00000   0.00028   0.00029   0.00000   0.00000
 111       10PY         0.00026   0.00000   0.00000   0.00035  -0.00007
 112       10PZ         0.00029   0.00000   0.00000   0.00023  -0.00005
 113       11PX         0.00000  -0.00121  -0.00124   0.00000   0.00000
 114       11PY        -0.00022   0.00000   0.00000  -0.00017   0.00022
 115       11PZ        -0.00043   0.00000   0.00000  -0.00013   0.00014
 116       12PX         0.00000  -0.00008  -0.00013   0.00000   0.00000
 117       12PY         0.00024   0.00000   0.00000   0.00025   0.00005
 118       12PZ         0.00008   0.00000   0.00000   0.00024   0.00003
 119       13PX         0.00000   0.00001   0.00003   0.00000   0.00000
 120       13PY         0.00000   0.00000   0.00000   0.00004   0.00000
 121       13PZ         0.00001   0.00000   0.00000   0.00001   0.00000
 122       14D 0        0.00007   0.00000   0.00000  -0.00001  -0.00003
 123       14D+1        0.00000   0.00003   0.00003   0.00000   0.00000
 124       14D-1       -0.00022   0.00000   0.00000   0.00008   0.00001
 125       14D+2        0.00024   0.00000   0.00000  -0.00003   0.00006
 126       14D-2        0.00000  -0.00001  -0.00002   0.00000   0.00000
 127       15D 0        0.00000   0.00000   0.00000   0.00000   0.00000
 128       15D+1        0.00000  -0.00001  -0.00001   0.00000   0.00000
 129       15D-1       -0.00004   0.00000   0.00000  -0.00002   0.00000
 130       15D+2        0.00003   0.00000   0.00000   0.00002   0.00000
 131       15D-2        0.00000  -0.00002  -0.00002   0.00000   0.00000
 132       16D 0        0.00003   0.00000   0.00000  -0.00001  -0.00001
 133       16D+1        0.00000   0.00003   0.00002   0.00000   0.00000
 134       16D-1        0.00010   0.00000   0.00000   0.00014  -0.00001
 135       16D+2       -0.00005   0.00000   0.00000  -0.00011   0.00000
 136       16D-2        0.00000   0.00004   0.00004   0.00000   0.00000
 137       17D 0       -0.00003   0.00000   0.00000   0.00001   0.00000
 138       17D+1        0.00000   0.00000  -0.00002   0.00000   0.00000
 139       17D-1        0.00003   0.00000   0.00000   0.00006   0.00001
 140       17D+2       -0.00001   0.00000   0.00000  -0.00003  -0.00002
 141       17D-2        0.00000   0.00000  -0.00002   0.00000   0.00000
 142       18F 0        0.00000   0.00000   0.00000   0.00000   0.00000
 143       18F+1        0.00000   0.00000   0.00000   0.00000   0.00000
 144       18F-1        0.00001   0.00000   0.00000   0.00000   0.00000
 145       18F+2       -0.00001   0.00000   0.00000  -0.00001   0.00000
 146       18F-2        0.00000  -0.00001   0.00000   0.00000   0.00000
 147       18F+3        0.00000   0.00000   0.00000   0.00000   0.00000
 148       18F-3        0.00000   0.00000   0.00000  -0.00001   0.00000
 149       19F 0       -0.00001   0.00000   0.00000  -0.00002   0.00000
 150       19F+1        0.00000   0.00001   0.00000   0.00000   0.00000
 151       19F-1        0.00002   0.00000   0.00000   0.00001   0.00000
 152       19F+2       -0.00002   0.00000   0.00000  -0.00003   0.00000
 153       19F-2        0.00000   0.00002   0.00001   0.00000   0.00000
 154       19F+3        0.00000  -0.00002  -0.00001   0.00000   0.00000
 155       19F-3        0.00000   0.00000   0.00000  -0.00002   0.00000
 156 4   Br 1S          0.05063   0.00000   0.00000   0.00606   0.21874
 157        2S         -0.15828   0.00000   0.00000  -0.02022  -0.70920
 158        3S         -0.01475   0.00000   0.00000   0.00680  -0.03029
 159        4S          0.00014   0.00000   0.00000  -0.00008   0.00020
 160        5S         -0.00044   0.00000   0.00000   0.00022  -0.00071
 161        6S         -0.00076   0.00000   0.00000   0.00078  -0.00003
 162        7S         -0.00008   0.00000   0.00000   0.00029  -0.00003
 163        8PX         0.00000   0.71280  -0.71329   0.00000   0.00000
 164        8PY         0.47992   0.00000   0.00000  -0.57485  -0.13778
 165        8PZ        -0.49309   0.00000   0.00000   0.40322   0.08625
 166        9PX         0.00000  -0.01582   0.01657   0.00000   0.00000
 167        9PY         0.00507   0.00000   0.00000  -0.00883   0.00236
 168        9PZ         0.00005   0.00000   0.00000   0.00575  -0.00145
 169       10PX         0.00000   0.00028  -0.00029   0.00000   0.00000
 170       10PY         0.00026   0.00000   0.00000  -0.00035  -0.00007
 171       10PZ        -0.00029   0.00000   0.00000   0.00023   0.00005
 172       11PX         0.00000  -0.00121   0.00124   0.00000   0.00000
 173       11PY        -0.00022   0.00000   0.00000   0.00017   0.00022
 174       11PZ         0.00043   0.00000   0.00000  -0.00013  -0.00014
 175       12PX         0.00000  -0.00008   0.00013   0.00000   0.00000
 176       12PY         0.00024   0.00000   0.00000  -0.00025   0.00005
 177       12PZ        -0.00008   0.00000   0.00000   0.00024  -0.00003
 178       13PX         0.00000   0.00001  -0.00003   0.00000   0.00000
 179       13PY         0.00000   0.00000   0.00000  -0.00004   0.00000
 180       13PZ        -0.00001   0.00000   0.00000   0.00001   0.00000
 181       14D 0       -0.00007   0.00000   0.00000  -0.00001   0.00003
 182       14D+1        0.00000   0.00003  -0.00003   0.00000   0.00000
 183       14D-1       -0.00022   0.00000   0.00000  -0.00008   0.00001
 184       14D+2       -0.00024   0.00000   0.00000  -0.00003  -0.00006
 185       14D-2        0.00000   0.00001  -0.00002   0.00000   0.00000
 186       15D 0        0.00000   0.00000   0.00000   0.00000   0.00000
 187       15D+1        0.00000  -0.00001   0.00001   0.00000   0.00000
[...]
 169       10PX         0.00000   0.00000   0.00000   0.00000  -0.10240
 170       10PY         0.26355  -0.47310   0.00169   0.14894   0.00000
 171       10PZ        -0.16745   0.18271  -0.11497   0.04512   0.00000
 172       11PX         0.00000   0.00000   0.00000   0.00000   0.03548
 173       11PY         0.01250   0.00137   0.05300  -0.00052   0.00000
 174       11PZ        -0.00868  -0.00009  -0.01222  -0.01901   0.00000
 175       12PX         0.00000   0.00000   0.00000   0.00000   0.38412
 176       12PY         7.91776  -5.31697   2.94715  -5.75231   0.00000
 177       12PZ        -3.13508   6.00127  -1.79400   2.51644   0.00000
 178       13PX         0.00000   0.00000   0.00000   0.00000  -2.12502
 179       13PY        -0.55551  -1.07580   2.00636  -3.30506   0.00000
 180       13PZ        -1.68018   0.73245   0.21805   1.13719   0.00000
 181       14D 0        0.00295  -0.00146  -0.00419  -0.00022   0.00000
 182       14D+1        0.00000   0.00000   0.00000   0.00000   0.00096
 183       14D-1        0.00392   0.00096   0.00023   0.00004   0.00000
 184       14D+2        0.00410  -0.00133   0.00256   0.00375   0.00000
 185       14D-2        0.00000   0.00000   0.00000   0.00000  -0.00122
 186       15D 0       -0.03646   0.02529   0.04825   0.00238   0.00000
 187       15D+1        0.00000   0.00000   0.00000   0.00000  -0.01488
 188       15D-1       -0.05349   0.00291  -0.01565   0.01193   0.00000
 189       15D+2       -0.04990   0.02711  -0.03457  -0.03400   0.00000
 190       15D-2        0.00000   0.00000   0.00000   0.00000   0.02431
 191       16D 0        0.23321  -0.17947  -0.24493  -0.02103   0.00000
 192       16D+1        0.00000   0.00000   0.00000   0.00000   0.07206
 193       16D-1        0.44958  -0.38068   0.30032  -0.14069   0.00000
 194       16D+2        0.41226  -0.41060   0.28191   0.09985   0.00000
 195       16D-2        0.00000   0.00000   0.00000   0.00000  -0.12766
 196       17D 0        0.61878   0.80634   0.30640  -0.47581   0.00000
 197       17D+1        0.00000   0.00000   0.00000   0.00000  -0.16082
 198       17D-1        0.94833  -1.75076   0.00141  -1.41494   0.00000
 199       17D+2        0.77508  -0.49693  -0.02712  -2.00714   0.00000
 200       17D-2        0.00000   0.00000   0.00000   0.00000   0.14859
 201       18F 0       -0.03685  -0.00154   0.02628  -0.00409   0.00000
 202       18F+1        0.00000   0.00000   0.00000   0.00000  -0.01545
 203       18F-1        0.00247  -0.03636   0.00157   0.01255   0.00000
 204       18F+2       -0.00779  -0.01200  -0.00021   0.03797   0.00000
 205       18F-2        0.00000   0.00000   0.00000   0.00000   0.00484
 206       18F+3        0.00000   0.00000   0.00000   0.00000   0.04310
 207       18F-3       -0.02339  -0.01547  -0.01286  -0.03357   0.00000
 208       19F 0        0.20109  -0.09511  -0.06832  -0.06558   0.00000
 209       19F+1        0.00000   0.00000   0.00000   0.00000   0.02386
 210       19F-1       -0.02131   0.03533   0.05109  -0.03826   0.00000
 211       19F+2        0.13233  -0.11264   0.02473  -0.19769   0.00000
 212       19F-2        0.00000   0.00000   0.00000   0.00000  -0.01481
 213       19F+3        0.00000   0.00000   0.00000   0.00000  -0.10280
 214       19F-3        0.00332   0.09015   0.01715   0.17893   0.00000
                         211       212       213       214
     Eigenvalues --     0.00000   0.00000   0.00000   0.00000
   1 1   C  1S         -0.12796   0.00000   0.02589  -0.01998
   2        2S         -0.60901   0.00000   0.10286  -0.06098
   3        3S          0.09130   0.00000  -0.06564   0.11054
   4        4S          3.15257   0.00000  -3.53734   1.01203
   5        5S         21.31248   0.00000   2.62594  26.11068
   6        6PX         0.00000   0.00000   0.00000   0.00000
   7        6PY         0.00000  -0.01521   0.00000   0.00000
   8        6PZ        -0.00625   0.00000  -0.02077   0.01768
   9        7PX         0.00000   0.00000   0.00000   0.00000
  10        7PY         0.00000   0.02358   0.00000   0.00000
  11        7PZ         0.10758   0.00000   0.01258  -0.17052
  12        8PX         0.00000   0.00000   0.00000   0.00000
  13        8PY         0.00000  -5.93123   0.00000   0.00000
  14        8PZ         3.65568   0.00000  -5.10610   0.28491
  15        9PX         0.00000   0.00000   0.00000   0.00000
  16        9PY         0.00000 -19.77695   0.00000   0.00000
  17        9PZ         8.47643   0.00000 -12.92566  -0.38641
  18       10D 0        0.00977   0.00000   0.00928   0.01171
  19       10D+1        0.00000   0.00000   0.00000   0.00000
  20       10D-1        0.00000  -0.01291   0.00000   0.00000
  21       10D+2       -0.03238   0.00000   0.01091  -0.03153
  22       10D-2        0.00000   0.00000   0.00000   0.00000
  23       11D 0        0.20887   0.00000  -0.02949  -0.30881
  24       11D+1        0.00000   0.00000   0.00000   0.00000
  25       11D-1        0.00000   0.25213   0.00000   0.00000
  26       11D+2        0.15963   0.00000  -0.05666   0.18668
  27       11D-2        0.00000   0.00000   0.00000   0.00000
  28       12D 0        2.87511   0.00000  -0.66250  -0.45391
  29       12D+1        0.00000   0.00000   0.00000   0.00000
  30       12D-1        0.00000   2.17425   0.00000   0.00000
  31       12D+2       -0.07958   0.00000  -0.50574  -0.64568
  32       12D-2        0.00000   0.00000   0.00000   0.00000
  33       13F 0       -0.00985   0.00000  -0.01078  -0.02713
  34       13F+1        0.00000   0.00000   0.00000   0.00000
  35       13F-1        0.00000  -0.00460   0.00000   0.00000
  36       13F+2       -0.00523   0.00000   0.00719  -0.00778
  37       13F-2        0.00000   0.00000   0.00000   0.00000
  38       13F+3        0.00000   0.00000   0.00000   0.00000
  39       13F-3        0.00000   0.00860   0.00000   0.00000
  40       14F 0        0.04110   0.00000   0.06944  -0.14088
  41       14F+1        0.00000   0.00000   0.00000   0.00000
  42       14F-1        0.00000  -0.01682   0.00000   0.00000
  43       14F+2       -0.06846   0.00000  -0.03291  -0.09986
  44       14F-2        0.00000   0.00000   0.00000   0.00000
  45       14F+3        0.00000   0.00000   0.00000   0.00000
  46       14F-3        0.00000  -0.01548   0.00000   0.00000
  47 2   S  1S          0.00680   0.00000   0.00247   0.00192
  48        2S          0.11984   0.00000   0.09592   0.01835
  49        3S          0.31614   0.00000   0.16101   0.07153
  50        4S         -0.02991   0.00000  -0.18207  -0.01065
  51        5S         -6.81685   0.00000   1.48218   1.59538
  52        6S        -11.36121   0.00000  20.43422 -12.71061
  53        7PX         0.00000   0.00000   0.00000   0.00000
  54        7PY         0.00000   0.00813   0.00000   0.00000
  55        7PZ         0.01627   0.00000   0.03037  -0.03692
  56        8PX         0.00000   0.00000   0.00000   0.00000
  57        8PY         0.00000   0.08252   0.00000   0.00000
  58        8PZ         0.49850   0.00000   0.44666  -0.76253
  59        9PX         0.00000   0.00000   0.00000   0.00000
  60        9PY         0.00000  -0.02683   0.00000   0.00000
  61        9PZ        -0.03938   0.00000  -0.10476   0.11257
  62       10PX         0.00000   0.00000   0.00000   0.00000
  63       10PY         0.00000  -0.48317   0.00000   0.00000
  64       10PZ         2.68590   0.00000  -5.99332   2.17104
  65       11PX         0.00000   0.00000   0.00000   0.00000
  66       11PY         0.00000   5.07882   0.00000   0.00000
  67       11PZ        -1.33480   0.00000  -2.02894   4.21716
  68       12D 0       -0.61541   0.00000   0.22625   0.34578
  69       12D+1        0.00000   0.00000   0.00000   0.00000
  70       12D-1        0.00000   0.13428   0.00000   0.00000
  71       12D+2        0.20238   0.00000   0.01278   0.07804
  72       12D-2        0.00000   0.00000   0.00000   0.00000
  73       13D 0        0.10621   0.00000  -0.03557  -0.00986
  74       13D+1        0.00000   0.00000   0.00000   0.00000
  75       13D-1        0.00000  -0.03579   0.00000   0.00000
  76       13D+2       -0.05389   0.00000   0.00238  -0.01743
  77       13D-2        0.00000   0.00000   0.00000   0.00000
  78       14D 0        1.21595   0.00000   1.69411  -1.20583
  79       14D+1        0.00000   0.00000   0.00000   0.00000
  80       14D-1        0.00000  -0.27006   0.00000   0.00000
  81       14D+2       -0.53199   0.00000  -0.02493   0.00046
  82       14D-2        0.00000   0.00000   0.00000   0.00000
  83       15F 0        0.03875   0.00000   0.06657  -0.05848
  84       15F+1        0.00000   0.00000   0.00000   0.00000
  85       15F-1        0.00000  -0.01276   0.00000   0.00000
  86       15F+2       -0.01521   0.00000  -0.01011   0.01455
  87       15F-2        0.00000   0.00000   0.00000   0.00000
  88       15F+3        0.00000   0.00000   0.00000   0.00000
  89       15F-3        0.00000  -0.03765   0.00000   0.00000
  90       16F 0       -0.15675   0.00000  -0.29820   0.08179
  91       16F+1        0.00000   0.00000   0.00000   0.00000
  92       16F-1        0.00000   0.03301   0.00000   0.00000
  93       16F+2        0.06809   0.00000   0.01667  -0.07448
  94       16F-2        0.00000   0.00000   0.00000   0.00000
  95       16F+3        0.00000   0.00000   0.00000   0.00000
  96       16F-3        0.00000   0.10143   0.00000   0.00000
  97 3   Br 1S          0.00026  -0.00013  -0.00021   0.00023
  98        2S          0.00243   0.00229   0.00044   0.00089
  99        3S          0.01026   0.00272  -0.00298   0.00626
 100        4S          0.03247   0.03849   0.00788   0.01068
 101        5S          0.00861   0.11543   0.04099  -0.02882
 102        6S          0.29277  -1.95818  -0.43513   0.07051
 103        7S         -4.66560 -21.44004 -10.30157  -7.26630
 104        8PX         0.00000   0.00000   0.00000   0.00000
 105        8PY        -0.00060  -0.00100  -0.00003  -0.00004
 106        8PZ         0.00002  -0.00062  -0.00025  -0.00012
 107        9PX         0.00000   0.00000   0.00000   0.00000
 108        9PY         0.01830   0.01709   0.00519   0.01758
 109        9PZ         0.01397   0.00601   0.01214   0.01083
 110       10PX         0.00000   0.00000   0.00000   0.00000
 111       10PY         0.18393   0.14972   0.05972   0.20335
 112       10PZ         0.16273   0.03925   0.12931   0.12143
 113       11PX         0.00000   0.00000   0.00000   0.00000
 114       11PY        -0.03016  -0.02777  -0.00502  -0.02480
 115       11PZ        -0.02073  -0.01242  -0.01740  -0.01439
 116       12PX         0.00000   0.00000   0.00000   0.00000
 117       12PY        -0.99662  -4.57664  -1.69981  -0.47614
 118       12PZ        -0.20763  -2.69395  -1.56056  -0.61397
 119       13PX         0.00000   0.00000   0.00000   0.00000
 120       13PY        -0.82274  -1.77217  -2.96856  -2.36792
 121       13PZ        -3.07584  -3.44245   0.33452  -1.42989
 122       14D 0        0.00102   0.00010  -0.00146  -0.00059
 123       14D+1        0.00000   0.00000   0.00000   0.00000
 124       14D-1        0.00207   0.00079   0.00087   0.00156
 125       14D+2       -0.00019   0.00098  -0.00070  -0.00070
 126       14D-2        0.00000   0.00000   0.00000   0.00000
 127       15D 0       -0.01243  -0.00326   0.01513   0.01004
 128       15D+1        0.00000   0.00000   0.00000   0.00000
 129       15D-1       -0.02803   0.00619  -0.00811  -0.02321
 130       15D+2       -0.00053  -0.02121   0.00672   0.01255
 131       15D-2        0.00000   0.00000   0.00000   0.00000
 132       16D 0        0.06419   0.01644  -0.05192  -0.06631
 133       16D+1        0.00000   0.00000   0.00000   0.00000
 134       16D-1        0.17338  -0.14844   0.02916   0.19887
 135       16D+2       -0.01138   0.16613  -0.02125  -0.12811
 136       16D-2        0.00000   0.00000   0.00000   0.00000
 137       17D 0       -0.20705   0.17073   0.06007   0.04994
 138       17D+1        0.00000   0.00000   0.00000   0.00000
 139       17D-1       -0.30546  -1.12749  -0.73033  -0.40083
 140       17D+2        0.28828   0.79367   0.47987   0.11847
 141       17D-2        0.00000   0.00000   0.00000   0.00000
 142       18F 0        0.00240  -0.02778   0.00931   0.00233
 143       18F+1        0.00000   0.00000   0.00000   0.00000
 144       18F-1        0.00001   0.01010   0.00400   0.00240
 145       18F+2        0.01824  -0.01498  -0.01443   0.00322
 146       18F-2        0.00000   0.00000   0.00000   0.00000
 147       18F+3        0.00000   0.00000   0.00000   0.00000
 148       18F-3       -0.02794  -0.02964  -0.00541   0.00474
 149       19F 0       -0.05195   0.12648  -0.00334  -0.02833
 150       19F+1        0.00000   0.00000   0.00000   0.00000
 151       19F-1       -0.00154  -0.05084  -0.02086  -0.00304
 152       19F+2       -0.05573   0.12402   0.06860  -0.04166
 153       19F-2        0.00000   0.00000   0.00000   0.00000
 154       19F+3        0.00000   0.00000   0.00000   0.00000
 155       19F-3        0.06852   0.12215   0.02651  -0.03394
 156 4   Br 1S          0.00026   0.00013  -0.00021   0.00023
 157        2S          0.00243  -0.00229   0.00044   0.00089
 158        3S          0.01026  -0.00272  -0.00298   0.00626
 159        4S          0.03247  -0.03849   0.00788   0.01068
 160        5S          0.00861  -0.11543   0.04099  -0.02882
 161        6S          0.29277   1.95818  -0.43513   0.07051
 162        7S         -4.66560  21.44004 -10.30157  -7.26630
 163        8PX         0.00000   0.00000   0.00000   0.00000
 164        8PY         0.00060  -0.00100   0.00003   0.00004
 165        8PZ         0.00002   0.00062  -0.00025  -0.00012
 166        9PX         0.00000   0.00000   0.00000   0.00000
 167        9PY        -0.01830   0.01709  -0.00519  -0.01758
 168        9PZ         0.01397  -0.00601   0.01214   0.01083
 169       10PX         0.00000   0.00000   0.00000   0.00000
 170       10PY        -0.18393   0.14972  -0.05972  -0.20335
 171       10PZ         0.16273  -0.03925   0.12931   0.12143
 172       11PX         0.00000   0.00000   0.00000   0.00000
 173       11PY         0.03016  -0.02777   0.00502   0.02480
 174       11PZ        -0.02073   0.01242  -0.01740  -0.01439
 175       12PX         0.00000   0.00000   0.00000   0.00000
 176       12PY         0.99662  -4.57664   1.69981   0.47614
 177       12PZ        -0.20763   2.69395  -1.56056  -0.61397
 178       13PX         0.00000   0.00000   0.00000   0.00000
 179       13PY         0.82274  -1.77217   2.96856   2.36792
 180       13PZ        -3.07584   3.44245   0.33452  -1.42989
 181       14D 0        0.00102  -0.00010  -0.00146  -0.00059
 182       14D+1        0.00000   0.00000   0.00000   0.00000
 183       14D-1       -0.00207   0.00079  -0.00087  -0.00156
 184       14D+2       -0.00019  -0.00098  -0.00070  -0.00070
 185       14D-2        0.00000   0.00000   0.00000   0.00000
 186       15D 0       -0.01243   0.00326   0.01513   0.01004
 187       15D+1        0.00000   0.00000   0.00000   0.00000
 188       15D-1        0.02803   0.00619   0.00811   0.02321
 189       15D+2       -0.00053   0.02121   0.00672   0.01255
 190       15D-2        0.00000   0.00000   0.00000   0.00000
 191       16D 0        0.06419  -0.01644  -0.05192  -0.06631
 192       16D+1        0.00000   0.00000   0.00000   0.00000
 193       16D-1       -0.17338  -0.14844  -0.02916  -0.19887
 194       16D+2       -0.01138  -0.16613  -0.02125  -0.12811
 195       16D-2        0.00000   0.00000   0.00000   0.00000
 196       17D 0       -0.20705  -0.17073   0.06007   0.04994
 197       17D+1        0.00000   0.00000   0.00000   0.00000
 198       17D-1        0.30546  -1.12749   0.73033   0.40083
 199       17D+2        0.28828  -0.79367   0.47987   0.11847
 200       17D-2        0.00000   0.00000   0.00000   0.00000
 201       18F 0        0.00240   0.02778   0.00931   0.00233
 202       18F+1        0.00000   0.00000   0.00000   0.00000
 203       18F-1       -0.00001   0.01010  -0.00400  -0.00240
 204       18F+2        0.01824   0.01498  -0.01443   0.00322
 205       18F-2        0.00000   0.00000   0.00000   0.00000
 206       18F+3        0.00000   0.00000   0.00000   0.00000
 207       18F-3        0.02794  -0.02964   0.00541  -0.00474
 208       19F 0       -0.05195  -0.12648  -0.00334  -0.02833
 209       19F+1        0.00000   0.00000   0.00000   0.00000
 210       19F-1        0.00154  -0.05084   0.02086   0.00304
 211       19F+2       -0.05573  -0.12402   0.06860  -0.04166
 212       19F-2        0.00000   0.00000   0.00000   0.00000
 213       19F+3        0.00000   0.00000   0.00000   0.00000
 214       19F-3       -0.06852   0.12215  -0.02651   0.03394
          Condensed to atoms (all electrons):
              1          2          3          4
     1  C    6.376609  -0.031113  -0.092593  -0.092593
     2  S   -0.031113  16.452045  -0.188197  -0.188197
     3  Br  -0.092593  -0.188197  35.314822  -0.136456
     4  Br  -0.092593  -0.188197  -0.136456  35.314822
 Mulliken atomic charges:
              1
     1  C   -0.160310
     2  S   -0.044538
     3  Br   0.102424
     4  Br   0.102424
 Sum of Mulliken atomic charges =   0.00000
 Mulliken charges with hydrogens summed into heavy atoms:
              1
     1  C   -0.160310
     2  S   -0.044538
     3  Br   0.102424
     4  Br   0.102424
 Sum of Mulliken charges with hydrogens summed into heavy atoms =   0.00000
 Electronic spatial extent (au):  <R**2>=           1431.6383
 Charge=              0.0000 electrons
 Dipole moment (field-independent basis, Debye):
    X=              0.0000    Y=              0.0000    Z=             -0.4733  Tot=              0.4733
 Quadrupole moment (field-independent basis, Debye-Ang):
   XX=            -54.9569   YY=            -53.8191   ZZ=            -53.7720
   XY=              0.0000   XZ=              0.0000   YZ=              0.0000
 Traceless Quadrupole moment (field-independent basis, Debye-Ang):
   XX=             -0.7742   YY=              0.3636   ZZ=              0.4106
   XY=              0.0000   XZ=              0.0000   YZ=              0.0000
 Octapole moment (field-independent basis, Debye-Ang**2):
  XXX=              0.0000  YYY=              0.0000  ZZZ=            141.2593  XYY=              0.0000
  XXY=              0.0000  XXZ=             47.7784  XZZ=              0.0000  YZZ=              0.0000
  YYZ=             35.3447  XYZ=              0.0000
 Hexadecapole moment (field-independent basis, Debye-Ang**3):
 XXXX=            -67.2503 YYYY=           -572.3428 ZZZZ=           -700.4547 XXXY=              0.0000
 XXXZ=              0.0000 YYYX=              0.0000 YYYZ=              0.0000 ZZZX=              0.0000
 ZZZY=              0.0000 XXYY=           -113.5364 XXZZ=           -130.5001 YYZZ=           -194.9033
 XXYZ=              0.0000 YYXZ=              0.0000 ZZXY=              0.0000
 N-N= 5.475704755571D+02 E-N=-1.443633541045D+04  KE= 5.579845953267D+03
 1\1\GINC-TRAPISTA\SP\RQCISD-FC\Aug-CC-pVTZ\C1Br2S1\BRUNS\29-Nov-2021\0
 \\# qcisd/aug-cc-pvtz nosymm density=current output=wfn\\br2cs-wavefun
 ction\\0,1\C,0,0.,0.,-0.519451\S,0,0.,0.,1.083692\Br,0,0.,-1.568516,-1
 .57857\Br,0,0.,1.568516,-1.57857\\Version=EM64L-G09RevB.01\HF=-5580.30
 86809\MP2=-5581.118785\MP3=-5581.1309631\MP4D=-5581.1549479\MP4DQ=-558
 1.1314734\MP4SDQ=-5581.1411486\QCISD=-5581.1375871\RMSD=3.250e-09\Dipo
 le=0.,0.,-0.1862181\Quadrupole=-0.5756291,0.2703296,0.3052995,0.,0.,0.
 \PG=C02V [C2(C1S1),SGV(Br2)]\\@

 Writing a WFN file to GAUSSIAN.wfn.


 WERE I TO AWAIT PERFECTION, MY BOOK WOULD NEVER BE FINISHED.
                                    -- HISTORY OF CHINESE WRITING

                                       TAI T'UNG, 13TH CENTURY
 Job cpu time:  0 days  5 hours 42 minutes  3.3 seconds.
 File lengths (MBytes):  RWF=  25271 Int=      0 D2E=      0 Chk=      4 Scr=      1
 Normal termination of Gaussian 09 at Mon Nov 29 00:00:23 2021.
