 Entering Gaussian System, Link 0=/home/bruns/programas/chemistry/gaussian/g09/g09
 Input=GAUSSIAN.com
 Output=GAUSSIAN.log
 Initial command:
 /home/bruns/programas/chemistry/gaussian/g09/l1.exe /home/bruns/programas/chemistry/gaussian/work/Gau-6516.inp -scrdir=/home/bruns/programas/chemistry/gaussian/work/
 Entering Link 1 = /home/bruns/programas/chemistry/gaussian/g09/l1.exe PID=      6518.
  
 Copyright (c) 1988,1990,1992,1993,1995,1998,2003,2009,2010,
            Gaussian, Inc.  All Rights Reserved.
  
 This is part of the Gaussian(R) 09 program.  It is based on
 the Gaussian(R) 03 system (copyright 2003, Gaussian, Inc.),
 the Gaussian(R) 98 system (copyright 1998, Gaussian, Inc.),
 the Gaussian(R) 94 system (copyright 1995, Gaussian, Inc.),
 the Gaussian 92(TM) system (copyright 1992, Gaussian, Inc.),
 the Gaussian 90(TM) system (copyright 1990, Gaussian, Inc.),
 the Gaussian 88(TM) system (copyright 1988, Gaussian, Inc.),
 the Gaussian 86(TM) system (copyright 1986, Carnegie Mellon
 University), and the Gaussian 82(TM) system (copyright 1983,
 Carnegie Mellon University). Gaussian is a federally registered
 trademark of Gaussian, Inc.
  
 This software contains proprietary and confidential information,
 including trade secrets, belonging to Gaussian, Inc.
  
 This software is provided under written license and may be
 used, copied, transmitted, or stored only in accord with that
 written license.
  
 The following legend is applicable only to US Government
 contracts under FAR:
  
                    RESTRICTED RIGHTS LEGEND
  
 Use, reproduction and disclosure by the US Government is
 subject to restrictions as set forth in subparagraphs (a)
 and (c) of the Commercial Computer Software - Restricted
 Rights clause in FAR 52.227-19.
  
 Gaussian, Inc.
 340 Quinnipiac St., Bldg. 40, Wallingford CT 06492
  
  
 ---------------------------------------------------------------
 Warning -- This program may not be used in any manner that
 competes with the business of Gaussian, Inc. or will provide
 assistance to any competitor of Gaussian, Inc.  The licensee
 of this program is prohibited from giving any competitor of
 Gaussian, Inc. access to this program.  By using this program,
 the user acknowledges that Gaussian, Inc. is engaged in the
 business of creating and licensing software in the field of
 computational chemistry and represents and warrants to the
 licensee that it is not a competitor of Gaussian, Inc. and that
 it will not use this program in any manner prohibited above.
 ---------------------------------------------------------------
  

 Cite this work as:
 Gaussian 09, Revision B.01,
 M. J. Frisch, G. W. Trucks, H. B. Schlegel, G. E. Scuseria, 
 M. A. Robb, J. R. Cheeseman, G. Scalmani, V. Barone, B. Mennucci, 
 G. A. Petersson, H. Nakatsuji, M. Caricato, X. Li, H. P. Hratchian, 
 A. F. Izmaylov, J. Bloino, G. Zheng, J. L. Sonnenberg, M. Hada, 
 M. Ehara, K. Toyota, R. Fukuda, J. Hasegawa, M. Ishida, T. Nakajima, 
 Y. Honda, O. Kitao, H. Nakai, T. Vreven, J. A. Montgomery, Jr., 
 J. E. Peralta, F. Ogliaro, M. Bearpark, J. J. Heyd, E. Brothers, 
 K. N. Kudin, V. N. Staroverov, T. Keith, R. Kobayashi, J. Normand, 
 K. Raghavachari, A. Rendell, J. C. Burant, S. S. Iyengar, J. Tomasi, 
 M. Cossi, N. Rega, J. M. Millam, M. Klene, J. E. Knox, J. B. Cross, 
 V. Bakken, C. Adamo, J. Jaramillo, R. Gomperts, R. E. Stratmann, 
 O. Yazyev, A. J. Austin, R. Cammi, C. Pomelli, J. W. Ochterski, 
 R. L. Martin, K. Morokuma, V. G. Zakrzewski, G. A. Voth, 
 P. Salvador, J. J. Dannenberg, S. Dapprich, A. D. Daniels, 
 O. Farkas, J. B. Foresman, J. V. Ortiz, J. Cioslowski, 
 and D. J. Fox, Gaussian, Inc., Wallingford CT, 2010.
 
 ******************************************
 Gaussian 09:  EM64L-G09RevB.01 12-Aug-2010
                29-Nov-2021 
 ******************************************
 %nproc=8
 Will use up to    8 processors via shared memory.
 %mem=8GB
 -----------------------------------------------------
 # qcisd/aug-cc-pvtz nosymm density=current output=wfn
 -----------------------------------------------------
 1/30=1,38=1/1;
 2/12=2,15=1,17=6,18=5,40=1/2;
 3/5=16,6=1,7=10,11=9,16=1,25=1,30=1,71=1/1,2,3;
 4//1;
 5/5=2,38=5/2;
 8/6=4,9=120000,10=1/1,4;
 9/5=8,15=1/13;
 11/28=-7,31=1,32=3,42=3/11;
 10/5=6,13=10,31=1/2;
 6/7=2,8=2,9=2,10=2,22=-1,31=1/1;
 99/5=1,6=1100,9=1/99;
 ------------------
 br2cs-wavefunction
 ------------------
 Symbolic Z-matrix:
 Charge =  0 Multiplicity = 1
 C                     0.        0.       -0.50945 
 S                     0.        0.        1.08369 
 Br                    0.       -1.56852  -1.57857 
 Br                    0.        1.56852  -1.57857 
 
                          Input orientation:                          
 ---------------------------------------------------------------------
 Center     Atomic      Atomic             Coordinates (Angstroms)
 Number     Number       Type             X           Y           Z
 ---------------------------------------------------------------------
      1          6           0        0.000000    0.000000   -0.509451
      2         16           0        0.000000    0.000000    1.083692
      3         35           0        0.000000   -1.568516   -1.578570
      4         35           0        0.000000    1.568516   -1.578570
 ---------------------------------------------------------------------
                    Distance matrix (angstroms):
                    1          2          3          4
     1  C    0.000000
     2  S    1.593143   0.000000
     3  Br   1.898225   3.089965   0.000000
     4  Br   1.898225   3.089965   3.137032   0.000000
 Symmetry turned off by external request.
 Stoichiometry    CBr2S
 Framework group  C2V[C2(CS),SGV(Br2)]
 Deg. of freedom     3
 Full point group                 C2V     NOp   4
 Rotational constants (GHZ):      2.6214768      1.3014616      0.8696928
 Standard basis: Aug-CC-pVTZ (5D, 7F)
 Integral buffers will be    131072 words long.
 Raffenetti 1 integral format.
 Two-electron integral symmetry is turned off.
   214 basis functions,   620 primitive gaussians,   252 cartesian basis functions
    46 alpha electrons       46 beta electrons
       nuclear repulsion energy       547.4220628849 Hartrees.
 NAtoms=    4 NActive=    4 NUniq=    4 SFac= 1.00D+00 NAtFMM=   50 NAOKFM=F Big=F
 One-electron integrals computed using PRISM.
 NBasis=   214 RedAO= T  NBF=   214
 NBsUse=   214 1.00D-06 NBFU=   214
 Harris functional with IExCor=  205 diagonalized for initial guess.
 ExpMin= 3.51D-02 ExpMax= 1.06D+07 ExpMxC= 1.21D+04 IAcc=3 IRadAn=         0 AccDes= 0.00D+00
 HarFok:  IExCor=  205 AccDes= 0.00D+00 IRadAn=         0 IDoV= 1
 ScaDFX=  1.000000  1.000000  1.000000  1.000000
 FoFCou: FMM=F IPFlag=           0 FMFlag=      100000 FMFlg1=           0
         NFxFlg=           0 DoJE=T BraDBF=F KetDBF=T FulRan=T
         Omega=  0.000000  0.000000  1.000000  0.000000  0.000000 ICntrl=     500 IOpCl=  0
         NMat0=    1 NMatS0=    1 NMatT0=    0 NMatD0=    1 NMtDS0=    0 NMtDT0=    0
         I1Cent=           4 NGrid=           0.
 Symmetry not used in FoFCou.
 Requested convergence on RMS density matrix=1.00D-08 within 128 cycles.
 Requested convergence on MAX density matrix=1.00D-06.
 Requested convergence on             energy=1.00D-06.
 No special actions if energy rises.
 Keep R1 ints in memory in canonical form, NReq=516428601.
 SCF Done:  E(RHF) =  -5580.30884417     A.U. after   14 cycles
             Convg  =    0.3268D-08             -V/T =  2.0000
 ExpMin= 3.51D-02 ExpMax= 1.06D+07 ExpMxC= 1.21D+04 IAcc=3 IRadAn=         5 AccDes= 0.00D+00
 HarFok:  IExCor=  205 AccDes= 0.00D+00 IRadAn=         5 IDoV=-2
 ScaDFX=  1.000000  1.000000  1.000000  1.000000
 DSYEVD returned Info=          89 IAlg= 4 N=    59 NDim=    59 NE2=    18196455 trying DSYEV.
 Range of M.O.s used for correlation:    25   214
 NBasis=   214 NAE=    46 NBE=    46 NFC=    24 NFV=     0
 NROrb=    190 NOA=    22 NOB=    22 NVA=   168 NVB=   168

 **** Warning!!: The largest alpha MO coefficient is  0.30665313D+02

 Semi-Direct transformation.
 ModeAB=           2 MOrb=            22 LenV=    1072457097
 LASXX=     69628944 LTotXX=    69628944 LenRXX=    69628944
 LTotAB=    70719517 MaxLAS=   133250040 LenRXY=   133250040
 NonZer=   139257888 LenScr=   209707008 LnRSAI=           0
 LnScr1=           0 LExtra=           0 Total=    412585992
 MaxDsk=          -1 SrtSym=           F ITran=            4
 JobTyp=0 Pass  1:  I=   1 to  22.
 (rs|ai) integrals will be sorted in core.
 Spin components of T(2) and E(2):
     alpha-alpha T2 =       0.4282729368D-01 E2=     -0.1153550620D+00
     alpha-beta  T2 =       0.2163924602D+00 E2=     -0.5790967335D+00
     beta-beta   T2 =       0.4282729368D-01 E2=     -0.1153550620D+00
 ANorm=    0.1141072762D+01
 E2 =    -0.8098068576D+00 EUMP2 =    -0.55811186510283D+04
 R2 and R3 integrals will be kept in memory, NReq=  1024335774.
 Iterations=  50 Convergence= 0.100D-07
 Iteration Nr.   1
 **********************
 DD1Dir will call FoFMem   1 times, MxPair=       506
 NAB=   253 NAA=     0 NBB=     0.
 MP4(R+Q)=  0.23435368D-01
 E3=       -0.12298110D-01        EUMP3=      -0.55811309491D+04
 E4(DQ)=   -0.48882898D-03        UMP4(DQ)=   -0.55811314380D+04
 E4(SDQ)=  -0.10108214D-01        UMP4(SDQ)=  -0.55811410574D+04
 DE(Corr)= -0.79866960     E(Corr)=     -5581.1075138    
 NORM(A)=   0.11409151D+01
 Iteration Nr.   2
 **********************
 DD1Dir will call FoFMem   1 times, MxPair=       506
 NAB=   253 NAA=     0 NBB=     0.
 DE(Corr)= -0.82732411     E(CORR)=     -5581.1361683     Delta=-2.87D-02
 NORM(A)=   0.11530571D+01
 Iteration Nr.   3
 **********************
 DD1Dir will call FoFMem   1 times, MxPair=       506
 NAB=   253 NAA=     0 NBB=     0.
 DE(Corr)= -0.82595132     E(CORR)=     -5581.1347955     Delta= 1.37D-03
 NORM(A)=   0.11558601D+01
 Iteration Nr.   4
 **********************
 DD1Dir will call FoFMem   1 times, MxPair=       506
 NAB=   253 NAA=     0 NBB=     0.
 DE(Corr)= -0.82828249     E(CORR)=     -5581.1371267     Delta=-2.33D-03
 NORM(A)=   0.11571467D+01
 Iteration Nr.   5
 **********************
 DD1Dir will call FoFMem   1 times, MxPair=       506
 NAB=   253 NAA=     0 NBB=     0.
 DE(Corr)= -0.82858687     E(CORR)=     -5581.1374310     Delta=-3.04D-04
 NORM(A)=   0.11577768D+01
 Iteration Nr.   6
 **********************
 DD1Dir will call FoFMem   1 times, MxPair=       506
 NAB=   253 NAA=     0 NBB=     0.
 DE(Corr)= -0.82865123     E(CORR)=     -5581.1374954     Delta=-6.44D-05
 NORM(A)=   0.11578580D+01
 Iteration Nr.   7
 **********************
 DD1Dir will call FoFMem   1 times, MxPair=       506
 NAB=   253 NAA=     0 NBB=     0.
 DE(Corr)= -0.82866321     E(CORR)=     -5581.1375074     Delta=-1.20D-05
 NORM(A)=   0.11578777D+01
 Iteration Nr.   8
 **********************
 DD1Dir will call FoFMem   1 times, MxPair=       506
 NAB=   253 NAA=     0 NBB=     0.
 DE(Corr)= -0.82865875     E(CORR)=     -5581.1375029     Delta= 4.45D-06
 NORM(A)=   0.11578862D+01
 Iteration Nr.   9
 **********************
 DD1Dir will call FoFMem   1 times, MxPair=       506
 NAB=   253 NAA=     0 NBB=     0.
 DE(Corr)= -0.82866123     E(CORR)=     -5581.1375054     Delta=-2.48D-06
 NORM(A)=   0.11578877D+01
 Iteration Nr.  10
 **********************
 DD1Dir will call FoFMem   1 times, MxPair=       506
 NAB=   253 NAA=     0 NBB=     0.
 DE(Corr)= -0.82866094     E(CORR)=     -5581.1375051     Delta= 2.89D-07
 NORM(A)=   0.11578917D+01
 Iteration Nr.  11
 **********************
 DD1Dir will call FoFMem   1 times, MxPair=       506
 NAB=   253 NAA=     0 NBB=     0.
 DE(Corr)= -0.82866281     E(CORR)=     -5581.1375070     Delta=-1.86D-06
 NORM(A)=   0.11578938D+01
 Iteration Nr.  12
 **********************
 DD1Dir will call FoFMem   1 times, MxPair=       506
 NAB=   253 NAA=     0 NBB=     0.
 DE(Corr)= -0.82866282     E(CORR)=     -5581.1375070     Delta=-1.39D-08
 NORM(A)=   0.11578953D+01
 Iteration Nr.  13
 **********************
 DD1Dir will call FoFMem   1 times, MxPair=       506
 NAB=   253 NAA=     0 NBB=     0.
 DE(Corr)= -0.82866348     E(CORR)=     -5581.1375076     Delta=-6.56D-07
 NORM(A)=   0.11578964D+01
 Iteration Nr.  14
 **********************
 DD1Dir will call FoFMem   1 times, MxPair=       506
 NAB=   253 NAA=     0 NBB=     0.
 DE(Corr)= -0.82866350     E(CORR)=     -5581.1375077     Delta=-1.75D-08
 NORM(A)=   0.11578968D+01
 Iteration Nr.  15
 **********************
 DD1Dir will call FoFMem   1 times, MxPair=       506
 NAB=   253 NAA=     0 NBB=     0.
 DE(Corr)= -0.82866361     E(CORR)=     -5581.1375078     Delta=-1.14D-07
 NORM(A)=   0.11578970D+01
 Iteration Nr.  16
 **********************
 DD1Dir will call FoFMem   1 times, MxPair=       506
 NAB=   253 NAA=     0 NBB=     0.
 DE(Corr)= -0.82866364     E(CORR)=     -5581.1375078     Delta=-3.26D-08
 NORM(A)=   0.11578971D+01
 Iteration Nr.  17
 **********************
 DD1Dir will call FoFMem   1 times, MxPair=       506
 NAB=   253 NAA=     0 NBB=     0.
 DE(Corr)= -0.82866363     E(CORR)=     -5581.1375078     Delta= 1.38D-08
 NORM(A)=   0.11578971D+01
 Iteration Nr.  18
 **********************
 DD1Dir will call FoFMem   1 times, MxPair=       506
 NAB=   253 NAA=     0 NBB=     0.
 DE(Corr)= -0.82866365     E(CORR)=     -5581.1375078     Delta=-1.92D-08
 NORM(A)=   0.11578971D+01
 Iteration Nr.  19
 **********************
 DD1Dir will call FoFMem   1 times, MxPair=       506
 NAB=   253 NAA=     0 NBB=     0.
 DE(Corr)= -0.82866362     E(CORR)=     -5581.1375078     Delta= 3.21D-08
 NORM(A)=   0.11578972D+01
 Iteration Nr.  20
 **********************
 DD1Dir will call FoFMem   1 times, MxPair=       506
 NAB=   253 NAA=     0 NBB=     0.
 DE(Corr)= -0.82866361     E(CORR)=     -5581.1375078     Delta= 7.98D-09
 NORM(A)=   0.11578971D+01
 Iteration Nr.  21
 **********************
 DD1Dir will call FoFMem   1 times, MxPair=       506
 NAB=   253 NAA=     0 NBB=     0.
 DE(Corr)= -0.82866364     E(CORR)=     -5581.1375078     Delta=-3.24D-08
 NORM(A)=   0.11578972D+01
 Iteration Nr.  22
 **********************
 DD1Dir will call FoFMem   1 times, MxPair=       506
 NAB=   253 NAA=     0 NBB=     0.
 DE(Corr)= -0.82866364     E(CORR)=     -5581.1375078     Delta=-2.25D-09
 NORM(A)=   0.11578971D+01
 Iteration Nr.  23
 **********************
 DD1Dir will call FoFMem   1 times, MxPair=       506
 NAB=   253 NAA=     0 NBB=     0.
 DE(Corr)= -0.82866364     E(CORR)=     -5581.1375078     Delta=-1.18D-09
 NORM(A)=   0.11578971D+01
 Iteration Nr.  24
 **********************
 DD1Dir will call FoFMem   1 times, MxPair=       506
 NAB=   253 NAA=     0 NBB=     0.
 DE(Corr)= -0.82866364     E(CORR)=     -5581.1375078     Delta=-3.51D-10
 NORM(A)=   0.11578971D+01
 Iteration Nr.  25
 **********************
 DD1Dir will call FoFMem   1 times, MxPair=       506
 NAB=   253 NAA=     0 NBB=     0.
 DE(Corr)= -0.82866364     E(CORR)=     -5581.1375078     Delta=-4.15D-10
 NORM(A)=   0.11578971D+01
 Iteration Nr.  26
 **********************
 DD1Dir will call FoFMem   1 times, MxPair=       506
 NAB=   253 NAA=     0 NBB=     0.
 DE(Corr)= -0.82866364     E(CORR)=     -5581.1375078     Delta= 1.40D-09
 NORM(A)=   0.11578971D+01
 Iteration Nr.  27
 **********************
 DD1Dir will call FoFMem   1 times, MxPair=       506
 NAB=   253 NAA=     0 NBB=     0.
 DE(Corr)= -0.82866364     E(CORR)=     -5581.1375078     Delta=-1.11D-09
 NORM(A)=   0.11578971D+01
 Largest amplitude= 7.44D-02

 Z-AMPLITUDE ITERATIONS

 Iteration Nr.   1
 **********************
 DD1Dir will call FoFMem   1 times, MxPair=       506
 NAB=   253 NAA=     0 NBB=     0.
 DE(Z)  -0.79807049D+00          E(Z)=    -0.55811069147D+04
 NORM(A)=   0.11577099D+01
 Iteration Nr.   2
 **********************
 DD1Dir will call FoFMem   1 times, MxPair=       506
 NAB=   253 NAA=     0 NBB=     0.
 DE(Z)  -0.79806892D+00          E(Z)=    -0.55811069131D+04
 NORM(A)=   0.11575196D+01
 Iteration Nr.   3
 **********************
 DD1Dir will call FoFMem   1 times, MxPair=       506
 NAB=   253 NAA=     0 NBB=     0.
 DE(Z)  -0.79806780D+00          E(Z)=    -0.55811069120D+04
 NORM(A)=   0.11572367D+01
 Iteration Nr.   4
 **********************
 DD1Dir will call FoFMem   1 times, MxPair=       506
 NAB=   253 NAA=     0 NBB=     0.
 DE(Z)  -0.79806502D+00          E(Z)=    -0.55811069092D+04
 NORM(A)=   0.11564045D+01
 Iteration Nr.   5
 **********************
 DD1Dir will call FoFMem   1 times, MxPair=       506
 NAB=   253 NAA=     0 NBB=     0.
 DE(Z)  -0.79805555D+00          E(Z)=    -0.55811068997D+04
 NORM(A)=   0.11446925D+01
 Iteration Nr.   6
 **********************
 DD1Dir will call FoFMem   1 times, MxPair=       506
 NAB=   253 NAA=     0 NBB=     0.
 DE(Z)  -0.79794264D+00          E(Z)=    -0.55811067868D+04
 NORM(A)=   0.11446933D+01
 Iteration Nr.   7
 **********************
 DD1Dir will call FoFMem   1 times, MxPair=       506
 NAB=   253 NAA=     0 NBB=     0.
 DE(Z)  -0.79794023D+00          E(Z)=    -0.55811067844D+04
 NORM(A)=   0.11446921D+01
 Iteration Nr.   8
 **********************
 DD1Dir will call FoFMem   1 times, MxPair=       506
 NAB=   253 NAA=     0 NBB=     0.
 DE(Z)  -0.79794099D+00          E(Z)=    -0.55811067852D+04
 NORM(A)=   0.11446917D+01
 Iteration Nr.   9
 **********************
 DD1Dir will call FoFMem   1 times, MxPair=       506
 NAB=   253 NAA=     0 NBB=     0.
 DE(Z)  -0.79794021D+00          E(Z)=    -0.55811067844D+04
 NORM(A)=   0.11446916D+01
 Iteration Nr.  10
 **********************
 DD1Dir will call FoFMem   1 times, MxPair=       506
 NAB=   253 NAA=     0 NBB=     0.
 DE(Z)  -0.79794012D+00          E(Z)=    -0.55811067843D+04
 NORM(A)=   0.11446917D+01
 Iteration Nr.  11
 **********************
 DD1Dir will call FoFMem   1 times, MxPair=       506
 NAB=   253 NAA=     0 NBB=     0.
 DE(Z)  -0.79794016D+00          E(Z)=    -0.55811067843D+04
 NORM(A)=   0.11446919D+01
 Iteration Nr.  12
 **********************
 DD1Dir will call FoFMem   1 times, MxPair=       506
 NAB=   253 NAA=     0 NBB=     0.
 DE(Z)  -0.79794014D+00          E(Z)=    -0.55811067843D+04
 NORM(A)=   0.11446921D+01
 Iteration Nr.  13
 **********************
 DD1Dir will call FoFMem   1 times, MxPair=       506
 NAB=   253 NAA=     0 NBB=     0.
 DE(Z)  -0.79794018D+00          E(Z)=    -0.55811067844D+04
 NORM(A)=   0.11446921D+01
 Iteration Nr.  14
 **********************
 DD1Dir will call FoFMem   1 times, MxPair=       506
 NAB=   253 NAA=     0 NBB=     0.
 DE(Z)  -0.79794017D+00          E(Z)=    -0.55811067843D+04
 NORM(A)=   0.11446921D+01
 Iteration Nr.  15
 **********************
 DD1Dir will call FoFMem   1 times, MxPair=       506
 NAB=   253 NAA=     0 NBB=     0.
 DE(Z)  -0.79794018D+00          E(Z)=    -0.55811067843D+04
 NORM(A)=   0.11446921D+01
 Iteration Nr.  16
 **********************
 DD1Dir will call FoFMem   1 times, MxPair=       506
 NAB=   253 NAA=     0 NBB=     0.
 DE(Z)  -0.79794017D+00          E(Z)=    -0.55811067843D+04
 NORM(A)=   0.11446921D+01
 Iteration Nr.  17
 **********************
 DD1Dir will call FoFMem   1 times, MxPair=       506
 NAB=   253 NAA=     0 NBB=     0.
 DE(Z)  -0.79794020D+00          E(Z)=    -0.55811067844D+04
 NORM(A)=   0.11446921D+01
 Iteration Nr.  18
 **********************
 DD1Dir will call FoFMem   1 times, MxPair=       506
 NAB=   253 NAA=     0 NBB=     0.
 DE(Z)  -0.79794018D+00          E(Z)=    -0.55811067843D+04
 NORM(A)=   0.11446921D+01
 Iteration Nr.  19
 **********************
 DD1Dir will call FoFMem   1 times, MxPair=       506
 NAB=   253 NAA=     0 NBB=     0.
 DE(Z)  -0.79794018D+00          E(Z)=    -0.55811067843D+04
 NORM(A)=   0.11446921D+01
 Iteration Nr.  20
 **********************
 DD1Dir will call FoFMem   1 times, MxPair=       506
 NAB=   253 NAA=     0 NBB=     0.
 DE(Z)  -0.79794018D+00          E(Z)=    -0.55811067843D+04
 NORM(A)=   0.11446921D+01
 Discarding MO integrals.
          Differentiating once with respect to electric field.
                with respect to dipole field.
          Electric field/nuclear overlap derivatives assumed to be zero.
          Keep R1 ints in memory in canonical form, NReq=510060614.
          There are     1 degrees of freedom in the 1st order CPHF.  IDoFFX=0.
 LinEq1:  Iter=  0 NonCon=     1 RMS=1.78D-03 Max=6.55D-02
 AX will form     1 AO Fock derivatives at one time.
 LinEq1:  Iter=  1 NonCon=     1 RMS=8.43D-04 Max=1.81D-02
 LinEq1:  Iter=  2 NonCon=     1 RMS=3.80D-04 Max=1.43D-02
 LinEq1:  Iter=  3 NonCon=     1 RMS=1.24D-04 Max=4.50D-03
 LinEq1:  Iter=  4 NonCon=     1 RMS=4.77D-05 Max=8.46D-04
 LinEq1:  Iter=  5 NonCon=     1 RMS=9.60D-06 Max=2.31D-04
 LinEq1:  Iter=  6 NonCon=     1 RMS=3.04D-06 Max=6.31D-05
 LinEq1:  Iter=  7 NonCon=     1 RMS=6.23D-07 Max=1.52D-05
 LinEq1:  Iter=  8 NonCon=     1 RMS=1.15D-07 Max=2.69D-06
 LinEq1:  Iter=  9 NonCon=     1 RMS=2.43D-08 Max=4.39D-07
 LinEq1:  Iter= 10 NonCon=     1 RMS=5.35D-09 Max=1.53D-07
 LinEq1:  Iter= 11 NonCon=     1 RMS=1.43D-09 Max=4.59D-08
 LinEq1:  Iter= 12 NonCon=     1 RMS=3.18D-10 Max=9.48D-09
 LinEq1:  Iter= 13 NonCon=     1 RMS=6.77D-11 Max=1.18D-09
 LinEq1:  Iter= 14 NonCon=     0 RMS=1.95D-11 Max=5.02D-10
 Linear equations converged to 1.000D-10 1.000D-09 after    14 iterations.
 End of Minotr Frequency-dependent properties file   721 does not exist.
 End of Minotr Frequency-dependent properties file   722 does not exist.

 **********************************************************************

            Population analysis using the QCI/CC density.

 **********************************************************************

     Natural Orbital Coefficients:
                           1         2         3         4         5
     Eigenvalues --     2.00003   2.00002   2.00002   2.00002   2.00001
   1 1   C  1S          0.00000  -0.18155   0.32039   0.00000  -0.47049
   2        2S          0.00000   0.00369  -0.00986   0.00000   0.00748
   3        3S          0.00000  -0.00696   0.01206   0.00000  -0.01896
   4        4S          0.00000  -0.01195  -0.01452   0.00000  -0.00682
   5        5S          0.00000  -0.00487  -0.00471   0.00000  -0.00460
   6        6PX         0.00000   0.00000   0.00000   0.00000   0.00000
   7        6PY        -0.00124   0.00000   0.00000  -0.00297   0.00000
   8        6PZ         0.00000   0.00111   0.00149   0.00000   0.00264
   9        7PX         0.00000   0.00000   0.00000   0.00000   0.00000
  10        7PY        -0.00133   0.00000   0.00000  -0.00513   0.00000
  11        7PZ         0.00000  -0.00051   0.00390   0.00000   0.00067
  12        8PX         0.00000   0.00000   0.00000   0.00000   0.00000
  13        8PY         0.01261   0.00000   0.00000  -0.00416   0.00000
  14        8PZ         0.00000  -0.00973   0.00649   0.00000  -0.00860
  15        9PX         0.00000   0.00000   0.00000   0.00000   0.00000
  16        9PY         0.00365   0.00000   0.00000   0.00045   0.00000
  17        9PZ         0.00000   0.00003   0.00086   0.00000  -0.00149
  18       10D 0        0.00000  -0.00007   0.00012   0.00000  -0.00002
  19       10D+1        0.00000   0.00000   0.00000   0.00000   0.00000
  20       10D-1       -0.00036   0.00000   0.00000   0.00035   0.00000
  21       10D+2        0.00000   0.00003   0.00011   0.00000   0.00020
  22       10D-2        0.00000   0.00000   0.00000   0.00000   0.00000
  23       11D 0        0.00000  -0.00111  -0.00031   0.00000  -0.00016
  24       11D+1        0.00000   0.00000   0.00000   0.00000   0.00000
  25       11D-1        0.00005   0.00000   0.00000   0.00117   0.00000
  26       11D+2        0.00000  -0.00002   0.00160   0.00000  -0.00058
  27       11D-2        0.00000   0.00000   0.00000   0.00000   0.00000
  28       12D 0        0.00000  -0.00425   0.00100   0.00000  -0.00488
  29       12D+1        0.00000   0.00000   0.00000   0.00000   0.00000
  30       12D-1       -0.00641   0.00000   0.00000   0.00302   0.00000
  31       12D+2        0.00000  -0.00150   0.00199   0.00000  -0.00194
  32       12D-2        0.00000   0.00000   0.00000   0.00000   0.00000
  33       13F 0        0.00000  -0.00001   0.00002   0.00000   0.00011
  34       13F+1        0.00000   0.00000   0.00000   0.00000   0.00000
  35       13F-1       -0.00032   0.00000   0.00000  -0.00007   0.00000
  36       13F+2        0.00000  -0.00007   0.00001   0.00000  -0.00008
  37       13F-2        0.00000   0.00000   0.00000   0.00000   0.00000
  38       13F+3        0.00000   0.00000   0.00000   0.00000   0.00000
  39       13F-3        0.00007   0.00000   0.00000  -0.00007   0.00000
  40       14F 0        0.00000   0.00020  -0.00010   0.00000   0.00103
  41       14F+1        0.00000   0.00000   0.00000   0.00000   0.00000
  42       14F-1        0.00185   0.00000   0.00000   0.00075   0.00000
  43       14F+2        0.00000   0.00044  -0.00036   0.00000   0.00102
  44       14F-2        0.00000   0.00000   0.00000   0.00000   0.00000
  45       14F+3        0.00000   0.00000   0.00000   0.00000   0.00000
  46       14F-3       -0.00029   0.00000   0.00000   0.00021   0.00000
  47 2   S  1S          0.00000  -0.21388  -0.01010   0.00000   0.17227
  48        2S          0.00000   0.73092   0.03510   0.00000  -0.59468
  49        3S          0.00000  -0.02042  -0.00121   0.00000   0.00941
  50        4S          0.00000   0.04897   0.00233   0.00000  -0.04260
  51        5S          0.00000   0.01212  -0.00121   0.00000   0.01609
  52        6S          0.00000   0.00190   0.00020   0.00000   0.00458
  53        7PX         0.00000   0.00000   0.00000   0.00000   0.00000
  54        7PY         0.97031   0.00000   0.00000   0.09462   0.00000
  55        7PZ         0.00000   0.63454   0.02220   0.00000   0.52909
  56        8PX         0.00000   0.00000   0.00000   0.00000   0.00000
  57        8PY        -0.01892   0.00000   0.00000  -0.00128   0.00000
  58        8PZ         0.00000  -0.01268  -0.00053   0.00000  -0.00913
  59        9PX         0.00000   0.00000   0.00000   0.00000   0.00000
  60        9PY         0.05635   0.00000   0.00000   0.00580   0.00000
  61        9PZ         0.00000   0.03909   0.00145   0.00000   0.03443
  62       10PX         0.00000   0.00000   0.00000   0.00000   0.00000
  63       10PY        -0.00345   0.00000   0.00000  -0.00103   0.00000
  64       10PZ         0.00000  -0.00886  -0.00061   0.00000  -0.00575
  65       11PX         0.00000   0.00000   0.00000   0.00000   0.00000
  66       11PY        -0.00129   0.00000   0.00000  -0.00007   0.00000
  67       11PZ         0.00000  -0.00025  -0.00020   0.00000  -0.00029
  68       12D 0        0.00000   0.00238   0.00015   0.00000   0.00241
  69       12D+1        0.00000   0.00000   0.00000   0.00000   0.00000
  70       12D-1        0.00271   0.00000   0.00000   0.00073   0.00000
  71       12D+2        0.00000  -0.00040  -0.00006   0.00000  -0.00007
  72       12D-2        0.00000   0.00000   0.00000   0.00000   0.00000
  73       13D 0        0.00000   0.00016  -0.00016   0.00000  -0.00022
  74       13D+1        0.00000   0.00000   0.00000   0.00000   0.00000
  75       13D-1       -0.00035   0.00000   0.00000   0.00019   0.00000
  76       13D+2        0.00000   0.00030   0.00003   0.00000  -0.00019
  77       13D-2        0.00000   0.00000   0.00000   0.00000   0.00000
  78       14D 0        0.00000   0.00126   0.00026   0.00000   0.00050
  79       14D+1        0.00000   0.00000   0.00000   0.00000   0.00000
  80       14D-1       -0.00081   0.00000   0.00000   0.00021   0.00000
  81       14D+2        0.00000   0.00049  -0.00037   0.00000   0.00030
  82       14D-2        0.00000   0.00000   0.00000   0.00000   0.00000
  83       15F 0        0.00000  -0.00019   0.00011   0.00000  -0.00016
  84       15F+1        0.00000   0.00000   0.00000   0.00000   0.00000
  85       15F-1       -0.00016   0.00000   0.00000  -0.00012   0.00000
  86       15F+2        0.00000   0.00013   0.00002   0.00000   0.00018
  87       15F-2        0.00000   0.00000   0.00000   0.00000   0.00000
  88       15F+3        0.00000   0.00000   0.00000   0.00000   0.00000
  89       15F-3        0.00011   0.00000   0.00000   0.00000   0.00000
  90       16F 0        0.00000  -0.00045  -0.00005   0.00000  -0.00038
  91       16F+1        0.00000   0.00000   0.00000   0.00000   0.00000
  92       16F-1       -0.00085   0.00000   0.00000  -0.00010   0.00000
  93       16F+2        0.00000  -0.00013   0.00012   0.00000  -0.00005
  94       16F-2        0.00000   0.00000   0.00000   0.00000   0.00000
  95       16F+3        0.00000   0.00000   0.00000   0.00000   0.00000
  96       16F-3       -0.00019   0.00000   0.00000   0.00001   0.00000
  97 3   Br 1S          0.00051   0.00075  -0.04048   0.03775  -0.03033
  98        2S         -0.00198  -0.00277   0.14979  -0.13964   0.11277
  99        3S          0.00446   0.00604  -0.31447   0.29185  -0.24168
 100        4S         -0.00098  -0.00022  -0.00083   0.00068  -0.00179
 101        5S         -0.00010   0.00017  -0.01701   0.01568  -0.01177
 102        6S          0.01024  -0.00191   0.00541  -0.00289  -0.00451
 103        7S          0.00681   0.00112   0.00238   0.00063   0.00019
 104        8PX         0.00000   0.00000   0.00000   0.00000   0.00000
 105        8PY         0.02286   0.00492   0.20171  -0.22206  -0.00196
 106        8PZ         0.02007   0.00619   0.12964  -0.13389   0.02379
 107        9PX         0.00000   0.00000   0.00000   0.00000   0.00000
 108        9PY        -0.06056  -0.01271  -0.52434   0.57928   0.01440
 109        9PZ        -0.05416  -0.01688  -0.33756   0.34755  -0.06167
 110       10PX         0.00000   0.00000   0.00000   0.00000   0.00000
 111       10PY         0.00063  -0.00051   0.00263  -0.00087  -0.00065
 112       10PZ        -0.00052  -0.00042   0.00142  -0.00136  -0.00091
 113       11PX         0.00000   0.00000   0.00000   0.00000   0.00000
 114       11PY        -0.00336  -0.00064  -0.02489   0.02736   0.00070
 115       11PZ        -0.00314  -0.00101  -0.01613   0.01643  -0.00295
 116       12PX         0.00000   0.00000   0.00000   0.00000   0.00000
 117       12PY         0.00465   0.00018   0.00154   0.00117   0.00052
 118       12PZ         0.00205  -0.00164   0.00126   0.00026  -0.00227
 119       13PX         0.00000   0.00000   0.00000   0.00000   0.00000
 120       13PY         0.00068   0.00026   0.00043   0.00003   0.00004
 121       13PZ         0.00057   0.00013   0.00017   0.00002   0.00026
 122       14D 0       -0.00002  -0.00002   0.00133  -0.00125   0.00101
 123       14D+1        0.00000   0.00000   0.00000   0.00000   0.00000
 124       14D-1       -0.00299  -0.00088  -0.02768   0.02997  -0.00304
 125       14D+2        0.00183   0.00064   0.01726  -0.01859   0.00295
 126       14D-2        0.00000   0.00000   0.00000   0.00000   0.00000
 127       15D 0        0.00005   0.00000   0.00018  -0.00006   0.00007
 128       15D+1        0.00000   0.00000   0.00000   0.00000   0.00000
 129       15D-1       -0.00022  -0.00010  -0.00273   0.00290  -0.00042
 130       15D+2        0.00011   0.00011   0.00183  -0.00183   0.00042
 131       15D-2        0.00000   0.00000   0.00000   0.00000   0.00000
 132       16D 0       -0.00001   0.00020  -0.00001  -0.00019   0.00026
 133       16D+1        0.00000   0.00000   0.00000   0.00000   0.00000
 134       16D-1        0.00034   0.00008   0.00109  -0.00057  -0.00031
 135       16D+2       -0.00040  -0.00002  -0.00084   0.00034   0.00007
 136       16D-2        0.00000   0.00000   0.00000   0.00000   0.00000
 137       17D 0       -0.00008  -0.00025   0.00004   0.00016  -0.00037
 138       17D+1        0.00000   0.00000   0.00000   0.00000   0.00000
 139       17D-1        0.00117  -0.00021   0.00062  -0.00025  -0.00027
 140       17D+2       -0.00062  -0.00024  -0.00043  -0.00017  -0.00035
 141       17D-2        0.00000   0.00000   0.00000   0.00000   0.00000
 142       18F 0        0.00008   0.00002   0.00025  -0.00030   0.00006
 143       18F+1        0.00000   0.00000   0.00000   0.00000   0.00000
 144       18F-1       -0.00003   0.00000  -0.00011   0.00014  -0.00005
 145       18F+2        0.00001   0.00004   0.00039  -0.00044   0.00012
 146       18F-2        0.00000   0.00000   0.00000   0.00000   0.00000
 147       18F+3        0.00000   0.00000   0.00000   0.00000   0.00000
 148       18F-3       -0.00007   0.00004   0.00020  -0.00023   0.00008
 149       19F 0       -0.00002   0.00007  -0.00032   0.00032   0.00023
 150       19F+1        0.00000   0.00000   0.00000   0.00000   0.00000
 151       19F-1       -0.00004   0.00007   0.00019  -0.00028   0.00007
 152       19F+2        0.00000  -0.00006  -0.00059   0.00046   0.00000
 153       19F-2        0.00000   0.00000   0.00000   0.00000   0.00000
 154       19F+3        0.00000   0.00000   0.00000   0.00000   0.00000
 155       19F-3        0.00007  -0.00008  -0.00033   0.00017  -0.00013
 156 4   Br 1S         -0.00051   0.00075  -0.04048  -0.03775  -0.03033
 157        2S          0.00198  -0.00277   0.14979   0.13964   0.11277
 158        3S         -0.00446   0.00604  -0.31447  -0.29185  -0.24168
 159        4S          0.00098  -0.00022  -0.00083  -0.00068  -0.00179
 160        5S          0.00010   0.00017  -0.01701  -0.01568  -0.01177
 161        6S         -0.01024  -0.00191   0.00541   0.00289  -0.00451
 162        7S         -0.00681   0.00112   0.00238  -0.00063   0.00019
 163        8PX         0.00000   0.00000   0.00000   0.00000   0.00000
 164        8PY         0.02286  -0.00492  -0.20171  -0.22206   0.00196
 165        8PZ        -0.02007   0.00619   0.12964   0.13389   0.02379
 166        9PX         0.00000   0.00000   0.00000   0.00000   0.00000
 167        9PY        -0.06056   0.01271   0.52434   0.57928  -0.01440
 168        9PZ         0.05416  -0.01688  -0.33756  -0.34755  -0.06167
 169       10PX         0.00000   0.00000   0.00000   0.00000   0.00000
 170       10PY         0.00063   0.00051  -0.00263  -0.00087   0.00065
 171       10PZ         0.00052  -0.00042   0.00142   0.00136  -0.00091
 172       11PX         0.00000   0.00000   0.00000   0.00000   0.00000
 173       11PY        -0.00336   0.00064   0.02489   0.02736  -0.00070
 174       11PZ         0.00314  -0.00101  -0.01613  -0.01643  -0.00295
 175       12PX         0.00000   0.00000   0.00000   0.00000   0.00000
 176       12PY         0.00465  -0.00018  -0.00154   0.00117  -0.00052
 177       12PZ        -0.00205  -0.00164   0.00126  -0.00026  -0.00227
 178       13PX         0.00000   0.00000   0.00000   0.00000   0.00000
 179       13PY         0.00068  -0.00026  -0.00043   0.00003  -0.00004
 180       13PZ        -0.00057   0.00013   0.00017  -0.00002   0.00026
 181       14D 0        0.00002  -0.00002   0.00133   0.00125   0.00101
 182       14D+1        0.00000   0.00000   0.00000   0.00000   0.00000
 183       14D-1       -0.00299   0.00088   0.02768   0.02997   0.00304
 184       14D+2       -0.00183   0.00064   0.01726   0.01859   0.00295
 185       14D-2        0.00000   0.00000   0.00000   0.00000   0.00000
 186       15D 0       -0.00005   0.00000   0.00018   0.00006   0.00007
 187       15D+1        0.00000   0.00000   0.00000   0.00000   0.00000
 188       15D-1       -0.00022   0.00010   0.00273   0.00290   0.00042
 189       15D+2       -0.00011   0.00011   0.00183   0.00183   0.00042
 190       15D-2        0.00000   0.00000   0.00000   0.00000   0.00000
 191       16D 0        0.00001   0.00020  -0.00001   0.00019   0.00026
 192       16D+1        0.00000   0.00000   0.00000   0.00000   0.00000
 193       16D-1        0.00034  -0.00008  -0.00109  -0.00057   0.00031
 194       16D+2        0.00040  -0.00002  -0.00084  -0.00034   0.00007
 195       16D-2        0.00000   0.00000   0.00000   0.00000   0.00000
 196       17D 0        0.00008  -0.00025   0.00004  -0.00016  -0.00037
 197       17D+1        0.00000   0.00000   0.00000   0.00000   0.00000
 198       17D-1        0.00117   0.00021  -0.00062  -0.00025   0.00027
 199       17D+2        0.00062  -0.00024  -0.00043   0.00017  -0.00035
 200       17D-2        0.00000   0.00000   0.00000   0.00000   0.00000
 201       18F 0       -0.00008   0.00002   0.00025   0.00030   0.00006
 202       18F+1        0.00000   0.00000   0.00000   0.00000   0.00000
 203       18F-1       -0.00003   0.00000   0.00011   0.00014   0.00005
 204       18F+2       -0.00001   0.00004   0.00039   0.00044   0.00012
 205       18F-2        0.00000   0.00000   0.00000   0.00000   0.00000
 206       18F+3        0.00000   0.00000   0.00000   0.00000   0.00000
 207       18F-3       -0.00007  -0.00004  -0.00020  -0.00023  -0.00008
 208       19F 0        0.00002   0.00007  -0.00032  -0.00032   0.00023
 209       19F+1        0.00000   0.00000   0.00000   0.00000   0.00000
 210       19F-1       -0.00004  -0.00007  -0.00019  -0.00028  -0.00007
 211       19F+2        0.00000  -0.00006  -0.00059  -0.00046   0.00000
 212       19F-2        0.00000   0.00000   0.00000   0.00000   0.00000
 213       19F+3        0.00000   0.00000   0.00000   0.00000   0.00000
 214       19F-3        0.00007   0.00008   0.00033   0.00017   0.00013
                           6         7         8         9        10
     Eigenvalues --     2.00001   2.00001   2.00001   2.00001   2.00001
   1 1   C  1S          0.00000   0.00467   0.00000   0.00000  -0.08986
   2        2S          0.00000  -0.00119   0.00000   0.00000   0.00136
   3        3S          0.00000  -0.00006   0.00000   0.00000  -0.00368
   4        4S          0.00000   0.00821   0.00000   0.00000   0.00156
   5        5S          0.00000   0.00070   0.00000   0.00000  -0.00066
   6        6PX         0.00000   0.00000  -0.00079   0.00000   0.00000
   7        6PY        -0.00001   0.00000   0.00000  -0.00032   0.00000
   8        6PZ         0.00000  -0.00077   0.00000   0.00000   0.00051
   9        7PX         0.00000   0.00000  -0.00010   0.00000   0.00000
  10        7PY         0.00014   0.00000   0.00000  -0.00046   0.00000
  11        7PZ         0.00000  -0.00049   0.00000   0.00000   0.00011
  12        8PX         0.00000   0.00000   0.00153   0.00000   0.00000
  13        8PY         0.00065   0.00000   0.00000  -0.00522   0.00000
  14        8PZ         0.00000   0.00163   0.00000   0.00000   0.00954
  15        9PX         0.00000   0.00000  -0.00093   0.00000   0.00000
  16        9PY         0.00259   0.00000   0.00000  -0.00117   0.00000
  17        9PZ         0.00000   0.00082   0.00000   0.00000   0.00168
  18       10D 0        0.00000  -0.00009   0.00000   0.00000  -0.00015
  19       10D+1        0.00000   0.00000  -0.00022   0.00000   0.00000
  20       10D-1       -0.00013   0.00000   0.00000  -0.00005   0.00000
  21       10D+2        0.00000   0.00011   0.00000   0.00000  -0.00007
  22       10D-2        0.00000   0.00000   0.00000   0.00000   0.00000
  23       11D 0        0.00000   0.00025   0.00000   0.00000  -0.00027
  24       11D+1        0.00000   0.00000   0.00062   0.00000   0.00000
  25       11D-1       -0.00001   0.00000   0.00000  -0.00039   0.00000
  26       11D+2        0.00000  -0.00036   0.00000   0.00000  -0.00030
  27       11D-2        0.00000   0.00000   0.00000   0.00000   0.00000
  28       12D 0        0.00000   0.00103   0.00000   0.00000   0.00020
  29       12D+1        0.00000   0.00000  -0.00136   0.00000   0.00000
  30       12D-1        0.00098   0.00000   0.00000   0.00067   0.00000
  31       12D+2        0.00000  -0.00014   0.00000   0.00000   0.00043
  32       12D-2        0.00000   0.00000   0.00000   0.00000   0.00000
  33       13F 0        0.00000  -0.00011   0.00000   0.00000  -0.00003
  34       13F+1        0.00000   0.00000  -0.00014   0.00000   0.00000
  35       13F-1        0.00002   0.00000   0.00000   0.00003   0.00000
  36       13F+2        0.00000  -0.00003   0.00000   0.00000   0.00005
  37       13F-2        0.00000   0.00000   0.00000   0.00000   0.00000
  38       13F+3        0.00000   0.00000   0.00005   0.00000   0.00000
  39       13F-3       -0.00002   0.00000   0.00000  -0.00003   0.00000
  40       14F 0        0.00000   0.00017   0.00000   0.00000   0.00047
  41       14F+1        0.00000   0.00000   0.00097   0.00000   0.00000
  42       14F-1        0.00000   0.00000   0.00000  -0.00030   0.00000
  43       14F+2        0.00000   0.00017   0.00000   0.00000  -0.00034
  44       14F-2        0.00000   0.00000   0.00000   0.00000   0.00000
  45       14F+3        0.00000   0.00000  -0.00030   0.00000   0.00000
  46       14F-3        0.00001   0.00000   0.00000   0.00023   0.00000
  47 2   S  1S          0.00000  -0.06357   0.00000   0.00000   0.01452
  48        2S          0.00000   0.21903   0.00000   0.00000  -0.05093
  49        3S          0.00000  -0.00372   0.00000   0.00000   0.00089
  50        4S          0.00000   0.01571   0.00000   0.00000  -0.00368
  51        5S          0.00000  -0.00547   0.00000   0.00000  -0.00642
  52        6S          0.00000  -0.00198   0.00000   0.00000  -0.00424
  53        7PX         0.00000   0.00000   0.73886   0.00000   0.00000
  54        7PY         0.04589   0.00000   0.00000   0.02367   0.00000
  55        7PZ         0.00000  -0.21288   0.00000   0.00000   0.04262
  56        8PX         0.00000   0.00000  -0.00943   0.00000   0.00000
  57        8PY        -0.00055   0.00000   0.00000   0.00039   0.00000
  58        8PZ         0.00000   0.00384   0.00000   0.00000   0.00007
  59        9PX         0.00000   0.00000   0.04706   0.00000   0.00000
  60        9PY         0.00283   0.00000   0.00000   0.00140   0.00000
  61        9PZ         0.00000  -0.01379   0.00000   0.00000   0.00271
  62       10PX         0.00000   0.00000   0.00048   0.00000   0.00000
  63       10PY        -0.00064   0.00000   0.00000   0.00135   0.00000
  64       10PZ         0.00000   0.00255   0.00000   0.00000   0.00402
  65       11PX         0.00000   0.00000  -0.00015   0.00000   0.00000
  66       11PY        -0.00048   0.00000   0.00000   0.00011   0.00000
  67       11PZ         0.00000   0.00015   0.00000   0.00000   0.00052
  68       12D 0        0.00000  -0.00102   0.00000   0.00000   0.00015
  69       12D+1        0.00000   0.00000   0.00166   0.00000   0.00000
  70       12D-1        0.00023   0.00000   0.00000  -0.00045   0.00000
  71       12D+2        0.00000  -0.00012   0.00000   0.00000   0.00009
  72       12D-2        0.00000   0.00000   0.00000   0.00000   0.00000
  73       13D 0        0.00000   0.00013   0.00000   0.00000  -0.00004
  74       13D+1        0.00000   0.00000  -0.00017   0.00000   0.00000
  75       13D-1        0.00000   0.00000   0.00000   0.00008   0.00000
  76       13D+2        0.00000   0.00009   0.00000   0.00000  -0.00005
  77       13D-2        0.00000   0.00000   0.00000   0.00000   0.00000
  78       14D 0        0.00000  -0.00035   0.00000   0.00000  -0.00062
  79       14D+1        0.00000   0.00000  -0.00045   0.00000   0.00000
  80       14D-1        0.00016   0.00000   0.00000  -0.00053   0.00000
  81       14D+2        0.00000   0.00005   0.00000   0.00000  -0.00011
  82       14D-2        0.00000   0.00000   0.00000   0.00000   0.00000
  83       15F 0        0.00000   0.00000   0.00000   0.00000  -0.00002
  84       15F+1        0.00000   0.00000  -0.00019   0.00000   0.00000
  85       15F-1       -0.00004   0.00000   0.00000   0.00006   0.00000
  86       15F+2        0.00000  -0.00004   0.00000   0.00000  -0.00006
  87       15F-2        0.00000   0.00000   0.00000   0.00000   0.00000
  88       15F+3        0.00000   0.00000   0.00011   0.00000   0.00000
  89       15F-3        0.00001   0.00000   0.00000  -0.00001   0.00000
  90       16F 0        0.00000   0.00022   0.00000   0.00000  -0.00022
  91       16F+1        0.00000   0.00000  -0.00036   0.00000   0.00000
  92       16F-1       -0.00003   0.00000   0.00000   0.00018   0.00000
  93       16F+2        0.00000   0.00009   0.00000   0.00000   0.00003
  94       16F-2        0.00000   0.00000   0.00000   0.00000   0.00000
  95       16F+3        0.00000   0.00000  -0.00010   0.00000   0.00000
  96       16F-3       -0.00004   0.00000   0.00000   0.00002   0.00000
  97 3   Br 1S         -0.08417  -0.07712   0.00000  -0.00618   0.00570
  98        2S          0.31347   0.28733   0.00000   0.02316  -0.02139
  99        3S         -0.67599  -0.62062   0.00000  -0.05034   0.04691
 100        4S         -0.00210  -0.00179   0.00000  -0.00011  -0.00006
 101        5S         -0.03275  -0.02983   0.00000  -0.00239   0.00222
 102        6S         -0.00621  -0.00660   0.00000  -0.00321   0.00340
 103        7S          0.00417   0.00077   0.00000  -0.00199   0.00205
 104        8PX         0.00000   0.00000  -0.17051   0.00000   0.00000
 105        8PY        -0.09909  -0.08220   0.00000   0.12875   0.15828
 106        8PZ        -0.03654  -0.08559   0.00000  -0.23026  -0.20963
 107        9PX         0.00000   0.00000   0.48215   0.00000   0.00000
 108        9PY         0.27832   0.22667   0.00000  -0.36329  -0.44009
 109        9PZ         0.10270   0.23880   0.00000   0.64469   0.58958
 110       10PX         0.00000   0.00000   0.00120   0.00000   0.00000
 111       10PY         0.00005  -0.00070   0.00000  -0.00133   0.00013
 112       10PZ        -0.00024  -0.00006   0.00000   0.00088   0.00114
 113       11PX         0.00000   0.00000   0.02169   0.00000   0.00000
 114       11PY         0.01262   0.01025   0.00000  -0.01615  -0.01948
 115       11PZ         0.00461   0.01093   0.00000   0.02868   0.02617
 116       12PX         0.00000   0.00000   0.00151   0.00000   0.00000
 117       12PY         0.00213   0.00007   0.00000  -0.00352   0.00022
 118       12PZ         0.00100   0.00094   0.00000   0.00214   0.00329
 119       13PX         0.00000   0.00000   0.00023   0.00000   0.00000
 120       13PY         0.00042   0.00010   0.00000  -0.00011   0.00048
 121       13PZ         0.00048  -0.00003   0.00000  -0.00046  -0.00007
 122       14D 0        0.00083  -0.00122   0.00000  -0.00989  -0.00986
 123       14D+1        0.00000   0.00000  -0.00036   0.00000   0.00000
 124       14D-1        0.00644   0.00710   0.00000  -0.00400  -0.00742
 125       14D+2       -0.00270  -0.00509   0.00000  -0.00700  -0.00512
 126       14D-2        0.00000   0.00000  -0.00022   0.00000   0.00000
 127       15D 0        0.00008  -0.00008   0.00000  -0.00062  -0.00059
 128       15D+1        0.00000   0.00000  -0.00001   0.00000   0.00000
 129       15D-1        0.00034   0.00048   0.00000  -0.00025  -0.00047
 130       15D+2       -0.00011  -0.00035   0.00000  -0.00046  -0.00029
 131       15D-2        0.00000   0.00000   0.00008   0.00000   0.00000
 132       16D 0        0.00005  -0.00013   0.00000  -0.00026  -0.00042
 133       16D+1        0.00000   0.00000  -0.00015   0.00000   0.00000
 134       16D-1        0.00027  -0.00016   0.00000  -0.00019  -0.00017
 135       16D+2       -0.00011   0.00005   0.00000  -0.00013  -0.00031
 136       16D-2        0.00000   0.00000  -0.00034   0.00000   0.00000
 137       17D 0        0.00010   0.00001   0.00000   0.00006  -0.00032
 138       17D+1        0.00000   0.00000  -0.00028   0.00000   0.00000
 139       17D-1        0.00024  -0.00005   0.00000  -0.00031   0.00025
 140       17D+2       -0.00031   0.00015   0.00000   0.00022  -0.00040
 141       17D-2        0.00000   0.00000  -0.00054   0.00000   0.00000
 142       18F 0       -0.00008  -0.00008   0.00000   0.00005   0.00010
 143       18F+1        0.00000   0.00000   0.00001   0.00000   0.00000
 144       18F-1        0.00001   0.00005   0.00000   0.00035   0.00032
 145       18F+2       -0.00010  -0.00012   0.00000  -0.00002   0.00002
 146       18F-2        0.00000   0.00000   0.00018   0.00000   0.00000
 147       18F+3        0.00000   0.00000  -0.00018   0.00000   0.00000
 148       18F-3       -0.00003  -0.00007   0.00000   0.00013   0.00009
 149       19F 0        0.00007   0.00006   0.00000  -0.00005  -0.00009
 150       19F+1        0.00000   0.00000  -0.00001   0.00000   0.00000
 151       19F-1        0.00004  -0.00012   0.00000  -0.00029  -0.00041
 152       19F+2        0.00002   0.00015   0.00000   0.00000   0.00001
 153       19F-2        0.00000   0.00000  -0.00021   0.00000   0.00000
 154       19F+3        0.00000   0.00000   0.00034   0.00000   0.00000
 155       19F-3       -0.00004   0.00008   0.00000  -0.00016  -0.00009
 156 4   Br 1S          0.08417  -0.07712   0.00000   0.00618   0.00570
 157        2S         -0.31347   0.28733   0.00000  -0.02316  -0.02139
 158        3S          0.67599  -0.62062   0.00000   0.05034   0.04691
 159        4S          0.00210  -0.00179   0.00000   0.00011  -0.00006
 160        5S          0.03275  -0.02983   0.00000   0.00239   0.00222
 161        6S          0.00621  -0.00660   0.00000   0.00321   0.00340
 162        7S         -0.00417   0.00077   0.00000   0.00199   0.00205
 163        8PX         0.00000   0.00000  -0.17051   0.00000   0.00000
 164        8PY        -0.09909   0.08220   0.00000   0.12875  -0.15828
 165        8PZ         0.03654  -0.08559   0.00000   0.23026  -0.20963
 166        9PX         0.00000   0.00000   0.48215   0.00000   0.00000
 167        9PY         0.27832  -0.22667   0.00000  -0.36329   0.44009
 168        9PZ        -0.10270   0.23880   0.00000  -0.64469   0.58958
 169       10PX         0.00000   0.00000   0.00120   0.00000   0.00000
 170       10PY         0.00005   0.00070   0.00000  -0.00133  -0.00013
 171       10PZ         0.00024  -0.00006   0.00000  -0.00088   0.00114
 172       11PX         0.00000   0.00000   0.02169   0.00000   0.00000
 173       11PY         0.01262  -0.01025   0.00000  -0.01615   0.01948
 174       11PZ        -0.00461   0.01093   0.00000  -0.02868   0.02617
 175       12PX         0.00000   0.00000   0.00151   0.00000   0.00000
 176       12PY         0.00213  -0.00007   0.00000  -0.00352  -0.00022
 177       12PZ        -0.00100   0.00094   0.00000  -0.00214   0.00329
 178       13PX         0.00000   0.00000   0.00023   0.00000   0.00000
 179       13PY         0.00042  -0.00010   0.00000  -0.00011  -0.00048
 180       13PZ        -0.00048  -0.00003   0.00000   0.00046  -0.00007
 181       14D 0       -0.00083  -0.00122   0.00000   0.00989  -0.00986
 182       14D+1        0.00000   0.00000  -0.00036   0.00000   0.00000
 183       14D-1        0.00644  -0.00710   0.00000  -0.00400   0.00742
 184       14D+2        0.00270  -0.00509   0.00000   0.00700  -0.00512
 185       14D-2        0.00000   0.00000   0.00022   0.00000   0.00000
 186       15D 0       -0.00008  -0.00008   0.00000   0.00062  -0.00059
 187       15D+1        0.00000   0.00000  -0.00001   0.00000   0.00000
 188       15D-1        0.00034  -0.00048   0.00000  -0.00025   0.00047
 189       15D+2        0.00011  -0.00035   0.00000   0.00046  -0.00029
 190       15D-2        0.00000   0.00000  -0.00008   0.00000   0.00000
 191       16D 0       -0.00005  -0.00013   0.00000   0.00026  -0.00042
 192       16D+1        0.00000   0.00000  -0.00015   0.00000   0.00000
 193       16D-1        0.00027   0.00016   0.00000  -0.00019   0.00017
 194       16D+2        0.00011   0.00005   0.00000   0.00013  -0.00031
 195       16D-2        0.00000   0.00000   0.00034   0.00000   0.00000
 196       17D 0       -0.00010   0.00001   0.00000  -0.00006  -0.00032
 197       17D+1        0.00000   0.00000  -0.00028   0.00000   0.00000
 198       17D-1        0.00024   0.00005   0.00000  -0.00031  -0.00025
 199       17D+2        0.00031   0.00015   0.00000  -0.00022  -0.00040
 200       17D-2        0.00000   0.00000   0.00054   0.00000   0.00000
 201       18F 0        0.00008  -0.00008   0.00000  -0.00005   0.00010
 202       18F+1        0.00000   0.00000   0.00001   0.00000   0.00000
 203       18F-1        0.00001  -0.00005   0.00000   0.00035  -0.00032
 204       18F+2        0.00010  -0.00012   0.00000   0.00002   0.00002
 205       18F-2        0.00000   0.00000  -0.00018   0.00000   0.00000
 206       18F+3        0.00000   0.00000  -0.00018   0.00000   0.00000
 207       18F-3       -0.00003   0.00007   0.00000   0.00013  -0.00009
 208       19F 0       -0.00007   0.00006   0.00000   0.00005  -0.00009
 209       19F+1        0.00000   0.00000  -0.00001   0.00000   0.00000
 210       19F-1        0.00004   0.00012   0.00000  -0.00029   0.00041
 211       19F+2       -0.00002   0.00015   0.00000   0.00000   0.00001
 212       19F-2        0.00000   0.00000   0.00021   0.00000   0.00000
 213       19F+3        0.00000   0.00000   0.00034   0.00000   0.00000
 214       19F-3       -0.00004  -0.00008   0.00000  -0.00016   0.00009
                          11        12        13        14        15
     Eigenvalues --     2.00001   2.00000   2.00000   2.00000   2.00000
   1 1   C  1S          0.00000   0.00000   0.77254  -0.00123   0.00000
   2        2S          0.00000   0.00000  -0.00781   0.00001   0.00000
   3        3S          0.00000   0.00000   0.03238  -0.00005   0.00000
   4        4S          0.00000   0.00000  -0.00948  -0.00019   0.00000
   5        5S          0.00000   0.00000  -0.00521   0.00007   0.00000
   6        6PX         0.00000  -0.00154   0.00000   0.00000   0.00000
   7        6PY         0.00000   0.00000   0.00000   0.00000   0.00000
   8        6PZ         0.00000   0.00000  -0.00060   0.00001   0.00000
   9        7PX         0.00000  -0.00172   0.00000   0.00000   0.00000
  10        7PY         0.00000   0.00000   0.00000   0.00000  -0.00001
  11        7PZ         0.00000   0.00000   0.00172   0.00002   0.00000
  12        8PX         0.00000  -0.00158   0.00000   0.00000   0.00000
  13        8PY         0.00000   0.00000   0.00000   0.00000   0.00032
  14        8PZ         0.00000   0.00000  -0.00379  -0.00102   0.00000
  15        9PX         0.00000  -0.00047   0.00000   0.00000   0.00000
  16        9PY         0.00000   0.00000   0.00000   0.00000   0.00011
  17        9PZ         0.00000   0.00000   0.00076  -0.00018   0.00000
  18       10D 0        0.00000   0.00000   0.00032   0.00000   0.00000
  19       10D+1        0.00000  -0.00008   0.00000   0.00000   0.00000
  20       10D-1        0.00000   0.00000   0.00000   0.00000   0.00000
  21       10D+2        0.00000   0.00000  -0.00026   0.00000   0.00000
  22       10D-2       -0.00009   0.00000   0.00000   0.00000   0.00000
  23       11D 0        0.00000   0.00000  -0.00026   0.00001   0.00000
  24       11D+1        0.00000   0.00108   0.00000   0.00000   0.00000
  25       11D-1        0.00000   0.00000   0.00000   0.00000   0.00002
  26       11D+2        0.00000   0.00000   0.00148   0.00001   0.00000
  27       11D-2       -0.00066   0.00000   0.00000   0.00000   0.00000
  28       12D 0        0.00000   0.00000  -0.00390  -0.00010   0.00000
  29       12D+1        0.00000  -0.00145   0.00000   0.00000   0.00000
  30       12D-1        0.00000   0.00000   0.00000   0.00000  -0.00001
  31       12D+2        0.00000   0.00000  -0.00147  -0.00008   0.00000
  32       12D-2        0.00006   0.00000   0.00000   0.00000   0.00000
  33       13F 0        0.00000   0.00000   0.00034   0.00001   0.00000
  34       13F+1        0.00000  -0.00008   0.00000   0.00000   0.00000
  35       13F-1        0.00000   0.00000   0.00000   0.00000   0.00001
  36       13F+2        0.00000   0.00000  -0.00007  -0.00001   0.00000
  37       13F-2        0.00000   0.00000   0.00000   0.00000   0.00000
  38       13F+3        0.00000   0.00001   0.00000   0.00000   0.00000
  39       13F-3        0.00000   0.00000   0.00000   0.00000   0.00000
  40       14F 0        0.00000   0.00000  -0.00106  -0.00004   0.00000
  41       14F+1        0.00000   0.00050   0.00000   0.00000   0.00000
  42       14F-1        0.00000   0.00000   0.00000   0.00000  -0.00005
  43       14F+2        0.00000   0.00000  -0.00087   0.00005   0.00000
  44       14F-2        0.00020   0.00000   0.00000   0.00000   0.00000
  45       14F+3        0.00000   0.00019   0.00000   0.00000   0.00000
  46       14F-3        0.00000   0.00000   0.00000   0.00000  -0.00004
  47 2   S  1S          0.00000   0.00000   0.06044  -0.00227   0.00000
  48        2S          0.00000   0.00000  -0.21043   0.00000   0.00000
  49        3S          0.00000   0.00000   0.00227  -0.00003   0.00000
  50        4S          0.00000   0.00000  -0.01547   0.00001   0.00000
  51        5S          0.00000   0.00000   0.00909   0.00081   0.00000
  52        6S          0.00000   0.00000  -0.00007   0.00047   0.00000
  53        7PX         0.00000   0.63161   0.00000   0.00000   0.00000
  54        7PY         0.00000   0.00000   0.00000   0.00000  -0.00008
  55        7PZ         0.00000   0.00000   0.46507  -0.00028   0.00000
  56        8PX         0.00000  -0.00691   0.00000   0.00000   0.00000
  57        8PY         0.00000   0.00000   0.00000   0.00000   0.00002
  58        8PZ         0.00000   0.00000  -0.00522  -0.00007   0.00000
  59        9PX         0.00000   0.04069   0.00000   0.00000   0.00000
  60        9PY         0.00000   0.00000   0.00000   0.00000   0.00000
  61        9PZ         0.00000   0.00000   0.03062  -0.00001   0.00000
  62       10PX         0.00000   0.00270   0.00000   0.00000   0.00000
  63       10PY         0.00000   0.00000   0.00000   0.00000  -0.00008
  64       10PZ         0.00000   0.00000  -0.00112  -0.00046   0.00000
  65       11PX         0.00000  -0.00023   0.00000   0.00000   0.00000
  66       11PY         0.00000   0.00000   0.00000   0.00000  -0.00001
  67       11PZ         0.00000   0.00000  -0.00001  -0.00005   0.00000
  68       12D 0        0.00000   0.00000   0.00084   0.00001   0.00000
  69       12D+1        0.00000   0.00121   0.00000   0.00000   0.00000
  70       12D-1        0.00000   0.00000   0.00000   0.00000   0.00001
  71       12D+2        0.00000   0.00000   0.00029  -0.00002   0.00000
  72       12D-2       -0.00004   0.00000   0.00000   0.00000   0.00000
  73       13D 0        0.00000   0.00000  -0.00057   0.00000   0.00000
  74       13D+1        0.00000  -0.00004   0.00000   0.00000   0.00000
  75       13D-1        0.00000   0.00000   0.00000   0.00000  -0.00001
  76       13D+2        0.00000   0.00000  -0.00010   0.00000   0.00000
  77       13D-2       -0.00003   0.00000   0.00000   0.00000   0.00000
  78       14D 0        0.00000   0.00000  -0.00005   0.00007   0.00000
  79       14D+1        0.00000  -0.00109   0.00000   0.00000   0.00000
  80       14D-1        0.00000   0.00000   0.00000   0.00000   0.00004
  81       14D+2        0.00000   0.00000   0.00055   0.00001   0.00000
  82       14D-2        0.00000   0.00000   0.00000   0.00000   0.00000
  83       15F 0        0.00000   0.00000   0.00043   0.00000   0.00000
  84       15F+1        0.00000  -0.00021   0.00000   0.00000   0.00000
  85       15F-1        0.00000   0.00000   0.00000   0.00000   0.00000
  86       15F+2        0.00000   0.00000   0.00011   0.00001   0.00000
  87       15F-2        0.00000   0.00000   0.00000   0.00000   0.00000
  88       15F+3        0.00000   0.00009   0.00000   0.00000   0.00000
  89       15F-3        0.00000   0.00000   0.00000   0.00000   0.00000
  90       16F 0        0.00000   0.00000  -0.00036   0.00002   0.00000
  91       16F+1        0.00000  -0.00012   0.00000   0.00000   0.00000
  92       16F-1        0.00000   0.00000   0.00000   0.00000  -0.00001
  93       16F+2        0.00000   0.00000  -0.00045   0.00000   0.00000
  94       16F-2        0.00001   0.00000   0.00000   0.00000   0.00000
  95       16F+3        0.00000  -0.00011   0.00000   0.00000   0.00000
  96       16F-3        0.00000   0.00000   0.00000   0.00000   0.00000
  97 3   Br 1S          0.00000   0.00000   0.00144  -0.00137   0.01281
  98        2S          0.00000   0.00000  -0.00407   0.00217  -0.03958
  99        3S          0.00000   0.00000  -0.00703  -0.00003  -0.00363
 100        4S          0.00000   0.00000   0.00064   0.00003   0.00000
 101        5S          0.00000   0.00000  -0.00051   0.00000  -0.00011
 102        6S          0.00000   0.00000   0.00083  -0.00036   0.00012
 103        7S          0.00000   0.00000   0.00244  -0.00023   0.00023
 104        8PX        -0.26236   0.20047   0.00000   0.00000   0.00000
 105        8PY         0.00000   0.00000  -0.08300  -0.41147  -0.50948
 106        8PZ         0.00000   0.00000  -0.07319   0.58239   0.49470
 107        9PX         0.74197  -0.56443   0.00000   0.00000   0.00000
 108        9PY         0.00000   0.00000   0.16999   0.00692   0.00673
 109        9PZ         0.00000   0.00000   0.16516  -0.01232  -0.01235
 110       10PX         0.00125   0.00026   0.00000   0.00000   0.00000
 111       10PY         0.00000   0.00000  -0.00028  -0.00024  -0.00022
 112       10PZ         0.00000   0.00000  -0.00003   0.00024   0.00024
 113       11PX         0.03312  -0.02460   0.00000   0.00000   0.00000
 114       11PY         0.00000   0.00000   0.00702   0.00061   0.00067
 115       11PZ         0.00000   0.00000   0.00676  -0.00095  -0.00088
 116       12PX         0.00383  -0.00252   0.00000   0.00000   0.00000
 117       12PY         0.00000   0.00000   0.00188  -0.00016   0.00018
 118       12PZ         0.00000   0.00000  -0.00009  -0.00017   0.00001
 119       13PX        -0.00031   0.00037   0.00000   0.00000   0.00000
 120       13PY         0.00000   0.00000   0.00036  -0.00005   0.00002
 121       13PZ         0.00000   0.00000   0.00017   0.00001   0.00005
 122       14D 0        0.00000   0.00000  -0.00124   0.00040   0.00039
 123       14D+1       -0.00056   0.00022   0.00000   0.00000   0.00000
 124       14D-1        0.00000   0.00000   0.01056   0.00020   0.00027
 125       14D+2        0.00000   0.00000  -0.00724   0.00024   0.00018
 126       14D-2        0.00003  -0.00019   0.00000   0.00000   0.00000
 127       15D 0        0.00000   0.00000  -0.00009   0.00001   0.00001
 128       15D+1        0.00004  -0.00010   0.00000   0.00000   0.00000
 129       15D-1        0.00000   0.00000   0.00092   0.00000   0.00002
 130       15D+2        0.00000   0.00000  -0.00064   0.00001   0.00000
 131       15D-2        0.00010  -0.00015   0.00000   0.00000   0.00000
 132       16D 0        0.00000   0.00000   0.00014   0.00006   0.00006
 133       16D+1       -0.00011   0.00012   0.00000   0.00000   0.00000
 134       16D-1        0.00000   0.00000   0.00098   0.00002   0.00002
 135       16D+2        0.00000   0.00000  -0.00041   0.00005   0.00003
 136       16D-2       -0.00019   0.00000   0.00000   0.00000   0.00000
 137       17D 0        0.00000   0.00000  -0.00024   0.00001  -0.00002
 138       17D+1        0.00007  -0.00011   0.00000   0.00000   0.00000
 139       17D-1        0.00000   0.00000   0.00012  -0.00004   0.00002
 140       17D+2        0.00000   0.00000  -0.00050   0.00003  -0.00004
 141       17D-2        0.00013  -0.00035   0.00000   0.00000   0.00000
 142       18F 0        0.00000   0.00000  -0.00012   0.00000   0.00000
 143       18F+1        0.00002  -0.00002   0.00000   0.00000   0.00000
 144       18F-1        0.00000   0.00000   0.00011  -0.00001  -0.00001
 145       18F+2        0.00000   0.00000  -0.00019   0.00000   0.00000
 146       18F-2        0.00023  -0.00019   0.00000   0.00000   0.00000
 147       18F+3       -0.00018   0.00012   0.00000   0.00000   0.00000
 148       18F-3        0.00000   0.00000  -0.00007   0.00000   0.00000
 149       19F 0        0.00000   0.00000  -0.00007   0.00001   0.00001
 150       19F+1       -0.00002   0.00006   0.00000   0.00000   0.00000
 151       19F-1        0.00000   0.00000   0.00021   0.00003   0.00002
 152       19F+2        0.00000   0.00000  -0.00021   0.00000   0.00001
 153       19F-2       -0.00018   0.00016   0.00000   0.00000   0.00000
 154       19F+3        0.00014   0.00001   0.00000   0.00000   0.00000
 155       19F-3        0.00000   0.00000  -0.00006   0.00001   0.00001
 156 4   Br 1S          0.00000   0.00000   0.00144  -0.00140  -0.01281
 157        2S          0.00000   0.00000  -0.00407   0.00226   0.03957
 158        3S          0.00000   0.00000  -0.00703  -0.00002   0.00363
 159        4S          0.00000   0.00000   0.00064   0.00003   0.00000
 160        5S          0.00000   0.00000  -0.00051   0.00000   0.00011
 161        6S          0.00000   0.00000   0.00083  -0.00036  -0.00012
 162        7S          0.00000   0.00000   0.00244  -0.00023  -0.00023
 163        8PX         0.26236   0.20047   0.00000   0.00000   0.00000
 164        8PY         0.00000   0.00000   0.08300   0.41028  -0.51044
 165        8PZ         0.00000   0.00000  -0.07319   0.58123  -0.49606
 166        9PX        -0.74197  -0.56443   0.00000   0.00000   0.00000
 167        9PY         0.00000   0.00000  -0.16999  -0.00691   0.00674
 168        9PZ         0.00000   0.00000   0.16516  -0.01229   0.01238
 169       10PX        -0.00125   0.00026   0.00000   0.00000   0.00000
 170       10PY         0.00000   0.00000   0.00028   0.00024  -0.00022
 171       10PZ         0.00000   0.00000  -0.00003   0.00024  -0.00024
 172       11PX        -0.03312  -0.02460   0.00000   0.00000   0.00000
 173       11PY         0.00000   0.00000  -0.00702  -0.00061   0.00067
 174       11PZ         0.00000   0.00000   0.00676  -0.00095   0.00089
 175       12PX        -0.00383  -0.00252   0.00000   0.00000   0.00000
 176       12PY         0.00000   0.00000  -0.00188   0.00016   0.00018
 177       12PZ         0.00000   0.00000  -0.00009  -0.00017  -0.00001
 178       13PX         0.00031   0.00037   0.00000   0.00000   0.00000
 179       13PY         0.00000   0.00000  -0.00036   0.00005   0.00002
 180       13PZ         0.00000   0.00000   0.00017   0.00001  -0.00005
 181       14D 0        0.00000   0.00000  -0.00124   0.00040  -0.00039
 182       14D+1        0.00056   0.00022   0.00000   0.00000   0.00000
 183       14D-1        0.00000   0.00000  -0.01056  -0.00019   0.00027
 184       14D+2        0.00000   0.00000  -0.00724   0.00024  -0.00018
 185       14D-2        0.00003   0.00019   0.00000   0.00000   0.00000
 186       15D 0        0.00000   0.00000  -0.00009   0.00001  -0.00001
 187       15D+1       -0.00004  -0.00010   0.00000   0.00000   0.00000
 188       15D-1        0.00000   0.00000  -0.00092   0.00000   0.00002
 189       15D+2        0.00000   0.00000  -0.00064   0.00001   0.00000
 190       15D-2        0.00010   0.00015   0.00000   0.00000   0.00000
 191       16D 0        0.00000   0.00000   0.00014   0.00006  -0.00006
 192       16D+1        0.00011   0.00012   0.00000   0.00000   0.00000
 193       16D-1        0.00000   0.00000  -0.00098  -0.00002   0.00002
 194       16D+2        0.00000   0.00000  -0.00041   0.00005  -0.00003
 195       16D-2       -0.00019   0.00000   0.00000   0.00000   0.00000
 196       17D 0        0.00000   0.00000  -0.00024   0.00001   0.00002
 197       17D+1       -0.00007  -0.00011   0.00000   0.00000   0.00000
 198       17D-1        0.00000   0.00000  -0.00012   0.00004   0.00002
 199       17D+2        0.00000   0.00000  -0.00050   0.00003   0.00004
 200       17D-2        0.00013   0.00035   0.00000   0.00000   0.00000
 201       18F 0        0.00000   0.00000  -0.00012   0.00000   0.00000
 202       18F+1       -0.00002  -0.00002   0.00000   0.00000   0.00000
 203       18F-1        0.00000   0.00000  -0.00011   0.00001  -0.00001
 204       18F+2        0.00000   0.00000  -0.00019   0.00000   0.00000
 205       18F-2        0.00023   0.00019   0.00000   0.00000   0.00000
 206       18F+3        0.00018   0.00012   0.00000   0.00000   0.00000
 207       18F-3        0.00000   0.00000   0.00007   0.00000   0.00000
 208       19F 0        0.00000   0.00000  -0.00007   0.00001  -0.00001
 209       19F+1        0.00002   0.00006   0.00000   0.00000   0.00000
 210       19F-1        0.00000   0.00000  -0.00021  -0.00003   0.00002
 211       19F+2        0.00000   0.00000  -0.00021   0.00000  -0.00001
 212       19F-2       -0.00018  -0.00016   0.00000   0.00000   0.00000
 213       19F+3       -0.00014   0.00001   0.00000   0.00000   0.00000
 214       19F-3        0.00000   0.00000   0.00006  -0.00001   0.00001
                          16        17        18        19        20
     Eigenvalues --     2.00000   2.00000   2.00000   2.00000   2.00000
   1 1   C  1S          0.00000   0.00000   0.00000   0.02386   0.00000
   2        2S          0.00000   0.00000   0.00000  -0.00022   0.00000
   3        3S          0.00000   0.00000   0.00000   0.00105   0.00000
   4        4S          0.00000   0.00000   0.00000  -0.00136   0.00000
   5        5S          0.00000   0.00000   0.00000  -0.00063   0.00000
   6        6PX         0.00000   0.00001   0.00000   0.00000   0.00000
   7        6PY        -0.00003   0.00000   0.00000   0.00000   0.00000
   8        6PZ         0.00000   0.00000   0.00000  -0.00004   0.00000
   9        7PX         0.00000  -0.00002   0.00000   0.00000   0.00000
  10        7PY         0.00006   0.00000   0.00000   0.00000  -0.00002
  11        7PZ         0.00000   0.00000   0.00000   0.00007   0.00000
  12        8PX         0.00000  -0.00015   0.00000   0.00000   0.00000
  13        8PY         0.00060   0.00000   0.00000   0.00000  -0.00002
  14        8PZ         0.00000   0.00000   0.00000   0.00054   0.00000
  15        9PX         0.00000   0.00003   0.00000   0.00000   0.00000
  16        9PY         0.00006   0.00000   0.00000   0.00000   0.00001
  17        9PZ         0.00000   0.00000   0.00000   0.00013   0.00000
  18       10D 0        0.00000   0.00000   0.00000   0.00001   0.00000
  19       10D+1        0.00000   0.00000   0.00000   0.00000   0.00000
  20       10D-1        0.00000   0.00000   0.00000   0.00000   0.00000
  21       10D+2        0.00000   0.00000   0.00000  -0.00001   0.00000
  22       10D-2        0.00000   0.00000  -0.00001   0.00000   0.00000
  23       11D 0        0.00000   0.00000   0.00000  -0.00003   0.00000
  24       11D+1        0.00000   0.00002   0.00000   0.00000   0.00000
  25       11D-1       -0.00009   0.00000   0.00000   0.00000   0.00001
  26       11D+2        0.00000   0.00000   0.00000   0.00014   0.00000
  27       11D-2        0.00000   0.00000   0.00004   0.00000   0.00000
  28       12D 0        0.00000   0.00000   0.00000   0.00011   0.00000
  29       12D+1        0.00000  -0.00005   0.00000   0.00000   0.00000
  30       12D-1       -0.00042   0.00000   0.00000   0.00000   0.00005
  31       12D+2        0.00000   0.00000   0.00000   0.00021   0.00000
  32       12D-2        0.00000   0.00000  -0.00004   0.00000   0.00000
  33       13F 0        0.00000   0.00000   0.00000   0.00000   0.00000
  34       13F+1        0.00000   0.00000   0.00000   0.00000   0.00000
  35       13F-1        0.00000   0.00000   0.00000   0.00000   0.00000
  36       13F+2        0.00000   0.00000   0.00000   0.00000   0.00000
  37       13F-2        0.00000   0.00000   0.00000   0.00000   0.00000
  38       13F+3        0.00000  -0.00001   0.00000   0.00000   0.00000
  39       13F-3        0.00001   0.00000   0.00000   0.00000   0.00000
  40       14F 0        0.00000   0.00000   0.00000  -0.00001   0.00000
  41       14F+1        0.00000  -0.00002   0.00000   0.00000   0.00000
  42       14F-1       -0.00006   0.00000   0.00000   0.00000   0.00001
  43       14F+2        0.00000   0.00000   0.00000  -0.00004   0.00000
  44       14F-2        0.00000   0.00000  -0.00003   0.00000   0.00000
  45       14F+3        0.00000   0.00004   0.00000   0.00000   0.00000
  46       14F-3       -0.00004   0.00000   0.00000   0.00000   0.00001
  47 2   S  1S          0.00000   0.00000   0.00000  -0.03469   0.00000
  48        2S          0.00000   0.00000   0.00000  -0.00606   0.00000
  49        3S          0.00000   0.00000   0.00000   0.00002   0.00000
  50        4S          0.00000   0.00000   0.00000  -0.00043   0.00000
  51        5S          0.00000   0.00000   0.00000   0.00002   0.00000
  52        6S          0.00000   0.00000   0.00000   0.00003   0.00000
  53        7PX         0.00000  -0.00078   0.00000   0.00000   0.00000
  54        7PY         0.00056   0.00000   0.00000   0.00000   0.00004
  55        7PZ         0.00000   0.00000   0.00000   0.01320   0.00000
  56        8PX         0.00000   0.00001   0.00000   0.00000   0.00000
  57        8PY         0.00001   0.00000   0.00000   0.00000  -0.00001
  58        8PZ         0.00000   0.00000   0.00000  -0.00016   0.00000
  59        9PX         0.00000  -0.00005   0.00000   0.00000   0.00000
  60        9PY         0.00004   0.00000   0.00000   0.00000   0.00000
  61        9PZ         0.00000   0.00000   0.00000   0.00089   0.00000
  62       10PX         0.00000   0.00010   0.00000   0.00000   0.00000
  63       10PY         0.00018   0.00000   0.00000   0.00000  -0.00001
  64       10PZ         0.00000   0.00000   0.00000  -0.00005   0.00000
  65       11PX         0.00000  -0.00001   0.00000   0.00000   0.00000
  66       11PY         0.00000   0.00000   0.00000   0.00000   0.00000
  67       11PZ         0.00000   0.00000   0.00000  -0.00003   0.00000
  68       12D 0        0.00000   0.00000   0.00000   0.00007   0.00000
  69       12D+1        0.00000  -0.00002   0.00000   0.00000   0.00000
  70       12D-1       -0.00001   0.00000   0.00000   0.00000   0.00000
  71       12D+2        0.00000   0.00000   0.00000  -0.00001   0.00000
  72       12D-2        0.00000   0.00000   0.00001   0.00000   0.00000
  73       13D 0        0.00000   0.00000   0.00000  -0.00002   0.00000
  74       13D+1        0.00000   0.00000   0.00000   0.00000   0.00000
  75       13D-1        0.00000   0.00000   0.00000   0.00000   0.00000
  76       13D+2        0.00000   0.00000   0.00000   0.00000   0.00000
  77       13D-2        0.00000   0.00000   0.00000   0.00000   0.00000
  78       14D 0        0.00000   0.00000   0.00000   0.00003   0.00000
  79       14D+1        0.00000  -0.00005   0.00000   0.00000   0.00000
  80       14D-1       -0.00004   0.00000   0.00000   0.00000   0.00000
  81       14D+2        0.00000   0.00000   0.00000  -0.00002   0.00000
  82       14D-2        0.00000   0.00000   0.00001   0.00000   0.00000
  83       15F 0        0.00000   0.00000   0.00000   0.00001   0.00000
  84       15F+1        0.00000   0.00000   0.00000   0.00000   0.00000
  85       15F-1        0.00000   0.00000   0.00000   0.00000   0.00000
  86       15F+2        0.00000   0.00000   0.00000   0.00001   0.00000
  87       15F-2        0.00000   0.00000   0.00000   0.00000   0.00000
  88       15F+3        0.00000   0.00000   0.00000   0.00000   0.00000
  89       15F-3        0.00000   0.00000   0.00000   0.00000   0.00000
  90       16F 0        0.00000   0.00000   0.00000  -0.00002   0.00000
  91       16F+1        0.00000   0.00002   0.00000   0.00000   0.00000
  92       16F-1        0.00000   0.00000   0.00000   0.00000   0.00000
  93       16F+2        0.00000   0.00000   0.00000   0.00000   0.00000
  94       16F-2        0.00000   0.00000  -0.00001   0.00000   0.00000
  95       16F+3        0.00000  -0.00001   0.00000   0.00000   0.00000
  96       16F-3        0.00000   0.00000   0.00000   0.00000   0.00000
  97 3   Br 1S         -0.05133   0.00000   0.00000   0.00588  -0.21858
  98        2S          0.16049   0.00000   0.00000  -0.01970   0.70862
  99        3S          0.01476   0.00000   0.00000   0.00675   0.03025
 100        4S         -0.00014   0.00000   0.00000  -0.00008  -0.00020
 101        5S          0.00044   0.00000   0.00000   0.00022   0.00071
 102        6S          0.00076   0.00000   0.00000   0.00077   0.00003
 103        7S          0.00008   0.00000   0.00000   0.00028   0.00003
 104        8PX         0.00000   0.71287   0.71322   0.00000   0.00000
 105        8PY         0.47062   0.00000   0.00000   0.57315  -0.13930
 106        8PZ         0.50141   0.00000   0.00000   0.40562  -0.08865
 107        9PX         0.00000  -0.01584  -0.01657   0.00000   0.00000
 108        9PY         0.00512   0.00000   0.00000   0.00883   0.00234
 109        9PZ        -0.00025   0.00000   0.00000   0.00580   0.00148
 110       10PX         0.00000   0.00028   0.00029   0.00000   0.00000
 111       10PY         0.00026   0.00000   0.00000   0.00035  -0.00007
 112       10PZ         0.00030   0.00000   0.00000   0.00023  -0.00005
 113       11PX         0.00000  -0.00121  -0.00124   0.00000   0.00000
 114       11PY        -0.00021   0.00000   0.00000  -0.00017   0.00022
 115       11PZ        -0.00045   0.00000   0.00000  -0.00013   0.00014
 116       12PX         0.00000  -0.00008  -0.00013   0.00000   0.00000
 117       12PY         0.00023   0.00000   0.00000   0.00025   0.00005
 118       12PZ         0.00008   0.00000   0.00000   0.00024   0.00003
 119       13PX         0.00000   0.00001   0.00003   0.00000   0.00000
 120       13PY         0.00000   0.00000   0.00000   0.00004   0.00000
 121       13PZ         0.00001   0.00000   0.00000   0.00001   0.00000
 122       14D 0        0.00008   0.00000   0.00000  -0.00001  -0.00003
 123       14D+1        0.00000   0.00003   0.00003   0.00000   0.00000
 124       14D-1       -0.00022   0.00000   0.00000   0.00008   0.00001
 125       14D+2        0.00024   0.00000   0.00000  -0.00003   0.00006
 126       14D-2        0.00000  -0.00001  -0.00001   0.00000   0.00000
 127       15D 0        0.00000   0.00000   0.00000   0.00000   0.00000
 128       15D+1        0.00000  -0.00001  -0.00001   0.00000   0.00000
 129       15D-1       -0.00004   0.00000   0.00000  -0.00002   0.00000
 130       15D+2        0.00003   0.00000   0.00000   0.00002   0.00000
 131       15D-2        0.00000  -0.00002  -0.00002   0.00000   0.00000
 132       16D 0        0.00004   0.00000   0.00000  -0.00001  -0.00001
 133       16D+1        0.00000   0.00003   0.00002   0.00000   0.00000
 134       16D-1        0.00010   0.00000   0.00000   0.00014  -0.00001
 135       16D+2       -0.00005   0.00000   0.00000  -0.00011   0.00000
 136       16D-2        0.00000   0.00004   0.00004   0.00000   0.00000
 137       17D 0       -0.00003   0.00000   0.00000   0.00002   0.00000
 138       17D+1        0.00000   0.00000  -0.00002   0.00000   0.00000
 139       17D-1        0.00003   0.00000   0.00000   0.00006   0.00001
 140       17D+2       -0.00001   0.00000   0.00000  -0.00003  -0.00002
 141       17D-2        0.00000   0.00000  -0.00002   0.00000   0.00000
 142       18F 0        0.00000   0.00000   0.00000   0.00000   0.00000
 143       18F+1        0.00000   0.00000   0.00000   0.00000   0.00000
 144       18F-1        0.00001   0.00000   0.00000   0.00000   0.00000
 145       18F+2       -0.00001   0.00000   0.00000  -0.00001   0.00000
 146       18F-2        0.00000  -0.00001   0.00000   0.00000   0.00000
 147       18F+3        0.00000   0.00000   0.00000   0.00000   0.00000
 148       18F-3        0.00000   0.00000   0.00000  -0.00001   0.00000
 149       19F 0       -0.00001   0.00000   0.00000  -0.00002   0.00000
 150       19F+1        0.00000   0.00001   0.00000   0.00000   0.00000
 151       19F-1        0.00002   0.00000   0.00000   0.00001   0.00000
 152       19F+2       -0.00002   0.00000   0.00000  -0.00003   0.00000
 153       19F-2        0.00000   0.00002   0.00001   0.00000   0.00000
 154       19F+3        0.00000  -0.00002  -0.00001   0.00000   0.00000
 155       19F-3        0.00000   0.00000   0.00000  -0.00002   0.00000
 156 4   Br 1S          0.05133   0.00000   0.00000   0.00588   0.21857
 157        2S         -0.16049   0.00000   0.00000  -0.01970  -0.70853
 158        3S         -0.01476   0.00000   0.00000   0.00675  -0.03024
 159        4S          0.00014   0.00000   0.00000  -0.00008   0.00020
 160        5S         -0.00044   0.00000   0.00000   0.00022  -0.00071
[...]
 167        9PY         0.00938  -0.02986  -0.01285   0.01197   0.00000
 168        9PZ        -0.00662   0.01240  -0.00270   0.00547   0.00000
 169       10PX         0.00000   0.00000   0.00000   0.00000  -0.10365
 170       10PY         0.25243  -0.47268  -0.00633   0.14983   0.00000
 171       10PZ        -0.15808   0.18824  -0.10908   0.04546   0.00000
 172       11PX         0.00000   0.00000   0.00000   0.00000   0.03604
 173       11PY         0.01507   0.00193   0.05260  -0.00157   0.00000
 174       11PZ        -0.01051  -0.00078  -0.01205  -0.01892   0.00000
 175       12PX         0.00000   0.00000   0.00000   0.00000   0.38665
 176       12PY         7.67197  -5.32031   2.90108  -5.78692   0.00000
 177       12PZ        -3.05365   5.96950  -1.79920   2.52360   0.00000
 178       13PX         0.00000   0.00000   0.00000   0.00000  -2.11208
 179       13PY        -0.63277  -1.06436   1.98100  -3.27215   0.00000
 180       13PZ        -1.68062   0.75065   0.21709   1.15358   0.00000
 181       14D 0        0.00300  -0.00146  -0.00422  -0.00027   0.00000
 182       14D+1        0.00000   0.00000   0.00000   0.00000   0.00093
 183       14D-1        0.00386   0.00101   0.00022   0.00000   0.00000
 184       14D+2        0.00418  -0.00134   0.00255   0.00369   0.00000
 185       14D-2        0.00000   0.00000   0.00000   0.00000  -0.00120
 186       15D 0       -0.03702   0.02513   0.04859   0.00306   0.00000
 187       15D+1        0.00000   0.00000   0.00000   0.00000  -0.01462
 188       15D-1       -0.05196   0.00308  -0.01599   0.01213   0.00000
 189       15D+2       -0.05012   0.02737  -0.03466  -0.03349   0.00000
 190       15D-2        0.00000   0.00000   0.00000   0.00000   0.02401
 191       16D 0        0.23494  -0.17495  -0.24855  -0.02558   0.00000
 192       16D+1        0.00000   0.00000   0.00000   0.00000   0.07138
 193       16D-1        0.43244  -0.38785   0.29769  -0.14000   0.00000
 194       16D+2        0.40496  -0.41262   0.27785   0.09779   0.00000
 195       16D-2        0.00000   0.00000   0.00000   0.00000  -0.12641
 196       17D 0        0.59248   0.80462   0.30235  -0.47816   0.00000
 197       17D+1        0.00000   0.00000   0.00000   0.00000  -0.15999
 198       17D-1        0.90645  -1.74030   0.00723  -1.41395   0.00000
 199       17D+2        0.70084  -0.50651  -0.03472  -1.99590   0.00000
 200       17D-2        0.00000   0.00000   0.00000   0.00000   0.14596
 201       18F 0       -0.03738  -0.00206   0.02616  -0.00357   0.00000
 202       18F+1        0.00000   0.00000   0.00000   0.00000  -0.01555
 203       18F-1        0.00302  -0.03642   0.00163   0.01226   0.00000
 204       18F+2       -0.00665  -0.01224  -0.00059   0.03785   0.00000
 205       18F-2        0.00000   0.00000   0.00000   0.00000   0.00480
 206       18F+3        0.00000   0.00000   0.00000   0.00000   0.04286
 207       18F-3       -0.02461  -0.01587  -0.01304  -0.03281   0.00000
 208       19F 0        0.19884  -0.09383  -0.06848  -0.06735   0.00000
 209       19F+1        0.00000   0.00000   0.00000   0.00000   0.02401
 210       19F-1       -0.02407   0.03226   0.05316  -0.03645   0.00000
 211       19F+2        0.12242  -0.11379   0.02670  -0.19634   0.00000
 212       19F-2        0.00000   0.00000   0.00000   0.00000  -0.01457
 213       19F+3        0.00000   0.00000   0.00000   0.00000  -0.10213
 214       19F-3        0.01205   0.09165   0.01762   0.17594   0.00000
                         211       212       213       214
     Eigenvalues --     0.00000   0.00000   0.00000   0.00000
   1 1   C  1S         -0.12855   0.00000   0.02424  -0.02012
   2        2S         -0.61206   0.00000   0.09491  -0.06203
   3        3S          0.09186   0.00000  -0.06550   0.11165
   4        4S          3.22719   0.00000  -3.62402   1.04237
   5        5S         21.56477   0.00000   2.71982  26.02960
   6        6PX         0.00000   0.00000   0.00000   0.00000
   7        6PY         0.00000  -0.01542   0.00000   0.00000
   8        6PZ        -0.00582   0.00000  -0.02041   0.01854
   9        7PX         0.00000   0.00000   0.00000   0.00000
  10        7PY         0.00000   0.02795   0.00000   0.00000
  11        7PZ         0.10970   0.00000   0.01328  -0.18372
  12        8PX         0.00000   0.00000   0.00000   0.00000
  13        8PY         0.00000  -5.90524   0.00000   0.00000
  14        8PZ         3.74413   0.00000  -5.10320   0.26506
  15        9PX         0.00000   0.00000   0.00000   0.00000
  16        9PY         0.00000 -19.73670   0.00000   0.00000
  17        9PZ         8.41395   0.00000 -12.91618  -0.33906
  18       10D 0        0.00951   0.00000   0.00964   0.01134
  19       10D+1        0.00000   0.00000   0.00000   0.00000
  20       10D-1        0.00000  -0.01268   0.00000   0.00000
  21       10D+2       -0.03265   0.00000   0.01105  -0.03158
  22       10D-2        0.00000   0.00000   0.00000   0.00000
  23       11D 0        0.20831   0.00000  -0.02687  -0.31937
  24       11D+1        0.00000   0.00000   0.00000   0.00000
  25       11D-1        0.00000   0.24966   0.00000   0.00000
  26       11D+2        0.15821   0.00000  -0.05781   0.18457
  27       11D-2        0.00000   0.00000   0.00000   0.00000
  28       12D 0        2.86604   0.00000  -0.62268  -0.48264
  29       12D+1        0.00000   0.00000   0.00000   0.00000
  30       12D-1        0.00000   2.18267   0.00000   0.00000
  31       12D+2       -0.09789   0.00000  -0.50170  -0.65036
  32       12D-2        0.00000   0.00000   0.00000   0.00000
  33       13F 0       -0.01025   0.00000  -0.01065  -0.02744
  34       13F+1        0.00000   0.00000   0.00000   0.00000
  35       13F-1        0.00000  -0.00471   0.00000   0.00000
  36       13F+2       -0.00509   0.00000   0.00691  -0.00731
  37       13F-2        0.00000   0.00000   0.00000   0.00000
  38       13F+3        0.00000   0.00000   0.00000   0.00000
  39       13F-3        0.00000   0.00783   0.00000   0.00000
  40       14F 0        0.04188   0.00000   0.07062  -0.14362
  41       14F+1        0.00000   0.00000   0.00000   0.00000
  42       14F-1        0.00000  -0.01874   0.00000   0.00000
  43       14F+2       -0.06920   0.00000  -0.03168  -0.10116
  44       14F-2        0.00000   0.00000   0.00000   0.00000
  45       14F+3        0.00000   0.00000   0.00000   0.00000
  46       14F-3        0.00000  -0.01356   0.00000   0.00000
  47 2   S  1S          0.00662   0.00000   0.00230   0.00225
  48        2S          0.11591   0.00000   0.09306   0.02276
  49        3S          0.30684   0.00000   0.15349   0.08541
  50        4S         -0.02731   0.00000  -0.18035  -0.01125
  51        5S         -6.91006   0.00000   1.52709   1.65472
  52        6S        -11.52055   0.00000  20.37964 -12.94572
  53        7PX         0.00000   0.00000   0.00000   0.00000
  54        7PY         0.00000   0.00805   0.00000   0.00000
  55        7PZ         0.01660   0.00000   0.03030  -0.03799
  56        8PX         0.00000   0.00000   0.00000   0.00000
  57        8PY         0.00000   0.08244   0.00000   0.00000
  58        8PZ         0.50421   0.00000   0.44549  -0.78776
  59        9PX         0.00000   0.00000   0.00000   0.00000
  60        9PY         0.00000  -0.02656   0.00000   0.00000
  61        9PZ        -0.03972   0.00000  -0.10436   0.11454
  62       10PX         0.00000   0.00000   0.00000   0.00000
  63       10PY         0.00000  -0.47788   0.00000   0.00000
  64       10PZ         2.71728   0.00000  -6.00034   2.22360
  65       11PX         0.00000   0.00000   0.00000   0.00000
  66       11PY         0.00000   5.11074   0.00000   0.00000
  67       11PZ        -1.32823   0.00000  -1.95601   4.26074
  68       12D 0       -0.61194   0.00000   0.22872   0.34860
  69       12D+1        0.00000   0.00000   0.00000   0.00000
  70       12D-1        0.00000   0.12910   0.00000   0.00000
  71       12D+2        0.20129   0.00000   0.01445   0.07851
  72       12D-2        0.00000   0.00000   0.00000   0.00000
  73       13D 0        0.10529   0.00000  -0.03657  -0.00765
  74       13D+1        0.00000   0.00000   0.00000   0.00000
  75       13D-1        0.00000  -0.03446   0.00000   0.00000
  76       13D+2       -0.05330   0.00000   0.00192  -0.01735
  77       13D-2        0.00000   0.00000   0.00000   0.00000
  78       14D 0        1.21401   0.00000   1.68678  -1.23043
  79       14D+1        0.00000   0.00000   0.00000   0.00000
  80       14D-1        0.00000  -0.27094   0.00000   0.00000
  81       14D+2       -0.52362   0.00000  -0.02656   0.00633
  82       14D-2        0.00000   0.00000   0.00000   0.00000
  83       15F 0        0.03844   0.00000   0.06661  -0.06061
  84       15F+1        0.00000   0.00000   0.00000   0.00000
  85       15F-1        0.00000  -0.01328   0.00000   0.00000
  86       15F+2       -0.01464   0.00000  -0.00987   0.01474
  87       15F-2        0.00000   0.00000   0.00000   0.00000
  88       15F+3        0.00000   0.00000   0.00000   0.00000
  89       15F-3        0.00000  -0.03799   0.00000   0.00000
  90       16F 0       -0.15831   0.00000  -0.29771   0.08665
  91       16F+1        0.00000   0.00000   0.00000   0.00000
  92       16F-1        0.00000   0.03545   0.00000   0.00000
  93       16F+2        0.06512   0.00000   0.01598  -0.07652
  94       16F-2        0.00000   0.00000   0.00000   0.00000
  95       16F+3        0.00000   0.00000   0.00000   0.00000
  96       16F-3        0.00000   0.10203   0.00000   0.00000
  97 3   Br 1S          0.00020  -0.00016  -0.00021   0.00025
  98        2S          0.00207   0.00213   0.00044   0.00097
  99        3S          0.00837   0.00179  -0.00289   0.00673
 100        4S          0.02763   0.03634   0.00793   0.01167
 101        5S          0.00868   0.11541   0.04082  -0.02908
 102        6S          0.29306  -1.92134  -0.42748   0.06257
 103        7S         -4.70701 -21.36465 -10.31001  -7.13409
 104        8PX         0.00000   0.00000   0.00000   0.00000
 105        8PY        -0.00060  -0.00099  -0.00002  -0.00004
 106        8PZ         0.00002  -0.00059  -0.00024  -0.00012
 107        9PX         0.00000   0.00000   0.00000   0.00000
 108        9PY         0.01804   0.01727   0.00501   0.01728
 109        9PZ         0.01384   0.00591   0.01200   0.01075
 110       10PX         0.00000   0.00000   0.00000   0.00000
 111       10PY         0.18119   0.15233   0.05838   0.19985
 112       10PZ         0.16117   0.03932   0.12801   0.12058
 113       11PX         0.00000   0.00000   0.00000   0.00000
 114       11PY        -0.02981  -0.02793  -0.00469  -0.02440
 115       11PZ        -0.02053  -0.01199  -0.01718  -0.01428
 116       12PX         0.00000   0.00000   0.00000   0.00000
 117       12PY        -0.98103  -4.54983  -1.69674  -0.45949
 118       12PZ        -0.21679  -2.70368  -1.55444  -0.61286
 119       13PX         0.00000   0.00000   0.00000   0.00000
 120       13PY        -0.83828  -1.78030  -2.97391  -2.32702
 121       13PZ        -3.06162  -3.46730   0.29962  -1.42320
 122       14D 0        0.00099   0.00011  -0.00148  -0.00057
 123       14D+1        0.00000   0.00000   0.00000   0.00000
 124       14D-1        0.00206   0.00082   0.00092   0.00156
 125       14D+2       -0.00019   0.00095  -0.00072  -0.00069
 126       14D-2        0.00000   0.00000   0.00000   0.00000
 127       15D 0       -0.01219  -0.00325   0.01543   0.00984
 128       15D+1        0.00000   0.00000   0.00000   0.00000
 129       15D-1       -0.02789   0.00586  -0.00865  -0.02315
 130       15D+2       -0.00047  -0.02082   0.00689   0.01242
 131       15D-2        0.00000   0.00000   0.00000   0.00000
 132       16D 0        0.06295   0.01509  -0.05345  -0.06447
 133       16D+1        0.00000   0.00000   0.00000   0.00000
 134       16D-1        0.17129  -0.14649   0.03074   0.19826
 135       16D+2       -0.01119   0.16312  -0.02152  -0.12649
 136       16D-2        0.00000   0.00000   0.00000   0.00000
 137       17D 0       -0.20800   0.15906   0.06287   0.04586
 138       17D+1        0.00000   0.00000   0.00000   0.00000
 139       17D-1       -0.30354  -1.13366  -0.73377  -0.39704
 140       17D+2        0.27919   0.79168   0.48115   0.11255
 141       17D-2        0.00000   0.00000   0.00000   0.00000
 142       18F 0        0.00256  -0.02780   0.00956   0.00227
 143       18F+1        0.00000   0.00000   0.00000   0.00000
 144       18F-1       -0.00006   0.01032   0.00398   0.00227
 145       18F+2        0.01838  -0.01496  -0.01410   0.00352
 146       18F-2        0.00000   0.00000   0.00000   0.00000
 147       18F+3        0.00000   0.00000   0.00000   0.00000
 148       18F-3       -0.02718  -0.02951  -0.00544   0.00495
 149       19F 0       -0.05170   0.12544  -0.00385  -0.02807
 150       19F+1        0.00000   0.00000   0.00000   0.00000
 151       19F-1       -0.00185  -0.05295  -0.02113  -0.00232
 152       19F+2       -0.05542   0.12376   0.06791  -0.04225
 153       19F-2        0.00000   0.00000   0.00000   0.00000
 154       19F+3        0.00000   0.00000   0.00000   0.00000
 155       19F-3        0.06639   0.12147   0.02663  -0.03408
 156 4   Br 1S          0.00020   0.00016  -0.00021   0.00025
 157        2S          0.00207  -0.00213   0.00044   0.00097
 158        3S          0.00837  -0.00179  -0.00289   0.00673
 159        4S          0.02763  -0.03634   0.00793   0.01167
 160        5S          0.00868  -0.11541   0.04082  -0.02908
 161        6S          0.29306   1.92134  -0.42748   0.06257
 162        7S         -4.70701  21.36465 -10.31001  -7.13409
 163        8PX         0.00000   0.00000   0.00000   0.00000
 164        8PY         0.00060  -0.00099   0.00002   0.00004
 165        8PZ         0.00002   0.00059  -0.00024  -0.00012
 166        9PX         0.00000   0.00000   0.00000   0.00000
 167        9PY        -0.01804   0.01727  -0.00501  -0.01728
 168        9PZ         0.01384  -0.00591   0.01200   0.01075
 169       10PX         0.00000   0.00000   0.00000   0.00000
 170       10PY        -0.18119   0.15233  -0.05838  -0.19985
 171       10PZ         0.16117  -0.03932   0.12801   0.12058
 172       11PX         0.00000   0.00000   0.00000   0.00000
 173       11PY         0.02981  -0.02793   0.00469   0.02440
 174       11PZ        -0.02053   0.01199  -0.01718  -0.01428
 175       12PX         0.00000   0.00000   0.00000   0.00000
 176       12PY         0.98103  -4.54983   1.69674   0.45949
 177       12PZ        -0.21679   2.70368  -1.55444  -0.61286
 178       13PX         0.00000   0.00000   0.00000   0.00000
 179       13PY         0.83828  -1.78030   2.97391   2.32702
 180       13PZ        -3.06162   3.46730   0.29962  -1.42320
 181       14D 0        0.00099  -0.00011  -0.00148  -0.00057
 182       14D+1        0.00000   0.00000   0.00000   0.00000
 183       14D-1       -0.00206   0.00082  -0.00092  -0.00156
 184       14D+2       -0.00019  -0.00095  -0.00072  -0.00069
 185       14D-2        0.00000   0.00000   0.00000   0.00000
 186       15D 0       -0.01219   0.00325   0.01543   0.00984
 187       15D+1        0.00000   0.00000   0.00000   0.00000
 188       15D-1        0.02789   0.00586   0.00865   0.02315
 189       15D+2       -0.00047   0.02082   0.00689   0.01242
 190       15D-2        0.00000   0.00000   0.00000   0.00000
 191       16D 0        0.06295  -0.01509  -0.05345  -0.06447
 192       16D+1        0.00000   0.00000   0.00000   0.00000
 193       16D-1       -0.17129  -0.14649  -0.03074  -0.19826
 194       16D+2       -0.01119  -0.16312  -0.02152  -0.12649
 195       16D-2        0.00000   0.00000   0.00000   0.00000
 196       17D 0       -0.20800  -0.15906   0.06287   0.04586
 197       17D+1        0.00000   0.00000   0.00000   0.00000
 198       17D-1        0.30354  -1.13366   0.73377   0.39704
 199       17D+2        0.27919  -0.79168   0.48115   0.11255
 200       17D-2        0.00000   0.00000   0.00000   0.00000
 201       18F 0        0.00256   0.02780   0.00956   0.00227
 202       18F+1        0.00000   0.00000   0.00000   0.00000
 203       18F-1        0.00006   0.01032  -0.00398  -0.00227
 204       18F+2        0.01838   0.01496  -0.01410   0.00352
 205       18F-2        0.00000   0.00000   0.00000   0.00000
 206       18F+3        0.00000   0.00000   0.00000   0.00000
 207       18F-3        0.02718  -0.02951   0.00544  -0.00495
 208       19F 0       -0.05170  -0.12544  -0.00385  -0.02807
 209       19F+1        0.00000   0.00000   0.00000   0.00000
 210       19F-1        0.00185  -0.05295   0.02113   0.00232
 211       19F+2       -0.05542  -0.12376   0.06791  -0.04225
 212       19F-2        0.00000   0.00000   0.00000   0.00000
 213       19F+3        0.00000   0.00000   0.00000   0.00000
 214       19F-3       -0.06639   0.12147  -0.02663   0.03408
          Condensed to atoms (all electrons):
              1          2          3          4
     1  C    6.359328  -0.040583  -0.082894  -0.082894
     2  S   -0.040583  16.455054  -0.188002  -0.188002
     3  Br  -0.082894  -0.188002  35.312865  -0.137681
     4  Br  -0.082894  -0.188002  -0.137681  35.312865
 Mulliken atomic charges:
              1
     1  C   -0.152957
     2  S   -0.038467
     3  Br   0.095712
     4  Br   0.095712
 Sum of Mulliken atomic charges =   0.00000
 Mulliken charges with hydrogens summed into heavy atoms:
              1
     1  C   -0.152957
     2  S   -0.038467
     3  Br   0.095712
     4  Br   0.095712
 Sum of Mulliken charges with hydrogens summed into heavy atoms =   0.00000
 Electronic spatial extent (au):  <R**2>=           1431.4891
 Charge=              0.0000 electrons
 Dipole moment (field-independent basis, Debye):
    X=              0.0000    Y=              0.0000    Z=             -0.3952  Tot=              0.3952
 Quadrupole moment (field-independent basis, Debye-Ang):
   XX=            -54.9470   YY=            -53.9198   ZZ=            -53.7769
   XY=              0.0000   XZ=              0.0000   YZ=              0.0000
 Traceless Quadrupole moment (field-independent basis, Debye-Ang):
   XX=             -0.7324   YY=              0.2947   ZZ=              0.4377
   XY=              0.0000   XZ=              0.0000   YZ=              0.0000
 Octapole moment (field-independent basis, Debye-Ang**2):
  XXX=              0.0000  YYY=              0.0000  ZZZ=            141.2466  XYY=              0.0000
  XXY=              0.0000  XXZ=             47.8256  XZZ=              0.0000  YZZ=              0.0000
  YYZ=             35.5142  XYZ=              0.0000
 Hexadecapole moment (field-independent basis, Debye-Ang**3):
 XXXX=            -67.2223 YYYY=           -573.5043 ZZZZ=           -699.9737 XXXY=              0.0000
 XXXZ=              0.0000 YYYX=              0.0000 YYYZ=              0.0000 ZZZX=              0.0000
 ZZZY=              0.0000 XXYY=           -113.6410 XXZZ=           -130.4622 YYZZ=           -194.9796
 XXYZ=              0.0000 YYXZ=              0.0000 ZZXY=              0.0000
 N-N= 5.474220628849D+02 E-N=-1.443608693194D+04  KE= 5.579858561159D+03
 1\1\GINC-TRAPISTA\SP\RQCISD-FC\Aug-CC-pVTZ\C1Br2S1\BRUNS\29-Nov-2021\0
 \\# qcisd/aug-cc-pvtz nosymm density=current output=wfn\\br2cs-wavefun
 ction\\0,1\C,0,0.,0.,-0.509451\S,0,0.,0.,1.083692\Br,0,0.,-1.568516,-1
 .57857\Br,0,0.,1.568516,-1.57857\\Version=EM64L-G09RevB.01\HF=-5580.30
 88442\MP2=-5581.118651\MP3=-5581.1309491\MP4D=-5581.1548733\MP4DQ=-558
 1.131438\MP4SDQ=-5581.1410574\QCISD=-5581.1375078\RMSD=3.268e-09\Dipol
 e=0.,0.,-0.1555014\Quadrupole=-0.5445565,0.219139,0.3254175,0.,0.,0.\P
 G=C02V [C2(C1S1),SGV(Br2)]\\@

 Writing a WFN file to GAUSSIAN.wfn.


 THERE'S A SUCKER BORN EVERY MINUTE

              -- PHINEAS TAYLOR (P.T.) BARNUM
 Job cpu time:  0 days  6 hours 20 minutes 52.5 seconds.
 File lengths (MBytes):  RWF=  25271 Int=      0 D2E=      0 Chk=      4 Scr=      1
 Normal termination of Gaussian 09 at Mon Nov 29 04:19:27 2021.
