 Entering Gaussian System, Link 0=/home/bruns/programas/chemistry/gaussian/g09/g09
 Input=GAUSSIAN.com
 Output=GAUSSIAN.log
 Initial command:
 /home/bruns/programas/chemistry/gaussian/g09/l1.exe /home/bruns/programas/chemistry/gaussian/work/Gau-5934.inp -scrdir=/home/bruns/programas/chemistry/gaussian/work/
 Entering Link 1 = /home/bruns/programas/chemistry/gaussian/g09/l1.exe PID=      5936.
  
 Copyright (c) 1988,1990,1992,1993,1995,1998,2003,2009,2010,
            Gaussian, Inc.  All Rights Reserved.
  
 This is part of the Gaussian(R) 09 program.  It is based on
 the Gaussian(R) 03 system (copyright 2003, Gaussian, Inc.),
 the Gaussian(R) 98 system (copyright 1998, Gaussian, Inc.),
 the Gaussian(R) 94 system (copyright 1995, Gaussian, Inc.),
 the Gaussian 92(TM) system (copyright 1992, Gaussian, Inc.),
 the Gaussian 90(TM) system (copyright 1990, Gaussian, Inc.),
 the Gaussian 88(TM) system (copyright 1988, Gaussian, Inc.),
 the Gaussian 86(TM) system (copyright 1986, Carnegie Mellon
 University), and the Gaussian 82(TM) system (copyright 1983,
 Carnegie Mellon University). Gaussian is a federally registered
 trademark of Gaussian, Inc.
  
 This software contains proprietary and confidential information,
 including trade secrets, belonging to Gaussian, Inc.
  
 This software is provided under written license and may be
 used, copied, transmitted, or stored only in accord with that
 written license.
  
 The following legend is applicable only to US Government
 contracts under FAR:
  
                    RESTRICTED RIGHTS LEGEND
  
 Use, reproduction and disclosure by the US Government is
 subject to restrictions as set forth in subparagraphs (a)
 and (c) of the Commercial Computer Software - Restricted
 Rights clause in FAR 52.227-19.
  
 Gaussian, Inc.
 340 Quinnipiac St., Bldg. 40, Wallingford CT 06492
  
  
 ---------------------------------------------------------------
 Warning -- This program may not be used in any manner that
 competes with the business of Gaussian, Inc. or will provide
 assistance to any competitor of Gaussian, Inc.  The licensee
 of this program is prohibited from giving any competitor of
 Gaussian, Inc. access to this program.  By using this program,
 the user acknowledges that Gaussian, Inc. is engaged in the
 business of creating and licensing software in the field of
 computational chemistry and represents and warrants to the
 licensee that it is not a competitor of Gaussian, Inc. and that
 it will not use this program in any manner prohibited above.
 ---------------------------------------------------------------
  

 Cite this work as:
 Gaussian 09, Revision B.01,
 M. J. Frisch, G. W. Trucks, H. B. Schlegel, G. E. Scuseria, 
 M. A. Robb, J. R. Cheeseman, G. Scalmani, V. Barone, B. Mennucci, 
 G. A. Petersson, H. Nakatsuji, M. Caricato, X. Li, H. P. Hratchian, 
 A. F. Izmaylov, J. Bloino, G. Zheng, J. L. Sonnenberg, M. Hada, 
 M. Ehara, K. Toyota, R. Fukuda, J. Hasegawa, M. Ishida, T. Nakajima, 
 Y. Honda, O. Kitao, H. Nakai, T. Vreven, J. A. Montgomery, Jr., 
 J. E. Peralta, F. Ogliaro, M. Bearpark, J. J. Heyd, E. Brothers, 
 K. N. Kudin, V. N. Staroverov, T. Keith, R. Kobayashi, J. Normand, 
 K. Raghavachari, A. Rendell, J. C. Burant, S. S. Iyengar, J. Tomasi, 
 M. Cossi, N. Rega, J. M. Millam, M. Klene, J. E. Knox, J. B. Cross, 
 V. Bakken, C. Adamo, J. Jaramillo, R. Gomperts, R. E. Stratmann, 
 O. Yazyev, A. J. Austin, R. Cammi, C. Pomelli, J. W. Ochterski, 
 R. L. Martin, K. Morokuma, V. G. Zakrzewski, G. A. Voth, 
 P. Salvador, J. J. Dannenberg, S. Dapprich, A. D. Daniels, 
 O. Farkas, J. B. Foresman, J. V. Ortiz, J. Cioslowski, 
 and D. J. Fox, Gaussian, Inc., Wallingford CT, 2010.
 
 ******************************************
 Gaussian 09:  EM64L-G09RevB.01 12-Aug-2010
                29-Nov-2021 
 ******************************************
 %nproc=8
 Will use up to    8 processors via shared memory.
 %mem=8GB
 -----------------------------------------------------
 # qcisd/aug-cc-pvtz nosymm density=current output=wfn
 -----------------------------------------------------
 1/30=1,38=1/1;
 2/12=2,15=1,17=6,18=5,40=1/2;
 3/5=16,6=1,7=10,11=9,16=1,25=1,30=1,71=1/1,2,3;
 4//1;
 5/5=2,38=5/2;
 8/6=4,9=120000,10=1/1,4;
 9/5=8,15=1/13;
 11/28=-7,31=1,32=3,42=3/11;
 10/5=6,13=10,31=1/2;
 6/7=2,8=2,9=2,10=2,22=-1,31=1/1;
 99/5=1,6=1100,9=1/99;
 ------------------
 br2cs-wavefunction
 ------------------
 Symbolic Z-matrix:
 Charge =  0 Multiplicity = 1
 C                     0.       -0.01     -0.51945 
 S                     0.        0.        1.08369 
 Br                    0.       -1.56852  -1.57857 
 Br                    0.        1.56852  -1.57857 
 
                          Input orientation:                          
 ---------------------------------------------------------------------
 Center     Atomic      Atomic             Coordinates (Angstroms)
 Number     Number       Type             X           Y           Z
 ---------------------------------------------------------------------
      1          6           0        0.000000   -0.010000   -0.519451
      2         16           0        0.000000    0.000000    1.083692
      3         35           0        0.000000   -1.568516   -1.578570
      4         35           0        0.000000    1.568516   -1.578570
 ---------------------------------------------------------------------
                    Distance matrix (angstroms):
                    1          2          3          4
     1  C    0.000000
     2  S    1.603174   0.000000
     3  Br   1.884331   3.089965   0.000000
     4  Br   1.900907   3.089965   3.137032   0.000000
 Symmetry turned off by external request.
 Stoichiometry    CBr2S
 Framework group  CS[SG(CBr2S)]
 Deg. of freedom     5
 Full point group                 CS      NOp   2
 Rotational constants (GHZ):      2.6233682      1.3014578      0.8698992
 Standard basis: Aug-CC-pVTZ (5D, 7F)
 Integral buffers will be    131072 words long.
 Raffenetti 1 integral format.
 Two-electron integral symmetry is turned off.
   214 basis functions,   620 primitive gaussians,   252 cartesian basis functions
    46 alpha electrons       46 beta electrons
       nuclear repulsion energy       547.5715974937 Hartrees.
 NAtoms=    4 NActive=    4 NUniq=    4 SFac= 1.00D+00 NAtFMM=   50 NAOKFM=F Big=F
 One-electron integrals computed using PRISM.
 NBasis=   214 RedAO= T  NBF=   214
 NBsUse=   214 1.00D-06 NBFU=   214
 Harris functional with IExCor=  205 diagonalized for initial guess.
 ExpMin= 3.51D-02 ExpMax= 1.06D+07 ExpMxC= 1.21D+04 IAcc=3 IRadAn=         0 AccDes= 0.00D+00
 HarFok:  IExCor=  205 AccDes= 0.00D+00 IRadAn=         0 IDoV= 1
 ScaDFX=  1.000000  1.000000  1.000000  1.000000
 FoFCou: FMM=F IPFlag=           0 FMFlag=      100000 FMFlg1=           0
         NFxFlg=           0 DoJE=T BraDBF=F KetDBF=T FulRan=T
         Omega=  0.000000  0.000000  1.000000  0.000000  0.000000 ICntrl=     500 IOpCl=  0
         NMat0=    1 NMatS0=    1 NMatT0=    0 NMatD0=    1 NMtDS0=    0 NMtDT0=    0
         I1Cent=           4 NGrid=           0.
 Symmetry not used in FoFCou.
 Requested convergence on RMS density matrix=1.00D-08 within 128 cycles.
 Requested convergence on MAX density matrix=1.00D-06.
 Requested convergence on             energy=1.00D-06.
 No special actions if energy rises.
 Keep R1 ints in memory in canonical form, NReq=516428601.
 SCF Done:  E(RHF) =  -5580.30863323     A.U. after   14 cycles
             Convg  =    0.3141D-08             -V/T =  2.0000
 ExpMin= 3.51D-02 ExpMax= 1.06D+07 ExpMxC= 1.21D+04 IAcc=3 IRadAn=         5 AccDes= 0.00D+00
 HarFok:  IExCor=  205 AccDes= 0.00D+00 IRadAn=         5 IDoV=-2
 ScaDFX=  1.000000  1.000000  1.000000  1.000000
 Range of M.O.s used for correlation:    25   214
 NBasis=   214 NAE=    46 NBE=    46 NFC=    24 NFV=     0
 NROrb=    190 NOA=    22 NOB=    22 NVA=   168 NVB=   168

 **** Warning!!: The largest alpha MO coefficient is  0.30747991D+02

 Semi-Direct transformation.
 ModeAB=           2 MOrb=            22 LenV=    1072457069
 LASXX=     69628944 LTotXX=    69628944 LenRXX=    69628944
 LTotAB=    70719517 MaxLAS=   133250040 LenRXY=   133250040
 NonZer=   139257888 LenScr=   209707008 LnRSAI=           0
 LnScr1=           0 LExtra=           0 Total=    412585992
 MaxDsk=          -1 SrtSym=           F ITran=            4
 JobTyp=0 Pass  1:  I=   1 to  22.
 (rs|ai) integrals will be sorted in core.
 Spin components of T(2) and E(2):
     alpha-alpha T2 =       0.4287604172D-01 E2=     -0.1154021019D+00
     alpha-beta  T2 =       0.2166647066D+00 E2=     -0.5793096390D+00
     beta-beta   T2 =       0.4287604172D-01 E2=     -0.1154021019D+00
 ANorm=    0.1141234766D+01
 E2 =    -0.8101138428D+00 EUMP2 =    -0.55811187470767D+04
 R2 and R3 integrals will be kept in memory, NReq=  1024335774.
 Iterations=  50 Convergence= 0.100D-07
 Iteration Nr.   1
 **********************
 DD1Dir will call FoFMem   1 times, MxPair=       506
 NAB=   253 NAA=     0 NBB=     0.
 MP4(R+Q)=  0.23476104D-01
 E3=       -0.12174848D-01        EUMP3=      -0.55811309219D+04
 E4(DQ)=   -0.50960963D-03        UMP4(DQ)=   -0.55811314315D+04
 E4(SDQ)=  -0.10185572D-01        UMP4(SDQ)=  -0.55811411075D+04
 DE(Corr)= -0.79881259     E(Corr)=     -5581.1074458    
 NORM(A)=   0.11410220D+01
 Iteration Nr.   2
 **********************
 DD1Dir will call FoFMem   1 times, MxPair=       506
 NAB=   253 NAA=     0 NBB=     0.
 DE(Corr)= -0.82758343     E(CORR)=     -5581.1362167     Delta=-2.88D-02
 NORM(A)=   0.11532105D+01
 Iteration Nr.   3
 **********************
 DD1Dir will call FoFMem   1 times, MxPair=       506
 NAB=   253 NAA=     0 NBB=     0.
 DE(Corr)= -0.82617500     E(CORR)=     -5581.1348082     Delta= 1.41D-03
 NORM(A)=   0.11560471D+01
 Iteration Nr.   4
 **********************
 DD1Dir will call FoFMem   1 times, MxPair=       506
 NAB=   253 NAA=     0 NBB=     0.
 DE(Corr)= -0.82852636     E(CORR)=     -5581.1371596     Delta=-2.35D-03
 NORM(A)=   0.11573542D+01
 Iteration Nr.   5
 **********************
 DD1Dir will call FoFMem   1 times, MxPair=       506
 NAB=   253 NAA=     0 NBB=     0.
 DE(Corr)= -0.82883557     E(CORR)=     -5581.1374688     Delta=-3.09D-04
 NORM(A)=   0.11579915D+01
 Iteration Nr.   6
 **********************
 DD1Dir will call FoFMem   1 times, MxPair=       506
 NAB=   253 NAA=     0 NBB=     0.
 DE(Corr)= -0.82890031     E(CORR)=     -5581.1375335     Delta=-6.47D-05
 NORM(A)=   0.11580717D+01
 Iteration Nr.   7
 **********************
 DD1Dir will call FoFMem   1 times, MxPair=       506
 NAB=   253 NAA=     0 NBB=     0.
 DE(Corr)= -0.82891215     E(CORR)=     -5581.1375454     Delta=-1.18D-05
 NORM(A)=   0.11580885D+01
 Iteration Nr.   8
 **********************
 DD1Dir will call FoFMem   1 times, MxPair=       506
 NAB=   253 NAA=     0 NBB=     0.
 DE(Corr)= -0.82890827     E(CORR)=     -5581.1375415     Delta= 3.88D-06
 NORM(A)=   0.11580969D+01
 Iteration Nr.   9
 **********************
 DD1Dir will call FoFMem   1 times, MxPair=       506
 NAB=   253 NAA=     0 NBB=     0.
 DE(Corr)= -0.82890996     E(CORR)=     -5581.1375432     Delta=-1.69D-06
 NORM(A)=   0.11580976D+01
 Iteration Nr.  10
 **********************
 DD1Dir will call FoFMem   1 times, MxPair=       506
 NAB=   253 NAA=     0 NBB=     0.
 DE(Corr)= -0.82891007     E(CORR)=     -5581.1375433     Delta=-1.17D-07
 NORM(A)=   0.11581013D+01
 Iteration Nr.  11
 **********************
 DD1Dir will call FoFMem   1 times, MxPair=       506
 NAB=   253 NAA=     0 NBB=     0.
 DE(Corr)= -0.82891166     E(CORR)=     -5581.1375449     Delta=-1.59D-06
 NORM(A)=   0.11581033D+01
 Iteration Nr.  12
 **********************
 DD1Dir will call FoFMem   1 times, MxPair=       506
 NAB=   253 NAA=     0 NBB=     0.
 DE(Corr)= -0.82891174     E(CORR)=     -5581.1375450     Delta=-7.69D-08
 NORM(A)=   0.11581049D+01
 Iteration Nr.  13
 **********************
 DD1Dir will call FoFMem   1 times, MxPair=       506
 NAB=   253 NAA=     0 NBB=     0.
 DE(Corr)= -0.82891238     E(CORR)=     -5581.1375456     Delta=-6.40D-07
 NORM(A)=   0.11581059D+01
 Iteration Nr.  14
 **********************
 DD1Dir will call FoFMem   1 times, MxPair=       506
 NAB=   253 NAA=     0 NBB=     0.
 DE(Corr)= -0.82891239     E(CORR)=     -5581.1375456     Delta=-1.10D-08
 NORM(A)=   0.11581063D+01
 Iteration Nr.  15
 **********************
 DD1Dir will call FoFMem   1 times, MxPair=       506
 NAB=   253 NAA=     0 NBB=     0.
 DE(Corr)= -0.82891251     E(CORR)=     -5581.1375457     Delta=-1.17D-07
 NORM(A)=   0.11581065D+01
 Iteration Nr.  16
 **********************
 DD1Dir will call FoFMem   1 times, MxPair=       506
 NAB=   253 NAA=     0 NBB=     0.
 DE(Corr)= -0.82891254     E(CORR)=     -5581.1375458     Delta=-2.89D-08
 NORM(A)=   0.11581066D+01
 Iteration Nr.  17
 **********************
 DD1Dir will call FoFMem   1 times, MxPair=       506
 NAB=   253 NAA=     0 NBB=     0.
 DE(Corr)= -0.82891252     E(CORR)=     -5581.1375458     Delta= 1.33D-08
 NORM(A)=   0.11581066D+01
 Iteration Nr.  18
 **********************
 DD1Dir will call FoFMem   1 times, MxPair=       506
 NAB=   253 NAA=     0 NBB=     0.
 DE(Corr)= -0.82891254     E(CORR)=     -5581.1375458     Delta=-1.69D-08
 NORM(A)=   0.11581066D+01
 Iteration Nr.  19
 **********************
 DD1Dir will call FoFMem   1 times, MxPair=       506
 NAB=   253 NAA=     0 NBB=     0.
 DE(Corr)= -0.82891254     E(CORR)=     -5581.1375458     Delta= 3.67D-09
 NORM(A)=   0.11581066D+01
 Iteration Nr.  20
 **********************
 DD1Dir will call FoFMem   1 times, MxPair=       506
 NAB=   253 NAA=     0 NBB=     0.
 DE(Corr)= -0.82891254     E(CORR)=     -5581.1375458     Delta=-2.98D-09
 NORM(A)=   0.11581066D+01
 Iteration Nr.  21
 **********************
 DD1Dir will call FoFMem   1 times, MxPair=       506
 NAB=   253 NAA=     0 NBB=     0.
 DE(Corr)= -0.82891254     E(CORR)=     -5581.1375458     Delta=-1.97D-09
 NORM(A)=   0.11581064D+01
 Iteration Nr.  22
 **********************
 DD1Dir will call FoFMem   1 times, MxPair=       506
 NAB=   253 NAA=     0 NBB=     0.
 DE(Corr)= -0.82891260     E(CORR)=     -5581.1375458     Delta=-5.51D-08
 NORM(A)=   0.11581067D+01
 Iteration Nr.  23
 **********************
 DD1Dir will call FoFMem   1 times, MxPair=       506
 NAB=   253 NAA=     0 NBB=     0.
 DE(Corr)= -0.82891254     E(CORR)=     -5581.1375458     Delta= 5.47D-08
 NORM(A)=   0.11581067D+01
 Iteration Nr.  24
 **********************
 DD1Dir will call FoFMem   1 times, MxPair=       506
 NAB=   253 NAA=     0 NBB=     0.
 DE(Corr)= -0.82891254     E(CORR)=     -5581.1375458     Delta= 4.06D-09
 NORM(A)=   0.11581067D+01
 Largest amplitude= 7.67D-02

 Z-AMPLITUDE ITERATIONS

 Iteration Nr.   1
 **********************
 DD1Dir will call FoFMem   1 times, MxPair=       506
 NAB=   253 NAA=     0 NBB=     0.
 DE(Z)  -0.79825112D+00          E(Z)=    -0.55811068843D+04
 NORM(A)=   0.11583327D+01
 Iteration Nr.   2
 **********************
 DD1Dir will call FoFMem   1 times, MxPair=       506
 NAB=   253 NAA=     0 NBB=     0.
 DE(Z)  -0.79825276D+00          E(Z)=    -0.55811068860D+04
 NORM(A)=   0.11601112D+01
 Iteration Nr.   3
 **********************
 DD1Dir will call FoFMem   1 times, MxPair=       506
 NAB=   253 NAA=     0 NBB=     0.
 DE(Z)  -0.79826372D+00          E(Z)=    -0.55811068970D+04
 NORM(A)=   0.11588032D+01
 Iteration Nr.   4
 **********************
 DD1Dir will call FoFMem   1 times, MxPair=       506
 NAB=   253 NAA=     0 NBB=     0.
 DE(Z)  -0.79825623D+00          E(Z)=    -0.55811068895D+04
 NORM(A)=   0.11469227D+01
 Iteration Nr.   5
 **********************
 DD1Dir will call FoFMem   1 times, MxPair=       506
 NAB=   253 NAA=     0 NBB=     0.
 DE(Z)  -0.79814651D+00          E(Z)=    -0.55811067797D+04
 NORM(A)=   0.11448449D+01
 Iteration Nr.   6
 **********************
 DD1Dir will call FoFMem   1 times, MxPair=       506
 NAB=   253 NAA=     0 NBB=     0.
 DE(Z)  -0.79813427D+00          E(Z)=    -0.55811067675D+04
 NORM(A)=   0.11448451D+01
 Iteration Nr.   7
 **********************
 DD1Dir will call FoFMem   1 times, MxPair=       506
 NAB=   253 NAA=     0 NBB=     0.
 DE(Z)  -0.79812989D+00          E(Z)=    -0.55811067631D+04
 NORM(A)=   0.11448430D+01
 Iteration Nr.   8
 **********************
 DD1Dir will call FoFMem   1 times, MxPair=       506
 NAB=   253 NAA=     0 NBB=     0.
 DE(Z)  -0.79813182D+00          E(Z)=    -0.55811067651D+04
 NORM(A)=   0.11448440D+01
 Iteration Nr.   9
 **********************
 DD1Dir will call FoFMem   1 times, MxPair=       506
 NAB=   253 NAA=     0 NBB=     0.
 DE(Z)  -0.79813166D+00          E(Z)=    -0.55811067649D+04
 NORM(A)=   0.11448443D+01
 Iteration Nr.  10
 **********************
 DD1Dir will call FoFMem   1 times, MxPair=       506
 NAB=   253 NAA=     0 NBB=     0.
 DE(Z)  -0.79813166D+00          E(Z)=    -0.55811067649D+04
 NORM(A)=   0.11448446D+01
 Iteration Nr.  11
 **********************
 DD1Dir will call FoFMem   1 times, MxPair=       506
 NAB=   253 NAA=     0 NBB=     0.
 DE(Z)  -0.79813167D+00          E(Z)=    -0.55811067649D+04
 NORM(A)=   0.11448447D+01
 Iteration Nr.  12
 **********************
 DD1Dir will call FoFMem   1 times, MxPair=       506
 NAB=   253 NAA=     0 NBB=     0.
 DE(Z)  -0.79813165D+00          E(Z)=    -0.55811067649D+04
 NORM(A)=   0.11448447D+01
 Iteration Nr.  13
 **********************
 DD1Dir will call FoFMem   1 times, MxPair=       506
 NAB=   253 NAA=     0 NBB=     0.
 DE(Z)  -0.79813168D+00          E(Z)=    -0.55811067649D+04
 NORM(A)=   0.11448447D+01
 Iteration Nr.  14
 **********************
 DD1Dir will call FoFMem   1 times, MxPair=       506
 NAB=   253 NAA=     0 NBB=     0.
 DE(Z)  -0.79813167D+00          E(Z)=    -0.55811067649D+04
 NORM(A)=   0.11448447D+01
 Iteration Nr.  15
 **********************
 DD1Dir will call FoFMem   1 times, MxPair=       506
 NAB=   253 NAA=     0 NBB=     0.
 DE(Z)  -0.79813167D+00          E(Z)=    -0.55811067649D+04
 NORM(A)=   0.11448447D+01
 Discarding MO integrals.
          Differentiating once with respect to electric field.
                with respect to dipole field.
          Electric field/nuclear overlap derivatives assumed to be zero.
          Keep R1 ints in memory in canonical form, NReq=510060614.
          There are     1 degrees of freedom in the 1st order CPHF.  IDoFFX=0.
 LinEq1:  Iter=  0 NonCon=     1 RMS=1.78D-03 Max=6.60D-02
 AX will form     1 AO Fock derivatives at one time.
 LinEq1:  Iter=  1 NonCon=     1 RMS=8.41D-04 Max=1.81D-02
 LinEq1:  Iter=  2 NonCon=     1 RMS=3.81D-04 Max=1.47D-02
 LinEq1:  Iter=  3 NonCon=     1 RMS=1.25D-04 Max=4.33D-03
 LinEq1:  Iter=  4 NonCon=     1 RMS=4.84D-05 Max=9.28D-04
 LinEq1:  Iter=  5 NonCon=     1 RMS=9.57D-06 Max=1.72D-04
 LinEq1:  Iter=  6 NonCon=     1 RMS=3.25D-06 Max=7.84D-05
 LinEq1:  Iter=  7 NonCon=     1 RMS=7.09D-07 Max=2.19D-05
 LinEq1:  Iter=  8 NonCon=     1 RMS=1.38D-07 Max=4.09D-06
 LinEq1:  Iter=  9 NonCon=     1 RMS=3.37D-08 Max=1.03D-06
 LinEq1:  Iter= 10 NonCon=     1 RMS=9.42D-09 Max=2.07D-07
 LinEq1:  Iter= 11 NonCon=     1 RMS=1.97D-09 Max=4.91D-08
 LinEq1:  Iter= 12 NonCon=     1 RMS=3.65D-10 Max=8.65D-09
 LinEq1:  Iter= 13 NonCon=     1 RMS=7.67D-11 Max=1.13D-09
 LinEq1:  Iter= 14 NonCon=     0 RMS=2.37D-11 Max=4.79D-10
 Linear equations converged to 1.000D-10 1.000D-09 after    14 iterations.
 End of Minotr Frequency-dependent properties file   721 does not exist.
 End of Minotr Frequency-dependent properties file   722 does not exist.

 **********************************************************************

            Population analysis using the QCI/CC density.

 **********************************************************************

     Natural Orbital Coefficients:
                           1         2         3         4         5
     Eigenvalues --     2.00003   2.00002   2.00002   2.00002   2.00001
   1 1   C  1S          0.00010  -0.17654   0.30115   0.09770   0.47041
   2        2S         -0.00002   0.00356  -0.00945  -0.00286  -0.00723
   3        3S          0.00000  -0.00677   0.01128   0.00372   0.01901
   4        4S         -0.00019  -0.01140  -0.01411  -0.00428   0.00522
   5        5S         -0.00011  -0.00463  -0.00460  -0.00140   0.00426
   6        6PX         0.00000   0.00000   0.00000   0.00000   0.00000
   7        6PY        -0.00120   0.00002   0.00091  -0.00286  -0.00002
   8        6PZ         0.00002   0.00105   0.00146   0.00039  -0.00246
   9        7PX         0.00000   0.00000   0.00000   0.00000   0.00000
  10        7PY        -0.00128   0.00001   0.00158  -0.00493   0.00002
  11        7PZ         0.00000  -0.00051   0.00375   0.00109  -0.00053
  12        8PX         0.00000   0.00000   0.00000   0.00000   0.00000
  13        8PY         0.01267  -0.00021   0.00125  -0.00409   0.00017
  14        8PZ         0.00024  -0.00951   0.00610   0.00191   0.00851
  15        9PX         0.00000   0.00000   0.00000   0.00000   0.00000
  16        9PY         0.00364  -0.00006  -0.00010   0.00040  -0.00001
  17        9PZ         0.00006   0.00005   0.00080   0.00026   0.00140
  18       10D 0        0.00000  -0.00007   0.00011   0.00004   0.00003
  19       10D+1        0.00000   0.00000   0.00000   0.00000   0.00000
  20       10D-1       -0.00035   0.00000  -0.00010   0.00034   0.00001
  21       10D+2        0.00000   0.00003   0.00011   0.00003  -0.00022
  22       10D-2        0.00000   0.00000   0.00000   0.00000   0.00000
  23       11D 0       -0.00002  -0.00111  -0.00030  -0.00011   0.00015
  24       11D+1        0.00000   0.00000   0.00000   0.00000   0.00000
  25       11D-1        0.00000   0.00000  -0.00037   0.00108  -0.00004
  26       11D+2       -0.00001  -0.00003   0.00153   0.00048   0.00067
  27       11D-2        0.00000   0.00000   0.00000   0.00000   0.00000
  28       12D 0       -0.00001  -0.00423   0.00095   0.00031   0.00475
  29       12D+1        0.00000   0.00000   0.00000   0.00000   0.00000
  30       12D-1       -0.00634   0.00008  -0.00097   0.00289   0.00000
  31       12D+2        0.00000  -0.00151   0.00191   0.00060   0.00201
  32       12D-2        0.00000   0.00000   0.00000   0.00000   0.00000
  33       13F 0        0.00000  -0.00001   0.00001   0.00000  -0.00009
  34       13F+1        0.00000   0.00000   0.00000   0.00000   0.00000
  35       13F-1       -0.00031   0.00000   0.00002  -0.00007   0.00000
  36       13F+2        0.00000  -0.00007   0.00001   0.00000   0.00009
  37       13F-2        0.00000   0.00000   0.00000   0.00000   0.00000
  38       13F+3        0.00000   0.00000   0.00000   0.00000   0.00000
  39       13F-3        0.00006   0.00000   0.00002  -0.00007   0.00000
  40       14F 0       -0.00001   0.00017  -0.00010  -0.00004  -0.00104
  41       14F+1        0.00000   0.00000   0.00000   0.00000   0.00000
  42       14F-1        0.00184   0.00000  -0.00024   0.00068  -0.00004
  43       14F+2       -0.00002   0.00044  -0.00033  -0.00012  -0.00106
  44       14F-2        0.00000   0.00000   0.00000   0.00000   0.00000
  45       14F+3        0.00000   0.00000   0.00000   0.00000   0.00000
  46       14F-3       -0.00029   0.00001  -0.00006   0.00020  -0.00002
  47 2   S  1S         -0.00154  -0.21721  -0.00819  -0.00378  -0.15661
  48        2S          0.00528   0.74233   0.02850   0.01311   0.54065
  49        3S         -0.00015  -0.02058  -0.00104  -0.00041  -0.00837
  50        4S          0.00035   0.04976   0.00187   0.00088   0.03875
  51        5S         -0.00011   0.01159  -0.00101  -0.00037  -0.01513
  52        6S         -0.00008   0.00172   0.00025   0.00008  -0.00422
  53        7PX         0.00000   0.00000   0.00000   0.00000   0.00000
  54        7PY         0.97036  -0.00185  -0.02872   0.09032  -0.00490
  55        7PZ        -0.00318   0.62305   0.02263   0.00428  -0.49551
  56        8PX         0.00000   0.00000   0.00000   0.00000   0.00000
  57        8PY        -0.01889   0.00003   0.00042  -0.00120   0.00009
  58        8PZ         0.00007  -0.01237  -0.00056  -0.00013   0.00847
  59        9PX         0.00000   0.00000   0.00000   0.00000   0.00000
  60        9PY         0.05628  -0.00010  -0.00175   0.00552  -0.00031
  61        9PZ        -0.00018   0.03838   0.00147   0.00029  -0.03227
  62       10PX         0.00000   0.00000   0.00000   0.00000   0.00000
  63       10PY        -0.00356  -0.00010   0.00042  -0.00096   0.00007
  64       10PZ         0.00007  -0.00859  -0.00063  -0.00019   0.00537
  65       11PX         0.00000   0.00000   0.00000   0.00000   0.00000
  66       11PY        -0.00129   0.00001   0.00002  -0.00007   0.00001
  67       11PZ         0.00001  -0.00023  -0.00019  -0.00006   0.00027
  68       12D 0       -0.00001   0.00230   0.00016   0.00004  -0.00223
  69       12D+1        0.00000   0.00000   0.00000   0.00000   0.00000
  70       12D-1        0.00268   0.00001  -0.00024   0.00067  -0.00005
  71       12D+2       -0.00002  -0.00040  -0.00006  -0.00002   0.00009
  72       12D-2        0.00000   0.00000   0.00000   0.00000   0.00000
  73       13D 0        0.00001   0.00016  -0.00014  -0.00005   0.00021
  74       13D+1        0.00000   0.00000   0.00000   0.00000   0.00000
  75       13D-1       -0.00036   0.00001  -0.00005   0.00018   0.00000
  76       13D+2        0.00000   0.00030   0.00002   0.00001   0.00017
  77       13D-2        0.00000   0.00000   0.00000   0.00000   0.00000
  78       14D 0        0.00000   0.00122   0.00026   0.00008  -0.00045
  79       14D+1        0.00000   0.00000   0.00000   0.00000   0.00000
  80       14D-1       -0.00080   0.00004  -0.00010   0.00019  -0.00002
  81       14D+2        0.00000   0.00049  -0.00034  -0.00012  -0.00032
  82       14D-2        0.00000   0.00000   0.00000   0.00000   0.00000
  83       15F 0        0.00000  -0.00019   0.00010   0.00003   0.00017
  84       15F+1        0.00000   0.00000   0.00000   0.00000   0.00000
  85       15F-1       -0.00015   0.00000   0.00004  -0.00011   0.00000
  86       15F+2        0.00000   0.00013   0.00002   0.00000  -0.00017
  87       15F-2        0.00000   0.00000   0.00000   0.00000   0.00000
  88       15F+3        0.00000   0.00000   0.00000   0.00000   0.00000
  89       15F-3        0.00011   0.00000   0.00000   0.00000   0.00000
  90       16F 0        0.00000  -0.00044  -0.00005  -0.00001   0.00034
  91       16F+1        0.00000   0.00000   0.00000   0.00000   0.00000
  92       16F-1       -0.00084   0.00000   0.00004  -0.00009   0.00001
  93       16F+2        0.00001  -0.00013   0.00011   0.00004   0.00004
  94       16F-2        0.00000   0.00000   0.00000   0.00000   0.00000
  95       16F+3        0.00000   0.00000   0.00000   0.00000   0.00000
  96       16F-3       -0.00019   0.00000   0.00000   0.00001   0.00000
  97 3   Br 1S          0.00038   0.00074  -0.04853   0.02332   0.04322
  98        2S         -0.00152  -0.00273   0.17951  -0.08621  -0.16078
  99        3S          0.00351   0.00597  -0.37612   0.17948   0.34535
 100        4S         -0.00095  -0.00021  -0.00098   0.00041   0.00213
 101        5S         -0.00015   0.00017  -0.02043   0.00967   0.01676
 102        6S          0.01039  -0.00208   0.00634  -0.00130   0.00582
 103        7S          0.00689   0.00100   0.00220   0.00128  -0.00026
 104        8PX         0.00000   0.00000   0.00000   0.00000   0.00000
 105        8PY         0.02282   0.00493   0.25961  -0.15466   0.01770
 106        8PZ         0.02013   0.00620   0.16518  -0.09088  -0.01100
 107        9PX         0.00000   0.00000   0.00000   0.00000   0.00000
 108        9PY        -0.06039  -0.01272  -0.67513   0.40389  -0.05817
 109        9PZ        -0.05429  -0.01689  -0.42976   0.23547   0.02592
 110       10PX         0.00000   0.00000   0.00000   0.00000   0.00000
 111       10PY         0.00069  -0.00051   0.00277  -0.00003   0.00077
 112       10PZ        -0.00051  -0.00041   0.00174  -0.00088   0.00095
 113       11PX         0.00000   0.00000   0.00000   0.00000   0.00000
 114       11PY        -0.00334  -0.00063  -0.03204   0.01905  -0.00268
 115       11PZ        -0.00314  -0.00100  -0.02050   0.01108   0.00130
 116       12PX         0.00000   0.00000   0.00000   0.00000   0.00000
 117       12PY         0.00473   0.00013   0.00123   0.00154  -0.00054
 118       12PZ         0.00206  -0.00170   0.00116   0.00061   0.00222
 119       13PX         0.00000   0.00000   0.00000   0.00000   0.00000
 120       13PY         0.00069   0.00024   0.00042   0.00015  -0.00005
 121       13PZ         0.00057   0.00011   0.00017   0.00006  -0.00026
 122       14D 0       -0.00001  -0.00002   0.00174  -0.00085  -0.00086
 123       14D+1        0.00000   0.00000   0.00000   0.00000   0.00000
 124       14D-1       -0.00315  -0.00092  -0.03696   0.02155   0.00182
 125       14D+2        0.00196   0.00067   0.02337  -0.01354  -0.00217
 126       14D-2        0.00000   0.00000   0.00000   0.00000   0.00000
 127       15D 0        0.00006   0.00000   0.00020  -0.00001  -0.00006
 128       15D+1        0.00000   0.00000   0.00000   0.00000   0.00000
 129       15D-1       -0.00024  -0.00010  -0.00362   0.00207   0.00034
 130       15D+2        0.00012   0.00011   0.00241  -0.00129  -0.00037
 131       15D-2        0.00000   0.00000   0.00000   0.00000   0.00000
 132       16D 0       -0.00002   0.00019   0.00005  -0.00017  -0.00023
 133       16D+1        0.00000   0.00000   0.00000   0.00000   0.00000
 134       16D-1        0.00034   0.00008   0.00122  -0.00022   0.00034
 135       16D+2       -0.00040  -0.00002  -0.00091   0.00007  -0.00008
 136       16D-2        0.00000   0.00000   0.00000   0.00000   0.00000
 137       17D 0       -0.00009  -0.00025  -0.00001   0.00017   0.00037
 138       17D+1        0.00000   0.00000   0.00000   0.00000   0.00000
 139       17D-1        0.00117  -0.00023   0.00068  -0.00006   0.00030
 140       17D+2       -0.00062  -0.00024  -0.00038  -0.00028   0.00033
 141       17D-2        0.00000   0.00000   0.00000   0.00000   0.00000
 142       18F 0        0.00008   0.00002   0.00034  -0.00022  -0.00004
 143       18F+1        0.00000   0.00000   0.00000   0.00000   0.00000
 144       18F-1       -0.00004   0.00000  -0.00015   0.00010   0.00004
 145       18F+2        0.00001   0.00004   0.00052  -0.00031  -0.00010
 146       18F-2        0.00000   0.00000   0.00000   0.00000   0.00000
 147       18F+3        0.00000   0.00000   0.00000   0.00000   0.00000
 148       18F-3       -0.00006   0.00004   0.00027  -0.00017  -0.00006
 149       19F 0       -0.00002   0.00006  -0.00041   0.00022  -0.00025
 150       19F+1        0.00000   0.00000   0.00000   0.00000   0.00000
 151       19F-1       -0.00004   0.00006   0.00027  -0.00021  -0.00005
 152       19F+2        0.00000  -0.00006  -0.00071   0.00027  -0.00002
 153       19F-2        0.00000   0.00000   0.00000   0.00000   0.00000
 154       19F+3        0.00000   0.00000   0.00000   0.00000   0.00000
 155       19F-3        0.00007  -0.00009  -0.00037   0.00007   0.00012
 156 4   Br 1S         -0.00056   0.00075  -0.02765  -0.04831   0.04078
 157        2S          0.00217  -0.00278   0.10231   0.17873  -0.15171
 158        3S         -0.00484   0.00606  -0.21516  -0.37410   0.32580
 159        4S          0.00098  -0.00021  -0.00060  -0.00089   0.00202
 160        5S          0.00008   0.00017  -0.01166  -0.02010   0.01581
 161        6S         -0.01013  -0.00181   0.00422   0.00436   0.00551
 162        7S         -0.00672   0.00117   0.00240   0.00013  -0.00018
 163        8PX         0.00000   0.00000   0.00000   0.00000   0.00000
 164        8PY         0.02293  -0.00491  -0.12905  -0.27138  -0.01407
 165        8PZ        -0.01976   0.00613   0.08392   0.16414  -0.01248
 166        9PX         0.00000   0.00000   0.00000   0.00000   0.00000
 167        9PY        -0.06081   0.01268   0.33497   0.70738   0.04781
 168        9PZ         0.05331  -0.01673  -0.21881  -0.42644   0.03025
 169       10PX         0.00000   0.00000   0.00000   0.00000   0.00000
 170       10PY         0.00061   0.00050  -0.00225  -0.00164  -0.00079
 171       10PZ         0.00052  -0.00039   0.00094   0.00170   0.00088
 172       11PX         0.00000   0.00000   0.00000   0.00000   0.00000
 173       11PY        -0.00338   0.00063   0.01593   0.03345   0.00222
 174       11PZ         0.00310  -0.00100  -0.01050  -0.02020   0.00150
 175       12PX         0.00000   0.00000   0.00000   0.00000   0.00000
 176       12PY         0.00463  -0.00022  -0.00175   0.00062   0.00044
 177       12PZ        -0.00199  -0.00160   0.00126   0.00011   0.00214
 178       13PX         0.00000   0.00000   0.00000   0.00000   0.00000
 179       13PY         0.00068  -0.00025  -0.00042  -0.00010   0.00004
 180       13PZ        -0.00056   0.00013   0.00016   0.00003  -0.00024
 181       14D 0       -0.00003   0.00000   0.00128   0.00237  -0.00093
 182       14D+1        0.00000   0.00000   0.00000   0.00000   0.00000
 183       14D-1       -0.00294   0.00086   0.01746   0.03605  -0.00195
 184       14D+2       -0.00182   0.00064   0.01119   0.02298  -0.00222
 185       14D-2        0.00000   0.00000   0.00000   0.00000   0.00000
 186       15D 0       -0.00006   0.00000   0.00018   0.00018  -0.00006
 187       15D+1        0.00000   0.00000   0.00000   0.00000   0.00000
 188       15D-1       -0.00022   0.00009   0.00174   0.00351  -0.00034
 189       15D+2       -0.00011   0.00011   0.00122   0.00230  -0.00037
 190       15D-2        0.00000   0.00000   0.00000   0.00000   0.00000
 191       16D 0        0.00001   0.00020  -0.00007   0.00015  -0.00027
 192       16D+1        0.00000   0.00000   0.00000   0.00000   0.00000
 193       16D-1        0.00034  -0.00009  -0.00085  -0.00086  -0.00032
 194       16D+2        0.00041  -0.00001  -0.00071  -0.00058  -0.00010
 195       16D-2        0.00000   0.00000   0.00000   0.00000   0.00000
 196       17D 0        0.00009  -0.00025   0.00008  -0.00015   0.00035
 197       17D+1        0.00000   0.00000   0.00000   0.00000   0.00000
 198       17D-1        0.00116   0.00021  -0.00052  -0.00041  -0.00029
 199       17D+2        0.00063  -0.00024  -0.00045   0.00003   0.00031
 200       17D-2        0.00000   0.00000   0.00000   0.00000   0.00000
 201       18F 0       -0.00008   0.00002   0.00015   0.00036  -0.00005
 202       18F+1        0.00000   0.00000   0.00000   0.00000   0.00000
 203       18F-1       -0.00003   0.00000   0.00006   0.00015  -0.00004
 204       18F+2       -0.00001   0.00004   0.00024   0.00052  -0.00010
 205       18F-2        0.00000   0.00000   0.00000   0.00000   0.00000
 206       18F+3        0.00000   0.00000   0.00000   0.00000   0.00000
 207       18F-3       -0.00007  -0.00003  -0.00013  -0.00028   0.00007
 208       19F 0        0.00002   0.00006  -0.00021  -0.00040  -0.00025
 209       19F+1        0.00000   0.00000   0.00000   0.00000   0.00000
 210       19F-1       -0.00004  -0.00007  -0.00009  -0.00030   0.00007
 211       19F+2        0.00000  -0.00006  -0.00042  -0.00060  -0.00002
 212       19F-2        0.00000   0.00000   0.00000   0.00000   0.00000
 213       19F+3        0.00000   0.00000   0.00000   0.00000   0.00000
 214       19F-3        0.00006   0.00008   0.00027   0.00026  -0.00011
                           6         7         8         9        10
     Eigenvalues --     2.00001   2.00001   2.00001   2.00001   2.00001
   1 1   C  1S          0.02398   0.08257   0.00000   0.01981  -0.09221
   2        2S         -0.00058  -0.00239   0.00000  -0.00030   0.00139
   3        3S          0.00092   0.00308   0.00000   0.00081  -0.00377
   4        4S          0.00142   0.00902   0.00000  -0.00027   0.00127
   5        5S          0.00022   0.00134   0.00000   0.00015  -0.00070
   6        6PX         0.00000   0.00000  -0.00073   0.00000   0.00000
   7        6PY         0.00002   0.00003   0.00000  -0.00031  -0.00008
   8        6PZ        -0.00020  -0.00113   0.00000  -0.00010   0.00054
   9        7PX         0.00000   0.00000  -0.00006   0.00000   0.00000
  10        7PY         0.00018   0.00003   0.00000  -0.00043  -0.00012
  11        7PZ        -0.00005  -0.00052   0.00000   0.00000   0.00014
  12        8PX         0.00000   0.00000   0.00157   0.00000   0.00000
  13        8PY         0.00061  -0.00004   0.00000  -0.00518  -0.00102
  14        8PZ         0.00058   0.00317   0.00000  -0.00197   0.00922
  15        9PX         0.00000   0.00000  -0.00091   0.00000   0.00000
  16        9PY         0.00254  -0.00039   0.00000  -0.00117  -0.00021
  17        9PZ         0.00019   0.00108   0.00000  -0.00035   0.00162
  18       10D 0       -0.00001  -0.00008   0.00000   0.00003  -0.00015
  19       10D+1        0.00000   0.00000  -0.00021   0.00000   0.00000
  20       10D-1       -0.00013   0.00001   0.00000  -0.00005  -0.00001
  21       10D+2        0.00001   0.00007   0.00000   0.00001  -0.00006
  22       10D-2        0.00000   0.00000   0.00000   0.00000   0.00000
  23       11D 0        0.00005   0.00029   0.00000   0.00005  -0.00028
  24       11D+1        0.00000   0.00000   0.00057   0.00000   0.00000
  25       11D-1       -0.00001  -0.00001   0.00000  -0.00038  -0.00008
  26       11D+2       -0.00002  -0.00025   0.00000   0.00006  -0.00030
  27       11D-2        0.00000   0.00000   0.00000   0.00000   0.00000
  28       12D 0        0.00035   0.00181   0.00000  -0.00005   0.00016
  29       12D+1        0.00000   0.00000  -0.00136   0.00000   0.00000
  30       12D-1        0.00098  -0.00015   0.00000   0.00064   0.00014
  31       12D+2        0.00006   0.00019   0.00000  -0.00008   0.00040
  32       12D-2        0.00000   0.00000  -0.00003   0.00000   0.00000
  33       13F 0       -0.00002  -0.00013   0.00000   0.00001  -0.00002
  34       13F+1        0.00000   0.00000  -0.00013   0.00000   0.00000
  35       13F-1        0.00002   0.00000   0.00000   0.00003   0.00000
  36       13F+2        0.00000  -0.00001   0.00000  -0.00001   0.00005
  37       13F-2        0.00000   0.00000   0.00000   0.00000   0.00000
  38       13F+3        0.00000   0.00000   0.00005   0.00000   0.00000
  39       13F-3       -0.00002   0.00001   0.00000  -0.00003  -0.00001
  40       14F 0       -0.00001   0.00002   0.00000  -0.00010   0.00047
  41       14F+1        0.00000   0.00000   0.00095   0.00000   0.00000
  42       14F-1       -0.00001  -0.00004   0.00000  -0.00031  -0.00006
  43       14F+2       -0.00001  -0.00001   0.00000   0.00007  -0.00032
  44       14F-2        0.00000   0.00000   0.00001   0.00000   0.00000
  45       14F+3        0.00000   0.00000  -0.00031   0.00000   0.00000
  46       14F-3        0.00001  -0.00001   0.00000   0.00022   0.00005
  47 2   S  1S         -0.01565  -0.08645   0.00000  -0.00314   0.01567
  48        2S          0.05395   0.29799   0.00000   0.01100  -0.05486
  49        3S         -0.00090  -0.00490   0.00000  -0.00018   0.00094
  50        4S          0.00387   0.02138   0.00000   0.00079  -0.00396
  51        5S         -0.00142  -0.00794   0.00000   0.00131  -0.00602
  52        6S         -0.00046  -0.00271   0.00000   0.00088  -0.00408
  53        7PX         0.00000   0.00000   0.72643   0.00000   0.00000
  54        7PY         0.04385  -0.01094   0.00000   0.02241   0.00602
  55        7PZ        -0.05110  -0.29071   0.00000  -0.00950   0.04846
  56        8PX         0.00000   0.00000  -0.00923   0.00000   0.00000
  57        8PY        -0.00052   0.00016   0.00000   0.00039   0.00007
  58        8PZ         0.00092   0.00519   0.00000  -0.00001  -0.00004
  59        9PX         0.00000   0.00000   0.04624   0.00000   0.00000
  60        9PY         0.00270  -0.00068   0.00000   0.00132   0.00036
  61        9PZ        -0.00332  -0.01886   0.00000  -0.00061   0.00309
  62       10PX         0.00000   0.00000   0.00045   0.00000   0.00000
  63       10PY        -0.00062   0.00014   0.00000   0.00132   0.00030
  64       10PZ         0.00059   0.00347   0.00000  -0.00083   0.00385
  65       11PX         0.00000   0.00000  -0.00015   0.00000   0.00000
  66       11PY        -0.00047   0.00007   0.00000   0.00011   0.00002
  67       11PZ         0.00003   0.00020   0.00000  -0.00011   0.00051
  68       12D 0       -0.00025  -0.00138   0.00000  -0.00003   0.00017
  69       12D+1        0.00000   0.00000   0.00161   0.00000   0.00000
  70       12D-1        0.00021  -0.00008   0.00000  -0.00045  -0.00009
  71       12D+2       -0.00002  -0.00010   0.00000  -0.00001   0.00008
  72       12D-2        0.00000   0.00000   0.00001   0.00000   0.00000
  73       13D 0        0.00002   0.00016   0.00000   0.00001  -0.00004
  74       13D+1        0.00000   0.00000  -0.00018   0.00000   0.00000
  75       13D-1        0.00000   0.00000   0.00000   0.00008   0.00002
  76       13D+2        0.00002   0.00012   0.00000   0.00001  -0.00005
  77       13D-2        0.00000   0.00000   0.00000   0.00000   0.00000
  78       14D 0       -0.00007  -0.00043   0.00000   0.00013  -0.00061
  79       14D+1        0.00000   0.00000  -0.00045   0.00000   0.00000
  80       14D-1        0.00015  -0.00003   0.00000  -0.00052  -0.00012
  81       14D+2       -0.00001  -0.00001   0.00000   0.00002  -0.00010
  82       14D-2        0.00000   0.00000   0.00000   0.00000   0.00000
  83       15F 0        0.00001   0.00003   0.00000   0.00000  -0.00002
  84       15F+1        0.00000   0.00000  -0.00019   0.00000   0.00000
  85       15F-1       -0.00004   0.00001   0.00000   0.00006   0.00001
  86       15F+2       -0.00001  -0.00007   0.00000   0.00001  -0.00005
  87       15F-2        0.00000   0.00000   0.00000   0.00000   0.00000
  88       15F+3        0.00000   0.00000   0.00011   0.00000   0.00000
  89       15F-3        0.00001   0.00000   0.00000  -0.00001   0.00000
  90       16F 0        0.00005   0.00027   0.00000   0.00004  -0.00022
  91       16F+1        0.00000   0.00000  -0.00036   0.00000   0.00000
  92       16F-1       -0.00002   0.00002   0.00000   0.00018   0.00004
  93       16F+2        0.00002   0.00009   0.00000  -0.00001   0.00003
  94       16F-2        0.00000   0.00000  -0.00001   0.00000   0.00000
  95       16F+3        0.00000   0.00000  -0.00009   0.00000   0.00000
  96       16F-3       -0.00004   0.00001   0.00000   0.00002   0.00000
  97 3   Br 1S         -0.09394  -0.05857   0.00000  -0.00686   0.00439
  98        2S          0.34988   0.21824   0.00000   0.02571  -0.01647
  99        3S         -0.75459  -0.47169   0.00000  -0.05595   0.03619
 100        4S         -0.00231  -0.00119   0.00000  -0.00008  -0.00009
 101        5S         -0.03655  -0.02264   0.00000  -0.00266   0.00172
 102        6S         -0.00696  -0.00473   0.00000  -0.00388   0.00272
 103        7S          0.00424   0.00014   0.00000  -0.00245   0.00165
 104        8PX         0.00000   0.00000  -0.17506   0.00000   0.00000
 105        8PY        -0.10697  -0.06032   0.00000   0.09525   0.18100
 106        8PZ        -0.04843  -0.08186   0.00000  -0.18179  -0.25164
 107        9PX         0.00000   0.00000   0.49500   0.00000   0.00000
 108        9PY         0.30024   0.16461   0.00000  -0.26999  -0.50441
 109        9PZ         0.13603   0.22800   0.00000   0.50871   0.70745
 110       10PX         0.00000   0.00000   0.00120   0.00000   0.00000
 111       10PY        -0.00001  -0.00058   0.00000  -0.00133  -0.00013
 112       10PZ        -0.00019   0.00017   0.00000   0.00064   0.00128
 113       11PX         0.00000   0.00000   0.02226   0.00000   0.00000
 114       11PY         0.01359   0.00741   0.00000  -0.01202  -0.02234
 115       11PZ         0.00613   0.01046   0.00000   0.02264   0.03142
 116       12PX         0.00000   0.00000   0.00153   0.00000   0.00000
 117       12PY         0.00206  -0.00035   0.00000  -0.00354  -0.00044
 118       12PZ         0.00122   0.00118   0.00000   0.00139   0.00362
 119       13PX         0.00000   0.00000   0.00022   0.00000   0.00000
 120       13PY         0.00043   0.00004   0.00000  -0.00021   0.00045
 121       13PZ         0.00045  -0.00014   0.00000  -0.00045  -0.00016
 122       14D 0        0.00051  -0.00158   0.00000  -0.00755  -0.01146
 123       14D+1        0.00000   0.00000  -0.00027   0.00000   0.00000
 124       14D-1        0.00739   0.00621   0.00000  -0.00240  -0.00799
 125       14D+2       -0.00355  -0.00502   0.00000  -0.00572  -0.00630
 126       14D-2        0.00000   0.00000  -0.00001   0.00000   0.00000
 127       15D 0        0.00006  -0.00011   0.00000  -0.00048  -0.00068
 128       15D+1        0.00000   0.00000   0.00000   0.00000   0.00000
 129       15D-1        0.00041   0.00046   0.00000  -0.00015  -0.00050
 130       15D+2       -0.00017  -0.00039   0.00000  -0.00038  -0.00036
 131       15D-2        0.00000   0.00000   0.00011   0.00000   0.00000
 132       16D 0        0.00002  -0.00017   0.00000  -0.00016  -0.00047
 133       16D+1        0.00000   0.00000  -0.00015   0.00000   0.00000
 134       16D-1        0.00026  -0.00014   0.00000  -0.00014  -0.00022
 135       16D+2       -0.00011   0.00004   0.00000  -0.00006  -0.00034
 136       16D-2        0.00000   0.00000  -0.00035   0.00000   0.00000
 137       17D 0        0.00012   0.00005   0.00000   0.00012  -0.00031
 138       17D+1        0.00000   0.00000  -0.00028   0.00000   0.00000
 139       17D-1        0.00024  -0.00003   0.00000  -0.00036   0.00018
 140       17D+2       -0.00027   0.00025   0.00000   0.00030  -0.00036
 141       17D-2        0.00000   0.00000  -0.00055   0.00000   0.00000
 142       18F 0       -0.00009  -0.00007   0.00000   0.00003   0.00011
 143       18F+1        0.00000   0.00000   0.00001   0.00000   0.00000
 144       18F-1        0.00002   0.00006   0.00000   0.00028   0.00039
 145       18F+2       -0.00011  -0.00012   0.00000  -0.00002   0.00002
 146       18F-2        0.00000   0.00000   0.00018   0.00000   0.00000
 147       18F+3        0.00000   0.00000  -0.00018   0.00000   0.00000
 148       18F-3       -0.00004  -0.00007   0.00000   0.00011   0.00011
 149       19F 0        0.00007   0.00001   0.00000  -0.00004  -0.00010
 150       19F+1        0.00000   0.00000  -0.00001   0.00000   0.00000
 151       19F-1        0.00002  -0.00013   0.00000  -0.00020  -0.00047
 152       19F+2        0.00004   0.00013   0.00000   0.00000   0.00002
 153       19F-2        0.00000   0.00000  -0.00022   0.00000   0.00000
 154       19F+3        0.00000   0.00000   0.00035   0.00000   0.00000
 155       19F-3       -0.00003   0.00010   0.00000  -0.00014  -0.00013
 156 4   Br 1S          0.07301  -0.08318   0.00000   0.00447   0.00733
 157        2S         -0.27191   0.30994   0.00000  -0.01674  -0.02748
 158        3S          0.58617  -0.66965   0.00000   0.03625   0.06020
 159        4S          0.00187  -0.00178   0.00000   0.00010  -0.00004
 160        5S          0.02843  -0.03220   0.00000   0.00173   0.00285
 161        6S          0.00538  -0.00659   0.00000   0.00245   0.00397
 162        7S         -0.00396   0.00141   0.00000   0.00158   0.00236
 163        8PX         0.00000   0.00000  -0.17367   0.00000   0.00000
 164        8PY        -0.08463   0.09577   0.00000   0.15720  -0.12915
 165        8PZ         0.02377  -0.09475   0.00000   0.26905  -0.15778
 166        9PX         0.00000   0.00000   0.49107   0.00000   0.00000
 167        9PY         0.23879  -0.26329   0.00000  -0.44220   0.35775
 168        9PZ        -0.06716   0.26343   0.00000  -0.75366   0.44441
 169       10PX         0.00000   0.00000   0.00120   0.00000   0.00000
 170       10PY         0.00011   0.00056   0.00000  -0.00129  -0.00041
 171       10PZ         0.00025   0.00004   0.00000  -0.00110   0.00093
 172       11PX         0.00000   0.00000   0.02208   0.00000   0.00000
 173       11PY         0.01084  -0.01191   0.00000  -0.01964   0.01583
 174       11PZ        -0.00298   0.01206   0.00000  -0.03351   0.01971
 175       12PX         0.00000   0.00000   0.00156   0.00000   0.00000
 176       12PY         0.00206  -0.00037   0.00000  -0.00343  -0.00093
 177       12PZ        -0.00077   0.00147   0.00000  -0.00277   0.00274
 178       13PX         0.00000   0.00000   0.00022   0.00000   0.00000
 179       13PY         0.00040  -0.00017   0.00000  -0.00002  -0.00049
 180       13PZ        -0.00047   0.00001   0.00000   0.00047   0.00002
 181       14D 0       -0.00088  -0.00150   0.00000   0.01183  -0.00765
 182       14D+1        0.00000   0.00000  -0.00044   0.00000   0.00000
 183       14D-1        0.00504  -0.00834   0.00000  -0.00562   0.00668
 184       14D+2        0.00191  -0.00610   0.00000   0.00781  -0.00339
 185       14D-2        0.00000   0.00000   0.00022   0.00000   0.00000
 186       15D 0       -0.00008  -0.00010   0.00000   0.00075  -0.00045
 187       15D+1        0.00000   0.00000  -0.00002   0.00000   0.00000
 188       15D-1        0.00024  -0.00059   0.00000  -0.00035   0.00042
 189       15D+2        0.00005  -0.00044   0.00000   0.00051  -0.00017
 190       15D-2        0.00000   0.00000  -0.00009   0.00000   0.00000
 191       16D 0       -0.00007  -0.00018   0.00000   0.00033  -0.00036
 192       16D+1        0.00000   0.00000  -0.00014   0.00000   0.00000
 193       16D-1        0.00028   0.00008   0.00000  -0.00023   0.00014
 194       16D+2        0.00011   0.00001   0.00000   0.00018  -0.00028
 195       16D-2        0.00000   0.00000   0.00034   0.00000   0.00000
 196       17D 0       -0.00008   0.00007   0.00000   0.00000  -0.00033
 197       17D+1        0.00000   0.00000  -0.00026   0.00000   0.00000
 198       17D-1        0.00023  -0.00004   0.00000  -0.00026  -0.00030
 199       17D+2        0.00034   0.00015   0.00000  -0.00014  -0.00044
 200       17D-2        0.00000   0.00000   0.00053   0.00000   0.00000
 201       18F 0        0.00006  -0.00011   0.00000  -0.00006   0.00008
 202       18F+1        0.00000   0.00000   0.00000   0.00000   0.00000
 203       18F-1        0.00000  -0.00006   0.00000   0.00041  -0.00025
 204       18F+2        0.00007  -0.00016   0.00000   0.00002   0.00003
 205       18F-2        0.00000   0.00000  -0.00018   0.00000   0.00000
 206       18F+3        0.00000   0.00000  -0.00018   0.00000   0.00000
 207       18F-3       -0.00002   0.00009   0.00000   0.00015  -0.00006
 208       19F 0       -0.00007   0.00003   0.00000   0.00006  -0.00007
 209       19F+1        0.00000   0.00000  -0.00001   0.00000   0.00000
 210       19F-1        0.00006   0.00013   0.00000  -0.00037   0.00035
 211       19F+2        0.00000   0.00015   0.00000  -0.00001   0.00001
 212       19F-2        0.00000   0.00000   0.00021   0.00000   0.00000
 213       19F+3        0.00000   0.00000   0.00034   0.00000   0.00000
 214       19F-3       -0.00006  -0.00009   0.00000  -0.00017   0.00006
                          11        12        13        14        15
     Eigenvalues --     2.00001   2.00000   2.00000   2.00000   2.00000
   1 1   C  1S          0.00000   0.00000   0.76999   0.00074  -0.00080
   2        2S          0.00000   0.00000  -0.00782  -0.00001   0.00001
   3        3S          0.00000   0.00000   0.03229   0.00003  -0.00003
   4        4S          0.00000   0.00000  -0.01009   0.00013  -0.00011
   5        5S          0.00000   0.00000  -0.00549  -0.00006   0.00004
   6        6PX         0.00001  -0.00154   0.00000   0.00000   0.00000
   7        6PY         0.00000   0.00000   0.00001   0.00000   0.00000
   8        6PZ         0.00000   0.00000  -0.00058  -0.00001   0.00000
   9        7PX         0.00001  -0.00173   0.00000   0.00000   0.00000
  10        7PY         0.00000   0.00000   0.00007  -0.00001  -0.00001
  11        7PZ         0.00000   0.00000   0.00165  -0.00002   0.00001
  12        8PX         0.00000  -0.00154   0.00000   0.00000   0.00000
  13        8PY         0.00000   0.00000   0.00000   0.00022   0.00025
  14        8PZ         0.00000   0.00000  -0.00401   0.00081  -0.00063
  15        9PX         0.00000  -0.00048   0.00000   0.00000   0.00000
  16        9PY         0.00000   0.00000  -0.00003   0.00007   0.00009
  17        9PZ         0.00000   0.00000   0.00069   0.00014  -0.00011
  18       10D 0        0.00000   0.00000   0.00030   0.00000   0.00000
  19       10D+1        0.00000  -0.00008   0.00000   0.00000   0.00000
  20       10D-1        0.00000   0.00000   0.00000   0.00000   0.00000
  21       10D+2        0.00000   0.00000  -0.00027   0.00000   0.00000
  22       10D-2       -0.00009   0.00000   0.00000   0.00000   0.00000
  23       11D 0        0.00000   0.00000  -0.00032  -0.00001   0.00001
  24       11D+1        0.00000   0.00108   0.00000   0.00000   0.00000
  25       11D-1        0.00000   0.00000  -0.00002   0.00001   0.00001
  26       11D+2        0.00000   0.00000   0.00151   0.00000   0.00001
  27       11D-2       -0.00066   0.00001   0.00000   0.00000   0.00000
  28       12D 0        0.00000   0.00000  -0.00405   0.00008  -0.00006
  29       12D+1       -0.00001  -0.00147   0.00000   0.00000   0.00000
  30       12D-1        0.00000   0.00000   0.00000  -0.00001  -0.00001
  31       12D+2        0.00000   0.00000  -0.00150   0.00006  -0.00005
  32       12D-2        0.00006  -0.00001   0.00000   0.00000   0.00000
  33       13F 0        0.00000   0.00000   0.00034   0.00000   0.00000
  34       13F+1        0.00000  -0.00008   0.00000   0.00000   0.00000
  35       13F-1        0.00000   0.00000   0.00000   0.00000   0.00001
  36       13F+2        0.00000   0.00000  -0.00007   0.00000   0.00000
  37       13F-2        0.00000   0.00000   0.00000   0.00000   0.00000
  38       13F+3        0.00000   0.00001   0.00000   0.00000   0.00000
  39       13F-3        0.00000   0.00000   0.00000   0.00000   0.00000
  40       14F 0        0.00000   0.00000  -0.00109   0.00003  -0.00002
  41       14F+1        0.00000   0.00051   0.00000   0.00000   0.00000
  42       14F-1        0.00000   0.00000   0.00003  -0.00003  -0.00004
  43       14F+2        0.00000   0.00000  -0.00087  -0.00004   0.00003
  44       14F-2        0.00019   0.00001   0.00000   0.00000   0.00000
  45       14F+3        0.00000   0.00019   0.00000   0.00000   0.00000
  46       14F-3        0.00000   0.00000   0.00000  -0.00002  -0.00003
  47 2   S  1S          0.00000   0.00000   0.06081   0.00184  -0.00132
  48        2S          0.00000   0.00000  -0.21165   0.00006   0.00000
  49        3S          0.00000   0.00000   0.00232   0.00003  -0.00002
  50        4S          0.00000   0.00000  -0.01560   0.00000   0.00001
  51        5S          0.00000   0.00000   0.00958  -0.00063   0.00049
  52        6S          0.00000   0.00000   0.00017  -0.00037   0.00029
  53        7PX         0.00237   0.64585   0.00000   0.00000   0.00000
  54        7PY         0.00000   0.00000   0.00215  -0.00004  -0.00006
  55        7PZ         0.00000   0.00000   0.47174   0.00008  -0.00019
  56        8PX        -0.00003  -0.00703   0.00000   0.00000   0.00000
  57        8PY         0.00000   0.00000  -0.00005   0.00001   0.00001
  58        8PZ         0.00000   0.00000  -0.00545   0.00006  -0.00004
  59        9PX         0.00015   0.04158   0.00000   0.00000   0.00000
  60        9PY         0.00000   0.00000   0.00015   0.00000   0.00000
  61        9PZ         0.00000   0.00000   0.03107   0.00000  -0.00001
  62       10PX         0.00001   0.00271   0.00000   0.00000   0.00000
  63       10PY         0.00000   0.00000  -0.00008  -0.00005  -0.00007
  64       10PZ         0.00000   0.00000  -0.00138   0.00036  -0.00028
  65       11PX         0.00000  -0.00024   0.00000   0.00000   0.00000
  66       11PY         0.00000   0.00000   0.00000  -0.00001  -0.00001
  67       11PZ         0.00000   0.00000  -0.00003   0.00004  -0.00003
  68       12D 0        0.00000   0.00000   0.00094  -0.00001   0.00001
  69       12D+1        0.00000   0.00123   0.00000   0.00000   0.00000
  70       12D-1        0.00000   0.00000   0.00003   0.00001   0.00001
  71       12D+2        0.00000   0.00000   0.00029   0.00001  -0.00001
  72       12D-2       -0.00004   0.00001   0.00000   0.00000   0.00000
  73       13D 0        0.00000   0.00000  -0.00055   0.00000   0.00000
  74       13D+1        0.00000  -0.00006   0.00000   0.00000   0.00000
  75       13D-1        0.00000   0.00000  -0.00001   0.00000   0.00000
  76       13D+2        0.00000   0.00000  -0.00010   0.00000   0.00000
  77       13D-2       -0.00003   0.00000   0.00000   0.00000   0.00000
  78       14D 0        0.00000   0.00000  -0.00002  -0.00006   0.00004
  79       14D+1        0.00000  -0.00110   0.00000   0.00000   0.00000
  80       14D-1        0.00000   0.00000   0.00003   0.00003   0.00004
  81       14D+2        0.00000   0.00000   0.00055  -0.00001   0.00000
  82       14D-2        0.00000  -0.00001   0.00000   0.00000   0.00000
  83       15F 0        0.00000   0.00000   0.00040   0.00000   0.00000
  84       15F+1        0.00000  -0.00021   0.00000   0.00000   0.00000
  85       15F-1        0.00000   0.00000   0.00001   0.00000   0.00000
  86       15F+2        0.00000   0.00000   0.00011  -0.00001   0.00001
  87       15F-2        0.00000   0.00000   0.00000   0.00000   0.00000
  88       15F+3        0.00000   0.00009   0.00000   0.00000   0.00000
  89       15F-3        0.00000   0.00000   0.00000   0.00000   0.00000
  90       16F 0        0.00000   0.00000  -0.00037  -0.00002   0.00001
  91       16F+1        0.00000  -0.00012   0.00000   0.00000   0.00000
  92       16F-1        0.00000   0.00000  -0.00001   0.00000  -0.00001
  93       16F+2        0.00000   0.00000  -0.00045   0.00000   0.00000
  94       16F-2        0.00001   0.00000   0.00000   0.00000   0.00000
  95       16F+3        0.00000  -0.00012   0.00000   0.00000   0.00000
  96       16F-3        0.00000   0.00000   0.00000   0.00000   0.00000
  97 3   Br 1S          0.00000   0.00000   0.00150   0.00750   0.00854
  98        2S          0.00000   0.00000  -0.00432  -0.02151  -0.02742
  99        3S          0.00000   0.00000  -0.00632  -0.00185  -0.00280
 100        4S          0.00000   0.00000   0.00067  -0.00002   0.00002
 101        5S          0.00000   0.00000  -0.00049  -0.00006  -0.00009
 102        6S          0.00000   0.00000   0.00088   0.00038  -0.00012
 103        7S          0.00000   0.00000   0.00245   0.00033   0.00004
 104        8PX        -0.26060   0.19889   0.00000   0.00000   0.00000
 105        8PY         0.00000   0.00000  -0.08138   0.02329  -0.65260
 106        8PZ         0.00000   0.00000  -0.07205  -0.14648   0.74982
 107        9PX         0.73696  -0.55986   0.00000   0.00000   0.00000
 108        9PY         0.00000   0.00000   0.16426  -0.00133   0.00965
 109        9PZ         0.00000   0.00000   0.16099   0.00212  -0.01744
 110       10PX         0.00124   0.00030   0.00000   0.00000   0.00000
 111       10PY         0.00000   0.00000  -0.00024   0.00006  -0.00032
 112       10PZ         0.00000   0.00000  -0.00001  -0.00003   0.00034
 113       11PX         0.03291  -0.02439   0.00000   0.00000   0.00000
 114       11PY         0.00000   0.00000   0.00675  -0.00008   0.00091
 115       11PZ         0.00000   0.00000   0.00657   0.00020  -0.00129
 116       12PX         0.00379  -0.00250   0.00000   0.00000   0.00000
 117       12PY         0.00000   0.00000   0.00192   0.00025   0.00004
 118       12PZ         0.00000   0.00000  -0.00017   0.00014  -0.00009
 119       13PX        -0.00031   0.00038   0.00000   0.00000   0.00000
 120       13PY         0.00000   0.00000   0.00037   0.00005  -0.00002
 121       13PZ         0.00000   0.00000   0.00018   0.00002   0.00004
 122       14D 0        0.00000   0.00000  -0.00125  -0.00007   0.00055
 123       14D+1       -0.00044   0.00012   0.00000   0.00000   0.00000
 124       14D-1        0.00000   0.00000   0.01072   0.00000   0.00033
 125       14D+2        0.00000   0.00000  -0.00741  -0.00007   0.00030
 126       14D-2        0.00033  -0.00043   0.00000   0.00000   0.00000
 127       15D 0        0.00000   0.00000  -0.00009   0.00000   0.00001
 128       15D+1        0.00005  -0.00011   0.00000   0.00000   0.00000
 129       15D-1        0.00000   0.00000   0.00093   0.00001   0.00001
 130       15D+2        0.00000   0.00000  -0.00066  -0.00001   0.00000
 131       15D-2        0.00013  -0.00017   0.00000   0.00000   0.00000
 132       16D 0        0.00000   0.00000   0.00013  -0.00001   0.00009
 133       16D+1       -0.00011   0.00012   0.00000   0.00000   0.00000
 134       16D-1        0.00000   0.00000   0.00099   0.00000   0.00003
 135       16D+2        0.00000   0.00000  -0.00042  -0.00002   0.00006
 136       16D-2       -0.00019  -0.00001   0.00000   0.00000   0.00000
 137       17D 0        0.00000   0.00000  -0.00025  -0.00002  -0.00001
 138       17D+1        0.00007  -0.00011   0.00000   0.00000   0.00000
 139       17D-1        0.00000   0.00000   0.00011   0.00004  -0.00001
 140       17D+2        0.00000   0.00000  -0.00052  -0.00005  -0.00001
 141       17D-2        0.00013  -0.00036   0.00000   0.00000   0.00000
 142       18F 0        0.00000   0.00000  -0.00012   0.00000   0.00000
 143       18F+1        0.00002  -0.00002   0.00000   0.00000   0.00000
 144       18F-1        0.00000   0.00000   0.00011   0.00000  -0.00001
 145       18F+2        0.00000   0.00000  -0.00019   0.00000   0.00000
 146       18F-2        0.00023  -0.00019   0.00000   0.00000   0.00000
 147       18F+3       -0.00018   0.00011   0.00000   0.00000   0.00000
 148       18F-3        0.00000   0.00000  -0.00007  -0.00001   0.00000
 149       19F 0        0.00000   0.00000  -0.00007   0.00000   0.00001
 150       19F+1       -0.00002   0.00006   0.00000   0.00000   0.00000
 151       19F-1        0.00000   0.00000   0.00021  -0.00001   0.00004
 152       19F+2        0.00000   0.00000  -0.00022   0.00000   0.00000
 153       19F-2       -0.00018   0.00016   0.00000   0.00000   0.00000
 154       19F+3        0.00014   0.00002   0.00000   0.00000   0.00000
 155       19F-3        0.00000   0.00000  -0.00006   0.00000   0.00001
 156 4   Br 1S          0.00000   0.00000   0.00138  -0.00648  -0.01117
 157        2S          0.00000   0.00000  -0.00388   0.02167   0.03327
 158        3S          0.00000   0.00000  -0.00708   0.00212   0.00288
 159        4S          0.00000   0.00000   0.00063  -0.00002   0.00002
 160        5S          0.00000   0.00000  -0.00052   0.00006   0.00009
 161        6S          0.00000   0.00000   0.00084   0.00019  -0.00032
 162        7S          0.00000   0.00000   0.00250   0.00004  -0.00032
 163        8PX         0.26412   0.19539   0.00000   0.00000   0.00000
 164        8PY         0.00000   0.00000   0.08288  -0.62177  -0.15173
 165        8PZ         0.00000   0.00000  -0.07224  -0.77779  -0.03747
 166        9PX        -0.74694  -0.55000   0.00000   0.00000   0.00000
 167        9PY         0.00000   0.00000  -0.17136   0.00963   0.00111
 168        9PZ         0.00000   0.00000   0.16339   0.01724   0.00224
 169       10PX        -0.00126   0.00030   0.00000   0.00000   0.00000
 170       10PY         0.00000   0.00000   0.00025  -0.00031  -0.00003
 171       10PZ         0.00000   0.00000  -0.00002  -0.00034  -0.00004
 172       11PX        -0.03334  -0.02396   0.00000   0.00000   0.00000
 173       11PY         0.00000   0.00000  -0.00709   0.00088   0.00016
 174       11PZ         0.00000   0.00000   0.00668   0.00130   0.00012
 175       12PX        -0.00385  -0.00246   0.00000   0.00000   0.00000
 176       12PY         0.00000   0.00000  -0.00194  -0.00002   0.00024
 177       12PZ         0.00000   0.00000  -0.00010   0.00012  -0.00011
 178       13PX         0.00031   0.00037   0.00000   0.00000   0.00000
 179       13PY         0.00000   0.00000  -0.00037  -0.00003   0.00004
 180       13PZ         0.00000   0.00000   0.00019  -0.00003  -0.00003
 181       14D 0        0.00000   0.00000  -0.00146  -0.00056  -0.00007
 182       14D+1        0.00069   0.00031   0.00000   0.00000   0.00000
 183       14D-1        0.00000   0.00000  -0.01037   0.00032   0.00010
 184       14D+2        0.00000   0.00000  -0.00729  -0.00030   0.00001
 185       14D-2        0.00001   0.00019   0.00000   0.00000   0.00000
 186       15D 0        0.00000   0.00000  -0.00011  -0.00001   0.00000
 187       15D+1       -0.00003  -0.00009   0.00000   0.00000   0.00000
 188       15D-1        0.00000   0.00000  -0.00090   0.00001   0.00001
 189       15D+2        0.00000   0.00000  -0.00064   0.00000   0.00001
 190       15D-2        0.00010   0.00014   0.00000   0.00000   0.00000
 191       16D 0        0.00000   0.00000   0.00013  -0.00009  -0.00001
 192       16D+1        0.00011   0.00012   0.00000   0.00000   0.00000
 193       16D-1        0.00000   0.00000  -0.00099   0.00003   0.00000
 194       16D+2        0.00000   0.00000  -0.00042  -0.00006   0.00001
 195       16D-2       -0.00019   0.00001   0.00000   0.00000   0.00000
 196       17D 0        0.00000   0.00000  -0.00024   0.00000   0.00002
 197       17D+1       -0.00007  -0.00011   0.00000   0.00000   0.00000
 198       17D-1        0.00000   0.00000  -0.00011  -0.00002   0.00004
 199       17D+2        0.00000   0.00000  -0.00052   0.00000   0.00005
 200       17D-2        0.00013   0.00035   0.00000   0.00000   0.00000
 201       18F 0        0.00000   0.00000  -0.00012   0.00000   0.00000
 202       18F+1       -0.00002  -0.00002   0.00000   0.00000   0.00000
 203       18F-1        0.00000   0.00000  -0.00011  -0.00001   0.00000
 204       18F+2        0.00000   0.00000  -0.00019   0.00000   0.00000
 205       18F-2        0.00023   0.00018   0.00000   0.00000   0.00000
 206       18F+3        0.00018   0.00011   0.00000   0.00000   0.00000
 207       18F-3        0.00000   0.00000   0.00007   0.00000   0.00000
 208       19F 0        0.00000   0.00000  -0.00007  -0.00001  -0.00001
 209       19F+1        0.00002   0.00005   0.00000   0.00000   0.00000
 210       19F-1        0.00000   0.00000  -0.00021   0.00004   0.00000
 211       19F+2        0.00000   0.00000  -0.00022   0.00000  -0.00001
 212       19F-2       -0.00018  -0.00016   0.00000   0.00000   0.00000
 213       19F+3       -0.00014   0.00002   0.00000   0.00000   0.00000
 214       19F-3        0.00000   0.00000   0.00006   0.00001   0.00000
                          16        17        18        19        20
     Eigenvalues --     2.00000   2.00000   2.00000   2.00000   2.00000
   1 1   C  1S          0.00050   0.00000   0.00000   0.02385  -0.00075
   2        2S         -0.00001   0.00000   0.00000  -0.00022   0.00001
   3        3S          0.00002   0.00000   0.00000   0.00105  -0.00003
   4        4S          0.00001   0.00000   0.00000  -0.00137   0.00002
   5        5S          0.00000   0.00000   0.00000  -0.00064   0.00001
   6        6PX         0.00000   0.00001   0.00000   0.00000   0.00000
   7        6PY        -0.00003   0.00000   0.00000   0.00000   0.00000
   8        6PZ         0.00000   0.00000   0.00000  -0.00004   0.00000
   9        7PX         0.00000  -0.00002   0.00000   0.00000   0.00000
  10        7PY         0.00006   0.00000   0.00000   0.00000  -0.00002
  11        7PZ         0.00000   0.00000   0.00000   0.00007   0.00000
  12        8PX         0.00000  -0.00015   0.00001   0.00000   0.00000
  13        8PY         0.00061   0.00000   0.00000   0.00001  -0.00002
  14        8PZ        -0.00001   0.00000   0.00000   0.00053  -0.00001
  15        9PX         0.00000   0.00003   0.00000   0.00000   0.00000
  16        9PY         0.00007   0.00000   0.00000   0.00000   0.00001
  17        9PZ         0.00000   0.00000   0.00000   0.00013   0.00000
  18       10D 0        0.00000   0.00000   0.00000   0.00001   0.00000
  19       10D+1        0.00000   0.00000   0.00000   0.00000   0.00000
  20       10D-1        0.00000   0.00000   0.00000   0.00000   0.00000
  21       10D+2        0.00000   0.00000   0.00000  -0.00001   0.00000
  22       10D-2        0.00000   0.00000  -0.00001   0.00000   0.00000
  23       11D 0        0.00000   0.00000   0.00000  -0.00003   0.00000
  24       11D+1        0.00000   0.00002   0.00000   0.00000   0.00000
  25       11D-1       -0.00008   0.00000   0.00000   0.00000   0.00001
  26       11D+2        0.00000   0.00000   0.00000   0.00014   0.00000
  27       11D-2        0.00000   0.00000   0.00004   0.00000   0.00000
  28       12D 0        0.00000   0.00000   0.00000   0.00011   0.00000
  29       12D+1        0.00000  -0.00004   0.00000   0.00000   0.00000
  30       12D-1       -0.00042   0.00000   0.00000   0.00000   0.00005
  31       12D+2        0.00000   0.00000   0.00000   0.00021   0.00000
  32       12D-2        0.00000   0.00000  -0.00004   0.00000   0.00000
  33       13F 0        0.00000   0.00000   0.00000   0.00000   0.00000
  34       13F+1        0.00000   0.00000   0.00000   0.00000   0.00000
  35       13F-1        0.00000   0.00000   0.00000   0.00000   0.00000
  36       13F+2        0.00000   0.00000   0.00000   0.00000   0.00000
  37       13F-2        0.00000   0.00000   0.00000   0.00000   0.00000
  38       13F+3        0.00000  -0.00001   0.00000   0.00000   0.00000
  39       13F-3        0.00001   0.00000   0.00000   0.00000   0.00000
  40       14F 0        0.00000   0.00000   0.00000  -0.00001   0.00000
  41       14F+1        0.00000  -0.00002   0.00000   0.00000   0.00000
  42       14F-1       -0.00005   0.00000   0.00000   0.00000   0.00001
  43       14F+2        0.00000   0.00000   0.00000  -0.00004   0.00000
  44       14F-2        0.00000   0.00000  -0.00003   0.00000   0.00000
  45       14F+3        0.00000   0.00004   0.00000   0.00000   0.00000
  46       14F-3       -0.00004   0.00000   0.00000   0.00000   0.00001
  47 2   S  1S         -0.00013   0.00000   0.00000  -0.03429   0.00364
  48        2S         -0.00012   0.00000   0.00000  -0.00604   0.00022
  49        3S          0.00000   0.00000   0.00000   0.00002   0.00000
  50        4S         -0.00001   0.00000   0.00000  -0.00043   0.00001
  51        5S          0.00001   0.00000   0.00000   0.00003   0.00000
  52        6S          0.00000   0.00000   0.00000   0.00003   0.00001
  53        7PX         0.00000  -0.00082   0.00007   0.00000   0.00000
  54        7PY         0.00056   0.00000   0.00000   0.00005   0.00004
  55        7PZ         0.00027   0.00000   0.00000   0.01331  -0.00042
  56        8PX         0.00000   0.00001   0.00000   0.00000   0.00000
  57        8PY         0.00000   0.00000   0.00000   0.00000  -0.00001
  58        8PZ         0.00000   0.00000   0.00000  -0.00016   0.00000
  59        9PX         0.00000  -0.00005   0.00000   0.00000   0.00000
  60        9PY         0.00004   0.00000   0.00000   0.00000   0.00000
  61        9PZ         0.00002   0.00000   0.00000   0.00089  -0.00003
  62       10PX         0.00000   0.00010  -0.00001   0.00000   0.00000
  63       10PY         0.00018   0.00000   0.00000   0.00000  -0.00001
  64       10PZ         0.00000   0.00000   0.00000  -0.00006   0.00000
  65       11PX         0.00000  -0.00001   0.00000   0.00000   0.00000
  66       11PY         0.00000   0.00000   0.00000   0.00000   0.00000
  67       11PZ         0.00000   0.00000   0.00000  -0.00003   0.00000
  68       12D 0        0.00000   0.00000   0.00000   0.00007   0.00000
  69       12D+1        0.00000  -0.00002   0.00000   0.00000   0.00000
  70       12D-1       -0.00001   0.00000   0.00000   0.00000   0.00000
  71       12D+2        0.00000   0.00000   0.00000  -0.00001   0.00000
  72       12D-2        0.00000   0.00000   0.00001   0.00000   0.00000
  73       13D 0        0.00000   0.00000   0.00000  -0.00002   0.00000
  74       13D+1        0.00000   0.00000   0.00000   0.00000   0.00000
  75       13D-1        0.00000   0.00000   0.00000   0.00000   0.00000
  76       13D+2        0.00000   0.00000   0.00000   0.00000   0.00000
  77       13D-2        0.00000   0.00000   0.00000   0.00000   0.00000
  78       14D 0        0.00000   0.00000   0.00000   0.00003   0.00000
  79       14D+1        0.00000  -0.00005   0.00000   0.00000   0.00000
  80       14D-1       -0.00004   0.00000   0.00000   0.00000   0.00000
  81       14D+2        0.00000   0.00000   0.00000  -0.00002   0.00000
  82       14D-2        0.00000   0.00000   0.00001   0.00000   0.00000
  83       15F 0        0.00000   0.00000   0.00000   0.00001   0.00000
  84       15F+1        0.00000   0.00000   0.00000   0.00000   0.00000
  85       15F-1        0.00000   0.00000   0.00000   0.00000   0.00000
  86       15F+2        0.00000   0.00000   0.00000   0.00001   0.00000
  87       15F-2        0.00000   0.00000   0.00000   0.00000   0.00000
  88       15F+3        0.00000   0.00000   0.00000   0.00000   0.00000
  89       15F-3        0.00000   0.00000   0.00000   0.00000   0.00000
  90       16F 0        0.00000   0.00000   0.00000  -0.00002   0.00000
  91       16F+1        0.00000   0.00002   0.00000   0.00000   0.00000
  92       16F-1        0.00000   0.00000   0.00000   0.00000   0.00000
  93       16F+2        0.00000   0.00000   0.00000   0.00000   0.00000
  94       16F-2        0.00000   0.00000  -0.00001   0.00000   0.00000
  95       16F+3        0.00000  -0.00001   0.00000   0.00000   0.00000
  96       16F-3        0.00000   0.00000   0.00000   0.00000   0.00000
  97 3   Br 1S         -0.04919   0.00000   0.00000   0.00619  -0.19597
  98        2S          0.15366   0.00000   0.00000  -0.02058   0.63513
  99        3S          0.01458   0.00000   0.00000   0.00694   0.02695
 100        4S         -0.00014   0.00000   0.00000  -0.00008  -0.00018
 101        5S          0.00044   0.00000   0.00000   0.00023   0.00063
 102        6S          0.00076   0.00000   0.00000   0.00079   0.00002
 103        7S          0.00008   0.00000   0.00000   0.00029   0.00002
 104        8PX         0.00000   0.77725   0.64244   0.00000   0.00000
 105        8PY         0.46863   0.00000   0.00000   0.57750  -0.13683
 106        8PZ         0.50028   0.00000   0.00000   0.40766  -0.08702
 107        9PX         0.00000  -0.01732  -0.01498   0.00000   0.00000
 108        9PY         0.00531   0.00000   0.00000   0.00884   0.00184
 109        9PZ        -0.00010   0.00000   0.00000   0.00577   0.00114
 110       10PX         0.00000   0.00031   0.00026   0.00000   0.00000
 111       10PY         0.00025   0.00000   0.00000   0.00036  -0.00007
 112       10PZ         0.00029   0.00000   0.00000   0.00023  -0.00005
 113       11PX         0.00000  -0.00132  -0.00112   0.00000   0.00000
 114       11PY        -0.00020   0.00000   0.00000  -0.00017   0.00020
 115       11PZ        -0.00044   0.00000   0.00000  -0.00013   0.00013
 116       12PX         0.00000  -0.00009  -0.00012   0.00000   0.00000
 117       12PY         0.00023   0.00000   0.00000   0.00026   0.00004
 118       12PZ         0.00008   0.00000   0.00000   0.00024   0.00002
 119       13PX         0.00000   0.00002   0.00003   0.00000   0.00000
 120       13PY         0.00000   0.00000   0.00000   0.00004   0.00000
 121       13PZ         0.00001   0.00000   0.00000   0.00001   0.00000
 122       14D 0        0.00008   0.00000   0.00000  -0.00001  -0.00003
 123       14D+1        0.00000   0.00003   0.00002   0.00000   0.00000
 124       14D-1       -0.00021   0.00000   0.00000   0.00008   0.00001
 125       14D+2        0.00024   0.00000   0.00000  -0.00003   0.00005
 126       14D-2        0.00000  -0.00002  -0.00002   0.00000   0.00000
 127       15D 0        0.00000   0.00000   0.00000   0.00000   0.00000
 128       15D+1        0.00000  -0.00001  -0.00001   0.00000   0.00000
 129       15D-1       -0.00004   0.00000   0.00000  -0.00002   0.00000
 130       15D+2        0.00003   0.00000   0.00000   0.00002   0.00000
 131       15D-2        0.00000  -0.00002  -0.00002   0.00000   0.00000
 132       16D 0        0.00004   0.00000   0.00000  -0.00001  -0.00001
 133       16D+1        0.00000   0.00003   0.00002   0.00000   0.00000
 134       16D-1        0.00010   0.00000   0.00000   0.00014  -0.00001
 135       16D+2       -0.00004   0.00000   0.00000  -0.00011   0.00001
 136       16D-2        0.00000   0.00005   0.00003   0.00000   0.00000
 137       17D 0       -0.00003   0.00000   0.00000   0.00001   0.00000
 138       17D+1        0.00000   0.00000  -0.00002   0.00000   0.00000
 139       17D-1        0.00003   0.00000   0.00000   0.00006   0.00001
 140       17D+2       -0.00001   0.00000   0.00000  -0.00003  -0.00002
 141       17D-2        0.00000   0.00000  -0.00002   0.00000   0.00000
 142       18F 0        0.00000   0.00000   0.00000   0.00000   0.00000
 143       18F+1        0.00000   0.00000   0.00000   0.00000   0.00000
 144       18F-1        0.00000   0.00000   0.00000   0.00000   0.00000
 145       18F+2       -0.00001   0.00000   0.00000  -0.00001   0.00000
 146       18F-2        0.00000  -0.00001   0.00000   0.00000   0.00000
 147       18F+3        0.00000   0.00000   0.00000   0.00000   0.00000
 148       18F-3        0.00000   0.00000   0.00000  -0.00001   0.00000
 149       19F 0       -0.00001   0.00000   0.00000  -0.00002   0.00000
 150       19F+1        0.00000   0.00001   0.00000   0.00000   0.00000
 151       19F-1        0.00002   0.00000   0.00000   0.00001   0.00000
 152       19F+2       -0.00002   0.00000   0.00000  -0.00003   0.00000
 153       19F-2        0.00000   0.00002   0.00001   0.00000   0.00000
 154       19F+3        0.00000  -0.00002  -0.00001   0.00000   0.00000
 155       19F-3        0.00000   0.00000   0.00000  -0.00002   0.00000
 156 4   Br 1S          0.05210   0.00000   0.00000   0.00595   0.23931
 157        2S         -0.16298   0.00000   0.00000  -0.01994  -0.77631
 158        3S         -0.01492   0.00000   0.00000   0.00665  -0.03332
 159        4S          0.00014   0.00000   0.00000  -0.00008   0.00022
 160        5S         -0.00044   0.00000   0.00000   0.00022  -0.00079
 161        6S         -0.00077   0.00000   0.00000   0.00076  -0.00005
 162        7S         -0.00008   0.00000   0.00000   0.00028  -0.00004
 163        8PX         0.00000   0.64216  -0.77750   0.00000   0.00000
 164        8PY         0.49181   0.00000   0.00000  -0.57216  -0.13840
 165        8PZ        -0.48487   0.00000   0.00000   0.39877   0.08497
 166        9PX         0.00000  -0.01419   0.01799   0.00000   0.00000
 167        9PY         0.00481   0.00000   0.00000  -0.00882   0.00286
 168        9PZ        -0.00001   0.00000   0.00000   0.00572  -0.00174
 169       10PX         0.00000   0.00026  -0.00031   0.00000   0.00000
 170       10PY         0.00027   0.00000   0.00000  -0.00035  -0.00007
 171       10PZ        -0.00029   0.00000   0.00000   0.00022   0.00005
 172       11PX         0.00000  -0.00109   0.00135   0.00000   0.00000
 173       11PY        -0.00024   0.00000   0.00000   0.00017   0.00024
 174       11PZ         0.00042   0.00000   0.00000  -0.00012  -0.00015
 175       12PX         0.00000  -0.00007   0.00014   0.00000   0.00000
 176       12PY         0.00024   0.00000   0.00000  -0.00025   0.00006
 177       12PZ        -0.00009   0.00000   0.00000   0.00023  -0.00003
 178       13PX         0.00000   0.00001  -0.00003   0.00000   0.00000
 179       13PY         0.00000   0.00000   0.00000  -0.00004   0.00000
 180       13PZ        -0.00001   0.00000   0.00000   0.00001   0.00000
 181       14D 0       -0.00007   0.00000   0.00000  -0.00001   0.00004
 182       14D+1        0.00000   0.00003  -0.00004   0.00000   0.00000
 183       14D-1       -0.00023   0.00000   0.00000  -0.00008   0.00002
 184       14D+2       -0.00024   0.00000   0.00000  -0.00003  -0.00006
 185       14D-2        0.00000   0.00001  -0.00001   0.00000   0.00000
 186       15D 0        0.00000   0.00000   0.00000   0.00000   0.00000
[...]
 167        9PY         0.00827  -0.02885  -0.01224   0.01226   0.00000
 168        9PZ        -0.00637   0.01024  -0.00297   0.00487   0.00000
 169       10PX         0.00000   0.00000   0.00000   0.00000  -0.10221
 170       10PY         0.24823  -0.45690  -0.00285   0.15291   0.00000
 171       10PZ        -0.15828   0.16173  -0.10916   0.04020   0.00000
 172       11PX         0.00000   0.00000   0.00000   0.00000   0.03538
 173       11PY         0.01712   0.00190   0.05162  -0.00165   0.00000
 174       11PZ        -0.01036   0.00120  -0.01144  -0.01808   0.00000
 175       12PX         0.00000   0.00000   0.00000   0.00000   0.38095
 176       12PY         8.08010  -4.97292   2.62783  -5.80810   0.00000
 177       12PZ        -3.31728   5.80111  -1.64862   2.61233   0.00000
 178       13PX         0.00000   0.00000   0.00000   0.00000  -2.10102
 179       13PY        -0.49454  -1.03152   1.97436  -3.35099   0.00000
 180       13PZ        -1.67242   0.67429   0.27243   1.13540   0.00000
 181       14D 0        0.00286  -0.00131  -0.00425  -0.00020   0.00000
 182       14D+1        0.00000   0.00000   0.00000   0.00000   0.00094
 183       14D-1        0.00393   0.00106   0.00002   0.00004   0.00000
 184       14D+2        0.00424  -0.00129   0.00248   0.00371   0.00000
 185       14D-2        0.00000   0.00000   0.00000   0.00000  -0.00122
 186       15D 0       -0.03558   0.02397   0.04902   0.00211   0.00000
 187       15D+1        0.00000   0.00000   0.00000   0.00000  -0.01459
 188       15D-1       -0.05445   0.00154  -0.01347   0.01230   0.00000
 189       15D+2       -0.05191   0.02679  -0.03378  -0.03333   0.00000
 190       15D-2        0.00000   0.00000   0.00000   0.00000   0.02423
 191       16D 0        0.22853  -0.17678  -0.24843  -0.01921   0.00000
 192       16D+1        0.00000   0.00000   0.00000   0.00000   0.07063
 193       16D-1        0.45998  -0.36035   0.28415  -0.14448   0.00000
 194       16D+2        0.42477  -0.40330   0.27440   0.09557   0.00000
 195       16D-2        0.00000   0.00000   0.00000   0.00000  -0.12695
 196       17D 0        0.59322   0.82171   0.28458  -0.45920   0.00000
 197       17D+1        0.00000   0.00000   0.00000   0.00000  -0.15706
 198       17D-1        0.99516  -1.69580  -0.03938  -1.43446   0.00000
 199       17D+2        0.79237  -0.43917  -0.07799  -2.00821   0.00000
 200       17D-2        0.00000   0.00000   0.00000   0.00000   0.14812
 201       18F 0       -0.03608  -0.00256   0.02692  -0.00445   0.00000
 202       18F+1        0.00000   0.00000   0.00000   0.00000  -0.01561
 203       18F-1        0.00293  -0.03487   0.00174   0.01237   0.00000
 204       18F+2       -0.00915  -0.01290   0.00121   0.03827   0.00000
 205       18F-2        0.00000   0.00000   0.00000   0.00000   0.00482
 206       18F+3        0.00000   0.00000   0.00000   0.00000   0.04317
 207       18F-3       -0.02251  -0.01496  -0.01332  -0.03376   0.00000
 208       19F 0        0.19847  -0.08951  -0.07206  -0.06429   0.00000
 209       19F+1        0.00000   0.00000   0.00000   0.00000   0.02424
 210       19F-1       -0.01877   0.03468   0.05077  -0.03914   0.00000
 211       19F+2        0.13834  -0.10709   0.01919  -0.19910   0.00000
 212       19F-2        0.00000   0.00000   0.00000   0.00000  -0.01458
 213       19F+3        0.00000   0.00000   0.00000   0.00000  -0.10276
 214       19F-3       -0.00032   0.08813   0.01913   0.17963   0.00000
                         211       212       213       214
     Eigenvalues --     0.00000   0.00000   0.00000   0.00000
   1 1   C  1S         -0.12779  -0.00565   0.02585  -0.02001
   2        2S         -0.60823  -0.02609   0.10269  -0.06110
   3        3S          0.09114   0.00517  -0.06559   0.11054
   4        4S          3.14478   0.31921  -3.53197   1.01337
   5        5S         21.28966   0.63899   2.62580  26.11449
   6        6PX         0.00000   0.00000   0.00000   0.00000
   7        6PY        -0.00003  -0.01520  -0.00048  -0.00044
   8        6PZ        -0.00628   0.00064  -0.02075   0.01767
   9        7PX         0.00000   0.00000   0.00000   0.00000
  10        7PY         0.00251   0.02366  -0.00201   0.00237
  11        7PZ         0.10789  -0.00281   0.01241  -0.17044
  12        8PX         0.00000   0.00000   0.00000   0.00000
  13        8PY         0.21859  -5.92510  -0.20609  -0.02748
  14        8PZ         3.65599   0.15150  -5.10527   0.28526
  15        9PX         0.00000   0.00000   0.00000   0.00000
  16        9PY         0.59016 -19.75796  -0.60764  -0.18999
  17        9PZ         8.47044   0.52357 -12.91925  -0.38683
  18       10D 0        0.00976   0.00011   0.00928   0.01171
  19       10D+1        0.00000   0.00000   0.00000   0.00000
  20       10D-1        0.00125  -0.01289  -0.00019   0.00002
  21       10D+2       -0.03234  -0.00094   0.01091  -0.03153
  22       10D-2        0.00000   0.00000   0.00000   0.00000
  23       11D 0        0.20879   0.00858  -0.02933  -0.30872
  24       11D+1        0.00000   0.00000   0.00000   0.00000
  25       11D-1       -0.01502   0.25190   0.00562  -0.00573
  26       11D+2        0.15955   0.00326  -0.05665   0.18667
  27       11D-2        0.00000   0.00000   0.00000   0.00000
  28       12D 0        2.87301   0.11829  -0.65984  -0.45333
  29       12D+1        0.00000   0.00000   0.00000   0.00000
  30       12D-1       -0.15063   2.16838   0.04523  -0.01667
  31       12D+2       -0.07904   0.01804  -0.50414  -0.64544
  32       12D-2        0.00000   0.00000   0.00000   0.00000
  33       13F 0       -0.00986   0.00035  -0.01077  -0.02712
  34       13F+1        0.00000   0.00000   0.00000   0.00000
  35       13F-1        0.00012  -0.00457  -0.00036  -0.00032
  36       13F+2       -0.00528   0.00103   0.00721  -0.00777
  37       13F-2        0.00000   0.00000   0.00000   0.00000
  38       13F+3        0.00000   0.00000   0.00000   0.00000
  39       13F-3       -0.00097   0.00853   0.00101   0.00025
  40       14F 0        0.04115  -0.00056   0.06946  -0.14086
  41       14F+1        0.00000   0.00000   0.00000   0.00000
  42       14F-1        0.00491  -0.01672   0.00111   0.00094
  43       14F+2       -0.06832  -0.00360  -0.03295  -0.09989
  44       14F-2        0.00000   0.00000   0.00000   0.00000
  45       14F+3        0.00000   0.00000   0.00000   0.00000
  46       14F-3        0.00097  -0.01528  -0.00266  -0.00109
  47 2   S  1S          0.00680  -0.00004   0.00246   0.00192
  48        2S          0.11998  -0.00256   0.09580   0.01835
  49        3S          0.31643  -0.00346   0.16074   0.07152
  50        4S         -0.03010   0.00686  -0.18193  -0.01065
  51        5S         -6.81363  -0.22336   1.47921   1.59409
  52        6S        -11.34719  -0.74099  20.42895 -12.70892
  53        7PX         0.00000   0.00000   0.00000   0.00000
  54        7PY        -0.00050   0.00811   0.00026  -0.00029
  55        7PZ         0.01629  -0.00028   0.03037  -0.03691
  56        8PX         0.00000   0.00000   0.00000   0.00000
  57        8PY        -0.00573   0.08213   0.00358  -0.00618
  58        8PZ         0.49866   0.00494   0.44682  -0.76224
  59        9PX         0.00000   0.00000   0.00000   0.00000
  60        9PY         0.00167  -0.02674  -0.00085   0.00084
  61        9PZ        -0.03946   0.00170  -0.10475   0.11254
  62       10PX         0.00000   0.00000   0.00000   0.00000
  63       10PY         0.12371  -0.47659  -0.04576   0.02184
  64       10PZ         2.68258   0.19896  -5.99167   2.17075
  65       11PX         0.00000   0.00000   0.00000   0.00000
  66       11PY        -0.10486   5.07759   0.09641   0.07281
  67       11PZ        -1.33558  -0.01614  -2.03019   4.21637
  68       12D 0       -0.61514  -0.02530   0.22598   0.34563
  69       12D+1        0.00000   0.00000   0.00000   0.00000
  70       12D-1       -0.00967   0.13410   0.00269   0.00507
  71       12D+2        0.20234   0.00256   0.01268   0.07800
  72       12D-2        0.00000   0.00000   0.00000   0.00000
  73       13D 0        0.10615   0.00423  -0.03553  -0.00986
  74       13D+1        0.00000   0.00000   0.00000   0.00000
  75       13D-1        0.00160  -0.03578  -0.00034  -0.00013
  76       13D+2       -0.05388  -0.00066   0.00240  -0.01743
  77       13D-2        0.00000   0.00000   0.00000   0.00000
  78       14D 0        1.21597   0.01078   1.69449  -1.20530
  79       14D+1        0.00000   0.00000   0.00000   0.00000
  80       14D-1       -0.03054  -0.27292   0.01859  -0.01576
  81       14D+2       -0.53172  -0.00707  -0.02500   0.00054
  82       14D-2        0.00000   0.00000   0.00000   0.00000
  83       15F 0        0.03879  -0.00049   0.06655  -0.05845
  84       15F+1        0.00000   0.00000   0.00000   0.00000
  85       15F-1        0.00096  -0.01279   0.00051  -0.00074
  86       15F+2       -0.01520  -0.00043  -0.01013   0.01455
  87       15F-2        0.00000   0.00000   0.00000   0.00000
  88       15F+3        0.00000   0.00000   0.00000   0.00000
  89       15F-3        0.00103  -0.03765  -0.00082  -0.00035
  90       16F 0       -0.15679   0.00178  -0.29817   0.08171
  91       16F+1        0.00000   0.00000   0.00000   0.00000
  92       16F-1        0.00106   0.03329  -0.00352  -0.00004
  93       16F+2        0.06809   0.00112   0.01676  -0.07446
  94       16F-2        0.00000   0.00000   0.00000   0.00000
  95       16F+3        0.00000   0.00000   0.00000   0.00000
  96       16F-3       -0.00273   0.10138   0.00235   0.00063
  97 3   Br 1S          0.00026  -0.00006  -0.00022   0.00022
  98        2S          0.00228   0.00267   0.00051   0.00088
  99        3S          0.00987   0.00482  -0.00294   0.00607
 100        4S          0.03013   0.04373   0.00906   0.01055
 101        5S          0.00296   0.11623   0.04463  -0.02840
 102        6S          0.43471  -2.01880  -0.48860   0.10024
 103        7S         -4.03156 -21.38213 -11.08562  -7.56939
 104        8PX         0.00000   0.00000   0.00000   0.00000
 105        8PY        -0.00059  -0.00104  -0.00007  -0.00004
 106        8PZ         0.00002  -0.00062  -0.00025  -0.00011
 107        9PX         0.00000   0.00000   0.00000   0.00000
 108        9PY         0.01861   0.01714   0.00605   0.01820
 109        9PZ         0.01444   0.00585   0.01231   0.01133
 110       10PX         0.00000   0.00000   0.00000   0.00000
 111       10PY         0.18824   0.14844   0.06791   0.21075
 112       10PZ         0.16850   0.03711   0.13100   0.12746
 113       11PX         0.00000   0.00000   0.00000   0.00000
 114       11PY        -0.03061  -0.02819  -0.00628  -0.02528
 115       11PZ        -0.02134  -0.01231  -0.01750  -0.01480
 116       12PX         0.00000   0.00000   0.00000   0.00000
 117       12PY        -0.82348  -4.59536  -1.85987  -0.49832
 118       12PZ        -0.11589  -2.69332  -1.65758  -0.64516
 119       13PX         0.00000   0.00000   0.00000   0.00000
 120       13PY        -0.77670  -1.65614  -3.04467  -2.40627
 121       13PZ        -2.99499  -3.53908   0.21565  -1.48621
 122       14D 0        0.00102   0.00019  -0.00145  -0.00058
 123       14D+1        0.00000   0.00000   0.00000   0.00000
 124       14D-1        0.00202   0.00073   0.00089   0.00156
 125       14D+2       -0.00020   0.00104  -0.00066  -0.00068
 126       14D-2        0.00000   0.00000   0.00000   0.00000
 127       15D 0       -0.01231  -0.00430   0.01491   0.01002
 128       15D+1        0.00000   0.00000   0.00000   0.00000
 129       15D-1       -0.02824   0.00687  -0.00788  -0.02305
 130       15D+2        0.00005  -0.02203   0.00601   0.01219
 131       15D-2        0.00000   0.00000   0.00000   0.00000
 132       16D 0        0.06297   0.02085  -0.05111  -0.06613
 133       16D+1        0.00000   0.00000   0.00000   0.00000
 134       16D-1        0.18220  -0.15302   0.02503   0.20086
 135       16D+2       -0.01955   0.17124  -0.01725  -0.12816
 136       16D-2        0.00000   0.00000   0.00000   0.00000
 137       17D 0       -0.22274   0.15636   0.06191   0.04374
 138       17D+1        0.00000   0.00000   0.00000   0.00000
 139       17D-1       -0.27074  -1.11393  -0.77300  -0.41243
 140       17D+2        0.26230   0.78496   0.51230   0.12352
 141       17D-2        0.00000   0.00000   0.00000   0.00000
 142       18F 0        0.00353  -0.02822   0.00879   0.00214
 143       18F+1        0.00000   0.00000   0.00000   0.00000
 144       18F-1        0.00023   0.01022   0.00409   0.00275
 145       18F+2        0.01788  -0.01425  -0.01520   0.00269
 146       18F-2        0.00000   0.00000   0.00000   0.00000
 147       18F+3        0.00000   0.00000   0.00000   0.00000
 148       18F-3       -0.02773  -0.03022  -0.00690   0.00403
 149       19F 0       -0.05817   0.12617  -0.00018  -0.02822
 150       19F+1        0.00000   0.00000   0.00000   0.00000
 151       19F-1       -0.00130  -0.05160  -0.02266  -0.00395
 152       19F+2       -0.05917   0.12186   0.07345  -0.04046
 153       19F-2        0.00000   0.00000   0.00000   0.00000
 154       19F+3        0.00000   0.00000   0.00000   0.00000
 155       19F-3        0.06555   0.12358   0.03144  -0.03215
 156 4   Br 1S          0.00026   0.00019  -0.00020   0.00024
 157        2S          0.00257  -0.00189   0.00038   0.00092
 158        3S          0.01060  -0.00061  -0.00294   0.00652
 159        4S          0.03466  -0.03312   0.00688   0.01099
 160        5S          0.01416  -0.11432   0.03740  -0.02916
 161        6S          0.15859   1.89167  -0.38417   0.04092
 162        7S         -5.29135  21.44101  -9.51280  -6.96888
 163        8PX         0.00000   0.00000   0.00000   0.00000
 164        8PY         0.00061  -0.00097  -0.00001   0.00004
 165        8PZ         0.00001   0.00061  -0.00024  -0.00012
 166        9PX         0.00000   0.00000   0.00000   0.00000
 167        9PY        -0.01800   0.01698  -0.00430  -0.01698
 168        9PZ         0.01353  -0.00616   0.01196   0.01033
 169       10PX         0.00000   0.00000   0.00000   0.00000
 170       10PY        -0.17996   0.15035  -0.05128  -0.19605
 171       10PZ         0.15734  -0.04125   0.12736   0.11556
 172       11PX         0.00000   0.00000   0.00000   0.00000
 173       11PY         0.02967  -0.02728   0.00373   0.02431
 174       11PZ        -0.02013   0.01254  -0.01728  -0.01398
 175       12PX         0.00000   0.00000   0.00000   0.00000
 176       12PY         1.16703  -4.54359   1.54074   0.45507
 177       12PZ        -0.29744   2.68833  -1.46251  -0.58360
 178       13PX         0.00000   0.00000   0.00000   0.00000
 179       13PY         0.87239  -1.87975   2.88576   2.32922
 180       13PZ        -3.15339   3.33799   0.45172  -1.37487
 181       14D 0        0.00102   0.00000  -0.00146  -0.00059
 182       14D+1        0.00000   0.00000   0.00000   0.00000
 183       14D-1       -0.00212   0.00085  -0.00084  -0.00156
 184       14D+2       -0.00018  -0.00092  -0.00074  -0.00071
 185       14D-2        0.00000   0.00000   0.00000   0.00000
 186       15D 0       -0.01253   0.00218   0.01530   0.01006
 187       15D+1        0.00000   0.00000   0.00000   0.00000
 188       15D-1        0.02785   0.00551   0.00827   0.02334
 189       15D+2       -0.00109   0.02038   0.00738   0.01289
 190       15D-2        0.00000   0.00000   0.00000   0.00000
 191       16D 0        0.06538  -0.01180  -0.05251  -0.06641
 192       16D+1        0.00000   0.00000   0.00000   0.00000
 193       16D-1       -0.16497  -0.14370  -0.03287  -0.19682
 194       16D+2       -0.00355  -0.16089  -0.02495  -0.12799
 195       16D-2        0.00000   0.00000   0.00000   0.00000
 196       17D 0       -0.19105  -0.18382   0.05819   0.05587
 197       17D+1        0.00000   0.00000   0.00000   0.00000
 198       17D-1        0.34068  -1.13771   0.68669   0.38944
 199       17D+2        0.31490  -0.79887   0.44724   0.11370
 200       17D-2        0.00000   0.00000   0.00000   0.00000
 201       18F 0        0.00128   0.02729   0.00980   0.00251
 202       18F+1        0.00000   0.00000   0.00000   0.00000
 203       18F-1        0.00021   0.01000  -0.00388  -0.00207
 204       18F+2        0.01855   0.01565  -0.01366   0.00373
 205       18F-2        0.00000   0.00000   0.00000   0.00000
 206       18F+3        0.00000   0.00000   0.00000   0.00000
 207       18F-3        0.02815  -0.02895   0.00394  -0.00545
 208       19F 0       -0.04576  -0.12641  -0.00641  -0.02845
 209       19F+1        0.00000   0.00000   0.00000   0.00000
 210       19F-1        0.00170  -0.05013   0.01901   0.00216
 211       19F+2       -0.05217  -0.12578   0.06376  -0.04280
 212       19F-2        0.00000   0.00000   0.00000   0.00000
 213       19F+3        0.00000   0.00000   0.00000   0.00000
 214       19F-3       -0.07149   0.12031  -0.02163   0.03568
          Condensed to atoms (all electrons):
              1          2          3          4
     1  C    6.376935  -0.030996  -0.104352  -0.081122
     2  S   -0.030996  16.451904  -0.189205  -0.187190
     3  Br  -0.104352  -0.189205  35.317415  -0.136422
     4  Br  -0.081122  -0.187190  -0.136422  35.312318
 Mulliken atomic charges:
              1
     1  C   -0.160466
     2  S   -0.044514
     3  Br   0.112564
     4  Br   0.092416
 Sum of Mulliken atomic charges =   0.00000
 Mulliken charges with hydrogens summed into heavy atoms:
              1
     1  C   -0.160466
     2  S   -0.044514
     3  Br   0.112564
     4  Br   0.092416
 Sum of Mulliken charges with hydrogens summed into heavy atoms =   0.00000
 Electronic spatial extent (au):  <R**2>=           1431.6406
 Charge=              0.0000 electrons
 Dipole moment (field-independent basis, Debye):
    X=              0.0000    Y=             -0.0666    Z=             -0.4733  Tot=              0.4780
 Quadrupole moment (field-independent basis, Debye-Ang):
   XX=            -54.9569   YY=            -53.8191   ZZ=            -53.7721
   XY=              0.0000   XZ=              0.0000   YZ=              0.1533
 Traceless Quadrupole moment (field-independent basis, Debye-Ang):
   XX=             -0.7742   YY=              0.3636   ZZ=              0.4106
   XY=              0.0000   XZ=              0.0000   YZ=              0.1533
 Octapole moment (field-independent basis, Debye-Ang**2):
  XXX=              0.0000  YYY=             -0.0898  ZZZ=            141.2589  XYY=              0.0000
  XXY=             -0.0287  XXZ=             47.7780  XZZ=              0.0000  YZZ=             -0.2083
  YYZ=             35.3459  XYZ=              0.0000
 Hexadecapole moment (field-independent basis, Debye-Ang**3):
 XXXX=            -67.2506 YYYY=           -572.3508 ZZZZ=           -700.4562 XXXY=              0.0000
 XXXZ=              0.0000 YYYX=              0.0000 YYYZ=              0.4697 ZZZX=              0.0000
 ZZZY=              0.8836 XXYY=           -113.5367 XXZZ=           -130.5002 YYZZ=           -194.9069
 XXYZ=              0.1336 YYXZ=              0.0000 ZZXY=              0.0000
 N-N= 5.475715974937D+02 E-N=-1.443633765978D+04  KE= 5.579846167721D+03
 1\1\GINC-TRAPISTA\SP\RQCISD-FC\Aug-CC-pVTZ\C1Br2S1\BRUNS\29-Nov-2021\0
 \\# qcisd/aug-cc-pvtz nosymm density=current output=wfn\\br2cs-wavefun
 ction\\0,1\C,0,0.,-0.01,-0.519451\S,0,0.,0.,1.083692\Br,0,0.,-1.568516
 ,-1.57857\Br,0,0.,1.568516,-1.57857\\Version=EM64L-G09RevB.01\HF=-5580
 .3086332\MP2=-5581.1187471\MP3=-5581.1309219\MP4D=-5581.1549076\MP4DQ=
 -5581.1314315\MP4SDQ=-5581.1411075\QCISD=-5581.1375458\RMSD=3.141e-09\
 Dipole=0.,-0.0262039,-0.186221\Quadrupole=-0.5755923,0.270328,0.305264
 2,0.,0.,0.1139762\PG=CS [SG(C1Br2S1)]\\@

 Writing a WFN file to GAUSSIAN.wfn.


 A MAN IS EXACTLY AS GREAT AS THE TIDE SURGING
 BENEATH HIM.      - BISMARCK
 Job cpu time:  0 days  5 hours 50 minutes 35.3 seconds.
 File lengths (MBytes):  RWF=  25271 Int=      0 D2E=      0 Chk=      4 Scr=      1
 Normal termination of Gaussian 09 at Mon Nov 29 03:28:26 2021.
