 Entering Gaussian System, Link 0=/home/bruns/programas/chemistry/gaussian/g09/g09
 Input=GAUSSIAN.com
 Output=GAUSSIAN.log
 Initial command:
 /home/bruns/programas/chemistry/gaussian/g09/l1.exe /home/bruns/programas/chemistry/gaussian/work/Gau-19185.inp -scrdir=/home/bruns/programas/chemistry/gaussian/work/
 Entering Link 1 = /home/bruns/programas/chemistry/gaussian/g09/l1.exe PID=     19187.
  
 Copyright (c) 1988,1990,1992,1993,1995,1998,2003,2009,2010,
            Gaussian, Inc.  All Rights Reserved.
  
 This is part of the Gaussian(R) 09 program.  It is based on
 the Gaussian(R) 03 system (copyright 2003, Gaussian, Inc.),
 the Gaussian(R) 98 system (copyright 1998, Gaussian, Inc.),
 the Gaussian(R) 94 system (copyright 1995, Gaussian, Inc.),
 the Gaussian 92(TM) system (copyright 1992, Gaussian, Inc.),
 the Gaussian 90(TM) system (copyright 1990, Gaussian, Inc.),
 the Gaussian 88(TM) system (copyright 1988, Gaussian, Inc.),
 the Gaussian 86(TM) system (copyright 1986, Carnegie Mellon
 University), and the Gaussian 82(TM) system (copyright 1983,
 Carnegie Mellon University). Gaussian is a federally registered
 trademark of Gaussian, Inc.
  
 This software contains proprietary and confidential information,
 including trade secrets, belonging to Gaussian, Inc.
  
 This software is provided under written license and may be
 used, copied, transmitted, or stored only in accord with that
 written license.
  
 The following legend is applicable only to US Government
 contracts under FAR:
  
                    RESTRICTED RIGHTS LEGEND
  
 Use, reproduction and disclosure by the US Government is
 subject to restrictions as set forth in subparagraphs (a)
 and (c) of the Commercial Computer Software - Restricted
 Rights clause in FAR 52.227-19.
  
 Gaussian, Inc.
 340 Quinnipiac St., Bldg. 40, Wallingford CT 06492
  
  
 ---------------------------------------------------------------
 Warning -- This program may not be used in any manner that
 competes with the business of Gaussian, Inc. or will provide
 assistance to any competitor of Gaussian, Inc.  The licensee
 of this program is prohibited from giving any competitor of
 Gaussian, Inc. access to this program.  By using this program,
 the user acknowledges that Gaussian, Inc. is engaged in the
 business of creating and licensing software in the field of
 computational chemistry and represents and warrants to the
 licensee that it is not a competitor of Gaussian, Inc. and that
 it will not use this program in any manner prohibited above.
 ---------------------------------------------------------------
  

 Cite this work as:
 Gaussian 09, Revision B.01,
 M. J. Frisch, G. W. Trucks, H. B. Schlegel, G. E. Scuseria, 
 M. A. Robb, J. R. Cheeseman, G. Scalmani, V. Barone, B. Mennucci, 
 G. A. Petersson, H. Nakatsuji, M. Caricato, X. Li, H. P. Hratchian, 
 A. F. Izmaylov, J. Bloino, G. Zheng, J. L. Sonnenberg, M. Hada, 
 M. Ehara, K. Toyota, R. Fukuda, J. Hasegawa, M. Ishida, T. Nakajima, 
 Y. Honda, O. Kitao, H. Nakai, T. Vreven, J. A. Montgomery, Jr., 
 J. E. Peralta, F. Ogliaro, M. Bearpark, J. J. Heyd, E. Brothers, 
 K. N. Kudin, V. N. Staroverov, T. Keith, R. Kobayashi, J. Normand, 
 K. Raghavachari, A. Rendell, J. C. Burant, S. S. Iyengar, J. Tomasi, 
 M. Cossi, N. Rega, J. M. Millam, M. Klene, J. E. Knox, J. B. Cross, 
 V. Bakken, C. Adamo, J. Jaramillo, R. Gomperts, R. E. Stratmann, 
 O. Yazyev, A. J. Austin, R. Cammi, C. Pomelli, J. W. Ochterski, 
 R. L. Martin, K. Morokuma, V. G. Zakrzewski, G. A. Voth, 
 P. Salvador, J. J. Dannenberg, S. Dapprich, A. D. Daniels, 
 O. Farkas, J. B. Foresman, J. V. Ortiz, J. Cioslowski, 
 and D. J. Fox, Gaussian, Inc., Wallingford CT, 2010.
 
 ******************************************
 Gaussian 09:  EM64L-G09RevB.01 12-Aug-2010
                29-Nov-2021 
 ******************************************
 %nproc=8
 Will use up to    8 processors via shared memory.
 %mem=8GB
 -----------------------------------------------------
 # qcisd/aug-cc-pvtz nosymm density=current output=wfn
 -----------------------------------------------------
 1/30=1,38=1/1;
 2/12=2,15=1,17=6,18=5,40=1/2;
 3/5=16,6=1,7=10,11=9,16=1,25=1,30=1,71=1/1,2,3;
 4//1;
 5/5=2,38=5/2;
 8/6=4,9=120000,10=1/1,4;
 9/5=8,15=1/13;
 11/28=-7,31=1,32=3,42=3/11;
 10/5=6,13=10,31=1/2;
 6/7=2,8=2,9=2,10=2,22=-1,31=1/1;
 99/5=1,6=1100,9=1/99;
 ------------------
 br2cs-wavefunction
 ------------------
 Symbolic Z-matrix:
 Charge =  0 Multiplicity = 1
 C                     0.        0.       -0.51945 
 S                     0.        0.        1.08369 
 Br                    0.       -1.56852  -1.57857 
 Br                    0.        1.56852  -1.58857 
 
                          Input orientation:                          
 ---------------------------------------------------------------------
 Center     Atomic      Atomic             Coordinates (Angstroms)
 Number     Number       Type             X           Y           Z
 ---------------------------------------------------------------------
      1          6           0        0.000000    0.000000   -0.519451
      2         16           0        0.000000    0.000000    1.083692
      3         35           0        0.000000   -1.568516   -1.578570
      4         35           0        0.000000    1.568516   -1.588570
 ---------------------------------------------------------------------
                    Distance matrix (angstroms):
                    1          2          3          4
     1  C    0.000000
     2  S    1.603143   0.000000
     3  Br   1.892611   3.089965   0.000000
     4  Br   1.898225   3.098585   3.137048   0.000000
 Symmetry turned off by external request.
 Stoichiometry    CBr2S
 Framework group  CS[SG(CBr2S)]
 Deg. of freedom     5
 Full point group                 CS      NOp   2
 Rotational constants (GHZ):      2.6130313      1.3014353      0.8687496
 Standard basis: Aug-CC-pVTZ (5D, 7F)
 Integral buffers will be    131072 words long.
 Raffenetti 1 integral format.
 Two-electron integral symmetry is turned off.
   214 basis functions,   620 primitive gaussians,   252 cartesian basis functions
    46 alpha electrons       46 beta electrons
       nuclear repulsion energy       547.1289710297 Hartrees.
 NAtoms=    4 NActive=    4 NUniq=    4 SFac= 1.00D+00 NAtFMM=   50 NAOKFM=F Big=F
 One-electron integrals computed using PRISM.
 NBasis=   214 RedAO= T  NBF=   214
 NBsUse=   214 1.00D-06 NBFU=   214
 Harris functional with IExCor=  205 diagonalized for initial guess.
 ExpMin= 3.51D-02 ExpMax= 1.06D+07 ExpMxC= 1.21D+04 IAcc=3 IRadAn=         0 AccDes= 0.00D+00
 HarFok:  IExCor=  205 AccDes= 0.00D+00 IRadAn=         0 IDoV= 1
 ScaDFX=  1.000000  1.000000  1.000000  1.000000
 FoFCou: FMM=F IPFlag=           0 FMFlag=      100000 FMFlg1=           0
         NFxFlg=           0 DoJE=T BraDBF=F KetDBF=T FulRan=T
         Omega=  0.000000  0.000000  1.000000  0.000000  0.000000 ICntrl=     500 IOpCl=  0
         NMat0=    1 NMatS0=    1 NMatT0=    0 NMatD0=    1 NMtDS0=    0 NMtDT0=    0
         I1Cent=           4 NGrid=           0.
 Symmetry not used in FoFCou.
 Requested convergence on RMS density matrix=1.00D-08 within 128 cycles.
 Requested convergence on MAX density matrix=1.00D-06.
 Requested convergence on             energy=1.00D-06.
 No special actions if energy rises.
 Keep R1 ints in memory in canonical form, NReq=516428601.
 SCF Done:  E(RHF) =  -5580.30861935     A.U. after   14 cycles
             Convg  =    0.3199D-08             -V/T =  2.0000
 ExpMin= 3.51D-02 ExpMax= 1.06D+07 ExpMxC= 1.21D+04 IAcc=3 IRadAn=         5 AccDes= 0.00D+00
 HarFok:  IExCor=  205 AccDes= 0.00D+00 IRadAn=         5 IDoV=-2
 ScaDFX=  1.000000  1.000000  1.000000  1.000000
 DSYEVD returned Info=          89 IAlg= 4 N=    59 NDim=    59 NE2=    18196455 trying DSYEV.
 Range of M.O.s used for correlation:    25   214
 NBasis=   214 NAE=    46 NBE=    46 NFC=    24 NFV=     0
 NROrb=    190 NOA=    22 NOB=    22 NVA=   168 NVB=   168

 **** Warning!!: The largest alpha MO coefficient is  0.30729847D+02

 Semi-Direct transformation.
 ModeAB=           2 MOrb=            22 LenV=    1072457111
 LASXX=     69628944 LTotXX=    69628944 LenRXX=    69628944
 LTotAB=    70719517 MaxLAS=   133250040 LenRXY=   133250040
 NonZer=   139257888 LenScr=   209707008 LnRSAI=           0
 LnScr1=           0 LExtra=           0 Total=    412585992
 MaxDsk=          -1 SrtSym=           F ITran=            4
 JobTyp=0 Pass  1:  I=   1 to  22.
 (rs|ai) integrals will be sorted in core.
 Spin components of T(2) and E(2):
     alpha-alpha T2 =       0.4290025470D-01 E2=     -0.1153913043D+00
     alpha-beta  T2 =       0.2168280947D+00 E2=     -0.5793620623D+00
     beta-beta   T2 =       0.4290025470D-01 E2=     -0.1153913043D+00
 ANorm=    0.1141327562D+01
 E2 =    -0.8101446710D+00 EUMP2 =    -0.55811187640258D+04
 R2 and R3 integrals will be kept in memory, NReq=  1024335774.
 Iterations=  50 Convergence= 0.100D-07
 Iteration Nr.   1
 **********************
 DD1Dir will call FoFMem   1 times, MxPair=       506
 NAB=   253 NAA=     0 NBB=     0.
 MP4(R+Q)=  0.23495758D-01
 E3=       -0.12158505D-01        EUMP3=      -0.55811309225D+04
 E4(DQ)=   -0.52214677D-03        UMP4(DQ)=   -0.55811314447D+04
 E4(SDQ)=  -0.10221377D-01        UMP4(SDQ)=  -0.55811411439D+04
 DE(Corr)= -0.79880742     E(Corr)=     -5581.1074268    
 NORM(A)=   0.11411084D+01
 Iteration Nr.   2
 **********************
 DD1Dir will call FoFMem   1 times, MxPair=       506
 NAB=   253 NAA=     0 NBB=     0.
 DE(Corr)= -0.82762751     E(CORR)=     -5581.1362469     Delta=-2.88D-02
 NORM(A)=   0.11533195D+01
 Iteration Nr.   3
 **********************
 DD1Dir will call FoFMem   1 times, MxPair=       506
 NAB=   253 NAA=     0 NBB=     0.
 DE(Corr)= -0.82620475     E(CORR)=     -5581.1348241     Delta= 1.42D-03
 NORM(A)=   0.11561689D+01
 Iteration Nr.   4
 **********************
 DD1Dir will call FoFMem   1 times, MxPair=       506
 NAB=   253 NAA=     0 NBB=     0.
 DE(Corr)= -0.82856540     E(CORR)=     -5581.1371848     Delta=-2.36D-03
 NORM(A)=   0.11574827D+01
 Iteration Nr.   5
 **********************
 DD1Dir will call FoFMem   1 times, MxPair=       506
 NAB=   253 NAA=     0 NBB=     0.
 DE(Corr)= -0.82887634     E(CORR)=     -5581.1374957     Delta=-3.11D-04
 NORM(A)=   0.11581245D+01
 Iteration Nr.   6
 **********************
 DD1Dir will call FoFMem   1 times, MxPair=       506
 NAB=   253 NAA=     0 NBB=     0.
 DE(Corr)= -0.82894153     E(CORR)=     -5581.1375609     Delta=-6.52D-05
 NORM(A)=   0.11582057D+01
 Iteration Nr.   7
 **********************
 DD1Dir will call FoFMem   1 times, MxPair=       506
 NAB=   253 NAA=     0 NBB=     0.
 DE(Corr)= -0.82895351     E(CORR)=     -5581.1375729     Delta=-1.20D-05
 NORM(A)=   0.11582229D+01
 Iteration Nr.   8
 **********************
 DD1Dir will call FoFMem   1 times, MxPair=       506
 NAB=   253 NAA=     0 NBB=     0.
 DE(Corr)= -0.82894960     E(CORR)=     -5581.1375690     Delta= 3.91D-06
 NORM(A)=   0.11582315D+01
 Iteration Nr.   9
 **********************
 DD1Dir will call FoFMem   1 times, MxPair=       506
 NAB=   253 NAA=     0 NBB=     0.
 DE(Corr)= -0.82895131     E(CORR)=     -5581.1375707     Delta=-1.72D-06
 NORM(A)=   0.11582322D+01
 Iteration Nr.  10
 **********************
 DD1Dir will call FoFMem   1 times, MxPair=       506
 NAB=   253 NAA=     0 NBB=     0.
 DE(Corr)= -0.82895142     E(CORR)=     -5581.1375708     Delta=-1.07D-07
 NORM(A)=   0.11582360D+01
 Iteration Nr.  11
 **********************
 DD1Dir will call FoFMem   1 times, MxPair=       506
 NAB=   253 NAA=     0 NBB=     0.
 DE(Corr)= -0.82895304     E(CORR)=     -5581.1375724     Delta=-1.62D-06
 NORM(A)=   0.11582380D+01
 Iteration Nr.  12
 **********************
 DD1Dir will call FoFMem   1 times, MxPair=       506
 NAB=   253 NAA=     0 NBB=     0.
 DE(Corr)= -0.82895311     E(CORR)=     -5581.1375725     Delta=-7.49D-08
 NORM(A)=   0.11582396D+01
 Iteration Nr.  13
 **********************
 DD1Dir will call FoFMem   1 times, MxPair=       506
 NAB=   253 NAA=     0 NBB=     0.
 DE(Corr)= -0.82895376     E(CORR)=     -5581.1375731     Delta=-6.48D-07
 NORM(A)=   0.11582406D+01
 Iteration Nr.  14
 **********************
 DD1Dir will call FoFMem   1 times, MxPair=       506
 NAB=   253 NAA=     0 NBB=     0.
 DE(Corr)= -0.82895377     E(CORR)=     -5581.1375731     Delta=-1.21D-08
 NORM(A)=   0.11582410D+01
 Iteration Nr.  15
 **********************
 DD1Dir will call FoFMem   1 times, MxPair=       506
 NAB=   253 NAA=     0 NBB=     0.
 DE(Corr)= -0.82895389     E(CORR)=     -5581.1375732     Delta=-1.18D-07
 NORM(A)=   0.11582412D+01
 Iteration Nr.  16
 **********************
 DD1Dir will call FoFMem   1 times, MxPair=       506
 NAB=   253 NAA=     0 NBB=     0.
 DE(Corr)= -0.82895392     E(CORR)=     -5581.1375733     Delta=-2.95D-08
 NORM(A)=   0.11582413D+01
 Iteration Nr.  17
 **********************
 DD1Dir will call FoFMem   1 times, MxPair=       506
 NAB=   253 NAA=     0 NBB=     0.
 DE(Corr)= -0.82895391     E(CORR)=     -5581.1375733     Delta= 1.33D-08
 NORM(A)=   0.11582413D+01
 Iteration Nr.  18
 **********************
 DD1Dir will call FoFMem   1 times, MxPair=       506
 NAB=   253 NAA=     0 NBB=     0.
 DE(Corr)= -0.82895392     E(CORR)=     -5581.1375733     Delta=-1.69D-08
 NORM(A)=   0.11582413D+01
 Iteration Nr.  19
 **********************
 DD1Dir will call FoFMem   1 times, MxPair=       506
 NAB=   253 NAA=     0 NBB=     0.
 DE(Corr)= -0.82895392     E(CORR)=     -5581.1375733     Delta= 3.78D-09
 NORM(A)=   0.11582414D+01
 Iteration Nr.  20
 **********************
 DD1Dir will call FoFMem   1 times, MxPair=       506
 NAB=   253 NAA=     0 NBB=     0.
 DE(Corr)= -0.82895392     E(CORR)=     -5581.1375733     Delta=-2.13D-09
 NORM(A)=   0.11582414D+01
 Iteration Nr.  21
 **********************
 DD1Dir will call FoFMem   1 times, MxPair=       506
 NAB=   253 NAA=     0 NBB=     0.
 DE(Corr)= -0.82895392     E(CORR)=     -5581.1375733     Delta=-6.48D-10
 NORM(A)=   0.11582413D+01
 Iteration Nr.  22
 **********************
 DD1Dir will call FoFMem   1 times, MxPair=       506
 NAB=   253 NAA=     0 NBB=     0.
 DE(Corr)= -0.82895393     E(CORR)=     -5581.1375733     Delta=-2.89D-09
 NORM(A)=   0.11582414D+01
 Iteration Nr.  23
 **********************
 DD1Dir will call FoFMem   1 times, MxPair=       506
 NAB=   253 NAA=     0 NBB=     0.
 DE(Corr)= -0.82895392     E(CORR)=     -5581.1375733     Delta= 3.92D-09
 NORM(A)=   0.11582414D+01
 Largest amplitude= 7.66D-02

 Z-AMPLITUDE ITERATIONS

 Iteration Nr.   1
 **********************
 DD1Dir will call FoFMem   1 times, MxPair=       506
 NAB=   253 NAA=     0 NBB=     0.
 DE(Z)  -0.79825605D+00          E(Z)=    -0.55811068754D+04
 NORM(A)=   0.11580915D+01
 Iteration Nr.   2
 **********************
 DD1Dir will call FoFMem   1 times, MxPair=       506
 NAB=   253 NAA=     0 NBB=     0.
 DE(Z)  -0.79825497D+00          E(Z)=    -0.55811068743D+04
 NORM(A)=   0.11579756D+01
 Iteration Nr.   3
 **********************
 DD1Dir will call FoFMem   1 times, MxPair=       506
 NAB=   253 NAA=     0 NBB=     0.
 DE(Z)  -0.79825440D+00          E(Z)=    -0.55811068738D+04
 NORM(A)=   0.11578669D+01
 Iteration Nr.   4
 **********************
 DD1Dir will call FoFMem   1 times, MxPair=       506
 NAB=   253 NAA=     0 NBB=     0.
 DE(Z)  -0.79825334D+00          E(Z)=    -0.55811068727D+04
 NORM(A)=   0.11570046D+01
 Iteration Nr.   5
 **********************
 DD1Dir will call FoFMem   1 times, MxPair=       506
 NAB=   253 NAA=     0 NBB=     0.
 DE(Z)  -0.79824483D+00          E(Z)=    -0.55811068642D+04
 NORM(A)=   0.11449553D+01
 Iteration Nr.   6
 **********************
 DD1Dir will call FoFMem   1 times, MxPair=       506
 NAB=   253 NAA=     0 NBB=     0.
 DE(Z)  -0.79814050D+00          E(Z)=    -0.55811067599D+04
 NORM(A)=   0.11449570D+01
 Iteration Nr.   7
 **********************
 DD1Dir will call FoFMem   1 times, MxPair=       506
 NAB=   253 NAA=     0 NBB=     0.
 DE(Z)  -0.79813741D+00          E(Z)=    -0.55811067568D+04
 NORM(A)=   0.11449554D+01
 Iteration Nr.   8
 **********************
 DD1Dir will call FoFMem   1 times, MxPair=       506
 NAB=   253 NAA=     0 NBB=     0.
 DE(Z)  -0.79813862D+00          E(Z)=    -0.55811067580D+04
 NORM(A)=   0.11449549D+01
 Iteration Nr.   9
 **********************
 DD1Dir will call FoFMem   1 times, MxPair=       506
 NAB=   253 NAA=     0 NBB=     0.
 DE(Z)  -0.79813793D+00          E(Z)=    -0.55811067573D+04
 NORM(A)=   0.11449547D+01
 Iteration Nr.  10
 **********************
 DD1Dir will call FoFMem   1 times, MxPair=       506
 NAB=   253 NAA=     0 NBB=     0.
 DE(Z)  -0.79813785D+00          E(Z)=    -0.55811067572D+04
 NORM(A)=   0.11449547D+01
 Iteration Nr.  11
 **********************
 DD1Dir will call FoFMem   1 times, MxPair=       506
 NAB=   253 NAA=     0 NBB=     0.
 DE(Z)  -0.79813787D+00          E(Z)=    -0.55811067572D+04
 NORM(A)=   0.11449549D+01
 Iteration Nr.  12
 **********************
 DD1Dir will call FoFMem   1 times, MxPair=       506
 NAB=   253 NAA=     0 NBB=     0.
 DE(Z)  -0.79813785D+00          E(Z)=    -0.55811067572D+04
 NORM(A)=   0.11449551D+01
 Iteration Nr.  13
 **********************
 DD1Dir will call FoFMem   1 times, MxPair=       506
 NAB=   253 NAA=     0 NBB=     0.
 DE(Z)  -0.79813789D+00          E(Z)=    -0.55811067572D+04
 NORM(A)=   0.11449552D+01
 Iteration Nr.  14
 **********************
 DD1Dir will call FoFMem   1 times, MxPair=       506
 NAB=   253 NAA=     0 NBB=     0.
 DE(Z)  -0.79813790D+00          E(Z)=    -0.55811067573D+04
 NORM(A)=   0.11449552D+01
 Iteration Nr.  15
 **********************
 DD1Dir will call FoFMem   1 times, MxPair=       506
 NAB=   253 NAA=     0 NBB=     0.
 DE(Z)  -0.79813789D+00          E(Z)=    -0.55811067572D+04
 NORM(A)=   0.11449552D+01
 Iteration Nr.  16
 **********************
 DD1Dir will call FoFMem   1 times, MxPair=       506
 NAB=   253 NAA=     0 NBB=     0.
 DE(Z)  -0.79813789D+00          E(Z)=    -0.55811067572D+04
 NORM(A)=   0.11449552D+01
 Discarding MO integrals.
          Differentiating once with respect to electric field.
                with respect to dipole field.
          Electric field/nuclear overlap derivatives assumed to be zero.
          Keep R1 ints in memory in canonical form, NReq=510060614.
          There are     1 degrees of freedom in the 1st order CPHF.  IDoFFX=0.
 LinEq1:  Iter=  0 NonCon=     1 RMS=1.78D-03 Max=6.60D-02
 AX will form     1 AO Fock derivatives at one time.
 LinEq1:  Iter=  1 NonCon=     1 RMS=8.43D-04 Max=1.82D-02
 LinEq1:  Iter=  2 NonCon=     1 RMS=3.83D-04 Max=1.47D-02
 LinEq1:  Iter=  3 NonCon=     1 RMS=1.25D-04 Max=4.37D-03
 LinEq1:  Iter=  4 NonCon=     1 RMS=4.85D-05 Max=9.09D-04
 LinEq1:  Iter=  5 NonCon=     1 RMS=9.59D-06 Max=1.73D-04
 LinEq1:  Iter=  6 NonCon=     1 RMS=3.23D-06 Max=7.28D-05
 LinEq1:  Iter=  7 NonCon=     1 RMS=6.95D-07 Max=2.04D-05
 LinEq1:  Iter=  8 NonCon=     1 RMS=1.35D-07 Max=3.91D-06
 LinEq1:  Iter=  9 NonCon=     1 RMS=3.28D-08 Max=1.04D-06
 LinEq1:  Iter= 10 NonCon=     1 RMS=9.26D-09 Max=2.08D-07
 LinEq1:  Iter= 11 NonCon=     1 RMS=2.00D-09 Max=4.96D-08
 LinEq1:  Iter= 12 NonCon=     1 RMS=4.16D-10 Max=9.42D-09
 LinEq1:  Iter= 13 NonCon=     1 RMS=1.28D-10 Max=1.81D-09
 LinEq1:  Iter= 14 NonCon=     0 RMS=3.07D-11 Max=5.50D-10
 Linear equations converged to 1.000D-10 1.000D-09 after    14 iterations.
 End of Minotr Frequency-dependent properties file   721 does not exist.
 End of Minotr Frequency-dependent properties file   722 does not exist.

 **********************************************************************

            Population analysis using the QCI/CC density.

 **********************************************************************

     Natural Orbital Coefficients:
                           1         2         3         4         5
     Eigenvalues --     2.00003   2.00002   2.00002   2.00002   2.00001
   1 1   C  1S         -0.00126  -0.17651   0.31728   0.03426   0.47179
   2        2S          0.00003   0.00356  -0.00983  -0.00099  -0.00726
   3        3S         -0.00005  -0.00677   0.01192   0.00131   0.01905
   4        4S         -0.00013  -0.01140  -0.01462  -0.00146   0.00536
   5        5S         -0.00007  -0.00462  -0.00476  -0.00048   0.00430
   6        6PX         0.00000   0.00000   0.00000   0.00000   0.00000
   7        6PY        -0.00120   0.00001   0.00032  -0.00297  -0.00001
   8        6PZ         0.00002   0.00105   0.00150   0.00014  -0.00247
   9        7PX         0.00000   0.00000   0.00000   0.00000   0.00000
  10        7PY        -0.00129   0.00001   0.00055  -0.00513   0.00000
  11        7PZ         0.00001  -0.00051   0.00387   0.00039  -0.00054
  12        8PX         0.00000   0.00000   0.00000   0.00000   0.00000
  13        8PY         0.01259  -0.00008   0.00046  -0.00421  -0.00001
  14        8PZ        -0.00007  -0.00950   0.00640   0.00069   0.00850
  15        9PX         0.00000   0.00000   0.00000   0.00000   0.00000
  16        9PY         0.00362  -0.00001  -0.00004   0.00042  -0.00006
  17        9PZ         0.00000   0.00006   0.00084   0.00010   0.00140
  18       10D 0        0.00000  -0.00007   0.00012   0.00001   0.00003
  19       10D+1        0.00000   0.00000   0.00000   0.00000   0.00000
  20       10D-1       -0.00035   0.00000  -0.00004   0.00035   0.00000
  21       10D+2        0.00000   0.00003   0.00012   0.00001  -0.00022
  22       10D-2        0.00000   0.00000   0.00000   0.00000   0.00000
  23       11D 0        0.00000  -0.00111  -0.00032  -0.00004   0.00015
  24       11D+1        0.00000   0.00000   0.00000   0.00000   0.00000
  25       11D-1        0.00001   0.00000  -0.00011   0.00115   0.00000
  26       11D+2        0.00000  -0.00002   0.00159   0.00016   0.00066
  27       11D-2        0.00000   0.00000   0.00000   0.00000   0.00000
  28       12D 0        0.00001  -0.00421   0.00099   0.00011   0.00475
  29       12D+1        0.00000   0.00000   0.00000   0.00000   0.00000
  30       12D-1       -0.00634   0.00003  -0.00028   0.00304  -0.00003
  31       12D+2        0.00001  -0.00150   0.00198   0.00021   0.00199
  32       12D-2        0.00000   0.00000   0.00000   0.00000   0.00000
  33       13F 0        0.00000  -0.00001   0.00001   0.00000  -0.00009
  34       13F+1        0.00000   0.00000   0.00000   0.00000   0.00000
  35       13F-1       -0.00031   0.00000   0.00001  -0.00007   0.00000
  36       13F+2        0.00000  -0.00007   0.00001   0.00000   0.00009
  37       13F-2        0.00000   0.00000   0.00000   0.00000   0.00000
  38       13F+3        0.00000   0.00000   0.00000   0.00000   0.00000
  39       13F-3        0.00006   0.00000   0.00001  -0.00007   0.00000
  40       14F 0        0.00000   0.00017  -0.00011  -0.00002  -0.00103
  41       14F+1        0.00000   0.00000   0.00000   0.00000   0.00000
  42       14F-1        0.00185  -0.00002  -0.00007   0.00073   0.00001
  43       14F+2        0.00001   0.00044  -0.00036  -0.00004  -0.00105
  44       14F-2        0.00000   0.00000   0.00000   0.00000   0.00000
  45       14F+3        0.00000   0.00000   0.00000   0.00000   0.00000
  46       14F-3       -0.00029   0.00000  -0.00002   0.00021   0.00000
  47 2   S  1S         -0.00113  -0.21728  -0.00912  -0.00104  -0.15719
  48        2S          0.00386   0.74259   0.03171   0.00362   0.54265
  49        3S         -0.00013  -0.02059  -0.00113  -0.00012  -0.00841
  50        4S          0.00026   0.04978   0.00209   0.00024   0.03889
  51        5S          0.00007   0.01156  -0.00110  -0.00015  -0.01517
  52        6S          0.00001   0.00171   0.00025   0.00000  -0.00424
  53        7PX         0.00000   0.00000   0.00000   0.00000   0.00000
  54        7PY         0.97029  -0.00704  -0.00917   0.09461   0.00088
  55        7PZ         0.00639   0.62272   0.02247   0.00195  -0.49765
  56        8PX         0.00000   0.00000   0.00000   0.00000   0.00000
  57        8PY        -0.01887   0.00013   0.00012  -0.00127  -0.00002
  58        8PZ        -0.00012  -0.01237  -0.00056  -0.00005   0.00851
  59        9PX         0.00000   0.00000   0.00000   0.00000   0.00000
  60        9PY         0.05629  -0.00042  -0.00056   0.00579   0.00006
  61        9PZ         0.00038   0.03836   0.00147   0.00013  -0.03240
  62       10PX         0.00000   0.00000   0.00000   0.00000   0.00000
  63       10PY        -0.00352   0.00002   0.00009  -0.00105   0.00002
  64       10PZ        -0.00008  -0.00858  -0.00065  -0.00005   0.00540
  65       11PX         0.00000   0.00000   0.00000   0.00000   0.00000
  66       11PY        -0.00129   0.00001   0.00001  -0.00007   0.00001
  67       11PZ         0.00000  -0.00023  -0.00020  -0.00002   0.00027
  68       12D 0        0.00002   0.00230   0.00017   0.00002  -0.00224
  69       12D+1        0.00000   0.00000   0.00000   0.00000   0.00000
  70       12D-1        0.00268  -0.00002  -0.00007   0.00071   0.00000
  71       12D+2        0.00000  -0.00040  -0.00006  -0.00001   0.00009
  72       12D-2        0.00000   0.00000   0.00000   0.00000   0.00000
  73       13D 0        0.00000   0.00016  -0.00015  -0.00002   0.00021
  74       13D+1        0.00000   0.00000   0.00000   0.00000   0.00000
  75       13D-1       -0.00036   0.00000  -0.00002   0.00019   0.00000
  76       13D+2        0.00000   0.00030   0.00002   0.00000   0.00017
  77       13D-2        0.00000   0.00000   0.00000   0.00000   0.00000
  78       14D 0        0.00001   0.00122   0.00027   0.00003  -0.00046
  79       14D+1        0.00000   0.00000   0.00000   0.00000   0.00000
  80       14D-1       -0.00081   0.00000  -0.00002   0.00021  -0.00001
  81       14D+2        0.00000   0.00049  -0.00036  -0.00004  -0.00031
  82       14D-2        0.00000   0.00000   0.00000   0.00000   0.00000
  83       15F 0        0.00000  -0.00019   0.00011   0.00001   0.00017
  84       15F+1        0.00000   0.00000   0.00000   0.00000   0.00000
  85       15F-1       -0.00015   0.00000   0.00001  -0.00011   0.00000
  86       15F+2        0.00000   0.00013   0.00002   0.00000  -0.00017
  87       15F-2        0.00000   0.00000   0.00000   0.00000   0.00000
  88       15F+3        0.00000   0.00000   0.00000   0.00000   0.00000
  89       15F-3        0.00011   0.00000   0.00000   0.00000   0.00000
  90       16F 0        0.00000  -0.00043  -0.00005  -0.00001   0.00034
  91       16F+1        0.00000   0.00000   0.00000   0.00000   0.00000
  92       16F-1       -0.00084   0.00001   0.00001  -0.00009   0.00000
  93       16F+2        0.00000  -0.00013   0.00012   0.00001   0.00004
  94       16F-2        0.00000   0.00000   0.00000   0.00000   0.00000
  95       16F+3        0.00000   0.00000   0.00000   0.00000   0.00000
  96       16F-3       -0.00019   0.00000   0.00000   0.00001   0.00000
  97 3   Br 1S          0.00048   0.00075  -0.04364   0.03300   0.04313
  98        2S         -0.00188  -0.00277   0.16146  -0.12205  -0.16045
  99        3S          0.00424   0.00605  -0.33870   0.25480   0.34461
 100        4S         -0.00097  -0.00020  -0.00089   0.00059   0.00210
 101        5S         -0.00011   0.00017  -0.01835   0.01371   0.01673
 102        6S          0.01024  -0.00199   0.00577  -0.00242   0.00572
 103        7S          0.00680   0.00106   0.00233   0.00084  -0.00032
 104        8PX         0.00000   0.00000   0.00000   0.00000   0.00000
 105        8PY         0.02283   0.00471   0.22425  -0.20149   0.01690
 106        8PZ         0.01997   0.00598   0.14258  -0.11997  -0.01186
 107        9PX         0.00000   0.00000   0.00000   0.00000   0.00000
 108        9PY        -0.06046  -0.01215  -0.58304   0.52572  -0.05594
 109        9PZ        -0.05390  -0.01631  -0.37116   0.31126   0.02835
 110       10PX         0.00000   0.00000   0.00000   0.00000   0.00000
 111       10PY         0.00065  -0.00051   0.00272  -0.00060   0.00077
 112       10PZ        -0.00052  -0.00039   0.00153  -0.00120   0.00091
 113       11PX         0.00000   0.00000   0.00000   0.00000   0.00000
 114       11PY        -0.00335  -0.00060  -0.02767   0.02482  -0.00258
 115       11PZ        -0.00312  -0.00097  -0.01772   0.01469   0.00141
 116       12PX         0.00000   0.00000   0.00000   0.00000   0.00000
 117       12PY         0.00466   0.00015   0.00144   0.00128  -0.00053
 118       12PZ         0.00202  -0.00164   0.00123   0.00039   0.00215
 119       13PX         0.00000   0.00000   0.00000   0.00000   0.00000
 120       13PY         0.00068   0.00025   0.00043   0.00007  -0.00006
 121       13PZ         0.00057   0.00012   0.00017   0.00003  -0.00026
 122       14D 0        0.00002  -0.00001   0.00180  -0.00141  -0.00092
 123       14D+1        0.00000   0.00000   0.00000   0.00000   0.00000
 124       14D-1       -0.00304  -0.00086  -0.03106   0.02743   0.00185
 125       14D+2        0.00189   0.00064   0.01971  -0.01731  -0.00221
 126       14D-2        0.00000   0.00000   0.00000   0.00000   0.00000
 127       15D 0        0.00006   0.00000   0.00022  -0.00007  -0.00006
 128       15D+1        0.00000   0.00000   0.00000   0.00000   0.00000
 129       15D-1       -0.00023  -0.00010  -0.00306   0.00265   0.00034
 130       15D+2        0.00012   0.00011   0.00206  -0.00169  -0.00037
 131       15D-2        0.00000   0.00000   0.00000   0.00000   0.00000
 132       16D 0       -0.00001   0.00020   0.00000  -0.00018  -0.00026
 133       16D+1        0.00000   0.00000   0.00000   0.00000   0.00000
 134       16D-1        0.00034   0.00009   0.00114  -0.00046   0.00032
 135       16D+2       -0.00040  -0.00001  -0.00088   0.00025  -0.00009
 136       16D-2        0.00000   0.00000   0.00000   0.00000   0.00000
 137       17D 0       -0.00009  -0.00024   0.00002   0.00017   0.00035
 138       17D+1        0.00000   0.00000   0.00000   0.00000   0.00000
 139       17D-1        0.00116  -0.00022   0.00065  -0.00018   0.00029
 140       17D+2       -0.00062  -0.00023  -0.00042  -0.00020   0.00033
 141       17D-2        0.00000   0.00000   0.00000   0.00000   0.00000
 142       18F 0        0.00008   0.00002   0.00028  -0.00028  -0.00004
 143       18F+1        0.00000   0.00000   0.00000   0.00000   0.00000
 144       18F-1       -0.00003   0.00000  -0.00012   0.00012   0.00004
 145       18F+2        0.00001   0.00004   0.00044  -0.00040  -0.00010
 146       18F-2        0.00000   0.00000   0.00000   0.00000   0.00000
 147       18F+3        0.00000   0.00000   0.00000   0.00000   0.00000
 148       18F-3       -0.00007   0.00004   0.00023  -0.00021  -0.00007
 149       19F 0       -0.00002   0.00006  -0.00036   0.00029  -0.00025
 150       19F+1        0.00000   0.00000   0.00000   0.00000   0.00000
 151       19F-1       -0.00004   0.00007   0.00021  -0.00025  -0.00006
 152       19F+2        0.00000  -0.00006  -0.00063   0.00040  -0.00002
 153       19F-2        0.00000   0.00000   0.00000   0.00000   0.00000
 154       19F+3        0.00000   0.00000   0.00000   0.00000   0.00000
 155       19F-3        0.00006  -0.00008  -0.00035   0.00014   0.00011
 156 4   Br 1S         -0.00048   0.00074  -0.03633  -0.04162   0.03972
 157        2S          0.00188  -0.00276   0.13444   0.15395  -0.14776
 158        3S         -0.00426   0.00603  -0.28233  -0.32189   0.31726
 159        4S          0.00096  -0.00021  -0.00076  -0.00076   0.00200
 160        5S          0.00011   0.00017  -0.01529  -0.01731   0.01539
 161        6S         -0.01020  -0.00186   0.00511   0.00350   0.00544
 162        7S         -0.00675   0.00111   0.00244  -0.00035  -0.00013
 163        8PX         0.00000   0.00000   0.00000   0.00000   0.00000
 164        8PY         0.02302  -0.00518  -0.17831  -0.24090  -0.01287
 165        8PZ        -0.02018   0.00640   0.11585   0.14678  -0.01334
 166        9PX         0.00000   0.00000   0.00000   0.00000   0.00000
 167        9PY        -0.06099   0.01341   0.46332   0.62819   0.04452
 168        9PZ         0.05443  -0.01746  -0.30177  -0.38112   0.03252
 169       10PX         0.00000   0.00000   0.00000   0.00000   0.00000
 170       10PY         0.00065   0.00050  -0.00253  -0.00115  -0.00076
 171       10PZ         0.00051  -0.00041   0.00128   0.00150   0.00092
 172       11PX         0.00000   0.00000   0.00000   0.00000   0.00000
 173       11PY        -0.00338   0.00067   0.02200   0.02969   0.00207
 174       11PZ         0.00315  -0.00103  -0.01444  -0.01803   0.00159
 175       12PX         0.00000   0.00000   0.00000   0.00000   0.00000
 176       12PY         0.00464  -0.00020  -0.00165   0.00097   0.00045
 177       12PZ        -0.00205  -0.00163   0.00129  -0.00013   0.00220
 178       13PX         0.00000   0.00000   0.00000   0.00000   0.00000
 179       13PY         0.00067  -0.00025  -0.00043  -0.00002   0.00004
 180       13PZ        -0.00057   0.00013   0.00017   0.00000  -0.00024
 181       14D 0        0.00002  -0.00002   0.00117   0.00135  -0.00087
 182       14D+1        0.00000   0.00000   0.00000   0.00000   0.00000
 183       14D-1       -0.00302   0.00091   0.02454   0.03261  -0.00209
 184       14D+2       -0.00184   0.00066   0.01536   0.02030  -0.00229
 185       14D-2        0.00000   0.00000   0.00000   0.00000   0.00000
 186       15D 0       -0.00005   0.00000   0.00017   0.00008  -0.00006
 187       15D+1        0.00000   0.00000   0.00000   0.00000   0.00000
 188       15D-1       -0.00023   0.00010   0.00243   0.00316  -0.00035
 189       15D+2       -0.00011   0.00011   0.00164   0.00201  -0.00037
 190       15D-2        0.00000   0.00000   0.00000   0.00000   0.00000
 191       16D 0        0.00002   0.00019  -0.00002   0.00018  -0.00023
 192       16D+1        0.00000   0.00000   0.00000   0.00000   0.00000
 193       16D-1        0.00035  -0.00008  -0.00103  -0.00068  -0.00034
 194       16D+2        0.00040  -0.00002  -0.00080  -0.00043  -0.00009
 195       16D-2        0.00000   0.00000   0.00000   0.00000   0.00000
 196       17D 0        0.00008  -0.00025   0.00005  -0.00016   0.00037
 197       17D+1        0.00000   0.00000   0.00000   0.00000   0.00000
 198       17D-1        0.00117   0.00021  -0.00059  -0.00031  -0.00030
 199       17D+2        0.00062  -0.00024  -0.00044   0.00012   0.00031
 200       17D-2        0.00000   0.00000   0.00000   0.00000   0.00000
 201       18F 0       -0.00008   0.00002   0.00022   0.00032  -0.00004
 202       18F+1        0.00000   0.00000   0.00000   0.00000   0.00000
 203       18F-1       -0.00004   0.00000   0.00010   0.00015  -0.00005
 204       18F+2       -0.00001   0.00004   0.00034   0.00047  -0.00011
 205       18F-2        0.00000   0.00000   0.00000   0.00000   0.00000
 206       18F+3        0.00000   0.00000   0.00000   0.00000   0.00000
 207       18F-3       -0.00007  -0.00003  -0.00018  -0.00025   0.00007
 208       19F 0        0.00002   0.00006  -0.00029  -0.00035  -0.00024
 209       19F+1        0.00000   0.00000   0.00000   0.00000   0.00000
 210       19F-1       -0.00004  -0.00006  -0.00016  -0.00029   0.00005
 211       19F+2        0.00000  -0.00006  -0.00054  -0.00051  -0.00002
 212       19F-2        0.00000   0.00000   0.00000   0.00000   0.00000
 213       19F+3        0.00000   0.00000   0.00000   0.00000   0.00000
 214       19F-3        0.00006   0.00008   0.00031   0.00020  -0.00011
                           6         7         8         9        10
     Eigenvalues --     2.00001   2.00001   2.00001   2.00001   2.00001
   1 1   C  1S         -0.01517   0.07944   0.00000  -0.00188  -0.09452
   2        2S          0.00030  -0.00234   0.00000   0.00003   0.00143
   3        3S         -0.00060   0.00296   0.00000  -0.00008  -0.00387
   4        4S         -0.00060   0.00906   0.00000   0.00001   0.00137
   5        5S         -0.00016   0.00132   0.00000  -0.00002  -0.00071
   6        6PX         0.00000   0.00000  -0.00073   0.00000   0.00000
   7        6PY        -0.00001   0.00001   0.00000  -0.00032   0.00001
   8        6PZ         0.00011  -0.00112   0.00000   0.00002   0.00054
   9        7PX         0.00000   0.00000  -0.00006   0.00000   0.00000
  10        7PY        -0.00016   0.00000   0.00000  -0.00045   0.00001
  11        7PZ         0.00003  -0.00052   0.00000   0.00001   0.00013
  12        8PX         0.00000   0.00000   0.00155   0.00000   0.00000
  13        8PY        -0.00062  -0.00004   0.00000  -0.00524   0.00015
  14        8PZ        -0.00033   0.00311   0.00000   0.00030   0.00940
  15        9PX         0.00000   0.00000  -0.00091   0.00000   0.00000
  16        9PY        -0.00257  -0.00015   0.00000  -0.00118   0.00004
  17        9PZ        -0.00008   0.00107   0.00000   0.00006   0.00165
  18       10D 0        0.00000  -0.00008   0.00000   0.00000  -0.00015
  19       10D+1        0.00000   0.00000  -0.00021   0.00000   0.00000
  20       10D-1        0.00013   0.00000   0.00000  -0.00005   0.00000
  21       10D+2        0.00000   0.00007   0.00000   0.00000  -0.00006
  22       10D-2        0.00000   0.00000   0.00000   0.00000   0.00000
  23       11D 0       -0.00002   0.00029   0.00000  -0.00001  -0.00028
  24       11D+1        0.00000   0.00000   0.00057   0.00000   0.00000
  25       11D-1        0.00001   0.00000   0.00000  -0.00039   0.00001
  26       11D+2        0.00000  -0.00026   0.00000   0.00000  -0.00031
  27       11D-2        0.00000   0.00000   0.00000   0.00000   0.00000
  28       12D 0       -0.00019   0.00179   0.00000   0.00000   0.00015
  29       12D+1        0.00000   0.00000  -0.00136   0.00000   0.00000
  30       12D-1       -0.00098  -0.00006   0.00000   0.00068  -0.00004
  31       12D+2       -0.00004   0.00018   0.00000   0.00002   0.00040
  32       12D-2        0.00000   0.00000  -0.00002   0.00000   0.00000
  33       13F 0        0.00001  -0.00013   0.00000   0.00000  -0.00002
  34       13F+1        0.00000   0.00000  -0.00013   0.00000   0.00000
  35       13F-1       -0.00002   0.00000   0.00000   0.00003   0.00000
  36       13F+2        0.00000  -0.00001   0.00000   0.00000   0.00005
  37       13F-2        0.00000   0.00000   0.00000   0.00000   0.00000
  38       13F+3        0.00000   0.00000   0.00005   0.00000   0.00000
  39       13F-3        0.00002   0.00000   0.00000  -0.00003   0.00000
  40       14F 0        0.00002   0.00002   0.00000   0.00001   0.00048
  41       14F+1        0.00000   0.00000   0.00095   0.00000   0.00000
  42       14F-1        0.00000   0.00001   0.00000  -0.00031   0.00000
  43       14F+2        0.00002   0.00000   0.00000  -0.00001  -0.00032
  44       14F-2        0.00000   0.00000   0.00000   0.00000   0.00000
  45       14F+3        0.00000   0.00000  -0.00031   0.00000   0.00000
  46       14F-3       -0.00001   0.00000   0.00000   0.00022  -0.00001
  47 2   S  1S          0.00779  -0.08623   0.00000   0.00068   0.01573
  48        2S         -0.02688   0.29721   0.00000  -0.00236  -0.05509
  49        3S          0.00043  -0.00489   0.00000   0.00003   0.00094
  50        4S         -0.00193   0.02133   0.00000  -0.00017  -0.00398
  51        5S          0.00072  -0.00789   0.00000  -0.00018  -0.00617
  52        6S          0.00023  -0.00269   0.00000  -0.00013  -0.00417
  53        7PX         0.00000   0.00000   0.72598   0.00000   0.00000
  54        7PY        -0.04546  -0.00206   0.00000   0.02342  -0.00062
  55        7PZ         0.02539  -0.29041   0.00000   0.00242   0.04833
  56        8PX         0.00000   0.00000  -0.00922   0.00000   0.00000
  57        8PY         0.00054   0.00001   0.00000   0.00039  -0.00001
  58        8PZ        -0.00045   0.00518   0.00000  -0.00001  -0.00002
  59        9PX         0.00000   0.00000   0.04621   0.00000   0.00000
  60        9PY        -0.00280  -0.00013   0.00000   0.00138  -0.00004
  61        9PZ         0.00165  -0.01884   0.00000   0.00016   0.00308
  62       10PX         0.00000   0.00000   0.00046   0.00000   0.00000
  63       10PY         0.00063   0.00003   0.00000   0.00133  -0.00002
  64       10PZ        -0.00030   0.00345   0.00000   0.00011   0.00395
  65       11PX         0.00000   0.00000  -0.00015   0.00000   0.00000
  66       11PY         0.00047   0.00003   0.00000   0.00011   0.00000
  67       11PZ        -0.00002   0.00020   0.00000   0.00002   0.00052
  68       12D 0        0.00012  -0.00138   0.00000   0.00001   0.00016
  69       12D+1        0.00000   0.00000   0.00161   0.00000   0.00000
  70       12D-1       -0.00022   0.00000   0.00000  -0.00045   0.00001
  71       12D+2        0.00000  -0.00010   0.00000   0.00000   0.00008
  72       12D-2        0.00000   0.00000   0.00000   0.00000   0.00000
  73       13D 0       -0.00001   0.00016   0.00000   0.00000  -0.00004
  74       13D+1        0.00000   0.00000  -0.00017   0.00000   0.00000
  75       13D-1        0.00000   0.00000   0.00000   0.00008   0.00000
  76       13D+2       -0.00001   0.00012   0.00000   0.00000  -0.00005
  77       13D-2        0.00000   0.00000   0.00000   0.00000   0.00000
  78       14D 0        0.00003  -0.00043   0.00000  -0.00002  -0.00063
  79       14D+1        0.00000   0.00000  -0.00045   0.00000   0.00000
  80       14D-1       -0.00015  -0.00001   0.00000  -0.00052   0.00001
  81       14D+2        0.00000   0.00000   0.00000   0.00000  -0.00010
  82       14D-2        0.00000   0.00000   0.00000   0.00000   0.00000
  83       15F 0       -0.00001   0.00003   0.00000   0.00000  -0.00002
  84       15F+1        0.00000   0.00000  -0.00019   0.00000   0.00000
  85       15F-1        0.00004   0.00000   0.00000   0.00006   0.00000
  86       15F+2        0.00001  -0.00007   0.00000   0.00000  -0.00005
  87       15F-2        0.00000   0.00000   0.00000   0.00000   0.00000
  88       15F+3        0.00000   0.00000   0.00011   0.00000   0.00000
  89       15F-3       -0.00001   0.00000   0.00000  -0.00001   0.00000
  90       16F 0       -0.00002   0.00028   0.00000  -0.00001  -0.00022
  91       16F+1        0.00000   0.00000  -0.00035   0.00000   0.00000
  92       16F-1        0.00003   0.00000   0.00000   0.00018  -0.00001
  93       16F+2       -0.00001   0.00010   0.00000   0.00000   0.00003
  94       16F-2        0.00000   0.00000   0.00000   0.00000   0.00000
  95       16F+3        0.00000   0.00000  -0.00009   0.00000   0.00000
  96       16F-3        0.00004   0.00000   0.00000   0.00002   0.00000
  97 3   Br 1S          0.08728  -0.06743   0.00000  -0.00572   0.00601
  98        2S         -0.32505   0.25127   0.00000   0.02142  -0.02254
  99        3S          0.70103  -0.54302   0.00000  -0.04653   0.04943
 100        4S          0.00215  -0.00140   0.00000  -0.00010  -0.00007
 101        5S          0.03396  -0.02608   0.00000  -0.00221   0.00234
 102        6S          0.00642  -0.00544   0.00000  -0.00311   0.00349
 103        7S         -0.00418   0.00054   0.00000  -0.00197   0.00211
 104        8PX         0.00000   0.00000  -0.17528   0.00000   0.00000
 105        8PY         0.10174  -0.07337   0.00000   0.13313   0.15415
 106        8PZ         0.04113  -0.08691   0.00000  -0.23611  -0.20290
 107        9PX         0.00000   0.00000   0.49563   0.00000   0.00000
 108        9PY        -0.28561   0.20087   0.00000  -0.37543  -0.42834
 109        9PZ        -0.11546   0.24189   0.00000   0.66120   0.57083
 110       10PX         0.00000   0.00000   0.00120   0.00000   0.00000
 111       10PY        -0.00004  -0.00058   0.00000  -0.00132   0.00018
 112       10PZ         0.00021   0.00011   0.00000   0.00092   0.00110
 113       11PX         0.00000   0.00000   0.02229   0.00000   0.00000
 114       11PY        -0.01294   0.00907   0.00000  -0.01669  -0.01896
 115       11PZ        -0.00519   0.01109   0.00000   0.02941   0.02534
 116       12PX         0.00000   0.00000   0.00155   0.00000   0.00000
 117       12PY        -0.00210  -0.00012   0.00000  -0.00352   0.00035
 118       12PZ        -0.00111   0.00126   0.00000   0.00223   0.00318
 119       13PX         0.00000   0.00000   0.00022   0.00000   0.00000
 120       13PY        -0.00042   0.00008   0.00000  -0.00010   0.00048
 121       13PZ        -0.00046  -0.00009   0.00000  -0.00047  -0.00005
 122       14D 0       -0.00063  -0.00156   0.00000  -0.01016  -0.00952
 123       14D+1        0.00000   0.00000  -0.00035   0.00000   0.00000
 124       14D-1       -0.00679   0.00698   0.00000  -0.00429  -0.00741
 125       14D+2        0.00310  -0.00541   0.00000  -0.00710  -0.00481
 126       14D-2        0.00000   0.00000  -0.00012   0.00000   0.00000
 127       15D 0       -0.00007  -0.00011   0.00000  -0.00064  -0.00057
 128       15D+1        0.00000   0.00000  -0.00001   0.00000   0.00000
 129       15D-1       -0.00037   0.00051   0.00000  -0.00027  -0.00046
 130       15D+2        0.00014  -0.00041   0.00000  -0.00047  -0.00027
 131       15D-2        0.00000   0.00000   0.00010   0.00000   0.00000
 132       16D 0       -0.00003  -0.00018   0.00000  -0.00027  -0.00041
 133       16D+1        0.00000   0.00000  -0.00015   0.00000   0.00000
 134       16D-1       -0.00027  -0.00013   0.00000  -0.00019  -0.00018
 135       16D+2        0.00011   0.00003   0.00000  -0.00013  -0.00031
 136       16D-2        0.00000   0.00000  -0.00035   0.00000   0.00000
 137       17D 0       -0.00011   0.00005   0.00000   0.00006  -0.00033
 138       17D+1        0.00000   0.00000  -0.00027   0.00000   0.00000
 139       17D-1       -0.00024  -0.00001   0.00000  -0.00031   0.00025
 140       17D+2        0.00029   0.00022   0.00000   0.00021  -0.00041
 141       17D-2        0.00000   0.00000  -0.00054   0.00000   0.00000
 142       18F 0        0.00009  -0.00009   0.00000   0.00005   0.00009
 143       18F+1        0.00000   0.00000   0.00001   0.00000   0.00000
 144       18F-1       -0.00001   0.00006   0.00000   0.00036   0.00032
 145       18F+2        0.00011  -0.00013   0.00000  -0.00002   0.00002
 146       18F-2        0.00000   0.00000   0.00018   0.00000   0.00000
 147       18F+3        0.00000   0.00000  -0.00018   0.00000   0.00000
 148       18F-3        0.00004  -0.00007   0.00000   0.00014   0.00008
 149       19F 0       -0.00006   0.00002   0.00000  -0.00005  -0.00008
 150       19F+1        0.00000   0.00000  -0.00001   0.00000   0.00000
 151       19F-1       -0.00003  -0.00014   0.00000  -0.00030  -0.00041
 152       19F+2       -0.00003   0.00014   0.00000   0.00000   0.00002
 153       19F-2        0.00000   0.00000  -0.00022   0.00000   0.00000
 154       19F+3        0.00000   0.00000   0.00035   0.00000   0.00000
 155       19F-3        0.00003   0.00010   0.00000  -0.00016  -0.00009
 156 4   Br 1S         -0.08105  -0.07625   0.00000   0.00626   0.00574
 157        2S          0.30186   0.28412   0.00000  -0.02346  -0.02152
 158        3S         -0.65087  -0.61393   0.00000   0.05099   0.04722
 159        4S         -0.00205  -0.00161   0.00000   0.00010  -0.00007
 160        5S         -0.03155  -0.02951   0.00000   0.00242   0.00224
 161        6S         -0.00601  -0.00609   0.00000   0.00335   0.00329
 162        7S          0.00411   0.00103   0.00000   0.00209   0.00198
 163        8PX         0.00000   0.00000  -0.17372   0.00000   0.00000
 164        8PY         0.09398   0.08548   0.00000   0.12473  -0.16284
 165        8PZ        -0.03210  -0.09126   0.00000   0.22400  -0.21499
 166        9PX         0.00000   0.00000   0.49121   0.00000   0.00000
 167        9PY        -0.26457  -0.23460   0.00000  -0.35220   0.45290
 168        9PZ         0.09044   0.25391   0.00000  -0.62717   0.60479
 169       10PX         0.00000   0.00000   0.00119   0.00000   0.00000
 170       10PY        -0.00006   0.00058   0.00000  -0.00135  -0.00009
 171       10PZ        -0.00026   0.00008   0.00000  -0.00084   0.00116
 172       11PX         0.00000   0.00000   0.02209   0.00000   0.00000
 173       11PY        -0.01200  -0.01060   0.00000  -0.01565   0.02005
 174       11PZ         0.00405   0.01163   0.00000  -0.02790   0.02685
 175       12PX         0.00000   0.00000   0.00155   0.00000   0.00000
 176       12PY        -0.00211  -0.00014   0.00000  -0.00356  -0.00011
 177       12PZ         0.00089   0.00138   0.00000  -0.00202   0.00332
 178       13PX         0.00000   0.00000   0.00022   0.00000   0.00000
 179       13PY        -0.00041  -0.00013   0.00000  -0.00013  -0.00047
 180       13PZ         0.00048  -0.00004   0.00000   0.00047  -0.00008
 181       14D 0        0.00089  -0.00135   0.00000   0.00955  -0.01006
 182       14D+1        0.00000   0.00000  -0.00036   0.00000   0.00000
 183       14D-1       -0.00592  -0.00782   0.00000  -0.00373   0.00755
 184       14D+2       -0.00237  -0.00568   0.00000   0.00683  -0.00522
 185       14D-2        0.00000   0.00000   0.00019   0.00000   0.00000
 186       15D 0        0.00008  -0.00009   0.00000   0.00060  -0.00060
 187       15D+1        0.00000   0.00000  -0.00001   0.00000   0.00000
 188       15D-1       -0.00030  -0.00056   0.00000  -0.00023   0.00048
 189       15D+2       -0.00008  -0.00042   0.00000   0.00045  -0.00029
 190       15D-2        0.00000   0.00000  -0.00009   0.00000   0.00000
 191       16D 0        0.00006  -0.00016   0.00000   0.00025  -0.00043
 192       16D+1        0.00000   0.00000  -0.00015   0.00000   0.00000
 193       16D-1       -0.00027   0.00009   0.00000  -0.00019   0.00018
 194       16D+2       -0.00011   0.00002   0.00000   0.00011  -0.00032
 195       16D-2        0.00000   0.00000   0.00034   0.00000   0.00000
 196       17D 0        0.00009   0.00007   0.00000  -0.00007  -0.00032
 197       17D+1        0.00000   0.00000  -0.00027   0.00000   0.00000
 198       17D-1       -0.00023  -0.00002   0.00000  -0.00032  -0.00024
 199       17D+2       -0.00033   0.00018   0.00000  -0.00023  -0.00040
 200       17D-2        0.00000   0.00000   0.00053   0.00000   0.00000
 201       18F 0       -0.00007  -0.00009   0.00000  -0.00005   0.00010
 202       18F+1        0.00000   0.00000   0.00001   0.00000   0.00000
 203       18F-1       -0.00001  -0.00006   0.00000   0.00034  -0.00033
 204       18F+2       -0.00009  -0.00015   0.00000   0.00001   0.00003
 205       18F-2        0.00000   0.00000  -0.00018   0.00000   0.00000
 206       18F+3        0.00000   0.00000  -0.00018   0.00000   0.00000
 207       18F-3        0.00003   0.00008   0.00000   0.00013  -0.00009
 208       19F 0        0.00007   0.00003   0.00000   0.00005  -0.00009
 209       19F+1        0.00000   0.00000  -0.00001   0.00000   0.00000
 210       19F-1       -0.00005   0.00013   0.00000  -0.00028   0.00042
 211       19F+2        0.00001   0.00015   0.00000   0.00000   0.00001
 212       19F-2        0.00000   0.00000   0.00022   0.00000   0.00000
 213       19F+3        0.00000   0.00000   0.00034   0.00000   0.00000
 214       19F-3        0.00005  -0.00010   0.00000  -0.00016   0.00010
                          11        12        13        14        15
     Eigenvalues --     2.00001   2.00000   2.00000   2.00000   2.00000
   1 1   C  1S          0.00000   0.00000   0.76864  -0.00089   0.00069
   2        2S          0.00000   0.00000  -0.00780   0.00001  -0.00001
   3        3S          0.00000   0.00000   0.03222  -0.00004   0.00003
   4        4S          0.00000   0.00000  -0.00998  -0.00014   0.00011
   5        5S          0.00000   0.00000  -0.00544   0.00006  -0.00005
   6        6PX         0.00000  -0.00153   0.00000   0.00000   0.00000
   7        6PY         0.00000   0.00000   0.00000   0.00000   0.00000
   8        6PZ         0.00000   0.00000  -0.00058   0.00001   0.00000
   9        7PX        -0.00001  -0.00172   0.00000   0.00000   0.00000
  10        7PY         0.00000   0.00000   0.00002  -0.00001  -0.00001
  11        7PZ         0.00000   0.00000   0.00163   0.00002  -0.00001
  12        8PX         0.00000  -0.00154   0.00000   0.00000   0.00000
  13        8PY         0.00000   0.00000  -0.00001   0.00021   0.00025
  14        8PZ         0.00000   0.00000  -0.00406  -0.00080   0.00063
  15        9PX         0.00000  -0.00048   0.00000   0.00000   0.00000
  16        9PY         0.00000   0.00000   0.00000   0.00007   0.00009
  17        9PZ         0.00000   0.00000   0.00069  -0.00014   0.00011
  18       10D 0        0.00000   0.00000   0.00030   0.00000   0.00000
  19       10D+1        0.00000  -0.00008   0.00000   0.00000   0.00000
  20       10D-1        0.00000   0.00000   0.00000   0.00000   0.00000
  21       10D+2        0.00000   0.00000  -0.00026   0.00000   0.00000
  22       10D-2        0.00009   0.00000   0.00000   0.00000   0.00000
  23       11D 0        0.00000   0.00000  -0.00033   0.00001  -0.00001
  24       11D+1        0.00000   0.00108   0.00000   0.00000   0.00000
  25       11D-1        0.00000   0.00000  -0.00002   0.00001   0.00001
  26       11D+2        0.00000   0.00000   0.00149   0.00001   0.00000
  27       11D-2        0.00066   0.00000   0.00000   0.00000   0.00000
  28       12D 0        0.00000   0.00000  -0.00404  -0.00008   0.00006
  29       12D+1        0.00000  -0.00147   0.00000   0.00000   0.00000
  30       12D-1        0.00000   0.00000  -0.00004  -0.00001  -0.00001
  31       12D+2        0.00000   0.00000  -0.00151  -0.00006   0.00005
  32       12D-2       -0.00006  -0.00001   0.00000   0.00000   0.00000
  33       13F 0        0.00000   0.00000   0.00034   0.00000   0.00000
  34       13F+1        0.00000  -0.00008   0.00000   0.00000   0.00000
  35       13F-1        0.00000   0.00000   0.00000   0.00000   0.00001
  36       13F+2        0.00000   0.00000  -0.00007   0.00000   0.00000
  37       13F-2        0.00000   0.00000   0.00000   0.00000   0.00000
  38       13F+3        0.00000   0.00001   0.00000   0.00000   0.00000
  39       13F-3        0.00000   0.00000   0.00000   0.00000   0.00000
  40       14F 0        0.00000   0.00000  -0.00108  -0.00003   0.00002
  41       14F+1        0.00000   0.00051   0.00000   0.00000   0.00000
  42       14F-1        0.00000   0.00000  -0.00003  -0.00003  -0.00004
  43       14F+2        0.00000   0.00000  -0.00086   0.00004  -0.00003
  44       14F-2       -0.00019   0.00000   0.00000   0.00000   0.00000
  45       14F+3        0.00000   0.00019   0.00000   0.00000   0.00000
  46       14F-3        0.00000   0.00000  -0.00001  -0.00002  -0.00003
  47 2   S  1S          0.00000   0.00000   0.06092  -0.00174   0.00135
  48        2S          0.00000   0.00000  -0.21206  -0.00002   0.00002
  49        3S          0.00000   0.00000   0.00232  -0.00003   0.00002
  50        4S          0.00000   0.00000  -0.01563   0.00000   0.00000
  51        5S          0.00000   0.00000   0.00959   0.00063  -0.00049
  52        6S          0.00000   0.00000   0.00017   0.00037  -0.00029
  53        7PX         0.00105   0.64637   0.00000   0.00000   0.00000
  54        7PY         0.00000   0.00000  -0.00170  -0.00004  -0.00007
  55        7PZ         0.00000   0.00000   0.47229  -0.00017   0.00013
  56        8PX        -0.00001  -0.00703   0.00000   0.00000   0.00000
  57        8PY         0.00000   0.00000   0.00003   0.00001   0.00001
  58        8PZ         0.00000   0.00000  -0.00545  -0.00006   0.00004
  59        9PX         0.00007   0.04161   0.00000   0.00000   0.00000
  60        9PY         0.00000   0.00000  -0.00011   0.00000   0.00000
  61        9PZ         0.00000   0.00000   0.03111   0.00000   0.00000
  62       10PX         0.00000   0.00270   0.00000   0.00000   0.00000
  63       10PY         0.00000   0.00000   0.00004  -0.00005  -0.00006
  64       10PZ         0.00000   0.00000  -0.00139  -0.00036   0.00028
  65       11PX         0.00000  -0.00024   0.00000   0.00000   0.00000
  66       11PY         0.00000   0.00000   0.00000  -0.00001  -0.00001
  67       11PZ         0.00000   0.00000  -0.00003  -0.00004   0.00003
  68       12D 0        0.00000   0.00000   0.00094   0.00001  -0.00001
  69       12D+1        0.00000   0.00123   0.00000   0.00000   0.00000
  70       12D-1        0.00000   0.00000  -0.00002   0.00001   0.00001
  71       12D+2        0.00000   0.00000   0.00029  -0.00001   0.00001
  72       12D-2        0.00004   0.00000   0.00000   0.00000   0.00000
  73       13D 0        0.00000   0.00000  -0.00055   0.00000   0.00000
  74       13D+1        0.00000  -0.00006   0.00000   0.00000   0.00000
  75       13D-1        0.00000   0.00000   0.00000   0.00000   0.00000
  76       13D+2        0.00000   0.00000  -0.00010   0.00000   0.00000
  77       13D-2        0.00003   0.00000   0.00000   0.00000   0.00000
  78       14D 0        0.00000   0.00000  -0.00002   0.00006  -0.00004
  79       14D+1        0.00000  -0.00109   0.00000   0.00000   0.00000
  80       14D-1        0.00000   0.00000  -0.00001   0.00003   0.00003
  81       14D+2        0.00000   0.00000   0.00055   0.00001   0.00000
  82       14D-2        0.00000   0.00000   0.00000   0.00000   0.00000
  83       15F 0        0.00000   0.00000   0.00040   0.00000   0.00000
  84       15F+1        0.00000  -0.00021   0.00000   0.00000   0.00000
  85       15F-1        0.00000   0.00000   0.00000   0.00000   0.00000
  86       15F+2        0.00000   0.00000   0.00011   0.00001  -0.00001
  87       15F-2        0.00000   0.00000   0.00000   0.00000   0.00000
  88       15F+3        0.00000   0.00009   0.00000   0.00000   0.00000
  89       15F-3        0.00000   0.00000   0.00000   0.00000   0.00000
  90       16F 0        0.00000   0.00000  -0.00037   0.00002  -0.00001
  91       16F+1        0.00000  -0.00012   0.00000   0.00000   0.00000
  92       16F-1        0.00000   0.00000   0.00001   0.00000  -0.00001
  93       16F+2        0.00000   0.00000  -0.00045   0.00000   0.00000
  94       16F-2       -0.00001   0.00000   0.00000   0.00000   0.00000
  95       16F+3        0.00000  -0.00012   0.00000   0.00000   0.00000
  96       16F-3        0.00000   0.00000   0.00000   0.00000   0.00000
  97 3   Br 1S          0.00000   0.00000   0.00147   0.00613   0.01075
  98        2S          0.00000   0.00000  -0.00418  -0.02047  -0.03193
  99        3S          0.00000   0.00000  -0.00664  -0.00210  -0.00282
 100        4S          0.00000   0.00000   0.00065   0.00002  -0.00001
 101        5S          0.00000   0.00000  -0.00050  -0.00006  -0.00009
 102        6S          0.00000   0.00000   0.00083  -0.00019   0.00032
 103        7S          0.00000   0.00000   0.00246  -0.00004   0.00032
 104        8PX         0.26151   0.19748   0.00000   0.00000   0.00000
 105        8PY         0.00000   0.00000  -0.08239  -0.62882  -0.14470
 106        8PZ         0.00000   0.00000  -0.07221   0.77326   0.02746
 107        9PX        -0.73954  -0.55588   0.00000   0.00000   0.00000
 108        9PY         0.00000   0.00000   0.16800   0.00966   0.00095
 109        9PZ         0.00000   0.00000   0.16219  -0.01735  -0.00208
 110       10PX        -0.00124   0.00030   0.00000   0.00000   0.00000
 111       10PY         0.00000   0.00000  -0.00027  -0.00031  -0.00002
 112       10PZ         0.00000   0.00000  -0.00001   0.00034   0.00004
 113       11PX        -0.03302  -0.02422   0.00000   0.00000   0.00000
 114       11PY         0.00000   0.00000   0.00693   0.00089   0.00015
 115       11PZ         0.00000   0.00000   0.00662  -0.00130  -0.00011
 116       12PX        -0.00381  -0.00249   0.00000   0.00000   0.00000
 117       12PY         0.00000   0.00000   0.00190  -0.00002   0.00024
 118       12PZ         0.00000   0.00000  -0.00014  -0.00012   0.00011
 119       13PX         0.00031   0.00038   0.00000   0.00000   0.00000
 120       13PY         0.00000   0.00000   0.00037  -0.00003   0.00004
 121       13PZ         0.00000   0.00000   0.00018   0.00003   0.00003
 122       14D 0        0.00000   0.00000  -0.00134   0.00056   0.00006
 123       14D+1        0.00054   0.00020   0.00000   0.00000   0.00000
 124       14D-1        0.00000   0.00000   0.01056   0.00032   0.00009
 125       14D+2        0.00000   0.00000  -0.00734   0.00031  -0.00001
 126       14D-2       -0.00016  -0.00030   0.00000   0.00000   0.00000
 127       15D 0        0.00000   0.00000  -0.00010   0.00001   0.00000
 128       15D+1       -0.00004  -0.00010   0.00000   0.00000   0.00000
 129       15D-1        0.00000   0.00000   0.00092   0.00001   0.00001
 130       15D+2        0.00000   0.00000  -0.00065   0.00000  -0.00001
 131       15D-2       -0.00012  -0.00016   0.00000   0.00000   0.00000
 132       16D 0        0.00000   0.00000   0.00014   0.00009   0.00001
 133       16D+1        0.00011   0.00012   0.00000   0.00000   0.00000
 134       16D-1        0.00000   0.00000   0.00099   0.00003   0.00000
 135       16D+2        0.00000   0.00000  -0.00041   0.00006  -0.00001
 136       16D-2        0.00019  -0.00001   0.00000   0.00000   0.00000
 137       17D 0        0.00000   0.00000  -0.00024   0.00000  -0.00002
 138       17D+1       -0.00007  -0.00011   0.00000   0.00000   0.00000
 139       17D-1        0.00000   0.00000   0.00011  -0.00002   0.00004
 140       17D+2        0.00000   0.00000  -0.00051   0.00000  -0.00005
 141       17D-2       -0.00013  -0.00036   0.00000   0.00000   0.00000
 142       18F 0        0.00000   0.00000  -0.00012   0.00000   0.00000
 143       18F+1       -0.00002  -0.00002   0.00000   0.00000   0.00000
 144       18F-1        0.00000   0.00000   0.00011  -0.00001   0.00000
 145       18F+2        0.00000   0.00000  -0.00019   0.00000   0.00000
 146       18F-2       -0.00023  -0.00018   0.00000   0.00000   0.00000
 147       18F+3        0.00018   0.00011   0.00000   0.00000   0.00000
 148       18F-3        0.00000   0.00000  -0.00007   0.00000   0.00000
 149       19F 0        0.00000   0.00000  -0.00007   0.00001   0.00001
 150       19F+1        0.00002   0.00005   0.00000   0.00000   0.00000
 151       19F-1        0.00000   0.00000   0.00021   0.00004   0.00000
 152       19F+2        0.00000   0.00000  -0.00021   0.00000   0.00001
 153       19F-2        0.00018   0.00016   0.00000   0.00000   0.00000
 154       19F+3       -0.00014   0.00002   0.00000   0.00000   0.00000
 155       19F-3        0.00000   0.00000  -0.00006   0.00001   0.00000
 156 4   Br 1S          0.00000   0.00000   0.00145  -0.00834  -0.00913
 157        2S          0.00000   0.00000  -0.00412   0.02414   0.02945
 158        3S          0.00000   0.00000  -0.00681   0.00203   0.00289
 159        4S          0.00000   0.00000   0.00064   0.00002  -0.00002
 160        5S          0.00000   0.00000  -0.00050   0.00007   0.00009
 161        6S          0.00000   0.00000   0.00079  -0.00037   0.00012
 162        7S          0.00000   0.00000   0.00244  -0.00033  -0.00004
 163        8PX        -0.26322   0.19656   0.00000   0.00000   0.00000
 164        8PY         0.00000   0.00000   0.08243   0.01215  -0.65640
 165        8PZ         0.00000   0.00000  -0.07334   0.14149  -0.74826
 166        9PX         0.74438  -0.55333   0.00000   0.00000   0.00000
 167        9PY         0.00000   0.00000  -0.16905  -0.00119   0.00967
 168        9PZ         0.00000   0.00000   0.16561  -0.00196   0.01736
 169       10PX         0.00126   0.00029   0.00000   0.00000   0.00000
 170       10PY         0.00000   0.00000   0.00027   0.00006  -0.00032
 171       10PZ         0.00000   0.00000  -0.00004   0.00003  -0.00033
 172       11PX         0.03323  -0.02410   0.00000   0.00000   0.00000
 173       11PY         0.00000   0.00000  -0.00698  -0.00007   0.00091
 174       11PZ         0.00000   0.00000   0.00678  -0.00019   0.00128
 175       12PX         0.00383  -0.00247   0.00000   0.00000   0.00000
 176       12PY         0.00000   0.00000  -0.00190   0.00024   0.00004
 177       12PZ         0.00000   0.00000  -0.00013  -0.00014   0.00009
 178       13PX        -0.00031   0.00038   0.00000   0.00000   0.00000
 179       13PY         0.00000   0.00000  -0.00036   0.00005  -0.00002
 180       13PZ         0.00000   0.00000   0.00018  -0.00002  -0.00004
 181       14D 0        0.00000   0.00000  -0.00124   0.00007  -0.00055
 182       14D+1       -0.00057   0.00022   0.00000   0.00000   0.00000
 183       14D-1        0.00000   0.00000  -0.01055   0.00001   0.00033
 184       14D+2        0.00000   0.00000  -0.00725   0.00007  -0.00030
 185       14D-2       -0.00007   0.00023   0.00000   0.00000   0.00000
 186       15D 0        0.00000   0.00000  -0.00009   0.00000  -0.00001
 187       15D+1        0.00004  -0.00010   0.00000   0.00000   0.00000
 188       15D-1        0.00000   0.00000  -0.00091   0.00001   0.00001
 189       15D+2        0.00000   0.00000  -0.00064   0.00001   0.00000
 190       15D-2       -0.00011   0.00015   0.00000   0.00000   0.00000
 191       16D 0        0.00000   0.00000   0.00013   0.00001  -0.00008
 192       16D+1       -0.00011   0.00012   0.00000   0.00000   0.00000
 193       16D-1        0.00000   0.00000  -0.00098   0.00000   0.00003
 194       16D+2        0.00000   0.00000  -0.00042   0.00002  -0.00006
 195       16D-2        0.00019   0.00001   0.00000   0.00000   0.00000
 196       17D 0        0.00000   0.00000  -0.00025   0.00002   0.00001
 197       17D+1        0.00007  -0.00011   0.00000   0.00000   0.00000
 198       17D-1        0.00000   0.00000  -0.00011   0.00004  -0.00001
 199       17D+2        0.00000   0.00000  -0.00051   0.00005   0.00001
 200       17D-2       -0.00013   0.00035   0.00000   0.00000   0.00000
 201       18F 0        0.00000   0.00000  -0.00012   0.00000   0.00000
 202       18F+1        0.00002  -0.00002   0.00000   0.00000   0.00000
 203       18F-1        0.00000   0.00000  -0.00011   0.00000  -0.00001
 204       18F+2        0.00000   0.00000  -0.00019   0.00000   0.00000
 205       18F-2       -0.00023   0.00018   0.00000   0.00000   0.00000
 206       18F+3       -0.00018   0.00011   0.00000   0.00000   0.00000
 207       18F-3        0.00000   0.00000   0.00007  -0.00001   0.00000
 208       19F 0        0.00000   0.00000  -0.00007   0.00000  -0.00001
 209       19F+1       -0.00002   0.00006   0.00000   0.00000   0.00000
 210       19F-1        0.00000   0.00000  -0.00021  -0.00001   0.00004
 211       19F+2        0.00000   0.00000  -0.00021   0.00000   0.00000
 212       19F-2        0.00018  -0.00016   0.00000   0.00000   0.00000
 213       19F+3        0.00014   0.00002   0.00000   0.00000   0.00000
 214       19F-3        0.00000   0.00000   0.00006   0.00000   0.00001
                          16        17        18        19        20
     Eigenvalues --     2.00000   2.00000   2.00000   2.00000   2.00000
   1 1   C  1S          0.00020   0.00000   0.00000   0.02380   0.00025
   2        2S          0.00000   0.00000   0.00000  -0.00022   0.00000
   3        3S          0.00001   0.00000   0.00000   0.00104   0.00001
   4        4S          0.00000   0.00000   0.00000  -0.00137  -0.00001
   5        5S          0.00000   0.00000   0.00000  -0.00063   0.00000
   6        6PX         0.00000   0.00001   0.00000   0.00000   0.00000
   7        6PY        -0.00003   0.00000   0.00000   0.00000   0.00000
   8        6PZ         0.00000   0.00000   0.00000  -0.00004   0.00000
   9        7PX         0.00000  -0.00002   0.00000   0.00000   0.00000
  10        7PY         0.00006   0.00000   0.00000   0.00000   0.00002
  11        7PZ         0.00000   0.00000   0.00000   0.00007   0.00000
  12        8PX         0.00000  -0.00015  -0.00001   0.00000   0.00000
  13        8PY         0.00060   0.00000   0.00000   0.00000   0.00002
  14        8PZ         0.00001   0.00000   0.00000   0.00053   0.00000
  15        9PX         0.00000   0.00003   0.00000   0.00000   0.00000
  16        9PY         0.00007   0.00000   0.00000   0.00000  -0.00001
  17        9PZ         0.00000   0.00000   0.00000   0.00013   0.00000
  18       10D 0        0.00000   0.00000   0.00000   0.00001   0.00000
  19       10D+1        0.00000   0.00000   0.00000   0.00000   0.00000
  20       10D-1        0.00000   0.00000   0.00000   0.00000   0.00000
  21       10D+2        0.00000   0.00000   0.00000  -0.00001   0.00000
  22       10D-2        0.00000   0.00000   0.00001   0.00000   0.00000
  23       11D 0        0.00000   0.00000   0.00000  -0.00003   0.00000
  24       11D+1        0.00000   0.00002   0.00000   0.00000   0.00000
  25       11D-1       -0.00008   0.00000   0.00000   0.00000  -0.00001
  26       11D+2        0.00000   0.00000   0.00000   0.00014   0.00000
  27       11D-2        0.00000   0.00000  -0.00004   0.00000   0.00000
  28       12D 0        0.00000   0.00000   0.00000   0.00011   0.00000
  29       12D+1        0.00000  -0.00004   0.00000   0.00000   0.00000
  30       12D-1       -0.00042   0.00000   0.00000   0.00000  -0.00005
  31       12D+2        0.00000   0.00000   0.00000   0.00021   0.00000
  32       12D-2        0.00000   0.00000   0.00004   0.00000   0.00000
  33       13F 0        0.00000   0.00000   0.00000   0.00000   0.00000
  34       13F+1        0.00000   0.00000   0.00000   0.00000   0.00000
  35       13F-1        0.00000   0.00000   0.00000   0.00000   0.00000
  36       13F+2        0.00000   0.00000   0.00000   0.00000   0.00000
  37       13F-2        0.00000   0.00000   0.00000   0.00000   0.00000
  38       13F+3        0.00000  -0.00001   0.00000   0.00000   0.00000
  39       13F-3        0.00001   0.00000   0.00000   0.00000   0.00000
  40       14F 0        0.00000   0.00000   0.00000  -0.00001   0.00000
  41       14F+1        0.00000  -0.00002   0.00000   0.00000   0.00000
  42       14F-1       -0.00005   0.00000   0.00000   0.00000  -0.00001
  43       14F+2        0.00000   0.00000   0.00000  -0.00004   0.00000
  44       14F-2        0.00000   0.00000   0.00003   0.00000   0.00000
  45       14F+3        0.00000   0.00004   0.00000   0.00000   0.00000
  46       14F-3       -0.00004   0.00000   0.00000   0.00000  -0.00001
  47 2   S  1S         -0.00009   0.00000   0.00000  -0.03438  -0.00123
  48        2S         -0.00004   0.00000   0.00000  -0.00606  -0.00007
  49        3S          0.00000   0.00000   0.00000   0.00002   0.00000
  50        4S          0.00000   0.00000   0.00000  -0.00043   0.00000
  51        5S         -0.00001   0.00000   0.00000   0.00003   0.00000
  52        6S          0.00000   0.00000   0.00000   0.00003   0.00000
  53        7PX         0.00000  -0.00082  -0.00004   0.00000   0.00000
  54        7PY         0.00056   0.00000   0.00000  -0.00005  -0.00004
  55        7PZ         0.00010   0.00000   0.00000   0.01333   0.00014
  56        8PX         0.00000   0.00001   0.00000   0.00000   0.00000
  57        8PY         0.00001   0.00000   0.00000   0.00000   0.00001
  58        8PZ         0.00000   0.00000   0.00000  -0.00016   0.00000
  59        9PX         0.00000  -0.00005   0.00000   0.00000   0.00000
  60        9PY         0.00004   0.00000   0.00000   0.00000   0.00000
  61        9PZ         0.00001   0.00000   0.00000   0.00089   0.00001
  62       10PX         0.00000   0.00010   0.00000   0.00000   0.00000
  63       10PY         0.00018   0.00000   0.00000   0.00000   0.00001
  64       10PZ         0.00000   0.00000   0.00000  -0.00006   0.00000
  65       11PX         0.00000  -0.00001   0.00000   0.00000   0.00000
  66       11PY         0.00000   0.00000   0.00000   0.00000   0.00000
  67       11PZ         0.00000   0.00000   0.00000  -0.00003   0.00000
  68       12D 0        0.00000   0.00000   0.00000   0.00007   0.00000
  69       12D+1        0.00000  -0.00002   0.00000   0.00000   0.00000
  70       12D-1       -0.00001   0.00000   0.00000   0.00000   0.00000
  71       12D+2        0.00000   0.00000   0.00000  -0.00001   0.00000
  72       12D-2        0.00000   0.00000  -0.00001   0.00000   0.00000
  73       13D 0        0.00000   0.00000   0.00000  -0.00002   0.00000
  74       13D+1        0.00000   0.00000   0.00000   0.00000   0.00000
  75       13D-1        0.00000   0.00000   0.00000   0.00000   0.00000
  76       13D+2        0.00000   0.00000   0.00000   0.00000   0.00000
  77       13D-2        0.00000   0.00000   0.00000   0.00000   0.00000
  78       14D 0        0.00000   0.00000   0.00000   0.00003   0.00000
  79       14D+1        0.00000  -0.00005   0.00000   0.00000   0.00000
  80       14D-1       -0.00004   0.00000   0.00000   0.00000   0.00000
  81       14D+2        0.00000   0.00000   0.00000  -0.00002   0.00000
  82       14D-2        0.00000   0.00000  -0.00001   0.00000   0.00000
  83       15F 0        0.00000   0.00000   0.00000   0.00001   0.00000
  84       15F+1        0.00000   0.00000   0.00000   0.00000   0.00000
  85       15F-1        0.00000   0.00000   0.00000   0.00000   0.00000
  86       15F+2        0.00000   0.00000   0.00000   0.00000   0.00000
  87       15F-2        0.00000   0.00000   0.00000   0.00000   0.00000
  88       15F+3        0.00000   0.00000   0.00000   0.00000   0.00000
  89       15F-3        0.00000   0.00000   0.00000   0.00000   0.00000
  90       16F 0        0.00000   0.00000   0.00000  -0.00002   0.00000
  91       16F+1        0.00000   0.00002   0.00000   0.00000   0.00000
  92       16F-1        0.00000   0.00000   0.00000   0.00000   0.00000
  93       16F+2        0.00000   0.00000   0.00000   0.00000   0.00000
  94       16F-2        0.00000   0.00000   0.00001   0.00000   0.00000
  95       16F+3        0.00000  -0.00001   0.00000   0.00000   0.00000
  96       16F-3        0.00000   0.00000   0.00000   0.00000   0.00000
  97 3   Br 1S         -0.05045   0.00000   0.00000   0.00602   0.21270
  98        2S          0.15773   0.00000   0.00000  -0.02008  -0.68948
  99        3S          0.01471   0.00000   0.00000   0.00681  -0.02938
 100        4S         -0.00014   0.00000   0.00000  -0.00008   0.00020
 101        5S          0.00044   0.00000   0.00000   0.00022  -0.00069
 102        6S          0.00076   0.00000   0.00000   0.00078  -0.00003
 103        7S          0.00008   0.00000   0.00000   0.00028  -0.00003
 104        8PX         0.00000   0.74753  -0.67680   0.00000   0.00000
 105        8PY         0.48136   0.00000   0.00000   0.57511   0.13925
 106        8PZ         0.48860   0.00000   0.00000   0.40334   0.08752
 107        9PX         0.00000  -0.01663   0.01575   0.00000   0.00000
 108        9PY         0.00506   0.00000   0.00000   0.00884  -0.00220
 109        9PZ         0.00005   0.00000   0.00000   0.00575  -0.00136
 110       10PX         0.00000   0.00030  -0.00028   0.00000   0.00000
 111       10PY         0.00026   0.00000   0.00000   0.00036   0.00007
 112       10PZ         0.00029   0.00000   0.00000   0.00023   0.00005
 113       11PX         0.00000  -0.00127   0.00118   0.00000   0.00000
 114       11PY        -0.00022   0.00000   0.00000  -0.00017  -0.00021
 115       11PZ        -0.00042   0.00000   0.00000  -0.00013  -0.00014
 116       12PX         0.00000  -0.00008   0.00013   0.00000   0.00000
 117       12PY         0.00024   0.00000   0.00000   0.00025  -0.00005
 118       12PZ         0.00008   0.00000   0.00000   0.00024  -0.00002
 119       13PX         0.00000   0.00002  -0.00003   0.00000   0.00000
 120       13PY         0.00000   0.00000   0.00000   0.00004   0.00000
 121       13PZ         0.00001   0.00000   0.00000   0.00001   0.00000
 122       14D 0        0.00007   0.00000   0.00000  -0.00001   0.00003
 123       14D+1        0.00000   0.00003  -0.00003   0.00000   0.00000
 124       14D-1       -0.00022   0.00000   0.00000   0.00008  -0.00001
 125       14D+2        0.00024   0.00000   0.00000  -0.00003  -0.00006
 126       14D-2        0.00000  -0.00001   0.00002   0.00000   0.00000
 127       15D 0        0.00000   0.00000   0.00000   0.00000   0.00000
 128       15D+1        0.00000  -0.00001   0.00001   0.00000   0.00000
 129       15D-1       -0.00004   0.00000   0.00000  -0.00002   0.00000
 130       15D+2        0.00003   0.00000   0.00000   0.00002   0.00000
 131       15D-2        0.00000  -0.00002   0.00002   0.00000   0.00000
 132       16D 0        0.00003   0.00000   0.00000  -0.00001   0.00001
 133       16D+1        0.00000   0.00003  -0.00002   0.00000   0.00000
 134       16D-1        0.00010   0.00000   0.00000   0.00014   0.00001
 135       16D+2       -0.00005   0.00000   0.00000  -0.00011  -0.00001
 136       16D-2        0.00000   0.00004  -0.00003   0.00000   0.00000
 137       17D 0       -0.00003   0.00000   0.00000   0.00001   0.00000
 138       17D+1        0.00000   0.00000   0.00002   0.00000   0.00000
 139       17D-1        0.00003   0.00000   0.00000   0.00006  -0.00001
 140       17D+2       -0.00002   0.00000   0.00000  -0.00003   0.00002
 141       17D-2        0.00000   0.00000   0.00002   0.00000   0.00000
 142       18F 0        0.00000   0.00000   0.00000   0.00000   0.00000
 143       18F+1        0.00000   0.00000   0.00000   0.00000   0.00000
 144       18F-1        0.00001   0.00000   0.00000   0.00000   0.00000
 145       18F+2       -0.00001   0.00000   0.00000  -0.00001   0.00000
 146       18F-2        0.00000  -0.00001   0.00000   0.00000   0.00000
 147       18F+3        0.00000   0.00000   0.00000   0.00000   0.00000
 148       18F-3       -0.00001   0.00000   0.00000  -0.00001   0.00000
 149       19F 0       -0.00001   0.00000   0.00000  -0.00002   0.00000
 150       19F+1        0.00000   0.00001   0.00000   0.00000   0.00000
 151       19F-1        0.00002   0.00000   0.00000   0.00001   0.00000
 152       19F+2       -0.00002   0.00000   0.00000  -0.00003   0.00000
 153       19F-2        0.00000   0.00002  -0.00001   0.00000   0.00000
 154       19F+3        0.00000  -0.00002   0.00001   0.00000   0.00000
 155       19F-3        0.00000   0.00000   0.00000  -0.00002   0.00000
 156 4   Br 1S          0.05154   0.00000   0.00000   0.00626  -0.22445
 157        2S         -0.16116   0.00000   0.00000  -0.02096   0.72780
 158        3S         -0.01482   0.00000   0.00000   0.00671   0.03112
 159        4S          0.00014   0.00000   0.00000  -0.00008  -0.00021
 160        5S         -0.00044   0.00000   0.00000   0.00022   0.00073
 161        6S         -0.00076   0.00000   0.00000   0.00077   0.00004
 162        7S         -0.00008   0.00000   0.00000   0.00028   0.00003
 163        8PX         0.00000   0.67653   0.74778   0.00000   0.00000
 164        8PY         0.47005   0.00000   0.00000  -0.57226   0.13731
 165        8PZ        -0.50488   0.00000   0.00000   0.40635  -0.08796
 166        9PX         0.00000  -0.01499  -0.01734   0.00000   0.00000
 167        9PY         0.00512   0.00000   0.00000  -0.00882  -0.00248
 168        9PZ         0.00030   0.00000   0.00000   0.00582   0.00159
 169       10PX         0.00000   0.00027   0.00030   0.00000   0.00000
 170       10PY         0.00026   0.00000   0.00000  -0.00035   0.00007
 171       10PZ        -0.00030   0.00000   0.00000   0.00023  -0.00005
 172       11PX         0.00000  -0.00115  -0.00130   0.00000   0.00000
 173       11PY        -0.00021   0.00000   0.00000   0.00017  -0.00022
 174       11PZ         0.00045   0.00000   0.00000  -0.00013   0.00015
 175       12PX         0.00000  -0.00007  -0.00013   0.00000   0.00000
 176       12PY         0.00023   0.00000   0.00000  -0.00025  -0.00005
 177       12PZ        -0.00008   0.00000   0.00000   0.00024   0.00003
 178       13PX         0.00000   0.00001   0.00003   0.00000   0.00000
 179       13PY         0.00000   0.00000   0.00000  -0.00004   0.00000
 180       13PZ        -0.00001   0.00000   0.00000   0.00001   0.00000
 181       14D 0       -0.00008   0.00000   0.00000  -0.00001  -0.00003
 182       14D+1        0.00000   0.00003   0.00003   0.00000   0.00000
 183       14D-1       -0.00022   0.00000   0.00000  -0.00008  -0.00001
 184       14D+2       -0.00024   0.00000   0.00000  -0.00003   0.00006
 185       14D-2        0.00000   0.00001   0.00001   0.00000   0.00000
[...]
 167        9PY         0.01026  -0.02920  -0.01244   0.01214   0.00000
 168        9PZ        -0.00758   0.01186  -0.00245   0.00538   0.00000
 169       10PX         0.00000   0.00000   0.00000   0.00000  -0.10246
 170       10PY         0.26837  -0.45790  -0.00197   0.15298   0.00000
 171       10PZ        -0.17242   0.17771  -0.10681   0.04421   0.00000
 172       11PX         0.00000   0.00000   0.00000   0.00000   0.03559
 173       11PY         0.01477   0.00290   0.05260  -0.00126   0.00000
 174       11PZ        -0.00972  -0.00144  -0.01301  -0.01907   0.00000
 175       12PX         0.00000   0.00000   0.00000   0.00000   0.37885
 176       12PY         8.07854  -4.98280   2.83191  -5.74885   0.00000
 177       12PZ        -3.35696   5.86241  -1.78606   2.55015   0.00000
 178       13PX         0.00000   0.00000   0.00000   0.00000  -2.11943
 179       13PY        -0.50268  -1.06144   1.99369  -3.31124   0.00000
 180       13PZ        -1.69490   0.67351   0.20875   1.14276   0.00000
 181       14D 0        0.00294  -0.00141  -0.00419  -0.00020   0.00000
 182       14D+1        0.00000   0.00000   0.00000   0.00000   0.00098
 183       14D-1        0.00389   0.00106   0.00011   0.00005   0.00000
 184       14D+2        0.00418  -0.00118   0.00253   0.00373   0.00000
 185       14D-2        0.00000   0.00000   0.00000   0.00000  -0.00122
 186       15D 0       -0.03680   0.02423   0.04830   0.00212   0.00000
 187       15D+1        0.00000   0.00000   0.00000   0.00000  -0.01508
 188       15D-1       -0.05365   0.00207  -0.01446   0.01189   0.00000
 189       15D+2       -0.05125   0.02541  -0.03435  -0.03376   0.00000
 190       15D-2        0.00000   0.00000   0.00000   0.00000   0.02418
 191       16D 0        0.23477  -0.16736  -0.24598  -0.01889   0.00000
 192       16D+1        0.00000   0.00000   0.00000   0.00000   0.07293
 193       16D-1        0.46228  -0.36945   0.29248  -0.13982   0.00000
 194       16D+2        0.42533  -0.39237   0.27835   0.10010   0.00000
 195       16D-2        0.00000   0.00000   0.00000   0.00000  -0.12691
 196       17D 0        0.59674   0.83938   0.28610  -0.46867   0.00000
 197       17D+1        0.00000   0.00000   0.00000   0.00000  -0.16619
 198       17D-1        1.00465  -1.71188  -0.00162  -1.42624   0.00000
 199       17D+2        0.78123  -0.46835  -0.04717  -1.99815   0.00000
 200       17D-2        0.00000   0.00000   0.00000   0.00000   0.14971
 201       18F 0       -0.03750  -0.00230   0.02727  -0.00405   0.00000
 202       18F+1        0.00000   0.00000   0.00000   0.00000  -0.01538
 203       18F-1        0.00445  -0.03596   0.00231   0.01263   0.00000
 204       18F+2       -0.00769  -0.01170   0.00042   0.03814   0.00000
 205       18F-2        0.00000   0.00000   0.00000   0.00000   0.00483
 206       18F+3        0.00000   0.00000   0.00000   0.00000   0.04301
 207       18F-3       -0.02281  -0.01653  -0.01291  -0.03340   0.00000
 208       19F 0        0.20617  -0.08853  -0.07197  -0.06567   0.00000
 209       19F+1        0.00000   0.00000   0.00000   0.00000   0.02335
 210       19F-1       -0.02404   0.02956   0.05033  -0.03966   0.00000
 211       19F+2        0.13523  -0.11063   0.02281  -0.19799   0.00000
 212       19F-2        0.00000   0.00000   0.00000   0.00000  -0.01435
 213       19F+3        0.00000   0.00000   0.00000   0.00000  -0.10231
 214       19F-3        0.00138   0.09037   0.01787   0.17771   0.00000
                         211       212       213       214
     Eigenvalues --     0.00000   0.00000   0.00000   0.00000
   1 1   C  1S         -0.12742  -0.00130   0.02530  -0.01988
   2        2S         -0.60625  -0.00660   0.09963  -0.06048
   3        3S          0.09099  -0.00013  -0.06568   0.11047
   4        4S          3.12211   0.11979  -3.51938   1.01516
   5        5S         21.27242   0.19772   2.70851  26.04267
   6        6PX         0.00000   0.00000   0.00000   0.00000
   7        6PY        -0.00002  -0.01539  -0.00006  -0.00014
   8        6PZ        -0.00630  -0.00030  -0.02058   0.01785
   9        7PX         0.00000   0.00000   0.00000   0.00000
  10        7PY         0.00081   0.02634   0.00046   0.00110
  11        7PZ         0.10755   0.00315   0.01153  -0.17185
  12        8PX         0.00000   0.00000   0.00000   0.00000
  13        8PY         0.07223  -5.90795   0.00355  -0.01468
  14        8PZ         3.63815   0.04501  -5.11341   0.28765
  15        9PX         0.00000   0.00000   0.00000   0.00000
  16        9PY         0.17718 -19.72142   0.07493  -0.05560
  17        9PZ         8.44516   0.07868 -12.91719  -0.35146
  18       10D 0        0.00998  -0.00010   0.00916   0.01171
  19       10D+1        0.00000   0.00000   0.00000   0.00000
  20       10D-1        0.00008  -0.01295   0.00007   0.00004
  21       10D+2       -0.03258   0.00025   0.01109  -0.03155
  22       10D-2        0.00000   0.00000   0.00000   0.00000
  23       11D 0        0.20690   0.00467  -0.02974  -0.30981
  24       11D+1        0.00000   0.00000   0.00000   0.00000
  25       11D-1       -0.00260   0.25187  -0.00191  -0.00105
  26       11D+2        0.15972  -0.00229  -0.05823   0.18583
  27       11D-2        0.00000   0.00000   0.00000   0.00000
  28       12D 0        2.85670   0.02781  -0.65595  -0.44796
  29       12D+1        0.00000   0.00000   0.00000   0.00000
  30       12D-1       -0.02877   2.17877  -0.02609  -0.01487
  31       12D+2       -0.09014   0.00555  -0.50715  -0.64230
  32       12D-2        0.00000   0.00000   0.00000   0.00000
  33       13F 0       -0.00976  -0.00004  -0.01099  -0.02711
  34       13F+1        0.00000   0.00000   0.00000   0.00000
  35       13F-1       -0.00038  -0.00468   0.00011  -0.00009
  36       13F+2       -0.00514  -0.00039   0.00704  -0.00778
  37       13F-2        0.00000   0.00000   0.00000   0.00000
  38       13F+3        0.00000   0.00000   0.00000   0.00000
  39       13F-3       -0.00008   0.00804  -0.00010   0.00016
  40       14F 0        0.04054   0.00297   0.07038  -0.14080
  41       14F+1        0.00000   0.00000   0.00000   0.00000
  42       14F-1        0.00278  -0.01686  -0.00120  -0.00106
  43       14F+2       -0.06898   0.00205  -0.03138  -0.09916
  44       14F-2        0.00000   0.00000   0.00000   0.00000
  45       14F+3        0.00000   0.00000   0.00000   0.00000
  46       14F-3        0.00025  -0.01399   0.00021  -0.00042
  47 2   S  1S          0.00675   0.00016   0.00249   0.00187
  48        2S          0.11896   0.00319   0.09639   0.01744
  49        3S          0.31397   0.00776   0.16211   0.06938
  50        4S         -0.02932  -0.00187  -0.18260  -0.00995
  51        5S         -6.78078  -0.10717   1.47818   1.60191
  52        6S        -11.33826  -0.03947  20.36188 -12.77061
  53        7PX         0.00000   0.00000   0.00000   0.00000
  54        7PY        -0.00008   0.00810   0.00003   0.00006
  55        7PZ         0.01617   0.00054   0.03021  -0.03706
  56        8PX         0.00000   0.00000   0.00000   0.00000
  57        8PY        -0.00116   0.08209   0.00086   0.00111
  58        8PZ         0.49620   0.01267   0.44410  -0.76499
  59        9PX         0.00000   0.00000   0.00000   0.00000
  60        9PY         0.00021  -0.02674  -0.00011  -0.00022
  61        9PZ        -0.03921  -0.00149  -0.10410   0.11303
  62       10PX         0.00000   0.00000   0.00000   0.00000
  63       10PY        -0.00086  -0.48388   0.01390   0.01087
  64       10PZ         2.67027   0.03277  -5.97602   2.18265
  65       11PX         0.00000   0.00000   0.00000   0.00000
  66       11PY        -0.05991   5.07412  -0.01462   0.01021
  67       11PZ        -1.33416  -0.03475  -2.00680   4.22667
  68       12D 0       -0.61485  -0.01024   0.22716   0.34648
  69       12D+1        0.00000   0.00000   0.00000   0.00000
  70       12D-1       -0.00042   0.13422  -0.00184  -0.00200
  71       12D+2        0.20212   0.00110   0.01329   0.07778
  72       12D-2        0.00000   0.00000   0.00000   0.00000
  73       13D 0        0.10636   0.00110  -0.03567  -0.00988
  74       13D+1        0.00000   0.00000   0.00000   0.00000
  75       13D-1        0.00052  -0.03572   0.00011   0.00022
  76       13D+2       -0.05376  -0.00038   0.00217  -0.01743
  77       13D-2        0.00000   0.00000   0.00000   0.00000
  78       14D 0        1.22052   0.01007   1.68745  -1.21061
  79       14D+1        0.00000   0.00000   0.00000   0.00000
  80       14D-1        0.00912  -0.26916  -0.00537  -0.00376
  81       14D+2       -0.52788  -0.00888  -0.02515   0.00103
  82       14D-2        0.00000   0.00000   0.00000   0.00000
  83       15F 0        0.03898   0.00080   0.06638  -0.05881
  84       15F+1        0.00000   0.00000   0.00000   0.00000
  85       15F-1        0.00024  -0.01274  -0.00007   0.00018
  86       15F+2       -0.01518  -0.00020  -0.00990   0.01461
  87       15F-2        0.00000   0.00000   0.00000   0.00000
  88       15F+3        0.00000   0.00000   0.00000   0.00000
  89       15F-3        0.00028  -0.03782   0.00026   0.00001
  90       16F 0       -0.15768  -0.00056  -0.29800   0.08262
  91       16F+1        0.00000   0.00000   0.00000   0.00000
  92       16F-1       -0.00204   0.03260   0.00123   0.00051
  93       16F+2        0.06730   0.00196   0.01628  -0.07451
  94       16F-2        0.00000   0.00000   0.00000   0.00000
  95       16F+3        0.00000   0.00000   0.00000   0.00000
  96       16F-3       -0.00071   0.10158  -0.00058   0.00012
  97 3   Br 1S          0.00025  -0.00015  -0.00021   0.00022
  98        2S          0.00232   0.00216   0.00043   0.00083
  99        3S          0.00976   0.00198  -0.00294   0.00593
 100        4S          0.03093   0.03677   0.00781   0.00986
 101        5S          0.00734   0.11597   0.04077  -0.02875
 102        6S          0.32288  -1.95479  -0.43109   0.08102
 103        7S         -4.48000 -21.45810 -10.23891  -7.27969
 104        8PX         0.00000   0.00000   0.00000   0.00000
 105        8PY        -0.00059  -0.00100  -0.00002  -0.00004
 106        8PZ         0.00003  -0.00061  -0.00024  -0.00011
 107        9PX         0.00000   0.00000   0.00000   0.00000
 108        9PY         0.01824   0.01699   0.00492   0.01756
 109        9PZ         0.01396   0.00585   0.01199   0.01078
 110       10PX         0.00000   0.00000   0.00000   0.00000
 111       10PY         0.18379   0.14843   0.05707   0.20313
 112       10PZ         0.16321   0.03777   0.12777   0.12106
 113       11PX         0.00000   0.00000   0.00000   0.00000
 114       11PY        -0.02997  -0.02781  -0.00466  -0.02473
 115       11PZ        -0.02054  -0.01228  -0.01718  -0.01429
 116       12PX         0.00000   0.00000   0.00000   0.00000
 117       12PY        -0.94185  -4.58590  -1.68806  -0.47731
 118       12PZ        -0.19089  -2.69084  -1.55467  -0.61233
 119       13PX         0.00000   0.00000   0.00000   0.00000
 120       13PY        -0.80837  -1.78906  -2.97112  -2.36165
 121       13PZ        -3.04401  -3.46798   0.34205  -1.43989
 122       14D 0        0.00102   0.00010  -0.00147  -0.00058
 123       14D+1        0.00000   0.00000   0.00000   0.00000
 124       14D-1        0.00206   0.00083   0.00088   0.00156
 125       14D+2       -0.00020   0.00096  -0.00072  -0.00069
 126       14D-2        0.00000   0.00000   0.00000   0.00000
 127       15D 0       -0.01238  -0.00330   0.01526   0.00999
 128       15D+1        0.00000   0.00000   0.00000   0.00000
 129       15D-1       -0.02801   0.00570  -0.00832  -0.02317
 130       15D+2       -0.00029  -0.02094   0.00692   0.01247
 131       15D-2        0.00000   0.00000   0.00000   0.00000
 132       16D 0        0.06317   0.01653  -0.05241  -0.06588
 133       16D+1        0.00000   0.00000   0.00000   0.00000
 134       16D-1        0.17506  -0.14798   0.02937   0.19850
 135       16D+2       -0.01412   0.16594  -0.02149  -0.12746
 136       16D-2        0.00000   0.00000   0.00000   0.00000
 137       17D 0       -0.21475   0.17045   0.06089   0.04960
 138       17D+1        0.00000   0.00000   0.00000   0.00000
 139       17D-1       -0.29649  -1.13076  -0.72965  -0.40086
 140       17D+2        0.27716   0.79922   0.48018   0.11992
 141       17D-2        0.00000   0.00000   0.00000   0.00000
 142       18F 0        0.00265  -0.02765   0.00954   0.00236
 143       18F+1        0.00000   0.00000   0.00000   0.00000
 144       18F-1        0.00004   0.01008   0.00395   0.00240
 145       18F+2        0.01828  -0.01466  -0.01424   0.00320
 146       18F-2        0.00000   0.00000   0.00000   0.00000
 147       18F+3        0.00000   0.00000   0.00000   0.00000
 148       18F-3       -0.02763  -0.02978  -0.00536   0.00456
 149       19F 0       -0.05367   0.12598  -0.00384  -0.02835
 150       19F+1        0.00000   0.00000   0.00000   0.00000
 151       19F-1       -0.00228  -0.05126  -0.02058  -0.00297
 152       19F+2       -0.05686   0.12363   0.06823  -0.04147
 153       19F-2        0.00000   0.00000   0.00000   0.00000
 154       19F+3        0.00000   0.00000   0.00000   0.00000
 155       19F-3        0.06677   0.12275   0.02650  -0.03327
 156 4   Br 1S          0.00024   0.00015  -0.00021   0.00024
 157        2S          0.00233  -0.00218   0.00044   0.00090
 158        3S          0.00964  -0.00210  -0.00298   0.00638
 159        4S          0.03117  -0.03697   0.00791   0.01080
 160        5S          0.00975  -0.11479   0.04149  -0.02909
 161        6S          0.25526   1.92068  -0.44392   0.05931
 162        7S         -4.82710  21.29816 -10.38076  -7.13125
 163        8PX         0.00000   0.00000   0.00000   0.00000
 164        8PY         0.00060  -0.00100   0.00003   0.00004
 165        8PZ         0.00001   0.00061  -0.00025  -0.00012
 166        9PX         0.00000   0.00000   0.00000   0.00000
 167        9PY        -0.01808   0.01739  -0.00511  -0.01719
 168        9PZ         0.01408  -0.00603   0.01203   0.01079
 169       10PX         0.00000   0.00000   0.00000   0.00000
 170       10PY        -0.18140   0.15349  -0.05883  -0.19874
 171       10PZ         0.16352  -0.04013   0.12800   0.12068
 172       11PX         0.00000   0.00000   0.00000   0.00000
 173       11PY         0.02986  -0.02801   0.00489   0.02445
 174       11PZ        -0.02102   0.01216  -0.01725  -0.01456
 175       12PX         0.00000   0.00000   0.00000   0.00000
 176       12PY         1.03901  -4.53069   1.71445   0.46376
 177       12PZ        -0.24343   2.69966  -1.57086  -0.60433
 178       13PX         0.00000   0.00000   0.00000   0.00000
 179       13PY         0.83316  -1.75543   2.96923   2.33663
 180       13PZ        -3.09202   3.44013   0.29117  -1.42373
 181       14D 0        0.00104  -0.00012  -0.00147  -0.00056
 182       14D+1        0.00000   0.00000   0.00000   0.00000
 183       14D-1       -0.00208   0.00080  -0.00090  -0.00157
 184       14D+2       -0.00019  -0.00098  -0.00069  -0.00069
 185       14D-2        0.00000   0.00000   0.00000   0.00000
 186       15D 0       -0.01288   0.00332   0.01518   0.00979
 187       15D+1        0.00000   0.00000   0.00000   0.00000
 188       15D-1        0.02801   0.00624   0.00831   0.02347
 189       15D+2       -0.00062   0.02107   0.00653   0.01254
 190       15D-2        0.00000   0.00000   0.00000   0.00000
 191       16D 0        0.06781  -0.01491  -0.05223  -0.06413
 192       16D+1        0.00000   0.00000   0.00000   0.00000
 193       16D-1       -0.17176  -0.14690  -0.02837  -0.19934
 194       16D+2       -0.00919  -0.16304  -0.01968  -0.12660
 195       16D-2        0.00000   0.00000   0.00000   0.00000
 196       17D 0       -0.20830  -0.15886   0.06015   0.04898
 197       17D+1        0.00000   0.00000   0.00000   0.00000
 198       17D-1        0.31851  -1.12686   0.73859   0.39546
 199       17D+2        0.29471  -0.78353   0.48021   0.11431
 200       17D-2        0.00000   0.00000   0.00000   0.00000
 201       18F 0        0.00229   0.02803   0.00928   0.00230
 202       18F+1        0.00000   0.00000   0.00000   0.00000
 203       18F-1        0.00011   0.01015  -0.00403  -0.00211
 204       18F+2        0.01819   0.01518  -0.01446   0.00370
 205       18F-2        0.00000   0.00000   0.00000   0.00000
 206       18F+3        0.00000   0.00000   0.00000   0.00000
 207       18F-3        0.02797  -0.02927   0.00552  -0.00503
 208       19F 0       -0.05029  -0.12597  -0.00249  -0.02822
 209       19F+1        0.00000   0.00000   0.00000   0.00000
 210       19F-1        0.00048  -0.05227   0.02176   0.00152
 211       19F+2       -0.05418  -0.12379   0.06958  -0.04302
 212       19F-2        0.00000   0.00000   0.00000   0.00000
 213       19F+3        0.00000   0.00000   0.00000   0.00000
 214       19F-3       -0.06948   0.12053  -0.02690   0.03437
          Condensed to atoms (all electrons):
              1          2          3          4
     1  C    6.369085  -0.033753  -0.089966  -0.087777
     2  S   -0.033753  16.449090  -0.187318  -0.185427
     3  Br  -0.089966  -0.187318  35.310433  -0.136426
     4  Br  -0.087777  -0.185427  -0.136426  35.312724
 Mulliken atomic charges:
              1
     1  C   -0.157589
     2  S   -0.042593
     3  Br   0.103276
     4  Br   0.096906
 Sum of Mulliken atomic charges =   0.00000
 Mulliken charges with hydrogens summed into heavy atoms:
              1
     1  C   -0.157589
     2  S   -0.042593
     3  Br   0.103276
     4  Br   0.096906
 Sum of Mulliken charges with hydrogens summed into heavy atoms =   0.00000
 Electronic spatial extent (au):  <R**2>=           1435.6147
 Charge=              0.0000 electrons
 Dipole moment (field-independent basis, Debye):
    X=              0.0000    Y=             -0.0163    Z=             -0.4574  Tot=              0.4577
 Quadrupole moment (field-independent basis, Debye-Ang):
   XX=            -54.9667   YY=            -53.8534   ZZ=            -53.7519
   XY=              0.0000   XZ=              0.0000   YZ=              0.0070
 Traceless Quadrupole moment (field-independent basis, Debye-Ang):
   XX=             -0.7760   YY=              0.3373   ZZ=              0.4388
   XY=              0.0000   XZ=              0.0000   YZ=              0.0070
 Octapole moment (field-independent basis, Debye-Ang**2):
  XXX=              0.0000  YYY=             -0.1225  ZZZ=            141.7939  XYY=              0.0000
  XXY=             -0.0240  XXZ=             47.9849  XZZ=              0.0000  YZZ=              0.0109
  YYZ=             35.5553  XYZ=              0.0000
 Hexadecapole moment (field-independent basis, Debye-Ang**3):
 XXXX=            -67.2774 YYYY=           -572.7585 ZZZZ=           -703.6260 XXXY=              0.0000
 XXXZ=              0.0000 YYYX=              0.0000 YYYZ=              0.9300 ZZZX=              0.0000
 ZZZY=              0.6768 XXYY=           -113.5736 XXZZ=           -131.0934 YYZZ=           -195.3407
 XXYZ=              0.3139 YYXZ=              0.0000 ZZXY=              0.0000
 N-N= 5.471289710297D+02 E-N=-1.443544987483D+04  KE= 5.579836904921D+03
 1\1\GINC-TRAPISTA\SP\RQCISD-FC\Aug-CC-pVTZ\C1Br2S1\BRUNS\29-Nov-2021\0
 \\# qcisd/aug-cc-pvtz nosymm density=current output=wfn\\br2cs-wavefun
 ction\\0,1\C,0,0.,0.,-0.519451\S,0,0.,0.,1.083692\Br,0,0.,-1.568516,-1
 .57857\Br,0,0.,1.568516,-1.58857\\Version=EM64L-G09RevB.01\HF=-5580.30
 86194\MP2=-5581.118764\MP3=-5581.1309225\MP4D=-5581.1549404\MP4DQ=-558
 1.1314447\MP4SDQ=-5581.1411439\QCISD=-5581.1375733\RMSD=3.199e-09\Dipo
 le=0.,-0.0063978,-0.1799484\Quadrupole=-0.5769701,0.2507507,0.3262194,
 0.,0.,0.0051829\PG=CS [SG(C1Br2S1)]\\@

 Writing a WFN file to GAUSSIAN.wfn.


 MEMORIES ARE LIKE AN ENGLISH GRAMMER LESSON -
 PRESENT TENSE, AND PAST PERFECT.
 Job cpu time:  0 days  5 hours 43 minutes 33.8 seconds.
 File lengths (MBytes):  RWF=  25271 Int=      0 D2E=      0 Chk=      4 Scr=      1
 Normal termination of Gaussian 09 at Mon Nov 29 19:50:06 2021.
