 br2cs-wavefunction
GAUSSIAN            214 MOL ORBITALS    620 PRIMITIVES        4 NUCLEI
  C    1    (CENTRE  1)   0.00000000  0.00000000 -0.98162013  CHARGE =  6.0
  S    2    (CENTRE  2)   0.00000000  0.00000000  2.04788109  CHARGE = 16.0
  Br   3    (CENTRE  3)  -0.01889726 -2.96406568 -2.98306498  CHARGE = 35.0
  Br   4    (CENTRE  4)   0.00000000  2.96406568 -2.98306498  CHARGE = 35.0
CENTRE ASSIGNMENTS    1  1  1  1  1  1  1  1  1  1  1  1  1  1  1  1  1  1  1  1
CENTRE ASSIGNMENTS    1  1  1  1  1  1  1  1  1  1  1  1  1  1  1  1  1  1  1  1
CENTRE ASSIGNMENTS    1  1  1  1  1  1  1  1  1  1  1  1  1  1  1  1  1  1  1  1
CENTRE ASSIGNMENTS    1  1  1  1  1  1  1  1  1  1  1  1  2  2  2  2  2  2  2  2
CENTRE ASSIGNMENTS    2  2  2  2  2  2  2  2  2  2  2  2  2  2  2  2  2  2  2  2
CENTRE ASSIGNMENTS    2  2  2  2  2  2  2  2  2  2  2  2  2  2  2  2  2  2  2  2
CENTRE ASSIGNMENTS    2  2  2  2  2  2  2  2  2  2  2  2  2  2  2  2  2  2  2  2
CENTRE ASSIGNMENTS    2  2  2  2  2  2  2  2  2  2  2  2  2  2  2  2  2  2  2  2
CENTRE ASSIGNMENTS    2  2  2  2  2  2  2  2  2  2  2  2  2  2  2  2  2  2  2  2
CENTRE ASSIGNMENTS    2  2  2  2  2  2  3  3  3  3  3  3  3  3  3  3  3  3  3  3
CENTRE ASSIGNMENTS    3  3  3  3  3  3  3  3  3  3  3  3  3  3  3  3  3  3  3  3
CENTRE ASSIGNMENTS    3  3  3  3  3  3  3  3  3  3  3  3  3  3  3  3  3  3  3  3
CENTRE ASSIGNMENTS    3  3  3  3  3  3  3  3  3  3  3  3  3  3  3  3  3  3  3  3
CENTRE ASSIGNMENTS    3  3  3  3  3  3  3  3  3  3  3  3  3  3  3  3  3  3  3  3
CENTRE ASSIGNMENTS    3  3  3  3  3  3  3  3  3  3  3  3  3  3  3  3  3  3  3  3
CENTRE ASSIGNMENTS    3  3  3  3  3  3  3  3  3  3  3  3  3  3  3  3  3  3  3  3
CENTRE ASSIGNMENTS    3  3  3  3  3  3  3  3  3  3  3  3  3  3  3  3  3  3  3  3
CENTRE ASSIGNMENTS    3  3  3  3  3  3  3  3  3  3  3  3  3  3  3  3  3  3  3  3
CENTRE ASSIGNMENTS    3  3  3  3  3  3  3  3  3  3  3  3  3  3  3  3  3  3  3  3
CENTRE ASSIGNMENTS    3  3  3  3  3  3  3  3  3  3  3  3  3  3  3  3  3  3  3  3
CENTRE ASSIGNMENTS    3  3  3  4  4  4  4  4  4  4  4  4  4  4  4  4  4  4  4  4
CENTRE ASSIGNMENTS    4  4  4  4  4  4  4  4  4  4  4  4  4  4  4  4  4  4  4  4
CENTRE ASSIGNMENTS    4  4  4  4  4  4  4  4  4  4  4  4  4  4  4  4  4  4  4  4
CENTRE ASSIGNMENTS    4  4  4  4  4  4  4  4  4  4  4  4  4  4  4  4  4  4  4  4
CENTRE ASSIGNMENTS    4  4  4  4  4  4  4  4  4  4  4  4  4  4  4  4  4  4  4  4
CENTRE ASSIGNMENTS    4  4  4  4  4  4  4  4  4  4  4  4  4  4  4  4  4  4  4  4
CENTRE ASSIGNMENTS    4  4  4  4  4  4  4  4  4  4  4  4  4  4  4  4  4  4  4  4
CENTRE ASSIGNMENTS    4  4  4  4  4  4  4  4  4  4  4  4  4  4  4  4  4  4  4  4
CENTRE ASSIGNMENTS    4  4  4  4  4  4  4  4  4  4  4  4  4  4  4  4  4  4  4  4
CENTRE ASSIGNMENTS    4  4  4  4  4  4  4  4  4  4  4  4  4  4  4  4  4  4  4  4
CENTRE ASSIGNMENTS    4  4  4  4  4  4  4  4  4  4  4  4  4  4  4  4  4  4  4  4
TYPE ASSIGNMENTS      1  1  1  1  1  1  1  1  1  1  1  1  1  1  1  1  2  2  2  3
TYPE ASSIGNMENTS      3  3  4  4  4  2  3  4  2  3  4  2  3  4  5  6  7  8  9 10
TYPE ASSIGNMENTS      5  6  7  8  9 10  5  6  7  8  9 10 11 12 13 17 14 15 18 19
TYPE ASSIGNMENTS     16 20 11 12 13 17 14 15 18 19 16 20  1  1  1  1  1  1  1  1
TYPE ASSIGNMENTS      1  1  1  1  1  1  1  1  1  1  1  1  1  1  1  1  1  1  1  1
TYPE ASSIGNMENTS      1  1  1  2  2  2  2  2  2  3  3  3  3  3  3  4  4  4  4  4
TYPE ASSIGNMENTS      4  2  2  2  2  2  2  3  3  3  3  3  3  4  4  4  4  4  4  2
TYPE ASSIGNMENTS      3  4  2  3  4  2  3  4  5  6  7  8  9 10  5  6  7  8  9 10
TYPE ASSIGNMENTS      5  6  7  8  9 10 11 12 13 17 14 15 18 19 16 20 11 12 13 17
TYPE ASSIGNMENTS     14 15 18 19 16 20  1  1  1  1  1  1  1  1  1  1  1  1  1  1
TYPE ASSIGNMENTS      1  1  1  1  1  1  1  1  1  1  1  1  1  1  1  1  1  1  1  1
TYPE ASSIGNMENTS      1  1  1  1  1  1  1  1  1  1  1  1  1  1  1  1  2  2  2  2
TYPE ASSIGNMENTS      2  2  2  2  2  3  3  3  3  3  3  3  3  3  4  4  4  4  4  4
TYPE ASSIGNMENTS      4  4  4  2  2  2  2  2  2  2  2  2  3  3  3  3  3  3  3  3
TYPE ASSIGNMENTS      3  4  4  4  4  4  4  4  4  4  2  2  2  2  2  2  2  2  3  3
TYPE ASSIGNMENTS      3  3  3  3  3  3  4  4  4  4  4  4  4  4  2  3  4  2  3  4
TYPE ASSIGNMENTS      2  3  4  5  5  5  5  5  5  5  6  6  6  6  6  6  6  7  7  7
TYPE ASSIGNMENTS      7  7  7  7  8  8  8  8  8  8  8  9  9  9  9  9  9  9 10 10
TYPE ASSIGNMENTS     10 10 10 10 10  5  6  7  8  9 10  5  6  7  8  9 10  5  6  7
TYPE ASSIGNMENTS      8  9 10 11 12 13 17 14 15 18 19 16 20 11 12 13 17 14 15 18
TYPE ASSIGNMENTS     19 16 20  1  1  1  1  1  1  1  1  1  1  1  1  1  1  1  1  1
TYPE ASSIGNMENTS      1  1  1  1  1  1  1  1  1  1  1  1  1  1  1  1  1  1  1  1
TYPE ASSIGNMENTS      1  1  1  1  1  1  1  1  1  1  1  1  1  2  2  2  2  2  2  2
TYPE ASSIGNMENTS      2  2  3  3  3  3  3  3  3  3  3  4  4  4  4  4  4  4  4  4
TYPE ASSIGNMENTS      2  2  2  2  2  2  2  2  2  3  3  3  3  3  3  3  3  3  4  4
TYPE ASSIGNMENTS      4  4  4  4  4  4  4  2  2  2  2  2  2  2  2  3  3  3  3  3
TYPE ASSIGNMENTS      3  3  3  4  4  4  4  4  4  4  4  2  3  4  2  3  4  2  3  4
TYPE ASSIGNMENTS      5  5  5  5  5  5  5  6  6  6  6  6  6  6  7  7  7  7  7  7
TYPE ASSIGNMENTS      7  8  8  8  8  8  8  8  9  9  9  9  9  9  9 10 10 10 10 10
TYPE ASSIGNMENTS     10 10  5  6  7  8  9 10  5  6  7  8  9 10  5  6  7  8  9 10
TYPE ASSIGNMENTS     11 12 13 17 14 15 18 19 16 20 11 12 13 17 14 15 18 19 16 20
EXPONENTS  0.8236000D+04 0.1235000D+04 0.2808000D+03 0.7927000D+02 0.2559000D+02
EXPONENTS  0.8997000D+01 0.3319000D+01 0.2808000D+03 0.7927000D+02 0.2559000D+02
EXPONENTS  0.8997000D+01 0.3319000D+01 0.3643000D+00 0.9059000D+00 0.1285000D+00
EXPONENTS  0.4402000D-01 0.1871000D+02 0.4133000D+01 0.1200000D+01 0.1871000D+02
EXPONENTS  0.4133000D+01 0.1200000D+01 0.1871000D+02 0.4133000D+01 0.1200000D+01
EXPONENTS  0.3827000D+00 0.3827000D+00 0.3827000D+00 0.1209000D+00 0.1209000D+00
EXPONENTS  0.1209000D+00 0.3569000D-01 0.3569000D-01 0.3569000D-01 0.1097000D+01
EXPONENTS  0.1097000D+01 0.1097000D+01 0.1097000D+01 0.1097000D+01 0.1097000D+01
EXPONENTS  0.3180000D+00 0.3180000D+00 0.3180000D+00 0.3180000D+00 0.3180000D+00
EXPONENTS  0.3180000D+00 0.1000000D+00 0.1000000D+00 0.1000000D+00 0.1000000D+00
EXPONENTS  0.1000000D+00 0.1000000D+00 0.7610000D+00 0.7610000D+00 0.7610000D+00
EXPONENTS  0.7610000D+00 0.7610000D+00 0.7610000D+00 0.7610000D+00 0.7610000D+00
EXPONENTS  0.7610000D+00 0.7610000D+00 0.2680000D+00 0.2680000D+00 0.2680000D+00
EXPONENTS  0.2680000D+00 0.2680000D+00 0.2680000D+00 0.2680000D+00 0.2680000D+00
EXPONENTS  0.2680000D+00 0.2680000D+00 0.3741000D+06 0.5605000D+05 0.1276000D+05
EXPONENTS  0.3615000D+04 0.1183000D+04 0.4288000D+03 0.1678000D+03 0.6947000D+02
EXPONENTS  0.2984000D+02 0.1272000D+02 0.5244000D+01 0.3615000D+04 0.1183000D+04
EXPONENTS  0.4288000D+03 0.1678000D+03 0.6947000D+02 0.2984000D+02 0.1272000D+02
EXPONENTS  0.5244000D+01 0.2219000D+01 0.1183000D+04 0.1678000D+03 0.6947000D+02
EXPONENTS  0.2984000D+02 0.1272000D+02 0.5244000D+01 0.2219000D+01 0.3490000D+00
EXPONENTS  0.7767000D+00 0.1322000D+00 0.4970000D-01 0.5744000D+03 0.1358000D+03
EXPONENTS  0.4319000D+02 0.1587000D+02 0.6208000D+01 0.2483000D+01 0.5744000D+03
EXPONENTS  0.1358000D+03 0.4319000D+02 0.1587000D+02 0.6208000D+01 0.2483000D+01
EXPONENTS  0.5744000D+03 0.1358000D+03 0.4319000D+02 0.1587000D+02 0.6208000D+01
EXPONENTS  0.2483000D+01 0.1358000D+03 0.4319000D+02 0.1587000D+02 0.6208000D+01
EXPONENTS  0.2483000D+01 0.3229000D+00 0.1358000D+03 0.4319000D+02 0.1587000D+02
EXPONENTS  0.6208000D+01 0.2483000D+01 0.3229000D+00 0.1358000D+03 0.4319000D+02
EXPONENTS  0.1587000D+02 0.6208000D+01 0.2483000D+01 0.3229000D+00 0.8688000D+00
EXPONENTS  0.8688000D+00 0.8688000D+00 0.1098000D+00 0.1098000D+00 0.1098000D+00
EXPONENTS  0.3510000D-01 0.3510000D-01 0.3510000D-01 0.2690000D+00 0.2690000D+00
EXPONENTS  0.2690000D+00 0.2690000D+00 0.2690000D+00 0.2690000D+00 0.8190000D+00
EXPONENTS  0.8190000D+00 0.8190000D+00 0.8190000D+00 0.8190000D+00 0.8190000D+00
EXPONENTS  0.1010000D+00 0.1010000D+00 0.1010000D+00 0.1010000D+00 0.1010000D+00
EXPONENTS  0.1010000D+00 0.5570000D+00 0.5570000D+00 0.5570000D+00 0.5570000D+00
EXPONENTS  0.5570000D+00 0.5570000D+00 0.5570000D+00 0.5570000D+00 0.5570000D+00
EXPONENTS  0.5570000D+00 0.2180000D+00 0.2180000D+00 0.2180000D+00 0.2180000D+00
EXPONENTS  0.2180000D+00 0.2180000D+00 0.2180000D+00 0.2180000D+00 0.2180000D+00
EXPONENTS  0.2180000D+00 0.1063900D+08 0.1593400D+07 0.3626100D+06 0.1027000D+06
EXPONENTS  0.3350100D+05 0.1209300D+05 0.4715900D+04 0.1955600D+04 0.8526100D+03
EXPONENTS  0.3876700D+03 0.1826800D+03 0.8824500D+02 0.3926300D+02 0.9405700D+01
EXPONENTS  0.1899500D+01 0.3350100D+05 0.1209300D+05 0.4715900D+04 0.1955600D+04
EXPONENTS  0.8526100D+03 0.3876700D+03 0.1826800D+03 0.8824500D+02 0.3926300D+02
EXPONENTS  0.1923400D+02 0.9405700D+01 0.1899500D+01 0.4715900D+04 0.8526100D+03
EXPONENTS  0.3876700D+03 0.1826800D+03 0.8824500D+02 0.3926300D+02 0.1923400D+02
EXPONENTS  0.9405700D+01 0.4160100D+01 0.1899500D+01 0.4715900D+04 0.8526100D+03
EXPONENTS  0.3876700D+03 0.8824500D+02 0.3926300D+02 0.1923400D+02 0.9405700D+01
EXPONENTS  0.4160100D+01 0.1899500D+01 0.3011400D+00 0.6047200D+00 0.1251500D+00
EXPONENTS  0.4559300D-01 0.8676500D+04 0.2055900D+04 0.6662300D+03 0.2531000D+03
EXPONENTS  0.1061200D+03 0.4724200D+02 0.2182500D+02 0.9968400D+01 0.1998200D+01
EXPONENTS  0.8676500D+04 0.2055900D+04 0.6662300D+03 0.2531000D+03 0.1061200D+03
EXPONENTS  0.4724200D+02 0.2182500D+02 0.9968400D+01 0.1998200D+01 0.8676500D+04
EXPONENTS  0.2055900D+04 0.6662300D+03 0.2531000D+03 0.1061200D+03 0.4724200D+02
EXPONENTS  0.2182500D+02 0.9968400D+01 0.1998200D+01 0.8676500D+04 0.6662300D+03
EXPONENTS  0.2531000D+03 0.1061200D+03 0.4724200D+02 0.2182500D+02 0.9968400D+01
EXPONENTS  0.4517100D+01 0.1998200D+01 0.8676500D+04 0.6662300D+03 0.2531000D+03
EXPONENTS  0.1061200D+03 0.4724200D+02 0.2182500D+02 0.9968400D+01 0.4517100D+01
EXPONENTS  0.1998200D+01 0.8676500D+04 0.6662300D+03 0.2531000D+03 0.1061200D+03
EXPONENTS  0.4724200D+02 0.2182500D+02 0.9968400D+01 0.4517100D+01 0.1998200D+01
EXPONENTS  0.6662300D+03 0.1061200D+03 0.4724200D+02 0.2182500D+02 0.9968400D+01
EXPONENTS  0.4517100D+01 0.1998200D+01 0.2814500D+00 0.6662300D+03 0.1061200D+03
EXPONENTS  0.4724200D+02 0.2182500D+02 0.9968400D+01 0.4517100D+01 0.1998200D+01
EXPONENTS  0.2814500D+00 0.6662300D+03 0.1061200D+03 0.4724200D+02 0.2182500D+02
EXPONENTS  0.9968400D+01 0.4517100D+01 0.1998200D+01 0.2814500D+00 0.7098800D+00
EXPONENTS  0.7098800D+00 0.7098800D+00 0.1020400D+00 0.1020400D+00 0.1020400D+00
EXPONENTS  0.3514200D-01 0.3514200D-01 0.3514200D-01 0.4038300D+03 0.1211700D+03
EXPONENTS  0.4634500D+02 0.1972100D+02 0.8862400D+01 0.3996200D+01 0.1763600D+01
EXPONENTS  0.4038300D+03 0.1211700D+03 0.4634500D+02 0.1972100D+02 0.8862400D+01
EXPONENTS  0.3996200D+01 0.1763600D+01 0.4038300D+03 0.1211700D+03 0.4634500D+02
EXPONENTS  0.1972100D+02 0.8862400D+01 0.3996200D+01 0.1763600D+01 0.4038300D+03
EXPONENTS  0.1211700D+03 0.4634500D+02 0.1972100D+02 0.8862400D+01 0.3996200D+01
EXPONENTS  0.1763600D+01 0.4038300D+03 0.1211700D+03 0.4634500D+02 0.1972100D+02
EXPONENTS  0.8862400D+01 0.3996200D+01 0.1763600D+01 0.4038300D+03 0.1211700D+03
EXPONENTS  0.4634500D+02 0.1972100D+02 0.8862400D+01 0.3996200D+01 0.1763600D+01
EXPONENTS  0.7061900D+00 0.7061900D+00 0.7061900D+00 0.7061900D+00 0.7061900D+00
EXPONENTS  0.7061900D+00 0.2639000D+00 0.2639000D+00 0.2639000D+00 0.2639000D+00
EXPONENTS  0.2639000D+00 0.2639000D+00 0.1047000D+00 0.1047000D+00 0.1047000D+00
EXPONENTS  0.1047000D+00 0.1047000D+00 0.1047000D+00 0.5515000D+00 0.5515000D+00
EXPONENTS  0.5515000D+00 0.5515000D+00 0.5515000D+00 0.5515000D+00 0.5515000D+00
EXPONENTS  0.5515000D+00 0.5515000D+00 0.5515000D+00 0.2580000D+00 0.2580000D+00
EXPONENTS  0.2580000D+00 0.2580000D+00 0.2580000D+00 0.2580000D+00 0.2580000D+00
EXPONENTS  0.2580000D+00 0.2580000D+00 0.2580000D+00 0.1063900D+08 0.1593400D+07
EXPONENTS  0.3626100D+06 0.1027000D+06 0.3350100D+05 0.1209300D+05 0.4715900D+04
EXPONENTS  0.1955600D+04 0.8526100D+03 0.3876700D+03 0.1826800D+03 0.8824500D+02
EXPONENTS  0.3926300D+02 0.9405700D+01 0.1899500D+01 0.3350100D+05 0.1209300D+05
EXPONENTS  0.4715900D+04 0.1955600D+04 0.8526100D+03 0.3876700D+03 0.1826800D+03
EXPONENTS  0.8824500D+02 0.3926300D+02 0.1923400D+02 0.9405700D+01 0.1899500D+01
EXPONENTS  0.4715900D+04 0.8526100D+03 0.3876700D+03 0.1826800D+03 0.8824500D+02
EXPONENTS  0.3926300D+02 0.1923400D+02 0.9405700D+01 0.4160100D+01 0.1899500D+01
EXPONENTS  0.4715900D+04 0.8526100D+03 0.3876700D+03 0.8824500D+02 0.3926300D+02
EXPONENTS  0.1923400D+02 0.9405700D+01 0.4160100D+01 0.1899500D+01 0.3011400D+00
EXPONENTS  0.6047200D+00 0.1251500D+00 0.4559300D-01 0.8676500D+04 0.2055900D+04
EXPONENTS  0.6662300D+03 0.2531000D+03 0.1061200D+03 0.4724200D+02 0.2182500D+02
EXPONENTS  0.9968400D+01 0.1998200D+01 0.8676500D+04 0.2055900D+04 0.6662300D+03
EXPONENTS  0.2531000D+03 0.1061200D+03 0.4724200D+02 0.2182500D+02 0.9968400D+01
EXPONENTS  0.1998200D+01 0.8676500D+04 0.2055900D+04 0.6662300D+03 0.2531000D+03
EXPONENTS  0.1061200D+03 0.4724200D+02 0.2182500D+02 0.9968400D+01 0.1998200D+01
EXPONENTS  0.8676500D+04 0.6662300D+03 0.2531000D+03 0.1061200D+03 0.4724200D+02
EXPONENTS  0.2182500D+02 0.9968400D+01 0.4517100D+01 0.1998200D+01 0.8676500D+04
EXPONENTS  0.6662300D+03 0.2531000D+03 0.1061200D+03 0.4724200D+02 0.2182500D+02
EXPONENTS  0.9968400D+01 0.4517100D+01 0.1998200D+01 0.8676500D+04 0.6662300D+03
EXPONENTS  0.2531000D+03 0.1061200D+03 0.4724200D+02 0.2182500D+02 0.9968400D+01
EXPONENTS  0.4517100D+01 0.1998200D+01 0.6662300D+03 0.1061200D+03 0.4724200D+02
EXPONENTS  0.2182500D+02 0.9968400D+01 0.4517100D+01 0.1998200D+01 0.2814500D+00
EXPONENTS  0.6662300D+03 0.1061200D+03 0.4724200D+02 0.2182500D+02 0.9968400D+01
EXPONENTS  0.4517100D+01 0.1998200D+01 0.2814500D+00 0.6662300D+03 0.1061200D+03
EXPONENTS  0.4724200D+02 0.2182500D+02 0.9968400D+01 0.4517100D+01 0.1998200D+01
EXPONENTS  0.2814500D+00 0.7098800D+00 0.7098800D+00 0.7098800D+00 0.1020400D+00
EXPONENTS  0.1020400D+00 0.1020400D+00 0.3514200D-01 0.3514200D-01 0.3514200D-01
EXPONENTS  0.4038300D+03 0.1211700D+03 0.4634500D+02 0.1972100D+02 0.8862400D+01
EXPONENTS  0.3996200D+01 0.1763600D+01 0.4038300D+03 0.1211700D+03 0.4634500D+02
EXPONENTS  0.1972100D+02 0.8862400D+01 0.3996200D+01 0.1763600D+01 0.4038300D+03
EXPONENTS  0.1211700D+03 0.4634500D+02 0.1972100D+02 0.8862400D+01 0.3996200D+01
EXPONENTS  0.1763600D+01 0.4038300D+03 0.1211700D+03 0.4634500D+02 0.1972100D+02
EXPONENTS  0.8862400D+01 0.3996200D+01 0.1763600D+01 0.4038300D+03 0.1211700D+03
EXPONENTS  0.4634500D+02 0.1972100D+02 0.8862400D+01 0.3996200D+01 0.1763600D+01
EXPONENTS  0.4038300D+03 0.1211700D+03 0.4634500D+02 0.1972100D+02 0.8862400D+01
EXPONENTS  0.3996200D+01 0.1763600D+01 0.7061900D+00 0.7061900D+00 0.7061900D+00
EXPONENTS  0.7061900D+00 0.7061900D+00 0.7061900D+00 0.2639000D+00 0.2639000D+00
EXPONENTS  0.2639000D+00 0.2639000D+00 0.2639000D+00 0.2639000D+00 0.1047000D+00
EXPONENTS  0.1047000D+00 0.1047000D+00 0.1047000D+00 0.1047000D+00 0.1047000D+00
EXPONENTS  0.5515000D+00 0.5515000D+00 0.5515000D+00 0.5515000D+00 0.5515000D+00
EXPONENTS  0.5515000D+00 0.5515000D+00 0.5515000D+00 0.5515000D+00 0.5515000D+00
EXPONENTS  0.2580000D+00 0.2580000D+00 0.2580000D+00 0.2580000D+00 0.2580000D+00
EXPONENTS  0.2580000D+00 0.2580000D+00 0.2580000D+00 0.2580000D+00 0.2580000D+00
MO    1     MO 0.0        OCC NO =    2.0000283  ORB. ENERGY =    0.000000
  0.73652508D-06  0.13730311D-05  0.23206097D-05  0.34883092D-05  0.42847630D-05
  0.36161888D-05  0.13597814D-05  0.11753154D-09  0.87847544D-09  0.32830633D-08
  0.91592354D-08  0.12270850D-07 -0.14489586D-07  0.59766608D-07  0.65439190D-07
  0.15734101D-07 -0.83443784D-05 -0.78233852D-05 -0.55707163D-05 -0.26176046D-02
 -0.24541707D-02 -0.17475158D-02 -0.11758903D-06 -0.11024719D-06 -0.78502567D-07
 -0.17571786D-05 -0.55122270D-03 -0.92404094D-08  0.41037525D-05  0.12873903D-02
 -0.17844767D-07  0.25666832D-06  0.80520685D-04 -0.16733613D-08  0.23882287D-09
  0.25640383D-08 -0.28028612D-08  0.21468299D-07 -0.37880079D-05 -0.11883254D-02
 -0.50985221D-08 -0.17052877D-08  0.68038098D-08 -0.12328881D-05  0.50183247D-08
  0.15823874D-05 -0.46592309D-08  0.30662165D-08  0.15930144D-08 -0.13829093D-05
 -0.10243901D-05 -0.32135526D-03  0.87704820D-06  0.11230941D-03  0.36588452D-09
 -0.68006133D-06  0.27513101D-03 -0.25705306D-08 -0.19510833D-05 -0.61205925D-03
  0.14728770D-08 -0.10998743D-05 -0.43986841D-06 -0.68582242D-04 -0.18696868D-08
  0.22388824D-06 -0.13798705D-03  0.33671234D-08  0.10957170D-05  0.34373378D-03
  0.22419369D-08  0.62524192D-06  0.20681489D-05  0.38666127D-05  0.66826560D-05
  0.10808921D-04  0.16337322D-04  0.22499875D-04  0.26299614D-04  0.22729904D-04
  0.10608165D-04  0.14371736D-05 -0.10511694D-07  0.25724413D-07  0.33068474D-06
  0.12062904D-05  0.40699939D-05  0.89395329D-05  0.11547438D-04 -0.18557716D-05
 -0.15567718D-04 -0.85433627D-05  0.22926009D-09  0.26114150D-08  0.54222389D-08
  0.14909780D-07 -0.19332242D-08 -0.67415235D-07 -0.16814430D-06  0.13918742D-06
 -0.46842089D-06 -0.22182331D-08  0.37520115D-08  0.30935125D-01  0.40585124D-01
  0.44513098D-01  0.36624036D-01  0.19306109D-01  0.50230865D-02  0.97045013D+01
  0.12731754D+02  0.13963979D+02  0.11489141D+02  0.60564218D+01  0.15757670D+01
 -0.14547773D-03 -0.19085851D-03 -0.20933048D-03 -0.17223081D-03 -0.90790292D-04
 -0.23621926D-04  0.28227427D-06  0.10132413D-04  0.16075327D-04  0.19088958D-04
  0.28886625D-05 -0.21023145D-04  0.88550863D-04  0.31785891D-02  0.50429113D-02
  0.59883025D-02  0.90618800D-03 -0.65950665D-02 -0.12999880D-08 -0.46663891D-07
 -0.74033433D-07 -0.87912430D-07 -0.13303468D-07  0.96820146D-07  0.21451978D-03
  0.67295909D-01 -0.10481288D-05 -0.10229159D-05 -0.32090221D-03  0.84596348D-08
 -0.89360411D-07 -0.28033780D-04  0.14986054D-09  0.58790989D-08  0.29840423D-08
 -0.88631412D-08  0.89699325D-07  0.24483387D-05  0.76806221D-03 -0.36492230D-08
  0.58348662D-08 -0.21856431D-08 -0.24694147D-06 -0.23223171D-05 -0.72853983D-03
  0.90349724D-09 -0.52316683D-09 -0.38033042D-09  0.24089291D-06 -0.13190645D-06
 -0.41377333D-04  0.44147843D-06  0.35476800D-05  0.12689514D-08 -0.84904098D-06
  0.13849097D-03 -0.77749509D-09 -0.47539431D-06 -0.14913401D-03 -0.30293591D-08
  0.81688249D-06  0.90551375D-08  0.32000552D-04  0.76350499D-09  0.28791285D-06
  0.28417177D-05 -0.20293747D-08 -0.31507826D-06 -0.98843374D-04 -0.26114023D-09
 -0.29916470D-06  0.36952321D-03  0.69512881D-03  0.12033035D-02  0.19724454D-02
  0.30898659D-02  0.46443198D-02  0.66378248D-02  0.88116980D-02  0.10261859D-01
  0.94243302D-02  0.55091398D-02  0.14455662D-02  0.82188466D-04  0.14341003D-05
  0.14435851D-06  0.18594912D-04  0.53716416D-04  0.24619495D-03  0.72879068D-03
  0.21135142D-02  0.43931344D-02  0.62844310D-02  0.18019471D-02 -0.72008219D-02
 -0.69624981D-02 -0.15196716D-02  0.21996787D-04  0.12204057D-04  0.56934450D-04
  0.11554424D-03  0.45283798D-03  0.31776713D-03 -0.20694198D-02 -0.64124216D-02
 -0.78438277D-03  0.56054297D-02  0.26306279D-02 -0.96433233D-06 -0.13220231D-05
  0.25346381D-05  0.53869393D-05 -0.20364138D-04 -0.65852449D-04 -0.22902480D-04
  0.22401120D-03  0.49966110D-03 -0.33155990D-03 -0.56610871D-04  0.15391061D-02
  0.47885025D-03  0.85593189D-02  0.12281345D-01  0.16261636D-01  0.18779359D-01
  0.17412007D-01  0.11275782D-01  0.39787635D-02  0.45844849D-03 -0.74896399D-06
  0.11929349D+01  0.17116836D+01  0.22664272D+01  0.26173290D+01  0.24267576D+01
  0.15715356D+01  0.55453081D+00  0.63895180D-01 -0.10438509D-03  0.10397506D+01
  0.14918870D+01  0.19753962D+01  0.22812388D+01  0.21151386D+01  0.13697354D+01
  0.48332373D+00  0.55690425D-01 -0.90981046D-04 -0.52048618D-04  0.14839988D-03
  0.72435892D-03  0.15010094D-02  0.18836187D-02  0.29870804D-03 -0.24179407D-02
 -0.21087948D-02 -0.54209709D-03 -0.72372149D-02  0.20634589D-01  0.10072008D+00
  0.20871116D+00  0.26191191D+00  0.41534518D-01 -0.33620789D+00 -0.29322203D+00
 -0.75377086D-01 -0.64248671D-02  0.18318441D-01  0.89414664D-01  0.18528419D+00
  0.23251337D+00  0.36872438D-01 -0.29846993D+00 -0.26030905D+00 -0.66916315D-01
 -0.55399163D-06 -0.78264552D-06  0.36416087D-06 -0.72978182D-06 -0.80113710D-06
 -0.21625201D-05 -0.68146723D-06  0.14631246D-05 -0.73460928D-04 -0.10378111D-03
  0.48288808D-04 -0.96771227D-04 -0.10623315D-03 -0.28675656D-03 -0.90364569D-04
  0.19401465D-03  0.57996061D-04  0.81933290D-04 -0.38123132D-04  0.76399116D-04
  0.83869129D-04  0.22638907D-03  0.71341176D-04 -0.15317102D-03 -0.23286763D-04
 -0.31192623D-02 -0.28954323D-02  0.22155675D-05  0.38455971D-03  0.16655099D-03
  0.12564327D-06  0.14775805D-04  0.12340552D-04  0.14803029D+00  0.15489775D+00
  0.13198117D+00  0.86919580D-01  0.40058647D-01  0.11995627D-01  0.20409542D-02
 -0.14931710D+00 -0.15624426D+00 -0.13312847D+00 -0.87675163D-01 -0.40406872D-01
 -0.12099903D-01 -0.20586960D-02  0.12868115D-02  0.13465095D-02  0.11472982D-02
  0.75558260D-03  0.34822553D-03  0.10427670D-03  0.17741796D-04 -0.40413085D-02
 -0.42287939D-02 -0.36031588D-02 -0.23729524D-02 -0.10936231D-02 -0.32748722D-03
 -0.55719173D-04 -0.29724799D-02 -0.31103800D-02 -0.26502102D-02 -0.17453638D-02
 -0.80438621D-03 -0.24087475D-03 -0.40982797D-04 -0.47828960D+00 -0.50047854D+00
 -0.42643450D+00 -0.28083936D+00 -0.12943050D+00 -0.38758172D-01 -0.65943744D-02
  0.65167650D-04 -0.11684511D-03  0.51677459D-04 -0.32704825D-05 -0.18258494D-05
 -0.35254138D-03 -0.54732147D-04  0.57004292D-04 -0.22721446D-05  0.20449404D-05
  0.73857453D-06  0.93786090D-04 -0.15692475D-04  0.18610498D-04 -0.29180237D-05
  0.54652855D-06  0.26781419D-06  0.63876210D-04 -0.29977840D-06  0.27894104D-04
  0.31889079D-04  0.44037329D-06 -0.51889202D-04 -0.39846899D-04  0.45896190D-06
 -0.31793108D-04 -0.55820338D-04 -0.28176551D-06  0.23292773D-07 -0.17069528D-05
 -0.13805593D-05  0.24727711D-06  0.12493846D-04  0.22884906D-05 -0.31715543D-06
 -0.73729880D-05  0.18531872D-05  0.28246006D-07 -0.36939355D-03 -0.69488490D-03
 -0.12028813D-02 -0.19717533D-02 -0.30887817D-02 -0.46426902D-02 -0.66354957D-02
 -0.88086062D-02 -0.10258258D-01 -0.94210234D-02 -0.55072068D-02 -0.14450589D-02
 -0.82159627D-04 -0.14335971D-05 -0.14430786D-06 -0.18588710D-04 -0.53698499D-04
 -0.24611284D-03 -0.72854760D-03 -0.21128093D-02 -0.43916691D-02 -0.62823349D-02
 -0.18013461D-02  0.71984201D-02  0.69601758D-02  0.15191648D-02 -0.21989450D-04
 -0.12200310D-04 -0.56916970D-04 -0.11550877D-03 -0.45269895D-03 -0.31766957D-03
  0.20687845D-02  0.64104529D-02  0.78414195D-03 -0.56037087D-02 -0.26298203D-02
  0.96432326D-06  0.13220107D-05 -0.25346142D-05 -0.53868886D-05  0.20363946D-04
  0.65851829D-04  0.22902265D-04 -0.22400909D-03 -0.49965640D-03  0.33155678D-03
  0.56645494D-04 -0.15391528D-02 -0.47886806D-03 -0.95383123D-03 -0.13686054D-02
 -0.18121601D-02 -0.20927295D-02 -0.19403549D-02 -0.12565478D-02 -0.44338445D-03
 -0.51088467D-04  0.83462860D-07  0.11929277D+01  0.17116733D+01  0.22664136D+01
  0.26173132D+01  0.24267429D+01  0.15715261D+01  0.55452746D+00  0.63894794D-01
 -0.10438446D-03 -0.10397625D+01 -0.14919040D+01 -0.19754187D+01 -0.22812648D+01
 -0.21151627D+01 -0.13697510D+01 -0.48332924D+00 -0.55691060D-01  0.90982082D-04
  0.59082125D-05 -0.16845366D-04 -0.82224399D-04 -0.17038459D-03 -0.21381584D-03
 -0.33907347D-04  0.27446852D-03  0.23937634D-03  0.61535251D-04 -0.72371492D-02
  0.20634402D-01  0.10071917D+00  0.20870927D+00  0.26190953D+00  0.41534141D-01
 -0.33620484D+00 -0.29321936D+00 -0.75376401D-01  0.64249415D-02 -0.18318653D-01
 -0.89415700D-01 -0.18528633D+00 -0.23251606D+00 -0.36872865D-01  0.29847338D+00
  0.26031207D+00  0.66917090D-01  0.85635516D-07  0.12098062D-06 -0.56291652D-07
  0.11280900D-06  0.12383903D-06  0.33428037D-06  0.10534058D-06 -0.22616846D-06
 -0.73473085D-04 -0.10379828D-03  0.48296799D-04 -0.96787242D-04 -0.10625073D-03
 -0.28680402D-03 -0.90379523D-04  0.19404676D-03 -0.57997206D-04 -0.81934907D-04
  0.38123884D-04 -0.76400624D-04 -0.83870785D-04 -0.22639354D-03 -0.71342585D-04
  0.15317405D-03  0.34001441D-05 -0.31192206D-02  0.28954682D-02  0.23617348D-06
  0.38457549D-03 -0.16655651D-03 -0.31438564D-07  0.14776795D-04 -0.12340814D-04
 -0.14805934D+00 -0.15492814D+00 -0.13200707D+00 -0.86936635D-01 -0.40066507D-01
 -0.11997980D-01 -0.20413546D-02  0.14934259D+00  0.15627093D+00  0.13315120D+00
  0.87690131D-01  0.40413771D-01  0.12101969D-01  0.20590474D-02 -0.12832588D-02
 -0.13427921D-02 -0.11441307D-02 -0.75349657D-03 -0.34726414D-03 -0.10398881D-03
 -0.17692814D-04 -0.24965072D-03 -0.26123258D-03 -0.22258414D-03 -0.14658848D-03
 -0.67558267D-04 -0.20230432D-04 -0.34420366D-05 -0.76818465D-04 -0.80382246D-04
 -0.68489976D-04 -0.45105827D-04 -0.20787933D-04 -0.62249801D-05 -0.10591276D-05
 -0.47833947D+00 -0.50053072D+00 -0.42647896D+00 -0.28086864D+00 -0.12944399D+00
 -0.38762213D-01 -0.65950620D-02 -0.65192683D-04  0.11687115D-03 -0.51678469D-04
 -0.94947444D-06 -0.42176414D-06 -0.35258404D-03  0.54739639D-04 -0.57010340D-04
  0.22707012D-05  0.62010683D-06 -0.14065216D-06  0.93783616D-04  0.15694216D-04
 -0.18611832D-04  0.29176159D-05  0.10911628D-06  0.13942819D-06  0.63876743D-04
 -0.31041061D-07  0.27891728D-04 -0.31892092D-04  0.75478856D-06 -0.51887443D-04
  0.39848958D-04 -0.66166537D-06 -0.31787740D-04  0.55827318D-04 -0.78102515D-07
  0.56346675D-07 -0.17045096D-05  0.13804169D-05 -0.43918950D-06  0.12489814D-04
 -0.22892857D-05  0.27014947D-06 -0.73762852D-05 -0.18519651D-05  0.33801611D-07
MO    2     MO 0.0        OCC NO =    2.0000240  ORB. ENERGY =    0.000000
 -0.58964136D-01 -0.10992103D+00 -0.18578151D+00 -0.27926427D+00 -0.34302613D+00
 -0.28950195D+00 -0.10886030D+00 -0.10359421D-04 -0.77430253D-04 -0.28937453D-03
 -0.80730989D-03 -0.10815727D-02  0.12771357D-02 -0.44808798D-02 -0.17442253D-02
 -0.31722825D-03 -0.16992073D-05 -0.15931148D-05 -0.11343927D-05 -0.50476681D-07
 -0.47325097D-07 -0.33698288D-07  0.22937101D-02  0.21504991D-02  0.15312834D-02
 -0.28233466D-06 -0.12126557D-07 -0.21677354D-03 -0.52638803D-06  0.30759900D-07
 -0.96652040D-03  0.62743914D-07  0.15772109D-08  0.10759461D-05  0.12463661D-03
  0.11493687D-04 -0.13613030D-03 -0.72131841D-06 -0.12069211D-05 -0.66609908D-08
  0.11848371D-03  0.12835116D-03 -0.24683486D-03  0.62894828D-07 -0.11830887D-06
 -0.18878941D-08  0.23564058D-04  0.10023354D-03 -0.12379760D-03  0.48878010D-06
 -0.14658027D-06 -0.90349361D-08  0.10090175D-06  0.38087370D-08 -0.97814738D-05
 -0.39374890D-06  0.15074982D-08 -0.90597441D-04  0.91043657D-07 -0.12933709D-07
  0.11994186D-03  0.13422551D-05 -0.14069913D-07 -0.20768218D-08  0.13250549D-04
  0.21691051D-06 -0.11386913D-08  0.44744939D-04 -0.17470078D-06  0.73691567D-08
 -0.84496585D-04 -0.82396183D-06 -0.12703234D+00 -0.23749975D+00 -0.41047016D+00
 -0.66391857D+00 -0.10034907D+01 -0.13820145D+01 -0.16154066D+01 -0.13961436D+01
 -0.65158750D+00 -0.88275809D-01  0.64566198D-03 -0.15829227D-02 -0.20348312D-01
 -0.74227716D-01 -0.25044247D+00 -0.55008405D+00 -0.71055855D+00  0.11419280D+00
  0.95794190D+00  0.52570616D+00 -0.12725632D-04 -0.14495286D-03 -0.30097439D-03
 -0.82760314D-03  0.10730825D-03  0.37420445D-02  0.93332532D-02 -0.77259319D-02
  0.29339453D-01  0.18108329D-02  0.12896380D-03  0.62076964D-02  0.81441447D-02
  0.89323641D-02  0.73492801D-02  0.38741226D-02  0.10079738D-02  0.16424806D-03
  0.21548412D-03  0.23633944D-03  0.19445298D-03  0.10250455D-03  0.26669756D-04
  0.62312660D+01  0.81750666D+01  0.89662788D+01  0.73771841D+01  0.38888320D+01
  0.10118009D+01  0.45170003D-07  0.16214058D-05  0.25724009D-05  0.30546471D-05
  0.46224862D-06 -0.33641589D-05  0.14480483D-08  0.51978607D-07  0.82465363D-07
  0.97925089D-07  0.14818647D-07 -0.10784734D-06  0.57977845D-04  0.20811514D-02
  0.33017988D-02  0.39207848D-02  0.59331808D-03 -0.43180578D-02  0.42789569D-04
  0.11615494D-05  0.45895499D-01  0.89045838D-07 -0.64113245D-09 -0.77424347D-03
 -0.33561373D-07 -0.39775640D-09 -0.50007971D-05 -0.24706493D-03 -0.13341002D-03
  0.38047495D-03  0.72460582D-06  0.62900315D-07  0.12906331D-07  0.21031280D-03
 -0.39860367D-03  0.18829087D-03 -0.38821446D-05 -0.78177315D-06 -0.61424207D-08
 -0.54234713D-05 -0.30839551D-04  0.36263023D-04 -0.16203511D-06 -0.82856597D-07
 -0.13307566D-08  0.94249333D-07 -0.28278134D-09 -0.74221179D-04  0.93000724D-08
  0.15939306D-08  0.20819941D-03 -0.29204807D-06 -0.74558658D-09  0.14464131D-04
 -0.12351386D-05 -0.19398581D-07  0.62668923D-09 -0.20807176D-04 -0.18262164D-07
  0.10848455D-09  0.19386093D-04  0.76457906D-07 -0.19885522D-08  0.43035434D-04
  0.15077052D-06  0.58125979D-03  0.10934372D-02  0.18927957D-02  0.31026555D-02
  0.48603572D-02  0.73055123D-02  0.10441295D-01  0.13860796D-01  0.16141898D-01
  0.14824466D-01  0.86658737D-02  0.22738747D-02  0.12928241D-03  0.22558390D-05
  0.22707586D-06  0.27636664D-04  0.79835954D-04  0.36590693D-03  0.10831642D-02
  0.31412078D-02  0.65292904D-02  0.93402275D-02  0.26781415D-02 -0.10702212D-01
 -0.10348004D-01 -0.22586100D-02  0.32692697D-04  0.17526153D-04  0.81763128D-04
  0.16593220D-03  0.65031715D-03  0.45634294D-03 -0.29718780D-02 -0.92088296D-02
 -0.11264461D-02  0.80499146D-02  0.37778247D-02 -0.20727233D-06 -0.28415391D-06
  0.54479178D-06  0.11578617D-05 -0.43770411D-05 -0.14154239D-04 -0.49226290D-05
  0.48148673D-04  0.10739650D-03 -0.71265050D-04  0.82837526D-04 -0.29138273D-03
  0.76397480D-04  0.10783158D-02  0.15472223D-02  0.20486653D-02  0.23658518D-02
  0.21935908D-02  0.14205400D-02  0.50125060D-03  0.57756028D-04 -0.94355607D-07
  0.25615853D+00  0.36754925D+00  0.48666917D+00  0.56201819D+00  0.52109685D+00
  0.33745533D+00  0.11907422D+00  0.13720191D-01 -0.22414577D-04  0.32137259D+00
  0.46112169D+00  0.61056773D+00  0.70509946D+00  0.65376017D+00  0.42336631D+00
  0.14938870D+00  0.17213143D-01 -0.28120987D-04 -0.60707363D-05  0.17308751D-04