 br2cs-wavefunction
GAUSSIAN            214 MOL ORBITALS    620 PRIMITIVES        4 NUCLEI
  C    1    (CENTRE  1)   0.00000000  0.00000000 -0.98162013  CHARGE =  6.0
  S    2    (CENTRE  2)   0.00000000  0.01889726  2.04788109  CHARGE = 16.0
  Br   3    (CENTRE  3)   0.00000000 -2.96406568 -2.98306498  CHARGE = 35.0
  Br   4    (CENTRE  4)   0.00000000  2.96406568 -2.98306498  CHARGE = 35.0
CENTRE ASSIGNMENTS    1  1  1  1  1  1  1  1  1  1  1  1  1  1  1  1  1  1  1  1
CENTRE ASSIGNMENTS    1  1  1  1  1  1  1  1  1  1  1  1  1  1  1  1  1  1  1  1
CENTRE ASSIGNMENTS    1  1  1  1  1  1  1  1  1  1  1  1  1  1  1  1  1  1  1  1
CENTRE ASSIGNMENTS    1  1  1  1  1  1  1  1  1  1  1  1  2  2  2  2  2  2  2  2
CENTRE ASSIGNMENTS    2  2  2  2  2  2  2  2  2  2  2  2  2  2  2  2  2  2  2  2
CENTRE ASSIGNMENTS    2  2  2  2  2  2  2  2  2  2  2  2  2  2  2  2  2  2  2  2
CENTRE ASSIGNMENTS    2  2  2  2  2  2  2  2  2  2  2  2  2  2  2  2  2  2  2  2
CENTRE ASSIGNMENTS    2  2  2  2  2  2  2  2  2  2  2  2  2  2  2  2  2  2  2  2
CENTRE ASSIGNMENTS    2  2  2  2  2  2  2  2  2  2  2  2  2  2  2  2  2  2  2  2
CENTRE ASSIGNMENTS    2  2  2  2  2  2  3  3  3  3  3  3  3  3  3  3  3  3  3  3
CENTRE ASSIGNMENTS    3  3  3  3  3  3  3  3  3  3  3  3  3  3  3  3  3  3  3  3
CENTRE ASSIGNMENTS    3  3  3  3  3  3  3  3  3  3  3  3  3  3  3  3  3  3  3  3
CENTRE ASSIGNMENTS    3  3  3  3  3  3  3  3  3  3  3  3  3  3  3  3  3  3  3  3
CENTRE ASSIGNMENTS    3  3  3  3  3  3  3  3  3  3  3  3  3  3  3  3  3  3  3  3
CENTRE ASSIGNMENTS    3  3  3  3  3  3  3  3  3  3  3  3  3  3  3  3  3  3  3  3
CENTRE ASSIGNMENTS    3  3  3  3  3  3  3  3  3  3  3  3  3  3  3  3  3  3  3  3
CENTRE ASSIGNMENTS    3  3  3  3  3  3  3  3  3  3  3  3  3  3  3  3  3  3  3  3
CENTRE ASSIGNMENTS    3  3  3  3  3  3  3  3  3  3  3  3  3  3  3  3  3  3  3  3
CENTRE ASSIGNMENTS    3  3  3  3  3  3  3  3  3  3  3  3  3  3  3  3  3  3  3  3
CENTRE ASSIGNMENTS    3  3  3  3  3  3  3  3  3  3  3  3  3  3  3  3  3  3  3  3
CENTRE ASSIGNMENTS    3  3  3  4  4  4  4  4  4  4  4  4  4  4  4  4  4  4  4  4
CENTRE ASSIGNMENTS    4  4  4  4  4  4  4  4  4  4  4  4  4  4  4  4  4  4  4  4
CENTRE ASSIGNMENTS    4  4  4  4  4  4  4  4  4  4  4  4  4  4  4  4  4  4  4  4
CENTRE ASSIGNMENTS    4  4  4  4  4  4  4  4  4  4  4  4  4  4  4  4  4  4  4  4
CENTRE ASSIGNMENTS    4  4  4  4  4  4  4  4  4  4  4  4  4  4  4  4  4  4  4  4
CENTRE ASSIGNMENTS    4  4  4  4  4  4  4  4  4  4  4  4  4  4  4  4  4  4  4  4
CENTRE ASSIGNMENTS    4  4  4  4  4  4  4  4  4  4  4  4  4  4  4  4  4  4  4  4
CENTRE ASSIGNMENTS    4  4  4  4  4  4  4  4  4  4  4  4  4  4  4  4  4  4  4  4
CENTRE ASSIGNMENTS    4  4  4  4  4  4  4  4  4  4  4  4  4  4  4  4  4  4  4  4
CENTRE ASSIGNMENTS    4  4  4  4  4  4  4  4  4  4  4  4  4  4  4  4  4  4  4  4
CENTRE ASSIGNMENTS    4  4  4  4  4  4  4  4  4  4  4  4  4  4  4  4  4  4  4  4
TYPE ASSIGNMENTS      1  1  1  1  1  1  1  1  1  1  1  1  1  1  1  1  2  2  2  3
TYPE ASSIGNMENTS      3  3  4  4  4  2  3  4  2  3  4  2  3  4  5  6  7  8  9 10
TYPE ASSIGNMENTS      5  6  7  8  9 10  5  6  7  8  9 10 11 12 13 17 14 15 18 19
TYPE ASSIGNMENTS     16 20 11 12 13 17 14 15 18 19 16 20  1  1  1  1  1  1  1  1
TYPE ASSIGNMENTS      1  1  1  1  1  1  1  1  1  1  1  1  1  1  1  1  1  1  1  1
TYPE ASSIGNMENTS      1  1  1  2  2  2  2  2  2  3  3  3  3  3  3  4  4  4  4  4
TYPE ASSIGNMENTS      4  2  2  2  2  2  2  3  3  3  3  3  3  4  4  4  4  4  4  2
TYPE ASSIGNMENTS      3  4  2  3  4  2  3  4  5  6  7  8  9 10  5  6  7  8  9 10
TYPE ASSIGNMENTS      5  6  7  8  9 10 11 12 13 17 14 15 18 19 16 20 11 12 13 17
TYPE ASSIGNMENTS     14 15 18 19 16 20  1  1  1  1  1  1  1  1  1  1  1  1  1  1
TYPE ASSIGNMENTS      1  1  1  1  1  1  1  1  1  1  1  1  1  1  1  1  1  1  1  1
TYPE ASSIGNMENTS      1  1  1  1  1  1  1  1  1  1  1  1  1  1  1  1  2  2  2  2
TYPE ASSIGNMENTS      2  2  2  2  2  3  3  3  3  3  3  3  3  3  4  4  4  4  4  4
TYPE ASSIGNMENTS      4  4  4  2  2  2  2  2  2  2  2  2  3  3  3  3  3  3  3  3
TYPE ASSIGNMENTS      3  4  4  4  4  4  4  4  4  4  2  2  2  2  2  2  2  2  3  3
TYPE ASSIGNMENTS      3  3  3  3  3  3  4  4  4  4  4  4  4  4  2  3  4  2  3  4
TYPE ASSIGNMENTS      2  3  4  5  5  5  5  5  5  5  6  6  6  6  6  6  6  7  7  7
TYPE ASSIGNMENTS      7  7  7  7  8  8  8  8  8  8  8  9  9  9  9  9  9  9 10 10
TYPE ASSIGNMENTS     10 10 10 10 10  5  6  7  8  9 10  5  6  7  8  9 10  5  6  7
TYPE ASSIGNMENTS      8  9 10 11 12 13 17 14 15 18 19 16 20 11 12 13 17 14 15 18
TYPE ASSIGNMENTS     19 16 20  1  1  1  1  1  1  1  1  1  1  1  1  1  1  1  1  1
TYPE ASSIGNMENTS      1  1  1  1  1  1  1  1  1  1  1  1  1  1  1  1  1  1  1  1
TYPE ASSIGNMENTS      1  1  1  1  1  1  1  1  1  1  1  1  1  2  2  2  2  2  2  2
TYPE ASSIGNMENTS      2  2  3  3  3  3  3  3  3  3  3  4  4  4  4  4  4  4  4  4
TYPE ASSIGNMENTS      2  2  2  2  2  2  2  2  2  3  3  3  3  3  3  3  3  3  4  4
TYPE ASSIGNMENTS      4  4  4  4  4  4  4  2  2  2  2  2  2  2  2  3  3  3  3  3
TYPE ASSIGNMENTS      3  3  3  4  4  4  4  4  4  4  4  2  3  4  2  3  4  2  3  4
TYPE ASSIGNMENTS      5  5  5  5  5  5  5  6  6  6  6  6  6  6  7  7  7  7  7  7
TYPE ASSIGNMENTS      7  8  8  8  8  8  8  8  9  9  9  9  9  9  9 10 10 10 10 10
TYPE ASSIGNMENTS     10 10  5  6  7  8  9 10  5  6  7  8  9 10  5  6  7  8  9 10
TYPE ASSIGNMENTS     11 12 13 17 14 15 18 19 16 20 11 12 13 17 14 15 18 19 16 20
EXPONENTS  0.8236000D+04 0.1235000D+04 0.2808000D+03 0.7927000D+02 0.2559000D+02
EXPONENTS  0.8997000D+01 0.3319000D+01 0.2808000D+03 0.7927000D+02 0.2559000D+02
EXPONENTS  0.8997000D+01 0.3319000D+01 0.3643000D+00 0.9059000D+00 0.1285000D+00
EXPONENTS  0.4402000D-01 0.1871000D+02 0.4133000D+01 0.1200000D+01 0.1871000D+02
EXPONENTS  0.4133000D+01 0.1200000D+01 0.1871000D+02 0.4133000D+01 0.1200000D+01
EXPONENTS  0.3827000D+00 0.3827000D+00 0.3827000D+00 0.1209000D+00 0.1209000D+00
EXPONENTS  0.1209000D+00 0.3569000D-01 0.3569000D-01 0.3569000D-01 0.1097000D+01
EXPONENTS  0.1097000D+01 0.1097000D+01 0.1097000D+01 0.1097000D+01 0.1097000D+01
EXPONENTS  0.3180000D+00 0.3180000D+00 0.3180000D+00 0.3180000D+00 0.3180000D+00
EXPONENTS  0.3180000D+00 0.1000000D+00 0.1000000D+00 0.1000000D+00 0.1000000D+00
EXPONENTS  0.1000000D+00 0.1000000D+00 0.7610000D+00 0.7610000D+00 0.7610000D+00
EXPONENTS  0.7610000D+00 0.7610000D+00 0.7610000D+00 0.7610000D+00 0.7610000D+00
EXPONENTS  0.7610000D+00 0.7610000D+00 0.2680000D+00 0.2680000D+00 0.2680000D+00
EXPONENTS  0.2680000D+00 0.2680000D+00 0.2680000D+00 0.2680000D+00 0.2680000D+00
EXPONENTS  0.2680000D+00 0.2680000D+00 0.3741000D+06 0.5605000D+05 0.1276000D+05
EXPONENTS  0.3615000D+04 0.1183000D+04 0.4288000D+03 0.1678000D+03 0.6947000D+02
EXPONENTS  0.2984000D+02 0.1272000D+02 0.5244000D+01 0.3615000D+04 0.1183000D+04
EXPONENTS  0.4288000D+03 0.1678000D+03 0.6947000D+02 0.2984000D+02 0.1272000D+02
EXPONENTS  0.5244000D+01 0.2219000D+01 0.1183000D+04 0.1678000D+03 0.6947000D+02
EXPONENTS  0.2984000D+02 0.1272000D+02 0.5244000D+01 0.2219000D+01 0.3490000D+00
EXPONENTS  0.7767000D+00 0.1322000D+00 0.4970000D-01 0.5744000D+03 0.1358000D+03
EXPONENTS  0.4319000D+02 0.1587000D+02 0.6208000D+01 0.2483000D+01 0.5744000D+03
EXPONENTS  0.1358000D+03 0.4319000D+02 0.1587000D+02 0.6208000D+01 0.2483000D+01
EXPONENTS  0.5744000D+03 0.1358000D+03 0.4319000D+02 0.1587000D+02 0.6208000D+01
EXPONENTS  0.2483000D+01 0.1358000D+03 0.4319000D+02 0.1587000D+02 0.6208000D+01
EXPONENTS  0.2483000D+01 0.3229000D+00 0.1358000D+03 0.4319000D+02 0.1587000D+02
EXPONENTS  0.6208000D+01 0.2483000D+01 0.3229000D+00 0.1358000D+03 0.4319000D+02
EXPONENTS  0.1587000D+02 0.6208000D+01 0.2483000D+01 0.3229000D+00 0.8688000D+00
EXPONENTS  0.8688000D+00 0.8688000D+00 0.1098000D+00 0.1098000D+00 0.1098000D+00
EXPONENTS  0.3510000D-01 0.3510000D-01 0.3510000D-01 0.2690000D+00 0.2690000D+00
EXPONENTS  0.2690000D+00 0.2690000D+00 0.2690000D+00 0.2690000D+00 0.8190000D+00
EXPONENTS  0.8190000D+00 0.8190000D+00 0.8190000D+00 0.8190000D+00 0.8190000D+00
EXPONENTS  0.1010000D+00 0.1010000D+00 0.1010000D+00 0.1010000D+00 0.1010000D+00
EXPONENTS  0.1010000D+00 0.5570000D+00 0.5570000D+00 0.5570000D+00 0.5570000D+00
EXPONENTS  0.5570000D+00 0.5570000D+00 0.5570000D+00 0.5570000D+00 0.5570000D+00
EXPONENTS  0.5570000D+00 0.2180000D+00 0.2180000D+00 0.2180000D+00 0.2180000D+00
EXPONENTS  0.2180000D+00 0.2180000D+00 0.2180000D+00 0.2180000D+00 0.2180000D+00
EXPONENTS  0.2180000D+00 0.1063900D+08 0.1593400D+07 0.3626100D+06 0.1027000D+06
EXPONENTS  0.3350100D+05 0.1209300D+05 0.4715900D+04 0.1955600D+04 0.8526100D+03
EXPONENTS  0.3876700D+03 0.1826800D+03 0.8824500D+02 0.3926300D+02 0.9405700D+01
EXPONENTS  0.1899500D+01 0.3350100D+05 0.1209300D+05 0.4715900D+04 0.1955600D+04
EXPONENTS  0.8526100D+03 0.3876700D+03 0.1826800D+03 0.8824500D+02 0.3926300D+02
EXPONENTS  0.1923400D+02 0.9405700D+01 0.1899500D+01 0.4715900D+04 0.8526100D+03
EXPONENTS  0.3876700D+03 0.1826800D+03 0.8824500D+02 0.3926300D+02 0.1923400D+02
EXPONENTS  0.9405700D+01 0.4160100D+01 0.1899500D+01 0.4715900D+04 0.8526100D+03
EXPONENTS  0.3876700D+03 0.8824500D+02 0.3926300D+02 0.1923400D+02 0.9405700D+01
EXPONENTS  0.4160100D+01 0.1899500D+01 0.3011400D+00 0.6047200D+00 0.1251500D+00
EXPONENTS  0.4559300D-01 0.8676500D+04 0.2055900D+04 0.6662300D+03 0.2531000D+03
EXPONENTS  0.1061200D+03 0.4724200D+02 0.2182500D+02 0.9968400D+01 0.1998200D+01
EXPONENTS  0.8676500D+04 0.2055900D+04 0.6662300D+03 0.2531000D+03 0.1061200D+03
EXPONENTS  0.4724200D+02 0.2182500D+02 0.9968400D+01 0.1998200D+01 0.8676500D+04
EXPONENTS  0.2055900D+04 0.6662300D+03 0.2531000D+03 0.1061200D+03 0.4724200D+02
EXPONENTS  0.2182500D+02 0.9968400D+01 0.1998200D+01 0.8676500D+04 0.6662300D+03
EXPONENTS  0.2531000D+03 0.1061200D+03 0.4724200D+02 0.2182500D+02 0.9968400D+01
EXPONENTS  0.4517100D+01 0.1998200D+01 0.8676500D+04 0.6662300D+03 0.2531000D+03
EXPONENTS  0.1061200D+03 0.4724200D+02 0.2182500D+02 0.9968400D+01 0.4517100D+01
EXPONENTS  0.1998200D+01 0.8676500D+04 0.6662300D+03 0.2531000D+03 0.1061200D+03
EXPONENTS  0.4724200D+02 0.2182500D+02 0.9968400D+01 0.4517100D+01 0.1998200D+01
EXPONENTS  0.6662300D+03 0.1061200D+03 0.4724200D+02 0.2182500D+02 0.9968400D+01
EXPONENTS  0.4517100D+01 0.1998200D+01 0.2814500D+00 0.6662300D+03 0.1061200D+03
EXPONENTS  0.4724200D+02 0.2182500D+02 0.9968400D+01 0.4517100D+01 0.1998200D+01
EXPONENTS  0.2814500D+00 0.6662300D+03 0.1061200D+03 0.4724200D+02 0.2182500D+02
EXPONENTS  0.9968400D+01 0.4517100D+01 0.1998200D+01 0.2814500D+00 0.7098800D+00
EXPONENTS  0.7098800D+00 0.7098800D+00 0.1020400D+00 0.1020400D+00 0.1020400D+00
EXPONENTS  0.3514200D-01 0.3514200D-01 0.3514200D-01 0.4038300D+03 0.1211700D+03
EXPONENTS  0.4634500D+02 0.1972100D+02 0.8862400D+01 0.3996200D+01 0.1763600D+01
EXPONENTS  0.4038300D+03 0.1211700D+03 0.4634500D+02 0.1972100D+02 0.8862400D+01
EXPONENTS  0.3996200D+01 0.1763600D+01 0.4038300D+03 0.1211700D+03 0.4634500D+02
EXPONENTS  0.1972100D+02 0.8862400D+01 0.3996200D+01 0.1763600D+01 0.4038300D+03
EXPONENTS  0.1211700D+03 0.4634500D+02 0.1972100D+02 0.8862400D+01 0.3996200D+01
EXPONENTS  0.1763600D+01 0.4038300D+03 0.1211700D+03 0.4634500D+02 0.1972100D+02
EXPONENTS  0.8862400D+01 0.3996200D+01 0.1763600D+01 0.4038300D+03 0.1211700D+03
EXPONENTS  0.4634500D+02 0.1972100D+02 0.8862400D+01 0.3996200D+01 0.1763600D+01
EXPONENTS  0.7061900D+00 0.7061900D+00 0.7061900D+00 0.7061900D+00 0.7061900D+00
EXPONENTS  0.7061900D+00 0.2639000D+00 0.2639000D+00 0.2639000D+00 0.2639000D+00
EXPONENTS  0.2639000D+00 0.2639000D+00 0.1047000D+00 0.1047000D+00 0.1047000D+00
EXPONENTS  0.1047000D+00 0.1047000D+00 0.1047000D+00 0.5515000D+00 0.5515000D+00
EXPONENTS  0.5515000D+00 0.5515000D+00 0.5515000D+00 0.5515000D+00 0.5515000D+00
EXPONENTS  0.5515000D+00 0.5515000D+00 0.5515000D+00 0.2580000D+00 0.2580000D+00
EXPONENTS  0.2580000D+00 0.2580000D+00 0.2580000D+00 0.2580000D+00 0.2580000D+00
EXPONENTS  0.2580000D+00 0.2580000D+00 0.2580000D+00 0.1063900D+08 0.1593400D+07
EXPONENTS  0.3626100D+06 0.1027000D+06 0.3350100D+05 0.1209300D+05 0.4715900D+04
EXPONENTS  0.1955600D+04 0.8526100D+03 0.3876700D+03 0.1826800D+03 0.8824500D+02
EXPONENTS  0.3926300D+02 0.9405700D+01 0.1899500D+01 0.3350100D+05 0.1209300D+05
EXPONENTS  0.4715900D+04 0.1955600D+04 0.8526100D+03 0.3876700D+03 0.1826800D+03
EXPONENTS  0.8824500D+02 0.3926300D+02 0.1923400D+02 0.9405700D+01 0.1899500D+01
EXPONENTS  0.4715900D+04 0.8526100D+03 0.3876700D+03 0.1826800D+03 0.8824500D+02
EXPONENTS  0.3926300D+02 0.1923400D+02 0.9405700D+01 0.4160100D+01 0.1899500D+01
EXPONENTS  0.4715900D+04 0.8526100D+03 0.3876700D+03 0.8824500D+02 0.3926300D+02
EXPONENTS  0.1923400D+02 0.9405700D+01 0.4160100D+01 0.1899500D+01 0.3011400D+00
EXPONENTS  0.6047200D+00 0.1251500D+00 0.4559300D-01 0.8676500D+04 0.2055900D+04
EXPONENTS  0.6662300D+03 0.2531000D+03 0.1061200D+03 0.4724200D+02 0.2182500D+02
EXPONENTS  0.9968400D+01 0.1998200D+01 0.8676500D+04 0.2055900D+04 0.6662300D+03
EXPONENTS  0.2531000D+03 0.1061200D+03 0.4724200D+02 0.2182500D+02 0.9968400D+01
EXPONENTS  0.1998200D+01 0.8676500D+04 0.2055900D+04 0.6662300D+03 0.2531000D+03
EXPONENTS  0.1061200D+03 0.4724200D+02 0.2182500D+02 0.9968400D+01 0.1998200D+01
EXPONENTS  0.8676500D+04 0.6662300D+03 0.2531000D+03 0.1061200D+03 0.4724200D+02
EXPONENTS  0.2182500D+02 0.9968400D+01 0.4517100D+01 0.1998200D+01 0.8676500D+04
EXPONENTS  0.6662300D+03 0.2531000D+03 0.1061200D+03 0.4724200D+02 0.2182500D+02
EXPONENTS  0.9968400D+01 0.4517100D+01 0.1998200D+01 0.8676500D+04 0.6662300D+03
EXPONENTS  0.2531000D+03 0.1061200D+03 0.4724200D+02 0.2182500D+02 0.9968400D+01
EXPONENTS  0.4517100D+01 0.1998200D+01 0.6662300D+03 0.1061200D+03 0.4724200D+02
EXPONENTS  0.2182500D+02 0.9968400D+01 0.4517100D+01 0.1998200D+01 0.2814500D+00
EXPONENTS  0.6662300D+03 0.1061200D+03 0.4724200D+02 0.2182500D+02 0.9968400D+01
EXPONENTS  0.4517100D+01 0.1998200D+01 0.2814500D+00 0.6662300D+03 0.1061200D+03
EXPONENTS  0.4724200D+02 0.2182500D+02 0.9968400D+01 0.4517100D+01 0.1998200D+01
EXPONENTS  0.2814500D+00 0.7098800D+00 0.7098800D+00 0.7098800D+00 0.1020400D+00
EXPONENTS  0.1020400D+00 0.1020400D+00 0.3514200D-01 0.3514200D-01 0.3514200D-01
EXPONENTS  0.4038300D+03 0.1211700D+03 0.4634500D+02 0.1972100D+02 0.8862400D+01
EXPONENTS  0.3996200D+01 0.1763600D+01 0.4038300D+03 0.1211700D+03 0.4634500D+02
EXPONENTS  0.1972100D+02 0.8862400D+01 0.3996200D+01 0.1763600D+01 0.4038300D+03
EXPONENTS  0.1211700D+03 0.4634500D+02 0.1972100D+02 0.8862400D+01 0.3996200D+01
EXPONENTS  0.1763600D+01 0.4038300D+03 0.1211700D+03 0.4634500D+02 0.1972100D+02
EXPONENTS  0.8862400D+01 0.3996200D+01 0.1763600D+01 0.4038300D+03 0.1211700D+03
EXPONENTS  0.4634500D+02 0.1972100D+02 0.8862400D+01 0.3996200D+01 0.1763600D+01
EXPONENTS  0.4038300D+03 0.1211700D+03 0.4634500D+02 0.1972100D+02 0.8862400D+01
EXPONENTS  0.3996200D+01 0.1763600D+01 0.7061900D+00 0.7061900D+00 0.7061900D+00
EXPONENTS  0.7061900D+00 0.7061900D+00 0.7061900D+00 0.2639000D+00 0.2639000D+00
EXPONENTS  0.2639000D+00 0.2639000D+00 0.2639000D+00 0.2639000D+00 0.1047000D+00
EXPONENTS  0.1047000D+00 0.1047000D+00 0.1047000D+00 0.1047000D+00 0.1047000D+00
EXPONENTS  0.5515000D+00 0.5515000D+00 0.5515000D+00 0.5515000D+00 0.5515000D+00
EXPONENTS  0.5515000D+00 0.5515000D+00 0.5515000D+00 0.5515000D+00 0.5515000D+00
EXPONENTS  0.2580000D+00 0.2580000D+00 0.2580000D+00 0.2580000D+00 0.2580000D+00
EXPONENTS  0.2580000D+00 0.2580000D+00 0.2580000D+00 0.2580000D+00 0.2580000D+00
MO    1     MO 0.0        OCC NO =    2.0000283  ORB. ENERGY =    0.000000
  0.49578832D-03  0.92424931D-03  0.15621072D-02  0.23481385D-02  0.28842676D-02
  0.24342201D-02  0.91533034D-03  0.13740934D-06  0.10270497D-05  0.38383191D-05
  0.10708313D-04  0.14346187D-04 -0.16940171D-04  0.36322383D-04  0.12216638D-04
  0.21558160D-05 -0.36578007D-13 -0.34294207D-13 -0.24419518D-13 -0.26174242D-02
 -0.24540015D-02 -0.17473953D-02 -0.28143220D-04 -0.26386057D-04 -0.18788445D-04
 -0.53045283D-14 -0.55126127D-03 -0.51773506D-05  0.62692698D-15  0.12874215D-02
  0.13533709D-04 -0.16846085D-15  0.80511605D-04  0.22944674D-06  0.40157729D-06
 -0.51219068D-05  0.47203296D-05  0.30614981D-14 -0.53755090D-14 -0.11881722D-02
  0.35836797D-06  0.74808788D-06 -0.11064559D-05 -0.25696534D-14  0.10060750D-14
  0.15388282D-05 -0.45054045D-07 -0.52630010D-06  0.57135415D-06  0.35704572D-15
 -0.27676632D-15 -0.32131781D-03  0.15990897D-14  0.11227260D-03  0.22077705D-05
 -0.79488466D-15  0.27517011D-03  0.37699902D-05 -0.40023843D-14 -0.61198793D-03
 -0.10393302D-04  0.93823461D-15 -0.70280885D-15 -0.68557418D-04 -0.18946090D-05
  0.22753342D-15 -0.13799643D-03 -0.10012566D-05  0.18808931D-14  0.34366868D-03
  0.66850837D-05  0.11483627D-14  0.39533392D-03  0.73911658D-03  0.12774131D-02
  0.20661631D-02  0.31229364D-02  0.43009300D-02  0.50272634D-02  0.43449010D-02
  0.20277879D-02  0.27472077D-03 -0.20093473D-05  0.48768463D-05  0.62691368D-04
  0.22868910D-03  0.77159136D-03  0.16947608D-02  0.21891687D-02 -0.35181804D-03
 -0.29513352D-02 -0.16196547D-02  0.52427128D-07  0.59717758D-06  0.12399559D-05
  0.34095639D-05 -0.44208911D-06 -0.15416495D-04 -0.38451187D-04  0.31829336D-04
 -0.90154656D-04 -0.18650475D-04 -0.32853517D-05  0.11154130D-09  0.14633584D-09
  0.16049874D-09  0.13205353D-09  0.69611113D-10  0.18111502D-10  0.97037437D+01
  0.12730760D+02  0.13962888D+02  0.11488244D+02  0.60559490D+01  0.15756440D+01
 -0.12304638D+00 -0.16142985D+00 -0.17705361D+00 -0.14567437D+00 -0.76791247D-01
 -0.19979638D-01  0.60151950D-15  0.21591922D-13  0.34256125D-13  0.40678098D-13
  0.61556684D-14 -0.44799801D-13  0.88544002D-04  0.31783428D-02  0.50425206D-02
  0.59878385D-02  0.90611779D-03 -0.65945555D-02 -0.11310962D-05 -0.40601411D-04
 -0.64415156D-04 -0.76491022D-04 -0.11575108D-04  0.84241465D-04  0.84963699D-12
  0.67290237D-01 -0.86927297D-03  0.83014594D-15 -0.32088184D-03  0.11730559D-04
 -0.17420512D-15 -0.28030680D-04  0.23663392D-06  0.23734915D-05  0.55528700D-05
 -0.79263615D-05 -0.45374329D-15  0.49135858D-14  0.76791910D-03 -0.11878215D-05
 -0.32959749D-05  0.44837964D-05 -0.42771404D-15 -0.26994577D-14 -0.72860126D-03
  0.21017352D-06  0.25670163D-07 -0.23584368D-06 -0.68847220D-16 -0.14684790D-15
 -0.41381673D-04  0.11707206D-14  0.35456862D-05  0.10745371D-05 -0.21982694D-14
  0.13848758D-03 -0.26134534D-05 -0.13138923D-14 -0.14912464D-03 -0.61015796D-06
  0.47507693D-15 -0.10409638D-17  0.31994135D-04  0.69928051D-06  0.28260644D-15
  0.28355777D-05 -0.13909815D-06 -0.27948355D-15 -0.98817982D-04 -0.19587434D-05
  0.15710990D-15  0.34282477D-03  0.64490503D-03  0.11163636D-02  0.18299342D-02
  0.28666198D-02  0.43087629D-02  0.61582351D-02  0.81750437D-02  0.95204290D-02
  0.87434126D-02  0.51110987D-02  0.13411225D-02  0.76250264D-04  0.13304851D-05
  0.13392846D-06  0.17322940D-04  0.50041981D-04  0.22935415D-03  0.67893825D-03
  0.19689407D-02  0.40926250D-02  0.58545487D-02  0.16786861D-02 -0.67082546D-02
 -0.64862332D-02 -0.14157195D-02  0.20492112D-04  0.11448106D-04  0.53407781D-04
  0.10838713D-03  0.42478800D-03  0.29808380D-03 -0.19412345D-02 -0.60152194D-02
 -0.73579604D-03  0.52582146D-02  0.24676799D-02 -0.95182253D-06 -0.13048732D-05
  0.25017575D-05  0.53170572D-05 -0.20099964D-04 -0.64998178D-04 -0.22605378D-04
  0.22110521D-03  0.49317924D-03 -0.32725874D-03 -0.61476084D-04  0.15439628D-02
  0.47912595D-03 -0.42524512D-08 -0.61016327D-08 -0.80791256D-08 -0.93299838D-08
 -0.86506545D-08 -0.56020478D-08 -0.19767341D-08 -0.22776693D-09  0.37210119D-12
  0.12017283D+01  0.17243007D+01  0.22831335D+01  0.26366218D+01  0.24446457D+01
  0.15831197D+01  0.55861836D+00  0.64366164D-01 -0.10515454D-03  0.10455660D+01
  0.15002312D+01  0.19864447D+01  0.22939979D+01  0.21269687D+01  0.13773964D+01
  0.48602699D+00  0.56001906D-01 -0.91489909D-04  0.57563540D-12 -0.16412391D-11
 -0.80110990D-11 -0.16600520D-10 -0.20832015D-10 -0.33035828D-11  0.26741387D-10
  0.23322366D-10  0.59953614D-11 -0.72894397D-02  0.20783491D-01  0.10144689D+00
  0.21021725D+00  0.26380190D+00  0.41834237D-01 -0.33863402D+00 -0.29533796D+00
 -0.75921017D-01 -0.64589348D-02  0.18415574D-01  0.89888784D-01  0.18626665D+00
  0.23374626D+00  0.37067953D-01 -0.30005256D+00 -0.26168933D+00 -0.67271137D-01
  0.27580967D-14  0.38964705D-14 -0.18130073D-14  0.36332838D-14  0.39885324D-14
  0.10766299D-13  0.33927453D-14 -0.72842963D-14 -0.74766584D-04 -0.10562566D-03
  0.49147068D-04 -0.98491188D-04 -0.10812128D-03 -0.29185322D-03 -0.91970661D-04
  0.19746296D-03  0.56942931D-04  0.80445492D-04 -0.37430867D-04  0.75011811D-04
  0.82346179D-04  0.22227815D-03  0.70045717D-04 -0.15038964D-03  0.25558492D-12
 -0.31371267D-02 -0.29043686D-02  0.22330508D-14  0.38572213D-03  0.16740219D-03
  0.96355087D-17  0.14744203D-04  0.12353059D-04  0.14938640D+00  0.15631677D+00
  0.13319026D+00  0.87715853D-01  0.40425625D-01  0.12105519D-01  0.20596514D-02
 -0.15002337D+00 -0.15698329D+00 -0.13375817D+00 -0.88089864D-01 -0.40597996D-01
 -0.12157136D-01 -0.20684335D-02  0.63696771D-03  0.66651808D-03  0.56790907D-03
  0.37401106D-03  0.17237056D-03  0.51616644D-04  0.87821343D-05  0.18019184D-09
  0.18855135D-09  0.16065584D-09  0.10580402D-09  0.48761921D-10  0.14601836D-10
  0.24843786D-11  0.35676150D-10  0.37331247D-10  0.31808221D-10  0.20948118D-10
  0.96543639D-11  0.28910149D-11  0.49188167D-12 -0.48225543D+00 -0.50462835D+00
 -0.42997036D+00 -0.28316799D+00 -0.13050370D+00 -0.39079543D-01 -0.66490529D-02
  0.66378273D-04 -0.11564090D-03  0.49262625D-04  0.15094779D-12  0.33200737D-13
 -0.35615305D-03 -0.54428969D-04  0.57876242D-04 -0.34472727D-05 -0.33724328D-14
 -0.18604767D-14  0.94692391D-04 -0.15703551D-04  0.18798727D-04 -0.30951757D-05
  0.17042207D-15  0.16701935D-16  0.64101205D-04 -0.59289508D-15  0.28378233D-04
  0.31267329D-04  0.12401842D-14 -0.51219543D-04 -0.38192093D-04  0.53850103D-15
 -0.33915155D-04 -0.55609894D-04  0.19609314D-14  0.34888690D-15 -0.18185676D-05
 -0.15910744D-05 -0.68877748D-15  0.12573140D-04  0.22215692D-05 -0.35788322D-15
 -0.71174371D-05  0.25516541D-05 -0.10382021D-14 -0.39628049D-03 -0.74546328D-03
 -0.12904350D-02 -0.21152708D-02 -0.33136039D-02 -0.49806163D-02 -0.71184716D-02
 -0.94497555D-02 -0.11004923D-01 -0.10106749D-01 -0.59080582D-02 -0.15502400D-02
 -0.88139756D-04 -0.15379440D-05 -0.15481156D-06 -0.19869022D-04 -0.57397025D-04
 -0.26306405D-03 -0.77872689D-03 -0.22583307D-02 -0.46941488D-02 -0.67150356D-02
 -0.19254152D-02  0.76942170D-02  0.74395634D-02  0.16237984D-02 -0.23503991D-04
 -0.12961869D-04 -0.60469798D-04 -0.12271897D-03 -0.48095698D-03 -0.33749890D-03
  0.21979206D-02  0.68106013D-02  0.83308906D-03 -0.59534992D-02 -0.27939770D-02
  0.97636027D-06  0.13385124D-05 -0.25662521D-05 -0.54541296D-05  0.20618136D-04
  0.66673814D-04  0.23188138D-04 -0.22680525D-03 -0.50589328D-03  0.33569538D-03
  0.51736624D-04 -0.15340911D-02 -0.47850509D-03 -0.17180849D-08 -0.24651954D-08
 -0.32641465D-08 -0.37695210D-08 -0.34950569D-08 -0.22633519D-08 -0.79864456D-09
 -0.92022908D-10  0.15033716D-12  0.11838989D+01  0.16987182D+01  0.22492598D+01
  0.25975036D+01  0.24083757D+01  0.15596318D+01  0.55033042D+00  0.63411195D-01
 -0.10359441D-03 -0.10337546D+01 -0.14832835D+01 -0.19640044D+01 -0.22680833D+01
 -0.21029409D+01 -0.13618363D+01 -0.48053648D+00 -0.55369268D-01  0.90456373D-04
 -0.19906313D-12  0.56756444D-12  0.27703550D-11  0.57407024D-11  0.72040149D-11
  0.11424272D-11 -0.92475622D-11 -0.80652150D-11 -0.20732835D-11 -0.71834949D-02
  0.20481424D-01  0.99972463D-01  0.20716195D+00  0.25996780D+00  0.41226218D-01
 -0.33371230D+00 -0.29104551D+00 -0.74817580D-01  0.63896688D-02 -0.18218084D-01
 -0.88924812D-01 -0.18426912D+00 -0.23123956D+00 -0.36670435D-01  0.29683478D+00
  0.25888296D+00  0.66549718D-01 -0.11456267D-14 -0.16184715D-14  0.75306631D-15
 -0.15091520D-14 -0.16567111D-14 -0.44719825D-14 -0.14092398D-14  0.30256679D-14
 -0.72161412D-04 -0.10194523D-03  0.47434584D-04 -0.95059354D-04 -0.10435389D-03
 -0.28168387D-03 -0.88766029D-04  0.19058255D-03 -0.59010925D-04 -0.83367029D-04
  0.38790243D-04 -0.77736013D-04 -0.85336743D-04 -0.23035062D-03 -0.72589565D-04
  0.15585134D-03 -0.34961421D-13 -0.31007066D-02  0.28860158D-02 -0.63077670D-15
  0.38335027D-03 -0.16567854D-03  0.89515677D-16  0.14806887D-04 -0.12324891D-04
 -0.14670149D+00 -0.15350731D+00 -0.13079644D+00 -0.86139345D-01 -0.39699059D-01
 -0.11887948D-01 -0.20226335D-02  0.14862004D+00  0.15551486D+00  0.13250698D+00
  0.87265865D-01  0.40218239D-01  0.12043417D-01  0.20490853D-02 -0.19185455D-02
 -0.20075511D-02 -0.17105410D-02 -0.11265206D-02 -0.51917979D-03 -0.15546923D-03
 -0.26451771D-04 -0.10596862D-10 -0.11088474D-10 -0.94479732D-11 -0.62222046D-11
 -0.28676289D-11 -0.85871610D-12 -0.14610326D-12  0.22872700D-10  0.23933816D-10
  0.20392892D-10  0.13430261D-10  0.61896076D-11  0.18534880D-11  0.31535527D-12
 -0.47432826D+00 -0.49633342D+00 -0.42290264D+00 -0.27851336D+00 -0.12835851D+00
 -0.38437165D-01 -0.65397577D-02 -0.63929299D-04  0.11808625D-03 -0.54156955D-04
 -0.81066280D-14  0.18006704D-13 -0.34883419D-03  0.55034724D-04 -0.56106894D-04
  0.10721698D-05  0.38689320D-15 -0.35468998D-15  0.92858359D-04  0.15680475D-04
 -0.18420137D-04  0.27396610D-05  0.38084522D-15 -0.24689605D-15  0.63641128D-04
 -0.49231193D-15  0.27390530D-04 -0.32538223D-04 -0.12943043D-15 -0.52556970D-04
  0.41547365D-04  0.16063662D-14 -0.29614622D-04  0.56067305D-04 -0.91948224D-15
  0.22405704D-15 -0.15911675D-05  0.11762532D-05 -0.32198298D-15  0.12415296D-04
 -0.23761029D-05 -0.35018814D-15 -0.76417937D-05 -0.11526566D-05  0.32899878D-15
MO    2     MO 0.0        OCC NO =    2.0000240  ORB. ENERGY =    0.000000
 -0.58955739D-01 -0.10990537D+00 -0.18575506D+00 -0.27922449D+00 -0.34297728D+00
 -0.28946072D+00 -0.10884479D+00 -0.10357223D-04 -0.77413825D-04 -0.28931314D-03
 -0.80713861D-03 -0.10813432D-02  0.12768647D-02 -0.44802510D-02 -0.17439323D-02
 -0.31713368D-03 -0.15748619D-14 -0.14765331D-14 -0.10513796D-14 -0.17207154D-05
 -0.16132801D-05 -0.11487515D-05  0.22931220D-02  0.21499476D-02  0.15308908D-02
  0.12495114D-14 -0.19142569D-05 -0.21683337D-03  0.44488704D-14 -0.32091672D-05
 -0.96637366D-03  0.10467226D-14 -0.20403497D-06  0.10771061D-05  0.12464270D-03
  0.11450578D-04 -0.13609328D-03 -0.34159220D-13  0.24665306D-14 -0.10978044D-04
  0.11849076D-03  0.12836956D-03 -0.24686032D-03 -0.22238832D-13  0.67226377D-14
 -0.32740030D-05  0.23560813D-04  0.10024089D-03 -0.12380171D-03  0.22986001D-14
  0.67274781D-15 -0.17655445D-05 -0.13985309D-14  0.21573645D-05 -0.97681185D-05
  0.29471975D-14  0.20820469D-06 -0.90552034D-04  0.12483951D-14 -0.66802983D-05
  0.11985639D-03  0.23755223D-14 -0.21681469D-15 -0.17048358D-05  0.13229228D-04
 -0.16824274D-14  0.14160714D-07  0.44739077D-04  0.23328714D-14  0.51003468D-05
 -0.84426760D-04  0.37699785D-14 -0.12703948D+00 -0.23751309D+00 -0.41049322D+00
 -0.66395587D+00 -0.10035471D+01 -0.13820921D+01 -0.16154974D+01 -0.13962221D+01
 -0.65162411D+00 -0.88280768D-01  0.64569825D-03 -0.15830123D-02 -0.20349464D-01
 -0.74231919D-01 -0.25045666D+00 -0.55011520D+00 -0.71059878D+00  0.11419927D+00
  0.95799614D+00  0.52573593D+00 -0.12725967D-04 -0.14495667D-03 -0.30098231D-03
 -0.82762491D-03  0.10731107D-03  0.37421429D-02  0.93334988D-02 -0.77261351D-02
  0.29341145D-01  0.18105356D-02  0.12892164D-03 -0.18347298D-11 -0.24070611D-11
 -0.26400251D-11 -0.21721331D-11 -0.11450251D-11 -0.29791399D-12  0.96943658D-01
  0.12718457D+00  0.13949394D+00  0.11477141D+00  0.60500964D-01  0.15741213D-01
  0.62300826D+01  0.81735141D+01  0.89645761D+01  0.73757831D+01  0.38880935D+01
  0.10116088D+01  0.51800658D-18  0.18594173D-16  0.29500122D-16  0.35030490D-16
  0.53010364D-17 -0.38579950D-16  0.86802339D-06  0.31158248D-04  0.49433341D-04
  0.58700576D-04  0.88829443D-05 -0.64648404D-04  0.57966176D-04  0.20807325D-02
  0.33011342D-02  0.39199956D-02  0.59319866D-03 -0.43171887D-02  0.23881440D-14
  0.69761991D-03  0.45886997D-01 -0.13009604D-14 -0.90274808D-05 -0.77410982D-03
 -0.47106510D-15 -0.10290936D-06 -0.49988517D-05 -0.24704158D-03 -0.13332984D-03
  0.38037142D-03 -0.12568013D-14  0.37872487D-14  0.12416737D-04  0.21033600D-03
 -0.39860681D-03  0.18827081D-03 -0.36494497D-14  0.34702811D-15  0.57719794D-05
 -0.54223278D-05 -0.30832885D-04  0.36255212D-04 -0.46321172D-15  0.87442698D-15
  0.11345813D-05  0.90782118D-15  0.28895222D-06 -0.74205618D-04 -0.47967241D-15
  0.22042416D-05  0.20818184D-03 -0.22437911D-14 -0.30710983D-05  0.14435018D-04
 -0.28640672D-14  0.15888153D-15  0.51311058D-06 -0.20797507D-04  0.46373698D-15
  0.14021628D-06  0.19383723D-04 -0.94038156D-15 -0.16795480D-05  0.43008798D-04
  0.86441876D-15  0.57652883D-03  0.10845376D-02  0.18773899D-02  0.30774025D-02
  0.48207980D-02  0.72460516D-02  0.10356311D-01  0.13747981D-01  0.16010517D-01
  0.14703807D-01  0.85953408D-02  0.22553673D-02  0.12823016D-03  0.22374784D-05
  0.22522765D-06  0.27422157D-04  0.79216292D-04  0.36306688D-03  0.10747570D-02
  0.31168267D-02  0.64786121D-02  0.92677316D-02  0.26573546D-02 -0.10619145D-01
 -0.10267686D-01 -0.22410794D-02  0.32438946D-04  0.17414836D-04  0.81243810D-04
  0.16487828D-03  0.64618667D-03  0.45344448D-03 -0.29530021D-02 -0.91503397D-02
 -0.11192915D-02  0.79987856D-02  0.37538298D-02 -0.21165127D-06 -0.29015710D-06
  0.55630134D-06  0.11823233D-05 -0.44695128D-05 -0.14453269D-04 -0.50266271D-05
  0.49165887D-04  0.10966542D-03 -0.72770633D-04  0.81524957D-04 -0.28816612D-03
  0.76174287D-04 -0.22070244D-08 -0.31667506D-08 -0.41930704D-08 -0.48422664D-08
 -0.44896942D-08 -0.29074657D-08 -0.10259260D-08 -0.11821116D-09  0.19312071D-12
  0.27218549D+00  0.39054556D+00  0.51711841D+00  0.59718175D+00  0.55370010D+00
  0.35856876D+00  0.12652429D+00  0.14578617D-01 -0.23816981D-04  0.33405713D+00
  0.47932212D+00  0.63466677D+00  0.73292965D+00  0.67956401D+00  0.44007653D+00
  0.15528506D+00  0.17892543D-01 -0.29230919D-04  0.75893352D-11 -0.21638547D-10