 br2cs-wavefunction
GAUSSIAN            214 MOL ORBITALS    620 PRIMITIVES        4 NUCLEI
  C    1    (CENTRE  1)   0.00000000 -0.01889726 -0.98162013  CHARGE =  6.0
  S    2    (CENTRE  2)   0.00000000  0.00000000  2.04788109  CHARGE = 16.0
  Br   3    (CENTRE  3)   0.00000000 -2.96406568 -2.98306498  CHARGE = 35.0
  Br   4    (CENTRE  4)   0.00000000  2.96406568 -2.98306498  CHARGE = 35.0
CENTRE ASSIGNMENTS    1  1  1  1  1  1  1  1  1  1  1  1  1  1  1  1  1  1  1  1
CENTRE ASSIGNMENTS    1  1  1  1  1  1  1  1  1  1  1  1  1  1  1  1  1  1  1  1
CENTRE ASSIGNMENTS    1  1  1  1  1  1  1  1  1  1  1  1  1  1  1  1  1  1  1  1
CENTRE ASSIGNMENTS    1  1  1  1  1  1  1  1  1  1  1  1  2  2  2  2  2  2  2  2
CENTRE ASSIGNMENTS    2  2  2  2  2  2  2  2  2  2  2  2  2  2  2  2  2  2  2  2
CENTRE ASSIGNMENTS    2  2  2  2  2  2  2  2  2  2  2  2  2  2  2  2  2  2  2  2
CENTRE ASSIGNMENTS    2  2  2  2  2  2  2  2  2  2  2  2  2  2  2  2  2  2  2  2
CENTRE ASSIGNMENTS    2  2  2  2  2  2  2  2  2  2  2  2  2  2  2  2  2  2  2  2
CENTRE ASSIGNMENTS    2  2  2  2  2  2  2  2  2  2  2  2  2  2  2  2  2  2  2  2
CENTRE ASSIGNMENTS    2  2  2  2  2  2  3  3  3  3  3  3  3  3  3  3  3  3  3  3
CENTRE ASSIGNMENTS    3  3  3  3  3  3  3  3  3  3  3  3  3  3  3  3  3  3  3  3
CENTRE ASSIGNMENTS    3  3  3  3  3  3  3  3  3  3  3  3  3  3  3  3  3  3  3  3
CENTRE ASSIGNMENTS    3  3  3  3  3  3  3  3  3  3  3  3  3  3  3  3  3  3  3  3
CENTRE ASSIGNMENTS    3  3  3  3  3  3  3  3  3  3  3  3  3  3  3  3  3  3  3  3
CENTRE ASSIGNMENTS    3  3  3  3  3  3  3  3  3  3  3  3  3  3  3  3  3  3  3  3
CENTRE ASSIGNMENTS    3  3  3  3  3  3  3  3  3  3  3  3  3  3  3  3  3  3  3  3
CENTRE ASSIGNMENTS    3  3  3  3  3  3  3  3  3  3  3  3  3  3  3  3  3  3  3  3
CENTRE ASSIGNMENTS    3  3  3  3  3  3  3  3  3  3  3  3  3  3  3  3  3  3  3  3
CENTRE ASSIGNMENTS    3  3  3  3  3  3  3  3  3  3  3  3  3  3  3  3  3  3  3  3
CENTRE ASSIGNMENTS    3  3  3  3  3  3  3  3  3  3  3  3  3  3  3  3  3  3  3  3
CENTRE ASSIGNMENTS    3  3  3  4  4  4  4  4  4  4  4  4  4  4  4  4  4  4  4  4
CENTRE ASSIGNMENTS    4  4  4  4  4  4  4  4  4  4  4  4  4  4  4  4  4  4  4  4
CENTRE ASSIGNMENTS    4  4  4  4  4  4  4  4  4  4  4  4  4  4  4  4  4  4  4  4
CENTRE ASSIGNMENTS    4  4  4  4  4  4  4  4  4  4  4  4  4  4  4  4  4  4  4  4
CENTRE ASSIGNMENTS    4  4  4  4  4  4  4  4  4  4  4  4  4  4  4  4  4  4  4  4
CENTRE ASSIGNMENTS    4  4  4  4  4  4  4  4  4  4  4  4  4  4  4  4  4  4  4  4
CENTRE ASSIGNMENTS    4  4  4  4  4  4  4  4  4  4  4  4  4  4  4  4  4  4  4  4
CENTRE ASSIGNMENTS    4  4  4  4  4  4  4  4  4  4  4  4  4  4  4  4  4  4  4  4
CENTRE ASSIGNMENTS    4  4  4  4  4  4  4  4  4  4  4  4  4  4  4  4  4  4  4  4
CENTRE ASSIGNMENTS    4  4  4  4  4  4  4  4  4  4  4  4  4  4  4  4  4  4  4  4
CENTRE ASSIGNMENTS    4  4  4  4  4  4  4  4  4  4  4  4  4  4  4  4  4  4  4  4
TYPE ASSIGNMENTS      1  1  1  1  1  1  1  1  1  1  1  1  1  1  1  1  2  2  2  3
TYPE ASSIGNMENTS      3  3  4  4  4  2  3  4  2  3  4  2  3  4  5  6  7  8  9 10
TYPE ASSIGNMENTS      5  6  7  8  9 10  5  6  7  8  9 10 11 12 13 17 14 15 18 19
TYPE ASSIGNMENTS     16 20 11 12 13 17 14 15 18 19 16 20  1  1  1  1  1  1  1  1
TYPE ASSIGNMENTS      1  1  1  1  1  1  1  1  1  1  1  1  1  1  1  1  1  1  1  1
TYPE ASSIGNMENTS      1  1  1  2  2  2  2  2  2  3  3  3  3  3  3  4  4  4  4  4
TYPE ASSIGNMENTS      4  2  2  2  2  2  2  3  3  3  3  3  3  4  4  4  4  4  4  2
TYPE ASSIGNMENTS      3  4  2  3  4  2  3  4  5  6  7  8  9 10  5  6  7  8  9 10
TYPE ASSIGNMENTS      5  6  7  8  9 10 11 12 13 17 14 15 18 19 16 20 11 12 13 17
TYPE ASSIGNMENTS     14 15 18 19 16 20  1  1  1  1  1  1  1  1  1  1  1  1  1  1
TYPE ASSIGNMENTS      1  1  1  1  1  1  1  1  1  1  1  1  1  1  1  1  1  1  1  1
TYPE ASSIGNMENTS      1  1  1  1  1  1  1  1  1  1  1  1  1  1  1  1  2  2  2  2
TYPE ASSIGNMENTS      2  2  2  2  2  3  3  3  3  3  3  3  3  3  4  4  4  4  4  4
TYPE ASSIGNMENTS      4  4  4  2  2  2  2  2  2  2  2  2  3  3  3  3  3  3  3  3
TYPE ASSIGNMENTS      3  4  4  4  4  4  4  4  4  4  2  2  2  2  2  2  2  2  3  3
TYPE ASSIGNMENTS      3  3  3  3  3  3  4  4  4  4  4  4  4  4  2  3  4  2  3  4
TYPE ASSIGNMENTS      2  3  4  5  5  5  5  5  5  5  6  6  6  6  6  6  6  7  7  7
TYPE ASSIGNMENTS      7  7  7  7  8  8  8  8  8  8  8  9  9  9  9  9  9  9 10 10
TYPE ASSIGNMENTS     10 10 10 10 10  5  6  7  8  9 10  5  6  7  8  9 10  5  6  7
TYPE ASSIGNMENTS      8  9 10 11 12 13 17 14 15 18 19 16 20 11 12 13 17 14 15 18
TYPE ASSIGNMENTS     19 16 20  1  1  1  1  1  1  1  1  1  1  1  1  1  1  1  1  1
TYPE ASSIGNMENTS      1  1  1  1  1  1  1  1  1  1  1  1  1  1  1  1  1  1  1  1
TYPE ASSIGNMENTS      1  1  1  1  1  1  1  1  1  1  1  1  1  2  2  2  2  2  2  2
TYPE ASSIGNMENTS      2  2  3  3  3  3  3  3  3  3  3  4  4  4  4  4  4  4  4  4
TYPE ASSIGNMENTS      2  2  2  2  2  2  2  2  2  3  3  3  3  3  3  3  3  3  4  4
TYPE ASSIGNMENTS      4  4  4  4  4  4  4  2  2  2  2  2  2  2  2  3  3  3  3  3
TYPE ASSIGNMENTS      3  3  3  4  4  4  4  4  4  4  4  2  3  4  2  3  4  2  3  4
TYPE ASSIGNMENTS      5  5  5  5  5  5  5  6  6  6  6  6  6  6  7  7  7  7  7  7
TYPE ASSIGNMENTS      7  8  8  8  8  8  8  8  9  9  9  9  9  9  9 10 10 10 10 10
TYPE ASSIGNMENTS     10 10  5  6  7  8  9 10  5  6  7  8  9 10  5  6  7  8  9 10
TYPE ASSIGNMENTS     11 12 13 17 14 15 18 19 16 20 11 12 13 17 14 15 18 19 16 20
EXPONENTS  0.8236000D+04 0.1235000D+04 0.2808000D+03 0.7927000D+02 0.2559000D+02
EXPONENTS  0.8997000D+01 0.3319000D+01 0.2808000D+03 0.7927000D+02 0.2559000D+02
EXPONENTS  0.8997000D+01 0.3319000D+01 0.3643000D+00 0.9059000D+00 0.1285000D+00
EXPONENTS  0.4402000D-01 0.1871000D+02 0.4133000D+01 0.1200000D+01 0.1871000D+02
EXPONENTS  0.4133000D+01 0.1200000D+01 0.1871000D+02 0.4133000D+01 0.1200000D+01
EXPONENTS  0.3827000D+00 0.3827000D+00 0.3827000D+00 0.1209000D+00 0.1209000D+00
EXPONENTS  0.1209000D+00 0.3569000D-01 0.3569000D-01 0.3569000D-01 0.1097000D+01
EXPONENTS  0.1097000D+01 0.1097000D+01 0.1097000D+01 0.1097000D+01 0.1097000D+01
EXPONENTS  0.3180000D+00 0.3180000D+00 0.3180000D+00 0.3180000D+00 0.3180000D+00
EXPONENTS  0.3180000D+00 0.1000000D+00 0.1000000D+00 0.1000000D+00 0.1000000D+00
EXPONENTS  0.1000000D+00 0.1000000D+00 0.7610000D+00 0.7610000D+00 0.7610000D+00
EXPONENTS  0.7610000D+00 0.7610000D+00 0.7610000D+00 0.7610000D+00 0.7610000D+00
EXPONENTS  0.7610000D+00 0.7610000D+00 0.2680000D+00 0.2680000D+00 0.2680000D+00
EXPONENTS  0.2680000D+00 0.2680000D+00 0.2680000D+00 0.2680000D+00 0.2680000D+00
EXPONENTS  0.2680000D+00 0.2680000D+00 0.3741000D+06 0.5605000D+05 0.1276000D+05
EXPONENTS  0.3615000D+04 0.1183000D+04 0.4288000D+03 0.1678000D+03 0.6947000D+02
EXPONENTS  0.2984000D+02 0.1272000D+02 0.5244000D+01 0.3615000D+04 0.1183000D+04
EXPONENTS  0.4288000D+03 0.1678000D+03 0.6947000D+02 0.2984000D+02 0.1272000D+02
EXPONENTS  0.5244000D+01 0.2219000D+01 0.1183000D+04 0.1678000D+03 0.6947000D+02
EXPONENTS  0.2984000D+02 0.1272000D+02 0.5244000D+01 0.2219000D+01 0.3490000D+00
EXPONENTS  0.7767000D+00 0.1322000D+00 0.4970000D-01 0.5744000D+03 0.1358000D+03
EXPONENTS  0.4319000D+02 0.1587000D+02 0.6208000D+01 0.2483000D+01 0.5744000D+03
EXPONENTS  0.1358000D+03 0.4319000D+02 0.1587000D+02 0.6208000D+01 0.2483000D+01
EXPONENTS  0.5744000D+03 0.1358000D+03 0.4319000D+02 0.1587000D+02 0.6208000D+01
EXPONENTS  0.2483000D+01 0.1358000D+03 0.4319000D+02 0.1587000D+02 0.6208000D+01
EXPONENTS  0.2483000D+01 0.3229000D+00 0.1358000D+03 0.4319000D+02 0.1587000D+02
EXPONENTS  0.6208000D+01 0.2483000D+01 0.3229000D+00 0.1358000D+03 0.4319000D+02
EXPONENTS  0.1587000D+02 0.6208000D+01 0.2483000D+01 0.3229000D+00 0.8688000D+00
EXPONENTS  0.8688000D+00 0.8688000D+00 0.1098000D+00 0.1098000D+00 0.1098000D+00
EXPONENTS  0.3510000D-01 0.3510000D-01 0.3510000D-01 0.2690000D+00 0.2690000D+00
EXPONENTS  0.2690000D+00 0.2690000D+00 0.2690000D+00 0.2690000D+00 0.8190000D+00
EXPONENTS  0.8190000D+00 0.8190000D+00 0.8190000D+00 0.8190000D+00 0.8190000D+00
EXPONENTS  0.1010000D+00 0.1010000D+00 0.1010000D+00 0.1010000D+00 0.1010000D+00
EXPONENTS  0.1010000D+00 0.5570000D+00 0.5570000D+00 0.5570000D+00 0.5570000D+00
EXPONENTS  0.5570000D+00 0.5570000D+00 0.5570000D+00 0.5570000D+00 0.5570000D+00
EXPONENTS  0.5570000D+00 0.2180000D+00 0.2180000D+00 0.2180000D+00 0.2180000D+00
EXPONENTS  0.2180000D+00 0.2180000D+00 0.2180000D+00 0.2180000D+00 0.2180000D+00
EXPONENTS  0.2180000D+00 0.1063900D+08 0.1593400D+07 0.3626100D+06 0.1027000D+06
EXPONENTS  0.3350100D+05 0.1209300D+05 0.4715900D+04 0.1955600D+04 0.8526100D+03
EXPONENTS  0.3876700D+03 0.1826800D+03 0.8824500D+02 0.3926300D+02 0.9405700D+01
EXPONENTS  0.1899500D+01 0.3350100D+05 0.1209300D+05 0.4715900D+04 0.1955600D+04
EXPONENTS  0.8526100D+03 0.3876700D+03 0.1826800D+03 0.8824500D+02 0.3926300D+02
EXPONENTS  0.1923400D+02 0.9405700D+01 0.1899500D+01 0.4715900D+04 0.8526100D+03
EXPONENTS  0.3876700D+03 0.1826800D+03 0.8824500D+02 0.3926300D+02 0.1923400D+02
EXPONENTS  0.9405700D+01 0.4160100D+01 0.1899500D+01 0.4715900D+04 0.8526100D+03
EXPONENTS  0.3876700D+03 0.8824500D+02 0.3926300D+02 0.1923400D+02 0.9405700D+01
EXPONENTS  0.4160100D+01 0.1899500D+01 0.3011400D+00 0.6047200D+00 0.1251500D+00
EXPONENTS  0.4559300D-01 0.8676500D+04 0.2055900D+04 0.6662300D+03 0.2531000D+03
EXPONENTS  0.1061200D+03 0.4724200D+02 0.2182500D+02 0.9968400D+01 0.1998200D+01
EXPONENTS  0.8676500D+04 0.2055900D+04 0.6662300D+03 0.2531000D+03 0.1061200D+03
EXPONENTS  0.4724200D+02 0.2182500D+02 0.9968400D+01 0.1998200D+01 0.8676500D+04
EXPONENTS  0.2055900D+04 0.6662300D+03 0.2531000D+03 0.1061200D+03 0.4724200D+02
EXPONENTS  0.2182500D+02 0.9968400D+01 0.1998200D+01 0.8676500D+04 0.6662300D+03
EXPONENTS  0.2531000D+03 0.1061200D+03 0.4724200D+02 0.2182500D+02 0.9968400D+01
EXPONENTS  0.4517100D+01 0.1998200D+01 0.8676500D+04 0.6662300D+03 0.2531000D+03
EXPONENTS  0.1061200D+03 0.4724200D+02 0.2182500D+02 0.9968400D+01 0.4517100D+01
EXPONENTS  0.1998200D+01 0.8676500D+04 0.6662300D+03 0.2531000D+03 0.1061200D+03
EXPONENTS  0.4724200D+02 0.2182500D+02 0.9968400D+01 0.4517100D+01 0.1998200D+01
EXPONENTS  0.6662300D+03 0.1061200D+03 0.4724200D+02 0.2182500D+02 0.9968400D+01
EXPONENTS  0.4517100D+01 0.1998200D+01 0.2814500D+00 0.6662300D+03 0.1061200D+03
EXPONENTS  0.4724200D+02 0.2182500D+02 0.9968400D+01 0.4517100D+01 0.1998200D+01
EXPONENTS  0.2814500D+00 0.6662300D+03 0.1061200D+03 0.4724200D+02 0.2182500D+02
EXPONENTS  0.9968400D+01 0.4517100D+01 0.1998200D+01 0.2814500D+00 0.7098800D+00
EXPONENTS  0.7098800D+00 0.7098800D+00 0.1020400D+00 0.1020400D+00 0.1020400D+00
EXPONENTS  0.3514200D-01 0.3514200D-01 0.3514200D-01 0.4038300D+03 0.1211700D+03
EXPONENTS  0.4634500D+02 0.1972100D+02 0.8862400D+01 0.3996200D+01 0.1763600D+01
EXPONENTS  0.4038300D+03 0.1211700D+03 0.4634500D+02 0.1972100D+02 0.8862400D+01
EXPONENTS  0.3996200D+01 0.1763600D+01 0.4038300D+03 0.1211700D+03 0.4634500D+02
EXPONENTS  0.1972100D+02 0.8862400D+01 0.3996200D+01 0.1763600D+01 0.4038300D+03
EXPONENTS  0.1211700D+03 0.4634500D+02 0.1972100D+02 0.8862400D+01 0.3996200D+01
EXPONENTS  0.1763600D+01 0.4038300D+03 0.1211700D+03 0.4634500D+02 0.1972100D+02
EXPONENTS  0.8862400D+01 0.3996200D+01 0.1763600D+01 0.4038300D+03 0.1211700D+03
EXPONENTS  0.4634500D+02 0.1972100D+02 0.8862400D+01 0.3996200D+01 0.1763600D+01
EXPONENTS  0.7061900D+00 0.7061900D+00 0.7061900D+00 0.7061900D+00 0.7061900D+00
EXPONENTS  0.7061900D+00 0.2639000D+00 0.2639000D+00 0.2639000D+00 0.2639000D+00
EXPONENTS  0.2639000D+00 0.2639000D+00 0.1047000D+00 0.1047000D+00 0.1047000D+00
EXPONENTS  0.1047000D+00 0.1047000D+00 0.1047000D+00 0.5515000D+00 0.5515000D+00
EXPONENTS  0.5515000D+00 0.5515000D+00 0.5515000D+00 0.5515000D+00 0.5515000D+00
EXPONENTS  0.5515000D+00 0.5515000D+00 0.5515000D+00 0.2580000D+00 0.2580000D+00
EXPONENTS  0.2580000D+00 0.2580000D+00 0.2580000D+00 0.2580000D+00 0.2580000D+00
EXPONENTS  0.2580000D+00 0.2580000D+00 0.2580000D+00 0.1063900D+08 0.1593400D+07
EXPONENTS  0.3626100D+06 0.1027000D+06 0.3350100D+05 0.1209300D+05 0.4715900D+04
EXPONENTS  0.1955600D+04 0.8526100D+03 0.3876700D+03 0.1826800D+03 0.8824500D+02
EXPONENTS  0.3926300D+02 0.9405700D+01 0.1899500D+01 0.3350100D+05 0.1209300D+05
EXPONENTS  0.4715900D+04 0.1955600D+04 0.8526100D+03 0.3876700D+03 0.1826800D+03
EXPONENTS  0.8824500D+02 0.3926300D+02 0.1923400D+02 0.9405700D+01 0.1899500D+01
EXPONENTS  0.4715900D+04 0.8526100D+03 0.3876700D+03 0.1826800D+03 0.8824500D+02
EXPONENTS  0.3926300D+02 0.1923400D+02 0.9405700D+01 0.4160100D+01 0.1899500D+01
EXPONENTS  0.4715900D+04 0.8526100D+03 0.3876700D+03 0.8824500D+02 0.3926300D+02
EXPONENTS  0.1923400D+02 0.9405700D+01 0.4160100D+01 0.1899500D+01 0.3011400D+00
EXPONENTS  0.6047200D+00 0.1251500D+00 0.4559300D-01 0.8676500D+04 0.2055900D+04
EXPONENTS  0.6662300D+03 0.2531000D+03 0.1061200D+03 0.4724200D+02 0.2182500D+02
EXPONENTS  0.9968400D+01 0.1998200D+01 0.8676500D+04 0.2055900D+04 0.6662300D+03
EXPONENTS  0.2531000D+03 0.1061200D+03 0.4724200D+02 0.2182500D+02 0.9968400D+01
EXPONENTS  0.1998200D+01 0.8676500D+04 0.2055900D+04 0.6662300D+03 0.2531000D+03
EXPONENTS  0.1061200D+03 0.4724200D+02 0.2182500D+02 0.9968400D+01 0.1998200D+01
EXPONENTS  0.8676500D+04 0.6662300D+03 0.2531000D+03 0.1061200D+03 0.4724200D+02
EXPONENTS  0.2182500D+02 0.9968400D+01 0.4517100D+01 0.1998200D+01 0.8676500D+04
EXPONENTS  0.6662300D+03 0.2531000D+03 0.1061200D+03 0.4724200D+02 0.2182500D+02
EXPONENTS  0.9968400D+01 0.4517100D+01 0.1998200D+01 0.8676500D+04 0.6662300D+03
EXPONENTS  0.2531000D+03 0.1061200D+03 0.4724200D+02 0.2182500D+02 0.9968400D+01
EXPONENTS  0.4517100D+01 0.1998200D+01 0.6662300D+03 0.1061200D+03 0.4724200D+02
EXPONENTS  0.2182500D+02 0.9968400D+01 0.4517100D+01 0.1998200D+01 0.2814500D+00
EXPONENTS  0.6662300D+03 0.1061200D+03 0.4724200D+02 0.2182500D+02 0.9968400D+01
EXPONENTS  0.4517100D+01 0.1998200D+01 0.2814500D+00 0.6662300D+03 0.1061200D+03
EXPONENTS  0.4724200D+02 0.2182500D+02 0.9968400D+01 0.4517100D+01 0.1998200D+01
EXPONENTS  0.2814500D+00 0.7098800D+00 0.7098800D+00 0.7098800D+00 0.1020400D+00
EXPONENTS  0.1020400D+00 0.1020400D+00 0.3514200D-01 0.3514200D-01 0.3514200D-01
EXPONENTS  0.4038300D+03 0.1211700D+03 0.4634500D+02 0.1972100D+02 0.8862400D+01
EXPONENTS  0.3996200D+01 0.1763600D+01 0.4038300D+03 0.1211700D+03 0.4634500D+02
EXPONENTS  0.1972100D+02 0.8862400D+01 0.3996200D+01 0.1763600D+01 0.4038300D+03
EXPONENTS  0.1211700D+03 0.4634500D+02 0.1972100D+02 0.8862400D+01 0.3996200D+01
EXPONENTS  0.1763600D+01 0.4038300D+03 0.1211700D+03 0.4634500D+02 0.1972100D+02
EXPONENTS  0.8862400D+01 0.3996200D+01 0.1763600D+01 0.4038300D+03 0.1211700D+03
EXPONENTS  0.4634500D+02 0.1972100D+02 0.8862400D+01 0.3996200D+01 0.1763600D+01
EXPONENTS  0.4038300D+03 0.1211700D+03 0.4634500D+02 0.1972100D+02 0.8862400D+01
EXPONENTS  0.3996200D+01 0.1763600D+01 0.7061900D+00 0.7061900D+00 0.7061900D+00
EXPONENTS  0.7061900D+00 0.7061900D+00 0.7061900D+00 0.2639000D+00 0.2639000D+00
EXPONENTS  0.2639000D+00 0.2639000D+00 0.2639000D+00 0.2639000D+00 0.1047000D+00
EXPONENTS  0.1047000D+00 0.1047000D+00 0.1047000D+00 0.1047000D+00 0.1047000D+00
EXPONENTS  0.5515000D+00 0.5515000D+00 0.5515000D+00 0.5515000D+00 0.5515000D+00
EXPONENTS  0.5515000D+00 0.5515000D+00 0.5515000D+00 0.5515000D+00 0.5515000D+00
EXPONENTS  0.2580000D+00 0.2580000D+00 0.2580000D+00 0.2580000D+00 0.2580000D+00
EXPONENTS  0.2580000D+00 0.2580000D+00 0.2580000D+00 0.2580000D+00 0.2580000D+00
MO    1     MO 0.0        OCC NO =    2.0000283  ORB. ENERGY =    0.000000
  0.33999602D-04  0.63382107D-04  0.10712440D-03  0.16102795D-03  0.19779399D-03
  0.16693115D-03  0.62770472D-04  0.63780289D-07  0.47671815D-06  0.17816046D-05
  0.49703993D-05  0.66589648D-05 -0.78629958D-05 -0.11557550D-05 -0.28825320D-04
 -0.77077693D-05  0.16245334D-13  0.15231033D-13  0.10845403D-13 -0.26167450D-02
 -0.24533648D-02 -0.17469419D-02  0.45635648D-04  0.42786321D-04  0.30466409D-04
 -0.40882743D-14 -0.55118710D-03  0.62511284D-06  0.42923852D-14  0.12872947D-02
  0.24729080D-04  0.73675608D-15  0.80490373D-04  0.12793178D-05  0.29611656D-06
 -0.67737456D-05  0.64776290D-05  0.44279014D-14  0.10089660D-14 -0.11881882D-02
  0.10904167D-05  0.42832905D-05 -0.53737072D-05  0.35762482D-14  0.13114031D-13
  0.15760207D-05  0.11213495D-06  0.31547776D-06 -0.42761271D-06 -0.22828489D-14
  0.72396302D-14 -0.32126471D-03 -0.42659132D-14  0.11225640D-03  0.19787541D-05
  0.57422702D-14  0.27517325D-03  0.31823082D-05  0.70554693D-14 -0.61194244D-03
 -0.91185706D-05 -0.52794467D-14  0.16009670D-14 -0.68567516D-04 -0.72157515D-06
 -0.33868523D-14 -0.13798630D-03 -0.18628609D-05 -0.14160488D-14  0.34368885D-03
  0.40275864D-05  0.14267091D-14 -0.90235720D-03 -0.16870477D-02 -0.29157198D-02
 -0.47160567D-02 -0.71281618D-02 -0.98169546D-02 -0.11474825D-01 -0.99173192D-02
 -0.46284645D-02 -0.62705539D-03  0.45863734D-05 -0.11264297D-04 -0.14480140D-03
 -0.52821470D-03 -0.17821833D-02 -0.39144742D-02 -0.50564329D-02  0.81261180D-03
  0.68168471D-02  0.37409978D-02 -0.91420819D-07 -0.10413400D-05 -0.21621972D-05
 -0.59454930D-05  0.77090145D-06  0.26882812D-04  0.67050002D-04 -0.55503021D-04
  0.20376478D-03 -0.17266808D-04 -0.56433465D-05 -0.21231151D-09 -0.27854062D-09
 -0.30549878D-09 -0.25135520D-09 -0.13250017D-09 -0.34474051D-10  0.97042894D+01
  0.12731476D+02  0.13963674D+02  0.11488890D+02  0.60562895D+01  0.15757326D+01
 -0.31778938D-01 -0.41692159D-01 -0.45727275D-01 -0.37623025D-01 -0.19832719D-01
 -0.51601005D-02 -0.12476587D-14 -0.44785498D-13 -0.71053315D-13 -0.84373632D-13
 -0.12767955D-13  0.92922780D-13  0.88543689D-04  0.31783316D-02  0.50425027D-02
  0.59878173D-02  0.90611459D-03 -0.65945322D-02 -0.31555662D-06 -0.11327104D-04
 -0.17970734D-04 -0.21339696D-04 -0.32292584D-05  0.23501938D-04 -0.16047632D-11
  0.67294874D-01 -0.21172082D-03 -0.12766376D-13 -0.32088705D-03  0.64255317D-05
 -0.97410517D-16 -0.28023985D-04  0.14282552D-06 -0.11351356D-05  0.35025240D-05
 -0.23673884D-05 -0.42901023D-15 -0.11348090D-14  0.76800796D-03  0.60893100D-06
 -0.64625549D-05  0.58536239D-05  0.10552895D-14  0.56777003D-14 -0.72854730D-03
  0.12513825D-06 -0.12767225D-06  0.25339999D-08  0.56768382D-15  0.39670526D-14
 -0.41372634D-04 -0.21441564D-14  0.35498443D-05  0.27888638D-06  0.27763500D-14
  0.13850903D-03 -0.49243153D-06  0.36561191D-14 -0.14915856D-03 -0.34422761D-06
  0.34761251D-14  0.61264924D-15  0.31998264D-04  0.22042419D-06  0.37816362D-15
  0.28371749D-05  0.53576605D-06 -0.22161114D-14 -0.98831968D-04 -0.11970386D-05
 -0.65063066D-15  0.30040043D-03  0.56509845D-03  0.97821428D-03  0.16034810D-02
  0.25118775D-02  0.37755562D-02  0.53961574D-02  0.71633873D-02  0.83422820D-02
  0.76614209D-02  0.44786036D-02  0.11751595D-02  0.66814342D-04  0.11658384D-05
  0.11735490D-06  0.15294042D-04  0.44180963D-04  0.20249173D-03  0.59941964D-03
  0.17383344D-02  0.36132886D-02  0.51688522D-02  0.14820750D-02 -0.59225703D-02
 -0.57265525D-02 -0.12499076D-02  0.18092035D-04  0.10222513D-04  0.47690139D-04
  0.96783598D-04  0.37931175D-03  0.26617204D-03 -0.17334131D-02 -0.53712520D-02
 -0.65702440D-03  0.46952894D-02  0.22034991D-02 -0.94891237D-06 -0.13008836D-05
  0.24941084D-05  0.53008005D-05 -0.20038509D-04 -0.64799448D-04 -0.22536263D-04
  0.22042919D-03  0.49167137D-03 -0.32625816D-03 -0.72652834D-04  0.15585427D-02
  0.48466173D-03  0.29317736D-08  0.42066575D-08  0.55700033D-08  0.64323843D-08
  0.59640333D-08  0.38622279D-08  0.13628227D-08  0.15702969D-09 -0.25653827D-12
  0.11907323D+01  0.17085231D+01  0.22622424D+01  0.26124962D+01  0.24222767D+01
  0.15686339D+01  0.55350690D+00  0.63777201D-01 -0.10419235D-03  0.10499857D+01
  0.15065728D+01  0.19948416D+01  0.23036948D+01  0.21359595D+01  0.13832187D+01
  0.48808146D+00  0.56238629D-01 -0.91876642D-04 -0.52291739D-11  0.14909306D-10
  0.72774241D-10  0.15080207D-09  0.18924171D-09  0.30010331D-10 -0.24292349D-09
 -0.21186451D-09 -0.54462924D-10 -0.72154477D-02  0.20572527D-01  0.10041715D+00
  0.20808343D+00  0.26112416D+00  0.41409596D-01 -0.33519668D+00 -0.29234011D+00
 -0.75150375D-01 -0.64865342D-02  0.18494265D-01  0.90272885D-01  0.18706258D+00
  0.23474508D+00  0.37226347D-01 -0.30133470D+00 -0.26280755D+00 -0.67558592D-01
  0.51318260D-14  0.72499301D-14 -0.33733546D-14  0.67602345D-14  0.74212243D-14
  0.20032211D-13  0.63126788D-14 -0.13553456D-13 -0.77927858D-04 -0.11009171D-03
  0.51225100D-04 -0.10265558D-03 -0.11269285D-03 -0.30419333D-03 -0.95859356D-04
  0.20581207D-03  0.57327877D-04  0.80989321D-04 -0.37683908D-04  0.75518907D-04
  0.82902857D-04  0.22378079D-03  0.70519241D-04 -0.15140631D-03 -0.18350834D-11
 -0.30989088D-02 -0.29171536D-02 -0.15177976D-13  0.38862870D-03  0.16913970D-03
  0.15334894D-15  0.14895734D-04  0.12433095D-04  0.15431054D+00  0.16146935D+00
  0.13758053D+00  0.90607179D-01  0.41758151D-01  0.12504546D-01  0.21275425D-02
 -0.15378549D+00 -0.16091995D+00 -0.13711241D+00 -0.90298887D-01 -0.41616069D-01
 -0.12461999D-01 -0.21203035D-02 -0.52504253D-03 -0.54940043D-03 -0.46811857D-03
 -0.30829147D-03 -0.14208236D-03 -0.42546793D-04 -0.72389761D-05 -0.30937347D-10
 -0.32372600D-10 -0.27583188D-10 -0.18165614D-10 -0.83719909D-11 -0.25070062D-11
 -0.42654585D-12  0.18394439D-10  0.19247798D-10  0.16400154D-10  0.10800742D-10
  0.49777402D-11  0.14905924D-11  0.25361165D-12 -0.49539052D+00 -0.51837281D+00
 -0.44168138D+00 -0.29088058D+00 -0.13405820D+00 -0.40143944D-01 -0.68301518D-02
  0.70176994D-04 -0.11967993D-03  0.49502936D-04 -0.38644391D-13  0.73686455D-14
 -0.36860949D-03 -0.54097124D-04  0.57091415D-04 -0.29942902D-05  0.45536947D-14
  0.29537125D-14  0.93008839D-04 -0.15592482D-04  0.18554635D-04 -0.29621529D-05
  0.85353889D-15 -0.35942794D-15  0.64141263D-04  0.38215960D-14  0.27943093D-04
  0.32217959D-04 -0.11677643D-13 -0.50420750D-04 -0.39140700D-04  0.21285546D-15
 -0.33408529D-04 -0.57513177D-04 -0.19109336D-13 -0.84505463D-15 -0.17415373D-05
 -0.15465562D-05  0.25527729D-14  0.12771803D-04  0.25239298D-05 -0.17609027D-16
 -0.75471907D-05  0.21157387D-05  0.30028559D-14 -0.43537560D-03 -0.81900708D-03
 -0.14177431D-02 -0.23239531D-02 -0.36405080D-02 -0.54719797D-02 -0.78207455D-02
 -0.10382023D-01 -0.12090615D-01 -0.11103831D-01 -0.64909185D-02 -0.17031792D-02
 -0.96835196D-04 -0.16896700D-05 -0.17008451D-06 -0.21740240D-04 -0.62802543D-04
 -0.28783881D-03 -0.85206556D-03 -0.24710150D-02 -0.51362327D-02 -0.73474420D-02
 -0.21067463D-02  0.84188403D-02  0.81402041D-02  0.17767240D-02 -0.25717542D-04
 -0.14091969D-04 -0.65741952D-04 -0.13341841D-03 -0.52288996D-03 -0.36692427D-03
  0.23895497D-02  0.74043942D-02  0.90572323D-03 -0.64725643D-02 -0.30375742D-02
  0.97912547D-06  0.13423033D-05 -0.25735201D-05 -0.54695765D-05  0.20676530D-04
  0.66862644D-04  0.23253811D-04 -0.22744759D-03 -0.50732604D-03  0.33664612D-03
  0.41149203D-04 -0.15194151D-02 -0.47286926D-03  0.37803705D-08  0.54242675D-08
  0.71822313D-08  0.82942271D-08  0.76903127D-08  0.49801433D-08  0.17572894D-08
  0.20248167D-09 -0.33079284D-12  0.11963893D+01  0.17166400D+01  0.22729900D+01
  0.26249078D+01  0.24337846D+01  0.15760862D+01  0.55613653D+00  0.64080197D-01
 -0.10468736D-03 -0.10306949D+01 -0.14788933D+01 -0.19581914D+01 -0.22613702D+01
 -0.20967167D+01 -0.13578056D+01 -0.47911419D+00 -0.55205386D-01  0.90188641D-04
 -0.15221652D-11  0.43399640D-11  0.21183923D-10  0.43897116D-10  0.55086547D-10
  0.87357357D-11 -0.70712828D-10 -0.61671839D-10 -0.15853664D-10 -0.72663391D-02
  0.20717627D-01  0.10112540D+00  0.20955106D+00  0.26296590D+00  0.41701662D-01
 -0.33756087D+00 -0.29440202D+00 -0.75680420D-01  0.63703199D-02 -0.18162917D-01
 -0.88655534D-01 -0.18371112D+00 -0.23053933D+00 -0.36559391D-01  0.29593592D+00
  0.25809903D+00  0.66348196D-01  0.91705375D-15  0.12955575D-14 -0.60281613D-15
  0.12080492D-14  0.13261676D-14  0.35797421D-14  0.11280713D-14 -0.24219931D-14
 -0.68976844D-04 -0.97446269D-04  0.45341240D-04 -0.90864273D-04 -0.99748633D-04
 -0.26925283D-03 -0.84848679D-04  0.18217192D-03 -0.58676448D-04 -0.82894499D-04
  0.38570377D-04 -0.77295400D-04 -0.84853048D-04 -0.22904497D-03 -0.72178123D-04
  0.15496796D-03 -0.57680694D-12 -0.31419240D-02  0.28761577D-02  0.21243382D-14
  0.38031978D-03 -0.16395088D-03 -0.10246754D-15  0.14651920D-04 -0.12240557D-04
 -0.14197275D+00 -0.14855919D+00 -0.12658038D+00 -0.83362751D-01 -0.38419410D-01
 -0.11504754D-01 -0.19574364D-02  0.14496256D+00  0.15168770D+00  0.12924604D+00
  0.85118287D-01  0.39228484D-01  0.11747033D-01  0.19986581D-02 -0.29898034D-02
 -0.31285071D-02 -0.26656555D-02 -0.17555357D-02 -0.80907412D-03 -0.24227855D-03
 -0.41221642D-04  0.46161596D-10  0.48303136D-10  0.41156857D-10  0.27104902D-10
  0.12491842D-10  0.37407024D-11  0.63644880D-12  0.47606822D-10  0.49815410D-10
  0.42445396D-10  0.27953502D-10  0.12882937D-10  0.38578163D-11  0.65637473D-12
 -0.46192847D+00 -0.48335837D+00 -0.41184720D+00 -0.27123252D+00 -0.12500299D+00
 -0.37432349D-01 -0.63687968D-02 -0.60448684D-04  0.11421531D-03 -0.53766627D-04
  0.46827857D-13  0.35114850D-13 -0.33729618D-03  0.55332753D-04 -0.56857514D-04
  0.15247608D-05 -0.44695543D-14  0.33103244D-14  0.94486543D-04  0.15788271D-04
 -0.18650900D-04  0.28626292D-05 -0.24974726D-14  0.10718331D-14  0.63603894D-04
  0.19758665D-14  0.27816390D-04 -0.31597867D-04 -0.66406831D-14 -0.53218890D-04
  0.40487079D-04  0.71308372D-15 -0.30230279D-04  0.54306523D-04  0.70775662D-14
 -0.99609746D-15 -0.16740115D-05  0.12210017D-05  0.28945616D-14  0.12200062D-04
 -0.20558827D-05  0.93730748D-16 -0.71780271D-05 -0.16071223D-05 -0.33703132D-14
MO    2     MO 0.0        OCC NO =    2.0000240  ORB. ENERGY =    0.000000
 -0.58955502D-01 -0.10990493D+00 -0.18575431D+00 -0.27922337D+00 -0.34297590D+00
 -0.28945956D+00 -0.10884435D+00 -0.10356867D-04 -0.77411165D-04 -0.28930320D-03
 -0.80711087D-03 -0.10813061D-02  0.12768208D-02 -0.44802741D-02 -0.17438622D-02
 -0.31708890D-03 -0.23304832D-12 -0.21849762D-12 -0.15558332D-12  0.33355779D-04
  0.31273163D-04  0.22268355D-04  0.22930950D-02  0.21499223D-02  0.15308728D-02
 -0.14031372D-13  0.62618878D-05 -0.21677363D-03  0.13364919D-13 -0.21453470D-04
 -0.96658120D-03 -0.11514918D-14 -0.13183965D-05  0.10651920D-05  0.12466276D-03
  0.11454589D-04 -0.13611735D-03  0.21981969D-14 -0.83597328D-13 -0.43879719D-05
  0.11850553D-03  0.12839176D-03 -0.24689729D-03  0.72256834D-14  0.32809341D-13
 -0.18556746D-05  0.23563534D-04  0.10023684D-03 -0.12380037D-03  0.13437267D-16
 -0.91820144D-14  0.41927893D-05  0.10411032D-13  0.55501305D-06 -0.98063953D-05
 -0.18876478D-14 -0.29186467D-05 -0.90576619D-04 -0.29345448D-13  0.12536075D-05
  0.11999580D-03  0.31066560D-16 -0.69730879D-14 -0.83544506D-06  0.13254005D-04
 -0.25664566D-15  0.16807011D-05  0.44738647D-04  0.21175909D-13  0.82563409D-06
 -0.84500661D-04 -0.16198013D-14 -0.12703794D+00 -0.23751023D+00 -0.41048827D+00
 -0.66394786D+00 -0.10035350D+01 -0.13820754D+01 -0.16154779D+01 -0.13962052D+01
 -0.65161624D+00 -0.88279703D-01  0.64569046D-03 -0.15829928D-02 -0.20349213D-01
 -0.74231005D-01 -0.25045357D+00 -0.55010842D+00 -0.71059003D+00  0.11419786D+00
  0.95798434D+00  0.52572945D+00 -0.12725925D-04 -0.14495620D-03 -0.30098133D-03
 -0.82762222D-03  0.10731073D-03  0.37421308D-02  0.93334684D-02 -0.77261100D-02
  0.29340763D-01  0.18107056D-02  0.12899481D-03  0.93733732D-09  0.12297333D-08
  0.13487512D-08  0.11097119D-08  0.58497701D-09  0.15220002D-09 -0.18520052D-01
 -0.24297255D-01 -0.26648830D-01 -0.21925854D-01 -0.11558064D-01 -0.30071908D-02
  0.62309214D+01  0.81746145D+01  0.89657830D+01  0.73767762D+01  0.38886170D+01
  0.10117450D+01  0.54506267D-14  0.19565369D-12  0.31040948D-12  0.36860173D-12
  0.55779157D-13 -0.40595026D-12 -0.13079935D-06 -0.46951252D-05 -0.74489339D-05
 -0.88453805D-05 -0.13385392D-05  0.97416375D-05  0.57974055D-04  0.20810153D-02
  0.33015829D-02  0.39205284D-02  0.59327929D-03 -0.43177755D-02  0.71478804D-11
 -0.11670928D-03  0.45892916D-01  0.10261189D-13 -0.87997553D-05 -0.77421378D-03
 -0.10557646D-14  0.21363731D-06 -0.50014177D-05 -0.24704965D-03 -0.13338606D-03
  0.38043571D-03  0.69871350D-15  0.56489674D-13  0.41925892D-05  0.21031112D-03
 -0.39854013D-03  0.18822901D-03  0.10521877D-14 -0.39530276D-13  0.11189027D-04
 -0.54281933D-05 -0.30827776D-04  0.36255970D-04 -0.59810451D-16 -0.35201267D-14
  0.21345354D-05  0.10268787D-13  0.44768694D-06 -0.74212589D-04 -0.72004981D-14
  0.67552862D-06  0.20818833D-03 -0.23605863D-13 -0.20185894D-05  0.14449439D-04
 -0.11894441D-14  0.66021902D-15  0.15641085D-06 -0.20802192D-04  0.27548218D-14
  0.11557084D-06  0.19384501D-04 -0.47354789D-14 -0.58480340D-06  0.43022077D-04
 -0.41308402D-16  0.57550987D-03  0.10826208D-02  0.18740718D-02  0.30719635D-02
  0.48122777D-02  0.72332450D-02  0.10338008D-01  0.13723683D-01  0.15982220D-01
  0.14677820D-01  0.85801494D-02  0.22513812D-02  0.12800353D-03  0.22335239D-05
  0.22482959D-06  0.27368440D-04  0.79061115D-04  0.36235566D-03  0.10726517D-02
  0.31107212D-02  0.64659211D-02  0.92495770D-02  0.26521491D-02 -0.10598343D-01
 -0.10247573D-01 -0.22366893D-02  0.32375402D-04  0.17374860D-04  0.81057317D-04
  0.16449981D-03  0.64470336D-03  0.45240361D-03 -0.29462236D-02 -0.91293354D-02
 -0.11167222D-02  0.79804246D-02  0.37452130D-02 -0.20524199D-06 -0.28137049D-06
  0.53945528D-06  0.11465199D-05 -0.43341659D-05 -0.14015591D-04 -0.48744095D-05
  0.47677033D-04  0.10634450D-03 -0.70566974D-04  0.81098137D-04 -0.31136567D-03
  0.70503756D-04 -0.65367439D-09 -0.93792518D-09 -0.12418996D-08 -0.14341779D-08
 -0.13297534D-08 -0.86113043D-09 -0.30385780D-09 -0.35011668D-10  0.57198310D-13
  0.25732571D+00  0.36922399D+00  0.48888668D+00  0.56457902D+00  0.52347122D+00
  0.33899294D+00  0.11961678D+00  0.13782707D-01 -0.22516709D-04  0.32335731D+00
  0.46396947D+00  0.61433845D+00  0.70945399D+00  0.65779764D+00  0.42598092D+00
  0.15031129D+00  0.17319447D-01 -0.28294655D-04  0.32274727D-11 -0.92020997D-11