 Entering Gaussian System, Link 0=/home/bruns/programas/chemistry/gaussian/g09/g09
 Input=GAUSSIAN.com
 Output=GAUSSIAN.log
 Initial command:
 /home/bruns/programas/chemistry/gaussian/g09/l1.exe /home/bruns/programas/chemistry/gaussian/work/Gau-7698.inp -scrdir=/home/bruns/programas/chemistry/gaussian/work/
 Entering Link 1 = /home/bruns/programas/chemistry/gaussian/g09/l1.exe PID=      7700.
  
 Copyright (c) 1988,1990,1992,1993,1995,1998,2003,2009,2010,
            Gaussian, Inc.  All Rights Reserved.
  
 This is part of the Gaussian(R) 09 program.  It is based on
 the Gaussian(R) 03 system (copyright 2003, Gaussian, Inc.),
 the Gaussian(R) 98 system (copyright 1998, Gaussian, Inc.),
 the Gaussian(R) 94 system (copyright 1995, Gaussian, Inc.),
 the Gaussian 92(TM) system (copyright 1992, Gaussian, Inc.),
 the Gaussian 90(TM) system (copyright 1990, Gaussian, Inc.),
 the Gaussian 88(TM) system (copyright 1988, Gaussian, Inc.),
 the Gaussian 86(TM) system (copyright 1986, Carnegie Mellon
 University), and the Gaussian 82(TM) system (copyright 1983,
 Carnegie Mellon University). Gaussian is a federally registered
 trademark of Gaussian, Inc.
  
 This software contains proprietary and confidential information,
 including trade secrets, belonging to Gaussian, Inc.
  
 This software is provided under written license and may be
 used, copied, transmitted, or stored only in accord with that
 written license.
  
 The following legend is applicable only to US Government
 contracts under FAR:
  
                    RESTRICTED RIGHTS LEGEND
  
 Use, reproduction and disclosure by the US Government is
 subject to restrictions as set forth in subparagraphs (a)
 and (c) of the Commercial Computer Software - Restricted
 Rights clause in FAR 52.227-19.
  
 Gaussian, Inc.
 340 Quinnipiac St., Bldg. 40, Wallingford CT 06492
  
  
 ---------------------------------------------------------------
 Warning -- This program may not be used in any manner that
 competes with the business of Gaussian, Inc. or will provide
 assistance to any competitor of Gaussian, Inc.  The licensee
 of this program is prohibited from giving any competitor of
 Gaussian, Inc. access to this program.  By using this program,
 the user acknowledges that Gaussian, Inc. is engaged in the
 business of creating and licensing software in the field of
 computational chemistry and represents and warrants to the
 licensee that it is not a competitor of Gaussian, Inc. and that
 it will not use this program in any manner prohibited above.
 ---------------------------------------------------------------
  

 Cite this work as:
 Gaussian 09, Revision B.01,
 M. J. Frisch, G. W. Trucks, H. B. Schlegel, G. E. Scuseria, 
 M. A. Robb, J. R. Cheeseman, G. Scalmani, V. Barone, B. Mennucci, 
 G. A. Petersson, H. Nakatsuji, M. Caricato, X. Li, H. P. Hratchian, 
 A. F. Izmaylov, J. Bloino, G. Zheng, J. L. Sonnenberg, M. Hada, 
 M. Ehara, K. Toyota, R. Fukuda, J. Hasegawa, M. Ishida, T. Nakajima, 
 Y. Honda, O. Kitao, H. Nakai, T. Vreven, J. A. Montgomery, Jr., 
 J. E. Peralta, F. Ogliaro, M. Bearpark, J. J. Heyd, E. Brothers, 
 K. N. Kudin, V. N. Staroverov, T. Keith, R. Kobayashi, J. Normand, 
 K. Raghavachari, A. Rendell, J. C. Burant, S. S. Iyengar, J. Tomasi, 
 M. Cossi, N. Rega, J. M. Millam, M. Klene, J. E. Knox, J. B. Cross, 
 V. Bakken, C. Adamo, J. Jaramillo, R. Gomperts, R. E. Stratmann, 
 O. Yazyev, A. J. Austin, R. Cammi, C. Pomelli, J. W. Ochterski, 
 R. L. Martin, K. Morokuma, V. G. Zakrzewski, G. A. Voth, 
 P. Salvador, J. J. Dannenberg, S. Dapprich, A. D. Daniels, 
 O. Farkas, J. B. Foresman, J. V. Ortiz, J. Cioslowski, 
 and D. J. Fox, Gaussian, Inc., Wallingford CT, 2010.
 
 ******************************************
 Gaussian 09:  EM64L-G09RevB.01 12-Aug-2010
                29-Nov-2021 
 ******************************************
 %nproc=8
 Will use up to    8 processors via shared memory.
 %mem=8GB
 -----------------------------------------------------
 # qcisd/aug-cc-pvtz nosymm density=current output=wfn
 -----------------------------------------------------
 1/30=1,38=1/1;
 2/12=2,15=1,17=6,18=5,40=1/2;
 3/5=16,6=1,7=10,11=9,16=1,25=1,30=1,71=1/1,2,3;
 4//1;
 5/5=2,38=5/2;
 8/6=4,9=120000,10=1/1,4;
 9/5=8,15=1/13;
 11/28=-7,31=1,32=3,42=3/11;
 10/5=6,13=10,31=1/2;
 6/7=2,8=2,9=2,10=2,22=-1,31=1/1;
 99/5=1,6=1100,9=1/99;
 ------------------
 br2cs-wavefunction
 ------------------
 Symbolic Z-matrix:
 Charge =  0 Multiplicity = 1
 C                     0.        0.       -0.51945 
 S                     0.01      0.        1.08369 
 Br                    0.       -1.56852  -1.57857 
 Br                    0.        1.56852  -1.57857 
 
                          Input orientation:                          
 ---------------------------------------------------------------------
 Center     Atomic      Atomic             Coordinates (Angstroms)
 Number     Number       Type             X           Y           Z
 ---------------------------------------------------------------------
      1          6           0        0.000000    0.000000   -0.519451
      2         16           0        0.010000    0.000000    1.083692
      3         35           0        0.000000   -1.568516   -1.578570
      4         35           0        0.000000    1.568516   -1.578570
 ---------------------------------------------------------------------
                    Distance matrix (angstroms):
                    1          2          3          4
     1  C    0.000000
     2  S    1.603174   0.000000
     3  Br   1.892611   3.089981   0.000000
     4  Br   1.892611   3.089981   3.137032   0.000000
 Symmetry turned off by external request.
 Stoichiometry    CBr2S
 Framework group  CS[SG(CS),X(Br2)]
 Deg. of freedom     4
 Full point group                 CS      NOp   2
 Rotational constants (GHZ):      2.6233313      1.3014611      0.8698971
 Standard basis: Aug-CC-pVTZ (5D, 7F)
 Integral buffers will be    131072 words long.
 Raffenetti 1 integral format.
 Two-electron integral symmetry is turned off.
   214 basis functions,   620 primitive gaussians,   252 cartesian basis functions
    46 alpha electrons       46 beta electrons
       nuclear repulsion energy       547.5688546430 Hartrees.
 NAtoms=    4 NActive=    4 NUniq=    4 SFac= 1.00D+00 NAtFMM=   50 NAOKFM=F Big=F
 One-electron integrals computed using PRISM.
 NBasis=   214 RedAO= T  NBF=   214
 NBsUse=   214 1.00D-06 NBFU=   214
 Harris functional with IExCor=  205 diagonalized for initial guess.
 ExpMin= 3.51D-02 ExpMax= 1.06D+07 ExpMxC= 1.21D+04 IAcc=3 IRadAn=         0 AccDes= 0.00D+00
 HarFok:  IExCor=  205 AccDes= 0.00D+00 IRadAn=         0 IDoV= 1
 ScaDFX=  1.000000  1.000000  1.000000  1.000000
 FoFCou: FMM=F IPFlag=           0 FMFlag=      100000 FMFlg1=           0
         NFxFlg=           0 DoJE=T BraDBF=F KetDBF=T FulRan=T
         Omega=  0.000000  0.000000  1.000000  0.000000  0.000000 ICntrl=     500 IOpCl=  0
         NMat0=    1 NMatS0=    1 NMatT0=    0 NMatD0=    1 NMtDS0=    0 NMtDT0=    0
         I1Cent=           4 NGrid=           0.
 Symmetry not used in FoFCou.
 Requested convergence on RMS density matrix=1.00D-08 within 128 cycles.
 Requested convergence on MAX density matrix=1.00D-06.
 Requested convergence on             energy=1.00D-06.
 No special actions if energy rises.
 Keep R1 ints in memory in canonical form, NReq=516428601.
 SCF Done:  E(RHF) =  -5580.30867730     A.U. after   14 cycles
             Convg  =    0.3245D-08             -V/T =  2.0000
 ExpMin= 3.51D-02 ExpMax= 1.06D+07 ExpMxC= 1.21D+04 IAcc=3 IRadAn=         5 AccDes= 0.00D+00
 HarFok:  IExCor=  205 AccDes= 0.00D+00 IRadAn=         5 IDoV=-2
 ScaDFX=  1.000000  1.000000  1.000000  1.000000
 DSYEVD returned Info=          89 IAlg= 4 N=    59 NDim=    59 NE2=    18196455 trying DSYEV.
 Range of M.O.s used for correlation:    25   214
 NBasis=   214 NAE=    46 NBE=    46 NFC=    24 NFV=     0
 NROrb=    190 NOA=    22 NOB=    22 NVA=   168 NVB=   168

 **** Warning!!: The largest alpha MO coefficient is  0.30764136D+02

 Semi-Direct transformation.
 ModeAB=           2 MOrb=            22 LenV=    1072457083
 LASXX=     69628944 LTotXX=    69628944 LenRXX=    69628944
 LTotAB=    70719517 MaxLAS=   133250040 LenRXY=   133250040
 NonZer=   139257888 LenScr=   209707008 LnRSAI=           0
 LnScr1=           0 LExtra=           0 Total=    412585992
 MaxDsk=          -1 SrtSym=           F ITran=            4
 JobTyp=0 Pass  1:  I=   1 to  22.
 (rs|ai) integrals will be sorted in core.
 Spin components of T(2) and E(2):
     alpha-alpha T2 =       0.4287488857D-01 E2=     -0.1154001997D+00
     alpha-beta  T2 =       0.2166602021D+00 E2=     -0.5793051877D+00
     beta-beta   T2 =       0.4287488857D-01 E2=     -0.1154001997D+00
 ANorm=    0.1141231782D+01
 E2 =    -0.8101055871D+00 EUMP2 =    -0.55811187828848D+04
 R2 and R3 integrals will be kept in memory, NReq=  1024335774.
 Iterations=  50 Convergence= 0.100D-07
 Iteration Nr.   1
 **********************
 DD1Dir will call FoFMem   1 times, MxPair=       506
 NAB=   253 NAA=     0 NBB=     0.
 MP4(R+Q)=  0.23474787D-01
 E3=       -0.12177647D-01        EUMP3=      -0.55811309605D+04
 E4(DQ)=   -0.51040438D-03        UMP4(DQ)=   -0.55811314709D+04
 E4(SDQ)=  -0.10185966D-01        UMP4(SDQ)=  -0.55811411465D+04
 DE(Corr)= -0.79880845     E(Corr)=     -5581.1074857    
 NORM(A)=   0.11410207D+01
 Iteration Nr.   2
 **********************
 DD1Dir will call FoFMem   1 times, MxPair=       506
 NAB=   253 NAA=     0 NBB=     0.
 DE(Corr)= -0.82757810     E(CORR)=     -5581.1362554     Delta=-2.88D-02
 NORM(A)=   0.11532089D+01
 Iteration Nr.   3
 **********************
 DD1Dir will call FoFMem   1 times, MxPair=       506
 NAB=   253 NAA=     0 NBB=     0.
 DE(Corr)= -0.82617021     E(CORR)=     -5581.1348475     Delta= 1.41D-03
 NORM(A)=   0.11560454D+01
 Iteration Nr.   4
 **********************
 DD1Dir will call FoFMem   1 times, MxPair=       506
 NAB=   253 NAA=     0 NBB=     0.
 DE(Corr)= -0.82852145     E(CORR)=     -5581.1371987     Delta=-2.35D-03
 NORM(A)=   0.11573524D+01
 Iteration Nr.   5
 **********************
 DD1Dir will call FoFMem   1 times, MxPair=       506
 NAB=   253 NAA=     0 NBB=     0.
 DE(Corr)= -0.82883063     E(CORR)=     -5581.1375079     Delta=-3.09D-04
 NORM(A)=   0.11579895D+01
 Iteration Nr.   6
 **********************
 DD1Dir will call FoFMem   1 times, MxPair=       506
 NAB=   253 NAA=     0 NBB=     0.
 DE(Corr)= -0.82889536     E(CORR)=     -5581.1375727     Delta=-6.47D-05
 NORM(A)=   0.11580695D+01
 Iteration Nr.   7
 **********************
 DD1Dir will call FoFMem   1 times, MxPair=       506
 NAB=   253 NAA=     0 NBB=     0.
 DE(Corr)= -0.82890718     E(CORR)=     -5581.1375845     Delta=-1.18D-05
 NORM(A)=   0.11580863D+01
 Iteration Nr.   8
 **********************
 DD1Dir will call FoFMem   1 times, MxPair=       506
 NAB=   253 NAA=     0 NBB=     0.
 DE(Corr)= -0.82890330     E(CORR)=     -5581.1375806     Delta= 3.88D-06
 NORM(A)=   0.11580947D+01
 Iteration Nr.   9
 **********************
 DD1Dir will call FoFMem   1 times, MxPair=       506
 NAB=   253 NAA=     0 NBB=     0.
 DE(Corr)= -0.82890499     E(CORR)=     -5581.1375823     Delta=-1.69D-06
 NORM(A)=   0.11580953D+01
 Iteration Nr.  10
 **********************
 DD1Dir will call FoFMem   1 times, MxPair=       506
 NAB=   253 NAA=     0 NBB=     0.
 DE(Corr)= -0.82890511     E(CORR)=     -5581.1375824     Delta=-1.17D-07
 NORM(A)=   0.11580990D+01
 Iteration Nr.  11
 **********************
 DD1Dir will call FoFMem   1 times, MxPair=       506
 NAB=   253 NAA=     0 NBB=     0.
 DE(Corr)= -0.82890669     E(CORR)=     -5581.1375840     Delta=-1.58D-06
 NORM(A)=   0.11581010D+01
 Iteration Nr.  12
 **********************
 DD1Dir will call FoFMem   1 times, MxPair=       506
 NAB=   253 NAA=     0 NBB=     0.
 DE(Corr)= -0.82890677     E(CORR)=     -5581.1375841     Delta=-7.85D-08
 NORM(A)=   0.11581026D+01
 Iteration Nr.  13
 **********************
 DD1Dir will call FoFMem   1 times, MxPair=       506
 NAB=   253 NAA=     0 NBB=     0.
 DE(Corr)= -0.82890740     E(CORR)=     -5581.1375847     Delta=-6.35D-07
 NORM(A)=   0.11581036D+01
 Iteration Nr.  14
 **********************
 DD1Dir will call FoFMem   1 times, MxPair=       506
 NAB=   253 NAA=     0 NBB=     0.
 DE(Corr)= -0.82890741     E(CORR)=     -5581.1375847     Delta=-1.18D-08
 NORM(A)=   0.11581040D+01
 Iteration Nr.  15
 **********************
 DD1Dir will call FoFMem   1 times, MxPair=       506
 NAB=   253 NAA=     0 NBB=     0.
 DE(Corr)= -0.82890753     E(CORR)=     -5581.1375848     Delta=-1.15D-07
 NORM(A)=   0.11581042D+01
 Iteration Nr.  16
 **********************
 DD1Dir will call FoFMem   1 times, MxPair=       506
 NAB=   253 NAA=     0 NBB=     0.
 DE(Corr)= -0.82890756     E(CORR)=     -5581.1375849     Delta=-2.83D-08
 NORM(A)=   0.11581043D+01
 Iteration Nr.  17
 **********************
 DD1Dir will call FoFMem   1 times, MxPair=       506
 NAB=   253 NAA=     0 NBB=     0.
 DE(Corr)= -0.82890754     E(CORR)=     -5581.1375848     Delta= 1.33D-08
 NORM(A)=   0.11581043D+01
 Iteration Nr.  18
 **********************
 DD1Dir will call FoFMem   1 times, MxPair=       506
 NAB=   253 NAA=     0 NBB=     0.
 DE(Corr)= -0.82890756     E(CORR)=     -5581.1375849     Delta=-1.50D-08
 NORM(A)=   0.11581043D+01
 Iteration Nr.  19
 **********************
 DD1Dir will call FoFMem   1 times, MxPair=       506
 NAB=   253 NAA=     0 NBB=     0.
 DE(Corr)= -0.82890756     E(CORR)=     -5581.1375849     Delta=-3.48D-09
 NORM(A)=   0.11581043D+01
 Iteration Nr.  20
 **********************
 DD1Dir will call FoFMem   1 times, MxPair=       506
 NAB=   253 NAA=     0 NBB=     0.
 DE(Corr)= -0.82890757     E(CORR)=     -5581.1375849     Delta=-2.76D-09
 NORM(A)=   0.11581044D+01
 Iteration Nr.  21
 **********************
 DD1Dir will call FoFMem   1 times, MxPair=       506
 NAB=   253 NAA=     0 NBB=     0.
 DE(Corr)= -0.82890756     E(CORR)=     -5581.1375849     Delta= 9.91D-09
 NORM(A)=   0.11581043D+01
 Iteration Nr.  22
 **********************
 DD1Dir will call FoFMem   1 times, MxPair=       506
 NAB=   253 NAA=     0 NBB=     0.
 DE(Corr)= -0.82890757     E(CORR)=     -5581.1375849     Delta=-1.26D-08
 NORM(A)=   0.11581043D+01
 Iteration Nr.  23
 **********************
 DD1Dir will call FoFMem   1 times, MxPair=       506
 NAB=   253 NAA=     0 NBB=     0.
 DE(Corr)= -0.82890756     E(CORR)=     -5581.1375849     Delta= 8.12D-09
 NORM(A)=   0.11581043D+01
 Iteration Nr.  24
 **********************
 DD1Dir will call FoFMem   1 times, MxPair=       506
 NAB=   253 NAA=     0 NBB=     0.
 DE(Corr)= -0.82890756     E(CORR)=     -5581.1375849     Delta=-2.49D-09
 NORM(A)=   0.11581043D+01
 Largest amplitude= 7.67D-02

 Z-AMPLITUDE ITERATIONS

 Iteration Nr.   1
 **********************
 DD1Dir will call FoFMem   1 times, MxPair=       506
 NAB=   253 NAA=     0 NBB=     0.
 DE(Z)  -0.79824750D+00          E(Z)=    -0.55811069248D+04
 NORM(A)=   0.11589868D+01
 Iteration Nr.   2
 **********************
 DD1Dir will call FoFMem   1 times, MxPair=       506
 NAB=   253 NAA=     0 NBB=     0.
 DE(Z)  -0.79825394D+00          E(Z)=    -0.55811069312D+04
 NORM(A)=   0.11583293D+01
 Iteration Nr.   3
 **********************
 DD1Dir will call FoFMem   1 times, MxPair=       506
 NAB=   253 NAA=     0 NBB=     0.
 DE(Z)  -0.79824892D+00          E(Z)=    -0.55811069262D+04
 NORM(A)=   0.11589178D+01
 Iteration Nr.   4
 **********************
 DD1Dir will call FoFMem   1 times, MxPair=       506
 NAB=   253 NAA=     0 NBB=     0.
 DE(Z)  -0.79825349D+00          E(Z)=    -0.55811069308D+04
 NORM(A)=   0.11591045D+01
 Iteration Nr.   5
 **********************
 DD1Dir will call FoFMem   1 times, MxPair=       506
 NAB=   253 NAA=     0 NBB=     0.
 DE(Z)  -0.79825667D+00          E(Z)=    -0.55811069340D+04
 NORM(A)=   0.11448433D+01
 Iteration Nr.   6
 **********************
 DD1Dir will call FoFMem   1 times, MxPair=       506
 NAB=   253 NAA=     0 NBB=     0.
 DE(Z)  -0.79813039D+00          E(Z)=    -0.55811068077D+04
 NORM(A)=   0.11448428D+01
 Iteration Nr.   7
 **********************
 DD1Dir will call FoFMem   1 times, MxPair=       506
 NAB=   253 NAA=     0 NBB=     0.
 DE(Z)  -0.79812769D+00          E(Z)=    -0.55811068050D+04
 NORM(A)=   0.11448423D+01
 Iteration Nr.   8
 **********************
 DD1Dir will call FoFMem   1 times, MxPair=       506
 NAB=   253 NAA=     0 NBB=     0.
 DE(Z)  -0.79812844D+00          E(Z)=    -0.55811068057D+04
 NORM(A)=   0.11448421D+01
 Iteration Nr.   9
 **********************
 DD1Dir will call FoFMem   1 times, MxPair=       506
 NAB=   253 NAA=     0 NBB=     0.
 DE(Z)  -0.79812771D+00          E(Z)=    -0.55811068050D+04
 NORM(A)=   0.11448424D+01
 Iteration Nr.  10
 **********************
 DD1Dir will call FoFMem   1 times, MxPair=       506
 NAB=   253 NAA=     0 NBB=     0.
 DE(Z)  -0.79812773D+00          E(Z)=    -0.55811068050D+04
 NORM(A)=   0.11448428D+01
 Iteration Nr.  11
 **********************
 DD1Dir will call FoFMem   1 times, MxPair=       506
 NAB=   253 NAA=     0 NBB=     0.
 DE(Z)  -0.79812778D+00          E(Z)=    -0.55811068051D+04
 NORM(A)=   0.11448430D+01
 Iteration Nr.  12
 **********************
 DD1Dir will call FoFMem   1 times, MxPair=       506
 NAB=   253 NAA=     0 NBB=     0.
 DE(Z)  -0.79812776D+00          E(Z)=    -0.55811068051D+04
 NORM(A)=   0.11448432D+01
 Iteration Nr.  13
 **********************
 DD1Dir will call FoFMem   1 times, MxPair=       506
 NAB=   253 NAA=     0 NBB=     0.
 DE(Z)  -0.79812778D+00          E(Z)=    -0.55811068051D+04
 NORM(A)=   0.11448431D+01
 Iteration Nr.  14
 **********************
 DD1Dir will call FoFMem   1 times, MxPair=       506
 NAB=   253 NAA=     0 NBB=     0.
 DE(Z)  -0.79812779D+00          E(Z)=    -0.55811068051D+04
 NORM(A)=   0.11448431D+01
 Iteration Nr.  15
 **********************
 DD1Dir will call FoFMem   1 times, MxPair=       506
 NAB=   253 NAA=     0 NBB=     0.
 DE(Z)  -0.79812779D+00          E(Z)=    -0.55811068051D+04
 NORM(A)=   0.11448431D+01
 Iteration Nr.  16
 **********************
 DD1Dir will call FoFMem   1 times, MxPair=       506
 NAB=   253 NAA=     0 NBB=     0.
 DE(Z)  -0.79812779D+00          E(Z)=    -0.55811068051D+04
 NORM(A)=   0.11448431D+01
 Iteration Nr.  17
 **********************
 DD1Dir will call FoFMem   1 times, MxPair=       506
 NAB=   253 NAA=     0 NBB=     0.
 DE(Z)  -0.79812779D+00          E(Z)=    -0.55811068051D+04
 NORM(A)=   0.11448431D+01
 Iteration Nr.  18
 **********************
 DD1Dir will call FoFMem   1 times, MxPair=       506
 NAB=   253 NAA=     0 NBB=     0.
 DE(Z)  -0.79812779D+00          E(Z)=    -0.55811068051D+04
 NORM(A)=   0.11448431D+01
 Discarding MO integrals.
          Differentiating once with respect to electric field.
                with respect to dipole field.
          Electric field/nuclear overlap derivatives assumed to be zero.
          Keep R1 ints in memory in canonical form, NReq=510060614.
          There are     1 degrees of freedom in the 1st order CPHF.  IDoFFX=0.
 LinEq1:  Iter=  0 NonCon=     1 RMS=1.78D-03 Max=6.60D-02
 AX will form     1 AO Fock derivatives at one time.
 LinEq1:  Iter=  1 NonCon=     1 RMS=8.41D-04 Max=1.81D-02
 LinEq1:  Iter=  2 NonCon=     1 RMS=3.81D-04 Max=1.47D-02
 LinEq1:  Iter=  3 NonCon=     1 RMS=1.25D-04 Max=4.33D-03
 LinEq1:  Iter=  4 NonCon=     1 RMS=4.84D-05 Max=9.29D-04
 LinEq1:  Iter=  5 NonCon=     1 RMS=9.57D-06 Max=1.72D-04
 LinEq1:  Iter=  6 NonCon=     1 RMS=3.25D-06 Max=7.86D-05
 LinEq1:  Iter=  7 NonCon=     1 RMS=7.08D-07 Max=2.20D-05
 LinEq1:  Iter=  8 NonCon=     1 RMS=1.38D-07 Max=4.12D-06
 LinEq1:  Iter=  9 NonCon=     1 RMS=3.37D-08 Max=1.03D-06
 LinEq1:  Iter= 10 NonCon=     1 RMS=9.43D-09 Max=2.07D-07
 LinEq1:  Iter= 11 NonCon=     1 RMS=1.96D-09 Max=4.93D-08
 LinEq1:  Iter= 12 NonCon=     1 RMS=3.63D-10 Max=8.78D-09
 LinEq1:  Iter= 13 NonCon=     1 RMS=7.51D-11 Max=1.15D-09
 LinEq1:  Iter= 14 NonCon=     0 RMS=2.19D-11 Max=4.23D-10
 Linear equations converged to 1.000D-10 1.000D-09 after    14 iterations.
 End of Minotr Frequency-dependent properties file   721 does not exist.
 End of Minotr Frequency-dependent properties file   722 does not exist.

 **********************************************************************

            Population analysis using the QCI/CC density.

 **********************************************************************

     Natural Orbital Coefficients:
                           1         2         3         4         5
     Eigenvalues --     2.00003   2.00002   2.00002   2.00002   2.00001
   1 1   C  1S          0.00000  -0.17655   0.31647   0.00000  -0.47065
   2        2S          0.00000   0.00356  -0.00987   0.00000   0.00723
   3        3S          0.00000  -0.00677   0.01187   0.00000  -0.01902
   4        4S          0.00000  -0.01140  -0.01475   0.00000  -0.00524
   5        5S          0.00000  -0.00463  -0.00481   0.00000  -0.00427
   6        6PX         0.00000   0.00001   0.00000   0.00000   0.00002
   7        6PY        -0.00120   0.00000   0.00000  -0.00301   0.00000
   8        6PZ         0.00000   0.00105   0.00152   0.00000   0.00246
   9        7PX         0.00000   0.00000   0.00000   0.00000   0.00001
  10        7PY        -0.00128   0.00000   0.00000  -0.00517   0.00000
  11        7PZ         0.00000  -0.00051   0.00391   0.00000   0.00053
  12        8PX         0.00000  -0.00005   0.00001   0.00000  -0.00004
  13        8PY         0.01267   0.00000   0.00000  -0.00428   0.00000
  14        8PZ         0.00000  -0.00951   0.00639   0.00000  -0.00852
  15        9PX         0.00000   0.00000   0.00001   0.00000   0.00000
  16        9PY         0.00364   0.00000   0.00000   0.00041   0.00000
  17        9PZ         0.00000   0.00005   0.00084   0.00000  -0.00140
  18       10D 0        0.00000  -0.00007   0.00012   0.00000  -0.00003
  19       10D+1        0.00000   0.00000   0.00000   0.00000   0.00000
  20       10D-1       -0.00035   0.00000   0.00000   0.00035   0.00000
  21       10D+2        0.00000   0.00003   0.00012   0.00000   0.00022
  22       10D-2        0.00000   0.00000   0.00000   0.00000   0.00000
  23       11D 0        0.00000  -0.00111  -0.00031   0.00000  -0.00015
  24       11D+1        0.00000  -0.00001   0.00000   0.00000   0.00000
  25       11D-1        0.00000   0.00000   0.00000   0.00114   0.00000
  26       11D+2        0.00000  -0.00003   0.00160   0.00000  -0.00066
  27       11D-2        0.00000   0.00000   0.00000   0.00000   0.00000
  28       12D 0        0.00000  -0.00423   0.00100   0.00000  -0.00476
  29       12D+1        0.00000  -0.00003   0.00001   0.00000  -0.00003
  30       12D-1       -0.00634   0.00000   0.00000   0.00305   0.00000
  31       12D+2        0.00000  -0.00151   0.00200   0.00000  -0.00201
  32       12D-2        0.00000   0.00000   0.00000   0.00000   0.00000
  33       13F 0        0.00000  -0.00001   0.00001   0.00000   0.00009
  34       13F+1        0.00000   0.00000   0.00000   0.00000   0.00000
  35       13F-1       -0.00031   0.00000   0.00000  -0.00007   0.00000
  36       13F+2        0.00000  -0.00007   0.00001   0.00000  -0.00009
  37       13F-2        0.00000   0.00000   0.00000   0.00000   0.00000
  38       13F+3        0.00000   0.00000   0.00000   0.00000   0.00000
  39       13F-3        0.00006   0.00000   0.00000  -0.00007   0.00000
  40       14F 0        0.00000   0.00017  -0.00011   0.00000   0.00104
  41       14F+1        0.00000   0.00000   0.00000   0.00000   0.00000
  42       14F-1        0.00184   0.00000   0.00000   0.00072   0.00000
  43       14F+2        0.00000   0.00044  -0.00036   0.00000   0.00106
  44       14F-2        0.00002   0.00000   0.00000   0.00000   0.00000
  45       14F+3        0.00000   0.00000   0.00000   0.00000   0.00001
  46       14F-3       -0.00029   0.00000   0.00000   0.00021   0.00000
  47 2   S  1S          0.00000  -0.21721  -0.00890   0.00000   0.15680
  48        2S          0.00000   0.74233   0.03096   0.00000  -0.54130
  49        3S          0.00000  -0.02058  -0.00111   0.00000   0.00838
  50        4S          0.00000   0.04976   0.00203   0.00000  -0.03879
  51        5S          0.00000   0.01159  -0.00108   0.00000   0.01514
  52        6S          0.00000   0.00172   0.00026   0.00000   0.00422
  53        7PX         0.00000   0.00307   0.00062   0.00000  -0.00019
  54        7PY         0.97039   0.00000   0.00000   0.09477   0.00000
  55        7PZ         0.00000   0.62304   0.02305   0.00000   0.49614
  56        8PX         0.00000  -0.00006  -0.00001   0.00000  -0.00001
  57        8PY        -0.01890   0.00000   0.00000  -0.00127   0.00000
  58        8PZ         0.00000  -0.01237  -0.00058   0.00000  -0.00848
  59        9PX         0.00000   0.00019   0.00004   0.00000   0.00000
  60        9PY         0.05629   0.00000   0.00000   0.00579   0.00000
  61        9PZ         0.00000   0.03838   0.00150   0.00000   0.03231
  62       10PX         0.00000  -0.00005  -0.00001   0.00000  -0.00005
  63       10PY        -0.00356   0.00000   0.00000  -0.00104   0.00000
  64       10PZ         0.00000  -0.00859  -0.00066   0.00000  -0.00538
  65       11PX         0.00000   0.00000   0.00000   0.00000   0.00000
  66       11PY        -0.00129   0.00000   0.00000  -0.00007   0.00000
  67       11PZ         0.00000  -0.00023  -0.00020   0.00000  -0.00027
  68       12D 0        0.00000   0.00230   0.00017   0.00000   0.00223
  69       12D+1        0.00000   0.00003   0.00000   0.00000   0.00002
  70       12D-1        0.00268   0.00000   0.00000   0.00071   0.00000
  71       12D+2        0.00000  -0.00040  -0.00006   0.00000  -0.00009
  72       12D-2        0.00002   0.00000   0.00000   0.00001   0.00000
  73       13D 0        0.00000   0.00016  -0.00015   0.00000  -0.00021
  74       13D+1        0.00000   0.00000   0.00000   0.00000   0.00000
  75       13D-1       -0.00036   0.00000   0.00000   0.00019   0.00000
  76       13D+2        0.00000   0.00030   0.00002   0.00000  -0.00017
  77       13D-2        0.00000   0.00000   0.00000   0.00000   0.00000
  78       14D 0        0.00000   0.00122   0.00027   0.00000   0.00045
  79       14D+1        0.00000   0.00001   0.00001   0.00000   0.00001
  80       14D-1       -0.00080   0.00000   0.00000   0.00021   0.00000
  81       14D+2        0.00000   0.00049  -0.00036   0.00000   0.00032
  82       14D-2       -0.00001   0.00000   0.00000   0.00001   0.00000
  83       15F 0        0.00000  -0.00019   0.00011   0.00000  -0.00017
  84       15F+1        0.00000   0.00000   0.00000   0.00000   0.00000
  85       15F-1       -0.00015   0.00000   0.00000  -0.00011   0.00000
  86       15F+2        0.00000   0.00013   0.00002   0.00000   0.00017
  87       15F-2        0.00000   0.00000   0.00000   0.00000   0.00000
  88       15F+3        0.00000   0.00000   0.00000   0.00000   0.00000
  89       15F-3        0.00011   0.00000   0.00000   0.00000   0.00000
  90       16F 0        0.00000  -0.00044  -0.00005   0.00000  -0.00034
  91       16F+1        0.00000  -0.00001   0.00000   0.00000  -0.00001
  92       16F-1       -0.00084   0.00000   0.00000  -0.00009   0.00000
  93       16F+2        0.00000  -0.00013   0.00012   0.00000  -0.00004
  94       16F-2        0.00000   0.00000   0.00000  -0.00001   0.00000
  95       16F+3        0.00000   0.00000   0.00000   0.00000   0.00000
  96       16F-3       -0.00019   0.00000   0.00000   0.00001   0.00000
  97 3   Br 1S          0.00047   0.00074  -0.04004   0.03727  -0.04187
  98        2S         -0.00185  -0.00275   0.14813  -0.13785   0.15575
  99        3S          0.00419   0.00602  -0.31085   0.28796  -0.33451
 100        4S         -0.00097  -0.00021  -0.00083   0.00067  -0.00207
 101        5S         -0.00012   0.00017  -0.01685   0.01551  -0.01623
 102        6S          0.01026  -0.00194   0.00550  -0.00302  -0.00566
 103        7S          0.00681   0.00109   0.00240   0.00058   0.00022
 104        8PX         0.00000   0.00003  -0.00012   0.00016   0.00047
 105        8PY         0.02287   0.00491   0.20298  -0.22286  -0.01575
 106        8PZ         0.01993   0.00616   0.12985  -0.13385   0.01189
 107        9PX        -0.00001  -0.00009   0.00031  -0.00041  -0.00134
 108        9PY        -0.06057  -0.01267  -0.52755   0.58123   0.05262
 109        9PZ        -0.05377  -0.01680  -0.33812   0.34743  -0.02850
 110       10PX        -0.00001   0.00000   0.00000   0.00000   0.00000
 111       10PY         0.00065  -0.00051   0.00264  -0.00088  -0.00078
 112       10PZ        -0.00051  -0.00040   0.00140  -0.00135  -0.00092
 113       11PX         0.00000  -0.00001   0.00001  -0.00002  -0.00006
 114       11PY        -0.00336  -0.00063  -0.02505   0.02746   0.00243
 115       11PZ        -0.00312  -0.00100  -0.01616   0.01642  -0.00142
 116       12PX         0.00000   0.00000   0.00000   0.00000  -0.00001
 117       12PY         0.00468   0.00018   0.00156   0.00111   0.00049
 118       12PZ         0.00203  -0.00165   0.00127   0.00026  -0.00218
 119       13PX         0.00000   0.00000   0.00000   0.00000   0.00000
 120       13PY         0.00068   0.00025   0.00044   0.00002   0.00004
 121       13PZ         0.00057   0.00012   0.00017   0.00001   0.00025
 122       14D 0        0.00001  -0.00001   0.00167  -0.00161   0.00090
 123       14D+1        0.00000   0.00000   0.00002  -0.00002   0.00001
 124       14D-1       -0.00304  -0.00089  -0.02815   0.03040  -0.00190
 125       14D+2        0.00189   0.00066   0.01791  -0.01925   0.00220
 126       14D-2        0.00000   0.00000   0.00001  -0.00001   0.00001
 127       15D 0        0.00006   0.00000   0.00021  -0.00010   0.00006
 128       15D+1        0.00000   0.00000   0.00000   0.00000   0.00000
 129       15D-1       -0.00023  -0.00010  -0.00278   0.00294  -0.00034
 130       15D+2        0.00012   0.00011   0.00189  -0.00189   0.00037
 131       15D-2        0.00000   0.00000   0.00000   0.00000   0.00000
 132       16D 0       -0.00001   0.00020  -0.00001  -0.00017   0.00025
 133       16D+1        0.00000   0.00000   0.00000   0.00000   0.00001
 134       16D-1        0.00034   0.00009   0.00108  -0.00057  -0.00033
 135       16D+2       -0.00040  -0.00001  -0.00085   0.00034   0.00009
 136       16D-2        0.00000   0.00000   0.00000   0.00000   0.00000
 137       17D 0       -0.00009  -0.00025   0.00003   0.00017  -0.00036
 138       17D+1        0.00000   0.00000   0.00000   0.00000   0.00000
 139       17D-1        0.00116  -0.00022   0.00062  -0.00025  -0.00030
 140       17D+2       -0.00062  -0.00024  -0.00044  -0.00016  -0.00032
 141       17D-2        0.00000   0.00000   0.00000   0.00000   0.00000
 142       18F 0        0.00008   0.00002   0.00025  -0.00031   0.00004
 143       18F+1        0.00000   0.00000   0.00000   0.00000   0.00000
 144       18F-1       -0.00003   0.00000  -0.00011   0.00013  -0.00004
 145       18F+2        0.00001   0.00004   0.00040  -0.00044   0.00010
 146       18F-2        0.00000   0.00000   0.00000   0.00000   0.00000
 147       18F+3        0.00000   0.00000   0.00000   0.00000   0.00000
 148       18F-3       -0.00007   0.00003   0.00021  -0.00023   0.00007
 149       19F 0       -0.00002   0.00006  -0.00032   0.00032   0.00025
 150       19F+1        0.00000   0.00000   0.00000   0.00000   0.00000
 151       19F-1       -0.00004   0.00006   0.00018  -0.00027   0.00006
 152       19F+2        0.00000  -0.00006  -0.00059   0.00046   0.00002
 153       19F-2        0.00000   0.00000   0.00000   0.00000   0.00000
 154       19F+3        0.00000   0.00000   0.00000   0.00000   0.00000
 155       19F-3        0.00006  -0.00008  -0.00034   0.00017  -0.00011
 156 4   Br 1S         -0.00047   0.00074  -0.04004  -0.03727  -0.04187
 157        2S          0.00185  -0.00275   0.14813   0.13785   0.15575
 158        3S         -0.00419   0.00602  -0.31085  -0.28796  -0.33451
 159        4S          0.00097  -0.00021  -0.00083  -0.00067  -0.00207
 160        5S          0.00012   0.00017  -0.01685  -0.01551  -0.01623
 161        6S         -0.01026  -0.00194   0.00550   0.00302  -0.00566
 162        7S         -0.00681   0.00109   0.00240  -0.00058   0.00022
 163        8PX         0.00000   0.00003  -0.00012  -0.00016   0.00047
 164        8PY         0.02287  -0.00491  -0.20298  -0.22286   0.01575
 165        8PZ        -0.01993   0.00616   0.12985   0.13385   0.01189
 166        9PX         0.00001  -0.00009   0.00031   0.00041  -0.00134
 167        9PY        -0.06057   0.01267   0.52755   0.58123  -0.05262
 168        9PZ         0.05377  -0.01680  -0.33812  -0.34743  -0.02850
 169       10PX         0.00001   0.00000   0.00000   0.00000   0.00000
 170       10PY         0.00065   0.00051  -0.00264  -0.00088   0.00078
 171       10PZ         0.00051  -0.00040   0.00140   0.00135  -0.00092
 172       11PX         0.00000  -0.00001   0.00001   0.00002  -0.00006
 173       11PY        -0.00336   0.00063   0.02505   0.02746  -0.00243
 174       11PZ         0.00312  -0.00100  -0.01616  -0.01642  -0.00142
 175       12PX         0.00000   0.00000   0.00000   0.00000  -0.00001
 176       12PY         0.00468  -0.00018  -0.00156   0.00111  -0.00049
 177       12PZ        -0.00203  -0.00165   0.00127  -0.00026  -0.00218
 178       13PX         0.00000   0.00000   0.00000   0.00000   0.00000
 179       13PY         0.00068  -0.00025  -0.00044   0.00002  -0.00004
 180       13PZ        -0.00057   0.00012   0.00017  -0.00001   0.00025
 181       14D 0       -0.00001  -0.00001   0.00167   0.00161   0.00090
 182       14D+1        0.00000   0.00000   0.00002   0.00002   0.00001
 183       14D-1       -0.00304   0.00089   0.02815   0.03040   0.00190
 184       14D+2       -0.00189   0.00066   0.01791   0.01925   0.00220
 185       14D-2        0.00000   0.00000  -0.00001  -0.00001  -0.00001
 186       15D 0       -0.00006   0.00000   0.00021   0.00010   0.00006
 187       15D+1        0.00000   0.00000   0.00000   0.00000   0.00000
 188       15D-1       -0.00023   0.00010   0.00278   0.00294   0.00034
 189       15D+2       -0.00012   0.00011   0.00189   0.00189   0.00037
 190       15D-2        0.00000   0.00000   0.00000   0.00000   0.00000
 191       16D 0        0.00001   0.00020  -0.00001   0.00017   0.00025
 192       16D+1        0.00000   0.00000   0.00000   0.00000   0.00001
 193       16D-1        0.00034  -0.00009  -0.00108  -0.00057   0.00033
 194       16D+2        0.00040  -0.00001  -0.00085  -0.00034   0.00009
 195       16D-2        0.00000   0.00000   0.00000   0.00000   0.00000
 196       17D 0        0.00009  -0.00025   0.00003  -0.00017  -0.00036
 197       17D+1        0.00000   0.00000   0.00000   0.00000   0.00000
 198       17D-1        0.00116   0.00022  -0.00062  -0.00025   0.00030
 199       17D+2        0.00062  -0.00024  -0.00044   0.00016  -0.00032
 200       17D-2        0.00000   0.00000   0.00000   0.00000   0.00000
 201       18F 0       -0.00008   0.00002   0.00025   0.00031   0.00004
 202       18F+1        0.00000   0.00000   0.00000   0.00000   0.00000
 203       18F-1       -0.00003   0.00000   0.00011   0.00013   0.00004
 204       18F+2       -0.00001   0.00004   0.00040   0.00044   0.00010
 205       18F-2        0.00000   0.00000   0.00000   0.00000   0.00000
 206       18F+3        0.00000   0.00000   0.00000   0.00000   0.00000
 207       18F-3       -0.00007  -0.00003  -0.00021  -0.00023  -0.00007
 208       19F 0        0.00002   0.00006  -0.00032  -0.00032   0.00025
 209       19F+1        0.00000   0.00000   0.00000   0.00000   0.00000
 210       19F-1       -0.00004  -0.00006  -0.00018  -0.00027  -0.00006
 211       19F+2        0.00000  -0.00006  -0.00059  -0.00046   0.00002
 212       19F-2        0.00000   0.00000   0.00000   0.00000   0.00000
 213       19F+3        0.00000   0.00000   0.00000   0.00000   0.00000
 214       19F-3        0.00006   0.00008   0.00034   0.00017   0.00011
                           6         7         8         9        10
     Eigenvalues --     2.00001   2.00001   2.00001   2.00001   2.00001
   1 1   C  1S          0.00000   0.08463  -0.00308   0.00000  -0.09441
   2        2S          0.00000  -0.00244   0.00004   0.00000   0.00143
   3        3S          0.00000   0.00316  -0.00013   0.00000  -0.00386
   4        4S          0.00000   0.00911  -0.00003   0.00000   0.00131
   5        5S          0.00000   0.00135   0.00001   0.00000  -0.00072
   6        6PX         0.00000  -0.00001  -0.00073   0.00000   0.00000
   7        6PY         0.00002   0.00000   0.00000  -0.00032   0.00000
   8        6PZ         0.00000  -0.00114   0.00001   0.00000   0.00055
   9        7PX         0.00000   0.00000  -0.00006   0.00000   0.00000
  10        7PY         0.00017   0.00000   0.00000  -0.00044   0.00000
  11        7PZ         0.00000  -0.00052   0.00000   0.00000   0.00013
  12        8PX         0.00000   0.00002   0.00157   0.00000   0.00005
  13        8PY         0.00061   0.00000   0.00000  -0.00527   0.00000
  14        8PZ         0.00000   0.00321  -0.00016   0.00000   0.00943
  15        9PX         0.00000   0.00000  -0.00091   0.00000   0.00000
  16        9PY         0.00257   0.00000   0.00000  -0.00119   0.00000
  17        9PZ         0.00000   0.00109  -0.00003   0.00000   0.00166
  18       10D 0        0.00000  -0.00008   0.00000   0.00000  -0.00015
  19       10D+1        0.00000   0.00000  -0.00021   0.00000   0.00000
  20       10D-1       -0.00013   0.00000   0.00000  -0.00005   0.00000
  21       10D+2        0.00000   0.00007   0.00000   0.00000  -0.00006
  22       10D-2        0.00000   0.00000   0.00000   0.00000   0.00000
  23       11D 0        0.00000   0.00029  -0.00001   0.00000  -0.00029
  24       11D+1        0.00000   0.00000   0.00057   0.00000   0.00000
  25       11D-1       -0.00001   0.00000   0.00000  -0.00039   0.00000
  26       11D+2        0.00000  -0.00025   0.00000   0.00000  -0.00031
  27       11D-2        0.00000   0.00000   0.00000   0.00000   0.00000
  28       12D 0        0.00000   0.00183  -0.00002   0.00000   0.00016
  29       12D+1        0.00000   0.00001  -0.00136   0.00000   0.00002
  30       12D-1        0.00099   0.00000   0.00000   0.00065   0.00000
  31       12D+2        0.00000   0.00020  -0.00001   0.00000   0.00041
  32       12D-2        0.00000   0.00000   0.00000  -0.00001   0.00000
  33       13F 0        0.00000  -0.00013   0.00000   0.00000  -0.00002
  34       13F+1        0.00000   0.00000  -0.00013   0.00000   0.00000
  35       13F-1        0.00002   0.00000   0.00000   0.00003   0.00000
  36       13F+2        0.00000  -0.00001   0.00000   0.00000   0.00005
  37       13F-2        0.00000   0.00000   0.00000   0.00000   0.00000
  38       13F+3        0.00000   0.00000   0.00005   0.00000   0.00000
  39       13F-3       -0.00002   0.00000   0.00000  -0.00003   0.00000
  40       14F 0        0.00000   0.00002  -0.00001   0.00000   0.00048
  41       14F+1        0.00000   0.00000   0.00095   0.00000   0.00001
  42       14F-1        0.00000   0.00000   0.00000  -0.00032   0.00000
  43       14F+2        0.00000  -0.00001   0.00002   0.00000  -0.00032
  44       14F-2        0.00000   0.00000   0.00000   0.00000   0.00000
  45       14F+3        0.00000   0.00000  -0.00031   0.00000   0.00000
  46       14F-3        0.00002   0.00000   0.00000   0.00022   0.00000
  47 2   S  1S          0.00000  -0.08754   0.00038   0.00000   0.01597
  48        2S          0.00000   0.30176  -0.00133   0.00000  -0.05592
  49        3S          0.00000  -0.00497   0.00001   0.00000   0.00095
  50        4S          0.00000   0.02165  -0.00010   0.00000  -0.00404
  51        5S          0.00000  -0.00804   0.00016   0.00000  -0.00617
  52        6S          0.00000  -0.00274   0.00007   0.00000  -0.00417
  53        7PX         0.00000  -0.00035   0.72639   0.00000   0.00339
  54        7PY         0.04503   0.00000   0.00000   0.02314   0.00000
  55        7PZ         0.00000  -0.29416  -0.00291   0.00000   0.04931
  56        8PX         0.00000   0.00002  -0.00923   0.00000  -0.00003
  57        8PY        -0.00054   0.00000   0.00000   0.00040   0.00000
  58        8PZ         0.00000   0.00525   0.00002   0.00000  -0.00003
  59        9PX         0.00000  -0.00003   0.04624   0.00000   0.00021
  60        9PY         0.00277   0.00000   0.00000   0.00136   0.00000
  61        9PZ         0.00000  -0.01909  -0.00018   0.00000   0.00315
  62       10PX         0.00000   0.00002   0.00045   0.00000   0.00001
  63       10PY        -0.00063   0.00000   0.00000   0.00135   0.00000
  64       10PZ         0.00000   0.00351  -0.00008   0.00000   0.00394
  65       11PX         0.00000   0.00000  -0.00015   0.00000   0.00000
  66       11PY        -0.00047   0.00000   0.00000   0.00012   0.00000
  67       11PZ         0.00000   0.00020   0.00000   0.00000   0.00052
  68       12D 0        0.00000  -0.00140  -0.00001   0.00000   0.00017
  69       12D+1        0.00000  -0.00001   0.00161   0.00000   0.00001
  70       12D-1        0.00022   0.00000   0.00000  -0.00046   0.00000
  71       12D+2        0.00000  -0.00010   0.00001   0.00000   0.00008
  72       12D-2        0.00000   0.00000   0.00000   0.00000   0.00000
  73       13D 0        0.00000   0.00016   0.00000   0.00000  -0.00004
  74       13D+1        0.00000   0.00000  -0.00018   0.00000   0.00000
  75       13D-1        0.00000   0.00000   0.00000   0.00008   0.00000
  76       13D+2        0.00000   0.00012   0.00000   0.00000  -0.00005
  77       13D-2        0.00000   0.00000   0.00000   0.00000   0.00000
  78       14D 0        0.00000  -0.00044   0.00001   0.00000  -0.00062
  79       14D+1        0.00000  -0.00001  -0.00044   0.00000   0.00000
  80       14D-1        0.00015   0.00000   0.00000  -0.00053   0.00000
  81       14D+2        0.00000  -0.00001   0.00000   0.00000  -0.00010
  82       14D-2        0.00000   0.00000   0.00000   0.00000   0.00000
  83       15F 0        0.00000   0.00003   0.00000   0.00000  -0.00002
  84       15F+1        0.00000   0.00000  -0.00019   0.00000   0.00000
  85       15F-1       -0.00004   0.00000   0.00000   0.00006   0.00000
  86       15F+2        0.00000  -0.00007   0.00000   0.00000  -0.00005
  87       15F-2        0.00000   0.00000   0.00000   0.00000   0.00000
  88       15F+3        0.00000   0.00000   0.00011   0.00000   0.00000
  89       15F-3        0.00001   0.00000   0.00000  -0.00001   0.00000
  90       16F 0        0.00000   0.00028   0.00001   0.00000  -0.00023
  91       16F+1        0.00000   0.00000  -0.00036   0.00000  -0.00001
  92       16F-1       -0.00003   0.00000   0.00000   0.00018   0.00000
  93       16F+2        0.00000   0.00010   0.00000   0.00000   0.00003
  94       16F-2        0.00000   0.00000   0.00000   0.00000   0.00000
  95       16F+3        0.00000   0.00000  -0.00009   0.00000   0.00000
  96       16F-3       -0.00004   0.00000   0.00000   0.00002   0.00000
  97 3   Br 1S         -0.08440  -0.07175  -0.00002  -0.00585   0.00597
  98        2S          0.31435   0.26734   0.00009   0.02192  -0.02240
  99        3S         -0.67785  -0.57769  -0.00018  -0.04761   0.04914
 100        4S         -0.00211  -0.00150   0.00000  -0.00010  -0.00007
 101        5S         -0.03285  -0.02776  -0.00001  -0.00226   0.00233
 102        6S         -0.00624  -0.00572  -0.00006  -0.00323   0.00342
 103        7S          0.00415   0.00079  -0.00004  -0.00204   0.00205
 104        8PX         0.00008  -0.00036  -0.17436  -0.00127  -0.00185
 105        8PY        -0.09731  -0.07879  -0.00099   0.12887   0.15809
 106        8PZ        -0.03661  -0.08904   0.00174  -0.23025  -0.20933
 107        9PX        -0.00022   0.00103   0.49303   0.00358   0.00519
 108        9PY         0.27369   0.21604   0.00284  -0.36361  -0.43947
 109        9PZ         0.10300   0.24779  -0.00486   0.64472   0.58887
 110       10PX         0.00000   0.00000   0.00120   0.00001   0.00001
 111       10PY         0.00005  -0.00057  -0.00001  -0.00134   0.00014
 112       10PZ        -0.00023   0.00011  -0.00001   0.00089   0.00113
 113       11PX        -0.00001   0.00005   0.02217   0.00016   0.00023
 114       11PY         0.01241   0.00976   0.00013  -0.01617  -0.01946
 115       11PZ         0.00462   0.01135  -0.00022   0.02868   0.02614
 116       12PX         0.00000   0.00001   0.00154   0.00001   0.00002
 117       12PY         0.00209   0.00001  -0.00002  -0.00355   0.00025
 118       12PZ         0.00100   0.00134  -0.00004   0.00213   0.00325
 119       13PX         0.00000   0.00000   0.00022   0.00000   0.00000
 120       13PY         0.00042   0.00011  -0.00001  -0.00011   0.00048
 121       13PZ         0.00047  -0.00007   0.00000  -0.00047  -0.00007
 122       14D 0        0.00070  -0.00154   0.00005  -0.00988  -0.00979
 123       14D+1        0.00000  -0.00001  -0.00036  -0.00005  -0.00004
 124       14D-1        0.00630   0.00736   0.00001  -0.00406  -0.00751
 125       14D+2       -0.00278  -0.00562   0.00004  -0.00692  -0.00496
 126       14D-2        0.00001   0.00000  -0.00012  -0.00003  -0.00003
 127       15D 0        0.00007  -0.00010   0.00000  -0.00062  -0.00058
 128       15D+1        0.00000   0.00000  -0.00001   0.00000   0.00000
 129       15D-1        0.00033   0.00053   0.00000  -0.00025  -0.00047
 130       15D+2       -0.00011  -0.00042   0.00000  -0.00046  -0.00027
 131       15D-2        0.00000   0.00000   0.00010   0.00000   0.00000
 132       16D 0        0.00004  -0.00018   0.00001  -0.00026  -0.00042
 133       16D+1        0.00000   0.00000  -0.00015   0.00000   0.00000
 134       16D-1        0.00027  -0.00011   0.00000  -0.00019  -0.00018
 135       16D+2       -0.00011   0.00002   0.00001  -0.00012  -0.00031
 136       16D-2        0.00000   0.00000  -0.00035   0.00000   0.00000
 137       17D 0        0.00010   0.00006   0.00000   0.00006  -0.00033
 138       17D+1        0.00000   0.00000  -0.00027   0.00000   0.00000
 139       17D-1        0.00023   0.00001  -0.00001  -0.00032   0.00024
 140       17D+2       -0.00031   0.00020   0.00000   0.00022  -0.00041
 141       17D-2        0.00000   0.00000  -0.00054   0.00000   0.00000
 142       18F 0       -0.00008  -0.00009   0.00000   0.00005   0.00010
 143       18F+1        0.00000   0.00000   0.00001   0.00000   0.00000
 144       18F-1        0.00001   0.00006   0.00000   0.00035   0.00032
 145       18F+2       -0.00010  -0.00014   0.00000  -0.00002   0.00002
 146       18F-2        0.00000   0.00000   0.00018   0.00000   0.00000
 147       18F+3        0.00000   0.00000  -0.00018   0.00000   0.00000
 148       18F-3       -0.00003  -0.00008   0.00000   0.00013   0.00009
 149       19F 0        0.00007   0.00002   0.00000  -0.00005  -0.00008
 150       19F+1        0.00000   0.00000  -0.00001   0.00000   0.00000
 151       19F-1        0.00004  -0.00013   0.00000  -0.00029  -0.00042
 152       19F+2        0.00002   0.00014   0.00000   0.00000   0.00002
 153       19F-2        0.00000   0.00000  -0.00021   0.00000   0.00000
 154       19F+3        0.00000   0.00000   0.00035   0.00000   0.00000
 155       19F-3       -0.00004   0.00010   0.00000  -0.00016  -0.00010
 156 4   Br 1S          0.08440  -0.07175  -0.00002   0.00585   0.00597
 157        2S         -0.31435   0.26734   0.00009  -0.02192  -0.02240
 158        3S          0.67785  -0.57769  -0.00018   0.04761   0.04914
 159        4S          0.00211  -0.00150   0.00000   0.00010  -0.00007
 160        5S          0.03285  -0.02776  -0.00001   0.00226   0.00233
 161        6S          0.00624  -0.00572  -0.00006   0.00323   0.00342
 162        7S         -0.00415   0.00079  -0.00004   0.00204   0.00205
 163        8PX        -0.00008  -0.00036  -0.17436   0.00127  -0.00185
 164        8PY        -0.09731   0.07879   0.00099   0.12887  -0.15809
 165        8PZ         0.03661  -0.08904   0.00174   0.23025  -0.20933
 166        9PX         0.00022   0.00103   0.49303  -0.00358   0.00519
 167        9PY         0.27369  -0.21604  -0.00284  -0.36361   0.43947
 168        9PZ        -0.10300   0.24779  -0.00486  -0.64472   0.58887
 169       10PX         0.00000   0.00000   0.00120  -0.00001   0.00001
 170       10PY         0.00005   0.00057   0.00001  -0.00134  -0.00014
 171       10PZ         0.00023   0.00011  -0.00001  -0.00089   0.00113
 172       11PX         0.00001   0.00005   0.02217  -0.00016   0.00023
 173       11PY         0.01241  -0.00976  -0.00013  -0.01617   0.01946
 174       11PZ        -0.00462   0.01135  -0.00022  -0.02868   0.02614
 175       12PX         0.00000   0.00001   0.00154  -0.00001   0.00002
 176       12PY         0.00209  -0.00001   0.00002  -0.00355  -0.00025
 177       12PZ        -0.00100   0.00134  -0.00004  -0.00213   0.00325
 178       13PX         0.00000   0.00000   0.00022   0.00000   0.00000
 179       13PY         0.00042  -0.00011   0.00001  -0.00011  -0.00048
 180       13PZ        -0.00047  -0.00007   0.00000   0.00047  -0.00007
 181       14D 0       -0.00070  -0.00154   0.00005   0.00988  -0.00979
 182       14D+1        0.00000  -0.00001  -0.00036   0.00005  -0.00004
 183       14D-1        0.00630  -0.00736  -0.00001  -0.00406   0.00751
 184       14D+2        0.00278  -0.00562   0.00004   0.00692  -0.00496
 185       14D-2        0.00001   0.00000   0.00012  -0.00003   0.00003
 186       15D 0       -0.00007  -0.00010   0.00000   0.00062  -0.00058
 187       15D+1        0.00000   0.00000  -0.00001   0.00000   0.00000
 188       15D-1        0.00033  -0.00053   0.00000  -0.00025   0.00047
 189       15D+2        0.00011  -0.00042   0.00000   0.00046  -0.00027
 190       15D-2        0.00000   0.00000  -0.00010   0.00000   0.00000
 191       16D 0       -0.00004  -0.00018   0.00001   0.00026  -0.00042
 192       16D+1        0.00000   0.00000  -0.00015   0.00000   0.00000
 193       16D-1        0.00027   0.00011   0.00000  -0.00019   0.00018
 194       16D+2        0.00011   0.00002   0.00001   0.00012  -0.00031
 195       16D-2        0.00000   0.00000   0.00035   0.00000   0.00000
 196       17D 0       -0.00010   0.00006   0.00000  -0.00006  -0.00033
 197       17D+1        0.00000   0.00000  -0.00027   0.00000   0.00000
 198       17D-1        0.00023  -0.00001   0.00001  -0.00032  -0.00024
 199       17D+2        0.00031   0.00020   0.00000  -0.00022  -0.00041
 200       17D-2        0.00000   0.00000   0.00054   0.00000   0.00000
 201       18F 0        0.00008  -0.00009   0.00000  -0.00005   0.00010
 202       18F+1        0.00000   0.00000   0.00001   0.00000   0.00000
 203       18F-1        0.00001  -0.00006   0.00000   0.00035  -0.00032
 204       18F+2        0.00010  -0.00014   0.00000   0.00002   0.00002
 205       18F-2        0.00000   0.00000  -0.00018   0.00000   0.00000
 206       18F+3        0.00000   0.00000  -0.00018   0.00000   0.00000
 207       18F-3       -0.00003   0.00008   0.00000   0.00013  -0.00009
 208       19F 0       -0.00007   0.00002   0.00000   0.00005  -0.00008
 209       19F+1        0.00000   0.00000  -0.00001   0.00000   0.00000
 210       19F-1        0.00004   0.00013   0.00000  -0.00029   0.00042
 211       19F+2       -0.00002   0.00014   0.00000   0.00000   0.00002
 212       19F-2        0.00000   0.00000   0.00021   0.00000   0.00000
 213       19F+3        0.00000   0.00000   0.00035   0.00000   0.00000
 214       19F-3       -0.00004  -0.00010   0.00000  -0.00016   0.00010
                          11        12        13        14        15
     Eigenvalues --     2.00001   2.00000   2.00000   2.00000   2.00000
   1 1   C  1S          0.00000  -0.00365   0.77002  -0.00107   0.00000
   2        2S          0.00000   0.00004  -0.00782   0.00001   0.00000
   3        3S          0.00000  -0.00015   0.03229  -0.00005   0.00000
   4        4S          0.00000   0.00000  -0.01010  -0.00017   0.00000
   5        5S          0.00000   0.00002  -0.00549   0.00007   0.00000
   6        6PX         0.00000  -0.00154   0.00000   0.00000   0.00000
   7        6PY         0.00000   0.00000   0.00000   0.00000   0.00000
   8        6PZ         0.00000   0.00001  -0.00058   0.00001   0.00000
   9        7PX         0.00000  -0.00173   0.00000   0.00000   0.00000
  10        7PY         0.00000   0.00000   0.00000   0.00000  -0.00001
  11        7PZ         0.00000   0.00000   0.00165   0.00002   0.00000
  12        8PX         0.00000  -0.00155  -0.00003   0.00000   0.00000
  13        8PY         0.00003   0.00000   0.00000   0.00000   0.00033
  14        8PZ         0.00000  -0.00009  -0.00401  -0.00102   0.00000
  15        9PX         0.00000  -0.00048  -0.00001   0.00000   0.00000
  16        9PY         0.00002   0.00000   0.00000   0.00000   0.00012
  17        9PZ         0.00000  -0.00002   0.00069  -0.00018   0.00000
  18       10D 0        0.00000   0.00000   0.00030   0.00000   0.00000
  19       10D+1        0.00000  -0.00008   0.00000   0.00000   0.00000
  20       10D-1        0.00000   0.00000   0.00000   0.00000   0.00000
  21       10D+2        0.00000   0.00000  -0.00027   0.00000   0.00000
  22       10D-2       -0.00009   0.00000   0.00000   0.00000   0.00000
  23       11D 0        0.00000  -0.00001  -0.00032   0.00001   0.00000
  24       11D+1        0.00000   0.00108   0.00000   0.00000   0.00000
  25       11D-1        0.00000   0.00000   0.00000   0.00000   0.00002
  26       11D+2        0.00000   0.00000   0.00151   0.00001   0.00000
  27       11D-2       -0.00066   0.00000   0.00000   0.00000   0.00000
  28       12D 0        0.00000   0.00000  -0.00405  -0.00010   0.00000
  29       12D+1        0.00000  -0.00147  -0.00004   0.00000   0.00000
  30       12D-1       -0.00004   0.00000   0.00000   0.00000  -0.00001
  31       12D+2        0.00000  -0.00002  -0.00150  -0.00008   0.00000
  32       12D-2        0.00006   0.00000   0.00000   0.00000   0.00000
  33       13F 0        0.00000   0.00000   0.00034   0.00001   0.00000
  34       13F+1        0.00000  -0.00008   0.00000   0.00000   0.00000
  35       13F-1        0.00000   0.00000   0.00000   0.00000   0.00001
  36       13F+2        0.00000   0.00000  -0.00007  -0.00001   0.00000
  37       13F-2        0.00000   0.00000   0.00000   0.00000   0.00000
  38       13F+3        0.00000   0.00001   0.00000   0.00000   0.00000
  39       13F-3        0.00000   0.00000   0.00000   0.00000   0.00000
  40       14F 0        0.00000  -0.00001  -0.00109  -0.00004   0.00000
  41       14F+1        0.00000   0.00051   0.00000   0.00000   0.00000
  42       14F-1        0.00000   0.00000   0.00000   0.00000  -0.00006
  43       14F+2        0.00000   0.00001  -0.00087   0.00005   0.00000
  44       14F-2        0.00019   0.00000   0.00000   0.00000   0.00000
  45       14F+3        0.00000   0.00019   0.00000   0.00000   0.00000
  46       14F-3        0.00000   0.00000   0.00000   0.00000  -0.00004
  47 2   S  1S          0.00000  -0.00014   0.06081  -0.00227   0.00000
  48        2S          0.00000   0.00049  -0.21165  -0.00005   0.00000
  49        3S          0.00000  -0.00001   0.00232  -0.00003   0.00000
  50        4S          0.00000   0.00003  -0.01560   0.00000   0.00000
  51        5S          0.00000   0.00008   0.00958   0.00080   0.00000
  52        6S          0.00000   0.00005   0.00017   0.00047   0.00000
  53        7PX         0.00000   0.64585   0.00674  -0.00001   0.00000
  54        7PY        -0.00003   0.00000   0.00000   0.00000  -0.00007
  55        7PZ         0.00000  -0.00491   0.47170  -0.00017   0.00000
  56        8PX         0.00000  -0.00703  -0.00008   0.00000   0.00000
  57        8PY         0.00000   0.00000   0.00000   0.00000   0.00002
  58        8PZ         0.00000   0.00004  -0.00545  -0.00007   0.00000
  59        9PX         0.00000   0.04158   0.00044   0.00000   0.00000
  60        9PY         0.00000   0.00000   0.00000   0.00000   0.00000
  61        9PZ         0.00000  -0.00031   0.03107   0.00000   0.00000
  62       10PX         0.00000   0.00271   0.00000   0.00000   0.00000
  63       10PY         0.00002   0.00000   0.00000   0.00000  -0.00008
  64       10PZ         0.00000  -0.00006  -0.00139  -0.00046   0.00000
  65       11PX         0.00000  -0.00024   0.00000   0.00000   0.00000
  66       11PY         0.00000   0.00000   0.00000   0.00000  -0.00001
  67       11PZ         0.00000   0.00000  -0.00003  -0.00005   0.00000
  68       12D 0        0.00000  -0.00001   0.00094   0.00001   0.00000
  69       12D+1        0.00000   0.00123   0.00002   0.00000   0.00000
  70       12D-1        0.00000   0.00000   0.00000   0.00000   0.00001
  71       12D+2        0.00000   0.00001   0.00029  -0.00002   0.00000
  72       12D-2       -0.00004   0.00000   0.00000   0.00000   0.00000
  73       13D 0        0.00000   0.00000  -0.00055   0.00000   0.00000
  74       13D+1        0.00000  -0.00006  -0.00001   0.00000   0.00000
  75       13D-1        0.00000   0.00000   0.00000   0.00000  -0.00001
  76       13D+2        0.00000   0.00000  -0.00010   0.00000   0.00000
  77       13D-2       -0.00003   0.00000   0.00000   0.00000   0.00000
  78       14D 0        0.00000   0.00002  -0.00002   0.00007   0.00000
  79       14D+1        0.00000  -0.00110  -0.00001   0.00000   0.00000
  80       14D-1       -0.00001   0.00000   0.00000   0.00000   0.00004
  81       14D+2        0.00000  -0.00001   0.00055   0.00001   0.00000
  82       14D-2        0.00000   0.00000   0.00000   0.00000   0.00000
  83       15F 0        0.00000   0.00000   0.00040   0.00000   0.00000
  84       15F+1        0.00000  -0.00021   0.00000   0.00000   0.00000
  85       15F-1        0.00000   0.00000   0.00000   0.00000   0.00000
  86       15F+2        0.00000   0.00000   0.00011   0.00001   0.00000
  87       15F-2        0.00000   0.00000   0.00000   0.00000   0.00000
  88       15F+3        0.00000   0.00009   0.00000   0.00000   0.00000
  89       15F-3        0.00000   0.00000   0.00000   0.00000   0.00000
  90       16F 0        0.00000   0.00000  -0.00037   0.00002   0.00000
  91       16F+1        0.00000  -0.00012  -0.00001   0.00000   0.00000
  92       16F-1        0.00000   0.00000   0.00000   0.00000  -0.00001
  93       16F+2        0.00000   0.00000  -0.00045   0.00000   0.00000
  94       16F-2        0.00001   0.00000   0.00000   0.00000   0.00000
  95       16F+3        0.00000  -0.00012   0.00000   0.00000   0.00000
  96       16F-3        0.00000   0.00000   0.00000   0.00000   0.00000
  97 3   Br 1S          0.00002  -0.00002   0.00144  -0.00119   0.01210
  98        2S         -0.00009   0.00007  -0.00411   0.00166  -0.03730
  99        3S          0.00019  -0.00013  -0.00669  -0.00008  -0.00347
 100        4S          0.00000   0.00000   0.00065   0.00003   0.00000
 101        5S          0.00001   0.00000  -0.00050   0.00000  -0.00011
 102        6S          0.00004  -0.00004   0.00086  -0.00036   0.00014
 103        7S          0.00003  -0.00003   0.00248  -0.00023   0.00023
 104        8PX        -0.26236   0.19714   0.00039   0.00312   0.00290
 105        8PY        -0.00076   0.00072  -0.08211  -0.40843  -0.50155
 106        8PZ         0.00102  -0.00041  -0.07215   0.58345   0.50423
 107        9PX         0.74196  -0.55493  -0.00111  -0.00006  -0.00005
 108        9PY         0.00215  -0.00194   0.16775   0.00695   0.00679
 109        9PZ        -0.00289   0.00121   0.16220  -0.01230  -0.01241
 110       10PX         0.00125   0.00030   0.00000   0.00000   0.00000
 111       10PY         0.00001  -0.00001  -0.00025  -0.00024  -0.00021
 112       10PZ         0.00000   0.00000  -0.00001   0.00024   0.00024
 113       11PX         0.03313  -0.02417  -0.00005   0.00000   0.00000
 114       11PY         0.00010  -0.00008   0.00692   0.00061   0.00067
 115       11PZ        -0.00013   0.00005   0.00662  -0.00095  -0.00089
 116       12PX         0.00382  -0.00248  -0.00001   0.00000   0.00000
 117       12PY         0.00003  -0.00003   0.00193  -0.00017   0.00018
 118       12PZ        -0.00001  -0.00001  -0.00013  -0.00017   0.00001
 119       13PX        -0.00031   0.00038   0.00000   0.00000   0.00000
 120       13PY         0.00000   0.00000   0.00037  -0.00005   0.00002
 121       13PZ         0.00000   0.00000   0.00018   0.00001   0.00005
 122       14D 0        0.00001   0.00000  -0.00135   0.00040   0.00039
 123       14D+1       -0.00057   0.00022  -0.00001   0.00000   0.00000
 124       14D-1        0.00001  -0.00004   0.01055   0.00020   0.00027
 125       14D+2       -0.00001   0.00003  -0.00735   0.00024   0.00019
 126       14D-2        0.00017  -0.00031   0.00000   0.00000   0.00000
 127       15D 0        0.00000   0.00000  -0.00010   0.00001   0.00001
 128       15D+1        0.00004  -0.00010   0.00000   0.00000   0.00000
 129       15D-1        0.00000   0.00000   0.00092   0.00000   0.00002
 130       15D+2        0.00000   0.00000  -0.00065   0.00001   0.00000
 131       15D-2        0.00012  -0.00016   0.00000   0.00000   0.00000
 132       16D 0        0.00000   0.00000   0.00013   0.00006   0.00006
 133       16D+1       -0.00011   0.00012   0.00000   0.00000   0.00000
 134       16D-1        0.00000   0.00000   0.00099   0.00002   0.00002
 135       16D+2        0.00000   0.00001  -0.00042   0.00006   0.00003
 136       16D-2       -0.00019  -0.00001   0.00000   0.00000   0.00000
 137       17D 0        0.00000   0.00000  -0.00024   0.00001  -0.00002
 138       17D+1        0.00007  -0.00011   0.00000   0.00000   0.00000
 139       17D-1        0.00000   0.00000   0.00011  -0.00004   0.00002
 140       17D+2        0.00000   0.00000  -0.00052   0.00003  -0.00004
 141       17D-2        0.00013  -0.00036   0.00000   0.00000   0.00000
 142       18F 0        0.00000   0.00000  -0.00012   0.00000   0.00000
 143       18F+1        0.00002  -0.00002   0.00000   0.00000   0.00000
 144       18F-1        0.00000   0.00000   0.00011  -0.00001   0.00000
 145       18F+2        0.00000   0.00000  -0.00019   0.00000   0.00000
 146       18F-2        0.00023  -0.00018   0.00000   0.00000   0.00000
 147       18F+3       -0.00018   0.00011   0.00000   0.00000   0.00000
 148       18F-3        0.00000   0.00000  -0.00007   0.00000   0.00000
 149       19F 0        0.00000   0.00000  -0.00007   0.00001   0.00001
 150       19F+1       -0.00002   0.00006   0.00000   0.00000   0.00000
 151       19F-1        0.00000   0.00000   0.00021   0.00003   0.00002
 152       19F+2        0.00000   0.00000  -0.00022   0.00000   0.00001
 153       19F-2       -0.00018   0.00016   0.00000   0.00000   0.00000
 154       19F+3        0.00014   0.00002   0.00000   0.00000   0.00000
 155       19F-3        0.00000   0.00000  -0.00006   0.00001   0.00001
 156 4   Br 1S         -0.00002  -0.00002   0.00144  -0.00119  -0.01210
 157        2S          0.00009   0.00007  -0.00411   0.00165   0.03730
 158        3S         -0.00019  -0.00013  -0.00669  -0.00008   0.00347
 159        4S          0.00000   0.00000   0.00065   0.00003   0.00000
 160        5S         -0.00001   0.00000  -0.00050   0.00000   0.00011
 161        6S         -0.00004  -0.00004   0.00086  -0.00036  -0.00014
 162        7S         -0.00003  -0.00003   0.00248  -0.00023  -0.00023
 163        8PX         0.26236   0.19714   0.00039   0.00312  -0.00289
 164        8PY        -0.00076  -0.00072   0.08211   0.40854  -0.50147
 165        8PZ        -0.00102  -0.00041  -0.07215   0.58355  -0.50410
 166        9PX        -0.74196  -0.55493  -0.00111  -0.00006   0.00005
 167        9PY         0.00215   0.00194  -0.16775  -0.00695   0.00679
 168        9PZ         0.00289   0.00121   0.16220  -0.01231   0.01240
 169       10PX        -0.00125   0.00030   0.00000   0.00000   0.00000
 170       10PY         0.00001   0.00001   0.00025   0.00024  -0.00021
 171       10PZ         0.00000   0.00000  -0.00001   0.00024  -0.00024
 172       11PX        -0.03313  -0.02417  -0.00005   0.00000   0.00000
 173       11PY         0.00010   0.00008  -0.00692  -0.00061   0.00067
 174       11PZ         0.00013   0.00005   0.00662  -0.00095   0.00089
 175       12PX        -0.00382  -0.00248  -0.00001   0.00000   0.00000
 176       12PY         0.00003   0.00003  -0.00193   0.00017   0.00018
 177       12PZ         0.00001  -0.00001  -0.00013  -0.00017  -0.00001
 178       13PX         0.00031   0.00038   0.00000   0.00000   0.00000
 179       13PY         0.00000   0.00000  -0.00037   0.00005   0.00002
 180       13PZ         0.00000   0.00000   0.00018   0.00001  -0.00005
 181       14D 0       -0.00001   0.00000  -0.00135   0.00040  -0.00039
 182       14D+1        0.00057   0.00022  -0.00001   0.00000   0.00000
 183       14D-1        0.00001   0.00004  -0.01055  -0.00020   0.00027
 184       14D+2        0.00001   0.00003  -0.00735   0.00024  -0.00019
 185       14D-2        0.00017   0.00031   0.00000   0.00000   0.00000
 186       15D 0        0.00000   0.00000  -0.00010   0.00001  -0.00001
 187       15D+1       -0.00004  -0.00010   0.00000   0.00000   0.00000
 188       15D-1        0.00000   0.00000  -0.00092   0.00000   0.00002
 189       15D+2        0.00000   0.00000  -0.00065   0.00001   0.00000
 190       15D-2        0.00012   0.00016   0.00000   0.00000   0.00000
 191       16D 0        0.00000   0.00000   0.00013   0.00006  -0.00006
 192       16D+1        0.00011   0.00012   0.00000   0.00000   0.00000
 193       16D-1        0.00000   0.00000  -0.00099  -0.00002   0.00002
 194       16D+2        0.00000   0.00001  -0.00042   0.00006  -0.00003
 195       16D-2       -0.00019   0.00001   0.00000   0.00000   0.00000
 196       17D 0        0.00000   0.00000  -0.00024   0.00001   0.00002
 197       17D+1       -0.00007  -0.00011   0.00000   0.00000   0.00000
 198       17D-1        0.00000   0.00000  -0.00011   0.00004   0.00002
 199       17D+2        0.00000   0.00000  -0.00052   0.00003   0.00004
 200       17D-2        0.00013   0.00036   0.00000   0.00000   0.00000
 201       18F 0        0.00000   0.00000  -0.00012   0.00000   0.00000
 202       18F+1       -0.00002  -0.00002   0.00000   0.00000   0.00000
 203       18F-1        0.00000   0.00000  -0.00011   0.00001   0.00000
 204       18F+2        0.00000   0.00000  -0.00019   0.00000   0.00000
 205       18F-2        0.00023   0.00018   0.00000   0.00000   0.00000
 206       18F+3        0.00018   0.00011   0.00000   0.00000   0.00000
 207       18F-3        0.00000   0.00000   0.00007   0.00000   0.00000
 208       19F 0        0.00000   0.00000  -0.00007   0.00001  -0.00001
 209       19F+1        0.00002   0.00006   0.00000   0.00000   0.00000
 210       19F-1        0.00000   0.00000  -0.00021  -0.00003   0.00002
 211       19F+2        0.00000   0.00000  -0.00022   0.00000  -0.00001
 212       19F-2       -0.00018  -0.00016   0.00000   0.00000   0.00000
 213       19F+3       -0.00014   0.00002   0.00000   0.00000   0.00000
 214       19F-3        0.00000   0.00000   0.00006  -0.00001   0.00001
                          16        17        18        19        20
     Eigenvalues --     2.00000   2.00000   2.00000   2.00000   2.00000
   1 1   C  1S          0.00000   0.00004   0.00000   0.02385   0.00000
   2        2S          0.00000   0.00000   0.00000  -0.00022   0.00000
   3        3S          0.00000   0.00000   0.00000   0.00105   0.00000
   4        4S          0.00000   0.00000   0.00000  -0.00137   0.00000
   5        5S          0.00000   0.00000   0.00000  -0.00064   0.00000
   6        6PX         0.00000   0.00001   0.00000   0.00000   0.00000
   7        6PY        -0.00003   0.00000   0.00000   0.00000   0.00000
   8        6PZ         0.00000   0.00000   0.00000  -0.00004   0.00000
   9        7PX         0.00000  -0.00002   0.00000   0.00000   0.00000
  10        7PY         0.00006   0.00000   0.00000   0.00000  -0.00002
  11        7PZ         0.00000   0.00000   0.00000   0.00007   0.00000
  12        8PX         0.00000  -0.00015   0.00000   0.00000   0.00000
  13        8PY         0.00061   0.00000   0.00000   0.00000  -0.00002
  14        8PZ         0.00000   0.00000   0.00000   0.00053   0.00000
  15        9PX         0.00000   0.00003   0.00000   0.00000   0.00000
  16        9PY         0.00007   0.00000   0.00000   0.00000   0.00001
  17        9PZ         0.00000   0.00000   0.00000   0.00013   0.00000
  18       10D 0        0.00000   0.00000   0.00000   0.00001   0.00000
  19       10D+1        0.00000   0.00000   0.00000   0.00000   0.00000
  20       10D-1        0.00000   0.00000   0.00000   0.00000   0.00000
  21       10D+2        0.00000   0.00000   0.00000  -0.00001   0.00000
  22       10D-2        0.00000   0.00000  -0.00001   0.00000   0.00000
  23       11D 0        0.00000   0.00000   0.00000  -0.00003   0.00000
  24       11D+1        0.00000   0.00002   0.00000   0.00000   0.00000
  25       11D-1       -0.00008   0.00000   0.00000   0.00000   0.00001
  26       11D+2        0.00000   0.00000   0.00000   0.00014   0.00000
  27       11D-2        0.00000   0.00000   0.00004   0.00000   0.00000
  28       12D 0        0.00000   0.00000   0.00000   0.00011   0.00000
  29       12D+1        0.00000  -0.00004   0.00000   0.00000   0.00000
  30       12D-1       -0.00042   0.00000   0.00000   0.00000   0.00005
  31       12D+2        0.00000   0.00000   0.00000   0.00021   0.00000
  32       12D-2        0.00000   0.00000  -0.00004   0.00000   0.00000
  33       13F 0        0.00000   0.00000   0.00000   0.00000   0.00000
  34       13F+1        0.00000   0.00000   0.00000   0.00000   0.00000
  35       13F-1        0.00000   0.00000   0.00000   0.00000   0.00000
  36       13F+2        0.00000   0.00000   0.00000   0.00000   0.00000
  37       13F-2        0.00000   0.00000   0.00000   0.00000   0.00000
  38       13F+3        0.00000  -0.00001   0.00000   0.00000   0.00000
  39       13F-3        0.00001   0.00000   0.00000   0.00000   0.00000
  40       14F 0        0.00000   0.00000   0.00000  -0.00001   0.00000
  41       14F+1        0.00000  -0.00002   0.00000   0.00000   0.00000
  42       14F-1       -0.00005   0.00000   0.00000   0.00000   0.00001
  43       14F+2        0.00000   0.00000   0.00000  -0.00004   0.00000
  44       14F-2        0.00000   0.00000  -0.00003   0.00000   0.00000
  45       14F+3        0.00000   0.00004   0.00000   0.00000   0.00000
  46       14F-3       -0.00004   0.00000   0.00000   0.00000   0.00001
  47 2   S  1S          0.00000  -0.00004   0.00000  -0.03430   0.00001
  48        2S          0.00000  -0.00001   0.00000  -0.00604   0.00000
  49        3S          0.00000   0.00000   0.00000   0.00002   0.00000
  50        4S          0.00000   0.00000   0.00000  -0.00043   0.00000
  51        5S          0.00000   0.00000   0.00000   0.00003   0.00000
  52        6S          0.00000   0.00000   0.00000   0.00003   0.00000
  53        7PX         0.00000  -0.00082   0.00000   0.00017   0.00000
  54        7PY         0.00056   0.00000   0.00000   0.00000   0.00004
  55        7PZ         0.00000   0.00003   0.00000   0.01331   0.00000
  56        8PX         0.00000   0.00001   0.00000   0.00000   0.00000
  57        8PY         0.00000   0.00000   0.00000   0.00000  -0.00001
  58        8PZ         0.00000   0.00000   0.00000  -0.00016   0.00000
  59        9PX         0.00000  -0.00005   0.00000   0.00001   0.00000
  60        9PY         0.00004   0.00000   0.00000   0.00000   0.00000
  61        9PZ         0.00000   0.00000   0.00000   0.00089   0.00000
  62       10PX         0.00000   0.00010   0.00000   0.00000   0.00000
  63       10PY         0.00018   0.00000   0.00000   0.00000  -0.00001
  64       10PZ         0.00000   0.00000   0.00000  -0.00006   0.00000
  65       11PX         0.00000  -0.00001   0.00000   0.00000   0.00000
  66       11PY         0.00000   0.00000   0.00000   0.00000   0.00000
  67       11PZ         0.00000   0.00000   0.00000  -0.00003   0.00000
  68       12D 0        0.00000   0.00000   0.00000   0.00007   0.00000
  69       12D+1        0.00000  -0.00002   0.00000   0.00000   0.00000
  70       12D-1       -0.00001   0.00000   0.00000   0.00000   0.00000
  71       12D+2        0.00000   0.00000   0.00000  -0.00001   0.00000
  72       12D-2        0.00000   0.00000   0.00001   0.00000   0.00000
  73       13D 0        0.00000   0.00000   0.00000  -0.00002   0.00000
  74       13D+1        0.00000   0.00000   0.00000   0.00000   0.00000
  75       13D-1        0.00000   0.00000   0.00000   0.00000   0.00000
  76       13D+2        0.00000   0.00000   0.00000   0.00000   0.00000
  77       13D-2        0.00000   0.00000   0.00000   0.00000   0.00000
  78       14D 0        0.00000   0.00000   0.00000   0.00003   0.00000
  79       14D+1        0.00000  -0.00005   0.00000   0.00000   0.00000
  80       14D-1       -0.00004   0.00000   0.00000   0.00000   0.00000
  81       14D+2        0.00000   0.00000   0.00000  -0.00002   0.00000
  82       14D-2        0.00000   0.00000   0.00001   0.00000   0.00000
  83       15F 0        0.00000   0.00000   0.00000   0.00001   0.00000
  84       15F+1        0.00000   0.00000   0.00000   0.00000   0.00000
  85       15F-1        0.00000   0.00000   0.00000   0.00000   0.00000
  86       15F+2        0.00000   0.00000   0.00000   0.00001   0.00000
  87       15F-2        0.00000   0.00000   0.00000   0.00000   0.00000
  88       15F+3        0.00000   0.00000   0.00000   0.00000   0.00000
  89       15F-3        0.00000   0.00000   0.00000   0.00000   0.00000
  90       16F 0        0.00000   0.00000   0.00000  -0.00002   0.00000
  91       16F+1        0.00000   0.00002   0.00000   0.00000   0.00000
  92       16F-1        0.00000   0.00000   0.00000   0.00000   0.00000
  93       16F+2        0.00000   0.00000   0.00000   0.00000   0.00000
  94       16F-2        0.00000   0.00000  -0.00001   0.00000   0.00000
  95       16F+3        0.00000  -0.00001   0.00000   0.00000   0.00000
  96       16F-3        0.00000   0.00000   0.00000   0.00000   0.00000
  97 3   Br 1S         -0.05063  -0.00007  -0.00001   0.00605  -0.21868
  98        2S          0.15829   0.00022   0.00004  -0.02021   0.70914
  99        3S          0.01475   0.00001  -0.00001   0.00680   0.03029
 100        4S         -0.00014   0.00000   0.00000  -0.00008  -0.00020
 101        5S          0.00044   0.00000   0.00000   0.00022   0.00071
 102        6S          0.00076   0.00000   0.00000   0.00078   0.00003
 103        7S          0.00008   0.00000   0.00000   0.00029   0.00003
 104        8PX         0.00127   0.71284   0.71323  -0.00076  -0.00017
 105        8PY         0.48001   0.00242   0.00116   0.57485  -0.13779
 106        8PZ         0.49300  -0.00212  -0.00295   0.40322  -0.08625
 107        9PX        -0.00004  -0.01583  -0.01657  -0.00002   0.00001
 108        9PY         0.00507  -0.00003  -0.00005   0.00883   0.00236
 109        9PZ        -0.00005   0.00006   0.00005   0.00575   0.00145
 110       10PX         0.00000   0.00028   0.00029   0.00000   0.00000
 111       10PY         0.00026   0.00000   0.00000   0.00035  -0.00007
 112       10PZ         0.00029   0.00000   0.00000   0.00023  -0.00005
 113       11PX         0.00000  -0.00121  -0.00124   0.00000   0.00000
 114       11PY        -0.00022   0.00000   0.00000  -0.00017   0.00022
 115       11PZ        -0.00043   0.00000   0.00000  -0.00013   0.00014
 116       12PX         0.00000  -0.00008  -0.00013   0.00000   0.00000
 117       12PY         0.00024   0.00000   0.00000   0.00025   0.00005
 118       12PZ         0.00008   0.00000   0.00000   0.00024   0.00003
 119       13PX         0.00000   0.00001   0.00003   0.00000   0.00000
 120       13PY         0.00000   0.00000   0.00000   0.00004   0.00000
 121       13PZ         0.00001   0.00000   0.00000   0.00001   0.00000
 122       14D 0        0.00007   0.00000   0.00000  -0.00001  -0.00003
 123       14D+1        0.00000   0.00003   0.00003   0.00000   0.00000
 124       14D-1       -0.00022   0.00000   0.00000   0.00008   0.00001
 125       14D+2        0.00024   0.00000   0.00000  -0.00003   0.00006
 126       14D-2        0.00000  -0.00001  -0.00002   0.00000   0.00000
 127       15D 0        0.00000   0.00000   0.00000   0.00000   0.00000
 128       15D+1        0.00000  -0.00001  -0.00001   0.00000   0.00000
 129       15D-1       -0.00004   0.00000   0.00000  -0.00002   0.00000
 130       15D+2        0.00003   0.00000   0.00000   0.00002   0.00000
 131       15D-2        0.00000  -0.00002  -0.00002   0.00000   0.00000
 132       16D 0        0.00003   0.00000   0.00000  -0.00001  -0.00001
 133       16D+1        0.00000   0.00003   0.00002   0.00000   0.00000
 134       16D-1        0.00010   0.00000   0.00000   0.00014  -0.00001
 135       16D+2       -0.00005   0.00000   0.00000  -0.00011   0.00000
 136       16D-2        0.00000   0.00004   0.00004   0.00000   0.00000
 137       17D 0       -0.00003   0.00000   0.00000   0.00001   0.00000
 138       17D+1        0.00000   0.00000  -0.00002   0.00000   0.00000
 139       17D-1        0.00003   0.00000   0.00000   0.00006   0.00001
 140       17D+2       -0.00001   0.00000   0.00000  -0.00003  -0.00002
 141       17D-2        0.00000   0.00000  -0.00002   0.00000   0.00000
 142       18F 0        0.00000   0.00000   0.00000   0.00000   0.00000
 143       18F+1        0.00000   0.00000   0.00000   0.00000   0.00000
 144       18F-1        0.00001   0.00000   0.00000   0.00000   0.00000
 145       18F+2       -0.00001   0.00000   0.00000  -0.00001   0.00000
 146       18F-2        0.00000  -0.00001   0.00000   0.00000   0.00000
 147       18F+3        0.00000   0.00000   0.00000   0.00000   0.00000
 148       18F-3        0.00000   0.00000   0.00000  -0.00001   0.00000
 149       19F 0       -0.00001   0.00000   0.00000  -0.00002   0.00000
 150       19F+1        0.00000   0.00001   0.00000   0.00000   0.00000
 151       19F-1        0.00002   0.00000   0.00000   0.00001   0.00000
 152       19F+2       -0.00002   0.00000   0.00000  -0.00003   0.00000
 153       19F-2        0.00000   0.00002   0.00001   0.00000   0.00000
 154       19F+3        0.00000  -0.00002  -0.00001   0.00000   0.00000
 155       19F-3        0.00000   0.00000   0.00000  -0.00002   0.00000
 156 4   Br 1S          0.05063  -0.00007   0.00001   0.00605   0.21872
 157        2S         -0.15828   0.00022  -0.00004  -0.02022  -0.70924
 158        3S         -0.01475   0.00001   0.00001   0.00680  -0.03029
 159        4S          0.00014   0.00000   0.00000  -0.00008   0.00020
 160        5S         -0.00044   0.00000   0.00000   0.00022  -0.00071
 161        6S         -0.00076   0.00000   0.00000   0.00078  -0.00003
 162        7S         -0.00008   0.00000   0.00000   0.00029  -0.00003
 163        8PX        -0.00127   0.71297  -0.71310  -0.00075   0.00017
 164        8PY         0.48001  -0.00242   0.00116  -0.57484  -0.13778
 165        8PZ        -0.49301  -0.00212   0.00295   0.40322   0.08625
 166        9PX         0.00004  -0.01583   0.01656  -0.00002  -0.00001
 167        9PY         0.00507   0.00003  -0.00005  -0.00883   0.00236
 168        9PZ         0.00005   0.00006  -0.00005   0.00575  -0.00145
 169       10PX         0.00000   0.00028  -0.00029   0.00000   0.00000
 170       10PY         0.00026   0.00000   0.00000  -0.00035  -0.00007
 171       10PZ        -0.00029   0.00000   0.00000   0.00023   0.00005
 172       11PX         0.00000  -0.00121   0.00124   0.00000   0.00000
 173       11PY        -0.00022   0.00000   0.00000   0.00017   0.00022
 174       11PZ         0.00043   0.00000   0.00000  -0.00013  -0.00014
 175       12PX         0.00000  -0.00008   0.00013   0.00000   0.00000
[...]
 168        9PZ        -0.00749   0.01194  -0.00316   0.00541   0.00045
 169       10PX        -0.00012  -0.00061  -0.00213   0.00045  -0.10236
 170       10PY         0.26358  -0.47307   0.00167   0.14895  -0.00531
 171       10PZ        -0.16751   0.18269  -0.11495   0.04511   0.00540
 172       11PX         0.00003  -0.00002   0.00057  -0.00008   0.03547
 173       11PY         0.01249   0.00137   0.05300  -0.00052   0.00051
 174       11PZ        -0.00867  -0.00009  -0.01222  -0.01901  -0.00065
 175       12PX         0.00622   0.00523   0.00678  -0.00784   0.38405
 176       12PY         7.91803  -5.31704   2.94712  -5.75203   0.00109
 177       12PZ        -3.13550   6.00092  -1.79377   2.51648   0.01039
 178       13PX        -0.00014   0.00921  -0.01579   0.00567  -2.12473
 179       13PY        -0.55530  -1.07581   2.00639  -3.30518   0.00886
 180       13PZ        -1.67997   0.73243   0.21773   1.13718  -0.07953
 181       14D 0        0.00295  -0.00146  -0.00419  -0.00022   0.00006
 182       14D+1        0.00001  -0.00002  -0.00002  -0.00001   0.00096
 183       14D-1        0.00392   0.00096   0.00023   0.00004  -0.00006
 184       14D+2        0.00410  -0.00133   0.00255   0.00375  -0.00003
 185       14D-2        0.00000   0.00002   0.00000  -0.00001  -0.00122
 186       15D 0       -0.03645   0.02529   0.04825   0.00238  -0.00061
 187       15D+1       -0.00008   0.00032   0.00015   0.00021  -0.01487
 188       15D-1       -0.05350   0.00291  -0.01564   0.01192   0.00083
 189       15D+2       -0.04990   0.02712  -0.03457  -0.03400   0.00040
 190       15D-2        0.00001  -0.00026   0.00013   0.00005   0.02431
 191       16D 0        0.23316  -0.17947  -0.24492  -0.02101   0.00288
 192       16D+1        0.00019  -0.00191  -0.00098  -0.00095   0.07204
 193       16D-1        0.44965  -0.38067   0.30030  -0.14069  -0.00617
 194       16D+2        0.41226  -0.41061   0.28189   0.09986  -0.00304
 195       16D-2        0.00054   0.00170  -0.00030  -0.00026  -0.12764
 196       17D 0        0.61877   0.80624   0.30641  -0.47576  -0.00669
 197       17D+1       -0.00046  -0.00035   0.00198   0.00041  -0.16086
 198       17D-1        0.94847  -1.75066   0.00137  -1.41497   0.00543
 199       17D+2        0.77523  -0.49697  -0.02707  -2.00712   0.00732
 200       17D-2       -0.00245  -0.00596  -0.00090   0.00279   0.14851
 201       18F 0       -0.03685  -0.00154   0.02628  -0.00409   0.00001
 202       18F+1        0.00046   0.00052  -0.00025  -0.00031  -0.01545
 203       18F-1        0.00246  -0.03636   0.00157   0.01255  -0.00003
 204       18F+2       -0.00779  -0.01200  -0.00021   0.03797   0.00028
 205       18F-2        0.00008  -0.00050   0.00004  -0.00021   0.00483
 206       18F+3        0.00010   0.00004   0.00044  -0.00011   0.04309
 207       18F-3       -0.02339  -0.01547  -0.01286  -0.03357   0.00055
 208       19F 0        0.20110  -0.09510  -0.06833  -0.06557  -0.00122
 209       19F+1       -0.00133  -0.00179   0.00042   0.00073   0.02383
 210       19F-1       -0.02128   0.03534   0.05109  -0.03828  -0.00010
 211       19F+2        0.13235  -0.11264   0.02472  -0.19769  -0.00128
 212       19F-2        0.00018   0.00204   0.00009   0.00045  -0.01478
 213       19F+3        0.00019  -0.00040  -0.00094   0.00019  -0.10279
 214       19F-3        0.00329   0.09016   0.01715   0.17894  -0.00126
                         211       212       213       214
     Eigenvalues --     0.00000   0.00000   0.00000   0.00000
   1 1   C  1S         -0.12795   0.00000   0.02589  -0.01998
   2        2S         -0.60899   0.00000   0.10286  -0.06099
   3        3S          0.09127   0.00000  -0.06565   0.11053
   4        4S          3.15197   0.00000  -3.53702   1.01221
   5        5S         21.30699   0.00000   2.62565  26.11055
   6        6PX         0.00091   0.00000  -0.00005   0.00034
   7        6PY         0.00000  -0.01521   0.00000   0.00000
   8        6PZ        -0.00625   0.00000  -0.02077   0.01768
   9        7PX        -0.00193   0.00000  -0.00052  -0.00227
  10        7PY         0.00000   0.02359   0.00000   0.00000
  11        7PZ         0.10752   0.00000   0.01258  -0.17048
  12        8PX         0.01897   0.00000  -0.02363   0.00237
  13        8PY         0.00000  -5.93125   0.00000   0.00000
  14        8PZ         3.65328   0.00000  -5.10624   0.28505
  15        9PX        -0.10850   0.00000  -0.04072   0.03471
  16        9PY         0.00000 -19.77647   0.00000   0.00000
  17        9PZ         8.47218   0.00000 -12.92564  -0.38659
  18       10D 0        0.00977   0.00000   0.00928   0.01170
  19       10D+1       -0.00027   0.00000   0.00007   0.00016
  20       10D-1        0.00000  -0.01291   0.00000   0.00000
  21       10D+2       -0.03237   0.00000   0.01092  -0.03153
  22       10D-2        0.00000  -0.00021   0.00000   0.00000
  23       11D 0        0.20874   0.00000  -0.02949  -0.30874
  24       11D+1        0.00363   0.00000  -0.00111  -0.00314
  25       11D-1        0.00000   0.25215   0.00000   0.00000
  26       11D+2        0.15957   0.00000  -0.05669   0.18665
  27       11D-2        0.00000  -0.00012   0.00000   0.00000
  28       12D 0        2.87410   0.00000  -0.66257  -0.45366
  29       12D+1        0.00648   0.00000  -0.01183  -0.00180
  30       12D-1        0.00000   2.17425   0.00000   0.00000
  31       12D+2       -0.07998   0.00000  -0.50583  -0.64559
  32       12D-2        0.00000  -0.00917   0.00000   0.00000
  33       13F 0       -0.00985   0.00000  -0.01078  -0.02713
  34       13F+1        0.00084   0.00000   0.00004  -0.00028
  35       13F-1        0.00000  -0.00460   0.00000   0.00000
  36       13F+2       -0.00522   0.00000   0.00719  -0.00778
  37       13F-2        0.00000  -0.00028   0.00000   0.00000
  38       13F+3       -0.00095   0.00000   0.00023   0.00002
  39       13F-3        0.00000   0.00860   0.00000   0.00000
  40       14F 0        0.04111   0.00000   0.06945  -0.14085
  41       14F+1        0.00110   0.00000  -0.00003  -0.00136
  42       14F-1        0.00000  -0.01681   0.00000   0.00000
  43       14F+2       -0.06841   0.00000  -0.03290  -0.09984
  44       14F-2        0.00000   0.00177   0.00000   0.00000
  45       14F+3        0.00010   0.00000  -0.00086  -0.00003
  46       14F-3        0.00000  -0.01547   0.00000   0.00000
  47 2   S  1S          0.00679   0.00000   0.00247   0.00192
  48        2S          0.11979   0.00000   0.09593   0.01833
  49        3S          0.31600   0.00000   0.16102   0.07148
  50        4S         -0.02990   0.00000  -0.18208  -0.01065
  51        5S         -6.81382   0.00000   1.48222   1.59499
  52        6S        -11.35563   0.00000  20.43414 -12.71023
  53        7PX         0.00076   0.00000   0.00013  -0.00028
  54        7PY         0.00000   0.00813   0.00000   0.00000
  55        7PZ         0.01626   0.00000   0.03037  -0.03692
  56        8PX         0.00717   0.00000   0.00240  -0.00528
  57        8PY         0.00000   0.08250   0.00000   0.00000
  58        8PZ         0.49828   0.00000   0.44664  -0.76241
  59        9PX        -0.00270   0.00000  -0.00039   0.00089
  60        9PY         0.00000  -0.02683   0.00000   0.00000
  61        9PZ        -0.03934   0.00000  -0.10476   0.11256
  62       10PX         0.03096   0.00000  -0.02902   0.01484
  63       10PY         0.00000  -0.48309   0.00000   0.00000
  64       10PZ         2.68439   0.00000  -5.99323   2.17098
  65       11PX         0.09726   0.00000  -0.03062   0.01565
  66       11PY         0.00000   5.07866   0.00000   0.00000
  67       11PZ        -1.33460   0.00000  -2.02892   4.21706
  68       12D 0       -0.61519   0.00000   0.22627   0.34574
  69       12D+1        0.00035   0.00000   0.00017   0.00338
  70       12D-1        0.00000   0.13429   0.00000   0.00000
  71       12D+2        0.20236   0.00000   0.01277   0.07803
  72       12D-2        0.00000   0.00218   0.00000   0.00000
  73       13D 0        0.10617   0.00000  -0.03557  -0.00987
  74       13D+1       -0.00027   0.00000  -0.00008   0.00000
  75       13D-1        0.00000  -0.03579   0.00000   0.00000
  76       13D+2       -0.05389   0.00000   0.00238  -0.01743
  77       13D-2        0.00000  -0.00066   0.00000   0.00000
  78       14D 0        1.21582   0.00000   1.69401  -1.20574
  79       14D+1       -0.01732   0.00000   0.01771  -0.01313
  80       14D-1        0.00000  -0.27011   0.00000   0.00000
  81       14D+2       -0.53194   0.00000  -0.02486   0.00040
  82       14D-2        0.00000  -0.00172   0.00000   0.00000
  83       15F 0        0.03875   0.00000   0.06656  -0.05847
  84       15F+1        0.00033   0.00000   0.00106  -0.00123
  85       15F-1        0.00000  -0.01276   0.00000   0.00000
  86       15F+2       -0.01519   0.00000  -0.01010   0.01454
  87       15F-2        0.00000   0.00067   0.00000   0.00000
  88       15F+3       -0.00059   0.00000  -0.00005   0.00013
  89       15F-3        0.00000  -0.03765   0.00000   0.00000
  90       16F 0       -0.15672   0.00000  -0.29818   0.08177
  91       16F+1       -0.00209   0.00000  -0.00371   0.00225
  92       16F-1        0.00000   0.03302   0.00000   0.00000
  93       16F+2        0.06803   0.00000   0.01666  -0.07445
  94       16F-2        0.00000  -0.00163   0.00000   0.00000
  95       16F+3        0.00142   0.00000  -0.00003  -0.00075
  96       16F-3        0.00000   0.10141   0.00000   0.00000
  97 3   Br 1S          0.00026  -0.00013  -0.00021   0.00023
  98        2S          0.00243   0.00229   0.00044   0.00089
  99        3S          0.01027   0.00273  -0.00298   0.00625
 100        4S          0.03249   0.03849   0.00788   0.01066
 101        5S          0.00862   0.11543   0.04100  -0.02881
 102        6S          0.29203  -1.95829  -0.43525   0.07053
 103        7S         -4.66561 -21.43936 -10.30144  -7.26639
 104        8PX        -0.00003  -0.00001   0.00000   0.00000
 105        8PY        -0.00060  -0.00100  -0.00003  -0.00004
 106        8PZ         0.00002  -0.00062  -0.00025  -0.00012
 107        9PX         0.00033   0.00012   0.00006  -0.00007
 108        9PY         0.01829   0.01709   0.00518   0.01758
 109        9PZ         0.01396   0.00600   0.01214   0.01083
 110       10PX         0.00222   0.00085   0.00055  -0.00060
 111       10PY         0.18384   0.14970   0.05969   0.20333
 112       10PZ         0.16264   0.03922   0.12929   0.12142
 113       11PX        -0.00077  -0.00026  -0.00011   0.00015
 114       11PY        -0.03015  -0.02776  -0.00502  -0.02480
 115       11PZ        -0.02072  -0.01242  -0.01740  -0.01439
 116       12PX        -0.00631  -0.00836  -0.00422   0.00163
 117       12PY        -0.99683  -4.57655  -1.69984  -0.47620
 118       12PZ        -0.20794  -2.69388  -1.56059  -0.61389
 119       13PX         0.03535   0.01224   0.01091  -0.00681
 120       13PY        -0.82273  -1.77203  -2.96850  -2.36795
 121       13PZ        -3.07480  -3.44236   0.33455  -1.42988
 122       14D 0        0.00102   0.00010  -0.00146  -0.00059
 123       14D+1       -0.00003  -0.00002   0.00000   0.00000
 124       14D-1        0.00207   0.00079   0.00087   0.00156
 125       14D+2       -0.00019   0.00098  -0.00070  -0.00070
 126       14D-2       -0.00002   0.00000  -0.00001   0.00000
 127       15D 0       -0.01242  -0.00326   0.01513   0.01004
 128       15D+1        0.00040   0.00030   0.00003   0.00002
 129       15D-1       -0.02802   0.00619  -0.00811  -0.02321
 130       15D+2       -0.00054  -0.02121   0.00672   0.01255
 131       15D-2        0.00047   0.00008   0.00009  -0.00005
 132       16D 0        0.06416   0.01644  -0.05192  -0.06631
 133       16D+1       -0.00195  -0.00162  -0.00020  -0.00025
 134       16D-1        0.17328  -0.14845   0.02914   0.19887
 135       16D+2       -0.01132   0.16614  -0.02123  -0.12811
 136       16D-2       -0.00260  -0.00086  -0.00053   0.00014
 137       17D 0       -0.20696   0.17072   0.06007   0.04997
 138       17D+1        0.00132   0.00072  -0.00082   0.00157
 139       17D-1       -0.30547  -1.12745  -0.73033  -0.40081
 140       17D+2        0.28822   0.79364   0.47986   0.11850
 141       17D-2        0.00443  -0.00165  -0.00042  -0.00048
 142       18F 0        0.00240  -0.02778   0.00931   0.00233
 143       18F+1        0.00033   0.00000   0.00006  -0.00010
 144       18F-1        0.00001   0.01010   0.00400   0.00240
 145       18F+2        0.01823  -0.01498  -0.01443   0.00322
 146       18F-2        0.00036   0.00033  -0.00003  -0.00019
 147       18F+3       -0.00059  -0.00005  -0.00012   0.00004
 148       18F-3       -0.02794  -0.02964  -0.00541   0.00474
 149       19F 0       -0.05193   0.12648  -0.00333  -0.02833
 150       19F+1       -0.00098  -0.00006  -0.00032   0.00032
 151       19F-1       -0.00153  -0.05083  -0.02085  -0.00304
 152       19F+2       -0.05571   0.12402   0.06860  -0.04165
 153       19F-2       -0.00124  -0.00111  -0.00013   0.00036
 154       19F+3        0.00136   0.00053   0.00038  -0.00001
 155       19F-3        0.06851   0.12215   0.02651  -0.03393
 156 4   Br 1S          0.00026   0.00013  -0.00021   0.00023
 157        2S          0.00243  -0.00229   0.00044   0.00089
 158        3S          0.01027  -0.00273  -0.00298   0.00625
 159        4S          0.03249  -0.03849   0.00788   0.01066
 160        5S          0.00862  -0.11543   0.04100  -0.02881
 161        6S          0.29203   1.95829  -0.43525   0.07053
 162        7S         -4.66561  21.43936 -10.30144  -7.26639
 163        8PX        -0.00003   0.00001   0.00000   0.00000
 164        8PY         0.00060  -0.00100   0.00003   0.00004
 165        8PZ         0.00002   0.00062  -0.00025  -0.00012
 166        9PX         0.00033  -0.00012   0.00006  -0.00007
 167        9PY        -0.01829   0.01709  -0.00518  -0.01758
 168        9PZ         0.01396  -0.00600   0.01214   0.01083
 169       10PX         0.00222  -0.00085   0.00055  -0.00060
 170       10PY        -0.18384   0.14970  -0.05969  -0.20333
 171       10PZ         0.16264  -0.03922   0.12929   0.12142
 172       11PX        -0.00077   0.00026  -0.00011   0.00015
 173       11PY         0.03015  -0.02776   0.00502   0.02480
 174       11PZ        -0.02072   0.01242  -0.01740  -0.01439
 175       12PX        -0.00631   0.00836  -0.00422   0.00163
 176       12PY         0.99683  -4.57655   1.69984   0.47620
 177       12PZ        -0.20794   2.69388  -1.56059  -0.61389
 178       13PX         0.03535  -0.01224   0.01091  -0.00681
 179       13PY         0.82273  -1.77203   2.96850   2.36795
 180       13PZ        -3.07480   3.44236   0.33455  -1.42988
 181       14D 0        0.00102  -0.00010  -0.00146  -0.00059
 182       14D+1       -0.00003   0.00002   0.00000   0.00000
 183       14D-1       -0.00207   0.00079  -0.00087  -0.00156
 184       14D+2       -0.00019  -0.00098  -0.00070  -0.00070
 185       14D-2        0.00002   0.00000   0.00001   0.00000
 186       15D 0       -0.01242   0.00326   0.01513   0.01004
 187       15D+1        0.00040  -0.00030   0.00003   0.00002
 188       15D-1        0.02802   0.00619   0.00811   0.02321
 189       15D+2       -0.00054   0.02121   0.00672   0.01255
 190       15D-2       -0.00047   0.00008  -0.00009   0.00005
 191       16D 0        0.06416  -0.01644  -0.05192  -0.06631
 192       16D+1       -0.00195   0.00162  -0.00020  -0.00025
 193       16D-1       -0.17328  -0.14845  -0.02914  -0.19887
 194       16D+2       -0.01132  -0.16614  -0.02123  -0.12811
 195       16D-2        0.00260  -0.00086   0.00053  -0.00014
 196       17D 0       -0.20696  -0.17072   0.06007   0.04997
 197       17D+1        0.00132  -0.00072  -0.00082   0.00157
 198       17D-1        0.30547  -1.12745   0.73033   0.40081
 199       17D+2        0.28822  -0.79364   0.47986   0.11850
 200       17D-2       -0.00443  -0.00165   0.00042   0.00048
 201       18F 0        0.00240   0.02778   0.00931   0.00233
 202       18F+1        0.00033   0.00000   0.00006  -0.00010
 203       18F-1       -0.00001   0.01010  -0.00400  -0.00240
 204       18F+2        0.01823   0.01498  -0.01443   0.00322
 205       18F-2       -0.00036   0.00033   0.00003   0.00019
 206       18F+3       -0.00059   0.00005  -0.00012   0.00004
 207       18F-3        0.02794  -0.02964   0.00541  -0.00474
 208       19F 0       -0.05193  -0.12648  -0.00333  -0.02833
 209       19F+1       -0.00098   0.00006  -0.00032   0.00032
 210       19F-1        0.00153  -0.05083   0.02085   0.00304
 211       19F+2       -0.05571  -0.12402   0.06860  -0.04165
 212       19F-2        0.00124  -0.00111   0.00013  -0.00036
 213       19F+3        0.00136  -0.00053   0.00038  -0.00001
 214       19F-3       -0.06851   0.12215  -0.02651   0.03393
          Condensed to atoms (all electrons):
              1          2          3          4
     1  C    6.376597  -0.031079  -0.092593  -0.092593
     2  S   -0.031079  16.451959  -0.188172  -0.188172
     3  Br  -0.092593  -0.188172  35.314774  -0.136442
     4  Br  -0.092593  -0.188172  -0.136442  35.314774
 Mulliken atomic charges:
              1
     1  C   -0.160332
     2  S   -0.044536
     3  Br   0.102434
     4  Br   0.102434
 Sum of Mulliken atomic charges =   0.00000
 Mulliken charges with hydrogens summed into heavy atoms:
              1
     1  C   -0.160332
     2  S   -0.044536
     3  Br   0.102434
     4  Br   0.102434
 Sum of Mulliken charges with hydrogens summed into heavy atoms =   0.00000
 Electronic spatial extent (au):  <R**2>=           1431.6440
 Charge=              0.0000 electrons
 Dipole moment (field-independent basis, Debye):
    X=              0.0014    Y=              0.0000    Z=             -0.4735  Tot=              0.4735
 Quadrupole moment (field-independent basis, Debye-Ang):
   XX=            -54.9569   YY=            -53.8190   ZZ=            -53.7720
   XY=              0.0000   XZ=             -0.0008   YZ=              0.0000
 Traceless Quadrupole moment (field-independent basis, Debye-Ang):
   XX=             -0.7743   YY=              0.3636   ZZ=              0.4106
   XY=              0.0000   XZ=             -0.0008   YZ=              0.0000
 Octapole moment (field-independent basis, Debye-Ang**2):
  XXX=             -0.3629  YYY=              0.0000  ZZZ=            141.2586  XYY=             -0.1270
  XXY=              0.0000  XXZ=             47.7784  XZZ=             -0.0893  YZZ=              0.0000
  YYZ=             35.3443  XYZ=              0.0000
 Hexadecapole moment (field-independent basis, Debye-Ang**3):
 XXXX=            -67.2576 YYYY=           -572.3421 ZZZZ=           -700.4540 XXXY=              0.0000
 XXXZ=             -0.4018 YYYX=              0.0000 YYYZ=              0.0000 ZZZX=             -0.4112
 ZZZY=              0.0000 XXYY=           -113.5377 XXZZ=           -130.5011 YYZZ=           -194.9028
 XXYZ=              0.0000 YYXZ=             -0.1849 ZZXY=              0.0000
 N-N= 5.475688546430D+02 E-N=-1.443633202217D+04  KE= 5.579845867547D+03
 1\1\GINC-TRAPISTA\SP\RQCISD-FC\Aug-CC-pVTZ\C1Br2S1\BRUNS\29-Nov-2021\0
 \\# qcisd/aug-cc-pvtz nosymm density=current output=wfn\\br2cs-wavefun
 ction\\0,1\C,0,0.,0.,-0.519451\S,0,0.01,0.,1.083692\Br,0,0.,-1.568516,
 -1.57857\Br,0,0.,1.568516,-1.57857\\Version=EM64L-G09RevB.01\HF=-5580.
 3086773\MP2=-5581.1187829\MP3=-5581.1309605\MP4D=-5581.1549457\MP4DQ=-
 5581.1314709\MP4SDQ=-5581.1411465\QCISD=-5581.1375849\RMSD=3.245e-09\D
 ipole=0.0005693,0.,-0.1862707\Quadrupole=-0.5756581,0.270355,0.3053031
 ,0.,-0.0005684,0.\PG=CS [SG(C1S1),X(Br2)]\\@

 Writing a WFN file to GAUSSIAN.wfn.


 CHRISTMAS IS ON TOP OF A STEEP HILL.
 THE CLOSER YOU GET, THE STEEPER THE HILL IS.
          -- LINUS, OF PEANUTS
 Job cpu time:  0 days  5 hours 58 minutes  8.4 seconds.
 File lengths (MBytes):  RWF=  25271 Int=      0 D2E=      0 Chk=      4 Scr=      1
 Normal termination of Gaussian 09 at Mon Nov 29 05:53:51 2021.
