 br2cs-wavefunction
GAUSSIAN            214 MOL ORBITALS    620 PRIMITIVES        4 NUCLEI
  C    1    (CENTRE  1)   0.00000000  0.00000000 -0.98162013  CHARGE =  6.0
  S    2    (CENTRE  2)   0.00000000  0.00000000  2.04788109  CHARGE = 16.0
  Br   3    (CENTRE  3)   0.00000000 -2.96406568 -2.98306498  CHARGE = 35.0
  Br   4    (CENTRE  4)   0.00000000  2.96406568 -2.96416772  CHARGE = 35.0
CENTRE ASSIGNMENTS    1  1  1  1  1  1  1  1  1  1  1  1  1  1  1  1  1  1  1  1
CENTRE ASSIGNMENTS    1  1  1  1  1  1  1  1  1  1  1  1  1  1  1  1  1  1  1  1
CENTRE ASSIGNMENTS    1  1  1  1  1  1  1  1  1  1  1  1  1  1  1  1  1  1  1  1
CENTRE ASSIGNMENTS    1  1  1  1  1  1  1  1  1  1  1  1  2  2  2  2  2  2  2  2
CENTRE ASSIGNMENTS    2  2  2  2  2  2  2  2  2  2  2  2  2  2  2  2  2  2  2  2
CENTRE ASSIGNMENTS    2  2  2  2  2  2  2  2  2  2  2  2  2  2  2  2  2  2  2  2
CENTRE ASSIGNMENTS    2  2  2  2  2  2  2  2  2  2  2  2  2  2  2  2  2  2  2  2
CENTRE ASSIGNMENTS    2  2  2  2  2  2  2  2  2  2  2  2  2  2  2  2  2  2  2  2
CENTRE ASSIGNMENTS    2  2  2  2  2  2  2  2  2  2  2  2  2  2  2  2  2  2  2  2
CENTRE ASSIGNMENTS    2  2  2  2  2  2  3  3  3  3  3  3  3  3  3  3  3  3  3  3
CENTRE ASSIGNMENTS    3  3  3  3  3  3  3  3  3  3  3  3  3  3  3  3  3  3  3  3
CENTRE ASSIGNMENTS    3  3  3  3  3  3  3  3  3  3  3  3  3  3  3  3  3  3  3  3
CENTRE ASSIGNMENTS    3  3  3  3  3  3  3  3  3  3  3  3  3  3  3  3  3  3  3  3
CENTRE ASSIGNMENTS    3  3  3  3  3  3  3  3  3  3  3  3  3  3  3  3  3  3  3  3
CENTRE ASSIGNMENTS    3  3  3  3  3  3  3  3  3  3  3  3  3  3  3  3  3  3  3  3
CENTRE ASSIGNMENTS    3  3  3  3  3  3  3  3  3  3  3  3  3  3  3  3  3  3  3  3
CENTRE ASSIGNMENTS    3  3  3  3  3  3  3  3  3  3  3  3  3  3  3  3  3  3  3  3
CENTRE ASSIGNMENTS    3  3  3  3  3  3  3  3  3  3  3  3  3  3  3  3  3  3  3  3
CENTRE ASSIGNMENTS    3  3  3  3  3  3  3  3  3  3  3  3  3  3  3  3  3  3  3  3
CENTRE ASSIGNMENTS    3  3  3  3  3  3  3  3  3  3  3  3  3  3  3  3  3  3  3  3
CENTRE ASSIGNMENTS    3  3  3  4  4  4  4  4  4  4  4  4  4  4  4  4  4  4  4  4
CENTRE ASSIGNMENTS    4  4  4  4  4  4  4  4  4  4  4  4  4  4  4  4  4  4  4  4
CENTRE ASSIGNMENTS    4  4  4  4  4  4  4  4  4  4  4  4  4  4  4  4  4  4  4  4
CENTRE ASSIGNMENTS    4  4  4  4  4  4  4  4  4  4  4  4  4  4  4  4  4  4  4  4
CENTRE ASSIGNMENTS    4  4  4  4  4  4  4  4  4  4  4  4  4  4  4  4  4  4  4  4
CENTRE ASSIGNMENTS    4  4  4  4  4  4  4  4  4  4  4  4  4  4  4  4  4  4  4  4
CENTRE ASSIGNMENTS    4  4  4  4  4  4  4  4  4  4  4  4  4  4  4  4  4  4  4  4
CENTRE ASSIGNMENTS    4  4  4  4  4  4  4  4  4  4  4  4  4  4  4  4  4  4  4  4
CENTRE ASSIGNMENTS    4  4  4  4  4  4  4  4  4  4  4  4  4  4  4  4  4  4  4  4
CENTRE ASSIGNMENTS    4  4  4  4  4  4  4  4  4  4  4  4  4  4  4  4  4  4  4  4
CENTRE ASSIGNMENTS    4  4  4  4  4  4  4  4  4  4  4  4  4  4  4  4  4  4  4  4
TYPE ASSIGNMENTS      1  1  1  1  1  1  1  1  1  1  1  1  1  1  1  1  2  2  2  3
TYPE ASSIGNMENTS      3  3  4  4  4  2  3  4  2  3  4  2  3  4  5  6  7  8  9 10
TYPE ASSIGNMENTS      5  6  7  8  9 10  5  6  7  8  9 10 11 12 13 17 14 15 18 19
TYPE ASSIGNMENTS     16 20 11 12 13 17 14 15 18 19 16 20  1  1  1  1  1  1  1  1
TYPE ASSIGNMENTS      1  1  1  1  1  1  1  1  1  1  1  1  1  1  1  1  1  1  1  1
TYPE ASSIGNMENTS      1  1  1  2  2  2  2  2  2  3  3  3  3  3  3  4  4  4  4  4
TYPE ASSIGNMENTS      4  2  2  2  2  2  2  3  3  3  3  3  3  4  4  4  4  4  4  2
TYPE ASSIGNMENTS      3  4  2  3  4  2  3  4  5  6  7  8  9 10  5  6  7  8  9 10
TYPE ASSIGNMENTS      5  6  7  8  9 10 11 12 13 17 14 15 18 19 16 20 11 12 13 17
TYPE ASSIGNMENTS     14 15 18 19 16 20  1  1  1  1  1  1  1  1  1  1  1  1  1  1
TYPE ASSIGNMENTS      1  1  1  1  1  1  1  1  1  1  1  1  1  1  1  1  1  1  1  1
TYPE ASSIGNMENTS      1  1  1  1  1  1  1  1  1  1  1  1  1  1  1  1  2  2  2  2
TYPE ASSIGNMENTS      2  2  2  2  2  3  3  3  3  3  3  3  3  3  4  4  4  4  4  4
TYPE ASSIGNMENTS      4  4  4  2  2  2  2  2  2  2  2  2  3  3  3  3  3  3  3  3
TYPE ASSIGNMENTS      3  4  4  4  4  4  4  4  4  4  2  2  2  2  2  2  2  2  3  3
TYPE ASSIGNMENTS      3  3  3  3  3  3  4  4  4  4  4  4  4  4  2  3  4  2  3  4
TYPE ASSIGNMENTS      2  3  4  5  5  5  5  5  5  5  6  6  6  6  6  6  6  7  7  7
TYPE ASSIGNMENTS      7  7  7  7  8  8  8  8  8  8  8  9  9  9  9  9  9  9 10 10
TYPE ASSIGNMENTS     10 10 10 10 10  5  6  7  8  9 10  5  6  7  8  9 10  5  6  7
TYPE ASSIGNMENTS      8  9 10 11 12 13 17 14 15 18 19 16 20 11 12 13 17 14 15 18
TYPE ASSIGNMENTS     19 16 20  1  1  1  1  1  1  1  1  1  1  1  1  1  1  1  1  1
TYPE ASSIGNMENTS      1  1  1  1  1  1  1  1  1  1  1  1  1  1  1  1  1  1  1  1
TYPE ASSIGNMENTS      1  1  1  1  1  1  1  1  1  1  1  1  1  2  2  2  2  2  2  2
TYPE ASSIGNMENTS      2  2  3  3  3  3  3  3  3  3  3  4  4  4  4  4  4  4  4  4
TYPE ASSIGNMENTS      2  2  2  2  2  2  2  2  2  3  3  3  3  3  3  3  3  3  4  4
TYPE ASSIGNMENTS      4  4  4  4  4  4  4  2  2  2  2  2  2  2  2  3  3  3  3  3
TYPE ASSIGNMENTS      3  3  3  4  4  4  4  4  4  4  4  2  3  4  2  3  4  2  3  4
TYPE ASSIGNMENTS      5  5  5  5  5  5  5  6  6  6  6  6  6  6  7  7  7  7  7  7
TYPE ASSIGNMENTS      7  8  8  8  8  8  8  8  9  9  9  9  9  9  9 10 10 10 10 10
TYPE ASSIGNMENTS     10 10  5  6  7  8  9 10  5  6  7  8  9 10  5  6  7  8  9 10
TYPE ASSIGNMENTS     11 12 13 17 14 15 18 19 16 20 11 12 13 17 14 15 18 19 16 20
EXPONENTS  0.8236000D+04 0.1235000D+04 0.2808000D+03 0.7927000D+02 0.2559000D+02
EXPONENTS  0.8997000D+01 0.3319000D+01 0.2808000D+03 0.7927000D+02 0.2559000D+02
EXPONENTS  0.8997000D+01 0.3319000D+01 0.3643000D+00 0.9059000D+00 0.1285000D+00
EXPONENTS  0.4402000D-01 0.1871000D+02 0.4133000D+01 0.1200000D+01 0.1871000D+02
EXPONENTS  0.4133000D+01 0.1200000D+01 0.1871000D+02 0.4133000D+01 0.1200000D+01
EXPONENTS  0.3827000D+00 0.3827000D+00 0.3827000D+00 0.1209000D+00 0.1209000D+00
EXPONENTS  0.1209000D+00 0.3569000D-01 0.3569000D-01 0.3569000D-01 0.1097000D+01
EXPONENTS  0.1097000D+01 0.1097000D+01 0.1097000D+01 0.1097000D+01 0.1097000D+01
EXPONENTS  0.3180000D+00 0.3180000D+00 0.3180000D+00 0.3180000D+00 0.3180000D+00
EXPONENTS  0.3180000D+00 0.1000000D+00 0.1000000D+00 0.1000000D+00 0.1000000D+00
EXPONENTS  0.1000000D+00 0.1000000D+00 0.7610000D+00 0.7610000D+00 0.7610000D+00
EXPONENTS  0.7610000D+00 0.7610000D+00 0.7610000D+00 0.7610000D+00 0.7610000D+00
EXPONENTS  0.7610000D+00 0.7610000D+00 0.2680000D+00 0.2680000D+00 0.2680000D+00
EXPONENTS  0.2680000D+00 0.2680000D+00 0.2680000D+00 0.2680000D+00 0.2680000D+00
EXPONENTS  0.2680000D+00 0.2680000D+00 0.3741000D+06 0.5605000D+05 0.1276000D+05
EXPONENTS  0.3615000D+04 0.1183000D+04 0.4288000D+03 0.1678000D+03 0.6947000D+02
EXPONENTS  0.2984000D+02 0.1272000D+02 0.5244000D+01 0.3615000D+04 0.1183000D+04
EXPONENTS  0.4288000D+03 0.1678000D+03 0.6947000D+02 0.2984000D+02 0.1272000D+02
EXPONENTS  0.5244000D+01 0.2219000D+01 0.1183000D+04 0.1678000D+03 0.6947000D+02
EXPONENTS  0.2984000D+02 0.1272000D+02 0.5244000D+01 0.2219000D+01 0.3490000D+00
EXPONENTS  0.7767000D+00 0.1322000D+00 0.4970000D-01 0.5744000D+03 0.1358000D+03
EXPONENTS  0.4319000D+02 0.1587000D+02 0.6208000D+01 0.2483000D+01 0.5744000D+03
EXPONENTS  0.1358000D+03 0.4319000D+02 0.1587000D+02 0.6208000D+01 0.2483000D+01
EXPONENTS  0.5744000D+03 0.1358000D+03 0.4319000D+02 0.1587000D+02 0.6208000D+01
EXPONENTS  0.2483000D+01 0.1358000D+03 0.4319000D+02 0.1587000D+02 0.6208000D+01
EXPONENTS  0.2483000D+01 0.3229000D+00 0.1358000D+03 0.4319000D+02 0.1587000D+02
EXPONENTS  0.6208000D+01 0.2483000D+01 0.3229000D+00 0.1358000D+03 0.4319000D+02
EXPONENTS  0.1587000D+02 0.6208000D+01 0.2483000D+01 0.3229000D+00 0.8688000D+00
EXPONENTS  0.8688000D+00 0.8688000D+00 0.1098000D+00 0.1098000D+00 0.1098000D+00
EXPONENTS  0.3510000D-01 0.3510000D-01 0.3510000D-01 0.2690000D+00 0.2690000D+00
EXPONENTS  0.2690000D+00 0.2690000D+00 0.2690000D+00 0.2690000D+00 0.8190000D+00
EXPONENTS  0.8190000D+00 0.8190000D+00 0.8190000D+00 0.8190000D+00 0.8190000D+00
EXPONENTS  0.1010000D+00 0.1010000D+00 0.1010000D+00 0.1010000D+00 0.1010000D+00
EXPONENTS  0.1010000D+00 0.5570000D+00 0.5570000D+00 0.5570000D+00 0.5570000D+00
EXPONENTS  0.5570000D+00 0.5570000D+00 0.5570000D+00 0.5570000D+00 0.5570000D+00
EXPONENTS  0.5570000D+00 0.2180000D+00 0.2180000D+00 0.2180000D+00 0.2180000D+00
EXPONENTS  0.2180000D+00 0.2180000D+00 0.2180000D+00 0.2180000D+00 0.2180000D+00
EXPONENTS  0.2180000D+00 0.1063900D+08 0.1593400D+07 0.3626100D+06 0.1027000D+06
EXPONENTS  0.3350100D+05 0.1209300D+05 0.4715900D+04 0.1955600D+04 0.8526100D+03
EXPONENTS  0.3876700D+03 0.1826800D+03 0.8824500D+02 0.3926300D+02 0.9405700D+01
EXPONENTS  0.1899500D+01 0.3350100D+05 0.1209300D+05 0.4715900D+04 0.1955600D+04
EXPONENTS  0.8526100D+03 0.3876700D+03 0.1826800D+03 0.8824500D+02 0.3926300D+02
EXPONENTS  0.1923400D+02 0.9405700D+01 0.1899500D+01 0.4715900D+04 0.8526100D+03
EXPONENTS  0.3876700D+03 0.1826800D+03 0.8824500D+02 0.3926300D+02 0.1923400D+02
EXPONENTS  0.9405700D+01 0.4160100D+01 0.1899500D+01 0.4715900D+04 0.8526100D+03
EXPONENTS  0.3876700D+03 0.8824500D+02 0.3926300D+02 0.1923400D+02 0.9405700D+01
EXPONENTS  0.4160100D+01 0.1899500D+01 0.3011400D+00 0.6047200D+00 0.1251500D+00
EXPONENTS  0.4559300D-01 0.8676500D+04 0.2055900D+04 0.6662300D+03 0.2531000D+03
EXPONENTS  0.1061200D+03 0.4724200D+02 0.2182500D+02 0.9968400D+01 0.1998200D+01
EXPONENTS  0.8676500D+04 0.2055900D+04 0.6662300D+03 0.2531000D+03 0.1061200D+03
EXPONENTS  0.4724200D+02 0.2182500D+02 0.9968400D+01 0.1998200D+01 0.8676500D+04
EXPONENTS  0.2055900D+04 0.6662300D+03 0.2531000D+03 0.1061200D+03 0.4724200D+02
EXPONENTS  0.2182500D+02 0.9968400D+01 0.1998200D+01 0.8676500D+04 0.6662300D+03
EXPONENTS  0.2531000D+03 0.1061200D+03 0.4724200D+02 0.2182500D+02 0.9968400D+01
EXPONENTS  0.4517100D+01 0.1998200D+01 0.8676500D+04 0.6662300D+03 0.2531000D+03
EXPONENTS  0.1061200D+03 0.4724200D+02 0.2182500D+02 0.9968400D+01 0.4517100D+01
EXPONENTS  0.1998200D+01 0.8676500D+04 0.6662300D+03 0.2531000D+03 0.1061200D+03
EXPONENTS  0.4724200D+02 0.2182500D+02 0.9968400D+01 0.4517100D+01 0.1998200D+01
EXPONENTS  0.6662300D+03 0.1061200D+03 0.4724200D+02 0.2182500D+02 0.9968400D+01
EXPONENTS  0.4517100D+01 0.1998200D+01 0.2814500D+00 0.6662300D+03 0.1061200D+03
EXPONENTS  0.4724200D+02 0.2182500D+02 0.9968400D+01 0.4517100D+01 0.1998200D+01
EXPONENTS  0.2814500D+00 0.6662300D+03 0.1061200D+03 0.4724200D+02 0.2182500D+02
EXPONENTS  0.9968400D+01 0.4517100D+01 0.1998200D+01 0.2814500D+00 0.7098800D+00
EXPONENTS  0.7098800D+00 0.7098800D+00 0.1020400D+00 0.1020400D+00 0.1020400D+00
EXPONENTS  0.3514200D-01 0.3514200D-01 0.3514200D-01 0.4038300D+03 0.1211700D+03
EXPONENTS  0.4634500D+02 0.1972100D+02 0.8862400D+01 0.3996200D+01 0.1763600D+01
EXPONENTS  0.4038300D+03 0.1211700D+03 0.4634500D+02 0.1972100D+02 0.8862400D+01
EXPONENTS  0.3996200D+01 0.1763600D+01 0.4038300D+03 0.1211700D+03 0.4634500D+02
EXPONENTS  0.1972100D+02 0.8862400D+01 0.3996200D+01 0.1763600D+01 0.4038300D+03
EXPONENTS  0.1211700D+03 0.4634500D+02 0.1972100D+02 0.8862400D+01 0.3996200D+01
EXPONENTS  0.1763600D+01 0.4038300D+03 0.1211700D+03 0.4634500D+02 0.1972100D+02
EXPONENTS  0.8862400D+01 0.3996200D+01 0.1763600D+01 0.4038300D+03 0.1211700D+03
EXPONENTS  0.4634500D+02 0.1972100D+02 0.8862400D+01 0.3996200D+01 0.1763600D+01
EXPONENTS  0.7061900D+00 0.7061900D+00 0.7061900D+00 0.7061900D+00 0.7061900D+00
EXPONENTS  0.7061900D+00 0.2639000D+00 0.2639000D+00 0.2639000D+00 0.2639000D+00
EXPONENTS  0.2639000D+00 0.2639000D+00 0.1047000D+00 0.1047000D+00 0.1047000D+00
EXPONENTS  0.1047000D+00 0.1047000D+00 0.1047000D+00 0.5515000D+00 0.5515000D+00
EXPONENTS  0.5515000D+00 0.5515000D+00 0.5515000D+00 0.5515000D+00 0.5515000D+00
EXPONENTS  0.5515000D+00 0.5515000D+00 0.5515000D+00 0.2580000D+00 0.2580000D+00
EXPONENTS  0.2580000D+00 0.2580000D+00 0.2580000D+00 0.2580000D+00 0.2580000D+00
EXPONENTS  0.2580000D+00 0.2580000D+00 0.2580000D+00 0.1063900D+08 0.1593400D+07
EXPONENTS  0.3626100D+06 0.1027000D+06 0.3350100D+05 0.1209300D+05 0.4715900D+04
EXPONENTS  0.1955600D+04 0.8526100D+03 0.3876700D+03 0.1826800D+03 0.8824500D+02
EXPONENTS  0.3926300D+02 0.9405700D+01 0.1899500D+01 0.3350100D+05 0.1209300D+05
EXPONENTS  0.4715900D+04 0.1955600D+04 0.8526100D+03 0.3876700D+03 0.1826800D+03
EXPONENTS  0.8824500D+02 0.3926300D+02 0.1923400D+02 0.9405700D+01 0.1899500D+01
EXPONENTS  0.4715900D+04 0.8526100D+03 0.3876700D+03 0.1826800D+03 0.8824500D+02
EXPONENTS  0.3926300D+02 0.1923400D+02 0.9405700D+01 0.4160100D+01 0.1899500D+01
EXPONENTS  0.4715900D+04 0.8526100D+03 0.3876700D+03 0.8824500D+02 0.3926300D+02
EXPONENTS  0.1923400D+02 0.9405700D+01 0.4160100D+01 0.1899500D+01 0.3011400D+00
EXPONENTS  0.6047200D+00 0.1251500D+00 0.4559300D-01 0.8676500D+04 0.2055900D+04
EXPONENTS  0.6662300D+03 0.2531000D+03 0.1061200D+03 0.4724200D+02 0.2182500D+02
EXPONENTS  0.9968400D+01 0.1998200D+01 0.8676500D+04 0.2055900D+04 0.6662300D+03
EXPONENTS  0.2531000D+03 0.1061200D+03 0.4724200D+02 0.2182500D+02 0.9968400D+01
EXPONENTS  0.1998200D+01 0.8676500D+04 0.2055900D+04 0.6662300D+03 0.2531000D+03
EXPONENTS  0.1061200D+03 0.4724200D+02 0.2182500D+02 0.9968400D+01 0.1998200D+01
EXPONENTS  0.8676500D+04 0.6662300D+03 0.2531000D+03 0.1061200D+03 0.4724200D+02
EXPONENTS  0.2182500D+02 0.9968400D+01 0.4517100D+01 0.1998200D+01 0.8676500D+04
EXPONENTS  0.6662300D+03 0.2531000D+03 0.1061200D+03 0.4724200D+02 0.2182500D+02
EXPONENTS  0.9968400D+01 0.4517100D+01 0.1998200D+01 0.8676500D+04 0.6662300D+03
EXPONENTS  0.2531000D+03 0.1061200D+03 0.4724200D+02 0.2182500D+02 0.9968400D+01
EXPONENTS  0.4517100D+01 0.1998200D+01 0.6662300D+03 0.1061200D+03 0.4724200D+02
EXPONENTS  0.2182500D+02 0.9968400D+01 0.4517100D+01 0.1998200D+01 0.2814500D+00
EXPONENTS  0.6662300D+03 0.1061200D+03 0.4724200D+02 0.2182500D+02 0.9968400D+01
EXPONENTS  0.4517100D+01 0.1998200D+01 0.2814500D+00 0.6662300D+03 0.1061200D+03
EXPONENTS  0.4724200D+02 0.2182500D+02 0.9968400D+01 0.4517100D+01 0.1998200D+01
EXPONENTS  0.2814500D+00 0.7098800D+00 0.7098800D+00 0.7098800D+00 0.1020400D+00
EXPONENTS  0.1020400D+00 0.1020400D+00 0.3514200D-01 0.3514200D-01 0.3514200D-01
EXPONENTS  0.4038300D+03 0.1211700D+03 0.4634500D+02 0.1972100D+02 0.8862400D+01
EXPONENTS  0.3996200D+01 0.1763600D+01 0.4038300D+03 0.1211700D+03 0.4634500D+02
EXPONENTS  0.1972100D+02 0.8862400D+01 0.3996200D+01 0.1763600D+01 0.4038300D+03
EXPONENTS  0.1211700D+03 0.4634500D+02 0.1972100D+02 0.8862400D+01 0.3996200D+01
EXPONENTS  0.1763600D+01 0.4038300D+03 0.1211700D+03 0.4634500D+02 0.1972100D+02
EXPONENTS  0.8862400D+01 0.3996200D+01 0.1763600D+01 0.4038300D+03 0.1211700D+03
EXPONENTS  0.4634500D+02 0.1972100D+02 0.8862400D+01 0.3996200D+01 0.1763600D+01
EXPONENTS  0.4038300D+03 0.1211700D+03 0.4634500D+02 0.1972100D+02 0.8862400D+01
EXPONENTS  0.3996200D+01 0.1763600D+01 0.7061900D+00 0.7061900D+00 0.7061900D+00
EXPONENTS  0.7061900D+00 0.7061900D+00 0.7061900D+00 0.2639000D+00 0.2639000D+00
EXPONENTS  0.2639000D+00 0.2639000D+00 0.2639000D+00 0.2639000D+00 0.1047000D+00
EXPONENTS  0.1047000D+00 0.1047000D+00 0.1047000D+00 0.1047000D+00 0.1047000D+00
EXPONENTS  0.5515000D+00 0.5515000D+00 0.5515000D+00 0.5515000D+00 0.5515000D+00
EXPONENTS  0.5515000D+00 0.5515000D+00 0.5515000D+00 0.5515000D+00 0.5515000D+00
EXPONENTS  0.2580000D+00 0.2580000D+00 0.2580000D+00 0.2580000D+00 0.2580000D+00
EXPONENTS  0.2580000D+00 0.2580000D+00 0.2580000D+00 0.2580000D+00 0.2580000D+00
MO    1     MO 0.0        OCC NO =    2.0000284  ORB. ENERGY =    0.000000
  0.39984723D-03  0.74539578D-03  0.12598204D-02  0.18937451D-02  0.23261266D-02
  0.19631688D-02  0.73820274D-03  0.93662812D-07  0.70007149D-06  0.26163270D-05
  0.72991450D-05  0.97788419D-05 -0.11546989D-04  0.30509838D-04  0.19734408D-04
  0.43685383D-05 -0.35224068D-12 -0.33024803D-12 -0.23515627D-12 -0.26029695D-02
 -0.24404493D-02 -0.17377453D-02 -0.47174031D-04 -0.44228652D-04 -0.31493435D-04
 -0.55015748D-13 -0.54863720D-03 -0.63557946D-05 -0.10232834D-13  0.12953598D-02
  0.71135221D-05 -0.38636563D-14  0.81098594D-04  0.21106324D-07  0.26105195D-06
  0.17271692D-05 -0.19882212D-05 -0.15146659D-15 -0.67303128D-13 -0.11892282D-02
 -0.31785565D-07 -0.80814506D-06  0.83993062D-06 -0.10805633D-15  0.36655858D-13
  0.56716298D-06 -0.70905986D-07  0.49127793D-06 -0.42037195D-06 -0.93893620D-15
 -0.14097076D-13 -0.32117613D-03  0.93758305D-14  0.11182043D-03 -0.73892043D-06
 -0.11260171D-14  0.27559066D-03  0.29957067D-05 -0.27001475D-13 -0.61105197D-03
 -0.77894537D-06 -0.22683941D-14 -0.49098380D-14 -0.68377359D-04 -0.26966739D-06
 -0.26057193D-14 -0.13815467D-03 -0.65585049D-06  0.17335233D-13  0.34328675D-03
  0.14648527D-05 -0.93640935D-15  0.61841395D-03  0.11561872D-02  0.19982351D-02
  0.32320629D-02  0.48851548D-02  0.67278697D-02  0.78640604D-02  0.67966527D-02
  0.31720332D-02  0.42974090D-03 -0.31431868D-05  0.76709770D-05  0.98609638D-04
  0.35971378D-03  0.12136654D-02  0.26657538D-02  0.34434268D-02 -0.55338798D-03
 -0.46422674D-02 -0.25476165D-02  0.73135667D-07  0.83306071D-06  0.17297343D-05
  0.47563301D-05 -0.61671282D-06 -0.21505959D-04 -0.53639277D-04  0.44401816D-04
 -0.14030175D-03 -0.97058681D-05 -0.86131975D-06  0.10342927D-08  0.13569332D-08
  0.14882621D-08  0.12244972D-08  0.64548529D-09  0.16794313D-09  0.97049754D+01
  0.12732376D+02  0.13964661D+02  0.11489702D+02  0.60567177D+01  0.15758440D+01
 -0.61673802D-01 -0.80912521D-01 -0.88743524D-01 -0.73015498D-01 -0.38489619D-01
 -0.10014275D-01  0.57313216D-14  0.20572941D-12  0.32639486D-12  0.38758388D-12
  0.58651657D-13 -0.42685577D-12  0.88670922D-04  0.31828987D-02  0.50497486D-02
  0.59964215D-02  0.90741663D-03 -0.66040082D-02 -0.56111456D-06 -0.20141561D-04
 -0.31955092D-04 -0.37945692D-04 -0.57421833D-05  0.41790534D-04  0.79044980D-11
  0.67285730D-01 -0.44375382D-03  0.30069958D-13 -0.32447302D-03  0.66407370D-05
  0.11357413D-15 -0.28214903D-04  0.62463566D-07  0.23606150D-05  0.10566448D-05
 -0.34172599D-05  0.13671220D-14  0.54079669D-13  0.76900278D-03 -0.11907248D-05
  0.16432290D-05 -0.45250421D-06 -0.22396725D-14 -0.33996164D-13 -0.73475764D-03
  0.13579910D-06  0.19172273D-06 -0.32752183D-06  0.19497672D-15 -0.89644687D-14
 -0.40991070D-04  0.11492199D-13  0.33489122D-05  0.33082365D-06 -0.60682416D-14
  0.13843588D-03 -0.15794636D-05 -0.28408355D-13 -0.14848262D-03  0.58699268D-06
  0.16680251D-14 -0.90760417D-16  0.32084988D-04  0.20087134D-06  0.21108376D-14
  0.28624824D-05 -0.28809305D-06 -0.18385563D-14 -0.99117447D-04 -0.31452098D-06
 -0.92591793D-15  0.36409547D-03  0.68491842D-03  0.11856288D-02  0.19434732D-02
  0.30444804D-02  0.45761017D-02  0.65403252D-02  0.86822675D-02  0.10111128D-01
  0.92859010D-02  0.54282189D-02  0.14243330D-02  0.80981241D-04  0.14130356D-05
  0.14223811D-06  0.18336056D-04  0.52968640D-04  0.24276772D-03  0.71864533D-03
  0.20840924D-02  0.43319785D-02  0.61969467D-02  0.17768625D-02 -0.71005807D-02
 -0.68655746D-02 -0.14985166D-02  0.21690574D-04  0.12048371D-04  0.56208142D-04
  0.11407025D-03  0.44706116D-03  0.31371341D-03 -0.20430204D-02 -0.63306189D-02
 -0.77437647D-03  0.55339217D-02  0.25970693D-02 -0.95972953D-06 -0.13157130D-05
  0.25225401D-05  0.53612272D-05 -0.20266939D-04 -0.65538132D-04 -0.22793165D-04
  0.22294198D-03  0.49727619D-03 -0.32997735D-03 -0.57992558D-04  0.15432869D-02
  0.47956710D-03  0.25303796D-09  0.36307171D-09  0.48074049D-09  0.55517159D-09
  0.51474876D-09  0.33334439D-09  0.11762364D-09  0.13553049D-10 -0.22141519D-13
  0.11949515D+01  0.17145771D+01  0.22702585D+01  0.26217534D+01  0.24308598D+01
  0.15741922D+01  0.55546820D+00  0.64003190D-01 -0.10456155D-03  0.10375988D+01
  0.14887994D+01  0.19713080D+01  0.22765177D+01  0.21107612D+01  0.13669006D+01
  0.48232346D+00  0.55575171D-01 -0.90792756D-04  0.46144757D-12 -0.13156692D-11
 -0.64219507D-11 -0.13307503D-10 -0.16699603D-10 -0.26482567D-11  0.21436743D-10
  0.18695948D-10  0.48060716D-11 -0.72505452D-02  0.20672596D-01  0.10090560D+00
  0.20909559D+00  0.26239433D+00  0.41611021D-01 -0.33682715D+00 -0.29376212D+00
 -0.75515923D-01 -0.64101808D-02  0.18276567D-01  0.89210276D-01  0.18486066D+00
  0.23198188D+00  0.36788153D-01 -0.29778767D+00 -0.25971402D+00 -0.66763354D-01
 -0.13732477D-13 -0.19400405D-13  0.90269070D-14 -0.18090007D-13 -0.19858778D-13
 -0.53605067D-13 -0.16892373D-13  0.36268284D-13 -0.73818583D-04 -0.10428638D-03
  0.48523909D-04 -0.97242371D-04 -0.10675036D-03 -0.28815267D-03 -0.90804521D-04
  0.19495924D-03  0.57105775D-04  0.80675548D-04 -0.37537911D-04  0.75226328D-04
  0.82581671D-04  0.22291381D-03  0.70246032D-04 -0.15081972D-03  0.20385463D-12
 -0.31263006D-02 -0.28894363D-02 -0.40224581D-14  0.38603056D-03  0.16678389D-03
  0.13046482D-14  0.14718337D-04  0.12357984D-04  0.14820813D+00  0.15508384D+00
  0.13213973D+00  0.87024001D-01  0.40106771D-01  0.12010038D-01  0.20434061D-02
 -0.14940998D+00 -0.15634144D+00 -0.13321128D+00 -0.87729697D-01 -0.40432005D-01
 -0.12107429D-01 -0.20599765D-02  0.12018501D-02  0.12576067D-02  0.10715482D-02
  0.70569549D-03  0.32523404D-03  0.97391860D-04  0.16570399D-04 -0.69036763D-10
 -0.72239534D-10 -0.61551949D-10 -0.40536612D-10 -0.18682118D-10 -0.55943903D-11
 -0.95183809D-12  0.51453914D-10  0.53840977D-10  0.45875394D-10  0.30212415D-10
  0.13924003D-10  0.41695651D-11  0.70941616D-12 -0.47870514D+00 -0.50091335D+00
 -0.42680498D+00 -0.28108335D+00 -0.12954295D+00 -0.38791845D-01 -0.66001035D-02
  0.64955942D-04 -0.11654652D-03  0.51590579D-04 -0.54909473D-13  0.33125819D-13
 -0.35233755D-03 -0.54834776D-04  0.57299451D-04 -0.24646743D-05 -0.76615429D-14
 -0.12240500D-14  0.94200615D-04 -0.15743886D-04  0.18812021D-04 -0.30681344D-05
 -0.39019513D-14 -0.13773992D-14  0.63965306D-04 -0.20406449D-14  0.27978893D-04
  0.31808561D-04  0.71103766D-14 -0.52228255D-04 -0.39795171D-04 -0.98844194D-15
 -0.31708423D-04 -0.55630512D-04  0.10618528D-14  0.14166004D-14 -0.17102475D-05
 -0.14240979D-05 -0.46532939D-14  0.12628160D-04  0.23250217D-05  0.40349278D-15
 -0.74974173D-05  0.19472719D-05 -0.12416268D-14 -0.36475767D-03 -0.68616412D-03
 -0.11877851D-02 -0.19470079D-02 -0.30500176D-02 -0.45844246D-02 -0.65522205D-02
 -0.86980584D-02 -0.10129517D-01 -0.93027899D-02 -0.54380915D-02 -0.14269235D-02
 -0.81128527D-04 -0.14156056D-05 -0.14249680D-06 -0.18361291D-04 -0.53041537D-04
 -0.24310182D-03 -0.71963435D-03 -0.20869606D-02 -0.43379402D-02 -0.62054750D-02
 -0.17793079D-02  0.71103527D-02  0.68750231D-02  0.15005789D-02 -0.21720425D-04
 -0.12051182D-04 -0.56221256D-04 -0.11409687D-03 -0.44716546D-03 -0.31378659D-03
  0.20434971D-02  0.63320958D-02  0.77455713D-03 -0.55352128D-02 -0.25976752D-02
  0.97012558D-06  0.13299652D-05 -0.25498650D-05 -0.54193014D-05  0.20486476D-04
  0.66248059D-04  0.23040067D-04 -0.22535695D-03 -0.50266282D-03  0.33355175D-03
  0.60157078D-04 -0.15481618D-02 -0.48298159D-03  0.10008289D-08  0.14360402D-08
  0.19014499D-08  0.21958436D-08  0.20359612D-08  0.13184611D-08  0.46523114D-09
  0.53605728D-10 -0.87575290D-13  0.11841169D+01  0.16990310D+01  0.22496741D+01
  0.25979820D+01  0.24088192D+01  0.15599190D+01  0.55043178D+00  0.63422874D-01
 -0.10361349D-03 -0.10261938D+01 -0.14724349D+01 -0.19496398D+01 -0.22514946D+01
 -0.20875601D+01 -0.13518759D+01 -0.47702186D+00 -0.54964300D-01  0.89794780D-04
  0.41290125D-12 -0.11772550D-11 -0.57463332D-11 -0.11907495D-10 -0.14942731D-10
 -0.23696484D-11  0.19181503D-10  0.16729052D-10  0.43004517D-11 -0.71819344D-02
  0.20476974D-01  0.99950745D-01  0.20711695D+00  0.25991133D+00  0.41217262D-01
 -0.33363981D+00 -0.29098229D+00 -0.74801327D-01  0.63427447D-02 -0.18084295D-01
 -0.88271770D-01 -0.18291589D+00 -0.22954139D+00 -0.36401136D-01  0.29465490D+00
  0.25698179D+00  0.66060994D-01 -0.14495048D-13 -0.20477717D-13  0.95281748D-14
 -0.19094552D-13 -0.20961544D-13 -0.56581779D-13 -0.17830413D-13  0.38282277D-13
 -0.74262399D-04 -0.10491338D-03  0.48815647D-04 -0.97827017D-04 -0.10739217D-03
 -0.28988512D-03 -0.91350461D-04  0.19613138D-03 -0.58858562D-04 -0.83151779D-04
  0.38690088D-04 -0.77535302D-04 -0.85116407D-04 -0.22975586D-03 -0.72402142D-04
  0.15544894D-03  0.17564361D-12 -0.30984107D-02  0.28670852D-02 -0.26816766D-14
  0.38785646D-03 -0.16462242D-03  0.14166863D-14  0.14930366D-04 -0.12301210D-04
 -0.14998149D+00 -0.15693947D+00 -0.13372083D+00 -0.88065276D-01 -0.40586664D-01
 -0.12153742D-01 -0.20678562D-02  0.15414448D+00  0.16129559D+00  0.13743248D+00
  0.90509677D-01  0.41713215D-01  0.12491090D-01  0.21252530D-02 -0.41629906D-02
 -0.43561211D-02 -0.37116484D-02 -0.24444011D-02 -0.11265517D-02 -0.33734772D-03
 -0.57396855D-04 -0.10012222D-09 -0.10476711D-09 -0.89267188D-10 -0.58789192D-10
 -0.27094188D-10 -0.81133985D-11 -0.13804260D-11 -0.26066249D-10 -0.27275521D-10
 -0.23240203D-10 -0.15305431D-10 -0.70538174D-11 -0.21122770D-11 -0.35938603D-12
 -0.48097054D+00 -0.50328385D+00 -0.42882477D+00 -0.28241353D+00 -0.13015599D+00
 -0.38975422D-01 -0.66313376D-02 -0.66006443D-04  0.12265734D-03 -0.56650892D-04
 -0.77925335D-13 -0.29954076D-13 -0.35409348D-03  0.54918930D-04 -0.56458398D-04
  0.15394683D-05  0.78261659D-14 -0.15847623D-14  0.91360608D-04  0.15654701D-04
 -0.18859898D-04  0.32051974D-05  0.33756239D-14 -0.82922498D-15  0.63476123D-04
 -0.18105735D-14  0.26812456D-04 -0.33297174D-04  0.92435396D-14 -0.52714408D-04
  0.41902207D-04 -0.38118192D-14 -0.27722960D-04  0.57989316D-04  0.17807475D-14
  0.14046061D-14 -0.15291362D-05  0.11368172D-05 -0.52894091D-14  0.12714275D-04
 -0.25526933D-05  0.10755908D-14 -0.81268665D-05 -0.85775823D-06  0.99758842D-16
MO    2     MO 0.0        OCC NO =    2.0000240  ORB. ENERGY =    0.000000
 -0.58981079D-01 -0.10995261D+00 -0.18583490D+00 -0.27934451D+00 -0.34312470D+00
 -0.28958514D+00 -0.10889158D+00 -0.10366039D-04 -0.77479718D-04 -0.28955940D-03
 -0.80782563D-03 -0.10822636D-02  0.12779515D-02 -0.44836070D-02 -0.17447643D-02
 -0.31794277D-03  0.74661347D-13  0.69999758D-13  0.49843998D-13 -0.19388459D-04
 -0.18177913D-04 -0.12943757D-04  0.23011719D-02  0.21574949D-02  0.15362649D-02
 -0.14980769D-13 -0.28876708D-05 -0.21563476D-03 -0.23652220D-13  0.74099548D-05
 -0.96717137D-03  0.17592517D-14  0.25536917D-06  0.91472152D-06  0.12497766D-03
  0.10910792D-04 -0.13588846D-03  0.13919469D-13  0.61931878D-13 -0.67159705D-05
  0.11830913D-03  0.12868425D-03 -0.24699338D-03  0.10249571D-13 -0.18179897D-13
  0.22825047D-06  0.23546368D-04  0.10098041D-03 -0.12452678D-03 -0.14396980D-14
  0.16008117D-14 -0.14088058D-05 -0.74751626D-14  0.12348744D-05 -0.99358782D-05
  0.11466598D-14  0.14100448D-05 -0.90982190D-04  0.21278828D-13 -0.51146679D-05
  0.12078982D-03 -0.35794364D-14  0.57071734D-14 -0.88325937D-06  0.13504640D-04
 -0.82214885D-15 -0.67168251D-06  0.44808808D-04 -0.16299371D-13  0.33214606D-05
 -0.85322729D-04 -0.24745321D-14 -0.12697986D+00 -0.23740163D+00 -0.41030058D+00
 -0.66364428D+00 -0.10030761D+01 -0.13814435D+01 -0.16147392D+01 -0.13955668D+01
 -0.65131830D+00 -0.88239338D-01  0.64539523D-03 -0.15822784D-02 -0.20340030D-01
 -0.74197507D-01 -0.25034055D+00 -0.54986017D+00 -0.71026936D+00  0.11414633D+00
  0.95755203D+00  0.52549221D+00 -0.12722224D-04 -0.14491404D-03 -0.30089378D-03
 -0.82738147D-03  0.10727951D-03  0.37410422D-02  0.93307534D-02 -0.77238625D-02
  0.29328408D-01  0.18158437D-02  0.12981968D-03 -0.48956002D-09 -0.64227491D-09
 -0.70443658D-09 -0.57958919D-09 -0.30552647D-09 -0.79492240D-10  0.66997867D-01
  0.87897392D-01  0.96404416D-01  0.79318649D-01  0.41812282D-01  0.10878769D-01
  0.62342665D+01  0.81790031D+01  0.89705962D+01  0.73807364D+01  0.38907045D+01
  0.10122881D+01 -0.30557124D-14 -0.10968672D-12 -0.17402074D-12 -0.20664429D-12
 -0.31270727D-13  0.22758249D-12  0.58176328D-06  0.20882760D-04  0.33131022D-04
  0.39342072D-04  0.59534925D-05 -0.43328403D-04  0.58004186D-04  0.20820968D-02
  0.33032988D-02  0.39225660D-02  0.59358763D-03 -0.43200196D-02 -0.37148507D-11
  0.47348866D-03  0.45920537D-01  0.86563849D-14 -0.22101377D-05 -0.77519937D-03
  0.75417903D-16 -0.13960414D-06 -0.50130254D-05 -0.24733880D-03 -0.13348829D-03
  0.38082709D-03  0.66960340D-15 -0.40161370D-13  0.57215848D-05  0.21085488D-03
 -0.39909180D-03  0.18823691D-03  0.14090596D-14  0.35791234D-13 -0.25385924D-05
 -0.53816006D-05 -0.30897161D-04  0.36278762D-04  0.36924211D-15 -0.82768590D-15
 -0.17339597D-06 -0.56163588D-14  0.46726192D-07 -0.74298838D-04  0.33399332D-14
  0.95509769D-06  0.20865596D-03  0.13509143D-13 -0.10952763D-05  0.14240556D-04
  0.15608838D-14 -0.10112433D-14  0.24050333D-06 -0.20817438D-04 -0.20144924D-14
  0.17322218D-07  0.19365996D-04  0.50482224D-14 -0.73883220D-06  0.43086319D-04
 -0.87673811D-15  0.57723794D-03  0.10858715D-02  0.18796990D-02  0.30811876D-02
  0.48267274D-02  0.72549640D-02  0.10369049D-01  0.13764890D-01  0.16030209D-01
  0.14721892D-01  0.86059128D-02  0.22581413D-02  0.12838788D-03  0.22402304D-05
  0.22550467D-06  0.27453670D-04  0.79307324D-04  0.36348410D-03  0.10759921D-02
  0.31204084D-02  0.64860570D-02  0.92783816D-02  0.26604084D-02 -0.10631348D-01
 -0.10279485D-01 -0.22436547D-02  0.32476224D-04  0.17420307D-04  0.81269336D-04
  0.16493009D-03  0.64638969D-03  0.45358695D-03 -0.29539299D-02 -0.91532147D-02
 -0.11196431D-02  0.80012988D-02  0.37550092D-02 -0.21529312D-06 -0.29514979D-06
  0.56587353D-06  0.12026673D-05 -0.45464190D-05 -0.14701964D-04 -0.51131195D-05
  0.50011877D-04  0.11155241D-03 -0.74022786D-04  0.80820407D-04 -0.28488238D-03
  0.78263021D-04 -0.24888026D-08 -0.35710603D-08 -0.47284138D-08 -0.54604949D-08
 -0.50629086D-08 -0.32786716D-08 -0.11569095D-08 -0.13330357D-09  0.21777709D-12
  0.26609769D+00  0.38181047D+00  0.50555235D+00  0.58382497D+00  0.54131585D+00
  0.35054888D+00  0.12369440D+00  0.14252546D-01 -0.23284281D-04  0.33036577D+00
  0.47402557D+00  0.62765366D+00  0.72483073D+00  0.67205478D+00  0.43521365D+00
  0.15356914D+00  0.17694829D-01 -0.28907915D-04 -0.95767710D-11  0.27305080D-10