 br2cs-wavefunction
GAUSSIAN            214 MOL ORBITALS    620 PRIMITIVES        4 NUCLEI
  C    1    (CENTRE  1)   0.00000000  0.00000000 -0.98162013  CHARGE =  6.0
  S    2    (CENTRE  2)   0.00000000  0.00000000  2.06677835  CHARGE = 16.0
  Br   3    (CENTRE  3)   0.00000000 -2.96406568 -2.98306498  CHARGE = 35.0
  Br   4    (CENTRE  4)   0.00000000  2.96406568 -2.98306498  CHARGE = 35.0
CENTRE ASSIGNMENTS    1  1  1  1  1  1  1  1  1  1  1  1  1  1  1  1  1  1  1  1
CENTRE ASSIGNMENTS    1  1  1  1  1  1  1  1  1  1  1  1  1  1  1  1  1  1  1  1
CENTRE ASSIGNMENTS    1  1  1  1  1  1  1  1  1  1  1  1  1  1  1  1  1  1  1  1
CENTRE ASSIGNMENTS    1  1  1  1  1  1  1  1  1  1  1  1  2  2  2  2  2  2  2  2
CENTRE ASSIGNMENTS    2  2  2  2  2  2  2  2  2  2  2  2  2  2  2  2  2  2  2  2
CENTRE ASSIGNMENTS    2  2  2  2  2  2  2  2  2  2  2  2  2  2  2  2  2  2  2  2
CENTRE ASSIGNMENTS    2  2  2  2  2  2  2  2  2  2  2  2  2  2  2  2  2  2  2  2
CENTRE ASSIGNMENTS    2  2  2  2  2  2  2  2  2  2  2  2  2  2  2  2  2  2  2  2
CENTRE ASSIGNMENTS    2  2  2  2  2  2  2  2  2  2  2  2  2  2  2  2  2  2  2  2
CENTRE ASSIGNMENTS    2  2  2  2  2  2  3  3  3  3  3  3  3  3  3  3  3  3  3  3
CENTRE ASSIGNMENTS    3  3  3  3  3  3  3  3  3  3  3  3  3  3  3  3  3  3  3  3
CENTRE ASSIGNMENTS    3  3  3  3  3  3  3  3  3  3  3  3  3  3  3  3  3  3  3  3
CENTRE ASSIGNMENTS    3  3  3  3  3  3  3  3  3  3  3  3  3  3  3  3  3  3  3  3
CENTRE ASSIGNMENTS    3  3  3  3  3  3  3  3  3  3  3  3  3  3  3  3  3  3  3  3
CENTRE ASSIGNMENTS    3  3  3  3  3  3  3  3  3  3  3  3  3  3  3  3  3  3  3  3
CENTRE ASSIGNMENTS    3  3  3  3  3  3  3  3  3  3  3  3  3  3  3  3  3  3  3  3
CENTRE ASSIGNMENTS    3  3  3  3  3  3  3  3  3  3  3  3  3  3  3  3  3  3  3  3
CENTRE ASSIGNMENTS    3  3  3  3  3  3  3  3  3  3  3  3  3  3  3  3  3  3  3  3
CENTRE ASSIGNMENTS    3  3  3  3  3  3  3  3  3  3  3  3  3  3  3  3  3  3  3  3
CENTRE ASSIGNMENTS    3  3  3  3  3  3  3  3  3  3  3  3  3  3  3  3  3  3  3  3
CENTRE ASSIGNMENTS    3  3  3  4  4  4  4  4  4  4  4  4  4  4  4  4  4  4  4  4
CENTRE ASSIGNMENTS    4  4  4  4  4  4  4  4  4  4  4  4  4  4  4  4  4  4  4  4
CENTRE ASSIGNMENTS    4  4  4  4  4  4  4  4  4  4  4  4  4  4  4  4  4  4  4  4
CENTRE ASSIGNMENTS    4  4  4  4  4  4  4  4  4  4  4  4  4  4  4  4  4  4  4  4
CENTRE ASSIGNMENTS    4  4  4  4  4  4  4  4  4  4  4  4  4  4  4  4  4  4  4  4
CENTRE ASSIGNMENTS    4  4  4  4  4  4  4  4  4  4  4  4  4  4  4  4  4  4  4  4
CENTRE ASSIGNMENTS    4  4  4  4  4  4  4  4  4  4  4  4  4  4  4  4  4  4  4  4
CENTRE ASSIGNMENTS    4  4  4  4  4  4  4  4  4  4  4  4  4  4  4  4  4  4  4  4
CENTRE ASSIGNMENTS    4  4  4  4  4  4  4  4  4  4  4  4  4  4  4  4  4  4  4  4
CENTRE ASSIGNMENTS    4  4  4  4  4  4  4  4  4  4  4  4  4  4  4  4  4  4  4  4
CENTRE ASSIGNMENTS    4  4  4  4  4  4  4  4  4  4  4  4  4  4  4  4  4  4  4  4
TYPE ASSIGNMENTS      1  1  1  1  1  1  1  1  1  1  1  1  1  1  1  1  2  2  2  3
TYPE ASSIGNMENTS      3  3  4  4  4  2  3  4  2  3  4  2  3  4  5  6  7  8  9 10
TYPE ASSIGNMENTS      5  6  7  8  9 10  5  6  7  8  9 10 11 12 13 17 14 15 18 19
TYPE ASSIGNMENTS     16 20 11 12 13 17 14 15 18 19 16 20  1  1  1  1  1  1  1  1
TYPE ASSIGNMENTS      1  1  1  1  1  1  1  1  1  1  1  1  1  1  1  1  1  1  1  1
TYPE ASSIGNMENTS      1  1  1  2  2  2  2  2  2  3  3  3  3  3  3  4  4  4  4  4
TYPE ASSIGNMENTS      4  2  2  2  2  2  2  3  3  3  3  3  3  4  4  4  4  4  4  2
TYPE ASSIGNMENTS      3  4  2  3  4  2  3  4  5  6  7  8  9 10  5  6  7  8  9 10
TYPE ASSIGNMENTS      5  6  7  8  9 10 11 12 13 17 14 15 18 19 16 20 11 12 13 17
TYPE ASSIGNMENTS     14 15 18 19 16 20  1  1  1  1  1  1  1  1  1  1  1  1  1  1
TYPE ASSIGNMENTS      1  1  1  1  1  1  1  1  1  1  1  1  1  1  1  1  1  1  1  1
TYPE ASSIGNMENTS      1  1  1  1  1  1  1  1  1  1  1  1  1  1  1  1  2  2  2  2
TYPE ASSIGNMENTS      2  2  2  2  2  3  3  3  3  3  3  3  3  3  4  4  4  4  4  4
TYPE ASSIGNMENTS      4  4  4  2  2  2  2  2  2  2  2  2  3  3  3  3  3  3  3  3
TYPE ASSIGNMENTS      3  4  4  4  4  4  4  4  4  4  2  2  2  2  2  2  2  2  3  3
TYPE ASSIGNMENTS      3  3  3  3  3  3  4  4  4  4  4  4  4  4  2  3  4  2  3  4
TYPE ASSIGNMENTS      2  3  4  5  5  5  5  5  5  5  6  6  6  6  6  6  6  7  7  7
TYPE ASSIGNMENTS      7  7  7  7  8  8  8  8  8  8  8  9  9  9  9  9  9  9 10 10
TYPE ASSIGNMENTS     10 10 10 10 10  5  6  7  8  9 10  5  6  7  8  9 10  5  6  7
TYPE ASSIGNMENTS      8  9 10 11 12 13 17 14 15 18 19 16 20 11 12 13 17 14 15 18
TYPE ASSIGNMENTS     19 16 20  1  1  1  1  1  1  1  1  1  1  1  1  1  1  1  1  1
TYPE ASSIGNMENTS      1  1  1  1  1  1  1  1  1  1  1  1  1  1  1  1  1  1  1  1
TYPE ASSIGNMENTS      1  1  1  1  1  1  1  1  1  1  1  1  1  2  2  2  2  2  2  2
TYPE ASSIGNMENTS      2  2  3  3  3  3  3  3  3  3  3  4  4  4  4  4  4  4  4  4
TYPE ASSIGNMENTS      2  2  2  2  2  2  2  2  2  3  3  3  3  3  3  3  3  3  4  4
TYPE ASSIGNMENTS      4  4  4  4  4  4  4  2  2  2  2  2  2  2  2  3  3  3  3  3
TYPE ASSIGNMENTS      3  3  3  4  4  4  4  4  4  4  4  2  3  4  2  3  4  2  3  4
TYPE ASSIGNMENTS      5  5  5  5  5  5  5  6  6  6  6  6  6  6  7  7  7  7  7  7
TYPE ASSIGNMENTS      7  8  8  8  8  8  8  8  9  9  9  9  9  9  9 10 10 10 10 10
TYPE ASSIGNMENTS     10 10  5  6  7  8  9 10  5  6  7  8  9 10  5  6  7  8  9 10
TYPE ASSIGNMENTS     11 12 13 17 14 15 18 19 16 20 11 12 13 17 14 15 18 19 16 20
EXPONENTS  0.8236000D+04 0.1235000D+04 0.2808000D+03 0.7927000D+02 0.2559000D+02
EXPONENTS  0.8997000D+01 0.3319000D+01 0.2808000D+03 0.7927000D+02 0.2559000D+02
EXPONENTS  0.8997000D+01 0.3319000D+01 0.3643000D+00 0.9059000D+00 0.1285000D+00
EXPONENTS  0.4402000D-01 0.1871000D+02 0.4133000D+01 0.1200000D+01 0.1871000D+02
EXPONENTS  0.4133000D+01 0.1200000D+01 0.1871000D+02 0.4133000D+01 0.1200000D+01
EXPONENTS  0.3827000D+00 0.3827000D+00 0.3827000D+00 0.1209000D+00 0.1209000D+00
EXPONENTS  0.1209000D+00 0.3569000D-01 0.3569000D-01 0.3569000D-01 0.1097000D+01
EXPONENTS  0.1097000D+01 0.1097000D+01 0.1097000D+01 0.1097000D+01 0.1097000D+01
EXPONENTS  0.3180000D+00 0.3180000D+00 0.3180000D+00 0.3180000D+00 0.3180000D+00
EXPONENTS  0.3180000D+00 0.1000000D+00 0.1000000D+00 0.1000000D+00 0.1000000D+00
EXPONENTS  0.1000000D+00 0.1000000D+00 0.7610000D+00 0.7610000D+00 0.7610000D+00
EXPONENTS  0.7610000D+00 0.7610000D+00 0.7610000D+00 0.7610000D+00 0.7610000D+00
EXPONENTS  0.7610000D+00 0.7610000D+00 0.2680000D+00 0.2680000D+00 0.2680000D+00
EXPONENTS  0.2680000D+00 0.2680000D+00 0.2680000D+00 0.2680000D+00 0.2680000D+00
EXPONENTS  0.2680000D+00 0.2680000D+00 0.3741000D+06 0.5605000D+05 0.1276000D+05
EXPONENTS  0.3615000D+04 0.1183000D+04 0.4288000D+03 0.1678000D+03 0.6947000D+02
EXPONENTS  0.2984000D+02 0.1272000D+02 0.5244000D+01 0.3615000D+04 0.1183000D+04
EXPONENTS  0.4288000D+03 0.1678000D+03 0.6947000D+02 0.2984000D+02 0.1272000D+02
EXPONENTS  0.5244000D+01 0.2219000D+01 0.1183000D+04 0.1678000D+03 0.6947000D+02
EXPONENTS  0.2984000D+02 0.1272000D+02 0.5244000D+01 0.2219000D+01 0.3490000D+00
EXPONENTS  0.7767000D+00 0.1322000D+00 0.4970000D-01 0.5744000D+03 0.1358000D+03
EXPONENTS  0.4319000D+02 0.1587000D+02 0.6208000D+01 0.2483000D+01 0.5744000D+03
EXPONENTS  0.1358000D+03 0.4319000D+02 0.1587000D+02 0.6208000D+01 0.2483000D+01
EXPONENTS  0.5744000D+03 0.1358000D+03 0.4319000D+02 0.1587000D+02 0.6208000D+01
EXPONENTS  0.2483000D+01 0.1358000D+03 0.4319000D+02 0.1587000D+02 0.6208000D+01
EXPONENTS  0.2483000D+01 0.3229000D+00 0.1358000D+03 0.4319000D+02 0.1587000D+02
EXPONENTS  0.6208000D+01 0.2483000D+01 0.3229000D+00 0.1358000D+03 0.4319000D+02
EXPONENTS  0.1587000D+02 0.6208000D+01 0.2483000D+01 0.3229000D+00 0.8688000D+00
EXPONENTS  0.8688000D+00 0.8688000D+00 0.1098000D+00 0.1098000D+00 0.1098000D+00
EXPONENTS  0.3510000D-01 0.3510000D-01 0.3510000D-01 0.2690000D+00 0.2690000D+00
EXPONENTS  0.2690000D+00 0.2690000D+00 0.2690000D+00 0.2690000D+00 0.8190000D+00
EXPONENTS  0.8190000D+00 0.8190000D+00 0.8190000D+00 0.8190000D+00 0.8190000D+00
EXPONENTS  0.1010000D+00 0.1010000D+00 0.1010000D+00 0.1010000D+00 0.1010000D+00
EXPONENTS  0.1010000D+00 0.5570000D+00 0.5570000D+00 0.5570000D+00 0.5570000D+00
EXPONENTS  0.5570000D+00 0.5570000D+00 0.5570000D+00 0.5570000D+00 0.5570000D+00
EXPONENTS  0.5570000D+00 0.2180000D+00 0.2180000D+00 0.2180000D+00 0.2180000D+00
EXPONENTS  0.2180000D+00 0.2180000D+00 0.2180000D+00 0.2180000D+00 0.2180000D+00
EXPONENTS  0.2180000D+00 0.1063900D+08 0.1593400D+07 0.3626100D+06 0.1027000D+06
EXPONENTS  0.3350100D+05 0.1209300D+05 0.4715900D+04 0.1955600D+04 0.8526100D+03
EXPONENTS  0.3876700D+03 0.1826800D+03 0.8824500D+02 0.3926300D+02 0.9405700D+01
EXPONENTS  0.1899500D+01 0.3350100D+05 0.1209300D+05 0.4715900D+04 0.1955600D+04
EXPONENTS  0.8526100D+03 0.3876700D+03 0.1826800D+03 0.8824500D+02 0.3926300D+02
EXPONENTS  0.1923400D+02 0.9405700D+01 0.1899500D+01 0.4715900D+04 0.8526100D+03
EXPONENTS  0.3876700D+03 0.1826800D+03 0.8824500D+02 0.3926300D+02 0.1923400D+02
EXPONENTS  0.9405700D+01 0.4160100D+01 0.1899500D+01 0.4715900D+04 0.8526100D+03
EXPONENTS  0.3876700D+03 0.8824500D+02 0.3926300D+02 0.1923400D+02 0.9405700D+01
EXPONENTS  0.4160100D+01 0.1899500D+01 0.3011400D+00 0.6047200D+00 0.1251500D+00
EXPONENTS  0.4559300D-01 0.8676500D+04 0.2055900D+04 0.6662300D+03 0.2531000D+03
EXPONENTS  0.1061200D+03 0.4724200D+02 0.2182500D+02 0.9968400D+01 0.1998200D+01
EXPONENTS  0.8676500D+04 0.2055900D+04 0.6662300D+03 0.2531000D+03 0.1061200D+03
EXPONENTS  0.4724200D+02 0.2182500D+02 0.9968400D+01 0.1998200D+01 0.8676500D+04
EXPONENTS  0.2055900D+04 0.6662300D+03 0.2531000D+03 0.1061200D+03 0.4724200D+02
EXPONENTS  0.2182500D+02 0.9968400D+01 0.1998200D+01 0.8676500D+04 0.6662300D+03
EXPONENTS  0.2531000D+03 0.1061200D+03 0.4724200D+02 0.2182500D+02 0.9968400D+01
EXPONENTS  0.4517100D+01 0.1998200D+01 0.8676500D+04 0.6662300D+03 0.2531000D+03
EXPONENTS  0.1061200D+03 0.4724200D+02 0.2182500D+02 0.9968400D+01 0.4517100D+01
EXPONENTS  0.1998200D+01 0.8676500D+04 0.6662300D+03 0.2531000D+03 0.1061200D+03
EXPONENTS  0.4724200D+02 0.2182500D+02 0.9968400D+01 0.4517100D+01 0.1998200D+01
EXPONENTS  0.6662300D+03 0.1061200D+03 0.4724200D+02 0.2182500D+02 0.9968400D+01
EXPONENTS  0.4517100D+01 0.1998200D+01 0.2814500D+00 0.6662300D+03 0.1061200D+03
EXPONENTS  0.4724200D+02 0.2182500D+02 0.9968400D+01 0.4517100D+01 0.1998200D+01
EXPONENTS  0.2814500D+00 0.6662300D+03 0.1061200D+03 0.4724200D+02 0.2182500D+02
EXPONENTS  0.9968400D+01 0.4517100D+01 0.1998200D+01 0.2814500D+00 0.7098800D+00
EXPONENTS  0.7098800D+00 0.7098800D+00 0.1020400D+00 0.1020400D+00 0.1020400D+00
EXPONENTS  0.3514200D-01 0.3514200D-01 0.3514200D-01 0.4038300D+03 0.1211700D+03
EXPONENTS  0.4634500D+02 0.1972100D+02 0.8862400D+01 0.3996200D+01 0.1763600D+01
EXPONENTS  0.4038300D+03 0.1211700D+03 0.4634500D+02 0.1972100D+02 0.8862400D+01
EXPONENTS  0.3996200D+01 0.1763600D+01 0.4038300D+03 0.1211700D+03 0.4634500D+02
EXPONENTS  0.1972100D+02 0.8862400D+01 0.3996200D+01 0.1763600D+01 0.4038300D+03
EXPONENTS  0.1211700D+03 0.4634500D+02 0.1972100D+02 0.8862400D+01 0.3996200D+01
EXPONENTS  0.1763600D+01 0.4038300D+03 0.1211700D+03 0.4634500D+02 0.1972100D+02
EXPONENTS  0.8862400D+01 0.3996200D+01 0.1763600D+01 0.4038300D+03 0.1211700D+03
EXPONENTS  0.4634500D+02 0.1972100D+02 0.8862400D+01 0.3996200D+01 0.1763600D+01
EXPONENTS  0.7061900D+00 0.7061900D+00 0.7061900D+00 0.7061900D+00 0.7061900D+00
EXPONENTS  0.7061900D+00 0.2639000D+00 0.2639000D+00 0.2639000D+00 0.2639000D+00
EXPONENTS  0.2639000D+00 0.2639000D+00 0.1047000D+00 0.1047000D+00 0.1047000D+00
EXPONENTS  0.1047000D+00 0.1047000D+00 0.1047000D+00 0.5515000D+00 0.5515000D+00
EXPONENTS  0.5515000D+00 0.5515000D+00 0.5515000D+00 0.5515000D+00 0.5515000D+00
EXPONENTS  0.5515000D+00 0.5515000D+00 0.5515000D+00 0.2580000D+00 0.2580000D+00
EXPONENTS  0.2580000D+00 0.2580000D+00 0.2580000D+00 0.2580000D+00 0.2580000D+00
EXPONENTS  0.2580000D+00 0.2580000D+00 0.2580000D+00 0.1063900D+08 0.1593400D+07
EXPONENTS  0.3626100D+06 0.1027000D+06 0.3350100D+05 0.1209300D+05 0.4715900D+04
EXPONENTS  0.1955600D+04 0.8526100D+03 0.3876700D+03 0.1826800D+03 0.8824500D+02
EXPONENTS  0.3926300D+02 0.9405700D+01 0.1899500D+01 0.3350100D+05 0.1209300D+05
EXPONENTS  0.4715900D+04 0.1955600D+04 0.8526100D+03 0.3876700D+03 0.1826800D+03
EXPONENTS  0.8824500D+02 0.3926300D+02 0.1923400D+02 0.9405700D+01 0.1899500D+01
EXPONENTS  0.4715900D+04 0.8526100D+03 0.3876700D+03 0.1826800D+03 0.8824500D+02
EXPONENTS  0.3926300D+02 0.1923400D+02 0.9405700D+01 0.4160100D+01 0.1899500D+01
EXPONENTS  0.4715900D+04 0.8526100D+03 0.3876700D+03 0.8824500D+02 0.3926300D+02
EXPONENTS  0.1923400D+02 0.9405700D+01 0.4160100D+01 0.1899500D+01 0.3011400D+00
EXPONENTS  0.6047200D+00 0.1251500D+00 0.4559300D-01 0.8676500D+04 0.2055900D+04
EXPONENTS  0.6662300D+03 0.2531000D+03 0.1061200D+03 0.4724200D+02 0.2182500D+02
EXPONENTS  0.9968400D+01 0.1998200D+01 0.8676500D+04 0.2055900D+04 0.6662300D+03
EXPONENTS  0.2531000D+03 0.1061200D+03 0.4724200D+02 0.2182500D+02 0.9968400D+01
EXPONENTS  0.1998200D+01 0.8676500D+04 0.2055900D+04 0.6662300D+03 0.2531000D+03
EXPONENTS  0.1061200D+03 0.4724200D+02 0.2182500D+02 0.9968400D+01 0.1998200D+01
EXPONENTS  0.8676500D+04 0.6662300D+03 0.2531000D+03 0.1061200D+03 0.4724200D+02
EXPONENTS  0.2182500D+02 0.9968400D+01 0.4517100D+01 0.1998200D+01 0.8676500D+04
EXPONENTS  0.6662300D+03 0.2531000D+03 0.1061200D+03 0.4724200D+02 0.2182500D+02
EXPONENTS  0.9968400D+01 0.4517100D+01 0.1998200D+01 0.8676500D+04 0.6662300D+03
EXPONENTS  0.2531000D+03 0.1061200D+03 0.4724200D+02 0.2182500D+02 0.9968400D+01
EXPONENTS  0.4517100D+01 0.1998200D+01 0.6662300D+03 0.1061200D+03 0.4724200D+02
EXPONENTS  0.2182500D+02 0.9968400D+01 0.4517100D+01 0.1998200D+01 0.2814500D+00
EXPONENTS  0.6662300D+03 0.1061200D+03 0.4724200D+02 0.2182500D+02 0.9968400D+01
EXPONENTS  0.4517100D+01 0.1998200D+01 0.2814500D+00 0.6662300D+03 0.1061200D+03
EXPONENTS  0.4724200D+02 0.2182500D+02 0.9968400D+01 0.4517100D+01 0.1998200D+01
EXPONENTS  0.2814500D+00 0.7098800D+00 0.7098800D+00 0.7098800D+00 0.1020400D+00
EXPONENTS  0.1020400D+00 0.1020400D+00 0.3514200D-01 0.3514200D-01 0.3514200D-01
EXPONENTS  0.4038300D+03 0.1211700D+03 0.4634500D+02 0.1972100D+02 0.8862400D+01
EXPONENTS  0.3996200D+01 0.1763600D+01 0.4038300D+03 0.1211700D+03 0.4634500D+02
EXPONENTS  0.1972100D+02 0.8862400D+01 0.3996200D+01 0.1763600D+01 0.4038300D+03
EXPONENTS  0.1211700D+03 0.4634500D+02 0.1972100D+02 0.8862400D+01 0.3996200D+01
EXPONENTS  0.1763600D+01 0.4038300D+03 0.1211700D+03 0.4634500D+02 0.1972100D+02
EXPONENTS  0.8862400D+01 0.3996200D+01 0.1763600D+01 0.4038300D+03 0.1211700D+03
EXPONENTS  0.4634500D+02 0.1972100D+02 0.8862400D+01 0.3996200D+01 0.1763600D+01
EXPONENTS  0.4038300D+03 0.1211700D+03 0.4634500D+02 0.1972100D+02 0.8862400D+01
EXPONENTS  0.3996200D+01 0.1763600D+01 0.7061900D+00 0.7061900D+00 0.7061900D+00
EXPONENTS  0.7061900D+00 0.7061900D+00 0.7061900D+00 0.2639000D+00 0.2639000D+00
EXPONENTS  0.2639000D+00 0.2639000D+00 0.2639000D+00 0.2639000D+00 0.1047000D+00
EXPONENTS  0.1047000D+00 0.1047000D+00 0.1047000D+00 0.1047000D+00 0.1047000D+00
EXPONENTS  0.5515000D+00 0.5515000D+00 0.5515000D+00 0.5515000D+00 0.5515000D+00
EXPONENTS  0.5515000D+00 0.5515000D+00 0.5515000D+00 0.5515000D+00 0.5515000D+00
EXPONENTS  0.2580000D+00 0.2580000D+00 0.2580000D+00 0.2580000D+00 0.2580000D+00
EXPONENTS  0.2580000D+00 0.2580000D+00 0.2580000D+00 0.2580000D+00 0.2580000D+00
MO    1     MO 0.0        OCC NO =    2.0000283  ORB. ENERGY =    0.000000
  0.75121573D-10  0.14004175D-09  0.23668963D-09  0.35578866D-09  0.43702264D-09
  0.36883169D-09  0.13869035D-09  0.11056719D-13  0.82642127D-13  0.30885250D-12
  0.86165038D-12  0.11543740D-11 -0.13631004D-11  0.59173685D-11  0.87364232D-12
  0.96732558D-13  0.75002965D-12  0.70320047D-12  0.50072063D-12 -0.25457297D-02
 -0.23867834D-02 -0.16995319D-02 -0.24005738D-11 -0.22506906D-11 -0.16026258D-11
  0.14716714D-12 -0.53807717D-03  0.12669582D-12  0.27820947D-13  0.12770618D-02
  0.79630794D-12  0.35221261D-14  0.79193220D-04  0.55279631D-14 -0.20474251D-12
  0.37223333D-13  0.16751917D-12  0.12368553D-13  0.92747250D-13 -0.11602030D-02
 -0.17184444D-13 -0.15607300D-12  0.17325744D-12  0.15216442D-13 -0.79923261D-13
 -0.13703768D-04 -0.13601667D-13 -0.81350748D-13  0.94952415D-13  0.50520236D-15
  0.22793841D-13 -0.31801681D-03 -0.14021245D-13  0.11254307D-03 -0.24195664D-14
 -0.37094294D-14  0.27042083D-03  0.71888761D-13  0.45773165D-13 -0.60805005D-03
 -0.64630062D-13 -0.27198898D-14  0.59374817D-14 -0.68637851D-04 -0.28087025D-13
  0.93772420D-14 -0.13702336D-03 -0.42868459D-13 -0.27189687D-13  0.34293692D-03
  0.12712953D-12 -0.33376565D-14  0.17438625D-09  0.32603266D-09  0.56348134D-09
  0.91140784D-09  0.13775625D-08  0.18971887D-08  0.22175826D-08  0.19165848D-08
  0.89448011D-09  0.12118243D-09 -0.88634573D-12  0.13507869D-11  0.17364230D-10
  0.63342215D-10  0.21371506D-09  0.46941418D-09  0.60635508D-09 -0.97446420D-10
 -0.81745964D-09 -0.44861131D-09  0.10967507D-13  0.12492672D-12  0.25939291D-12
  0.71326463D-12 -0.92482951D-13 -0.32250578D-11 -0.80438064D-11  0.66585465D-11
 -0.25068542D-10 -0.12514427D-11 -0.32994067D-13 -0.18201150D-08 -0.23878873D-08
 -0.26189956D-08 -0.21548307D-08 -0.11359042D-08 -0.29554091D-09  0.97040078D+01
  0.12731106D+02  0.13963268D+02  0.11488557D+02  0.60561138D+01  0.15756869D+01
 -0.54737812D-08 -0.71812897D-08 -0.78763206D-08 -0.64803993D-08 -0.34160981D-08
 -0.88880446D-09 -0.96049135D-14 -0.34477443D-12 -0.54699328D-12 -0.64953774D-12
 -0.98292180D-13  0.71535207D-12  0.88199750D-04  0.31659857D-02  0.50229156D-02
  0.59645582D-02  0.90259487D-03 -0.65689164D-02 -0.49147662D-13 -0.17641863D-11
 -0.27989259D-11 -0.33236386D-11 -0.50295412D-12  0.36604059D-11 -0.13939069D-10
  0.67239894D-01 -0.40229578D-10 -0.58181423D-13 -0.32390942D-03  0.57261396D-12
  0.12949810D-14 -0.27795119D-04 -0.28321406D-15  0.20299173D-12  0.95288092D-13
 -0.29827982D-12  0.58529466D-15 -0.88935539D-13  0.75825567D-03 -0.17149210D-12
  0.34298112D-12 -0.17148902D-12  0.41569872D-14  0.45905848D-13 -0.74217644D-03
  0.21404338D-14  0.22199338D-13 -0.24339772D-13 -0.11620685D-15  0.14672900D-13
 -0.41598947D-04 -0.20261663D-13  0.38819087D-05  0.65107305D-13  0.13124787D-13
  0.13776892D-03 -0.18338044D-12  0.47660201D-13 -0.14941465D-03 -0.11941475D-13
 -0.32361552D-15  0.37560070D-15  0.31743614D-04  0.15103705D-13 -0.42983291D-14
  0.27112912D-05 -0.16117817D-13  0.31715270D-14 -0.97942135D-04 -0.29193297D-13
  0.13450513D-15  0.35342112D-03  0.66483836D-03  0.11508692D-02  0.18864955D-02
  0.29552240D-02  0.44419421D-02  0.63485795D-02  0.84277255D-02  0.98146952D-02
  0.90136621D-02  0.52690773D-02  0.13825752D-02  0.78607078D-04  0.13716090D-05
  0.13806805D-06  0.17835136D-04  0.51521598D-04  0.23613559D-03  0.69901276D-03
  0.20271574D-02  0.42136338D-02  0.60276532D-02  0.17283207D-02 -0.69066010D-02
 -0.66780149D-02 -0.14575788D-02  0.21098013D-04  0.11761155D-04  0.54868219D-04
  0.11135098D-03  0.43640385D-03  0.30623492D-03 -0.19943177D-02 -0.61797059D-02
 -0.75591642D-03  0.54020008D-02  0.25351588D-02 -0.95430235D-06 -0.13082728D-05
  0.25082754D-05  0.53309099D-05 -0.20152331D-04 -0.65167520D-04 -0.22664272D-04
  0.22168127D-03  0.49446414D-03 -0.32811136D-03 -0.60362019D-04  0.15294870D-02
  0.47434157D-03 -0.34693482D-08 -0.49779969D-08 -0.65913278D-08 -0.76118364D-08
 -0.70576078D-08 -0.45704121D-08 -0.16127120D-08 -0.18582290D-09  0.30357753D-12
  0.11992421D+01  0.17207333D+01  0.22784100D+01  0.26311669D+01  0.24395879D+01
  0.15798444D+01  0.55746264D+00  0.64232997D-01 -0.10493698D-03  0.10473841D+01
  0.15028399D+01  0.19898988D+01  0.22979868D+01  0.21306671D+01  0.13797914D+01
  0.48687211D+00  0.56099284D-01 -0.91648995D-04  0.17696368D-11 -0.50455498D-11
 -0.24627977D-10 -0.51033852D-10 -0.64042447D-10 -0.10155980D-10  0.82209229D-10
  0.71698367D-10  0.18431132D-10 -0.72737705D-02  0.20738815D-01  0.10122883D+00
  0.20976537D+00  0.26323484D+00  0.41744311D-01 -0.33790609D+00 -0.29470311D+00
 -0.75757819D-01 -0.64706654D-02  0.18449020D-01  0.90052038D-01  0.18660495D+00
  0.23417079D+00  0.37135276D-01 -0.30059751D+00 -0.26216461D+00 -0.67393314D-01
  0.28933430D-13  0.40875382D-13 -0.19019102D-13  0.38114459D-13  0.41841145D-13
  0.11294236D-12  0.35591123D-13 -0.76414898D-13 -0.74845627D-04 -0.10573733D-03
  0.49199026D-04 -0.98595313D-04 -0.10823558D-03 -0.29216177D-03 -0.92067892D-04
  0.19767172D-03  0.57720688D-04  0.81544260D-04 -0.37942118D-04  0.76036363D-04
  0.83470907D-04  0.22531414D-03  0.71002439D-04 -0.15244375D-03  0.55012985D-12
 -0.31316554D-02 -0.29087512D-02  0.95264040D-14  0.38242778D-03  0.16609503D-03
 -0.14676088D-14  0.14724327D-04  0.12237914D-04  0.14946005D+00  0.15639384D+00
  0.13325592D+00  0.87759101D-01  0.40445557D-01  0.12111487D-01  0.20606669D-02
 -0.15064435D+00 -0.15763308D+00 -0.13431182D+00 -0.88454486D-01 -0.40766039D-01
 -0.12207456D-01 -0.20769952D-02  0.11842909D-02  0.12392328D-02  0.10558927D-02
  0.69538516D-03  0.32048232D-03  0.95968949D-04  0.16328303D-04  0.35926875D-10
  0.37593604D-10  0.32031763D-10  0.21095337D-10  0.97222129D-11  0.29113324D-11
  0.49533852D-12 -0.25335921D-10 -0.26511312D-10 -0.22589057D-10 -0.14876602D-10
 -0.68561827D-11 -0.20530950D-11 -0.34931671D-12 -0.48167523D+00 -0.50402123D+00
 -0.42945307D+00 -0.28282731D+00 -0.13034669D+00 -0.39032526D-01 -0.66410535D-02
  0.68142233D-04 -0.11796616D-03  0.49823927D-04  0.51403751D-13  0.38334175D-14
 -0.35930031D-03 -0.55140194D-04  0.58357004D-04 -0.32168106D-05  0.88164758D-14
 -0.14619526D-14  0.94746074D-04 -0.15772818D-04  0.18500307D-04 -0.27274892D-05
  0.62751165D-14  0.21470188D-14  0.63658326D-04  0.17445112D-14  0.28468159D-04
  0.30841886D-04 -0.72048320D-14 -0.50839666D-04 -0.37855401D-04  0.19712983D-14
 -0.34564810D-04 -0.54670256D-04  0.66944075D-14 -0.18677534D-14 -0.15491091D-05
 -0.13589297D-05  0.71309139D-14  0.11641226D-04  0.15617071D-05 -0.15276539D-14
 -0.69938984D-05  0.25150821D-05 -0.24710867D-15 -0.35342102D-03 -0.66483817D-03
 -0.11508688D-02 -0.18864950D-02 -0.29552231D-02 -0.44419408D-02 -0.63485777D-02
 -0.84277231D-02 -0.98146924D-02 -0.90136595D-02 -0.52690758D-02 -0.13825748D-02
 -0.78607055D-04 -0.13716086D-05 -0.13806801D-06 -0.17835137D-04 -0.51521600D-04
 -0.23613560D-03 -0.69901280D-03 -0.20271575D-02 -0.42136340D-02 -0.60276535D-02
 -0.17283208D-02  0.69066013D-02  0.66780153D-02  0.14575789D-02 -0.21098014D-04
 -0.11761155D-04 -0.54868220D-04 -0.11135098D-03 -0.43640386D-03 -0.30623492D-03
  0.19943177D-02  0.61797060D-02  0.75591643D-03 -0.54020009D-02 -0.25351588D-02
  0.95430235D-06  0.13082728D-05 -0.25082754D-05 -0.53309099D-05  0.20152331D-04
  0.65167520D-04  0.22664272D-04 -0.22168127D-03 -0.49446414D-03  0.32811136D-03
  0.60362017D-04 -0.15294870D-02 -0.47434157D-03 -0.37948417D-08 -0.54450315D-08
 -0.72097248D-08 -0.83259773D-08 -0.77197511D-08 -0.49992072D-08 -0.17640163D-08
 -0.20325676D-09  0.33205911D-12  0.11992421D+01  0.17207333D+01  0.22784100D+01
  0.26311669D+01  0.24395879D+01  0.15798444D+01  0.55746264D+00  0.64232997D-01
 -0.10493698D-03 -0.10473841D+01 -0.15028399D+01 -0.19898988D+01 -0.22979868D+01
 -0.21306671D+01 -0.13797914D+01 -0.48687211D+00 -0.56099284D-01  0.91648995D-04
  0.12658181D-10 -0.36090729D-10 -0.17616349D-09 -0.36504425D-09 -0.45809450D-09
 -0.72645549D-10  0.58804117D-09  0.51285716D-09  0.13183757D-09 -0.72737705D-02
  0.20738815D-01  0.10122883D+00  0.20976538D+00  0.26323484D+00  0.41744311D-01
 -0.33790610D+00 -0.29470311D+00 -0.75757819D-01  0.64706654D-02 -0.18449020D-01
 -0.90052039D-01 -0.18660495D+00 -0.23417079D+00 -0.37135276D-01  0.30059751D+00
  0.26216461D+00  0.67393315D-01  0.90240031D-14  0.12748560D-13 -0.59318384D-14
  0.11887460D-13  0.13049770D-13  0.35225421D-13  0.11100461D-13 -0.23832925D-13
 -0.74845627D-04 -0.10573733D-03  0.49199026D-04 -0.98595312D-04 -0.10823558D-03
 -0.29216177D-03 -0.92067892D-04  0.19767172D-03 -0.57720688D-04 -0.81544260D-04
  0.37942118D-04 -0.76036363D-04 -0.83470907D-04 -0.22531414D-03 -0.71002439D-04
  0.15244375D-03  0.43067336D-11 -0.31316554D-02  0.29087512D-02  0.45893101D-13
  0.38242778D-03 -0.16609503D-03 -0.22993131D-14  0.14724327D-04 -0.12237914D-04
 -0.14946005D+00 -0.15639384D+00 -0.13325593D+00 -0.87759101D-01 -0.40445557D-01
 -0.12111487D-01 -0.20606669D-02  0.15064435D+00  0.15763308D+00  0.13431182D+00
  0.88454486D-01  0.40766039D-01  0.12207456D-01  0.20769952D-02 -0.11842908D-02
 -0.12392328D-02 -0.10558926D-02 -0.69538512D-03 -0.32048230D-03 -0.95968943D-04
 -0.16328302D-04  0.15822192D-09  0.16556219D-09  0.14106785D-09  0.92903842D-10
  0.42816615D-10  0.12821505D-10  0.21814703D-11 -0.88091399D-10 -0.92178157D-10
 -0.78540723D-10 -0.51725004D-10 -0.23838514D-10 -0.71384817D-11 -0.12145521D-11
 -0.48167523D+00 -0.50402123D+00 -0.42945307D+00 -0.28282731D+00 -0.13034669D+00
 -0.39032526D-01 -0.66410535D-02 -0.68142233D-04  0.11796616D-03 -0.49823927D-04
  0.92433271D-13 -0.31574619D-13 -0.35930032D-03  0.55140194D-04 -0.58357004D-04
  0.32168105D-05 -0.45110162D-14 -0.48110084D-14  0.94746074D-04  0.15772818D-04
 -0.18500307D-04  0.27274892D-05 -0.63141211D-14  0.20686161D-14  0.63658326D-04
 -0.60919389D-14  0.28468159D-04 -0.30841886D-04  0.12320834D-13 -0.50839666D-04
  0.37855401D-04  0.59549825D-14 -0.34564810D-04  0.54670256D-04 -0.49377518D-13
 -0.70243941D-15 -0.15491091D-05  0.13589297D-05  0.41804576D-14  0.11641226D-04
 -0.15617070D-05 -0.20731394D-14 -0.69938984D-05 -0.25150821D-05  0.68479122D-14
MO    2     MO 0.0        OCC NO =    2.0000238  ORB. ENERGY =    0.000000
 -0.57322883D-01 -0.10686140D+00 -0.18061033D+00 -0.27149101D+00 -0.33347808D+00
 -0.28144373D+00 -0.10583019D+00 -0.10001675D-04 -0.74756321D-04 -0.27938144D-03
 -0.77943072D-03 -0.10442223D-02  0.12330318D-02 -0.43518504D-02 -0.16628613D-02
 -0.30025889D-03 -0.12657974D-12 -0.11867655D-12 -0.84504775D-13 -0.29296097D-11
 -0.27466953D-11 -0.19558107D-11  0.21629512D-02  0.20279042D-02  0.14439886D-02
 -0.15292017D-13 -0.70053711D-12 -0.21479118D-03 -0.84763140D-14  0.10424848D-11
 -0.94328681D-03 -0.16638648D-14  0.60525363D-13  0.17522769D-05  0.12433500D-03
  0.12069066D-04 -0.13640407D-03  0.27263713D-13 -0.14846724D-13 -0.94842574D-12
  0.11828338D-03  0.12840072D-03 -0.24668410D-03  0.11166811D-13  0.69671464D-14
  0.64197386D-13  0.22975471D-04  0.98855938D-04 -0.12183141D-03  0.82776545D-15
 -0.12053317D-13 -0.22805217D-12  0.39461242D-14  0.10812410D-12 -0.96259670D-05
 -0.75548338D-15  0.22899929D-12 -0.88521932D-04 -0.11082889D-13 -0.55337158D-12
  0.11739983D-03 -0.74862391D-15 -0.21376980D-14 -0.68835013D-13  0.11094168D-04
 -0.16905005D-15 -0.11816306D-12  0.46412948D-04  0.65821441D-14  0.32466810D-12
 -0.79695452D-04 -0.12892388D-14 -0.12896409D+00 -0.24111136D+00 -0.41671210D+00
 -0.67401465D+00 -0.10187506D+01 -0.14030305D+01 -0.16399718D+01 -0.14173745D+01
 -0.66149606D+00 -0.89618201D-01  0.65548043D-03 -0.16070791D-02 -0.20658840D-01
 -0.75360480D-01 -0.25426439D+00 -0.55847869D+00 -0.72140214D+00  0.11593546D+00
  0.97256072D+00  0.53372878D+00 -0.12820112D-04 -0.14602905D-03 -0.30320895D-03
 -0.83374761D-03  0.10810495D-03  0.37698270D-02  0.94025472D-02 -0.77832924D-02
  0.29796685D-01  0.17209306D-02  0.11391319D-03  0.39383713D-09  0.51669192D-09
  0.56669922D-09  0.46626304D-09  0.24578737D-09  0.63949249D-10  0.86480341D-08
  0.11345729D-07  0.12443809D-07  0.10238391D-07  0.53970978D-08  0.14042233D-08
  0.61124774D+01  0.80192227D+01  0.87953518D+01  0.72365505D+01  0.38146980D+01
  0.99251265D+00  0.23028744D-14  0.82663129D-13  0.13114713D-12  0.15573319D-12
  0.23566536D-13 -0.17151284D-12  0.78254393D-13  0.28089908D-11  0.44565343D-11
  0.52919978D-11  0.80081875D-12 -0.58282088D-11  0.56501075D-04  0.20281417D-02
  0.32176977D-02  0.38209173D-02  0.57820550D-03 -0.42080713D-02  0.30110883D-11
  0.59972386D-10  0.45016973D-01  0.23925540D-13 -0.33851656D-12 -0.74925165D-03
  0.27457430D-15 -0.23452844D-13 -0.45536267D-05 -0.24019493D-03 -0.12719883D-03
  0.36739375D-03 -0.81331368D-16  0.16557590D-13  0.71081876D-12  0.21457306D-03
 -0.40096977D-03  0.18639671D-03  0.33541296D-14 -0.11185942D-13 -0.62415095D-12
 -0.49836234D-05 -0.30101321D-04  0.35084945D-04 -0.24043084D-15 -0.68794755D-14
 -0.26232516D-13  0.50024406D-14  0.75059621D-14 -0.72649359D-04 -0.83416124D-15
  0.12743567D-12  0.20384081D-03 -0.14173161D-13 -0.14995356D-12  0.14107266D-04
  0.64982462D-15 -0.57903349D-15  0.29345005D-13 -0.20138513D-04  0.29779471D-15
  0.32832840D-14  0.18437370D-04  0.14393058D-14 -0.91318298D-13  0.41978170D-04
  0.62014966D-15  0.58109334D-03  0.10931241D-02  0.18922536D-02  0.31017670D-02
  0.48589654D-02  0.73034203D-02  0.10438305D-01  0.13856827D-01  0.16137276D-01
  0.14820221D-01  0.86633922D-02  0.22732236D-02  0.12924539D-03  0.22551930D-05
  0.22701083D-06  0.27628581D-04  0.79812601D-04  0.36579990D-03  0.10828474D-02
  0.31402890D-02  0.65273806D-02  0.93374955D-02  0.26773582D-02 -0.10699082D-01
 -0.10344977D-01 -0.22579494D-02  0.32683134D-04  0.17536758D-04  0.81812601D-04
  0.16603260D-03  0.65071065D-03  0.45661907D-03 -0.29736762D-02 -0.92144017D-02
 -0.11271277D-02  0.80547855D-02  0.37801106D-02 -0.19321491D-06 -0.26488230D-06
  0.50784345D-06  0.10793343D-05 -0.40801857D-05 -0.13194284D-04 -0.45887713D-05
  0.44883181D-04  0.10011276D-03 -0.66431782D-04  0.85179163D-04 -0.29026857D-03
  0.73741296D-04 -0.31213070D-08 -0.44786097D-08 -0.59300931D-08 -0.68482254D-08
 -0.63495964D-08 -0.41119134D-08 -0.14509265D-08 -0.16718135D-09  0.27312297D-12
  0.26019849D+00  0.37334599D+00  0.49434459D+00  0.57088196D+00  0.52931524D+00
  0.34277745D+00  0.12095218D+00  0.13936577D-01 -0.22768085D-04  0.32376658D+00
  0.46455671D+00  0.61511602D+00  0.71035193D+00  0.65863020D+00  0.42652008D+00
  0.15050154D+00  0.17341368D-01 -0.28330468D-04 -0.35627793D-11  0.10158119D-10