 br2cs-wavefunction
GAUSSIAN            214 MOL ORBITALS    620 PRIMITIVES        4 NUCLEI
  C    1    (CENTRE  1)   0.00000000  0.00000000 -0.98162013  CHARGE =  6.0
  S    2    (CENTRE  2)   0.01889726  0.00000000  2.04788109  CHARGE = 16.0
  Br   3    (CENTRE  3)   0.00000000 -2.96406568 -2.98306498  CHARGE = 35.0
  Br   4    (CENTRE  4)   0.00000000  2.96406568 -2.98306498  CHARGE = 35.0
CENTRE ASSIGNMENTS    1  1  1  1  1  1  1  1  1  1  1  1  1  1  1  1  1  1  1  1
CENTRE ASSIGNMENTS    1  1  1  1  1  1  1  1  1  1  1  1  1  1  1  1  1  1  1  1
CENTRE ASSIGNMENTS    1  1  1  1  1  1  1  1  1  1  1  1  1  1  1  1  1  1  1  1
CENTRE ASSIGNMENTS    1  1  1  1  1  1  1  1  1  1  1  1  2  2  2  2  2  2  2  2
CENTRE ASSIGNMENTS    2  2  2  2  2  2  2  2  2  2  2  2  2  2  2  2  2  2  2  2
CENTRE ASSIGNMENTS    2  2  2  2  2  2  2  2  2  2  2  2  2  2  2  2  2  2  2  2
CENTRE ASSIGNMENTS    2  2  2  2  2  2  2  2  2  2  2  2  2  2  2  2  2  2  2  2
CENTRE ASSIGNMENTS    2  2  2  2  2  2  2  2  2  2  2  2  2  2  2  2  2  2  2  2
CENTRE ASSIGNMENTS    2  2  2  2  2  2  2  2  2  2  2  2  2  2  2  2  2  2  2  2
CENTRE ASSIGNMENTS    2  2  2  2  2  2  3  3  3  3  3  3  3  3  3  3  3  3  3  3
CENTRE ASSIGNMENTS    3  3  3  3  3  3  3  3  3  3  3  3  3  3  3  3  3  3  3  3
CENTRE ASSIGNMENTS    3  3  3  3  3  3  3  3  3  3  3  3  3  3  3  3  3  3  3  3
CENTRE ASSIGNMENTS    3  3  3  3  3  3  3  3  3  3  3  3  3  3  3  3  3  3  3  3
CENTRE ASSIGNMENTS    3  3  3  3  3  3  3  3  3  3  3  3  3  3  3  3  3  3  3  3
CENTRE ASSIGNMENTS    3  3  3  3  3  3  3  3  3  3  3  3  3  3  3  3  3  3  3  3
CENTRE ASSIGNMENTS    3  3  3  3  3  3  3  3  3  3  3  3  3  3  3  3  3  3  3  3
CENTRE ASSIGNMENTS    3  3  3  3  3  3  3  3  3  3  3  3  3  3  3  3  3  3  3  3
CENTRE ASSIGNMENTS    3  3  3  3  3  3  3  3  3  3  3  3  3  3  3  3  3  3  3  3
CENTRE ASSIGNMENTS    3  3  3  3  3  3  3  3  3  3  3  3  3  3  3  3  3  3  3  3
CENTRE ASSIGNMENTS    3  3  3  3  3  3  3  3  3  3  3  3  3  3  3  3  3  3  3  3
CENTRE ASSIGNMENTS    3  3  3  4  4  4  4  4  4  4  4  4  4  4  4  4  4  4  4  4
CENTRE ASSIGNMENTS    4  4  4  4  4  4  4  4  4  4  4  4  4  4  4  4  4  4  4  4
CENTRE ASSIGNMENTS    4  4  4  4  4  4  4  4  4  4  4  4  4  4  4  4  4  4  4  4
CENTRE ASSIGNMENTS    4  4  4  4  4  4  4  4  4  4  4  4  4  4  4  4  4  4  4  4
CENTRE ASSIGNMENTS    4  4  4  4  4  4  4  4  4  4  4  4  4  4  4  4  4  4  4  4
CENTRE ASSIGNMENTS    4  4  4  4  4  4  4  4  4  4  4  4  4  4  4  4  4  4  4  4
CENTRE ASSIGNMENTS    4  4  4  4  4  4  4  4  4  4  4  4  4  4  4  4  4  4  4  4
CENTRE ASSIGNMENTS    4  4  4  4  4  4  4  4  4  4  4  4  4  4  4  4  4  4  4  4
CENTRE ASSIGNMENTS    4  4  4  4  4  4  4  4  4  4  4  4  4  4  4  4  4  4  4  4
CENTRE ASSIGNMENTS    4  4  4  4  4  4  4  4  4  4  4  4  4  4  4  4  4  4  4  4
CENTRE ASSIGNMENTS    4  4  4  4  4  4  4  4  4  4  4  4  4  4  4  4  4  4  4  4
TYPE ASSIGNMENTS      1  1  1  1  1  1  1  1  1  1  1  1  1  1  1  1  2  2  2  3
TYPE ASSIGNMENTS      3  3  4  4  4  2  3  4  2  3  4  2  3  4  5  6  7  8  9 10
TYPE ASSIGNMENTS      5  6  7  8  9 10  5  6  7  8  9 10 11 12 13 17 14 15 18 19
TYPE ASSIGNMENTS     16 20 11 12 13 17 14 15 18 19 16 20  1  1  1  1  1  1  1  1
TYPE ASSIGNMENTS      1  1  1  1  1  1  1  1  1  1  1  1  1  1  1  1  1  1  1  1
TYPE ASSIGNMENTS      1  1  1  2  2  2  2  2  2  3  3  3  3  3  3  4  4  4  4  4
TYPE ASSIGNMENTS      4  2  2  2  2  2  2  3  3  3  3  3  3  4  4  4  4  4  4  2
TYPE ASSIGNMENTS      3  4  2  3  4  2  3  4  5  6  7  8  9 10  5  6  7  8  9 10
TYPE ASSIGNMENTS      5  6  7  8  9 10 11 12 13 17 14 15 18 19 16 20 11 12 13 17
TYPE ASSIGNMENTS     14 15 18 19 16 20  1  1  1  1  1  1  1  1  1  1  1  1  1  1
TYPE ASSIGNMENTS      1  1  1  1  1  1  1  1  1  1  1  1  1  1  1  1  1  1  1  1
TYPE ASSIGNMENTS      1  1  1  1  1  1  1  1  1  1  1  1  1  1  1  1  2  2  2  2
TYPE ASSIGNMENTS      2  2  2  2  2  3  3  3  3  3  3  3  3  3  4  4  4  4  4  4
TYPE ASSIGNMENTS      4  4  4  2  2  2  2  2  2  2  2  2  3  3  3  3  3  3  3  3
TYPE ASSIGNMENTS      3  4  4  4  4  4  4  4  4  4  2  2  2  2  2  2  2  2  3  3
TYPE ASSIGNMENTS      3  3  3  3  3  3  4  4  4  4  4  4  4  4  2  3  4  2  3  4
TYPE ASSIGNMENTS      2  3  4  5  5  5  5  5  5  5  6  6  6  6  6  6  6  7  7  7
TYPE ASSIGNMENTS      7  7  7  7  8  8  8  8  8  8  8  9  9  9  9  9  9  9 10 10
TYPE ASSIGNMENTS     10 10 10 10 10  5  6  7  8  9 10  5  6  7  8  9 10  5  6  7
TYPE ASSIGNMENTS      8  9 10 11 12 13 17 14 15 18 19 16 20 11 12 13 17 14 15 18
TYPE ASSIGNMENTS     19 16 20  1  1  1  1  1  1  1  1  1  1  1  1  1  1  1  1  1
TYPE ASSIGNMENTS      1  1  1  1  1  1  1  1  1  1  1  1  1  1  1  1  1  1  1  1
TYPE ASSIGNMENTS      1  1  1  1  1  1  1  1  1  1  1  1  1  2  2  2  2  2  2  2
TYPE ASSIGNMENTS      2  2  3  3  3  3  3  3  3  3  3  4  4  4  4  4  4  4  4  4
TYPE ASSIGNMENTS      2  2  2  2  2  2  2  2  2  3  3  3  3  3  3  3  3  3  4  4
TYPE ASSIGNMENTS      4  4  4  4  4  4  4  2  2  2  2  2  2  2  2  3  3  3  3  3
TYPE ASSIGNMENTS      3  3  3  4  4  4  4  4  4  4  4  2  3  4  2  3  4  2  3  4
TYPE ASSIGNMENTS      5  5  5  5  5  5  5  6  6  6  6  6  6  6  7  7  7  7  7  7
TYPE ASSIGNMENTS      7  8  8  8  8  8  8  8  9  9  9  9  9  9  9 10 10 10 10 10
TYPE ASSIGNMENTS     10 10  5  6  7  8  9 10  5  6  7  8  9 10  5  6  7  8  9 10
TYPE ASSIGNMENTS     11 12 13 17 14 15 18 19 16 20 11 12 13 17 14 15 18 19 16 20
EXPONENTS  0.8236000D+04 0.1235000D+04 0.2808000D+03 0.7927000D+02 0.2559000D+02
EXPONENTS  0.8997000D+01 0.3319000D+01 0.2808000D+03 0.7927000D+02 0.2559000D+02
EXPONENTS  0.8997000D+01 0.3319000D+01 0.3643000D+00 0.9059000D+00 0.1285000D+00
EXPONENTS  0.4402000D-01 0.1871000D+02 0.4133000D+01 0.1200000D+01 0.1871000D+02
EXPONENTS  0.4133000D+01 0.1200000D+01 0.1871000D+02 0.4133000D+01 0.1200000D+01
EXPONENTS  0.3827000D+00 0.3827000D+00 0.3827000D+00 0.1209000D+00 0.1209000D+00
EXPONENTS  0.1209000D+00 0.3569000D-01 0.3569000D-01 0.3569000D-01 0.1097000D+01
EXPONENTS  0.1097000D+01 0.1097000D+01 0.1097000D+01 0.1097000D+01 0.1097000D+01
EXPONENTS  0.3180000D+00 0.3180000D+00 0.3180000D+00 0.3180000D+00 0.3180000D+00
EXPONENTS  0.3180000D+00 0.1000000D+00 0.1000000D+00 0.1000000D+00 0.1000000D+00
EXPONENTS  0.1000000D+00 0.1000000D+00 0.7610000D+00 0.7610000D+00 0.7610000D+00
EXPONENTS  0.7610000D+00 0.7610000D+00 0.7610000D+00 0.7610000D+00 0.7610000D+00
EXPONENTS  0.7610000D+00 0.7610000D+00 0.2680000D+00 0.2680000D+00 0.2680000D+00
EXPONENTS  0.2680000D+00 0.2680000D+00 0.2680000D+00 0.2680000D+00 0.2680000D+00
EXPONENTS  0.2680000D+00 0.2680000D+00 0.3741000D+06 0.5605000D+05 0.1276000D+05
EXPONENTS  0.3615000D+04 0.1183000D+04 0.4288000D+03 0.1678000D+03 0.6947000D+02
EXPONENTS  0.2984000D+02 0.1272000D+02 0.5244000D+01 0.3615000D+04 0.1183000D+04
EXPONENTS  0.4288000D+03 0.1678000D+03 0.6947000D+02 0.2984000D+02 0.1272000D+02
EXPONENTS  0.5244000D+01 0.2219000D+01 0.1183000D+04 0.1678000D+03 0.6947000D+02
EXPONENTS  0.2984000D+02 0.1272000D+02 0.5244000D+01 0.2219000D+01 0.3490000D+00
EXPONENTS  0.7767000D+00 0.1322000D+00 0.4970000D-01 0.5744000D+03 0.1358000D+03
EXPONENTS  0.4319000D+02 0.1587000D+02 0.6208000D+01 0.2483000D+01 0.5744000D+03
EXPONENTS  0.1358000D+03 0.4319000D+02 0.1587000D+02 0.6208000D+01 0.2483000D+01
EXPONENTS  0.5744000D+03 0.1358000D+03 0.4319000D+02 0.1587000D+02 0.6208000D+01
EXPONENTS  0.2483000D+01 0.1358000D+03 0.4319000D+02 0.1587000D+02 0.6208000D+01
EXPONENTS  0.2483000D+01 0.3229000D+00 0.1358000D+03 0.4319000D+02 0.1587000D+02
EXPONENTS  0.6208000D+01 0.2483000D+01 0.3229000D+00 0.1358000D+03 0.4319000D+02
EXPONENTS  0.1587000D+02 0.6208000D+01 0.2483000D+01 0.3229000D+00 0.8688000D+00
EXPONENTS  0.8688000D+00 0.8688000D+00 0.1098000D+00 0.1098000D+00 0.1098000D+00
EXPONENTS  0.3510000D-01 0.3510000D-01 0.3510000D-01 0.2690000D+00 0.2690000D+00
EXPONENTS  0.2690000D+00 0.2690000D+00 0.2690000D+00 0.2690000D+00 0.8190000D+00
EXPONENTS  0.8190000D+00 0.8190000D+00 0.8190000D+00 0.8190000D+00 0.8190000D+00
EXPONENTS  0.1010000D+00 0.1010000D+00 0.1010000D+00 0.1010000D+00 0.1010000D+00
EXPONENTS  0.1010000D+00 0.5570000D+00 0.5570000D+00 0.5570000D+00 0.5570000D+00
EXPONENTS  0.5570000D+00 0.5570000D+00 0.5570000D+00 0.5570000D+00 0.5570000D+00
EXPONENTS  0.5570000D+00 0.2180000D+00 0.2180000D+00 0.2180000D+00 0.2180000D+00
EXPONENTS  0.2180000D+00 0.2180000D+00 0.2180000D+00 0.2180000D+00 0.2180000D+00
EXPONENTS  0.2180000D+00 0.1063900D+08 0.1593400D+07 0.3626100D+06 0.1027000D+06
EXPONENTS  0.3350100D+05 0.1209300D+05 0.4715900D+04 0.1955600D+04 0.8526100D+03
EXPONENTS  0.3876700D+03 0.1826800D+03 0.8824500D+02 0.3926300D+02 0.9405700D+01
EXPONENTS  0.1899500D+01 0.3350100D+05 0.1209300D+05 0.4715900D+04 0.1955600D+04
EXPONENTS  0.8526100D+03 0.3876700D+03 0.1826800D+03 0.8824500D+02 0.3926300D+02
EXPONENTS  0.1923400D+02 0.9405700D+01 0.1899500D+01 0.4715900D+04 0.8526100D+03
EXPONENTS  0.3876700D+03 0.1826800D+03 0.8824500D+02 0.3926300D+02 0.1923400D+02
EXPONENTS  0.9405700D+01 0.4160100D+01 0.1899500D+01 0.4715900D+04 0.8526100D+03
EXPONENTS  0.3876700D+03 0.8824500D+02 0.3926300D+02 0.1923400D+02 0.9405700D+01
EXPONENTS  0.4160100D+01 0.1899500D+01 0.3011400D+00 0.6047200D+00 0.1251500D+00
EXPONENTS  0.4559300D-01 0.8676500D+04 0.2055900D+04 0.6662300D+03 0.2531000D+03
EXPONENTS  0.1061200D+03 0.4724200D+02 0.2182500D+02 0.9968400D+01 0.1998200D+01
EXPONENTS  0.8676500D+04 0.2055900D+04 0.6662300D+03 0.2531000D+03 0.1061200D+03
EXPONENTS  0.4724200D+02 0.2182500D+02 0.9968400D+01 0.1998200D+01 0.8676500D+04
EXPONENTS  0.2055900D+04 0.6662300D+03 0.2531000D+03 0.1061200D+03 0.4724200D+02
EXPONENTS  0.2182500D+02 0.9968400D+01 0.1998200D+01 0.8676500D+04 0.6662300D+03
EXPONENTS  0.2531000D+03 0.1061200D+03 0.4724200D+02 0.2182500D+02 0.9968400D+01
EXPONENTS  0.4517100D+01 0.1998200D+01 0.8676500D+04 0.6662300D+03 0.2531000D+03
EXPONENTS  0.1061200D+03 0.4724200D+02 0.2182500D+02 0.9968400D+01 0.4517100D+01
EXPONENTS  0.1998200D+01 0.8676500D+04 0.6662300D+03 0.2531000D+03 0.1061200D+03
EXPONENTS  0.4724200D+02 0.2182500D+02 0.9968400D+01 0.4517100D+01 0.1998200D+01
EXPONENTS  0.6662300D+03 0.1061200D+03 0.4724200D+02 0.2182500D+02 0.9968400D+01
EXPONENTS  0.4517100D+01 0.1998200D+01 0.2814500D+00 0.6662300D+03 0.1061200D+03
EXPONENTS  0.4724200D+02 0.2182500D+02 0.9968400D+01 0.4517100D+01 0.1998200D+01
EXPONENTS  0.2814500D+00 0.6662300D+03 0.1061200D+03 0.4724200D+02 0.2182500D+02
EXPONENTS  0.9968400D+01 0.4517100D+01 0.1998200D+01 0.2814500D+00 0.7098800D+00
EXPONENTS  0.7098800D+00 0.7098800D+00 0.1020400D+00 0.1020400D+00 0.1020400D+00
EXPONENTS  0.3514200D-01 0.3514200D-01 0.3514200D-01 0.4038300D+03 0.1211700D+03
EXPONENTS  0.4634500D+02 0.1972100D+02 0.8862400D+01 0.3996200D+01 0.1763600D+01
EXPONENTS  0.4038300D+03 0.1211700D+03 0.4634500D+02 0.1972100D+02 0.8862400D+01
EXPONENTS  0.3996200D+01 0.1763600D+01 0.4038300D+03 0.1211700D+03 0.4634500D+02
EXPONENTS  0.1972100D+02 0.8862400D+01 0.3996200D+01 0.1763600D+01 0.4038300D+03
EXPONENTS  0.1211700D+03 0.4634500D+02 0.1972100D+02 0.8862400D+01 0.3996200D+01
EXPONENTS  0.1763600D+01 0.4038300D+03 0.1211700D+03 0.4634500D+02 0.1972100D+02
EXPONENTS  0.8862400D+01 0.3996200D+01 0.1763600D+01 0.4038300D+03 0.1211700D+03
EXPONENTS  0.4634500D+02 0.1972100D+02 0.8862400D+01 0.3996200D+01 0.1763600D+01
EXPONENTS  0.7061900D+00 0.7061900D+00 0.7061900D+00 0.7061900D+00 0.7061900D+00
EXPONENTS  0.7061900D+00 0.2639000D+00 0.2639000D+00 0.2639000D+00 0.2639000D+00
EXPONENTS  0.2639000D+00 0.2639000D+00 0.1047000D+00 0.1047000D+00 0.1047000D+00
EXPONENTS  0.1047000D+00 0.1047000D+00 0.1047000D+00 0.5515000D+00 0.5515000D+00
EXPONENTS  0.5515000D+00 0.5515000D+00 0.5515000D+00 0.5515000D+00 0.5515000D+00
EXPONENTS  0.5515000D+00 0.5515000D+00 0.5515000D+00 0.2580000D+00 0.2580000D+00
EXPONENTS  0.2580000D+00 0.2580000D+00 0.2580000D+00 0.2580000D+00 0.2580000D+00
EXPONENTS  0.2580000D+00 0.2580000D+00 0.2580000D+00 0.1063900D+08 0.1593400D+07
EXPONENTS  0.3626100D+06 0.1027000D+06 0.3350100D+05 0.1209300D+05 0.4715900D+04
EXPONENTS  0.1955600D+04 0.8526100D+03 0.3876700D+03 0.1826800D+03 0.8824500D+02
EXPONENTS  0.3926300D+02 0.9405700D+01 0.1899500D+01 0.3350100D+05 0.1209300D+05
EXPONENTS  0.4715900D+04 0.1955600D+04 0.8526100D+03 0.3876700D+03 0.1826800D+03
EXPONENTS  0.8824500D+02 0.3926300D+02 0.1923400D+02 0.9405700D+01 0.1899500D+01
EXPONENTS  0.4715900D+04 0.8526100D+03 0.3876700D+03 0.1826800D+03 0.8824500D+02
EXPONENTS  0.3926300D+02 0.1923400D+02 0.9405700D+01 0.4160100D+01 0.1899500D+01
EXPONENTS  0.4715900D+04 0.8526100D+03 0.3876700D+03 0.8824500D+02 0.3926300D+02
EXPONENTS  0.1923400D+02 0.9405700D+01 0.4160100D+01 0.1899500D+01 0.3011400D+00
EXPONENTS  0.6047200D+00 0.1251500D+00 0.4559300D-01 0.8676500D+04 0.2055900D+04
EXPONENTS  0.6662300D+03 0.2531000D+03 0.1061200D+03 0.4724200D+02 0.2182500D+02
EXPONENTS  0.9968400D+01 0.1998200D+01 0.8676500D+04 0.2055900D+04 0.6662300D+03
EXPONENTS  0.2531000D+03 0.1061200D+03 0.4724200D+02 0.2182500D+02 0.9968400D+01
EXPONENTS  0.1998200D+01 0.8676500D+04 0.2055900D+04 0.6662300D+03 0.2531000D+03
EXPONENTS  0.1061200D+03 0.4724200D+02 0.2182500D+02 0.9968400D+01 0.1998200D+01
EXPONENTS  0.8676500D+04 0.6662300D+03 0.2531000D+03 0.1061200D+03 0.4724200D+02
EXPONENTS  0.2182500D+02 0.9968400D+01 0.4517100D+01 0.1998200D+01 0.8676500D+04
EXPONENTS  0.6662300D+03 0.2531000D+03 0.1061200D+03 0.4724200D+02 0.2182500D+02
EXPONENTS  0.9968400D+01 0.4517100D+01 0.1998200D+01 0.8676500D+04 0.6662300D+03
EXPONENTS  0.2531000D+03 0.1061200D+03 0.4724200D+02 0.2182500D+02 0.9968400D+01
EXPONENTS  0.4517100D+01 0.1998200D+01 0.6662300D+03 0.1061200D+03 0.4724200D+02
EXPONENTS  0.2182500D+02 0.9968400D+01 0.4517100D+01 0.1998200D+01 0.2814500D+00
EXPONENTS  0.6662300D+03 0.1061200D+03 0.4724200D+02 0.2182500D+02 0.9968400D+01
EXPONENTS  0.4517100D+01 0.1998200D+01 0.2814500D+00 0.6662300D+03 0.1061200D+03
EXPONENTS  0.4724200D+02 0.2182500D+02 0.9968400D+01 0.4517100D+01 0.1998200D+01
EXPONENTS  0.2814500D+00 0.7098800D+00 0.7098800D+00 0.7098800D+00 0.1020400D+00
EXPONENTS  0.1020400D+00 0.1020400D+00 0.3514200D-01 0.3514200D-01 0.3514200D-01
EXPONENTS  0.4038300D+03 0.1211700D+03 0.4634500D+02 0.1972100D+02 0.8862400D+01
EXPONENTS  0.3996200D+01 0.1763600D+01 0.4038300D+03 0.1211700D+03 0.4634500D+02
EXPONENTS  0.1972100D+02 0.8862400D+01 0.3996200D+01 0.1763600D+01 0.4038300D+03
EXPONENTS  0.1211700D+03 0.4634500D+02 0.1972100D+02 0.8862400D+01 0.3996200D+01
EXPONENTS  0.1763600D+01 0.4038300D+03 0.1211700D+03 0.4634500D+02 0.1972100D+02
EXPONENTS  0.8862400D+01 0.3996200D+01 0.1763600D+01 0.4038300D+03 0.1211700D+03
EXPONENTS  0.4634500D+02 0.1972100D+02 0.8862400D+01 0.3996200D+01 0.1763600D+01
EXPONENTS  0.4038300D+03 0.1211700D+03 0.4634500D+02 0.1972100D+02 0.8862400D+01
EXPONENTS  0.3996200D+01 0.1763600D+01 0.7061900D+00 0.7061900D+00 0.7061900D+00
EXPONENTS  0.7061900D+00 0.7061900D+00 0.7061900D+00 0.2639000D+00 0.2639000D+00
EXPONENTS  0.2639000D+00 0.2639000D+00 0.2639000D+00 0.2639000D+00 0.1047000D+00
EXPONENTS  0.1047000D+00 0.1047000D+00 0.1047000D+00 0.1047000D+00 0.1047000D+00
EXPONENTS  0.5515000D+00 0.5515000D+00 0.5515000D+00 0.5515000D+00 0.5515000D+00
EXPONENTS  0.5515000D+00 0.5515000D+00 0.5515000D+00 0.5515000D+00 0.5515000D+00
EXPONENTS  0.2580000D+00 0.2580000D+00 0.2580000D+00 0.2580000D+00 0.2580000D+00
EXPONENTS  0.2580000D+00 0.2580000D+00 0.2580000D+00 0.2580000D+00 0.2580000D+00
MO    1     MO 0.0        OCC NO =    2.0000283  ORB. ENERGY =    0.000000
 -0.12888507D-10 -0.24026773D-10 -0.40608520D-10 -0.61042180D-10 -0.74979384D-10
 -0.63279955D-10 -0.23794916D-10 -0.98482984D-15 -0.73609929D-14 -0.27509711D-13
 -0.76747811D-13 -0.10282091D-12  0.12141232D-12 -0.10697259D-11  0.21947298D-12
  0.78818681D-13 -0.20030946D-12 -0.18780285D-12 -0.13372682D-12 -0.26173312D-02
 -0.24539144D-02 -0.17473332D-02 -0.11956381D-12 -0.11209867D-12 -0.79820934D-13
 -0.74398327D-14 -0.55117180D-03 -0.63702743D-13  0.12822948D-13  0.12873813D-02
  0.24446334D-12 -0.21318393D-14  0.80516768D-04  0.13269736D-13  0.48233248D-13
  0.37781155D-13 -0.86014403D-13 -0.74401429D-05 -0.76953947D-13 -0.11882332D-02
 -0.12274830D-13  0.23887054D-14  0.98861248D-14  0.16385572D-05  0.22302574D-13
  0.15304039D-05 -0.23498932D-14 -0.36271094D-13  0.38620987D-13 -0.17717201D-06
 -0.11807993D-13 -0.32132728D-03  0.11686245D-13  0.11230725D-03 -0.27531409D-13
 -0.37311389D-14  0.27509419D-03  0.48769195D-13 -0.31327596D-13 -0.61201594D-03
  0.33825033D-13 -0.96144480D-05 -0.72175530D-14 -0.68581047D-04  0.64118944D-14
  0.14762948D-14 -0.13797162D-03 -0.11392436D-13  0.20176364D-13  0.34371477D-03
 -0.78432476D-14  0.51833834D-05 -0.74251588D-10 -0.13882082D-09 -0.23992364D-09
 -0.38806661D-09 -0.58654969D-09 -0.80780036D-09 -0.94422025D-09 -0.81605899D-09
 -0.38085898D-09 -0.51598035D-10  0.37739546D-12 -0.35577607D-12 -0.45734656D-11
 -0.16683345D-10 -0.56289193D-10 -0.12363633D-09 -0.15970441D-09  0.25665857D-10
  0.21530604D-09  0.11815718D-09 -0.22575328D-14 -0.25714701D-13 -0.53392990D-13
 -0.14681716D-12  0.19036531D-13  0.66384035D-12  0.16557233D-11 -0.13705837D-11
  0.68324353D-11 -0.60907775D-12 -0.15821476D-12  0.88572312D-09  0.11620184D-08
  0.12744827D-08  0.10486059D-08  0.55276543D-09  0.14381917D-09  0.97045521D+01
  0.12731821D+02  0.13964052D+02  0.11489201D+02  0.60564535D+01  0.15757753D+01
  0.28323942D-10  0.37159401D-10  0.40755821D-10  0.33532662D-10  0.17676513D-10
  0.45990961D-11  0.52511515D-14  0.18849340D-12  0.29904950D-12  0.35511210D-12
  0.53737821D-13 -0.39109379D-12  0.88550599D-04  0.31785796D-02  0.50428963D-02
  0.59882846D-02  0.90618530D-03 -0.65950468D-02  0.31480487D-15  0.11300119D-13
  0.17927923D-13  0.21288858D-13  0.32215654D-14 -0.23445949D-13  0.67455882D-11
  0.67296037D-01 -0.21349314D-12  0.16341533D-13 -0.32095553D-03  0.10944572D-12
 -0.35352693D-15 -0.28033824D-04  0.48933708D-14  0.41814403D-16  0.22419308D-13
 -0.22461122D-13  0.46722394D-05  0.50580893D-13  0.76803038D-03  0.26408955D-13
 -0.10886412D-12  0.82455163D-13 -0.42186357D-05 -0.37040268D-13 -0.72860764D-03
  0.85828016D-15  0.45491063D-14 -0.54073864D-14 -0.57630814D-06 -0.56486374D-14
 -0.41368902D-04  0.10455477D-13  0.35474122D-05 -0.91598443D-14 -0.72413165D-14
  0.13847584D-03  0.85758586D-15 -0.24125115D-13 -0.14911808D-03  0.26621947D-13
 -0.46672572D-05  0.28371406D-15  0.32000587D-04  0.92690764D-15  0.22039710D-14
  0.28390025D-05  0.26850588D-14 -0.30551132D-14 -0.98840763D-04 -0.54657817D-14
 -0.87329847D-06  0.36938644D-03  0.69487153D-03  0.12028581D-02  0.19717154D-02
  0.30887222D-02  0.46426008D-02  0.66353680D-02  0.88084366D-02  0.10258061D-01
  0.94208421D-02  0.55071008D-02  0.14450311D-02  0.82158046D-04  0.14335696D-05
  0.14430508D-06  0.18588378D-04  0.53697540D-04  0.24610844D-03  0.72853458D-03
  0.21127715D-02  0.43915907D-02  0.62822226D-02  0.18013139D-02 -0.71982915D-02
 -0.69600515D-02 -0.15191376D-02  0.21989058D-04  0.12200147D-04  0.56916207D-04
  0.11550722D-03  0.45269288D-03  0.31766531D-03 -0.20687567D-02 -0.64103669D-02
 -0.78413143D-03  0.56036335D-02  0.26297850D-02 -0.96428636D-06 -0.13219601D-05
  0.25345172D-05  0.53866825D-05 -0.20363167D-04 -0.65849309D-04 -0.22901388D-04
  0.22400052D-03  0.49963728D-03 -0.33154409D-03 -0.56647391D-04  0.15390760D-02
  0.47883919D-03  0.20092463D-03  0.28829686D-03  0.38173168D-03  0.44083365D-03
  0.40873593D-03  0.26469190D-03  0.93398974D-04  0.10761790D-04 -0.17581459D-07
  0.11929320D+01  0.17116794D+01  0.22664217D+01  0.26173225D+01  0.24267516D+01
  0.15715318D+01  0.55452945D+00  0.63895023D-01 -0.10438484D-03  0.10397641D+01
  0.14919062D+01  0.19754217D+01  0.22812682D+01  0.21151659D+01  0.13697530D+01
  0.48332996D+00  0.55691143D-01 -0.90982219D-04 -0.17880692D-05  0.50981037D-05
  0.24884500D-04  0.51565416D-04  0.64709507D-04  0.10261764D-04 -0.83065512D-04
 -0.72445170D-04 -0.18623109D-04 -0.72371815D-02  0.20634494D-01  0.10071962D+00
  0.20871020D+00  0.26191070D+00  0.41534327D-01 -0.33620634D+00 -0.29322068D+00
 -0.75376738D-01 -0.64249438D-02  0.18318659D-01  0.89415732D-01  0.18528640D+00
  0.23251614D+00  0.36872878D-01 -0.29847349D+00 -0.26031216D+00 -0.66917114D-01
  0.78435957D-06  0.11080953D-05 -0.51559094D-06  0.10332491D-05  0.11342762D-05
  0.30617671D-05  0.96484371D-06 -0.20715400D-05 -0.73469641D-04 -0.10379342D-03
  0.48294536D-04 -0.96782705D-04 -0.10624575D-03 -0.28679057D-03 -0.90375287D-04
  0.19403766D-03  0.57993670D-04  0.81929912D-04 -0.38121560D-04  0.76395966D-04
  0.83865671D-04  0.22637973D-03  0.71338235D-04 -0.15316471D-03 -0.43056194D-06
 -0.31192346D-02 -0.28954648D-02 -0.26873639D-06  0.38455325D-03  0.16655456D-03
 -0.26797988D-07  0.14775806D-04  0.12340115D-04  0.14805622D+00  0.15492488D+00
  0.13200429D+00  0.86934804D-01  0.40065663D-01  0.11997728D-01  0.20413116D-02
 -0.14934097D+00 -0.15626924D+00 -0.13314975D+00 -0.87689179D-01 -0.40413332D-01
 -0.12101838D-01 -0.20590251D-02  0.12847544D-02  0.13443570D-02  0.11454641D-02
  0.75437473D-03  0.34766885D-03  0.10411000D-03  0.17713434D-04 -0.14857523D-03
 -0.15546797D-03 -0.13246703D-03 -0.87239552D-04 -0.40206112D-04 -0.12039785D-04
 -0.20484674D-05  0.82172691D-04  0.85984867D-04  0.73263709D-04  0.48249691D-04
  0.22236846D-04  0.66588596D-05  0.11329485D-05 -0.47833831D+00 -0.50052950D+00
 -0.42647793D+00 -0.28086796D+00 -0.12944368D+00 -0.38762119D-01 -0.65950460D-02
  0.65194238D-04 -0.11686816D-03  0.51673921D-04  0.58886529D-06  0.75918847D-06
 -0.35259711D-03 -0.54738090D-04  0.57007489D-04 -0.22693988D-05 -0.11756675D-05
  0.73718367D-07  0.93790302D-04 -0.15693650D-04  0.18609913D-04 -0.29162627D-05
 -0.34693371D-07  0.74580598D-07  0.63875925D-04 -0.71028010D-07  0.27893103D-04
  0.31889256D-04 -0.14049607D-06 -0.51885286D-04 -0.39845446D-04  0.35358010D-06
 -0.31794022D-04 -0.55822322D-04  0.48845759D-06  0.36122602D-07 -0.17057451D-05
 -0.13811867D-05 -0.44196499D-06  0.12490046D-04  0.22896999D-05  0.33359719D-06
 -0.73728102D-05  0.18538603D-05 -0.28879876D-06 -0.36938648D-03 -0.69487161D-03
 -0.12028582D-02 -0.19717156D-02 -0.30887226D-02 -0.46426013D-02 -0.66353688D-02
 -0.88084376D-02 -0.10258062D-01 -0.94208431D-02 -0.55071014D-02 -0.14450313D-02
 -0.82158055D-04 -0.14335697D-05 -0.14430510D-06 -0.18588377D-04 -0.53697538D-04
 -0.24610843D-03 -0.72853456D-03 -0.21127715D-02 -0.43915905D-02 -0.62822224D-02
 -0.18013138D-02  0.71982913D-02  0.69600513D-02  0.15191376D-02 -0.21989057D-04
 -0.12200147D-04 -0.56916207D-04 -0.11550722D-03 -0.45269288D-03 -0.31766531D-03
  0.20687568D-02  0.64103669D-02  0.78413143D-03 -0.56036335D-02 -0.26297850D-02
  0.96428636D-06  0.13219601D-05 -0.25345172D-05 -0.53866825D-05  0.20363167D-04
  0.65849309D-04  0.22901388D-04 -0.22400052D-03 -0.49963728D-03  0.33154409D-03
  0.56647390D-04 -0.15390760D-02 -0.47883919D-03 -0.20092782D-03 -0.28830143D-03
 -0.38173773D-03 -0.44084063D-03 -0.40874240D-03 -0.26469609D-03 -0.93400453D-04
 -0.10761961D-04  0.17581737D-07  0.11929320D+01  0.17116794D+01  0.22664217D+01
  0.26173225D+01  0.24267516D+01  0.15715318D+01  0.55452945D+00  0.63895023D-01
 -0.10438484D-03 -0.10397641D+01 -0.14919062D+01 -0.19754217D+01 -0.22812682D+01
 -0.21151659D+01 -0.13697530D+01 -0.48332996D+00 -0.55691143D-01  0.90982219D-04
  0.17880828D-05 -0.50981426D-05 -0.24884690D-04 -0.51565809D-04 -0.64710001D-04
 -0.10261842D-04  0.83066146D-04  0.72445723D-04  0.18623251D-04 -0.72371815D-02
  0.20634494D-01  0.10071962D+00  0.20871020D+00  0.26191070D+00  0.41534327D-01
 -0.33620634D+00 -0.29322067D+00 -0.75376738D-01  0.64249438D-02 -0.18318659D-01
 -0.89415732D-01 -0.18528640D+00 -0.23251614D+00 -0.36872879D-01  0.29847349D+00
  0.26031216D+00  0.66917115D-01 -0.78435960D-06 -0.11080953D-05  0.51559096D-06
 -0.10332491D-05 -0.11342763D-05 -0.30617672D-05 -0.96484375D-06  0.20715400D-05
 -0.73469641D-04 -0.10379342D-03  0.48294535D-04 -0.96782705D-04 -0.10624575D-03
 -0.28679057D-03 -0.90375287D-04  0.19403766D-03 -0.57993670D-04 -0.81929912D-04
  0.38121560D-04 -0.76395966D-04 -0.83865671D-04 -0.22637973D-03 -0.71338235D-04
  0.15316471D-03  0.43056671D-06 -0.31192346D-02  0.28954648D-02  0.26873642D-06
  0.38455325D-03 -0.16655456D-03  0.26797989D-07  0.14775806D-04 -0.12340115D-04
 -0.14805622D+00 -0.15492488D+00 -0.13200429D+00 -0.86934804D-01 -0.40065663D-01
 -0.11997728D-01 -0.20413116D-02  0.14934097D+00  0.15626924D+00  0.13314975D+00
  0.87689179D-01  0.40413332D-01  0.12101838D-01  0.20590251D-02 -0.12847545D-02
 -0.13443571D-02 -0.11454642D-02 -0.75437479D-03 -0.34766888D-03 -0.10411001D-03
 -0.17713435D-04 -0.14857511D-03 -0.15546784D-03 -0.13246692D-03 -0.87239482D-04
 -0.40206080D-04 -0.12039776D-04 -0.20484658D-05 -0.82172674D-04 -0.85984850D-04
 -0.73263694D-04 -0.48249681D-04 -0.22236842D-04 -0.66588582D-05 -0.11329483D-05
 -0.47833831D+00 -0.50052950D+00 -0.42647793D+00 -0.28086796D+00 -0.12944368D+00
 -0.38762119D-01 -0.65950460D-02 -0.65194238D-04  0.11686816D-03 -0.51673921D-04
  0.58886535D-06 -0.75918846D-06 -0.35259711D-03  0.54738090D-04 -0.57007489D-04
  0.22693987D-05 -0.11756675D-05 -0.73718374D-07  0.93790302D-04  0.15693650D-04
 -0.18609913D-04  0.29162628D-05 -0.34693362D-07 -0.74580602D-07  0.63875925D-04
  0.71027996D-07  0.27893103D-04 -0.31889256D-04  0.14049611D-06 -0.51885286D-04
  0.39845446D-04 -0.35358010D-06 -0.31794022D-04  0.55822322D-04  0.48845753D-06
 -0.36122597D-07 -0.17057451D-05  0.13811867D-05  0.44196498D-06  0.12490046D-04
 -0.22896999D-05 -0.33359719D-06 -0.73728102D-05 -0.18538603D-05 -0.28879874D-06
MO    2     MO 0.0        OCC NO =    2.0000240  ORB. ENERGY =    0.000000
 -0.58959045D-01 -0.10991154D+00 -0.18576547D+00 -0.27924015D+00 -0.34299651D+00
 -0.28947696D+00 -0.10885090D+00 -0.10358362D-04 -0.77422339D-04 -0.28934496D-03
 -0.80722738D-03 -0.10814621D-02  0.12770051D-02 -0.44804832D-02 -0.17439743D-02
 -0.31718271D-03  0.16549386D-04  0.15516101D-04  0.11048388D-04 -0.83198021D-12
 -0.78003433D-12 -0.55543091D-12  0.22932660D-02  0.21500827D-02  0.15309869D-02
 -0.97924400D-06 -0.33092128D-12 -0.21676342D-03 -0.53327166D-05 -0.34258996D-12
 -0.96641789D-03 -0.76157580D-07 -0.20869401D-13  0.10779407D-05  0.12463471D-03
  0.11497417D-04 -0.13613213D-03 -0.10409582D-13 -0.16586257D-05  0.33903353D-12
  0.11846977D-03  0.12834891D-03 -0.24681868D-03 -0.15408172D-13 -0.44010730D-05
  0.78818689D-13  0.23556877D-04  0.10022445D-03 -0.12378133D-03 -0.92282347D-15
 -0.16446107D-05  0.82741244D-13 -0.69836057D-06 -0.39965416D-14 -0.97821061D-05
  0.12683100D-05 -0.59691903D-13 -0.90583607D-04  0.82677173D-06  0.71681528D-13
  0.11992993D-03 -0.48639215D-14  0.29771984D-06  0.32562047D-14  0.13243825D-04
 -0.81355924D-06  0.25320884D-13  0.44748853D-04 -0.79600282D-07 -0.35089498D-13
 -0.84480329D-04  0.49724868D-14 -0.12703822D+00 -0.23751074D+00 -0.41048916D+00
 -0.66394929D+00 -0.10035371D+01 -0.13820784D+01 -0.16154814D+01 -0.13962082D+01
 -0.65161765D+00 -0.88279894D-01  0.64569186D-03 -0.15829962D-02 -0.20349257D-01
 -0.74231166D-01 -0.25045411D+00 -0.55010961D+00 -0.71059157D+00  0.11419811D+00
  0.95798642D+00  0.52573059D+00 -0.12725919D-04 -0.14495613D-03 -0.30098118D-03
 -0.82762180D-03  0.10731067D-03  0.37421289D-02  0.93334638D-02 -0.77261061D-02
  0.29340851D-01  0.18105145D-02  0.12891663D-03  0.30665088D-01  0.40230851D-01
  0.44124537D-01  0.36304340D-01  0.19137584D-01  0.49792393D-02 -0.11140739D-08
 -0.14616016D-08 -0.16030606D-08 -0.13189500D-08 -0.69527544D-09 -0.18089759D-09
  0.62308404D+01  0.81745082D+01  0.89656664D+01  0.73766802D+01  0.38885664D+01
  0.10117318D+01  0.30194230D-06  0.10838410D-04  0.17195408D-04  0.20419020D-04
  0.30899359D-05 -0.22487975D-04 -0.11088582D-13 -0.39803163D-12 -0.63148716D-12
 -0.74987164D-12 -0.11347534D-12  0.82585229D-12  0.57972460D-04  0.20809580D-02
  0.33014921D-02  0.39204206D-02  0.59326297D-03 -0.43176567D-02  0.22973338D-03
 -0.76717241D-11  0.45892331D-01 -0.49464726D-05  0.33596058D-13 -0.77414649D-03
  0.13151149D-07  0.62249302D-14 -0.49994808D-05 -0.24702306D-03 -0.13338910D-03
  0.38041216D-03 -0.16683643D-14  0.77447224D-05 -0.85457378D-13  0.21034505D-03
 -0.39861942D-03  0.18827437D-03 -0.22491787D-14  0.75804300D-06  0.17910766D-12
 -0.54197389D-05 -0.30837212D-04  0.36256951D-04  0.29943953D-15  0.62942053D-06
  0.44439763D-14  0.11740296D-05  0.46288803D-14 -0.74206848D-04  0.77912531D-07
 -0.14754213D-13  0.20815873D-03 -0.36000013D-05  0.86757183D-15  0.14461813D-04
  0.97001537D-15  0.14652379D-06 -0.51726502D-14 -0.20802599D-04  0.29254430D-06
 -0.48265996D-15  0.19376719D-04 -0.73211568D-06  0.16000610D-13  0.43031078D-04
  0.27826901D-15  0.58127682D-03  0.10934692D-02  0.18928511D-02  0.31027464D-02
  0.48604995D-02  0.73057263D-02  0.10441600D-01  0.13861202D-01  0.16142371D-01
  0.14824900D-01  0.86661275D-02  0.22739413D-02  0.12928619D-03  0.22559051D-05
  0.22708251D-06  0.27637476D-04  0.79838297D-04  0.36591767D-03  0.10831960D-02
  0.31413000D-02  0.65294820D-02  0.93405017D-02  0.26782202D-02 -0.10702526D-01
 -0.10348308D-01 -0.22586763D-02  0.32693656D-04  0.17526636D-04  0.81765382D-04
  0.16593677D-03  0.65033508D-03  0.45635552D-03 -0.29719599D-02 -0.92090834D-02
 -0.11264771D-02  0.80501365D-02  0.37779288D-02 -0.20723627D-06 -0.28410448D-06
  0.54469701D-06  0.11576603D-05 -0.43762797D-05 -0.14151777D-04 -0.49217727D-05
  0.48140297D-04  0.10737782D-03 -0.71252653D-04  0.82845050D-04 -0.29140126D-03
  0.76385250D-04  0.16588133D-02  0.23801495D-02  0.31515379D-02  0.36394777D-02
  0.33744822D-02  0.21852694D-02  0.77109242D-03  0.88848244D-04 -0.14515074D-06
  0.25612121D+00  0.36749570D+00  0.48659827D+00  0.56193631D+00  0.52102093D+00
  0.33740616D+00  0.11905687D+00  0.13718192D-01 -0.22411311D-04  0.32134342D+00
  0.46107985D+00  0.61051233D+00  0.70503548D+00  0.65370084D+00  0.42332789D+00
  0.14937514D+00  0.17211581D-01 -0.28118435D-04 -0.10877455D-04  0.31013562D-04