 Entering Gaussian System, Link 0=/home/bruns/programas/chemistry/gaussian/g09/g09
 Input=GAUSSIAN.com
 Output=GAUSSIAN.log
 Initial command:
 /home/bruns/programas/chemistry/gaussian/g09/l1.exe /home/bruns/programas/chemistry/gaussian/work/Gau-7125.inp -scrdir=/home/bruns/programas/chemistry/gaussian/work/
 Entering Link 1 = /home/bruns/programas/chemistry/gaussian/g09/l1.exe PID=      7127.
  
 Copyright (c) 1988,1990,1992,1993,1995,1998,2003,2009,2010,
            Gaussian, Inc.  All Rights Reserved.
  
 This is part of the Gaussian(R) 09 program.  It is based on
 the Gaussian(R) 03 system (copyright 2003, Gaussian, Inc.),
 the Gaussian(R) 98 system (copyright 1998, Gaussian, Inc.),
 the Gaussian(R) 94 system (copyright 1995, Gaussian, Inc.),
 the Gaussian 92(TM) system (copyright 1992, Gaussian, Inc.),
 the Gaussian 90(TM) system (copyright 1990, Gaussian, Inc.),
 the Gaussian 88(TM) system (copyright 1988, Gaussian, Inc.),
 the Gaussian 86(TM) system (copyright 1986, Carnegie Mellon
 University), and the Gaussian 82(TM) system (copyright 1983,
 Carnegie Mellon University). Gaussian is a federally registered
 trademark of Gaussian, Inc.
  
 This software contains proprietary and confidential information,
 including trade secrets, belonging to Gaussian, Inc.
  
 This software is provided under written license and may be
 used, copied, transmitted, or stored only in accord with that
 written license.
  
 The following legend is applicable only to US Government
 contracts under FAR:
  
                    RESTRICTED RIGHTS LEGEND
  
 Use, reproduction and disclosure by the US Government is
 subject to restrictions as set forth in subparagraphs (a)
 and (c) of the Commercial Computer Software - Restricted
 Rights clause in FAR 52.227-19.
  
 Gaussian, Inc.
 340 Quinnipiac St., Bldg. 40, Wallingford CT 06492
  
  
 ---------------------------------------------------------------
 Warning -- This program may not be used in any manner that
 competes with the business of Gaussian, Inc. or will provide
 assistance to any competitor of Gaussian, Inc.  The licensee
 of this program is prohibited from giving any competitor of
 Gaussian, Inc. access to this program.  By using this program,
 the user acknowledges that Gaussian, Inc. is engaged in the
 business of creating and licensing software in the field of
 computational chemistry and represents and warrants to the
 licensee that it is not a competitor of Gaussian, Inc. and that
 it will not use this program in any manner prohibited above.
 ---------------------------------------------------------------
  

 Cite this work as:
 Gaussian 09, Revision B.01,
 M. J. Frisch, G. W. Trucks, H. B. Schlegel, G. E. Scuseria, 
 M. A. Robb, J. R. Cheeseman, G. Scalmani, V. Barone, B. Mennucci, 
 G. A. Petersson, H. Nakatsuji, M. Caricato, X. Li, H. P. Hratchian, 
 A. F. Izmaylov, J. Bloino, G. Zheng, J. L. Sonnenberg, M. Hada, 
 M. Ehara, K. Toyota, R. Fukuda, J. Hasegawa, M. Ishida, T. Nakajima, 
 Y. Honda, O. Kitao, H. Nakai, T. Vreven, J. A. Montgomery, Jr., 
 J. E. Peralta, F. Ogliaro, M. Bearpark, J. J. Heyd, E. Brothers, 
 K. N. Kudin, V. N. Staroverov, T. Keith, R. Kobayashi, J. Normand, 
 K. Raghavachari, A. Rendell, J. C. Burant, S. S. Iyengar, J. Tomasi, 
 M. Cossi, N. Rega, J. M. Millam, M. Klene, J. E. Knox, J. B. Cross, 
 V. Bakken, C. Adamo, J. Jaramillo, R. Gomperts, R. E. Stratmann, 
 O. Yazyev, A. J. Austin, R. Cammi, C. Pomelli, J. W. Ochterski, 
 R. L. Martin, K. Morokuma, V. G. Zakrzewski, G. A. Voth, 
 P. Salvador, J. J. Dannenberg, S. Dapprich, A. D. Daniels, 
 O. Farkas, J. B. Foresman, J. V. Ortiz, J. Cioslowski, 
 and D. J. Fox, Gaussian, Inc., Wallingford CT, 2010.
 
 ******************************************
 Gaussian 09:  EM64L-G09RevB.01 12-Aug-2010
                29-Nov-2021 
 ******************************************
 %nproc=8
 Will use up to    8 processors via shared memory.
 %mem=8GB
 -----------------------------------------------------
 # qcisd/aug-cc-pvtz nosymm density=current output=wfn
 -----------------------------------------------------
 1/30=1,38=1/1;
 2/12=2,15=1,17=6,18=5,40=1/2;
 3/5=16,6=1,7=10,11=9,16=1,25=1,30=1,71=1/1,2,3;
 4//1;
 5/5=2,38=5/2;
 8/6=4,9=120000,10=1/1,4;
 9/5=8,15=1/13;
 11/28=-7,31=1,32=3,42=3/11;
 10/5=6,13=10,31=1/2;
 6/7=2,8=2,9=2,10=2,22=-1,31=1/1;
 99/5=1,6=1100,9=1/99;
 ------------------
 br2cs-wavefunction
 ------------------
 Symbolic Z-matrix:
 Charge =  0 Multiplicity = 1
 C                     0.        0.       -0.52945 
 S                     0.        0.        1.08369 
 Br                    0.       -1.56852  -1.57857 
 Br                    0.        1.56852  -1.57857 
 
                          Input orientation:                          
 ---------------------------------------------------------------------
 Center     Atomic      Atomic             Coordinates (Angstroms)
 Number     Number       Type             X           Y           Z
 ---------------------------------------------------------------------
      1          6           0        0.000000    0.000000   -0.529451
      2         16           0        0.000000    0.000000    1.083692
      3         35           0        0.000000   -1.568516   -1.578570
      4         35           0        0.000000    1.568516   -1.578570
 ---------------------------------------------------------------------
                    Distance matrix (angstroms):
                    1          2          3          4
     1  C    0.000000
     2  S    1.613143   0.000000
     3  Br   1.887033   3.089965   0.000000
     4  Br   1.887033   3.089965   3.137032   0.000000
 Symmetry turned off by external request.
 Stoichiometry    CBr2S
 Framework group  C2V[C2(CS),SGV(Br2)]
 Deg. of freedom     3
 Full point group                 C2V     NOp   4
 Rotational constants (GHZ):      2.6252310      1.3014616      0.8701057
 Standard basis: Aug-CC-pVTZ (5D, 7F)
 Integral buffers will be    131072 words long.
 Raffenetti 1 integral format.
 Two-electron integral symmetry is turned off.
   214 basis functions,   620 primitive gaussians,   252 cartesian basis functions
    46 alpha electrons       46 beta electrons
       nuclear repulsion energy       547.7211558085 Hartrees.
 NAtoms=    4 NActive=    4 NUniq=    4 SFac= 1.00D+00 NAtFMM=   50 NAOKFM=F Big=F
 One-electron integrals computed using PRISM.
 NBasis=   214 RedAO= T  NBF=   214
 NBsUse=   214 1.00D-06 NBFU=   214
 Harris functional with IExCor=  205 diagonalized for initial guess.
 ExpMin= 3.51D-02 ExpMax= 1.06D+07 ExpMxC= 1.21D+04 IAcc=3 IRadAn=         0 AccDes= 0.00D+00
 HarFok:  IExCor=  205 AccDes= 0.00D+00 IRadAn=         0 IDoV= 1
 ScaDFX=  1.000000  1.000000  1.000000  1.000000
 FoFCou: FMM=F IPFlag=           0 FMFlag=      100000 FMFlg1=           0
         NFxFlg=           0 DoJE=T BraDBF=F KetDBF=T FulRan=T
         Omega=  0.000000  0.000000  1.000000  0.000000  0.000000 ICntrl=     500 IOpCl=  0
         NMat0=    1 NMatS0=    1 NMatT0=    0 NMatD0=    1 NMtDS0=    0 NMtDT0=    0
         I1Cent=           4 NGrid=           0.
 Symmetry not used in FoFCou.
 Requested convergence on RMS density matrix=1.00D-08 within 128 cycles.
 Requested convergence on MAX density matrix=1.00D-06.
 Requested convergence on             energy=1.00D-06.
 No special actions if energy rises.
 Keep R1 ints in memory in canonical form, NReq=516428601.
 SCF Done:  E(RHF) =  -5580.30833953     A.U. after   14 cycles
             Convg  =    0.3234D-08             -V/T =  2.0000
 ExpMin= 3.51D-02 ExpMax= 1.06D+07 ExpMxC= 1.21D+04 IAcc=3 IRadAn=         5 AccDes= 0.00D+00
 HarFok:  IExCor=  205 AccDes= 0.00D+00 IRadAn=         5 IDoV=-2
 ScaDFX=  1.000000  1.000000  1.000000  1.000000
 DSYEVD returned Info=          89 IAlg= 4 N=    59 NDim=    59 NE2=    18196455 trying DSYEV.
 DSYEVD returned Info=         119 IAlg= 4 N=    59 NDim=    59 NE2=    18196455 trying DSYEV.
 Range of M.O.s used for correlation:    25   214
 NBasis=   214 NAE=    46 NBE=    46 NFC=    24 NFV=     0
 NROrb=    190 NOA=    22 NOB=    22 NVA=   168 NVB=   168

 **** Warning!!: The largest alpha MO coefficient is  0.30835662D+02

 Semi-Direct transformation.
 ModeAB=           2 MOrb=            22 LenV=    1072457027
 LASXX=     69628944 LTotXX=    69628944 LenRXX=    69628944
 LTotAB=    70719517 MaxLAS=   133250040 LenRXY=   133250040
 NonZer=   139257888 LenScr=   209707008 LnRSAI=           0
 LnScr1=           0 LExtra=           0 Total=    412585992
 MaxDsk=          -1 SrtSym=           F ITran=            4
 JobTyp=0 Pass  1:  I=   1 to  22.
 (rs|ai) integrals will be sorted in core.
 Spin components of T(2) and E(2):
     alpha-alpha T2 =       0.4292399185D-01 E2=     -0.1154478414D+00
     alpha-beta  T2 =       0.2169315879D+00 E2=     -0.5795162511D+00
     beta-beta   T2 =       0.4292399185D-01 E2=     -0.1154478414D+00
 ANorm=    0.1141393697D+01
 E2 =    -0.8104119340D+00 EUMP2 =    -0.55811187514683D+04
 R2 and R3 integrals will be kept in memory, NReq=  1024335774.
 Iterations=  50 Convergence= 0.100D-07
 Iteration Nr.   1
 **********************
 DD1Dir will call FoFMem   1 times, MxPair=       506
 NAB=   253 NAA=     0 NBB=     0.
 MP4(R+Q)=  0.23516323D-01
 E3=       -0.12053945D-01        EUMP3=      -0.55811308054D+04
 E4(DQ)=   -0.52906918D-03        UMP4(DQ)=   -0.55811313345D+04
 E4(SDQ)=  -0.10262320D-01        UMP4(SDQ)=  -0.55811410677D+04
 DE(Corr)= -0.79894956     E(Corr)=     -5581.1072891    
 NORM(A)=   0.11411276D+01
 Iteration Nr.   2
 **********************
 DD1Dir will call FoFMem   1 times, MxPair=       506
 NAB=   253 NAA=     0 NBB=     0.
 DE(Corr)= -0.82783623     E(CORR)=     -5581.1361758     Delta=-2.89D-02
 NORM(A)=   0.11533631D+01
 Iteration Nr.   3
 **********************
 DD1Dir will call FoFMem   1 times, MxPair=       506
 NAB=   253 NAA=     0 NBB=     0.
 DE(Corr)= -0.82639228     E(CORR)=     -5581.1347318     Delta= 1.44D-03
 NORM(A)=   0.11562358D+01
 Iteration Nr.   4
 **********************
 DD1Dir will call FoFMem   1 times, MxPair=       506
 NAB=   253 NAA=     0 NBB=     0.
 DE(Corr)= -0.82876437     E(CORR)=     -5581.1371039     Delta=-2.37D-03
 NORM(A)=   0.11575659D+01
 Iteration Nr.   5
 **********************
 DD1Dir will call FoFMem   1 times, MxPair=       506
 NAB=   253 NAA=     0 NBB=     0.
 DE(Corr)= -0.82907881     E(CORR)=     -5581.1374183     Delta=-3.14D-04
 NORM(A)=   0.11582125D+01
 Iteration Nr.   6
 **********************
 DD1Dir will call FoFMem   1 times, MxPair=       506
 NAB=   253 NAA=     0 NBB=     0.
 DE(Corr)= -0.82914410     E(CORR)=     -5581.1374836     Delta=-6.53D-05
 NORM(A)=   0.11582923D+01
 Iteration Nr.   7
 **********************
 DD1Dir will call FoFMem   1 times, MxPair=       506
 NAB=   253 NAA=     0 NBB=     0.
 DE(Corr)= -0.82915585     E(CORR)=     -5581.1374954     Delta=-1.17D-05
 NORM(A)=   0.11583065D+01
 Iteration Nr.   8
 **********************
 DD1Dir will call FoFMem   1 times, MxPair=       506
 NAB=   253 NAA=     0 NBB=     0.
 DE(Corr)= -0.82915252     E(CORR)=     -5581.1374921     Delta= 3.33D-06
 NORM(A)=   0.11583148D+01
 Iteration Nr.   9
 **********************
 DD1Dir will call FoFMem   1 times, MxPair=       506
 NAB=   253 NAA=     0 NBB=     0.
 DE(Corr)= -0.82915349     E(CORR)=     -5581.1374930     Delta=-9.63D-07
 NORM(A)=   0.11583146D+01
 Iteration Nr.  10
 **********************
 DD1Dir will call FoFMem   1 times, MxPair=       506
 NAB=   253 NAA=     0 NBB=     0.
 DE(Corr)= -0.82915398     E(CORR)=     -5581.1374935     Delta=-4.98D-07
 NORM(A)=   0.11583181D+01
 Iteration Nr.  11
 **********************
 DD1Dir will call FoFMem   1 times, MxPair=       506
 NAB=   253 NAA=     0 NBB=     0.
 DE(Corr)= -0.82915527     E(CORR)=     -5581.1374948     Delta=-1.29D-06
 NORM(A)=   0.11583199D+01
 Iteration Nr.  12
 **********************
 DD1Dir will call FoFMem   1 times, MxPair=       506
 NAB=   253 NAA=     0 NBB=     0.
 DE(Corr)= -0.82915543     E(CORR)=     -5581.1374950     Delta=-1.61D-07
 NORM(A)=   0.11583214D+01
 Iteration Nr.  13
 **********************
 DD1Dir will call FoFMem   1 times, MxPair=       506
 NAB=   253 NAA=     0 NBB=     0.
 DE(Corr)= -0.82915602     E(CORR)=     -5581.1374956     Delta=-5.90D-07
 NORM(A)=   0.11583224D+01
 Iteration Nr.  14
 **********************
 DD1Dir will call FoFMem   1 times, MxPair=       506
 NAB=   253 NAA=     0 NBB=     0.
 DE(Corr)= -0.82915603     E(CORR)=     -5581.1374956     Delta=-1.16D-08
 NORM(A)=   0.11583228D+01
 Iteration Nr.  15
 **********************
 DD1Dir will call FoFMem   1 times, MxPair=       506
 NAB=   253 NAA=     0 NBB=     0.
 DE(Corr)= -0.82915615     E(CORR)=     -5581.1374957     Delta=-1.14D-07
 NORM(A)=   0.11583230D+01
 Iteration Nr.  16
 **********************
 DD1Dir will call FoFMem   1 times, MxPair=       506
 NAB=   253 NAA=     0 NBB=     0.
 DE(Corr)= -0.82915617     E(CORR)=     -5581.1374957     Delta=-2.40D-08
 NORM(A)=   0.11583231D+01
 Iteration Nr.  17
 **********************
 DD1Dir will call FoFMem   1 times, MxPair=       506
 NAB=   253 NAA=     0 NBB=     0.
 DE(Corr)= -0.82915616     E(CORR)=     -5581.1374957     Delta= 1.05D-08
 NORM(A)=   0.11583231D+01
 Iteration Nr.  18
 **********************
 DD1Dir will call FoFMem   1 times, MxPair=       506
 NAB=   253 NAA=     0 NBB=     0.
 DE(Corr)= -0.82915618     E(CORR)=     -5581.1374957     Delta=-1.38D-08
 NORM(A)=   0.11583231D+01
 Iteration Nr.  19
 **********************
 DD1Dir will call FoFMem   1 times, MxPair=       506
 NAB=   253 NAA=     0 NBB=     0.
 DE(Corr)= -0.82915617     E(CORR)=     -5581.1374957     Delta= 8.22D-09
 NORM(A)=   0.11583231D+01
 Iteration Nr.  20
 **********************
 DD1Dir will call FoFMem   1 times, MxPair=       506
 NAB=   253 NAA=     0 NBB=     0.
 DE(Corr)= -0.82915617     E(CORR)=     -5581.1374957     Delta=-3.60D-09
 NORM(A)=   0.11583231D+01
 Iteration Nr.  21
 **********************
 DD1Dir will call FoFMem   1 times, MxPair=       506
 NAB=   253 NAA=     0 NBB=     0.
 DE(Corr)= -0.82915617     E(CORR)=     -5581.1374957     Delta=-4.43D-11
 NORM(A)=   0.11583231D+01
 Largest amplitude= 7.89D-02

 Z-AMPLITUDE ITERATIONS

 Iteration Nr.   1
 **********************
 DD1Dir will call FoFMem   1 times, MxPair=       506
 NAB=   253 NAA=     0 NBB=     0.
 DE(Z)  -0.79842456D+00          E(Z)=    -0.55811067641D+04
 NORM(A)=   0.11589630D+01
 Iteration Nr.   2
 **********************
 DD1Dir will call FoFMem   1 times, MxPair=       506
 NAB=   253 NAA=     0 NBB=     0.
 DE(Z)  -0.79842851D+00          E(Z)=    -0.55811067680D+04
 NORM(A)=   0.11615514D+01
 Iteration Nr.   3
 **********************
 DD1Dir will call FoFMem   1 times, MxPair=       506
 NAB=   253 NAA=     0 NBB=     0.
 DE(Z)  -0.79844220D+00          E(Z)=    -0.55811067817D+04
 NORM(A)=   0.11602216D+01
 Iteration Nr.   4
 **********************
 DD1Dir will call FoFMem   1 times, MxPair=       506
 NAB=   253 NAA=     0 NBB=     0.
 DE(Z)  -0.79843670D+00          E(Z)=    -0.55811067762D+04
 NORM(A)=   0.11708061D+01
 Iteration Nr.   5
 **********************
 DD1Dir will call FoFMem   1 times, MxPair=       506
 NAB=   253 NAA=     0 NBB=     0.
 DE(Z)  -0.79852623D+00          E(Z)=    -0.55811068658D+04
 NORM(A)=   0.11450012D+01
 Iteration Nr.   6
 **********************
 DD1Dir will call FoFMem   1 times, MxPair=       506
 NAB=   253 NAA=     0 NBB=     0.
 DE(Z)  -0.79831910D+00          E(Z)=    -0.55811066586D+04
 NORM(A)=   0.11450012D+01
 Iteration Nr.   7
 **********************
 DD1Dir will call FoFMem   1 times, MxPair=       506
 NAB=   253 NAA=     0 NBB=     0.
 DE(Z)  -0.79831564D+00          E(Z)=    -0.55811066552D+04
 NORM(A)=   0.11449998D+01
 Iteration Nr.   8
 **********************
 DD1Dir will call FoFMem   1 times, MxPair=       506
 NAB=   253 NAA=     0 NBB=     0.
 DE(Z)  -0.79831675D+00          E(Z)=    -0.55811066563D+04
 NORM(A)=   0.11450000D+01
 Iteration Nr.   9
 **********************
 DD1Dir will call FoFMem   1 times, MxPair=       506
 NAB=   253 NAA=     0 NBB=     0.
 DE(Z)  -0.79831632D+00          E(Z)=    -0.55811066559D+04
 NORM(A)=   0.11450003D+01
 Iteration Nr.  10
 **********************
 DD1Dir will call FoFMem   1 times, MxPair=       506
 NAB=   253 NAA=     0 NBB=     0.
 DE(Z)  -0.79831630D+00          E(Z)=    -0.55811066558D+04
 NORM(A)=   0.11450008D+01
 Iteration Nr.  11
 **********************
 DD1Dir will call FoFMem   1 times, MxPair=       506
 NAB=   253 NAA=     0 NBB=     0.
 DE(Z)  -0.79831636D+00          E(Z)=    -0.55811066559D+04
 NORM(A)=   0.11450011D+01
 Iteration Nr.  12
 **********************
 DD1Dir will call FoFMem   1 times, MxPair=       506
 NAB=   253 NAA=     0 NBB=     0.
 DE(Z)  -0.79831635D+00          E(Z)=    -0.55811066559D+04
 NORM(A)=   0.11450011D+01
 Iteration Nr.  13
 **********************
 DD1Dir will call FoFMem   1 times, MxPair=       506
 NAB=   253 NAA=     0 NBB=     0.
 DE(Z)  -0.79831638D+00          E(Z)=    -0.55811066559D+04
 NORM(A)=   0.11450012D+01
 Iteration Nr.  14
 **********************
 DD1Dir will call FoFMem   1 times, MxPair=       506
 NAB=   253 NAA=     0 NBB=     0.
 DE(Z)  -0.79831638D+00          E(Z)=    -0.55811066559D+04
 NORM(A)=   0.11450011D+01
 Iteration Nr.  15
 **********************
 DD1Dir will call FoFMem   1 times, MxPair=       506
 NAB=   253 NAA=     0 NBB=     0.
 DE(Z)  -0.79831638D+00          E(Z)=    -0.55811066559D+04
 NORM(A)=   0.11450012D+01
 Iteration Nr.  16
 **********************
 DD1Dir will call FoFMem   1 times, MxPair=       506
 NAB=   253 NAA=     0 NBB=     0.
 DE(Z)  -0.79831637D+00          E(Z)=    -0.55811066559D+04
 NORM(A)=   0.11450011D+01
 Iteration Nr.  17
 **********************
 DD1Dir will call FoFMem   1 times, MxPair=       506
 NAB=   253 NAA=     0 NBB=     0.
 DE(Z)  -0.79831638D+00          E(Z)=    -0.55811066559D+04
 NORM(A)=   0.11450011D+01
 Iteration Nr.  18
 **********************
 DD1Dir will call FoFMem   1 times, MxPair=       506
 NAB=   253 NAA=     0 NBB=     0.
 DE(Z)  -0.79831637D+00          E(Z)=    -0.55811066559D+04
 NORM(A)=   0.11450011D+01
 Discarding MO integrals.
          Differentiating once with respect to electric field.
                with respect to dipole field.
          Electric field/nuclear overlap derivatives assumed to be zero.
          Keep R1 ints in memory in canonical form, NReq=510060614.
          There are     1 degrees of freedom in the 1st order CPHF.  IDoFFX=0.
 LinEq1:  Iter=  0 NonCon=     1 RMS=1.78D-03 Max=6.64D-02
 AX will form     1 AO Fock derivatives at one time.
 LinEq1:  Iter=  1 NonCon=     1 RMS=8.38D-04 Max=1.81D-02
 LinEq1:  Iter=  2 NonCon=     1 RMS=3.83D-04 Max=1.51D-02
 LinEq1:  Iter=  3 NonCon=     1 RMS=1.26D-04 Max=4.13D-03
 LinEq1:  Iter=  4 NonCon=     1 RMS=4.94D-05 Max=1.18D-03
 LinEq1:  Iter=  5 NonCon=     1 RMS=9.81D-06 Max=1.80D-04
 LinEq1:  Iter=  6 NonCon=     1 RMS=3.73D-06 Max=1.39D-04
 LinEq1:  Iter=  7 NonCon=     1 RMS=8.86D-07 Max=3.39D-05
 LinEq1:  Iter=  8 NonCon=     1 RMS=1.73D-07 Max=4.46D-06
 LinEq1:  Iter=  9 NonCon=     1 RMS=3.94D-08 Max=7.06D-07
 LinEq1:  Iter= 10 NonCon=     1 RMS=1.03D-08 Max=2.49D-07
 LinEq1:  Iter= 11 NonCon=     1 RMS=2.02D-09 Max=5.22D-08
 LinEq1:  Iter= 12 NonCon=     1 RMS=3.66D-10 Max=8.86D-09
 LinEq1:  Iter= 13 NonCon=     1 RMS=6.89D-11 Max=1.16D-09
 LinEq1:  Iter= 14 NonCon=     0 RMS=1.94D-11 Max=4.00D-10
 Linear equations converged to 1.000D-10 1.000D-09 after    14 iterations.
 End of Minotr Frequency-dependent properties file   721 does not exist.
 End of Minotr Frequency-dependent properties file   722 does not exist.

 **********************************************************************

            Population analysis using the QCI/CC density.

 **********************************************************************

     Natural Orbital Coefficients:
                           1         2         3         4         5
     Eigenvalues --     2.00003   2.00002   2.00002   2.00002   2.00001
   1 1   C  1S          0.00000  -0.17176   0.31272   0.00000   0.43181
   2        2S          0.00000   0.00344  -0.00989   0.00000  -0.00625
   3        3S          0.00000  -0.00658   0.01169   0.00000   0.01753
   4        4S          0.00000  -0.01088  -0.01497   0.00000   0.00225
   5        5S          0.00000  -0.00441  -0.00490   0.00000   0.00356
   6        6PX         0.00000   0.00000   0.00000   0.00000   0.00000
   7        6PY        -0.00115   0.00000   0.00000  -0.00304   0.00000
   8        6PZ         0.00000   0.00100   0.00154   0.00000  -0.00202
   9        7PX         0.00000   0.00000   0.00000   0.00000   0.00000
  10        7PY        -0.00124   0.00000   0.00000  -0.00521   0.00000
  11        7PZ         0.00000  -0.00050   0.00391   0.00000  -0.00033
  12        8PX         0.00000   0.00000   0.00000   0.00000   0.00000
  13        8PY         0.01272   0.00000   0.00000  -0.00439   0.00000
  14        8PZ         0.00000  -0.00929   0.00629   0.00000   0.00745
  15        9PX         0.00000   0.00000   0.00000   0.00000   0.00000
  16        9PY         0.00363   0.00000   0.00000   0.00038   0.00000
  17        9PZ         0.00000   0.00007   0.00082   0.00000   0.00107
  18       10D 0        0.00000  -0.00007   0.00011   0.00000   0.00005
  19       10D+1        0.00000   0.00000   0.00000   0.00000   0.00000
  20       10D-1       -0.00035   0.00000   0.00000   0.00036   0.00000
  21       10D+2        0.00000   0.00003   0.00012   0.00000  -0.00024
  22       10D-2        0.00000   0.00000   0.00000   0.00000   0.00000
  23       11D 0        0.00000  -0.00111  -0.00031   0.00000   0.00009
  24       11D+1        0.00000   0.00000   0.00000   0.00000   0.00000
  25       11D-1       -0.00004   0.00000   0.00000   0.00111   0.00000
  26       11D+2        0.00000  -0.00003   0.00160   0.00000   0.00074
  27       11D-2        0.00000   0.00000   0.00000   0.00000   0.00000
  28       12D 0        0.00000  -0.00421   0.00101   0.00000   0.00413
  29       12D+1        0.00000   0.00000   0.00000   0.00000   0.00000
  30       12D-1       -0.00627   0.00000   0.00000   0.00309   0.00000
  31       12D+2        0.00000  -0.00153   0.00201   0.00000   0.00193
  32       12D-2        0.00000   0.00000   0.00000   0.00000   0.00000
  33       13F 0        0.00000  -0.00001   0.00001   0.00000  -0.00006
  34       13F+1        0.00000   0.00000   0.00000   0.00000   0.00000
  35       13F-1       -0.00031   0.00000   0.00000  -0.00007   0.00000
  36       13F+2        0.00000  -0.00007   0.00001   0.00000   0.00009
  37       13F-2        0.00000   0.00000   0.00000   0.00000   0.00000
  38       13F+3        0.00000   0.00000   0.00000   0.00000   0.00000
  39       13F-3        0.00006   0.00000   0.00000  -0.00007   0.00000
  40       14F 0        0.00000   0.00015  -0.00011   0.00000  -0.00100
  41       14F+1        0.00000   0.00000   0.00000   0.00000   0.00000
  42       14F-1        0.00184   0.00000   0.00000   0.00070   0.00000
  43       14F+2        0.00000   0.00043  -0.00035   0.00000  -0.00104
  44       14F-2        0.00000   0.00000   0.00000   0.00000   0.00000
  45       14F+3        0.00000   0.00000   0.00000   0.00000   0.00000
  46       14F-3       -0.00029   0.00000   0.00000   0.00020   0.00000
  47 2   S  1S          0.00000  -0.22033  -0.00786   0.00000  -0.12296
  48        2S          0.00000   0.75307   0.02735   0.00000   0.42458
  49        3S          0.00000  -0.02072  -0.00102   0.00000  -0.00638
  50        4S          0.00000   0.05050   0.00177   0.00000   0.03044
  51        5S          0.00000   0.01108  -0.00096   0.00000  -0.01230
  52        6S          0.00000   0.00154   0.00032   0.00000  -0.00327
  53        7PX         0.00000   0.00000   0.00000   0.00000   0.00000
  54        7PY         0.97047   0.00000   0.00000   0.09485   0.00000
  55        7PZ         0.00000   0.61185   0.02365   0.00000  -0.39805
  56        8PX         0.00000   0.00000   0.00000   0.00000   0.00000
  57        8PY        -0.01887   0.00000   0.00000  -0.00125   0.00000
  58        8PZ         0.00000  -0.01207  -0.00062   0.00000   0.00669
  59        9PX         0.00000   0.00000   0.00000   0.00000   0.00000
  60        9PY         0.05622   0.00000   0.00000   0.00578   0.00000
  61        9PZ         0.00000   0.03770   0.00154   0.00000  -0.02595
  62       10PX         0.00000   0.00000   0.00000   0.00000   0.00000
  63       10PY        -0.00367   0.00000   0.00000  -0.00105   0.00000
  64       10PZ         0.00000  -0.00834  -0.00071   0.00000   0.00423
  65       11PX         0.00000   0.00000   0.00000   0.00000   0.00000
  66       11PY        -0.00130   0.00000   0.00000  -0.00007   0.00000
  67       11PZ         0.00000  -0.00021  -0.00021   0.00000   0.00020
  68       12D 0        0.00000   0.00223   0.00018   0.00000  -0.00175
  69       12D+1        0.00000   0.00000   0.00000   0.00000   0.00000
  70       12D-1        0.00265   0.00000   0.00000   0.00068   0.00000
  71       12D+2        0.00000  -0.00040  -0.00006   0.00000   0.00012
  72       12D-2        0.00000   0.00000   0.00000   0.00000   0.00000
  73       13D 0        0.00000   0.00016  -0.00014   0.00000   0.00017
  74       13D+1        0.00000   0.00000   0.00000   0.00000   0.00000
  75       13D-1       -0.00038   0.00000   0.00000   0.00018   0.00000
  76       13D+2        0.00000   0.00031   0.00002   0.00000   0.00013
  77       13D-2        0.00000   0.00000   0.00000   0.00000   0.00000
  78       14D 0        0.00000   0.00118   0.00027   0.00000  -0.00031
  79       14D+1        0.00000   0.00000   0.00000   0.00000   0.00000
  80       14D-1       -0.00079   0.00000   0.00000   0.00021   0.00000
  81       14D+2        0.00000   0.00049  -0.00036   0.00000  -0.00031
  82       14D-2        0.00000   0.00000   0.00000   0.00000   0.00000
  83       15F 0        0.00000  -0.00018   0.00010   0.00000   0.00015
  84       15F+1        0.00000   0.00000   0.00000   0.00000   0.00000
  85       15F-1       -0.00015   0.00000   0.00000  -0.00011   0.00000
  86       15F+2        0.00000   0.00013   0.00002   0.00000  -0.00015
  87       15F-2        0.00000   0.00000   0.00000   0.00000   0.00000
  88       15F+3        0.00000   0.00000   0.00000   0.00000   0.00000
  89       15F-3        0.00011   0.00000   0.00000   0.00000   0.00000
  90       16F 0        0.00000  -0.00042  -0.00005   0.00000   0.00025
  91       16F+1        0.00000   0.00000   0.00000   0.00000   0.00000
  92       16F-1       -0.00084   0.00000   0.00000  -0.00009   0.00000
  93       16F+2        0.00000  -0.00013   0.00012   0.00000   0.00001
  94       16F-2        0.00000   0.00000   0.00000   0.00000   0.00000
  95       16F+3        0.00000   0.00000   0.00000   0.00000   0.00000
  96       16F-3       -0.00019   0.00000   0.00000   0.00001   0.00000
  97 3   Br 1S          0.00044   0.00074  -0.03962   0.03682   0.06044
  98        2S         -0.00173  -0.00273   0.14656  -0.13619  -0.22495
  99        3S          0.00393   0.00598  -0.30743   0.28436   0.48408
 100        4S         -0.00096  -0.00020  -0.00082   0.00067   0.00244
 101        5S         -0.00013   0.00017  -0.01671   0.01534   0.02342
 102        6S          0.01029  -0.00197   0.00559  -0.00316   0.00718
 103        7S          0.00681   0.00105   0.00243   0.00052  -0.00037
 104        8PX         0.00000   0.00000   0.00000   0.00000   0.00000
 105        8PY         0.02286   0.00491   0.20419  -0.22361   0.03787
 106        8PZ         0.01978   0.00614   0.12999  -0.13377   0.01209
 107        9PX         0.00000   0.00000   0.00000   0.00000   0.00000
 108        9PY        -0.06055  -0.01266  -0.53063   0.58309  -0.11323
 109        9PZ        -0.05335  -0.01674  -0.33847   0.34719  -0.03807
 110       10PX         0.00000   0.00000   0.00000   0.00000   0.00000
 111       10PY         0.00067  -0.00050   0.00264  -0.00088   0.00093
 112       10PZ        -0.00051  -0.00039   0.00138  -0.00134   0.00085
 113       11PX         0.00000   0.00000   0.00000   0.00000   0.00000
 114       11PY        -0.00336  -0.00063  -0.02520   0.02756  -0.00517
 115       11PZ        -0.00310  -0.00099  -0.01618   0.01640  -0.00164
 116       12PX         0.00000   0.00000   0.00000   0.00000   0.00000
 117       12PY         0.00471   0.00017   0.00158   0.00105  -0.00044
 118       12PZ         0.00200  -0.00165   0.00127   0.00025   0.00178
 119       13PX         0.00000   0.00000   0.00000   0.00000   0.00000
 120       13PY         0.00068   0.00024   0.00044   0.00001  -0.00006
 121       13PZ         0.00056   0.00012   0.00017   0.00001  -0.00022
 122       14D 0        0.00004   0.00000   0.00202  -0.00198  -0.00047
 123       14D+1        0.00000   0.00000   0.00000   0.00000   0.00000
 124       14D-1       -0.00308  -0.00090  -0.02860   0.03081  -0.00023
 125       14D+2        0.00195   0.00067   0.01857  -0.01991  -0.00057
 126       14D-2        0.00000   0.00000   0.00000   0.00000   0.00000
 127       15D 0        0.00006   0.00000   0.00024  -0.00013  -0.00003
 128       15D+1        0.00000   0.00000   0.00000   0.00000   0.00000
 129       15D-1       -0.00023  -0.00010  -0.00281   0.00298   0.00018
 130       15D+2        0.00012   0.00011   0.00195  -0.00195  -0.00024
 131       15D-2        0.00000   0.00000   0.00000   0.00000   0.00000
 132       16D 0       -0.00002   0.00019  -0.00001  -0.00016  -0.00021
 133       16D+1        0.00000   0.00000   0.00000   0.00000   0.00000
 134       16D-1        0.00033   0.00009   0.00108  -0.00057   0.00035
 135       16D+2       -0.00041  -0.00001  -0.00085   0.00035  -0.00010
 136       16D-2        0.00000   0.00000   0.00000   0.00000   0.00000
 137       17D 0       -0.00010  -0.00025   0.00003   0.00018   0.00032
 138       17D+1        0.00000   0.00000   0.00000   0.00000   0.00000
 139       17D-1        0.00115  -0.00023   0.00063  -0.00025   0.00030
 140       17D+2       -0.00063  -0.00024  -0.00044  -0.00014   0.00025
 141       17D-2        0.00000   0.00000   0.00000   0.00000   0.00000
 142       18F 0        0.00008   0.00002   0.00026  -0.00031  -0.00002
 143       18F+1        0.00000   0.00000   0.00000   0.00000   0.00000
 144       18F-1       -0.00003   0.00000  -0.00011   0.00013   0.00002
 145       18F+2        0.00001   0.00004   0.00040  -0.00045  -0.00006
 146       18F-2        0.00000   0.00000   0.00000   0.00000   0.00000
 147       18F+3        0.00000   0.00000   0.00000   0.00000   0.00000
 148       18F-3       -0.00007   0.00003   0.00021  -0.00024  -0.00004
 149       19F 0       -0.00002   0.00006  -0.00033   0.00033  -0.00025
 150       19F+1        0.00000   0.00000   0.00000   0.00000   0.00000
 151       19F-1       -0.00005   0.00006   0.00018  -0.00026  -0.00003
 152       19F+2        0.00000  -0.00006  -0.00059   0.00046  -0.00006
 153       19F-2        0.00000   0.00000   0.00000   0.00000   0.00000
 154       19F+3        0.00000   0.00000   0.00000   0.00000   0.00000
 155       19F-3        0.00006  -0.00008  -0.00034   0.00018   0.00008
 156 4   Br 1S         -0.00044   0.00074  -0.03962  -0.03682   0.06044
 157        2S          0.00173  -0.00273   0.14656   0.13619  -0.22495
 158        3S         -0.00393   0.00598  -0.30743  -0.28436   0.48408
 159        4S          0.00096  -0.00020  -0.00082  -0.00067   0.00244
 160        5S          0.00013   0.00017  -0.01671  -0.01534   0.02342
 161        6S         -0.01029  -0.00197   0.00559   0.00316   0.00718
 162        7S         -0.00681   0.00105   0.00243  -0.00052  -0.00037
 163        8PX         0.00000   0.00000   0.00000   0.00000   0.00000
 164        8PY         0.02286  -0.00491  -0.20419  -0.22361  -0.03787
 165        8PZ        -0.01978   0.00614   0.12999   0.13377   0.01209
 166        9PX         0.00000   0.00000   0.00000   0.00000   0.00000
 167        9PY        -0.06055   0.01266   0.53063   0.58309   0.11323
 168        9PZ         0.05335  -0.01674  -0.33847  -0.34719  -0.03807
 169       10PX         0.00000   0.00000   0.00000   0.00000   0.00000
 170       10PY         0.00067   0.00050  -0.00264  -0.00088  -0.00093
 171       10PZ         0.00051  -0.00039   0.00138   0.00134   0.00085
 172       11PX         0.00000   0.00000   0.00000   0.00000   0.00000
 173       11PY        -0.00336   0.00063   0.02520   0.02756   0.00517
 174       11PZ         0.00310  -0.00099  -0.01618  -0.01640  -0.00164
 175       12PX         0.00000   0.00000   0.00000   0.00000   0.00000
 176       12PY         0.00471  -0.00017  -0.00158   0.00105   0.00044
 177       12PZ        -0.00200  -0.00165   0.00127  -0.00025   0.00178
 178       13PX         0.00000   0.00000   0.00000   0.00000   0.00000
 179       13PY         0.00068  -0.00024  -0.00044   0.00001   0.00006
 180       13PZ        -0.00056   0.00012   0.00017  -0.00001  -0.00022
 181       14D 0       -0.00004   0.00000   0.00202   0.00198  -0.00047
 182       14D+1        0.00000   0.00000   0.00000   0.00000   0.00000
 183       14D-1       -0.00308   0.00090   0.02860   0.03081   0.00023
 184       14D+2       -0.00195   0.00067   0.01857   0.01991  -0.00057
 185       14D-2        0.00000   0.00000   0.00000   0.00000   0.00000
 186       15D 0       -0.00006   0.00000   0.00024   0.00013  -0.00003
 187       15D+1        0.00000   0.00000   0.00000   0.00000   0.00000
 188       15D-1       -0.00023   0.00010   0.00281   0.00298  -0.00018
 189       15D+2       -0.00012   0.00011   0.00195   0.00195  -0.00024
 190       15D-2        0.00000   0.00000   0.00000   0.00000   0.00000
 191       16D 0        0.00002   0.00019  -0.00001   0.00016  -0.00021
 192       16D+1        0.00000   0.00000   0.00000   0.00000   0.00000
 193       16D-1        0.00033  -0.00009  -0.00108  -0.00057  -0.00035
 194       16D+2        0.00041  -0.00001  -0.00085  -0.00035  -0.00010
 195       16D-2        0.00000   0.00000   0.00000   0.00000   0.00000
 196       17D 0        0.00010  -0.00025   0.00003  -0.00018   0.00032
 197       17D+1        0.00000   0.00000   0.00000   0.00000   0.00000
 198       17D-1        0.00115   0.00023  -0.00063  -0.00025  -0.00030
 199       17D+2        0.00063  -0.00024  -0.00044   0.00014   0.00025
 200       17D-2        0.00000   0.00000   0.00000   0.00000   0.00000
 201       18F 0       -0.00008   0.00002   0.00026   0.00031  -0.00002
 202       18F+1        0.00000   0.00000   0.00000   0.00000   0.00000
 203       18F-1       -0.00003   0.00000   0.00011   0.00013  -0.00002
 204       18F+2       -0.00001   0.00004   0.00040   0.00045  -0.00006
 205       18F-2        0.00000   0.00000   0.00000   0.00000   0.00000
 206       18F+3        0.00000   0.00000   0.00000   0.00000   0.00000
 207       18F-3       -0.00007  -0.00003  -0.00021  -0.00024   0.00004
 208       19F 0        0.00002   0.00006  -0.00033  -0.00033  -0.00025
 209       19F+1        0.00000   0.00000   0.00000   0.00000   0.00000
 210       19F-1       -0.00005  -0.00006  -0.00018  -0.00026   0.00003
 211       19F+2        0.00000  -0.00006  -0.00059  -0.00046  -0.00006
 212       19F-2        0.00000   0.00000   0.00000   0.00000   0.00000
 213       19F+3        0.00000   0.00000   0.00000   0.00000   0.00000
 214       19F-3        0.00006   0.00008   0.00034   0.00018  -0.00008
                           6         7         8         9        10
     Eigenvalues --     2.00001   2.00001   2.00001   2.00001   2.00001
   1 1   C  1S          0.00000   0.22209   0.00000   0.00000  -0.09978
   2        2S          0.00000  -0.00449   0.00000   0.00000   0.00151
   3        3S          0.00000   0.00873   0.00000   0.00000  -0.00408
   4        4S          0.00000   0.01010   0.00000   0.00000   0.00105
   5        5S          0.00000   0.00240   0.00000   0.00000  -0.00077
   6        6PX         0.00000   0.00000   0.00000  -0.00067   0.00000
   7        6PY         0.00004   0.00000  -0.00031   0.00000   0.00000
   8        6PZ         0.00000  -0.00175   0.00000   0.00000   0.00058
   9        7PX         0.00000   0.00000   0.00000  -0.00001   0.00000
  10        7PY         0.00020   0.00000  -0.00043   0.00000   0.00000
  11        7PZ         0.00000  -0.00057   0.00000   0.00000   0.00015
  12        8PX         0.00000   0.00000   0.00000   0.00160   0.00000
  13        8PY         0.00058   0.00000  -0.00532   0.00000   0.00000
  14        8PZ         0.00000   0.00579   0.00000   0.00000   0.00930
  15        9PX         0.00000   0.00000   0.00000  -0.00090   0.00000
  16        9PY         0.00255   0.00000  -0.00122   0.00000   0.00000
  17        9PZ         0.00000   0.00150   0.00000   0.00000   0.00163
  18       10D 0        0.00000  -0.00006   0.00000   0.00000  -0.00015
  19       10D+1        0.00000   0.00000   0.00000  -0.00021   0.00000
  20       10D-1       -0.00014   0.00000  -0.00006   0.00000   0.00000
  21       10D+2        0.00000   0.00001   0.00000   0.00000  -0.00006
  22       10D-2        0.00000   0.00000   0.00000   0.00000   0.00000
  23       11D 0        0.00000   0.00035   0.00000   0.00000  -0.00030
  24       11D+1        0.00000   0.00000   0.00000   0.00052   0.00000
  25       11D-1       -0.00001   0.00000  -0.00039   0.00000   0.00000
  26       11D+2        0.00000  -0.00004   0.00000   0.00000  -0.00031
  27       11D-2        0.00000   0.00000   0.00000   0.00000   0.00000
  28       12D 0        0.00000   0.00318   0.00000   0.00000   0.00012
  29       12D+1        0.00000   0.00000   0.00000  -0.00135   0.00000
  30       12D-1        0.00100   0.00000   0.00063   0.00000   0.00000
  31       12D+2        0.00000   0.00081   0.00000   0.00000   0.00039
  32       12D-2        0.00000   0.00000   0.00000   0.00000   0.00000
  33       13F 0        0.00000  -0.00015   0.00000   0.00000  -0.00002
  34       13F+1        0.00000   0.00000   0.00000  -0.00013   0.00000
  35       13F-1        0.00002   0.00000   0.00003   0.00000   0.00000
  36       13F+2        0.00000   0.00002   0.00000   0.00000   0.00005
  37       13F-2        0.00000   0.00000   0.00000   0.00000   0.00000
  38       13F+3        0.00000   0.00000   0.00000   0.00005   0.00000
  39       13F-3       -0.00002   0.00000  -0.00003   0.00000   0.00000
  40       14F 0        0.00000  -0.00026   0.00000   0.00000   0.00049
  41       14F+1        0.00000   0.00000   0.00000   0.00094   0.00000
  42       14F-1        0.00000   0.00000  -0.00034   0.00000   0.00000
  43       14F+2        0.00000  -0.00033   0.00000   0.00000  -0.00031
  44       14F-2        0.00000   0.00000   0.00000   0.00000   0.00000
  45       14F+3        0.00000   0.00000   0.00000  -0.00031   0.00000
  46       14F-3        0.00002   0.00000   0.00022   0.00000   0.00000
  47 2   S  1S          0.00000  -0.12534   0.00000   0.00000   0.01757
  48        2S          0.00000   0.43224   0.00000   0.00000  -0.06143
  49        3S          0.00000  -0.00688   0.00000   0.00000   0.00102
  50        4S          0.00000   0.03102   0.00000   0.00000  -0.00443
  51        5S          0.00000  -0.01213   0.00000   0.00000  -0.00589
  52        6S          0.00000  -0.00389   0.00000   0.00000  -0.00410
  53        7PX         0.00000   0.00000   0.00000   0.71414   0.00000
  54        7PY         0.04420   0.00000   0.02261   0.00000   0.00000
  55        7PZ         0.00000  -0.42505   0.00000   0.00000   0.05681
  56        8PX         0.00000   0.00000   0.00000  -0.00903   0.00000
  57        8PY        -0.00053   0.00000   0.00040   0.00000   0.00000
  58        8PZ         0.00000   0.00747   0.00000   0.00000  -0.00015
  59        9PX         0.00000   0.00000   0.00000   0.04543   0.00000
  60        9PY         0.00272   0.00000   0.00133   0.00000   0.00000
  61        9PZ         0.00000  -0.02762   0.00000   0.00000   0.00364
  62       10PX         0.00000   0.00000   0.00000   0.00042   0.00000
  63       10PY        -0.00062   0.00000   0.00136   0.00000   0.00000
  64       10PZ         0.00000   0.00499   0.00000   0.00000   0.00385
  65       11PX         0.00000   0.00000   0.00000  -0.00015   0.00000
  66       11PY        -0.00046   0.00000   0.00012   0.00000   0.00000
  67       11PZ         0.00000   0.00028   0.00000   0.00000   0.00052
  68       12D 0        0.00000  -0.00199   0.00000   0.00000   0.00019
  69       12D+1        0.00000   0.00000   0.00000   0.00156   0.00000
  70       12D-1        0.00022   0.00000  -0.00046   0.00000   0.00000
  71       12D+2        0.00000  -0.00006   0.00000   0.00000   0.00008
  72       12D-2        0.00000   0.00000   0.00000   0.00000   0.00000
  73       13D 0        0.00000   0.00022   0.00000   0.00000  -0.00005
  74       13D+1        0.00000   0.00000   0.00000  -0.00018   0.00000
  75       13D-1       -0.00001   0.00000   0.00008   0.00000   0.00000
  76       13D+2        0.00000   0.00016   0.00000   0.00000  -0.00005
  77       13D-2        0.00000   0.00000   0.00000   0.00000   0.00000
  78       14D 0        0.00000  -0.00056   0.00000   0.00000  -0.00062
  79       14D+1        0.00000   0.00000   0.00000  -0.00044   0.00000
  80       14D-1        0.00015   0.00000  -0.00053   0.00000   0.00000
  81       14D+2        0.00000  -0.00011   0.00000   0.00000  -0.00010
  82       14D-2        0.00000   0.00000   0.00000   0.00000   0.00000
  83       15F 0        0.00000   0.00009   0.00000   0.00000  -0.00002
  84       15F+1        0.00000   0.00000   0.00000  -0.00018   0.00000
  85       15F-1       -0.00004   0.00000   0.00006   0.00000   0.00000
  86       15F+2        0.00000  -0.00012   0.00000   0.00000  -0.00005
  87       15F-2        0.00000   0.00000   0.00000   0.00000   0.00000
  88       15F+3        0.00000   0.00000   0.00000   0.00011   0.00000
  89       15F-3        0.00001   0.00000  -0.00001   0.00000   0.00000
  90       16F 0        0.00000   0.00036   0.00000   0.00000  -0.00023
  91       16F+1        0.00000   0.00000   0.00000  -0.00035   0.00000
  92       16F-1       -0.00002   0.00000   0.00018   0.00000   0.00000
  93       16F+2        0.00000   0.00011   0.00000   0.00000   0.00004
  94       16F-2        0.00000   0.00000   0.00000   0.00000   0.00000
  95       16F+3        0.00000   0.00000   0.00000  -0.00009   0.00000
  96       16F-3       -0.00004   0.00000   0.00002   0.00000   0.00000
  97 3   Br 1S         -0.08462  -0.05726  -0.00552   0.00000   0.00623
  98        2S          0.31516   0.21342   0.02068   0.00000  -0.02337
  99        3S         -0.67954  -0.46171  -0.04489   0.00000   0.05128
 100        4S         -0.00212  -0.00086  -0.00009   0.00000  -0.00008
 101        5S         -0.03294  -0.02216  -0.00214   0.00000   0.00242
 102        6S         -0.00627  -0.00375  -0.00324   0.00000   0.00343
 103        7S          0.00413   0.00078  -0.00209   0.00000   0.00204
 104        8PX         0.00000   0.00000   0.00000  -0.17804   0.00000
 105        8PY        -0.09563  -0.06884   0.12895   0.00000   0.15790
 106        8PZ        -0.03672  -0.09027  -0.23025   0.00000  -0.20897
 107        9PX         0.00000   0.00000   0.00000   0.50340   0.00000
 108        9PY         0.26932   0.18609  -0.36382   0.00000  -0.43882
 109        9PZ         0.10340   0.25001   0.64482   0.00000   0.58799
 110       10PX         0.00000   0.00000   0.00000   0.00119   0.00000
 111       10PY         0.00005  -0.00030  -0.00134   0.00000   0.00015
 112       10PZ        -0.00022   0.00038   0.00090   0.00000   0.00112
 113       11PX         0.00000   0.00000   0.00000   0.02263   0.00000
 114       11PY         0.01220   0.00837  -0.01618   0.00000  -0.01943
 115       11PZ         0.00463   0.01147   0.02868   0.00000   0.02610
 116       12PX         0.00000   0.00000   0.00000   0.00157   0.00000
 117       12PY         0.00205  -0.00009  -0.00358   0.00000   0.00028
 118       12PZ         0.00101   0.00198   0.00211   0.00000   0.00321
 119       13PX         0.00000   0.00000   0.00000   0.00022   0.00000
 120       13PY         0.00041   0.00010  -0.00012   0.00000   0.00048
 121       13PZ         0.00047  -0.00014  -0.00047   0.00000  -0.00007
 122       14D 0        0.00057  -0.00194  -0.00987   0.00000  -0.00971
 123       14D+1        0.00000   0.00000   0.00000  -0.00036   0.00000
 124       14D-1        0.00617   0.00748  -0.00412   0.00000  -0.00760
 125       14D+2       -0.00286  -0.00616  -0.00684   0.00000  -0.00479
 126       14D-2        0.00000   0.00000   0.00000  -0.00001   0.00000
 127       15D 0        0.00006  -0.00013  -0.00062   0.00000  -0.00057
 128       15D+1        0.00000   0.00000   0.00000  -0.00001   0.00000
 129       15D-1        0.00032   0.00060  -0.00026   0.00000  -0.00048
 130       15D+2       -0.00012  -0.00052  -0.00045   0.00000  -0.00026
 131       15D-2        0.00000   0.00000   0.00000   0.00011   0.00000
 132       16D 0        0.00004  -0.00025  -0.00025   0.00000  -0.00042
 133       16D+1        0.00000   0.00000   0.00000  -0.00015   0.00000
 134       16D-1        0.00027  -0.00001  -0.00019   0.00000  -0.00019
 135       16D+2       -0.00011  -0.00002  -0.00011   0.00000  -0.00032
 136       16D-2        0.00000   0.00000   0.00000  -0.00035   0.00000
 137       17D 0        0.00010   0.00016   0.00007   0.00000  -0.00034
 138       17D+1        0.00000   0.00000   0.00000  -0.00027   0.00000
 139       17D-1        0.00023   0.00011  -0.00032   0.00000   0.00023
 140       17D+2       -0.00030   0.00028   0.00023   0.00000  -0.00041
 141       17D-2        0.00000   0.00000   0.00000  -0.00054   0.00000
 142       18F 0       -0.00008  -0.00010   0.00005   0.00000   0.00009
 143       18F+1        0.00000   0.00000   0.00000   0.00000   0.00000
 144       18F-1        0.00001   0.00007   0.00035   0.00000   0.00033
 145       18F+2       -0.00009  -0.00016  -0.00002   0.00000   0.00002
 146       18F-2        0.00000   0.00000   0.00000   0.00018   0.00000
 147       18F+3        0.00000   0.00000   0.00000  -0.00019   0.00000
 148       18F-3       -0.00003  -0.00009   0.00013   0.00000   0.00009
 149       19F 0        0.00006  -0.00005  -0.00005   0.00000  -0.00008
 150       19F+1        0.00000   0.00000   0.00000  -0.00001   0.00000
 151       19F-1        0.00004  -0.00015  -0.00029   0.00000  -0.00042
 152       19F+2        0.00002   0.00013   0.00000   0.00000   0.00002
 153       19F-2        0.00000   0.00000   0.00000  -0.00021   0.00000
 154       19F+3        0.00000   0.00000   0.00000   0.00035   0.00000
 155       19F-3       -0.00004   0.00012  -0.00016   0.00000  -0.00010
 156 4   Br 1S          0.08462  -0.05726   0.00552   0.00000   0.00623
 157        2S         -0.31516   0.21342  -0.02068   0.00000  -0.02337
 158        3S          0.67954  -0.46171   0.04489   0.00000   0.05128
 159        4S          0.00212  -0.00086   0.00009   0.00000  -0.00008
 160        5S          0.03294  -0.02216   0.00214   0.00000   0.00242
 161        6S          0.00627  -0.00375   0.00324   0.00000   0.00343
 162        7S         -0.00413   0.00078   0.00209   0.00000   0.00204
 163        8PX         0.00000   0.00000   0.00000  -0.17804   0.00000
 164        8PY        -0.09563   0.06884   0.12895   0.00000  -0.15790
 165        8PZ         0.03672  -0.09027   0.23025   0.00000  -0.20897
 166        9PX         0.00000   0.00000   0.00000   0.50340   0.00000
 167        9PY         0.26932  -0.18609  -0.36382   0.00000   0.43882
 168        9PZ        -0.10340   0.25001  -0.64482   0.00000   0.58799
 169       10PX         0.00000   0.00000   0.00000   0.00119   0.00000
 170       10PY         0.00005   0.00030  -0.00134   0.00000  -0.00015
 171       10PZ         0.00022   0.00038  -0.00090   0.00000   0.00112
 172       11PX         0.00000   0.00000   0.00000   0.02263   0.00000
 173       11PY         0.01220  -0.00837  -0.01618   0.00000   0.01943
 174       11PZ        -0.00463   0.01147  -0.02868   0.00000   0.02610
 175       12PX         0.00000   0.00000   0.00000   0.00157   0.00000
 176       12PY         0.00205   0.00009  -0.00358   0.00000  -0.00028
 177       12PZ        -0.00101   0.00198  -0.00211   0.00000   0.00321
 178       13PX         0.00000   0.00000   0.00000   0.00022   0.00000
 179       13PY         0.00041  -0.00010  -0.00012   0.00000  -0.00048
 180       13PZ        -0.00047  -0.00014   0.00047   0.00000  -0.00007
 181       14D 0       -0.00057  -0.00194   0.00987   0.00000  -0.00971
 182       14D+1        0.00000   0.00000   0.00000  -0.00036   0.00000
 183       14D-1        0.00617  -0.00748  -0.00412   0.00000   0.00760
 184       14D+2        0.00286  -0.00616   0.00684   0.00000  -0.00479
 185       14D-2        0.00000   0.00000   0.00000   0.00001   0.00000
 186       15D 0       -0.00006  -0.00013   0.00062   0.00000  -0.00057
 187       15D+1        0.00000   0.00000   0.00000  -0.00001   0.00000
 188       15D-1        0.00032  -0.00060  -0.00026   0.00000   0.00048
 189       15D+2        0.00012  -0.00052   0.00045   0.00000  -0.00026
 190       15D-2        0.00000   0.00000   0.00000  -0.00011   0.00000
 191       16D 0       -0.00004  -0.00025   0.00025   0.00000  -0.00042
 192       16D+1        0.00000   0.00000   0.00000  -0.00015   0.00000
 193       16D-1        0.00027   0.00001  -0.00019   0.00000   0.00019
 194       16D+2        0.00011  -0.00002   0.00011   0.00000  -0.00032
 195       16D-2        0.00000   0.00000   0.00000   0.00035   0.00000
 196       17D 0       -0.00010   0.00016  -0.00007   0.00000  -0.00034
 197       17D+1        0.00000   0.00000   0.00000  -0.00027   0.00000
 198       17D-1        0.00023  -0.00011  -0.00032   0.00000  -0.00023
 199       17D+2        0.00030   0.00028  -0.00023   0.00000  -0.00041
 200       17D-2        0.00000   0.00000   0.00000   0.00054   0.00000
 201       18F 0        0.00008  -0.00010  -0.00005   0.00000   0.00009
 202       18F+1        0.00000   0.00000   0.00000   0.00000   0.00000
 203       18F-1        0.00001  -0.00007   0.00035   0.00000  -0.00033
 204       18F+2        0.00009  -0.00016   0.00002   0.00000   0.00002
 205       18F-2        0.00000   0.00000   0.00000  -0.00018   0.00000
 206       18F+3        0.00000   0.00000   0.00000  -0.00019   0.00000
 207       18F-3       -0.00003   0.00009   0.00013   0.00000  -0.00009
 208       19F 0       -0.00006  -0.00005   0.00005   0.00000  -0.00008
 209       19F+1        0.00000   0.00000   0.00000  -0.00001   0.00000
 210       19F-1        0.00004   0.00015  -0.00029   0.00000   0.00042
 211       19F+2       -0.00002   0.00013   0.00000   0.00000   0.00002
 212       19F-2        0.00000   0.00000   0.00000   0.00021   0.00000
 213       19F+3        0.00000   0.00000   0.00000   0.00035   0.00000
 214       19F-3       -0.00004  -0.00012  -0.00016   0.00000   0.00010
                          11        12        13        14        15
     Eigenvalues --     2.00001   2.00000   2.00000   2.00000   2.00000
   1 1   C  1S          0.00000   0.00000   0.76734  -0.00091   0.00000
   2        2S          0.00000   0.00000  -0.00782   0.00001   0.00000
   3        3S          0.00000   0.00000   0.03219  -0.00004   0.00000
   4        4S          0.00000   0.00000  -0.01070  -0.00016   0.00000
   5        5S          0.00000   0.00000  -0.00577   0.00007   0.00000
   6        6PX         0.00000  -0.00154   0.00000   0.00000   0.00000
   7        6PY         0.00000   0.00000   0.00000   0.00000   0.00000
   8        6PZ         0.00000   0.00000  -0.00056   0.00001   0.00000
   9        7PX         0.00000  -0.00174   0.00000   0.00000   0.00000
  10        7PY         0.00000   0.00000   0.00000   0.00000  -0.00001
  11        7PZ         0.00000   0.00000   0.00158   0.00002   0.00000
  12        8PX         0.00000  -0.00151   0.00000   0.00000   0.00000
  13        8PY         0.00000   0.00000   0.00000   0.00000   0.00035
  14        8PZ         0.00000   0.00000  -0.00422  -0.00102   0.00000
  15        9PX         0.00000  -0.00048   0.00000   0.00000   0.00000
  16        9PY         0.00000   0.00000   0.00000   0.00000   0.00012
  17        9PZ         0.00000   0.00000   0.00062  -0.00018   0.00000
  18       10D 0        0.00000   0.00000   0.00028   0.00000   0.00000
  19       10D+1        0.00000  -0.00008   0.00000   0.00000   0.00000
  20       10D-1        0.00000   0.00000   0.00000   0.00000   0.00000
  21       10D+2        0.00000   0.00000  -0.00027   0.00000   0.00000
  22       10D-2       -0.00009   0.00000   0.00000   0.00000   0.00000
  23       11D 0        0.00000   0.00000  -0.00037   0.00001   0.00000
  24       11D+1        0.00000   0.00107   0.00000   0.00000   0.00000
  25       11D-1        0.00000   0.00000   0.00000   0.00000   0.00002
  26       11D+2        0.00000   0.00000   0.00155   0.00001   0.00000
  27       11D-2       -0.00067   0.00000   0.00000   0.00000   0.00000
  28       12D 0        0.00000   0.00000  -0.00420  -0.00010   0.00000
  29       12D+1        0.00000  -0.00150   0.00000   0.00000   0.00000
  30       12D-1        0.00000   0.00000   0.00000   0.00000  -0.00002
  31       12D+2        0.00000   0.00000  -0.00153  -0.00008   0.00000
  32       12D-2        0.00005   0.00000   0.00000   0.00000   0.00000
  33       13F 0        0.00000   0.00000   0.00033   0.00001   0.00000
  34       13F+1        0.00000  -0.00008   0.00000   0.00000   0.00000
  35       13F-1        0.00000   0.00000   0.00000   0.00000   0.00001
  36       13F+2        0.00000   0.00000  -0.00007  -0.00001   0.00000
  37       13F-2        0.00000   0.00000   0.00000   0.00000   0.00000
  38       13F+3        0.00000   0.00001   0.00000   0.00000   0.00000
  39       13F-3        0.00000   0.00000   0.00000   0.00000   0.00000
  40       14F 0        0.00000   0.00000  -0.00111  -0.00004   0.00000
  41       14F+1        0.00000   0.00053   0.00000   0.00000   0.00000
  42       14F-1        0.00000   0.00000   0.00000   0.00000  -0.00006
  43       14F+2        0.00000   0.00000  -0.00087   0.00005   0.00000
  44       14F-2        0.00019   0.00000   0.00000   0.00000   0.00000
  45       14F+3        0.00000   0.00019   0.00000   0.00000   0.00000
  46       14F-3        0.00000   0.00000   0.00000   0.00000  -0.00004
  47 2   S  1S          0.00000   0.00000   0.06119  -0.00226   0.00000
  48        2S          0.00000   0.00000  -0.21287  -0.00009   0.00000
  49        3S          0.00000   0.00000   0.00236  -0.00003   0.00000
  50        4S          0.00000   0.00000  -0.01572   0.00000   0.00000
  51        5S          0.00000   0.00000   0.01006   0.00079   0.00000
  52        6S          0.00000   0.00000   0.00040   0.00047   0.00000
  53        7PX         0.00000   0.65942   0.00000   0.00000   0.00000
  54        7PY         0.00000   0.00000   0.00000   0.00000  -0.00005
  55        7PZ         0.00000   0.00000   0.47852  -0.00007   0.00000
  56        8PX         0.00000  -0.00714   0.00000   0.00000   0.00000
  57        8PY         0.00000   0.00000   0.00000   0.00000   0.00002
  58        8PZ         0.00000   0.00000  -0.00568  -0.00007   0.00000
  59        9PX         0.00000   0.04244   0.00000   0.00000   0.00000
  60        9PY         0.00000   0.00000   0.00000   0.00000   0.00000
  61        9PZ         0.00000   0.00000   0.03153   0.00001   0.00000
  62       10PX         0.00000   0.00271   0.00000   0.00000   0.00000
  63       10PY         0.00000   0.00000   0.00000   0.00000  -0.00008
  64       10PZ         0.00000   0.00000  -0.00164  -0.00045   0.00000
  65       11PX         0.00000  -0.00025   0.00000   0.00000   0.00000
  66       11PY         0.00000   0.00000   0.00000   0.00000  -0.00001
  67       11PZ         0.00000   0.00000  -0.00005  -0.00005   0.00000
  68       12D 0        0.00000   0.00000   0.00104   0.00001   0.00000
  69       12D+1        0.00000   0.00124   0.00000   0.00000   0.00000
  70       12D-1        0.00000   0.00000   0.00000   0.00000   0.00001
  71       12D+2        0.00000   0.00000   0.00028  -0.00002   0.00000
  72       12D-2       -0.00004   0.00000   0.00000   0.00000   0.00000
  73       13D 0        0.00000   0.00000  -0.00054   0.00000   0.00000
  74       13D+1        0.00000  -0.00007   0.00000   0.00000   0.00000
  75       13D-1        0.00000   0.00000   0.00000   0.00000  -0.00001
  76       13D+2        0.00000   0.00000  -0.00010   0.00000   0.00000
  77       13D-2       -0.00003   0.00000   0.00000   0.00000   0.00000
  78       14D 0        0.00000   0.00000   0.00001   0.00007   0.00000
  79       14D+1        0.00000  -0.00110   0.00000   0.00000   0.00000
  80       14D-1        0.00000   0.00000   0.00000   0.00000   0.00004
  81       14D+2        0.00000   0.00000   0.00055   0.00001   0.00000
  82       14D-2        0.00000   0.00000   0.00000   0.00000   0.00000
  83       15F 0        0.00000   0.00000   0.00038   0.00000   0.00000
  84       15F+1        0.00000  -0.00021   0.00000   0.00000   0.00000
  85       15F-1        0.00000   0.00000   0.00000   0.00000   0.00000
  86       15F+2        0.00000   0.00000   0.00011   0.00001   0.00000
  87       15F-2        0.00000   0.00000   0.00000   0.00000   0.00000
  88       15F+3        0.00000   0.00009   0.00000   0.00000   0.00000
  89       15F-3        0.00000   0.00000   0.00000   0.00000   0.00000
  90       16F 0        0.00000   0.00000  -0.00038   0.00002   0.00000
  91       16F+1        0.00000  -0.00012   0.00000   0.00000   0.00000
  92       16F-1        0.00000   0.00000   0.00000   0.00000  -0.00001
  93       16F+2        0.00000   0.00000  -0.00045   0.00000   0.00000
  94       16F-2        0.00001   0.00000   0.00000   0.00000   0.00000
  95       16F+3        0.00000  -0.00012   0.00000   0.00000   0.00000
  96       16F-3        0.00000   0.00000   0.00000   0.00000   0.00000
  97 3   Br 1S          0.00000   0.00000   0.00145  -0.00099   0.01129
  98        2S          0.00000   0.00000  -0.00414   0.00107  -0.03474
  99        3S          0.00000   0.00000  -0.00635  -0.00014  -0.00327
 100        4S          0.00000   0.00000   0.00066   0.00003   0.00000
 101        5S          0.00000   0.00000  -0.00049   0.00000  -0.00010
 102        6S          0.00000   0.00000   0.00090  -0.00036   0.00015
 103        7S          0.00000   0.00000   0.00252  -0.00023   0.00024
 104        8PX        -0.26237   0.19386   0.00000   0.00000   0.00000
 105        8PY         0.00000   0.00000  -0.08122  -0.40592  -0.49176
 106        8PZ         0.00000   0.00000  -0.07112   0.58505   0.51424
 107        9PX         0.74196  -0.54557   0.00000   0.00000   0.00000
 108        9PY         0.00000   0.00000   0.16551   0.00698   0.00686
 109        9PZ         0.00000   0.00000   0.15927  -0.01230  -0.01245
 110       10PX         0.00125   0.00033   0.00000   0.00000   0.00000
 111       10PY         0.00000   0.00000  -0.00021  -0.00024  -0.00021
 112       10PZ         0.00000   0.00000   0.00001   0.00024   0.00025
 113       11PX         0.03313  -0.02375   0.00000   0.00000   0.00000
 114       11PY         0.00000   0.00000   0.00681   0.00061   0.00066
 115       11PZ         0.00000   0.00000   0.00649  -0.00095  -0.00090
 116       12PX         0.00381  -0.00244   0.00000   0.00000   0.00000
 117       12PY         0.00000   0.00000   0.00198  -0.00017   0.00019
 118       12PZ         0.00000   0.00000  -0.00018  -0.00017   0.00002
 119       13PX        -0.00031   0.00038   0.00000   0.00000   0.00000
 120       13PY         0.00000   0.00000   0.00038  -0.00005   0.00002
 121       13PZ         0.00000   0.00000   0.00019   0.00001   0.00005
 122       14D 0        0.00000   0.00000  -0.00146   0.00040   0.00039
 123       14D+1       -0.00057   0.00022   0.00000   0.00000   0.00000
 124       14D-1        0.00000   0.00000   0.01052   0.00020   0.00027
 125       14D+2        0.00000   0.00000  -0.00746   0.00024   0.00019
 126       14D-2        0.00031  -0.00041   0.00000   0.00000   0.00000
 127       15D 0        0.00000   0.00000  -0.00011   0.00001   0.00001
 128       15D+1        0.00004  -0.00010   0.00000   0.00000   0.00000
 129       15D-1        0.00000   0.00000   0.00092   0.00000   0.00001
 130       15D+2        0.00000   0.00000  -0.00066   0.00001   0.00000
 131       15D-2        0.00013  -0.00017   0.00000   0.00000   0.00000
 132       16D 0        0.00000   0.00000   0.00013   0.00006   0.00006
 133       16D+1       -0.00011   0.00012   0.00000   0.00000   0.00000
 134       16D-1        0.00000   0.00000   0.00100   0.00002   0.00002
 135       16D+2        0.00000   0.00000  -0.00044   0.00006   0.00003
 136       16D-2       -0.00019  -0.00001   0.00000   0.00000   0.00000
 137       17D 0        0.00000   0.00000  -0.00025   0.00001  -0.00002
 138       17D+1        0.00007  -0.00011   0.00000   0.00000   0.00000
 139       17D-1        0.00000   0.00000   0.00011  -0.00004   0.00002
 140       17D+2        0.00000   0.00000  -0.00054   0.00003  -0.00004
 141       17D-2        0.00013  -0.00037   0.00000   0.00000   0.00000
 142       18F 0        0.00000   0.00000  -0.00012   0.00000   0.00000
 143       18F+1        0.00001  -0.00002   0.00000   0.00000   0.00000
 144       18F-1        0.00000   0.00000   0.00011  -0.00001   0.00000
 145       18F+2        0.00000   0.00000  -0.00019   0.00000   0.00000
 146       18F-2        0.00023  -0.00018   0.00000   0.00000   0.00000
 147       18F+3       -0.00018   0.00011   0.00000   0.00000   0.00000
 148       18F-3        0.00000   0.00000  -0.00007   0.00000   0.00000
 149       19F 0        0.00000   0.00000  -0.00007   0.00001   0.00001
 150       19F+1       -0.00002   0.00005   0.00000   0.00000   0.00000
 151       19F-1        0.00000   0.00000   0.00021   0.00003   0.00003
 152       19F+2        0.00000   0.00000  -0.00022   0.00000   0.00000
 153       19F-2       -0.00018   0.00016   0.00000   0.00000   0.00000
 154       19F+3        0.00014   0.00002   0.00000   0.00000   0.00000
 155       19F-3        0.00000   0.00000  -0.00006   0.00001   0.00001
 156 4   Br 1S          0.00000   0.00000   0.00145  -0.00098  -0.01129
 157        2S          0.00000   0.00000  -0.00414   0.00105   0.03474
 158        3S          0.00000   0.00000  -0.00635  -0.00014   0.00327
 159        4S          0.00000   0.00000   0.00066   0.00003   0.00000
 160        5S          0.00000   0.00000  -0.00049   0.00000   0.00010
 161        6S          0.00000   0.00000   0.00090  -0.00036  -0.00015
 162        7S          0.00000   0.00000   0.00252  -0.00023  -0.00024
 163        8PX         0.26237   0.19386   0.00000   0.00000   0.00000
 164        8PY         0.00000   0.00000   0.08122   0.40622  -0.49150
 165        8PZ         0.00000   0.00000  -0.07112   0.58536  -0.51389
 166        9PX        -0.74196  -0.54557   0.00000   0.00000   0.00000
 167        9PY         0.00000   0.00000  -0.16551  -0.00698   0.00686
 168        9PZ         0.00000   0.00000   0.15927  -0.01231   0.01244
 169       10PX        -0.00125   0.00033   0.00000   0.00000   0.00000
 170       10PY         0.00000   0.00000   0.00021   0.00024  -0.00021
 171       10PZ         0.00000   0.00000   0.00001   0.00024  -0.00025
 172       11PX        -0.03313  -0.02375   0.00000   0.00000   0.00000
 173       11PY         0.00000   0.00000  -0.00681  -0.00061   0.00066
 174       11PZ         0.00000   0.00000   0.00649  -0.00095   0.00090
 175       12PX        -0.00381  -0.00244   0.00000   0.00000   0.00000
 176       12PY         0.00000   0.00000  -0.00198   0.00017   0.00019
 177       12PZ         0.00000   0.00000  -0.00018  -0.00017  -0.00002
 178       13PX         0.00031   0.00038   0.00000   0.00000   0.00000
 179       13PY         0.00000   0.00000  -0.00038   0.00005   0.00002
 180       13PZ         0.00000   0.00000   0.00019   0.00001  -0.00005
 181       14D 0        0.00000   0.00000  -0.00146   0.00040  -0.00039
 182       14D+1        0.00057   0.00022   0.00000   0.00000   0.00000
 183       14D-1        0.00000   0.00000  -0.01052  -0.00020   0.00027
 184       14D+2        0.00000   0.00000  -0.00746   0.00024  -0.00019
 185       14D-2        0.00031   0.00041   0.00000   0.00000   0.00000
 186       15D 0        0.00000   0.00000  -0.00011   0.00001  -0.00001
 187       15D+1       -0.00004  -0.00010   0.00000   0.00000   0.00000
 188       15D-1        0.00000   0.00000  -0.00092   0.00000   0.00001
 189       15D+2        0.00000   0.00000  -0.00066   0.00001   0.00000
 190       15D-2        0.00013   0.00017   0.00000   0.00000   0.00000
 191       16D 0        0.00000   0.00000   0.00013   0.00006  -0.00006
 192       16D+1        0.00011   0.00012   0.00000   0.00000   0.00000
 193       16D-1        0.00000   0.00000  -0.00100  -0.00002   0.00002
 194       16D+2        0.00000   0.00000  -0.00044   0.00006  -0.00003
 195       16D-2       -0.00019   0.00001   0.00000   0.00000   0.00000
 196       17D 0        0.00000   0.00000  -0.00025   0.00001   0.00002
 197       17D+1       -0.00007  -0.00011   0.00000   0.00000   0.00000
 198       17D-1        0.00000   0.00000  -0.00011   0.00004   0.00002
 199       17D+2        0.00000   0.00000  -0.00054   0.00003   0.00004
 200       17D-2        0.00013   0.00037   0.00000   0.00000   0.00000
 201       18F 0        0.00000   0.00000  -0.00012   0.00000   0.00000
 202       18F+1       -0.00001  -0.00002   0.00000   0.00000   0.00000
 203       18F-1        0.00000   0.00000  -0.00011   0.00001   0.00000
 204       18F+2        0.00000   0.00000  -0.00019   0.00000   0.00000
 205       18F-2        0.00023   0.00018   0.00000   0.00000   0.00000
 206       18F+3        0.00018   0.00011   0.00000   0.00000   0.00000
 207       18F-3        0.00000   0.00000   0.00007   0.00000   0.00000
 208       19F 0        0.00000   0.00000  -0.00007   0.00001  -0.00001
 209       19F+1        0.00002   0.00005   0.00000   0.00000   0.00000
 210       19F-1        0.00000   0.00000  -0.00021  -0.00003   0.00003
 211       19F+2        0.00000   0.00000  -0.00022   0.00000   0.00000
 212       19F-2       -0.00018  -0.00016   0.00000   0.00000   0.00000
 213       19F+3       -0.00014   0.00002   0.00000   0.00000   0.00000
 214       19F-3        0.00000   0.00000   0.00006  -0.00001   0.00001
                          16        17        18        19        20
     Eigenvalues --     2.00000   2.00000   2.00000   2.00000   2.00000
   1 1   C  1S          0.00000   0.00000   0.00000   0.02385   0.00000
   2        2S          0.00000   0.00000   0.00000  -0.00022   0.00000
   3        3S          0.00000   0.00000   0.00000   0.00105   0.00000
   4        4S          0.00000   0.00000   0.00000  -0.00139   0.00000
   5        5S          0.00000   0.00000   0.00000  -0.00064   0.00000
   6        6PX         0.00000   0.00001   0.00000   0.00000   0.00000
   7        6PY        -0.00003   0.00000   0.00000   0.00000   0.00000
   8        6PZ         0.00000   0.00000   0.00000  -0.00004   0.00000
   9        7PX         0.00000  -0.00002   0.00000   0.00000   0.00000
  10        7PY         0.00006   0.00000   0.00000   0.00000  -0.00002
  11        7PZ         0.00000   0.00000   0.00000   0.00007   0.00000
  12        8PX         0.00000  -0.00015   0.00000   0.00000   0.00000
  13        8PY         0.00062   0.00000   0.00000   0.00000  -0.00002
  14        8PZ         0.00000   0.00000   0.00000   0.00052   0.00000
  15        9PX         0.00000   0.00003   0.00000   0.00000   0.00000
  16        9PY         0.00007   0.00000   0.00000   0.00000   0.00001
  17        9PZ         0.00000   0.00000   0.00000   0.00013   0.00000
  18       10D 0        0.00000   0.00000   0.00000   0.00001   0.00000
  19       10D+1        0.00000   0.00000   0.00000   0.00000   0.00000
  20       10D-1        0.00000   0.00000   0.00000   0.00000   0.00000
  21       10D+2        0.00000   0.00000   0.00000  -0.00001   0.00000
  22       10D-2        0.00000   0.00000  -0.00001   0.00000   0.00000
  23       11D 0        0.00000   0.00000   0.00000  -0.00003   0.00000
  24       11D+1        0.00000   0.00002   0.00000   0.00000   0.00000
  25       11D-1       -0.00008   0.00000   0.00000   0.00000   0.00001
  26       11D+2        0.00000   0.00000   0.00000   0.00014   0.00000
  27       11D-2        0.00000   0.00000   0.00004   0.00000   0.00000
  28       12D 0        0.00000   0.00000   0.00000   0.00011   0.00000
  29       12D+1        0.00000  -0.00004   0.00000   0.00000   0.00000
  30       12D-1       -0.00042   0.00000   0.00000   0.00000   0.00005
  31       12D+2        0.00000   0.00000   0.00000   0.00021   0.00000
  32       12D-2        0.00000   0.00000  -0.00004   0.00000   0.00000
  33       13F 0        0.00000   0.00000   0.00000   0.00000   0.00000
  34       13F+1        0.00000   0.00000   0.00000   0.00000   0.00000
  35       13F-1        0.00000   0.00000   0.00000   0.00000   0.00000
  36       13F+2        0.00000   0.00000   0.00000   0.00000   0.00000
  37       13F-2        0.00000   0.00000   0.00000   0.00000   0.00000
  38       13F+3        0.00000  -0.00001   0.00000   0.00000   0.00000
  39       13F-3        0.00001   0.00000   0.00000   0.00000   0.00000
  40       14F 0        0.00000   0.00000   0.00000  -0.00001   0.00000
  41       14F+1        0.00000  -0.00002   0.00000   0.00000   0.00000
  42       14F-1       -0.00005   0.00000   0.00000   0.00000   0.00001
  43       14F+2        0.00000   0.00000   0.00000  -0.00004   0.00000
  44       14F-2        0.00000   0.00000  -0.00003   0.00000   0.00000
  45       14F+3        0.00000   0.00004   0.00000   0.00000   0.00000
  46       14F-3       -0.00004   0.00000   0.00000   0.00000   0.00001
  47 2   S  1S          0.00000   0.00000   0.00000  -0.03387  -0.00001
  48        2S          0.00000   0.00000   0.00000  -0.00602   0.00000
  49        3S          0.00000   0.00000   0.00000   0.00002   0.00000
  50        4S          0.00000   0.00000   0.00000  -0.00043   0.00000
  51        5S          0.00000   0.00000   0.00000   0.00004   0.00000
  52        6S          0.00000   0.00000   0.00000   0.00003   0.00000
  53        7PX         0.00000  -0.00086   0.00000   0.00000   0.00000
  54        7PY         0.00056   0.00000   0.00000   0.00000   0.00004
  55        7PZ         0.00000   0.00000   0.00000   0.01343   0.00000
  56        8PX         0.00000   0.00001   0.00000   0.00000   0.00000
  57        8PY         0.00000   0.00000   0.00000   0.00000  -0.00001
  58        8PZ         0.00000   0.00000   0.00000  -0.00016   0.00000
  59        9PX         0.00000  -0.00006   0.00000   0.00000   0.00000
  60        9PY         0.00004   0.00000   0.00000   0.00000   0.00000
  61        9PZ         0.00000   0.00000   0.00000   0.00090   0.00000
  62       10PX         0.00000   0.00010   0.00000   0.00000   0.00000
  63       10PY         0.00018   0.00000   0.00000   0.00000  -0.00001
  64       10PZ         0.00000   0.00000   0.00000  -0.00006   0.00000
  65       11PX         0.00000  -0.00001   0.00000   0.00000   0.00000
  66       11PY         0.00000   0.00000   0.00000   0.00000   0.00000
  67       11PZ         0.00000   0.00000   0.00000  -0.00003   0.00000
  68       12D 0        0.00000   0.00000   0.00000   0.00007   0.00000
  69       12D+1        0.00000  -0.00002   0.00000   0.00000   0.00000
  70       12D-1       -0.00001   0.00000   0.00000   0.00000   0.00000
  71       12D+2        0.00000   0.00000   0.00000  -0.00001   0.00000
  72       12D-2        0.00000   0.00000   0.00001   0.00000   0.00000
  73       13D 0        0.00000   0.00000   0.00000  -0.00002   0.00000
  74       13D+1        0.00000   0.00000   0.00000   0.00000   0.00000
  75       13D-1        0.00000   0.00000   0.00000   0.00000   0.00000
  76       13D+2        0.00000   0.00000   0.00000   0.00000   0.00000
  77       13D-2        0.00000   0.00000   0.00000   0.00000   0.00000
  78       14D 0        0.00000   0.00000   0.00000   0.00003   0.00000
  79       14D+1        0.00000  -0.00005   0.00000   0.00000   0.00000
  80       14D-1       -0.00004   0.00000   0.00000   0.00000   0.00000
  81       14D+2        0.00000   0.00000   0.00000  -0.00002   0.00000
  82       14D-2        0.00000   0.00000   0.00001   0.00000   0.00000
  83       15F 0        0.00000   0.00000   0.00000   0.00001   0.00000
  84       15F+1        0.00000   0.00000   0.00000   0.00000   0.00000
  85       15F-1        0.00000   0.00000   0.00000   0.00000   0.00000
  86       15F+2        0.00000   0.00000   0.00000   0.00001   0.00000
  87       15F-2        0.00000   0.00000   0.00000   0.00000   0.00000
  88       15F+3        0.00000   0.00000   0.00000   0.00000   0.00000
  89       15F-3        0.00000   0.00000   0.00000   0.00000   0.00000
  90       16F 0        0.00000   0.00000   0.00000  -0.00002   0.00000
  91       16F+1        0.00000   0.00002   0.00000   0.00000   0.00000
  92       16F-1        0.00000   0.00000   0.00000   0.00000   0.00000
  93       16F+2        0.00000   0.00000   0.00000   0.00000   0.00000
  94       16F-2        0.00000   0.00000  -0.00001   0.00000   0.00000
  95       16F+3        0.00000  -0.00001   0.00000   0.00000   0.00000
  96       16F-3        0.00000   0.00000   0.00000   0.00000   0.00000
  97 3   Br 1S         -0.04996   0.00000   0.00000   0.00623  -0.21888
  98        2S          0.15617   0.00000   0.00000  -0.02071   0.70975
  99        3S          0.01475   0.00000   0.00000   0.00684   0.03034
 100        4S         -0.00014   0.00000   0.00000  -0.00008  -0.00020
 101        5S          0.00044   0.00000   0.00000   0.00023   0.00072
 102        6S          0.00077   0.00000   0.00000   0.00078   0.00003
 103        7S          0.00008   0.00000   0.00000   0.00029   0.00003
 104        8PX         0.00000   0.71292   0.71316   0.00000   0.00000
 105        8PY         0.49050   0.00000   0.00000   0.57655  -0.13630
 106        8PZ         0.48312   0.00000   0.00000   0.40080  -0.08385
 107        9PX         0.00000  -0.01581  -0.01656   0.00000   0.00000
 108        9PY         0.00500   0.00000   0.00000   0.00883   0.00238
 109        9PZ         0.00018   0.00000   0.00000   0.00569   0.00143
 110       10PX         0.00000   0.00029   0.00029   0.00000   0.00000
 111       10PY         0.00027   0.00000   0.00000   0.00036  -0.00007
 112       10PZ         0.00029   0.00000   0.00000   0.00023  -0.00005
 113       11PX         0.00000  -0.00121  -0.00124   0.00000   0.00000
 114       11PY        -0.00023   0.00000   0.00000  -0.00017   0.00022
 115       11PZ        -0.00041   0.00000   0.00000  -0.00013   0.00014
 116       12PX         0.00000  -0.00008  -0.00013   0.00000   0.00000
 117       12PY         0.00024   0.00000   0.00000   0.00025   0.00005
 118       12PZ         0.00008   0.00000   0.00000   0.00024   0.00003
 119       13PX         0.00000   0.00001   0.00003   0.00000   0.00000
 120       13PY         0.00000   0.00000   0.00000   0.00004   0.00000
 121       13PZ         0.00001   0.00000   0.00000   0.00001   0.00000
 122       14D 0        0.00007   0.00000   0.00000  -0.00001  -0.00003
 123       14D+1        0.00000   0.00003   0.00003   0.00000   0.00000
 124       14D-1       -0.00022   0.00000   0.00000   0.00008   0.00002
 125       14D+2        0.00024   0.00000   0.00000  -0.00003   0.00005
 126       14D-2        0.00000  -0.00002  -0.00002   0.00000   0.00000
 127       15D 0        0.00000   0.00000   0.00000   0.00000   0.00000
 128       15D+1        0.00000  -0.00001  -0.00001   0.00000   0.00000
 129       15D-1       -0.00004   0.00000   0.00000  -0.00002   0.00000
 130       15D+2        0.00004   0.00000   0.00000   0.00002   0.00000
 131       15D-2        0.00000  -0.00002  -0.00002   0.00000   0.00000
 132       16D 0        0.00003   0.00000   0.00000  -0.00001  -0.00001
 133       16D+1        0.00000   0.00003   0.00002   0.00000   0.00000
 134       16D-1        0.00010   0.00000   0.00000   0.00014  -0.00001
 135       16D+2       -0.00005   0.00000   0.00000  -0.00012   0.00000
 136       16D-2        0.00000   0.00004   0.00004   0.00000   0.00000
 137       17D 0       -0.00003   0.00000   0.00000   0.00001   0.00000
 138       17D+1        0.00000   0.00000  -0.00002   0.00000   0.00000
 139       17D-1        0.00003   0.00000   0.00000   0.00006   0.00001
 140       17D+2       -0.00002   0.00000   0.00000  -0.00003  -0.00002
 141       17D-2        0.00000   0.00000  -0.00002   0.00000   0.00000
 142       18F 0        0.00000   0.00000   0.00000   0.00000   0.00000
 143       18F+1        0.00000   0.00000   0.00000   0.00000   0.00000
 144       18F-1        0.00001   0.00000   0.00000   0.00000   0.00000
 145       18F+2       -0.00001   0.00000   0.00000  -0.00001   0.00000
 146       18F-2        0.00000  -0.00001   0.00000   0.00000   0.00000
 147       18F+3        0.00000   0.00000   0.00000   0.00000   0.00000
 148       18F-3       -0.00001   0.00000   0.00000  -0.00001   0.00000
 149       19F 0       -0.00001   0.00000   0.00000  -0.00002   0.00000
 150       19F+1        0.00000   0.00001   0.00000   0.00000   0.00000
 151       19F-1        0.00002   0.00000   0.00000   0.00001   0.00000
 152       19F+2       -0.00002   0.00000   0.00000  -0.00003   0.00000
 153       19F-2        0.00000   0.00002   0.00001   0.00000   0.00000
 154       19F+3        0.00000  -0.00002  -0.00001   0.00000   0.00000
 155       19F-3        0.00000   0.00000   0.00000  -0.00002   0.00000
 156 4   Br 1S          0.04996   0.00000   0.00000   0.00622   0.21889
 157        2S         -0.15617   0.00000   0.00000  -0.02070  -0.70982
 158        3S         -0.01475   0.00000   0.00000   0.00684  -0.03034
 159        4S          0.00014   0.00000   0.00000  -0.00008   0.00020
 160        5S         -0.00044   0.00000   0.00000   0.00023  -0.00072
 161        6S         -0.00077   0.00000   0.00000   0.00078  -0.00003
 162        7S         -0.00008   0.00000   0.00000   0.00029  -0.00003
 163        8PX         0.00000   0.71289  -0.71318   0.00000   0.00000
 164        8PY         0.49049   0.00000   0.00000  -0.57655  -0.13630
 165        8PZ        -0.48312   0.00000   0.00000   0.40080   0.08386
 166        9PX         0.00000  -0.01581   0.01656   0.00000   0.00000
 167        9PY         0.00500   0.00000   0.00000  -0.00883   0.00238
 168        9PZ        -0.00018   0.00000   0.00000   0.00569  -0.00143
 169       10PX         0.00000   0.00029  -0.00029   0.00000   0.00000
 170       10PY         0.00027   0.00000   0.00000  -0.00036  -0.00007
 171       10PZ        -0.00029   0.00000   0.00000   0.00023   0.00005
 172       11PX         0.00000  -0.00121   0.00124   0.00000   0.00000
 173       11PY        -0.00023   0.00000   0.00000   0.00017   0.00022
 174       11PZ         0.00041   0.00000   0.00000  -0.00013  -0.00014
 175       12PX         0.00000  -0.00008   0.00013   0.00000   0.00000
 176       12PY         0.00024   0.00000   0.00000  -0.00025   0.00005
 177       12PZ        -0.00008   0.00000   0.00000   0.00024  -0.00003
 178       13PX         0.00000   0.00001  -0.00003   0.00000   0.00000
 179       13PY         0.00000   0.00000   0.00000  -0.00004   0.00000
 180       13PZ        -0.00001   0.00000   0.00000   0.00001   0.00000
 181       14D 0       -0.00007   0.00000   0.00000  -0.00001   0.00003
 182       14D+1        0.00000   0.00003  -0.00003   0.00000   0.00000
 183       14D-1       -0.00022   0.00000   0.00000  -0.00008   0.00002
 184       14D+2       -0.00024   0.00000   0.00000  -0.00003  -0.00005
[...]
 168        9PZ        -0.00837   0.01152  -0.00358   0.00532   0.00000
 169       10PX         0.00000   0.00000   0.00000   0.00000  -0.10101
 170       10PY         0.27533  -0.47405   0.00920   0.14840   0.00000
 171       10PZ        -0.17715   0.17754  -0.12035   0.04444   0.00000
 172       11PX         0.00000   0.00000   0.00000   0.00000   0.03486
 173       11PY         0.00984   0.00092   0.05348   0.00044   0.00000
 174       11PZ        -0.00683   0.00051  -0.01245  -0.01901   0.00000
 175       12PX         0.00000   0.00000   0.00000   0.00000   0.38161
 176       12PY         8.16345  -5.31429   2.99202  -5.71045   0.00000
 177       12PZ        -3.21687   6.03559  -1.78614   2.50735   0.00000
 178       13PX         0.00000   0.00000   0.00000   0.00000  -2.13871
 179       13PY        -0.47718  -1.08853   2.03162  -3.33667   0.00000
 180       13PZ        -1.67881   0.71317   0.21868   1.12098   0.00000
 181       14D 0        0.00290  -0.00146  -0.00416  -0.00017   0.00000
 182       14D+1        0.00000   0.00000   0.00000   0.00000   0.00100
 183       14D-1        0.00398   0.00092   0.00024   0.00009   0.00000
 184       14D+2        0.00402  -0.00132   0.00256   0.00381   0.00000
 185       14D-2        0.00000   0.00000   0.00000   0.00000  -0.00125
 186       15D 0       -0.03589   0.02542   0.04790   0.00171   0.00000
 187       15D+1        0.00000   0.00000   0.00000   0.00000  -0.01518
 188       15D-1       -0.05498   0.00277  -0.01531   0.01166   0.00000
 189       15D+2       -0.04964   0.02686  -0.03448  -0.03452   0.00000
 190       15D-2        0.00000   0.00000   0.00000   0.00000   0.02468
 191       16D 0        0.23136  -0.18368  -0.24112  -0.01652   0.00000
 192       16D+1        0.00000   0.00000   0.00000   0.00000   0.07285
 193       16D-1        0.46674  -0.37396   0.30237  -0.14078   0.00000
 194       16D+2        0.41958  -0.40874   0.28570   0.10218   0.00000
 195       16D-2        0.00000   0.00000   0.00000   0.00000  -0.12909
 196       17D 0        0.64487   0.80811   0.31071  -0.47256   0.00000
 197       17D+1        0.00000   0.00000   0.00000   0.00000  -0.16185
 198       17D-1        0.99032  -1.76168  -0.00504  -1.41492   0.00000
 199       17D+2        0.84962  -0.48670  -0.01932  -2.01640   0.00000
 200       17D-2        0.00000   0.00000   0.00000   0.00000   0.15121
 201       18F 0       -0.03630  -0.00104   0.02637  -0.00460   0.00000
 202       18F+1        0.00000   0.00000   0.00000   0.00000  -0.01535
 203       18F-1        0.00190  -0.03632   0.00150   0.01284   0.00000
 204       18F+2       -0.00889  -0.01178   0.00014   0.03806   0.00000
 205       18F-2        0.00000   0.00000   0.00000   0.00000   0.00489
 206       18F+3        0.00000   0.00000   0.00000   0.00000   0.04338
 207       18F-3       -0.02221  -0.01501  -0.01264  -0.03429   0.00000
 208       19F 0        0.20329  -0.09637  -0.06824  -0.06373   0.00000
 209       19F+1        0.00000   0.00000   0.00000   0.00000   0.02365
 210       19F-1       -0.01853   0.03823   0.04893  -0.03998   0.00000
 211       19F+2        0.14214  -0.11159   0.02262  -0.19872   0.00000
 212       19F-2        0.00000   0.00000   0.00000   0.00000  -0.01504
 213       19F+3        0.00000   0.00000   0.00000   0.00000  -0.10358
 214       19F-3       -0.00537   0.08849   0.01662   0.18168   0.00000
                         211       212       213       214
     Eigenvalues --     0.00000   0.00000   0.00000   0.00000
   1 1   C  1S         -0.12719   0.00000   0.02747  -0.01986
   2        2S         -0.60514   0.00000   0.11048  -0.06006
   3        3S          0.09063   0.00000  -0.06573   0.10942
   4        4S          3.07841   0.00000  -3.44992   0.98172
   5        5S         21.05320   0.00000   2.53910  26.18853
   6        6PX         0.00000   0.00000   0.00000   0.00000
   7        6PY         0.00000  -0.01499   0.00000   0.00000
   8        6PZ        -0.00669   0.00000  -0.02110   0.01681
   9        7PX         0.00000   0.00000   0.00000   0.00000
  10        7PY         0.00000   0.01913   0.00000   0.00000
  11        7PZ         0.10535   0.00000   0.01188  -0.15776
  12        8PX         0.00000   0.00000   0.00000   0.00000
  13        8PY         0.00000  -5.95709   0.00000   0.00000
  14        8PZ         3.56347   0.00000  -5.10722   0.30398
  15        9PX         0.00000   0.00000   0.00000   0.00000
  16        9PY         0.00000 -19.81757   0.00000   0.00000
  17        9PZ         8.54086   0.00000 -12.93328  -0.43352
  18       10D 0        0.01002   0.00000   0.00892   0.01203
  19       10D+1        0.00000   0.00000   0.00000   0.00000
  20       10D-1        0.00000  -0.01313   0.00000   0.00000
  21       10D+2       -0.03213   0.00000   0.01077  -0.03149
  22       10D-2        0.00000   0.00000   0.00000   0.00000
  23       11D 0        0.20919   0.00000  -0.03207  -0.29837
  24       11D+1        0.00000   0.00000   0.00000   0.00000
  25       11D-1        0.00000   0.25436   0.00000   0.00000
  26       11D+2        0.16111   0.00000  -0.05552   0.18886
  27       11D-2        0.00000   0.00000   0.00000   0.00000
  28       12D 0        2.88156   0.00000  -0.70216  -0.42504
  29       12D+1        0.00000   0.00000   0.00000   0.00000
  30       12D-1        0.00000   2.16507   0.00000   0.00000
  31       12D+2       -0.06154   0.00000  -0.51028  -0.64028
  32       12D-2        0.00000   0.00000   0.00000   0.00000
  33       13F 0       -0.00948   0.00000  -0.01088  -0.02683
  34       13F+1        0.00000   0.00000   0.00000   0.00000
  35       13F-1        0.00000  -0.00447   0.00000   0.00000
  36       13F+2       -0.00532   0.00000   0.00748  -0.00824
  37       13F-2        0.00000   0.00000   0.00000   0.00000
  38       13F+3        0.00000   0.00000   0.00000   0.00000
  39       13F-3        0.00000   0.00938   0.00000   0.00000
  40       14F 0        0.04018   0.00000   0.06826  -0.13819
  41       14F+1        0.00000   0.00000   0.00000   0.00000
  42       14F-1        0.00000  -0.01518   0.00000   0.00000
  43       14F+2       -0.06790   0.00000  -0.03415  -0.09861
  44       14F-2        0.00000   0.00000   0.00000   0.00000
  45       14F+3        0.00000   0.00000   0.00000   0.00000
  46       14F-3        0.00000  -0.01744   0.00000   0.00000
  47 2   S  1S          0.00697   0.00000   0.00263   0.00160
  48        2S          0.12355   0.00000   0.09868   0.01423
  49        3S          0.32490   0.00000   0.16825   0.05853
  50        4S         -0.03245   0.00000  -0.18375  -0.01004
  51        5S         -6.71852   0.00000   1.43687   1.53604
  52        6S        -11.20190   0.00000  20.48320 -12.47609
  53        7PX         0.00000   0.00000   0.00000   0.00000
  54        7PY         0.00000   0.00823   0.00000   0.00000
  55        7PZ         0.01593   0.00000   0.03043  -0.03586
  56        8PX         0.00000   0.00000   0.00000   0.00000
  57        8PY         0.00000   0.08284   0.00000   0.00000
  58        8PZ         0.49220   0.00000   0.44790  -0.73765
  59        9PX         0.00000   0.00000   0.00000   0.00000
  60        9PY         0.00000  -0.02714   0.00000   0.00000
  61        9PZ        -0.03898   0.00000  -0.10512   0.11051
  62       10PX         0.00000   0.00000   0.00000   0.00000
  63       10PY         0.00000  -0.48759   0.00000   0.00000
  64       10PZ         2.65181   0.00000  -5.98594   2.11977
  65       11PX         0.00000   0.00000   0.00000   0.00000
  66       11PY         0.00000   5.04738   0.00000   0.00000
  67       11PZ        -1.34107   0.00000  -2.10129   4.17301
  68       12D 0       -0.61840   0.00000   0.22373   0.34283
  69       12D+1        0.00000   0.00000   0.00000   0.00000
  70       12D-1        0.00000   0.13914   0.00000   0.00000
  71       12D+2        0.20357   0.00000   0.01115   0.07753
  72       12D-2        0.00000   0.00000   0.00000   0.00000
  73       13D 0        0.10711   0.00000  -0.03457  -0.01200
  74       13D+1        0.00000   0.00000   0.00000   0.00000
  75       13D-1        0.00000  -0.03710   0.00000   0.00000
  76       13D+2       -0.05450   0.00000   0.00283  -0.01750
  77       13D-2        0.00000   0.00000   0.00000   0.00000
  78       14D 0        1.21778   0.00000   1.70178  -1.18165
  79       14D+1        0.00000   0.00000   0.00000   0.00000
  80       14D-1        0.00000  -0.26955   0.00000   0.00000
  81       14D+2       -0.54025   0.00000  -0.02336  -0.00533
  82       14D-2        0.00000   0.00000   0.00000   0.00000
  83       15F 0        0.03903   0.00000   0.06650  -0.05635
  84       15F+1        0.00000   0.00000   0.00000   0.00000
  85       15F-1        0.00000  -0.01218   0.00000   0.00000
  86       15F+2       -0.01578   0.00000  -0.01035   0.01434
  87       15F-2        0.00000   0.00000   0.00000   0.00000
  88       15F+3        0.00000   0.00000   0.00000   0.00000
  89       15F-3        0.00000  -0.03732   0.00000   0.00000
  90       16F 0       -0.15507   0.00000  -0.29876   0.07700
  91       16F+1        0.00000   0.00000   0.00000   0.00000
  92       16F-1        0.00000   0.03062   0.00000   0.00000
  93       16F+2        0.07098   0.00000   0.01737  -0.07242
  94       16F-2        0.00000   0.00000   0.00000   0.00000
  95       16F+3        0.00000   0.00000   0.00000   0.00000
  96       16F-3        0.00000   0.10083   0.00000   0.00000
  97 3   Br 1S          0.00032  -0.00010  -0.00021   0.00021
  98        2S          0.00282   0.00244   0.00044   0.00082
  99        3S          0.01229   0.00363  -0.00303   0.00578
 100        4S          0.03764   0.04056   0.00791   0.00966
 101        5S          0.00853   0.11543   0.04118  -0.02858
 102        6S          0.29186  -1.99470  -0.44345   0.07941
 103        7S         -4.62176 -21.51320 -10.29371  -7.39724
 104        8PX         0.00000   0.00000   0.00000   0.00000
 105        8PY        -0.00061  -0.00102  -0.00004  -0.00004
 106        8PZ         0.00002  -0.00064  -0.00025  -0.00012
 107        9PX         0.00000   0.00000   0.00000   0.00000
 108        9PY         0.01857   0.01690   0.00535   0.01790
 109        9PZ         0.01411   0.00610   0.01228   0.01091
 110       10PX         0.00000   0.00000   0.00000   0.00000
 111       10PY         0.18682   0.14693   0.06102   0.20697
 112       10PZ         0.16439   0.03923   0.13062   0.12233
 113       11PX         0.00000   0.00000   0.00000   0.00000
 114       11PY        -0.03050  -0.02759  -0.00533  -0.02521
 115       11PZ        -0.02091  -0.01286  -0.01761  -0.01453
 116       12PX         0.00000   0.00000   0.00000   0.00000
 117       12PY        -1.01260  -4.60245  -1.70304  -0.49264
 118       12PZ        -0.19944  -2.68351  -1.56727  -0.61420
 119       13PX         0.00000   0.00000   0.00000   0.00000
 120       13PY        -0.80638  -1.76319  -2.96318  -2.40861
 121       13PZ        -3.09068  -3.41708   0.36898  -1.43582
 122       14D 0        0.00105   0.00008  -0.00143  -0.00060
 123       14D+1        0.00000   0.00000   0.00000   0.00000
 124       14D-1        0.00208   0.00076   0.00082   0.00156
 125       14D+2       -0.00019   0.00101  -0.00068  -0.00071
 126       14D-2        0.00000   0.00000   0.00000   0.00000
 127       15D 0       -0.01269  -0.00326   0.01484   0.01024
 128       15D+1        0.00000   0.00000   0.00000   0.00000
 129       15D-1       -0.02816   0.00651  -0.00757  -0.02325
 130       15D+2       -0.00061  -0.02162   0.00654   0.01267
 131       15D-2        0.00000   0.00000   0.00000   0.00000
 132       16D 0        0.06552   0.01791  -0.05040  -0.06812
 133       16D+1        0.00000   0.00000   0.00000   0.00000
 134       16D-1        0.17555  -0.15030   0.02753   0.19951
 135       16D+2       -0.01160   0.16925  -0.02094  -0.12978
 136       16D-2        0.00000   0.00000   0.00000   0.00000
 137       17D 0       -0.20642   0.18220   0.05712   0.05418
 138       17D+1        0.00000   0.00000   0.00000   0.00000
 139       17D-1       -0.30792  -1.12098  -0.72705  -0.40431
 140       17D+2        0.29756   0.79518   0.47851   0.12451
 141       17D-2        0.00000   0.00000   0.00000   0.00000
 142       18F 0        0.00222  -0.02775   0.00906   0.00237
 143       18F+1        0.00000   0.00000   0.00000   0.00000
 144       18F-1        0.00007   0.00988   0.00401   0.00253
 145       18F+2        0.01810  -0.01499  -0.01476   0.00289
 146       18F-2        0.00000   0.00000   0.00000   0.00000
 147       18F+3        0.00000   0.00000   0.00000   0.00000
 148       18F-3       -0.02874  -0.02975  -0.00537   0.00453
 149       19F 0       -0.05215   0.12748  -0.00282  -0.02858
 150       19F+1        0.00000   0.00000   0.00000   0.00000
 151       19F-1       -0.00123  -0.04867  -0.02061  -0.00372
 152       19F+2       -0.05602   0.12422   0.06929  -0.04105
 153       19F-2        0.00000   0.00000   0.00000   0.00000
 154       19F+3        0.00000   0.00000   0.00000   0.00000
 155       19F-3        0.07071   0.12279   0.02639  -0.03378
 156 4   Br 1S          0.00032   0.00010  -0.00021   0.00021
 157        2S          0.00282  -0.00244   0.00044   0.00082
 158        3S          0.01229  -0.00363  -0.00303   0.00578
 159        4S          0.03764  -0.04056   0.00791   0.00966
 160        5S          0.00853  -0.11543   0.04118  -0.02858
 161        6S          0.29186   1.99470  -0.44345   0.07941
 162        7S         -4.62176  21.51320 -10.29371  -7.39724
 163        8PX         0.00000   0.00000   0.00000   0.00000
 164        8PY         0.00061  -0.00102   0.00004   0.00004
 165        8PZ         0.00002   0.00064  -0.00025  -0.00012
 166        9PX         0.00000   0.00000   0.00000   0.00000
 167        9PY        -0.01857   0.01690  -0.00535  -0.01790
 168        9PZ         0.01411  -0.00610   0.01228   0.01091
 169       10PX         0.00000   0.00000   0.00000   0.00000
 170       10PY        -0.18682   0.14693  -0.06102  -0.20697
 171       10PZ         0.16439  -0.03923   0.13062   0.12233
 172       11PX         0.00000   0.00000   0.00000   0.00000
 173       11PY         0.03050  -0.02759   0.00533   0.02521
 174       11PZ        -0.02091   0.01286  -0.01761  -0.01453
 175       12PX         0.00000   0.00000   0.00000   0.00000
 176       12PY         1.01260  -4.60245   1.70304   0.49264
 177       12PZ        -0.19944   2.68351  -1.56727  -0.61420
 178       13PX         0.00000   0.00000   0.00000   0.00000
 179       13PY         0.80638  -1.76319   2.96318   2.40861
 180       13PZ        -3.09068   3.41708   0.36898  -1.43582
 181       14D 0        0.00105  -0.00008  -0.00143  -0.00060
 182       14D+1        0.00000   0.00000   0.00000   0.00000
 183       14D-1       -0.00208   0.00076  -0.00082  -0.00156
 184       14D+2       -0.00019  -0.00101  -0.00068  -0.00071
 185       14D-2        0.00000   0.00000   0.00000   0.00000
 186       15D 0       -0.01269   0.00326   0.01484   0.01024
 187       15D+1        0.00000   0.00000   0.00000   0.00000
 188       15D-1        0.02816   0.00651   0.00757   0.02325
 189       15D+2       -0.00061   0.02162   0.00654   0.01267
 190       15D-2        0.00000   0.00000   0.00000   0.00000
 191       16D 0        0.06552  -0.01791  -0.05040  -0.06812
 192       16D+1        0.00000   0.00000   0.00000   0.00000
 193       16D-1       -0.17555  -0.15030  -0.02753  -0.19951
 194       16D+2       -0.01160  -0.16925  -0.02094  -0.12978
 195       16D-2        0.00000   0.00000   0.00000   0.00000
 196       17D 0       -0.20642  -0.18220   0.05712   0.05418
 197       17D+1        0.00000   0.00000   0.00000   0.00000
 198       17D-1        0.30792  -1.12098   0.72705   0.40431
 199       17D+2        0.29756  -0.79518   0.47851   0.12451
 200       17D-2        0.00000   0.00000   0.00000   0.00000
 201       18F 0        0.00222   0.02775   0.00906   0.00237
 202       18F+1        0.00000   0.00000   0.00000   0.00000
 203       18F-1       -0.00007   0.00988  -0.00401  -0.00253
 204       18F+2        0.01810   0.01499  -0.01476   0.00289
 205       18F-2        0.00000   0.00000   0.00000   0.00000
 206       18F+3        0.00000   0.00000   0.00000   0.00000
 207       18F-3        0.02874  -0.02975   0.00537  -0.00453
 208       19F 0       -0.05215  -0.12748  -0.00282  -0.02858
 209       19F+1        0.00000   0.00000   0.00000   0.00000
 210       19F-1        0.00123  -0.04867   0.02061   0.00372
 211       19F+2       -0.05602  -0.12422   0.06929  -0.04105
 212       19F-2        0.00000   0.00000   0.00000   0.00000
 213       19F+3        0.00000   0.00000   0.00000   0.00000
 214       19F-3       -0.07071   0.12279  -0.02639   0.03378
          Condensed to atoms (all electrons):
              1          2          3          4
     1  C    6.393969  -0.021252  -0.102507  -0.102507
     2  S   -0.021252  16.448560  -0.188339  -0.188339
     3  Br  -0.102507  -0.188339  35.316951  -0.135271
     4  Br  -0.102507  -0.188339  -0.135271  35.316951
 Mulliken atomic charges:
              1
     1  C   -0.167702
     2  S   -0.050631
     3  Br   0.109166
     4  Br   0.109166
 Sum of Mulliken atomic charges =   0.00000
 Mulliken charges with hydrogens summed into heavy atoms:
              1
     1  C   -0.167702
     2  S   -0.050631
     3  Br   0.109166
     4  Br   0.109166
 Sum of Mulliken charges with hydrogens summed into heavy atoms =   0.00000
 Electronic spatial extent (au):  <R**2>=           1431.7925
 Charge=              0.0000 electrons
 Dipole moment (field-independent basis, Debye):
    X=              0.0000    Y=              0.0000    Z=             -0.5504  Tot=              0.5504
 Quadrupole moment (field-independent basis, Debye-Ang):
   XX=            -54.9666   YY=            -53.7191   ZZ=            -53.7673
   XY=              0.0000   XZ=              0.0000   YZ=              0.0000
 Traceless Quadrupole moment (field-independent basis, Debye-Ang):
   XX=             -0.8156   YY=              0.4319   ZZ=              0.3837
   XY=              0.0000   XZ=              0.0000   YZ=              0.0000
 Octapole moment (field-independent basis, Debye-Ang**2):
  XXX=              0.0000  YYY=              0.0000  ZZZ=            141.2762  XYY=              0.0000
  XXY=              0.0000  XXZ=             47.7315  XZZ=              0.0000  YZZ=              0.0000
  YYZ=             35.1801  XYZ=              0.0000
 Hexadecapole moment (field-independent basis, Debye-Ang**3):
 XXXX=            -67.2791 YYYY=           -571.1947 ZZZZ=           -700.9502 XXXY=              0.0000
 XXXZ=              0.0000 YYYX=              0.0000 YYYZ=              0.0000 ZZZX=              0.0000
 ZZZY=              0.0000 XXYY=           -113.4326 XXZZ=           -130.5397 YYZZ=           -194.8375
 XXYZ=              0.0000 YYXZ=              0.0000 ZZXY=              0.0000
 N-N= 5.477211558085D+02 E-N=-1.443658955654D+04  KE= 5.579834488402D+03
 1\1\GINC-TRAPISTA\SP\RQCISD-FC\Aug-CC-pVTZ\C1Br2S1\BRUNS\29-Nov-2021\0
 \\# qcisd/aug-cc-pvtz nosymm density=current output=wfn\\br2cs-wavefun
 ction\\0,1\C,0,0.,0.,-0.529451\S,0,0.,0.,1.083692\Br,0,0.,-1.568516,-1
 .57857\Br,0,0.,1.568516,-1.57857\\Version=EM64L-G09RevB.01\HF=-5580.30
 83395\MP2=-5581.1187515\MP3=-5581.1308054\MP4D=-5581.1548508\MP4DQ=-55
 81.1313345\MP4SDQ=-5581.1410677\QCISD=-5581.1374957\RMSD=3.234e-09\Dip
 ole=0.,0.,-0.2165251\Quadrupole=-0.6063868,0.3211035,0.2852833,0.,0.,0
 .\PG=C02V [C2(C1S1),SGV(Br2)]\\@

 Writing a WFN file to GAUSSIAN.wfn.


 ERROR IS THE FORCE THAT WELDS MEN TOGETHER....
 TRUTH IS COMMUNICATED TO MEN ONLY BY DEEDS OF TRUTH.
           TOLSTOI,MY RELIGION
 Job cpu time:  0 days  5 hours 42 minutes 23.9 seconds.
 File lengths (MBytes):  RWF=  25271 Int=      0 D2E=      0 Chk=      4 Scr=      1
 Normal termination of Gaussian 09 at Mon Nov 29 05:05:38 2021.
