 br2cs-wavefunction
GAUSSIAN            214 MOL ORBITALS    620 PRIMITIVES        4 NUCLEI
  C    1    (CENTRE  1)   0.00000000  0.00000000 -0.98162013  CHARGE =  6.0
  S    2    (CENTRE  2)   0.00000000  0.00000000  2.04788109  CHARGE = 16.0
  Br   3    (CENTRE  3)   0.01889726 -2.96406568 -2.98306498  CHARGE = 35.0
  Br   4    (CENTRE  4)   0.00000000  2.96406568 -2.98306498  CHARGE = 35.0
CENTRE ASSIGNMENTS    1  1  1  1  1  1  1  1  1  1  1  1  1  1  1  1  1  1  1  1
CENTRE ASSIGNMENTS    1  1  1  1  1  1  1  1  1  1  1  1  1  1  1  1  1  1  1  1
CENTRE ASSIGNMENTS    1  1  1  1  1  1  1  1  1  1  1  1  1  1  1  1  1  1  1  1
CENTRE ASSIGNMENTS    1  1  1  1  1  1  1  1  1  1  1  1  2  2  2  2  2  2  2  2
CENTRE ASSIGNMENTS    2  2  2  2  2  2  2  2  2  2  2  2  2  2  2  2  2  2  2  2
CENTRE ASSIGNMENTS    2  2  2  2  2  2  2  2  2  2  2  2  2  2  2  2  2  2  2  2
CENTRE ASSIGNMENTS    2  2  2  2  2  2  2  2  2  2  2  2  2  2  2  2  2  2  2  2
CENTRE ASSIGNMENTS    2  2  2  2  2  2  2  2  2  2  2  2  2  2  2  2  2  2  2  2
CENTRE ASSIGNMENTS    2  2  2  2  2  2  2  2  2  2  2  2  2  2  2  2  2  2  2  2
CENTRE ASSIGNMENTS    2  2  2  2  2  2  3  3  3  3  3  3  3  3  3  3  3  3  3  3
CENTRE ASSIGNMENTS    3  3  3  3  3  3  3  3  3  3  3  3  3  3  3  3  3  3  3  3
CENTRE ASSIGNMENTS    3  3  3  3  3  3  3  3  3  3  3  3  3  3  3  3  3  3  3  3
CENTRE ASSIGNMENTS    3  3  3  3  3  3  3  3  3  3  3  3  3  3  3  3  3  3  3  3
CENTRE ASSIGNMENTS    3  3  3  3  3  3  3  3  3  3  3  3  3  3  3  3  3  3  3  3
CENTRE ASSIGNMENTS    3  3  3  3  3  3  3  3  3  3  3  3  3  3  3  3  3  3  3  3
CENTRE ASSIGNMENTS    3  3  3  3  3  3  3  3  3  3  3  3  3  3  3  3  3  3  3  3
CENTRE ASSIGNMENTS    3  3  3  3  3  3  3  3  3  3  3  3  3  3  3  3  3  3  3  3
CENTRE ASSIGNMENTS    3  3  3  3  3  3  3  3  3  3  3  3  3  3  3  3  3  3  3  3
CENTRE ASSIGNMENTS    3  3  3  3  3  3  3  3  3  3  3  3  3  3  3  3  3  3  3  3
CENTRE ASSIGNMENTS    3  3  3  3  3  3  3  3  3  3  3  3  3  3  3  3  3  3  3  3
CENTRE ASSIGNMENTS    3  3  3  4  4  4  4  4  4  4  4  4  4  4  4  4  4  4  4  4
CENTRE ASSIGNMENTS    4  4  4  4  4  4  4  4  4  4  4  4  4  4  4  4  4  4  4  4
CENTRE ASSIGNMENTS    4  4  4  4  4  4  4  4  4  4  4  4  4  4  4  4  4  4  4  4
CENTRE ASSIGNMENTS    4  4  4  4  4  4  4  4  4  4  4  4  4  4  4  4  4  4  4  4
CENTRE ASSIGNMENTS    4  4  4  4  4  4  4  4  4  4  4  4  4  4  4  4  4  4  4  4
CENTRE ASSIGNMENTS    4  4  4  4  4  4  4  4  4  4  4  4  4  4  4  4  4  4  4  4
CENTRE ASSIGNMENTS    4  4  4  4  4  4  4  4  4  4  4  4  4  4  4  4  4  4  4  4
CENTRE ASSIGNMENTS    4  4  4  4  4  4  4  4  4  4  4  4  4  4  4  4  4  4  4  4
CENTRE ASSIGNMENTS    4  4  4  4  4  4  4  4  4  4  4  4  4  4  4  4  4  4  4  4
CENTRE ASSIGNMENTS    4  4  4  4  4  4  4  4  4  4  4  4  4  4  4  4  4  4  4  4
CENTRE ASSIGNMENTS    4  4  4  4  4  4  4  4  4  4  4  4  4  4  4  4  4  4  4  4
TYPE ASSIGNMENTS      1  1  1  1  1  1  1  1  1  1  1  1  1  1  1  1  2  2  2  3
TYPE ASSIGNMENTS      3  3  4  4  4  2  3  4  2  3  4  2  3  4  5  6  7  8  9 10
TYPE ASSIGNMENTS      5  6  7  8  9 10  5  6  7  8  9 10 11 12 13 17 14 15 18 19
TYPE ASSIGNMENTS     16 20 11 12 13 17 14 15 18 19 16 20  1  1  1  1  1  1  1  1
TYPE ASSIGNMENTS      1  1  1  1  1  1  1  1  1  1  1  1  1  1  1  1  1  1  1  1
TYPE ASSIGNMENTS      1  1  1  2  2  2  2  2  2  3  3  3  3  3  3  4  4  4  4  4
TYPE ASSIGNMENTS      4  2  2  2  2  2  2  3  3  3  3  3  3  4  4  4  4  4  4  2
TYPE ASSIGNMENTS      3  4  2  3  4  2  3  4  5  6  7  8  9 10  5  6  7  8  9 10
TYPE ASSIGNMENTS      5  6  7  8  9 10 11 12 13 17 14 15 18 19 16 20 11 12 13 17
TYPE ASSIGNMENTS     14 15 18 19 16 20  1  1  1  1  1  1  1  1  1  1  1  1  1  1
TYPE ASSIGNMENTS      1  1  1  1  1  1  1  1  1  1  1  1  1  1  1  1  1  1  1  1
TYPE ASSIGNMENTS      1  1  1  1  1  1  1  1  1  1  1  1  1  1  1  1  2  2  2  2
TYPE ASSIGNMENTS      2  2  2  2  2  3  3  3  3  3  3  3  3  3  4  4  4  4  4  4
TYPE ASSIGNMENTS      4  4  4  2  2  2  2  2  2  2  2  2  3  3  3  3  3  3  3  3
TYPE ASSIGNMENTS      3  4  4  4  4  4  4  4  4  4  2  2  2  2  2  2  2  2  3  3
TYPE ASSIGNMENTS      3  3  3  3  3  3  4  4  4  4  4  4  4  4  2  3  4  2  3  4
TYPE ASSIGNMENTS      2  3  4  5  5  5  5  5  5  5  6  6  6  6  6  6  6  7  7  7
TYPE ASSIGNMENTS      7  7  7  7  8  8  8  8  8  8  8  9  9  9  9  9  9  9 10 10
TYPE ASSIGNMENTS     10 10 10 10 10  5  6  7  8  9 10  5  6  7  8  9 10  5  6  7
TYPE ASSIGNMENTS      8  9 10 11 12 13 17 14 15 18 19 16 20 11 12 13 17 14 15 18
TYPE ASSIGNMENTS     19 16 20  1  1  1  1  1  1  1  1  1  1  1  1  1  1  1  1  1
TYPE ASSIGNMENTS      1  1  1  1  1  1  1  1  1  1  1  1  1  1  1  1  1  1  1  1
TYPE ASSIGNMENTS      1  1  1  1  1  1  1  1  1  1  1  1  1  2  2  2  2  2  2  2
TYPE ASSIGNMENTS      2  2  3  3  3  3  3  3  3  3  3  4  4  4  4  4  4  4  4  4
TYPE ASSIGNMENTS      2  2  2  2  2  2  2  2  2  3  3  3  3  3  3  3  3  3  4  4
TYPE ASSIGNMENTS      4  4  4  4  4  4  4  2  2  2  2  2  2  2  2  3  3  3  3  3
TYPE ASSIGNMENTS      3  3  3  4  4  4  4  4  4  4  4  2  3  4  2  3  4  2  3  4
TYPE ASSIGNMENTS      5  5  5  5  5  5  5  6  6  6  6  6  6  6  7  7  7  7  7  7
TYPE ASSIGNMENTS      7  8  8  8  8  8  8  8  9  9  9  9  9  9  9 10 10 10 10 10
TYPE ASSIGNMENTS     10 10  5  6  7  8  9 10  5  6  7  8  9 10  5  6  7  8  9 10
TYPE ASSIGNMENTS     11 12 13 17 14 15 18 19 16 20 11 12 13 17 14 15 18 19 16 20
EXPONENTS  0.8236000D+04 0.1235000D+04 0.2808000D+03 0.7927000D+02 0.2559000D+02
EXPONENTS  0.8997000D+01 0.3319000D+01 0.2808000D+03 0.7927000D+02 0.2559000D+02
EXPONENTS  0.8997000D+01 0.3319000D+01 0.3643000D+00 0.9059000D+00 0.1285000D+00
EXPONENTS  0.4402000D-01 0.1871000D+02 0.4133000D+01 0.1200000D+01 0.1871000D+02
EXPONENTS  0.4133000D+01 0.1200000D+01 0.1871000D+02 0.4133000D+01 0.1200000D+01
EXPONENTS  0.3827000D+00 0.3827000D+00 0.3827000D+00 0.1209000D+00 0.1209000D+00
EXPONENTS  0.1209000D+00 0.3569000D-01 0.3569000D-01 0.3569000D-01 0.1097000D+01
EXPONENTS  0.1097000D+01 0.1097000D+01 0.1097000D+01 0.1097000D+01 0.1097000D+01
EXPONENTS  0.3180000D+00 0.3180000D+00 0.3180000D+00 0.3180000D+00 0.3180000D+00
EXPONENTS  0.3180000D+00 0.1000000D+00 0.1000000D+00 0.1000000D+00 0.1000000D+00
EXPONENTS  0.1000000D+00 0.1000000D+00 0.7610000D+00 0.7610000D+00 0.7610000D+00
EXPONENTS  0.7610000D+00 0.7610000D+00 0.7610000D+00 0.7610000D+00 0.7610000D+00
EXPONENTS  0.7610000D+00 0.7610000D+00 0.2680000D+00 0.2680000D+00 0.2680000D+00
EXPONENTS  0.2680000D+00 0.2680000D+00 0.2680000D+00 0.2680000D+00 0.2680000D+00
EXPONENTS  0.2680000D+00 0.2680000D+00 0.3741000D+06 0.5605000D+05 0.1276000D+05
EXPONENTS  0.3615000D+04 0.1183000D+04 0.4288000D+03 0.1678000D+03 0.6947000D+02
EXPONENTS  0.2984000D+02 0.1272000D+02 0.5244000D+01 0.3615000D+04 0.1183000D+04
EXPONENTS  0.4288000D+03 0.1678000D+03 0.6947000D+02 0.2984000D+02 0.1272000D+02
EXPONENTS  0.5244000D+01 0.2219000D+01 0.1183000D+04 0.1678000D+03 0.6947000D+02
EXPONENTS  0.2984000D+02 0.1272000D+02 0.5244000D+01 0.2219000D+01 0.3490000D+00
EXPONENTS  0.7767000D+00 0.1322000D+00 0.4970000D-01 0.5744000D+03 0.1358000D+03
EXPONENTS  0.4319000D+02 0.1587000D+02 0.6208000D+01 0.2483000D+01 0.5744000D+03
EXPONENTS  0.1358000D+03 0.4319000D+02 0.1587000D+02 0.6208000D+01 0.2483000D+01
EXPONENTS  0.5744000D+03 0.1358000D+03 0.4319000D+02 0.1587000D+02 0.6208000D+01
EXPONENTS  0.2483000D+01 0.1358000D+03 0.4319000D+02 0.1587000D+02 0.6208000D+01
EXPONENTS  0.2483000D+01 0.3229000D+00 0.1358000D+03 0.4319000D+02 0.1587000D+02
EXPONENTS  0.6208000D+01 0.2483000D+01 0.3229000D+00 0.1358000D+03 0.4319000D+02
EXPONENTS  0.1587000D+02 0.6208000D+01 0.2483000D+01 0.3229000D+00 0.8688000D+00
EXPONENTS  0.8688000D+00 0.8688000D+00 0.1098000D+00 0.1098000D+00 0.1098000D+00
EXPONENTS  0.3510000D-01 0.3510000D-01 0.3510000D-01 0.2690000D+00 0.2690000D+00
EXPONENTS  0.2690000D+00 0.2690000D+00 0.2690000D+00 0.2690000D+00 0.8190000D+00
EXPONENTS  0.8190000D+00 0.8190000D+00 0.8190000D+00 0.8190000D+00 0.8190000D+00
EXPONENTS  0.1010000D+00 0.1010000D+00 0.1010000D+00 0.1010000D+00 0.1010000D+00
EXPONENTS  0.1010000D+00 0.5570000D+00 0.5570000D+00 0.5570000D+00 0.5570000D+00
EXPONENTS  0.5570000D+00 0.5570000D+00 0.5570000D+00 0.5570000D+00 0.5570000D+00
EXPONENTS  0.5570000D+00 0.2180000D+00 0.2180000D+00 0.2180000D+00 0.2180000D+00
EXPONENTS  0.2180000D+00 0.2180000D+00 0.2180000D+00 0.2180000D+00 0.2180000D+00
EXPONENTS  0.2180000D+00 0.1063900D+08 0.1593400D+07 0.3626100D+06 0.1027000D+06
EXPONENTS  0.3350100D+05 0.1209300D+05 0.4715900D+04 0.1955600D+04 0.8526100D+03
EXPONENTS  0.3876700D+03 0.1826800D+03 0.8824500D+02 0.3926300D+02 0.9405700D+01
EXPONENTS  0.1899500D+01 0.3350100D+05 0.1209300D+05 0.4715900D+04 0.1955600D+04
EXPONENTS  0.8526100D+03 0.3876700D+03 0.1826800D+03 0.8824500D+02 0.3926300D+02
EXPONENTS  0.1923400D+02 0.9405700D+01 0.1899500D+01 0.4715900D+04 0.8526100D+03
EXPONENTS  0.3876700D+03 0.1826800D+03 0.8824500D+02 0.3926300D+02 0.1923400D+02
EXPONENTS  0.9405700D+01 0.4160100D+01 0.1899500D+01 0.4715900D+04 0.8526100D+03
EXPONENTS  0.3876700D+03 0.8824500D+02 0.3926300D+02 0.1923400D+02 0.9405700D+01
EXPONENTS  0.4160100D+01 0.1899500D+01 0.3011400D+00 0.6047200D+00 0.1251500D+00
EXPONENTS  0.4559300D-01 0.8676500D+04 0.2055900D+04 0.6662300D+03 0.2531000D+03
EXPONENTS  0.1061200D+03 0.4724200D+02 0.2182500D+02 0.9968400D+01 0.1998200D+01
EXPONENTS  0.8676500D+04 0.2055900D+04 0.6662300D+03 0.2531000D+03 0.1061200D+03
EXPONENTS  0.4724200D+02 0.2182500D+02 0.9968400D+01 0.1998200D+01 0.8676500D+04
EXPONENTS  0.2055900D+04 0.6662300D+03 0.2531000D+03 0.1061200D+03 0.4724200D+02
EXPONENTS  0.2182500D+02 0.9968400D+01 0.1998200D+01 0.8676500D+04 0.6662300D+03
EXPONENTS  0.2531000D+03 0.1061200D+03 0.4724200D+02 0.2182500D+02 0.9968400D+01
EXPONENTS  0.4517100D+01 0.1998200D+01 0.8676500D+04 0.6662300D+03 0.2531000D+03
EXPONENTS  0.1061200D+03 0.4724200D+02 0.2182500D+02 0.9968400D+01 0.4517100D+01
EXPONENTS  0.1998200D+01 0.8676500D+04 0.6662300D+03 0.2531000D+03 0.1061200D+03
EXPONENTS  0.4724200D+02 0.2182500D+02 0.9968400D+01 0.4517100D+01 0.1998200D+01
EXPONENTS  0.6662300D+03 0.1061200D+03 0.4724200D+02 0.2182500D+02 0.9968400D+01
EXPONENTS  0.4517100D+01 0.1998200D+01 0.2814500D+00 0.6662300D+03 0.1061200D+03
EXPONENTS  0.4724200D+02 0.2182500D+02 0.9968400D+01 0.4517100D+01 0.1998200D+01
EXPONENTS  0.2814500D+00 0.6662300D+03 0.1061200D+03 0.4724200D+02 0.2182500D+02
EXPONENTS  0.9968400D+01 0.4517100D+01 0.1998200D+01 0.2814500D+00 0.7098800D+00
EXPONENTS  0.7098800D+00 0.7098800D+00 0.1020400D+00 0.1020400D+00 0.1020400D+00
EXPONENTS  0.3514200D-01 0.3514200D-01 0.3514200D-01 0.4038300D+03 0.1211700D+03
EXPONENTS  0.4634500D+02 0.1972100D+02 0.8862400D+01 0.3996200D+01 0.1763600D+01
EXPONENTS  0.4038300D+03 0.1211700D+03 0.4634500D+02 0.1972100D+02 0.8862400D+01
EXPONENTS  0.3996200D+01 0.1763600D+01 0.4038300D+03 0.1211700D+03 0.4634500D+02
EXPONENTS  0.1972100D+02 0.8862400D+01 0.3996200D+01 0.1763600D+01 0.4038300D+03
EXPONENTS  0.1211700D+03 0.4634500D+02 0.1972100D+02 0.8862400D+01 0.3996200D+01
EXPONENTS  0.1763600D+01 0.4038300D+03 0.1211700D+03 0.4634500D+02 0.1972100D+02
EXPONENTS  0.8862400D+01 0.3996200D+01 0.1763600D+01 0.4038300D+03 0.1211700D+03
EXPONENTS  0.4634500D+02 0.1972100D+02 0.8862400D+01 0.3996200D+01 0.1763600D+01
EXPONENTS  0.7061900D+00 0.7061900D+00 0.7061900D+00 0.7061900D+00 0.7061900D+00
EXPONENTS  0.7061900D+00 0.2639000D+00 0.2639000D+00 0.2639000D+00 0.2639000D+00
EXPONENTS  0.2639000D+00 0.2639000D+00 0.1047000D+00 0.1047000D+00 0.1047000D+00
EXPONENTS  0.1047000D+00 0.1047000D+00 0.1047000D+00 0.5515000D+00 0.5515000D+00
EXPONENTS  0.5515000D+00 0.5515000D+00 0.5515000D+00 0.5515000D+00 0.5515000D+00
EXPONENTS  0.5515000D+00 0.5515000D+00 0.5515000D+00 0.2580000D+00 0.2580000D+00
EXPONENTS  0.2580000D+00 0.2580000D+00 0.2580000D+00 0.2580000D+00 0.2580000D+00
EXPONENTS  0.2580000D+00 0.2580000D+00 0.2580000D+00 0.1063900D+08 0.1593400D+07
EXPONENTS  0.3626100D+06 0.1027000D+06 0.3350100D+05 0.1209300D+05 0.4715900D+04
EXPONENTS  0.1955600D+04 0.8526100D+03 0.3876700D+03 0.1826800D+03 0.8824500D+02
EXPONENTS  0.3926300D+02 0.9405700D+01 0.1899500D+01 0.3350100D+05 0.1209300D+05
EXPONENTS  0.4715900D+04 0.1955600D+04 0.8526100D+03 0.3876700D+03 0.1826800D+03
EXPONENTS  0.8824500D+02 0.3926300D+02 0.1923400D+02 0.9405700D+01 0.1899500D+01
EXPONENTS  0.4715900D+04 0.8526100D+03 0.3876700D+03 0.1826800D+03 0.8824500D+02
EXPONENTS  0.3926300D+02 0.1923400D+02 0.9405700D+01 0.4160100D+01 0.1899500D+01
EXPONENTS  0.4715900D+04 0.8526100D+03 0.3876700D+03 0.8824500D+02 0.3926300D+02
EXPONENTS  0.1923400D+02 0.9405700D+01 0.4160100D+01 0.1899500D+01 0.3011400D+00
EXPONENTS  0.6047200D+00 0.1251500D+00 0.4559300D-01 0.8676500D+04 0.2055900D+04
EXPONENTS  0.6662300D+03 0.2531000D+03 0.1061200D+03 0.4724200D+02 0.2182500D+02
EXPONENTS  0.9968400D+01 0.1998200D+01 0.8676500D+04 0.2055900D+04 0.6662300D+03
EXPONENTS  0.2531000D+03 0.1061200D+03 0.4724200D+02 0.2182500D+02 0.9968400D+01
EXPONENTS  0.1998200D+01 0.8676500D+04 0.2055900D+04 0.6662300D+03 0.2531000D+03
EXPONENTS  0.1061200D+03 0.4724200D+02 0.2182500D+02 0.9968400D+01 0.1998200D+01
EXPONENTS  0.8676500D+04 0.6662300D+03 0.2531000D+03 0.1061200D+03 0.4724200D+02
EXPONENTS  0.2182500D+02 0.9968400D+01 0.4517100D+01 0.1998200D+01 0.8676500D+04
EXPONENTS  0.6662300D+03 0.2531000D+03 0.1061200D+03 0.4724200D+02 0.2182500D+02
EXPONENTS  0.9968400D+01 0.4517100D+01 0.1998200D+01 0.8676500D+04 0.6662300D+03
EXPONENTS  0.2531000D+03 0.1061200D+03 0.4724200D+02 0.2182500D+02 0.9968400D+01
EXPONENTS  0.4517100D+01 0.1998200D+01 0.6662300D+03 0.1061200D+03 0.4724200D+02
EXPONENTS  0.2182500D+02 0.9968400D+01 0.4517100D+01 0.1998200D+01 0.2814500D+00
EXPONENTS  0.6662300D+03 0.1061200D+03 0.4724200D+02 0.2182500D+02 0.9968400D+01
EXPONENTS  0.4517100D+01 0.1998200D+01 0.2814500D+00 0.6662300D+03 0.1061200D+03
EXPONENTS  0.4724200D+02 0.2182500D+02 0.9968400D+01 0.4517100D+01 0.1998200D+01
EXPONENTS  0.2814500D+00 0.7098800D+00 0.7098800D+00 0.7098800D+00 0.1020400D+00
EXPONENTS  0.1020400D+00 0.1020400D+00 0.3514200D-01 0.3514200D-01 0.3514200D-01
EXPONENTS  0.4038300D+03 0.1211700D+03 0.4634500D+02 0.1972100D+02 0.8862400D+01
EXPONENTS  0.3996200D+01 0.1763600D+01 0.4038300D+03 0.1211700D+03 0.4634500D+02
EXPONENTS  0.1972100D+02 0.8862400D+01 0.3996200D+01 0.1763600D+01 0.4038300D+03
EXPONENTS  0.1211700D+03 0.4634500D+02 0.1972100D+02 0.8862400D+01 0.3996200D+01
EXPONENTS  0.1763600D+01 0.4038300D+03 0.1211700D+03 0.4634500D+02 0.1972100D+02
EXPONENTS  0.8862400D+01 0.3996200D+01 0.1763600D+01 0.4038300D+03 0.1211700D+03
EXPONENTS  0.4634500D+02 0.1972100D+02 0.8862400D+01 0.3996200D+01 0.1763600D+01
EXPONENTS  0.4038300D+03 0.1211700D+03 0.4634500D+02 0.1972100D+02 0.8862400D+01
EXPONENTS  0.3996200D+01 0.1763600D+01 0.7061900D+00 0.7061900D+00 0.7061900D+00
EXPONENTS  0.7061900D+00 0.7061900D+00 0.7061900D+00 0.2639000D+00 0.2639000D+00
EXPONENTS  0.2639000D+00 0.2639000D+00 0.2639000D+00 0.2639000D+00 0.1047000D+00
EXPONENTS  0.1047000D+00 0.1047000D+00 0.1047000D+00 0.1047000D+00 0.1047000D+00
EXPONENTS  0.5515000D+00 0.5515000D+00 0.5515000D+00 0.5515000D+00 0.5515000D+00
EXPONENTS  0.5515000D+00 0.5515000D+00 0.5515000D+00 0.5515000D+00 0.5515000D+00
EXPONENTS  0.2580000D+00 0.2580000D+00 0.2580000D+00 0.2580000D+00 0.2580000D+00
EXPONENTS  0.2580000D+00 0.2580000D+00 0.2580000D+00 0.2580000D+00 0.2580000D+00
MO    1     MO 0.0        OCC NO =    2.0000283  ORB. ENERGY =    0.000000
  0.73652708D-06  0.13730348D-05  0.23206160D-05  0.34883186D-05  0.42847746D-05
  0.36161986D-05  0.13597851D-05  0.11753166D-09  0.87847631D-09  0.32830665D-08
  0.91592444D-08  0.12270862D-07 -0.14489600D-07  0.59766759D-07  0.65439461D-07
  0.15734153D-07  0.83443763D-05  0.78233832D-05  0.55707149D-05 -0.26176040D-02
 -0.24541701D-02 -0.17475153D-02 -0.11758960D-06 -0.11024773D-06 -0.78502951D-07
  0.17571780D-05 -0.55122249D-03 -0.92405004D-08 -0.41037527D-05  0.12873904D-02
 -0.17844648D-07 -0.25666831D-06  0.80520684D-04 -0.16733604D-08  0.23880994D-09
  0.25640601D-08 -0.28028700D-08 -0.21468405D-07  0.37880074D-05 -0.11883253D-02
 -0.50985406D-08 -0.17052951D-08  0.68038357D-08  0.12328880D-05 -0.50184930D-08
  0.15824350D-05 -0.46592346D-08  0.30662027D-08  0.15930319D-08  0.13829094D-05
  0.10243902D-05 -0.32135529D-03 -0.87704824D-06  0.11230939D-03  0.36587842D-09
  0.68006163D-06  0.27513102D-03 -0.25705088D-08  0.19510831D-05 -0.61205919D-03
  0.14728735D-08  0.10998744D-05  0.43986842D-06 -0.68582238D-04 -0.18696888D-08
 -0.22388831D-06 -0.13798706D-03  0.33671160D-08 -0.10957170D-05  0.34373377D-03
  0.22419505D-08 -0.62524174D-06  0.20681623D-05  0.38666378D-05  0.66826994D-05
  0.10808991D-04  0.16337428D-04  0.22500021D-04  0.26299784D-04  0.22730052D-04
  0.10608234D-04  0.14371829D-05 -0.10511763D-07  0.25724552D-07  0.33068652D-06
  0.12062969D-05  0.40700159D-05  0.89395811D-05  0.11547500D-04 -0.18557816D-05
 -0.15567801D-04 -0.85434086D-05  0.22926137D-09  0.26114295D-08  0.54222690D-08
  0.14909863D-07 -0.19332349D-08 -0.67415609D-07 -0.16814524D-06  0.13918819D-06
 -0.46842341D-06 -0.22184892D-08  0.37519888D-08 -0.30935124D-01 -0.40585124D-01
 -0.44513098D-01 -0.36624036D-01 -0.19306109D-01 -0.50230865D-02  0.97045012D+01
  0.12731754D+02  0.13963978D+02  0.11489141D+02  0.60564217D+01  0.15757670D+01
 -0.14547857D-03 -0.19085961D-03 -0.20933169D-03 -0.17223181D-03 -0.90790816D-04
 -0.23622062D-04 -0.28227423D-06 -0.10132412D-04 -0.16075325D-04 -0.19088955D-04
 -0.28886621D-05  0.21023141D-04  0.88550850D-04  0.31785886D-02  0.50429106D-02
  0.59883016D-02  0.90618787D-03 -0.65950655D-02 -0.12999958D-08 -0.46664169D-07
 -0.74033874D-07 -0.87912955D-07 -0.13303547D-07  0.96820724D-07 -0.21451979D-03
  0.67295909D-01 -0.10481350D-05  0.10229153D-05 -0.32090201D-03  0.84597346D-08
  0.89360399D-07 -0.28033776D-04  0.14986130D-09  0.58791293D-08  0.29840606D-08
 -0.88631899D-08 -0.89699431D-07 -0.24483386D-05  0.76806218D-03 -0.36492421D-08
  0.58348943D-08 -0.21856521D-08  0.24694151D-06  0.23223174D-05 -0.72853992D-03
  0.90349779D-09 -0.52316325D-09 -0.38033454D-09 -0.24089295D-06  0.13190647D-06
 -0.41377339D-04 -0.44147845D-06  0.35476673D-05  0.12689574D-08  0.84904114D-06
  0.13849097D-03 -0.77752084D-09  0.47539421D-06 -0.14913397D-03 -0.30293515D-08
 -0.81688243D-06 -0.90551442D-08  0.32000551D-04  0.76350736D-09 -0.28791283D-06
  0.28417199D-05 -0.20293768D-08  0.31507826D-06 -0.98843372D-04 -0.26114526D-09
  0.29916479D-06  0.36952330D-03  0.69512898D-03  0.12033038D-02  0.19724459D-02
  0.30898666D-02  0.46443209D-02  0.66378264D-02  0.88117002D-02  0.10261861D-01
  0.94243325D-02  0.55091412D-02  0.14455665D-02  0.82188486D-04  0.14341007D-05
  0.14435855D-06  0.18594917D-04  0.53716430D-04  0.24619502D-03  0.72879088D-03
  0.21135148D-02  0.43931356D-02  0.62844327D-02  0.18019476D-02 -0.72008239D-02
 -0.69625000D-02 -0.15196720D-02  0.21996793D-04  0.12204063D-04  0.56934476D-04
  0.11554430D-03  0.45283819D-03  0.31776728D-03 -0.20694208D-02 -0.64124246D-02
 -0.78438313D-03  0.56054323D-02  0.26306292D-02 -0.96433202D-06 -0.13220227D-05
  0.25346372D-05  0.53869375D-05 -0.20364131D-04 -0.65852427D-04 -0.22902473D-04
  0.22401112D-03  0.49966093D-03 -0.33155979D-03 -0.56610818D-04  0.15391063D-02
  0.47885025D-03 -0.85593324D-02 -0.12281364D-01 -0.16261661D-01 -0.18779388D-01
 -0.17412034D-01 -0.11275800D-01 -0.39787698D-02 -0.45844921D-03  0.74896516D-06
  0.11929362D+01  0.17116855D+01  0.22664297D+01  0.26173318D+01  0.24267602D+01
  0.15715373D+01  0.55453141D+00  0.63895249D-01 -0.10438521D-03  0.10397513D+01
  0.14918879D+01  0.19753975D+01  0.22812403D+01  0.21151399D+01  0.13697362D+01
  0.48332404D+00  0.55690461D-01 -0.90981104D-04  0.52048691D-04 -0.14840009D-03
 -0.72435993D-03 -0.15010115D-02 -0.18836213D-02 -0.29870846D-03  0.24179440D-02
  0.21087978D-02  0.54209785D-03 -0.72372228D-02  0.20634611D-01  0.10072019D+00
  0.20871139D+00  0.26191219D+00  0.41534563D-01 -0.33620826D+00 -0.29322235D+00
 -0.75377167D-01 -0.64248710D-02  0.18318452D-01  0.89414720D-01  0.18528430D+00
  0.23251351D+00  0.36872461D-01 -0.29847011D+00 -0.26030921D+00 -0.66916357D-01
  0.55399157D-06  0.78264543D-06 -0.36416083D-06  0.72978174D-06  0.80113701D-06
  0.21625199D-05  0.68146715D-06 -0.14631245D-05 -0.73460946D-04 -0.10378114D-03
  0.48288820D-04 -0.96771251D-04 -0.10623317D-03 -0.28675663D-03 -0.90364591D-04
  0.19401470D-03  0.57995999D-04  0.81933202D-04 -0.38123091D-04  0.76399034D-04
  0.83869039D-04  0.22638882D-03  0.71341100D-04 -0.15317086D-03  0.23286790D-04
 -0.31192651D-02 -0.28954335D-02 -0.22155673D-05  0.38455971D-03  0.16655101D-03
 -0.12564327D-06  0.14775805D-04  0.12340553D-04  0.14803044D+00  0.15489791D+00
  0.13198131D+00  0.86919668D-01  0.40058687D-01  0.11995639D-01  0.20409562D-02
 -0.14931725D+00 -0.15624441D+00 -0.13312860D+00 -0.87675247D-01 -0.40406911D-01
 -0.12099915D-01 -0.20586979D-02  0.12868065D-02  0.13465043D-02  0.11472938D-02
  0.75557968D-03  0.34822418D-03  0.10427629D-03  0.17741727D-04  0.40413125D-02
  0.42287981D-02  0.36031623D-02  0.23729548D-02  0.10936242D-02  0.32748754D-03
  0.55719229D-04  0.29724831D-02  0.31103833D-02  0.26502130D-02  0.17453656D-02
  0.80438706D-03  0.24087501D-03  0.40982840D-04 -0.47829011D+00 -0.50047906D+00
 -0.42643495D+00 -0.28083965D+00 -0.12943063D+00 -0.38758213D-01 -0.65943813D-02
  0.65167788D-04 -0.11684522D-03  0.51677437D-04  0.32704860D-05  0.18258523D-05
 -0.35254182D-03 -0.54732151D-04  0.57004298D-04 -0.22721471D-05 -0.20449406D-05
 -0.73857466D-06  0.93786104D-04 -0.15692474D-04  0.18610499D-04 -0.29180247D-05
 -0.54652857D-06 -0.26781418D-06  0.63876213D-04  0.29977826D-06  0.27894101D-04
  0.31889087D-04 -0.44037288D-06 -0.51889184D-04 -0.39846885D-04 -0.45896190D-06
 -0.31793119D-04 -0.55820377D-04  0.28176628D-06 -0.23292753D-07 -0.17069534D-05
 -0.13805616D-05 -0.24727718D-06  0.12493844D-04  0.22884890D-05  0.31715543D-06
 -0.73729838D-05  0.18531957D-05 -0.28246163D-07 -0.36939364D-03 -0.69488507D-03
 -0.12028815D-02 -0.19717538D-02 -0.30887824D-02 -0.46426913D-02 -0.66354973D-02
 -0.88086083D-02 -0.10258261D-01 -0.94210257D-02 -0.55072081D-02 -0.14450593D-02
 -0.82159647D-04 -0.14335975D-05 -0.14430790D-06 -0.18588715D-04 -0.53698513D-04
 -0.24611290D-03 -0.72854778D-03 -0.21128098D-02 -0.43916702D-02 -0.62823365D-02
 -0.18013465D-02  0.71984220D-02  0.69601776D-02  0.15191651D-02 -0.21989456D-04
 -0.12200316D-04 -0.56916996D-04 -0.11550882D-03 -0.45269916D-03 -0.31766972D-03
  0.20687854D-02  0.64104558D-02  0.78414231D-03 -0.56037113D-02 -0.26298215D-02
  0.96432294D-06  0.13220102D-05 -0.25346134D-05 -0.53868868D-05  0.20363940D-04
  0.65851807D-04  0.22902257D-04 -0.22400902D-03 -0.49965623D-03  0.33155667D-03
  0.56645442D-04 -0.15391529D-02 -0.47886806D-03  0.95383288D-03  0.13686078D-02
  0.18121632D-02  0.20927331D-02  0.19403582D-02  0.12565500D-02  0.44338522D-03
  0.51088556D-04 -0.83463005D-07  0.11929290D+01  0.17116751D+01  0.22664160D+01
  0.26173160D+01  0.24267455D+01  0.15715278D+01  0.55452806D+00  0.63894864D-01
 -0.10438458D-03 -0.10397632D+01 -0.14919049D+01 -0.19754200D+01 -0.22812663D+01
 -0.21151640D+01 -0.13697518D+01 -0.48332955D+00 -0.55691096D-01  0.90982141D-04
 -0.59082266D-05  0.16845407D-04  0.82224596D-04  0.17038500D-03  0.21381635D-03
  0.33907428D-04 -0.27446917D-03 -0.23937691D-03 -0.61535398D-04 -0.72371570D-02
  0.20634424D-01  0.10071928D+00  0.20870949D+00  0.26190981D+00  0.41534186D-01
 -0.33620520D+00 -0.29321968D+00 -0.75376483D-01  0.64249454D-02 -0.18318664D-01
 -0.89415755D-01 -0.18528645D+00 -0.23251620D+00 -0.36872888D-01  0.29847357D+00
  0.26031223D+00  0.66917131D-01 -0.85635336D-07 -0.12098037D-06  0.56291534D-07
 -0.11280877D-06 -0.12383877D-06 -0.33427967D-06 -0.10534036D-06  0.22616798D-06
 -0.73473103D-04 -0.10379831D-03  0.48296811D-04 -0.96787266D-04 -0.10625075D-03
 -0.28680409D-03 -0.90379546D-04  0.19404681D-03 -0.57997144D-04 -0.81934820D-04
  0.38123844D-04 -0.76400542D-04 -0.83870695D-04 -0.22639329D-03 -0.71342508D-04
  0.15317388D-03 -0.34001500D-05 -0.31192234D-02  0.28954695D-02 -0.23617358D-06
  0.38457549D-03 -0.16655654D-03  0.31438565D-07  0.14776794D-04 -0.12340815D-04
 -0.14805948D+00 -0.15492830D+00 -0.13200720D+00 -0.86936722D-01 -0.40066547D-01
 -0.11997992D-01 -0.20413567D-02  0.14934274D+00  0.15627108D+00  0.13315133D+00
  0.87690216D-01  0.40413810D-01  0.12101981D-01  0.20590494D-02 -0.12832539D-02
 -0.13427869D-02 -0.11441263D-02 -0.75349368D-03 -0.34726280D-03 -0.10398841D-03
 -0.17692746D-04  0.24965102D-03  0.26123289D-03  0.22258440D-03  0.14658866D-03
  0.67558348D-04  0.20230457D-04  0.34420407D-05  0.76818499D-04  0.80382282D-04
  0.68490007D-04  0.45105847D-04  0.20787942D-04  0.62249829D-05  0.10591281D-05
 -0.47833998D+00 -0.50053124D+00 -0.42647941D+00 -0.28086893D+00 -0.12944413D+00
 -0.38762254D-01 -0.65950689D-02 -0.65192821D-04  0.11687127D-03 -0.51678447D-04
  0.94947475D-06  0.42176404D-06 -0.35258448D-03  0.54739643D-04 -0.57010347D-04
  0.22707037D-05 -0.62010689D-06  0.14065220D-06  0.93783630D-04  0.15694215D-04
 -0.18611832D-04  0.29176169D-05 -0.10911630D-06 -0.13942821D-06  0.63876746D-04
  0.31041080D-07  0.27891725D-04 -0.31892101D-04 -0.75478867D-06 -0.51887425D-04
  0.39848944D-04  0.66166543D-06 -0.31787751D-04  0.55827357D-04  0.78102573D-07
 -0.56346681D-07 -0.17045102D-05  0.13804192D-05  0.43918954D-06  0.12489812D-04
 -0.22892841D-05 -0.27014950D-06 -0.73762810D-05 -0.18519735D-05 -0.33801633D-07
MO    2     MO 0.0        OCC NO =    2.0000240  ORB. ENERGY =    0.000000
 -0.58964140D-01 -0.10992104D+00 -0.18578153D+00 -0.27926428D+00 -0.34302615D+00
 -0.28950197D+00 -0.10886030D+00 -0.10359421D-04 -0.77430253D-04 -0.28937453D-03
 -0.80730989D-03 -0.10815727D-02  0.12771357D-02 -0.44808802D-02 -0.17442252D-02
 -0.31722823D-03  0.16992115D-05  0.15931188D-05  0.11343955D-05 -0.50477334D-07
 -0.47325709D-07 -0.33698724D-07  0.22937097D-02  0.21504986D-02  0.15312831D-02
  0.28233580D-06 -0.12126758D-07 -0.21677368D-03  0.52638822D-06  0.30759895D-07
 -0.96652038D-03 -0.62743905D-07  0.15771945D-08  0.10759463D-05  0.12463663D-03
  0.11493711D-04 -0.13613035D-03  0.72131837D-06  0.12069214D-05 -0.66610404D-08
  0.11848370D-03  0.12835117D-03 -0.24683487D-03 -0.62894997D-07  0.11830857D-06
 -0.18878620D-08  0.23564056D-04  0.10023354D-03 -0.12379759D-03 -0.48878009D-06
  0.14658029D-06 -0.90349648D-08 -0.10090182D-06  0.38087538D-08 -0.97814866D-05
  0.39374891D-06  0.15075195D-08 -0.90597413D-04 -0.91043451D-07 -0.12933781D-07
  0.11994187D-03 -0.13422550D-05  0.14069916D-07 -0.20768332D-08  0.13250549D-04
 -0.21691045D-06 -0.11387016D-08  0.44744938D-04  0.17470070D-06  0.73692011D-08
 -0.84496584D-04  0.82396182D-06 -0.12703234D+00 -0.23749976D+00 -0.41047017D+00
 -0.66391859D+00 -0.10034907D+01 -0.13820145D+01 -0.16154067D+01 -0.13961437D+01
 -0.65158752D+00 -0.88275811D-01  0.64566200D-03 -0.15829227D-02 -0.20348312D-01
 -0.74227718D-01 -0.25044248D+00 -0.55008406D+00 -0.71055857D+00  0.11419281D+00
  0.95794192D+00  0.52570617D+00 -0.12725632D-04 -0.14495286D-03 -0.30097440D-03
 -0.82760315D-03  0.10730825D-03  0.37420446D-02  0.93332535D-02 -0.77259320D-02
  0.29339454D-01  0.18108328D-02  0.12896379D-03 -0.62076997D-02 -0.81441489D-02
 -0.89323688D-02 -0.73492840D-02 -0.38741246D-02 -0.10079744D-02  0.16424914D-03
  0.21548554D-03  0.23634100D-03  0.19445425D-03  0.10250523D-03  0.26669932D-04
  0.62312657D+01  0.81750663D+01  0.89662785D+01  0.73771838D+01  0.38888319D+01
  0.10118009D+01 -0.45170028D-07 -0.16214066D-05 -0.25724023D-05 -0.30546488D-05
 -0.46224888D-06  0.33641607D-05  0.14480570D-08  0.51978921D-07  0.82465861D-07
  0.97925680D-07  0.14818736D-07 -0.10784799D-06  0.57977843D-04  0.20811513D-02
  0.33017986D-02  0.39207846D-02  0.59331805D-03 -0.43180576D-02 -0.42789593D-04
  0.11615569D-05  0.45895497D-01 -0.89045837D-07 -0.64113988D-09 -0.77424345D-03
  0.33561377D-07 -0.39775480D-09 -0.50007969D-05 -0.24706491D-03 -0.13341002D-03
  0.38047493D-03 -0.72460575D-06 -0.62900620D-07  0.12906406D-07  0.21031282D-03
 -0.39860367D-03  0.18829085D-03  0.38821446D-05  0.78177299D-06 -0.61424586D-08
 -0.54234712D-05 -0.30839551D-04  0.36263022D-04  0.16203510D-06  0.82856616D-07
 -0.13307644D-08 -0.94249380D-07 -0.28277957D-09 -0.74221179D-04 -0.93000961D-08
  0.15939417D-08  0.20819940D-03  0.29204824D-06 -0.74560303D-09  0.14464137D-04
  0.12351385D-05  0.19398576D-07  0.62669175D-09 -0.20807175D-04  0.18262153D-07
  0.10848628D-09  0.19386093D-04 -0.76457881D-07 -0.19885615D-08  0.43035432D-04
 -0.15077050D-06  0.58126035D-03  0.10934383D-02  0.18927975D-02  0.31026585D-02
  0.48603618D-02  0.73055193D-02  0.10441305D-01  0.13860809D-01  0.16141914D-01
  0.14824480D-01  0.86658820D-02  0.22738769D-02  0.12928253D-03  0.22558412D-05
  0.22707608D-06  0.27636694D-04  0.79836040D-04  0.36590733D-03  0.10831654D-02
  0.31412112D-02  0.65292975D-02  0.93402376D-02  0.26781444D-02 -0.10702224D-01
 -0.10348015D-01 -0.22586125D-02  0.32692732D-04  0.17526171D-04  0.81763211D-04
  0.16593237D-03  0.65031781D-03  0.45634341D-03 -0.29718810D-02 -0.92088389D-02
 -0.11264472D-02  0.80499228D-02  0.37778285D-02 -0.20727227D-06 -0.28415384D-06
  0.54479164D-06  0.11578614D-05 -0.43770400D-05 -0.14154235D-04 -0.49226278D-05
  0.48148661D-04  0.10739647D-03 -0.71265032D-04  0.82837701D-04 -0.29138274D-03
  0.76397471D-04 -0.10783174D-02 -0.15472246D-02 -0.20486683D-02 -0.23658553D-02
 -0.21935940D-02 -0.14205420D-02 -0.50125133D-03 -0.57756113D-04  0.94355745D-07
  0.25615831D+00  0.36754894D+00  0.48666876D+00  0.56201771D+00  0.52109640D+00
  0.33745504D+00  0.11907412D+00  0.13720179D-01 -0.22414558D-04  0.32137235D+00
  0.46112136D+00  0.61056729D+00  0.70509895D+00  0.65375970D+00  0.42336601D+00
  0.14938859D+00  0.17213130D-01 -0.28120966D-04  0.60707440D-05 -0.17308773D-04