 br2cs-wavefunction
GAUSSIAN            214 MOL ORBITALS    620 PRIMITIVES        4 NUCLEI
  C    1    (CENTRE  1)   0.00000000  0.00000000 -0.98162013  CHARGE =  6.0
  S    2    (CENTRE  2)   0.00000000  0.00000000  2.02898383  CHARGE = 16.0
  Br   3    (CENTRE  3)   0.00000000 -2.96406568 -2.98306498  CHARGE = 35.0
  Br   4    (CENTRE  4)   0.00000000  2.96406568 -2.98306498  CHARGE = 35.0
CENTRE ASSIGNMENTS    1  1  1  1  1  1  1  1  1  1  1  1  1  1  1  1  1  1  1  1
CENTRE ASSIGNMENTS    1  1  1  1  1  1  1  1  1  1  1  1  1  1  1  1  1  1  1  1
CENTRE ASSIGNMENTS    1  1  1  1  1  1  1  1  1  1  1  1  1  1  1  1  1  1  1  1
CENTRE ASSIGNMENTS    1  1  1  1  1  1  1  1  1  1  1  1  2  2  2  2  2  2  2  2
CENTRE ASSIGNMENTS    2  2  2  2  2  2  2  2  2  2  2  2  2  2  2  2  2  2  2  2
CENTRE ASSIGNMENTS    2  2  2  2  2  2  2  2  2  2  2  2  2  2  2  2  2  2  2  2
CENTRE ASSIGNMENTS    2  2  2  2  2  2  2  2  2  2  2  2  2  2  2  2  2  2  2  2
CENTRE ASSIGNMENTS    2  2  2  2  2  2  2  2  2  2  2  2  2  2  2  2  2  2  2  2
CENTRE ASSIGNMENTS    2  2  2  2  2  2  2  2  2  2  2  2  2  2  2  2  2  2  2  2
CENTRE ASSIGNMENTS    2  2  2  2  2  2  3  3  3  3  3  3  3  3  3  3  3  3  3  3
CENTRE ASSIGNMENTS    3  3  3  3  3  3  3  3  3  3  3  3  3  3  3  3  3  3  3  3
CENTRE ASSIGNMENTS    3  3  3  3  3  3  3  3  3  3  3  3  3  3  3  3  3  3  3  3
CENTRE ASSIGNMENTS    3  3  3  3  3  3  3  3  3  3  3  3  3  3  3  3  3  3  3  3
CENTRE ASSIGNMENTS    3  3  3  3  3  3  3  3  3  3  3  3  3  3  3  3  3  3  3  3
CENTRE ASSIGNMENTS    3  3  3  3  3  3  3  3  3  3  3  3  3  3  3  3  3  3  3  3
CENTRE ASSIGNMENTS    3  3  3  3  3  3  3  3  3  3  3  3  3  3  3  3  3  3  3  3
CENTRE ASSIGNMENTS    3  3  3  3  3  3  3  3  3  3  3  3  3  3  3  3  3  3  3  3
CENTRE ASSIGNMENTS    3  3  3  3  3  3  3  3  3  3  3  3  3  3  3  3  3  3  3  3
CENTRE ASSIGNMENTS    3  3  3  3  3  3  3  3  3  3  3  3  3  3  3  3  3  3  3  3
CENTRE ASSIGNMENTS    3  3  3  3  3  3  3  3  3  3  3  3  3  3  3  3  3  3  3  3
CENTRE ASSIGNMENTS    3  3  3  4  4  4  4  4  4  4  4  4  4  4  4  4  4  4  4  4
CENTRE ASSIGNMENTS    4  4  4  4  4  4  4  4  4  4  4  4  4  4  4  4  4  4  4  4
CENTRE ASSIGNMENTS    4  4  4  4  4  4  4  4  4  4  4  4  4  4  4  4  4  4  4  4
CENTRE ASSIGNMENTS    4  4  4  4  4  4  4  4  4  4  4  4  4  4  4  4  4  4  4  4
CENTRE ASSIGNMENTS    4  4  4  4  4  4  4  4  4  4  4  4  4  4  4  4  4  4  4  4
CENTRE ASSIGNMENTS    4  4  4  4  4  4  4  4  4  4  4  4  4  4  4  4  4  4  4  4
CENTRE ASSIGNMENTS    4  4  4  4  4  4  4  4  4  4  4  4  4  4  4  4  4  4  4  4
CENTRE ASSIGNMENTS    4  4  4  4  4  4  4  4  4  4  4  4  4  4  4  4  4  4  4  4
CENTRE ASSIGNMENTS    4  4  4  4  4  4  4  4  4  4  4  4  4  4  4  4  4  4  4  4
CENTRE ASSIGNMENTS    4  4  4  4  4  4  4  4  4  4  4  4  4  4  4  4  4  4  4  4
CENTRE ASSIGNMENTS    4  4  4  4  4  4  4  4  4  4  4  4  4  4  4  4  4  4  4  4
TYPE ASSIGNMENTS      1  1  1  1  1  1  1  1  1  1  1  1  1  1  1  1  2  2  2  3
TYPE ASSIGNMENTS      3  3  4  4  4  2  3  4  2  3  4  2  3  4  5  6  7  8  9 10
TYPE ASSIGNMENTS      5  6  7  8  9 10  5  6  7  8  9 10 11 12 13 17 14 15 18 19
TYPE ASSIGNMENTS     16 20 11 12 13 17 14 15 18 19 16 20  1  1  1  1  1  1  1  1
TYPE ASSIGNMENTS      1  1  1  1  1  1  1  1  1  1  1  1  1  1  1  1  1  1  1  1
TYPE ASSIGNMENTS      1  1  1  2  2  2  2  2  2  3  3  3  3  3  3  4  4  4  4  4
TYPE ASSIGNMENTS      4  2  2  2  2  2  2  3  3  3  3  3  3  4  4  4  4  4  4  2
TYPE ASSIGNMENTS      3  4  2  3  4  2  3  4  5  6  7  8  9 10  5  6  7  8  9 10
TYPE ASSIGNMENTS      5  6  7  8  9 10 11 12 13 17 14 15 18 19 16 20 11 12 13 17
TYPE ASSIGNMENTS     14 15 18 19 16 20  1  1  1  1  1  1  1  1  1  1  1  1  1  1
TYPE ASSIGNMENTS      1  1  1  1  1  1  1  1  1  1  1  1  1  1  1  1  1  1  1  1
TYPE ASSIGNMENTS      1  1  1  1  1  1  1  1  1  1  1  1  1  1  1  1  2  2  2  2
TYPE ASSIGNMENTS      2  2  2  2  2  3  3  3  3  3  3  3  3  3  4  4  4  4  4  4
TYPE ASSIGNMENTS      4  4  4  2  2  2  2  2  2  2  2  2  3  3  3  3  3  3  3  3
TYPE ASSIGNMENTS      3  4  4  4  4  4  4  4  4  4  2  2  2  2  2  2  2  2  3  3
TYPE ASSIGNMENTS      3  3  3  3  3  3  4  4  4  4  4  4  4  4  2  3  4  2  3  4
TYPE ASSIGNMENTS      2  3  4  5  5  5  5  5  5  5  6  6  6  6  6  6  6  7  7  7
TYPE ASSIGNMENTS      7  7  7  7  8  8  8  8  8  8  8  9  9  9  9  9  9  9 10 10
TYPE ASSIGNMENTS     10 10 10 10 10  5  6  7  8  9 10  5  6  7  8  9 10  5  6  7
TYPE ASSIGNMENTS      8  9 10 11 12 13 17 14 15 18 19 16 20 11 12 13 17 14 15 18
TYPE ASSIGNMENTS     19 16 20  1  1  1  1  1  1  1  1  1  1  1  1  1  1  1  1  1
TYPE ASSIGNMENTS      1  1  1  1  1  1  1  1  1  1  1  1  1  1  1  1  1  1  1  1
TYPE ASSIGNMENTS      1  1  1  1  1  1  1  1  1  1  1  1  1  2  2  2  2  2  2  2
TYPE ASSIGNMENTS      2  2  3  3  3  3  3  3  3  3  3  4  4  4  4  4  4  4  4  4
TYPE ASSIGNMENTS      2  2  2  2  2  2  2  2  2  3  3  3  3  3  3  3  3  3  4  4
TYPE ASSIGNMENTS      4  4  4  4  4  4  4  2  2  2  2  2  2  2  2  3  3  3  3  3
TYPE ASSIGNMENTS      3  3  3  4  4  4  4  4  4  4  4  2  3  4  2  3  4  2  3  4
TYPE ASSIGNMENTS      5  5  5  5  5  5  5  6  6  6  6  6  6  6  7  7  7  7  7  7
TYPE ASSIGNMENTS      7  8  8  8  8  8  8  8  9  9  9  9  9  9  9 10 10 10 10 10
TYPE ASSIGNMENTS     10 10  5  6  7  8  9 10  5  6  7  8  9 10  5  6  7  8  9 10
TYPE ASSIGNMENTS     11 12 13 17 14 15 18 19 16 20 11 12 13 17 14 15 18 19 16 20
EXPONENTS  0.8236000D+04 0.1235000D+04 0.2808000D+03 0.7927000D+02 0.2559000D+02
EXPONENTS  0.8997000D+01 0.3319000D+01 0.2808000D+03 0.7927000D+02 0.2559000D+02
EXPONENTS  0.8997000D+01 0.3319000D+01 0.3643000D+00 0.9059000D+00 0.1285000D+00
EXPONENTS  0.4402000D-01 0.1871000D+02 0.4133000D+01 0.1200000D+01 0.1871000D+02
EXPONENTS  0.4133000D+01 0.1200000D+01 0.1871000D+02 0.4133000D+01 0.1200000D+01
EXPONENTS  0.3827000D+00 0.3827000D+00 0.3827000D+00 0.1209000D+00 0.1209000D+00
EXPONENTS  0.1209000D+00 0.3569000D-01 0.3569000D-01 0.3569000D-01 0.1097000D+01
EXPONENTS  0.1097000D+01 0.1097000D+01 0.1097000D+01 0.1097000D+01 0.1097000D+01
EXPONENTS  0.3180000D+00 0.3180000D+00 0.3180000D+00 0.3180000D+00 0.3180000D+00
EXPONENTS  0.3180000D+00 0.1000000D+00 0.1000000D+00 0.1000000D+00 0.1000000D+00
EXPONENTS  0.1000000D+00 0.1000000D+00 0.7610000D+00 0.7610000D+00 0.7610000D+00
EXPONENTS  0.7610000D+00 0.7610000D+00 0.7610000D+00 0.7610000D+00 0.7610000D+00
EXPONENTS  0.7610000D+00 0.7610000D+00 0.2680000D+00 0.2680000D+00 0.2680000D+00
EXPONENTS  0.2680000D+00 0.2680000D+00 0.2680000D+00 0.2680000D+00 0.2680000D+00
EXPONENTS  0.2680000D+00 0.2680000D+00 0.3741000D+06 0.5605000D+05 0.1276000D+05
EXPONENTS  0.3615000D+04 0.1183000D+04 0.4288000D+03 0.1678000D+03 0.6947000D+02
EXPONENTS  0.2984000D+02 0.1272000D+02 0.5244000D+01 0.3615000D+04 0.1183000D+04
EXPONENTS  0.4288000D+03 0.1678000D+03 0.6947000D+02 0.2984000D+02 0.1272000D+02
EXPONENTS  0.5244000D+01 0.2219000D+01 0.1183000D+04 0.1678000D+03 0.6947000D+02
EXPONENTS  0.2984000D+02 0.1272000D+02 0.5244000D+01 0.2219000D+01 0.3490000D+00
EXPONENTS  0.7767000D+00 0.1322000D+00 0.4970000D-01 0.5744000D+03 0.1358000D+03
EXPONENTS  0.4319000D+02 0.1587000D+02 0.6208000D+01 0.2483000D+01 0.5744000D+03
EXPONENTS  0.1358000D+03 0.4319000D+02 0.1587000D+02 0.6208000D+01 0.2483000D+01
EXPONENTS  0.5744000D+03 0.1358000D+03 0.4319000D+02 0.1587000D+02 0.6208000D+01
EXPONENTS  0.2483000D+01 0.1358000D+03 0.4319000D+02 0.1587000D+02 0.6208000D+01
EXPONENTS  0.2483000D+01 0.3229000D+00 0.1358000D+03 0.4319000D+02 0.1587000D+02
EXPONENTS  0.6208000D+01 0.2483000D+01 0.3229000D+00 0.1358000D+03 0.4319000D+02
EXPONENTS  0.1587000D+02 0.6208000D+01 0.2483000D+01 0.3229000D+00 0.8688000D+00
EXPONENTS  0.8688000D+00 0.8688000D+00 0.1098000D+00 0.1098000D+00 0.1098000D+00
EXPONENTS  0.3510000D-01 0.3510000D-01 0.3510000D-01 0.2690000D+00 0.2690000D+00
EXPONENTS  0.2690000D+00 0.2690000D+00 0.2690000D+00 0.2690000D+00 0.8190000D+00
EXPONENTS  0.8190000D+00 0.8190000D+00 0.8190000D+00 0.8190000D+00 0.8190000D+00
EXPONENTS  0.1010000D+00 0.1010000D+00 0.1010000D+00 0.1010000D+00 0.1010000D+00
EXPONENTS  0.1010000D+00 0.5570000D+00 0.5570000D+00 0.5570000D+00 0.5570000D+00
EXPONENTS  0.5570000D+00 0.5570000D+00 0.5570000D+00 0.5570000D+00 0.5570000D+00
EXPONENTS  0.5570000D+00 0.2180000D+00 0.2180000D+00 0.2180000D+00 0.2180000D+00
EXPONENTS  0.2180000D+00 0.2180000D+00 0.2180000D+00 0.2180000D+00 0.2180000D+00
EXPONENTS  0.2180000D+00 0.1063900D+08 0.1593400D+07 0.3626100D+06 0.1027000D+06
EXPONENTS  0.3350100D+05 0.1209300D+05 0.4715900D+04 0.1955600D+04 0.8526100D+03
EXPONENTS  0.3876700D+03 0.1826800D+03 0.8824500D+02 0.3926300D+02 0.9405700D+01
EXPONENTS  0.1899500D+01 0.3350100D+05 0.1209300D+05 0.4715900D+04 0.1955600D+04
EXPONENTS  0.8526100D+03 0.3876700D+03 0.1826800D+03 0.8824500D+02 0.3926300D+02
EXPONENTS  0.1923400D+02 0.9405700D+01 0.1899500D+01 0.4715900D+04 0.8526100D+03
EXPONENTS  0.3876700D+03 0.1826800D+03 0.8824500D+02 0.3926300D+02 0.1923400D+02
EXPONENTS  0.9405700D+01 0.4160100D+01 0.1899500D+01 0.4715900D+04 0.8526100D+03
EXPONENTS  0.3876700D+03 0.8824500D+02 0.3926300D+02 0.1923400D+02 0.9405700D+01
EXPONENTS  0.4160100D+01 0.1899500D+01 0.3011400D+00 0.6047200D+00 0.1251500D+00
EXPONENTS  0.4559300D-01 0.8676500D+04 0.2055900D+04 0.6662300D+03 0.2531000D+03
EXPONENTS  0.1061200D+03 0.4724200D+02 0.2182500D+02 0.9968400D+01 0.1998200D+01
EXPONENTS  0.8676500D+04 0.2055900D+04 0.6662300D+03 0.2531000D+03 0.1061200D+03
EXPONENTS  0.4724200D+02 0.2182500D+02 0.9968400D+01 0.1998200D+01 0.8676500D+04
EXPONENTS  0.2055900D+04 0.6662300D+03 0.2531000D+03 0.1061200D+03 0.4724200D+02
EXPONENTS  0.2182500D+02 0.9968400D+01 0.1998200D+01 0.8676500D+04 0.6662300D+03
EXPONENTS  0.2531000D+03 0.1061200D+03 0.4724200D+02 0.2182500D+02 0.9968400D+01
EXPONENTS  0.4517100D+01 0.1998200D+01 0.8676500D+04 0.6662300D+03 0.2531000D+03
EXPONENTS  0.1061200D+03 0.4724200D+02 0.2182500D+02 0.9968400D+01 0.4517100D+01
EXPONENTS  0.1998200D+01 0.8676500D+04 0.6662300D+03 0.2531000D+03 0.1061200D+03
EXPONENTS  0.4724200D+02 0.2182500D+02 0.9968400D+01 0.4517100D+01 0.1998200D+01
EXPONENTS  0.6662300D+03 0.1061200D+03 0.4724200D+02 0.2182500D+02 0.9968400D+01
EXPONENTS  0.4517100D+01 0.1998200D+01 0.2814500D+00 0.6662300D+03 0.1061200D+03
EXPONENTS  0.4724200D+02 0.2182500D+02 0.9968400D+01 0.4517100D+01 0.1998200D+01
EXPONENTS  0.2814500D+00 0.6662300D+03 0.1061200D+03 0.4724200D+02 0.2182500D+02
EXPONENTS  0.9968400D+01 0.4517100D+01 0.1998200D+01 0.2814500D+00 0.7098800D+00
EXPONENTS  0.7098800D+00 0.7098800D+00 0.1020400D+00 0.1020400D+00 0.1020400D+00
EXPONENTS  0.3514200D-01 0.3514200D-01 0.3514200D-01 0.4038300D+03 0.1211700D+03
EXPONENTS  0.4634500D+02 0.1972100D+02 0.8862400D+01 0.3996200D+01 0.1763600D+01
EXPONENTS  0.4038300D+03 0.1211700D+03 0.4634500D+02 0.1972100D+02 0.8862400D+01
EXPONENTS  0.3996200D+01 0.1763600D+01 0.4038300D+03 0.1211700D+03 0.4634500D+02
EXPONENTS  0.1972100D+02 0.8862400D+01 0.3996200D+01 0.1763600D+01 0.4038300D+03
EXPONENTS  0.1211700D+03 0.4634500D+02 0.1972100D+02 0.8862400D+01 0.3996200D+01
EXPONENTS  0.1763600D+01 0.4038300D+03 0.1211700D+03 0.4634500D+02 0.1972100D+02
EXPONENTS  0.8862400D+01 0.3996200D+01 0.1763600D+01 0.4038300D+03 0.1211700D+03
EXPONENTS  0.4634500D+02 0.1972100D+02 0.8862400D+01 0.3996200D+01 0.1763600D+01
EXPONENTS  0.7061900D+00 0.7061900D+00 0.7061900D+00 0.7061900D+00 0.7061900D+00
EXPONENTS  0.7061900D+00 0.2639000D+00 0.2639000D+00 0.2639000D+00 0.2639000D+00
EXPONENTS  0.2639000D+00 0.2639000D+00 0.1047000D+00 0.1047000D+00 0.1047000D+00
EXPONENTS  0.1047000D+00 0.1047000D+00 0.1047000D+00 0.5515000D+00 0.5515000D+00
EXPONENTS  0.5515000D+00 0.5515000D+00 0.5515000D+00 0.5515000D+00 0.5515000D+00
EXPONENTS  0.5515000D+00 0.5515000D+00 0.5515000D+00 0.2580000D+00 0.2580000D+00
EXPONENTS  0.2580000D+00 0.2580000D+00 0.2580000D+00 0.2580000D+00 0.2580000D+00
EXPONENTS  0.2580000D+00 0.2580000D+00 0.2580000D+00 0.1063900D+08 0.1593400D+07
EXPONENTS  0.3626100D+06 0.1027000D+06 0.3350100D+05 0.1209300D+05 0.4715900D+04
EXPONENTS  0.1955600D+04 0.8526100D+03 0.3876700D+03 0.1826800D+03 0.8824500D+02
EXPONENTS  0.3926300D+02 0.9405700D+01 0.1899500D+01 0.3350100D+05 0.1209300D+05
EXPONENTS  0.4715900D+04 0.1955600D+04 0.8526100D+03 0.3876700D+03 0.1826800D+03
EXPONENTS  0.8824500D+02 0.3926300D+02 0.1923400D+02 0.9405700D+01 0.1899500D+01
EXPONENTS  0.4715900D+04 0.8526100D+03 0.3876700D+03 0.1826800D+03 0.8824500D+02
EXPONENTS  0.3926300D+02 0.1923400D+02 0.9405700D+01 0.4160100D+01 0.1899500D+01
EXPONENTS  0.4715900D+04 0.8526100D+03 0.3876700D+03 0.8824500D+02 0.3926300D+02
EXPONENTS  0.1923400D+02 0.9405700D+01 0.4160100D+01 0.1899500D+01 0.3011400D+00
EXPONENTS  0.6047200D+00 0.1251500D+00 0.4559300D-01 0.8676500D+04 0.2055900D+04
EXPONENTS  0.6662300D+03 0.2531000D+03 0.1061200D+03 0.4724200D+02 0.2182500D+02
EXPONENTS  0.9968400D+01 0.1998200D+01 0.8676500D+04 0.2055900D+04 0.6662300D+03
EXPONENTS  0.2531000D+03 0.1061200D+03 0.4724200D+02 0.2182500D+02 0.9968400D+01
EXPONENTS  0.1998200D+01 0.8676500D+04 0.2055900D+04 0.6662300D+03 0.2531000D+03
EXPONENTS  0.1061200D+03 0.4724200D+02 0.2182500D+02 0.9968400D+01 0.1998200D+01
EXPONENTS  0.8676500D+04 0.6662300D+03 0.2531000D+03 0.1061200D+03 0.4724200D+02
EXPONENTS  0.2182500D+02 0.9968400D+01 0.4517100D+01 0.1998200D+01 0.8676500D+04
EXPONENTS  0.6662300D+03 0.2531000D+03 0.1061200D+03 0.4724200D+02 0.2182500D+02
EXPONENTS  0.9968400D+01 0.4517100D+01 0.1998200D+01 0.8676500D+04 0.6662300D+03
EXPONENTS  0.2531000D+03 0.1061200D+03 0.4724200D+02 0.2182500D+02 0.9968400D+01
EXPONENTS  0.4517100D+01 0.1998200D+01 0.6662300D+03 0.1061200D+03 0.4724200D+02
EXPONENTS  0.2182500D+02 0.9968400D+01 0.4517100D+01 0.1998200D+01 0.2814500D+00
EXPONENTS  0.6662300D+03 0.1061200D+03 0.4724200D+02 0.2182500D+02 0.9968400D+01
EXPONENTS  0.4517100D+01 0.1998200D+01 0.2814500D+00 0.6662300D+03 0.1061200D+03
EXPONENTS  0.4724200D+02 0.2182500D+02 0.9968400D+01 0.4517100D+01 0.1998200D+01
EXPONENTS  0.2814500D+00 0.7098800D+00 0.7098800D+00 0.7098800D+00 0.1020400D+00
EXPONENTS  0.1020400D+00 0.1020400D+00 0.3514200D-01 0.3514200D-01 0.3514200D-01
EXPONENTS  0.4038300D+03 0.1211700D+03 0.4634500D+02 0.1972100D+02 0.8862400D+01
EXPONENTS  0.3996200D+01 0.1763600D+01 0.4038300D+03 0.1211700D+03 0.4634500D+02
EXPONENTS  0.1972100D+02 0.8862400D+01 0.3996200D+01 0.1763600D+01 0.4038300D+03
EXPONENTS  0.1211700D+03 0.4634500D+02 0.1972100D+02 0.8862400D+01 0.3996200D+01
EXPONENTS  0.1763600D+01 0.4038300D+03 0.1211700D+03 0.4634500D+02 0.1972100D+02
EXPONENTS  0.8862400D+01 0.3996200D+01 0.1763600D+01 0.4038300D+03 0.1211700D+03
EXPONENTS  0.4634500D+02 0.1972100D+02 0.8862400D+01 0.3996200D+01 0.1763600D+01
EXPONENTS  0.4038300D+03 0.1211700D+03 0.4634500D+02 0.1972100D+02 0.8862400D+01
EXPONENTS  0.3996200D+01 0.1763600D+01 0.7061900D+00 0.7061900D+00 0.7061900D+00
EXPONENTS  0.7061900D+00 0.7061900D+00 0.7061900D+00 0.2639000D+00 0.2639000D+00
EXPONENTS  0.2639000D+00 0.2639000D+00 0.2639000D+00 0.2639000D+00 0.1047000D+00
EXPONENTS  0.1047000D+00 0.1047000D+00 0.1047000D+00 0.1047000D+00 0.1047000D+00
EXPONENTS  0.5515000D+00 0.5515000D+00 0.5515000D+00 0.5515000D+00 0.5515000D+00
EXPONENTS  0.5515000D+00 0.5515000D+00 0.5515000D+00 0.5515000D+00 0.5515000D+00
EXPONENTS  0.2580000D+00 0.2580000D+00 0.2580000D+00 0.2580000D+00 0.2580000D+00
EXPONENTS  0.2580000D+00 0.2580000D+00 0.2580000D+00 0.2580000D+00 0.2580000D+00
MO    1     MO 0.0        OCC NO =    2.0000284  ORB. ENERGY =    0.000000
 -0.24235579D-10 -0.45180002D-10 -0.76360359D-10 -0.11478386D-09 -0.14099142D-09
 -0.11899178D-09 -0.44744017D-10 -0.43100438D-14 -0.32214907D-13 -0.12039446D-12
 -0.33588181D-12 -0.44998902D-12  0.53135313D-12 -0.18363862D-11 -0.84794815D-12
 -0.11664408D-12  0.16539621D-12  0.15506946D-12  0.11041869D-12 -0.26914683D-02
 -0.25234226D-02 -0.17968272D-02  0.10332703D-11  0.96875662D-12  0.68981242D-12
  0.10700030D-13 -0.56452325D-03 -0.13020507D-12 -0.10426460D-13  0.12976022D-02
 -0.68822554D-12  0.23080023D-14  0.81858692D-04 -0.14255478D-13  0.61177956D-13
 -0.30540818D-13 -0.30637138D-13 -0.30574689D-14  0.63781907D-13 -0.12167550D-02
  0.46470188D-13  0.75539772D-13 -0.12200996D-12  0.68939379D-14 -0.25567182D-13
  0.17063952D-04  0.83659066D-14  0.57101847D-13 -0.65467753D-13 -0.56753508D-15
  0.71508002D-14 -0.32476908D-03 -0.68242802D-14  0.11188804D-03  0.23856825D-14
  0.47792346D-15  0.27978972D-03 -0.51786543D-13  0.19994917D-13 -0.61545384D-03
  0.44629495D-13  0.96787210D-14  0.48339754D-14 -0.68445777D-04  0.13517071D-14
  0.56611396D-15 -0.13891745D-03  0.38425226D-13 -0.15068040D-13  0.34425478D-03
 -0.42480347D-13 -0.53072834D-14 -0.84592813D-10 -0.15815478D-09 -0.27333847D-09
 -0.44211372D-09 -0.66824008D-09 -0.92030495D-09 -0.10757244D-08 -0.92971378D-09
 -0.43390226D-09 -0.58784236D-10  0.42995637D-12 -0.67022119D-12 -0.86156260D-11
 -0.31428565D-10 -0.10603920D-09 -0.23290966D-09 -0.30085576D-09  0.48350080D-10
  0.40559970D-09  0.22258788D-09 -0.54829013D-14 -0.62453654D-13 -0.12967630D-12
 -0.35657689D-12  0.46234289D-13  0.16122783D-11  0.40212781D-11 -0.33287558D-11
  0.12434281D-10  0.11620149D-11  0.16001934D-12 -0.65142602D-09 -0.85463389D-09
 -0.93734842D-09 -0.77122204D-09 -0.40654441D-09 -0.10577521D-09  0.97051497D+01
  0.12732604D+02  0.13964911D+02  0.11489908D+02  0.60568264D+01  0.15758723D+01
  0.27690710D-08  0.36328637D-08  0.39844652D-08  0.32782979D-08  0.17281323D-08
  0.44962751D-09 -0.38105231D-14 -0.13678113D-12 -0.21700669D-12 -0.25768879D-12
 -0.38995106D-13  0.28379908D-12  0.88909335D-04  0.31914567D-02  0.50633261D-02
  0.60125444D-02  0.90985644D-03 -0.66217647D-02  0.26938624D-13  0.96697889D-12
  0.15341363D-11  0.18217397D-11  0.27567724D-12 -0.20063273D-11 -0.49652871D-11
  0.67353937D-01  0.20438604D-10 -0.73141381D-14 -0.31775846D-03 -0.45793046D-12
  0.24847174D-17 -0.28281606D-04 -0.44480229D-14 -0.11701154D-12 -0.68109920D-13
  0.18512146D-12  0.16371636D-14 -0.42090119D-13  0.77780173D-03  0.81251167D-13
 -0.16868349D-12  0.87432326D-13 -0.22821939D-14  0.29847983D-13 -0.71471551D-03
 -0.48660711D-14 -0.17915389D-13  0.22781460D-13  0.18832588D-15  0.29892171D-14
 -0.41162552D-04 -0.73289108D-14  0.31673007D-05 -0.35625131D-13  0.47174325D-14
  0.13919000D-03  0.10625218D-12  0.17269300D-13 -0.14869190D-03  0.62321142D-15
  0.35809034D-15 -0.56479133D-15  0.32255391D-04 -0.93268767D-14 -0.18863017D-14
  0.29708888D-05  0.71561345D-14  0.35806756D-14 -0.99737062D-04  0.20824496D-13
 -0.84996187D-15  0.38623616D-03  0.72656840D-03  0.12577270D-02  0.20616560D-02
  0.32296156D-02  0.48543751D-02  0.69380432D-02  0.92102373D-02  0.10725987D-01
  0.98505779D-02  0.57583096D-02  0.15109468D-02  0.85905721D-04  0.14989625D-05
  0.15088762D-06  0.19383327D-04  0.55993966D-04  0.25663350D-03  0.75969105D-03
  0.22031262D-02  0.45794012D-02  0.65508878D-02  0.18783488D-02 -0.75061333D-02
 -0.72577047D-02 -0.15841050D-02  0.22929440D-04  0.12663677D-04  0.59078673D-04
  0.11989578D-03  0.46989242D-03  0.32973464D-03 -0.21473568D-02 -0.66539214D-02
 -0.81392360D-03  0.58165372D-02  0.27297007D-02 -0.97439456D-06 -0.13358176D-05
  0.25610855D-05  0.54431488D-05 -0.20576625D-04 -0.66539579D-04 -0.23141454D-04
  0.22634862D-03  0.50487476D-03 -0.33501953D-03 -0.52670967D-04  0.15487462D-02
  0.48338112D-03 -0.28152740D-08 -0.40394980D-08 -0.53486686D-08 -0.61767813D-08
 -0.57270411D-08 -0.37087549D-08 -0.13086683D-08 -0.15078981D-09  0.24634423D-12
  0.11859783D+01  0.17017018D+01  0.22532105D+01  0.26020659D+01  0.24126058D+01
  0.15623712D+01  0.55129704D+00  0.63522573D-01 -0.10377637D-03  0.10316014D+01
  0.14801941D+01  0.19599137D+01  0.22633592D+01  0.20985608D+01  0.13589998D+01
  0.47953560D+00  0.55253942D-01 -0.90267967D-04 -0.49901234D-11  0.14227731D-10
  0.69447384D-10  0.14390819D-09  0.18059057D-09  0.28638416D-10 -0.23181830D-09
 -0.20217917D-09 -0.51973164D-10 -0.71967378D-02  0.20519182D-01  0.10015676D+00
  0.20754386D+00  0.26044706D+00  0.41302219D-01 -0.33432751D+00 -0.29158206D+00
 -0.74955508D-01 -0.63759020D-02  0.18178832D-01  0.88733219D-01  0.18387210D+00
  0.23074134D+00  0.36591427D-01 -0.29619523D+00 -0.25832519D+00 -0.66406334D-01
  0.15084892D-13  0.21311014D-13 -0.99159036D-14  0.19871564D-13  0.21814530D-13
  0.58884253D-13  0.18555984D-13 -0.39840092D-13 -0.72023729D-04 -0.10175072D-03
  0.47344079D-04 -0.94877982D-04 -0.10415479D-03 -0.28114642D-03 -0.88596664D-04
  0.19021892D-03  0.58242210D-04  0.82281034D-04 -0.38284935D-04  0.76723372D-04
  0.84225089D-04  0.22734992D-03  0.71643965D-04 -0.15382112D-03 -0.17085166D-11
 -0.31053003D-02 -0.28809323D-02 -0.11823764D-13  0.38669521D-03  0.16698588D-03
 -0.60359618D-15  0.14828195D-04  0.12442134D-04  0.14656901D+00  0.15336867D+00
  0.13067832D+00  0.86061553D-01  0.39663207D-01  0.11877212D-01  0.20208069D-02
 -0.14795242D+00 -0.15481626D+00 -0.13191174D+00 -0.86873854D-01 -0.40037573D-01
 -0.11989316D-01 -0.20398805D-02  0.13834073D-02  0.14475867D-02  0.12334213D-02
  0.81230119D-03  0.37436543D-03  0.11210434D-03  0.19073602D-04  0.36047537D-10
  0.37719864D-10  0.32139343D-10  0.21166187D-10  0.97548654D-11  0.29211102D-11
  0.49700214D-12  0.40967748D-10  0.42868335D-10  0.36526115D-10  0.24055208D-10
  0.11086329D-10  0.33198193D-11  0.56483910D-12 -0.47472720D+00 -0.49675086D+00
 -0.42325832D+00 -0.27874760D+00 -0.12846647D+00 -0.38469493D-01 -0.65452580D-02
  0.62104614D-04 -0.11570207D-03  0.53597453D-04  0.17782542D-13  0.32736995D-13
 -0.34548066D-03 -0.54311196D-04  0.55580406D-04 -0.12692106D-05  0.96670165D-14
  0.34947747D-14  0.92817268D-04 -0.15610033D-04  0.18721883D-04 -0.31118500D-05
  0.23541682D-14  0.10286177D-14  0.64089065D-04  0.48092617D-14  0.27300211D-04
  0.32943056D-04 -0.15045572D-13 -0.52968430D-04 -0.41878473D-04  0.61778673D-15
 -0.28932203D-04 -0.56950696D-04 -0.20981992D-13 -0.16087069D-14 -0.18735358D-05
 -0.13999677D-05  0.52886605D-14  0.13361175D-04  0.30282139D-05 -0.46253979D-15
 -0.77405675D-05  0.11716891D-05  0.46651239D-14 -0.38623619D-03 -0.72656845D-03
 -0.12577271D-02 -0.20616562D-02 -0.32296159D-02 -0.48543754D-02 -0.69380437D-02
 -0.92102379D-02 -0.10725987D-01 -0.98505786D-02 -0.57583100D-02 -0.15109470D-02
 -0.85905727D-04 -0.14989626D-05 -0.15088763D-06 -0.19383327D-04 -0.55993964D-04
 -0.25663349D-03 -0.75969103D-03 -0.22031261D-02 -0.45794010D-02 -0.65508876D-02
 -0.18783487D-02  0.75061330D-02  0.72577044D-02  0.15841049D-02 -0.22929440D-04
 -0.12663677D-04 -0.59078673D-04 -0.11989578D-03 -0.46989242D-03 -0.32973464D-03
  0.21473568D-02  0.66539214D-02  0.81392360D-03 -0.58165371D-02 -0.27297007D-02
  0.97439456D-06  0.13358176D-05 -0.25610855D-05 -0.54431488D-05  0.20576625D-04
  0.66539579D-04  0.23141454D-04 -0.22634862D-03 -0.50487476D-03  0.33501953D-03
  0.52670967D-04 -0.15487462D-02 -0.48338112D-03 -0.48492022D-08 -0.69578813D-08
 -0.92128778D-08 -0.10639270D-07 -0.98646100D-08 -0.63881890D-08 -0.22541313D-08
 -0.25972971D-09  0.42431855D-12  0.11859783D+01  0.17017018D+01  0.22532105D+01
  0.26020659D+01  0.24126058D+01  0.15623712D+01  0.55129704D+00  0.63522573D-01
 -0.10377637D-03 -0.10316014D+01 -0.14801941D+01 -0.19599137D+01 -0.22633592D+01
 -0.20985608D+01 -0.13589998D+01 -0.47953560D+00 -0.55253942D-01  0.90267966D-04
 -0.27743270D-11  0.79101005D-11  0.38610218D-10  0.80007713D-10  0.10040178D-09
  0.15921917D-10 -0.12888254D-09 -0.11240426D-09 -0.28895187D-10 -0.71967378D-02
  0.20519182D-01  0.10015676D+00  0.20754386D+00  0.26044706D+00  0.41302219D-01
 -0.33432751D+00 -0.29158206D+00 -0.74955508D-01  0.63759020D-02 -0.18178832D-01
 -0.88733219D-01 -0.18387210D+00 -0.23074134D+00 -0.36591427D-01  0.29619523D+00
  0.25832519D+00  0.66406334D-01  0.13213350D-13  0.18667014D-13 -0.86856641D-14
  0.17406153D-13  0.19108060D-13  0.51578642D-13  0.16253793D-13 -0.34897239D-13
 -0.72023729D-04 -0.10175072D-03  0.47344079D-04 -0.94877982D-04 -0.10415479D-03
 -0.28114642D-03 -0.88596665D-04  0.19021892D-03 -0.58242210D-04 -0.82281034D-04
  0.38284935D-04 -0.76723372D-04 -0.84225089D-04 -0.22734991D-03 -0.71643965D-04
  0.15382112D-03 -0.89707279D-12 -0.31053003D-02  0.28809323D-02 -0.11389274D-14
  0.38669521D-03 -0.16698588D-03 -0.81871529D-15  0.14828195D-04 -0.12442134D-04
 -0.14656901D+00 -0.15336867D+00 -0.13067832D+00 -0.86061553D-01 -0.39663207D-01
 -0.11877212D-01 -0.20208069D-02  0.14795242D+00  0.15481626D+00  0.13191174D+00
  0.86873854D-01  0.40037573D-01  0.11989316D-01  0.20398805D-02 -0.13834072D-02
 -0.14475866D-02 -0.12334212D-02 -0.81230112D-03 -0.37436540D-03 -0.11210433D-03
 -0.19073601D-04  0.12126249D-10  0.12688813D-10  0.10811548D-10  0.71202218D-11
  0.32814982D-11  0.98264995D-12  0.16718956D-12  0.98687550D-10  0.10326589D-09
  0.87988063D-10  0.57946792D-10  0.26705951D-10  0.79971402D-11  0.13606456D-11
 -0.47472720D+00 -0.49675086D+00 -0.42325832D+00 -0.27874760D+00 -0.12846647D+00
 -0.38469493D-01 -0.65452580D-02 -0.62104614D-04  0.11570207D-03 -0.53597453D-04
  0.12870634D-13  0.84308524D-13 -0.34548066D-03  0.54311196D-04 -0.55580406D-04
  0.12692106D-05 -0.37142603D-14  0.46787356D-15  0.92817268D-04  0.15610033D-04
 -0.18721883D-04  0.31118500D-05 -0.30492447D-14  0.14862493D-14  0.64089065D-04
  0.41279196D-14  0.27300211D-04 -0.32943056D-04 -0.11399507D-13 -0.52968430D-04
  0.41878473D-04 -0.98425179D-15 -0.28932203D-04  0.56950696D-04  0.13331837D-13
 -0.12513880D-14 -0.18735358D-05  0.13999677D-05  0.37734258D-14  0.13361175D-04
 -0.30282139D-05 -0.19261859D-16 -0.77405675D-05 -0.11716891D-05 -0.24554838D-14
MO    2     MO 0.0        OCC NO =    2.0000242  ORB. ENERGY =    0.000000
 -0.60662333D-01 -0.11308681D+00 -0.19113212D+00 -0.28730722D+00 -0.35290546D+00
 -0.29783976D+00 -0.11199553D+00 -0.10734902D-04 -0.80236745D-04 -0.29986304D-03
 -0.83657118D-03 -0.11207747D-02  0.13234260D-02 -0.46146230D-02 -0.18287007D-02
 -0.33487564D-03  0.22238192D-14  0.20849718D-14  0.14846242D-14  0.14966850D-11
  0.14032373D-11  0.99918856D-12  0.24333323D-02  0.22814037D-02  0.16244953D-02
  0.77787290D-14  0.37001857D-12 -0.21760089D-03  0.18683956D-13 -0.47483511D-12
 -0.98971484D-03  0.98177619D-15 -0.29057450D-13  0.41129707D-06  0.12498581D-03
  0.10973972D-04 -0.13595978D-03 -0.68093066D-14 -0.97731168D-14  0.51312074D-12
  0.11852938D-03  0.12804320D-03 -0.24657259D-03 -0.11985629D-13  0.67854590D-14
 -0.63278515D-13  0.24168431D-04  0.10161494D-03 -0.12578338D-03 -0.17367201D-14
  0.29287169D-14  0.11195532D-12  0.18879650D-14 -0.50217848D-13 -0.10391503D-04
 -0.47460799D-14 -0.11634705D-12 -0.92054688D-04 -0.91781517D-15  0.26700060D-12
  0.12322920D-03 -0.39017336D-14 -0.19281985D-14  0.30901489D-13  0.15546378D-04
  0.17147063D-14  0.56060073D-13  0.42886465D-04  0.40698893D-14 -0.14876454D-12
 -0.89525599D-04  0.48824499D-14 -0.12498421D+00 -0.23367056D+00 -0.40385218D+00
 -0.65321426D+00 -0.98731150D+00 -0.13597323D+01 -0.15893615D+01 -0.13736337D+01
 -0.64108201D+00 -0.86852545D-01  0.63525202D-03 -0.15572958D-02 -0.20018881D-01
 -0.73026002D-01 -0.24638792D+00 -0.54117843D+00 -0.69905492D+00  0.11234407D+00
  0.94243324D+00  0.51719520D+00 -0.12622155D-04 -0.14377419D-03 -0.29852705D-03
 -0.82087356D-03  0.10643568D-03  0.37116164D-02  0.92573608D-02 -0.76631092D-02
  0.28853922D-01  0.19035945D-02  0.14445880D-03  0.23266968D-10  0.30524938D-10
  0.33479251D-10  0.27545719D-10  0.14520537D-10  0.37779706D-11 -0.42843339D-08
 -0.56208024D-08 -0.61648038D-08 -0.50722148D-08 -0.26737833D-08 -0.69566811D-09
  0.63526830D+01  0.83343588D+01  0.91409879D+01  0.75209295D+01  0.39646064D+01
  0.10315160D+01  0.23878872D-15  0.85714720D-14  0.13598855D-13  0.16148223D-13
  0.24436518D-14 -0.17784440D-13 -0.38820095D-13 -0.13934718D-11 -0.22107780D-11
 -0.26252310D-11 -0.39726665D-12  0.28912322D-11  0.59498149D-04  0.21357236D-02
  0.33883791D-02  0.40235962D-02  0.60887616D-03 -0.44312866D-02  0.17727697D-12
 -0.29744691D-10  0.46793294D-01 -0.12217140D-13  0.16154365D-12 -0.79977924D-03
 -0.62880946D-15  0.10844168D-13 -0.54596764D-05 -0.25406605D-03 -0.13977182D-03
  0.39383787D-03 -0.13835728D-14  0.98971038D-14 -0.34870578D-12  0.20531702D-03
 -0.39642923D-03  0.19111221D-03 -0.78206192D-15 -0.56556315D-14  0.28798723D-12
 -0.58759046D-05 -0.31588117D-04  0.37464021D-04  0.47421259D-15  0.36408037D-14
  0.14593020D-13  0.54479651D-15 -0.50964976D-14 -0.75745964D-04 -0.10615401D-14
 -0.63426440D-13  0.21252082D-03 -0.57284945D-15  0.78715933D-13  0.14717075D-04
  0.25149966D-14  0.79950975D-15 -0.13895458D-13 -0.21480544D-04  0.79197974D-15
 -0.12075721D-14  0.20340019D-04 -0.31905090D-14  0.42893945D-13  0.44101613D-04
 -0.32359689D-15  0.57969926D-03  0.10905016D-02  0.18877140D-02  0.30943257D-02
  0.48473084D-02  0.72858990D-02  0.10413262D-01  0.13823583D-01  0.16098561D-01
  0.14784666D-01  0.86426082D-02  0.22677700D-02  0.12893532D-03  0.22497827D-05
  0.22646622D-06  0.27562939D-04  0.79622977D-04  0.36493081D-03  0.10802747D-02
  0.31328281D-02  0.65118724D-02  0.93153108D-02  0.26709971D-02 -0.10673662D-01
 -0.10320399D-01 -0.22525848D-02  0.32605483D-04  0.17464896D-04  0.81477350D-04
  0.16535224D-03  0.64804417D-03  0.45474794D-03 -0.29614907D-02 -0.91766430D-02
 -0.11225089D-02  0.80217787D-02  0.37646204D-02 -0.22205948D-06 -0.30442593D-06
  0.58365814D-06  0.12404655D-05 -0.46893066D-05 -0.15164026D-04 -0.52738177D-05
  0.51583681D-04  0.11505835D-03 -0.76349219D-04  0.79891226D-04 -0.29225207D-03
  0.79217424D-04 -0.16664041D-08 -0.23910411D-08 -0.31659594D-08 -0.36561320D-08
 -0.33899239D-08 -0.21952692D-08 -0.77462095D-09 -0.89254815D-10  0.14581495D-12
  0.25236617D+00  0.36210778D+00  0.47946417D+00  0.55369766D+00  0.51338215D+00
  0.33245939D+00  0.11731136D+00  0.13517067D-01 -0.22082735D-04  0.31915104D+00
  0.45793411D+00  0.60634707D+00  0.70022533D+00  0.64924093D+00  0.42043972D+00
  0.14835602D+00  0.17094154D-01 -0.27926595D-04  0.43244644D-11 -0.12329819D-10