 Entering Gaussian System, Link 0=/home/bruns/programas/chemistry/gaussian/g09/g09
 Input=GAUSSIAN.com
 Output=GAUSSIAN.log
 Initial command:
 /home/bruns/programas/chemistry/gaussian/g09/l1.exe /home/bruns/programas/chemistry/gaussian/work/Gau-14265.inp -scrdir=/home/bruns/programas/chemistry/gaussian/work/
 Entering Link 1 = /home/bruns/programas/chemistry/gaussian/g09/l1.exe PID=     14267.
  
 Copyright (c) 1988,1990,1992,1993,1995,1998,2003,2009,2010,
            Gaussian, Inc.  All Rights Reserved.
  
 This is part of the Gaussian(R) 09 program.  It is based on
 the Gaussian(R) 03 system (copyright 2003, Gaussian, Inc.),
 the Gaussian(R) 98 system (copyright 1998, Gaussian, Inc.),
 the Gaussian(R) 94 system (copyright 1995, Gaussian, Inc.),
 the Gaussian 92(TM) system (copyright 1992, Gaussian, Inc.),
 the Gaussian 90(TM) system (copyright 1990, Gaussian, Inc.),
 the Gaussian 88(TM) system (copyright 1988, Gaussian, Inc.),
 the Gaussian 86(TM) system (copyright 1986, Carnegie Mellon
 University), and the Gaussian 82(TM) system (copyright 1983,
 Carnegie Mellon University). Gaussian is a federally registered
 trademark of Gaussian, Inc.
  
 This software contains proprietary and confidential information,
 including trade secrets, belonging to Gaussian, Inc.
  
 This software is provided under written license and may be
 used, copied, transmitted, or stored only in accord with that
 written license.
  
 The following legend is applicable only to US Government
 contracts under FAR:
  
                    RESTRICTED RIGHTS LEGEND
  
 Use, reproduction and disclosure by the US Government is
 subject to restrictions as set forth in subparagraphs (a)
 and (c) of the Commercial Computer Software - Restricted
 Rights clause in FAR 52.227-19.
  
 Gaussian, Inc.
 340 Quinnipiac St., Bldg. 40, Wallingford CT 06492
  
  
 ---------------------------------------------------------------
 Warning -- This program may not be used in any manner that
 competes with the business of Gaussian, Inc. or will provide
 assistance to any competitor of Gaussian, Inc.  The licensee
 of this program is prohibited from giving any competitor of
 Gaussian, Inc. access to this program.  By using this program,
 the user acknowledges that Gaussian, Inc. is engaged in the
 business of creating and licensing software in the field of
 computational chemistry and represents and warrants to the
 licensee that it is not a competitor of Gaussian, Inc. and that
 it will not use this program in any manner prohibited above.
 ---------------------------------------------------------------
  

 Cite this work as:
 Gaussian 09, Revision B.01,
 M. J. Frisch, G. W. Trucks, H. B. Schlegel, G. E. Scuseria, 
 M. A. Robb, J. R. Cheeseman, G. Scalmani, V. Barone, B. Mennucci, 
 G. A. Petersson, H. Nakatsuji, M. Caricato, X. Li, H. P. Hratchian, 
 A. F. Izmaylov, J. Bloino, G. Zheng, J. L. Sonnenberg, M. Hada, 
 M. Ehara, K. Toyota, R. Fukuda, J. Hasegawa, M. Ishida, T. Nakajima, 
 Y. Honda, O. Kitao, H. Nakai, T. Vreven, J. A. Montgomery, Jr., 
 J. E. Peralta, F. Ogliaro, M. Bearpark, J. J. Heyd, E. Brothers, 
 K. N. Kudin, V. N. Staroverov, T. Keith, R. Kobayashi, J. Normand, 
 K. Raghavachari, A. Rendell, J. C. Burant, S. S. Iyengar, J. Tomasi, 
 M. Cossi, N. Rega, J. M. Millam, M. Klene, J. E. Knox, J. B. Cross, 
 V. Bakken, C. Adamo, J. Jaramillo, R. Gomperts, R. E. Stratmann, 
 O. Yazyev, A. J. Austin, R. Cammi, C. Pomelli, J. W. Ochterski, 
 R. L. Martin, K. Morokuma, V. G. Zakrzewski, G. A. Voth, 
 P. Salvador, J. J. Dannenberg, S. Dapprich, A. D. Daniels, 
 O. Farkas, J. B. Foresman, J. V. Ortiz, J. Cioslowski, 
 and D. J. Fox, Gaussian, Inc., Wallingford CT, 2010.
 
 ******************************************
 Gaussian 09:  EM64L-G09RevB.01 12-Aug-2010
                29-Nov-2021 
 ******************************************
 %nproc=8
 Will use up to    8 processors via shared memory.
 %mem=8GB
 -----------------------------------------------------
 # qcisd/aug-cc-pvtz nosymm density=current output=wfn
 -----------------------------------------------------
 1/30=1,38=1/1;
 2/12=2,15=1,17=6,18=5,40=1/2;
 3/5=16,6=1,7=10,11=9,16=1,25=1,30=1,71=1/1,2,3;
 4//1;
 5/5=2,38=5/2;
 8/6=4,9=120000,10=1/1,4;
 9/5=8,15=1/13;
 11/28=-7,31=1,32=3,42=3/11;
 10/5=6,13=10,31=1/2;
 6/7=2,8=2,9=2,10=2,22=-1,31=1/1;
 99/5=1,6=1100,9=1/99;
 ------------------
 br2cs-wavefunction
 ------------------
 Symbolic Z-matrix:
 Charge =  0 Multiplicity = 1
 C                     0.        0.       -0.51945 
 S                     0.        0.        1.08369 
 Br                    0.       -1.56852  -1.56857 
 Br                    0.        1.56852  -1.57857 
 
                          Input orientation:                          
 ---------------------------------------------------------------------
 Center     Atomic      Atomic             Coordinates (Angstroms)
 Number     Number       Type             X           Y           Z
 ---------------------------------------------------------------------
      1          6           0        0.000000    0.000000   -0.519451
      2         16           0        0.000000    0.000000    1.083692
      3         35           0        0.000000   -1.568516   -1.568570
      4         35           0        0.000000    1.568516   -1.578570
 ---------------------------------------------------------------------
                    Distance matrix (angstroms):
                    1          2          3          4
     1  C    0.000000
     2  S    1.603143   0.000000
     3  Br   1.887033   3.081353   0.000000
     4  Br   1.892611   3.089965   3.137048   0.000000
 Symmetry turned off by external request.
 Stoichiometry    CBr2S
 Framework group  CS[SG(CBr2S)]
 Deg. of freedom     5
 Full point group                 CS      NOp   2
 Rotational constants (GHZ):      2.6338697      1.3014355      0.8710408
 Standard basis: Aug-CC-pVTZ (5D, 7F)
 Integral buffers will be    131072 words long.
 Raffenetti 1 integral format.
 Two-electron integral symmetry is turned off.
   214 basis functions,   620 primitive gaussians,   252 cartesian basis functions
    46 alpha electrons       46 beta electrons
       nuclear repulsion energy       548.0110134902 Hartrees.
 NAtoms=    4 NActive=    4 NUniq=    4 SFac= 1.00D+00 NAtFMM=   50 NAOKFM=F Big=F
 One-electron integrals computed using PRISM.
 NBasis=   214 RedAO= T  NBF=   214
 NBsUse=   214 1.00D-06 NBFU=   214
 Harris functional with IExCor=  205 diagonalized for initial guess.
 ExpMin= 3.51D-02 ExpMax= 1.06D+07 ExpMxC= 1.21D+04 IAcc=3 IRadAn=         0 AccDes= 0.00D+00
 HarFok:  IExCor=  205 AccDes= 0.00D+00 IRadAn=         0 IDoV= 1
 ScaDFX=  1.000000  1.000000  1.000000  1.000000
 FoFCou: FMM=F IPFlag=           0 FMFlag=      100000 FMFlg1=           0
         NFxFlg=           0 DoJE=T BraDBF=F KetDBF=T FulRan=T
         Omega=  0.000000  0.000000  1.000000  0.000000  0.000000 ICntrl=     500 IOpCl=  0
         NMat0=    1 NMatS0=    1 NMatT0=    0 NMatD0=    1 NMtDS0=    0 NMtDT0=    0
         I1Cent=           4 NGrid=           0.
 Symmetry not used in FoFCou.
 Requested convergence on RMS density matrix=1.00D-08 within 128 cycles.
 Requested convergence on MAX density matrix=1.00D-06.
 Requested convergence on             energy=1.00D-06.
 No special actions if energy rises.
 Keep R1 ints in memory in canonical form, NReq=516428601.
 SCF Done:  E(RHF) =  -5580.30871103     A.U. after   14 cycles
             Convg  =    0.3123D-08             -V/T =  2.0000
 ExpMin= 3.51D-02 ExpMax= 1.06D+07 ExpMxC= 1.21D+04 IAcc=3 IRadAn=         5 AccDes= 0.00D+00
 HarFok:  IExCor=  205 AccDes= 0.00D+00 IRadAn=         5 IDoV=-2
 ScaDFX=  1.000000  1.000000  1.000000  1.000000
 DSYEVD returned Info=          89 IAlg= 4 N=    59 NDim=    59 NE2=    18196455 trying DSYEV.
 Range of M.O.s used for correlation:    25   214
 NBasis=   214 NAE=    46 NBE=    46 NFC=    24 NFV=     0
 NROrb=    190 NOA=    22 NOB=    22 NVA=   168 NVB=   168

 **** Warning!!: The largest alpha MO coefficient is  0.30790027D+02

 Semi-Direct transformation.
 ModeAB=           2 MOrb=            22 LenV=    1072457027
 LASXX=     69628944 LTotXX=    69628944 LenRXX=    69628944
 LTotAB=    70719517 MaxLAS=   133250040 LenRXY=   133250040
 NonZer=   139257888 LenScr=   209707008 LnRSAI=           0
 LnScr1=           0 LExtra=           0 Total=    412585992
 MaxDsk=          -1 SrtSym=           F ITran=            4
 JobTyp=0 Pass  1:  I=   1 to  22.
 (rs|ai) integrals will be sorted in core.
 Spin components of T(2) and E(2):
     alpha-alpha T2 =       0.4284939719D-01 E2=     -0.1154095095D+00
     alpha-beta  T2 =       0.2164909322D+00 E2=     -0.5792483401D+00
     beta-beta   T2 =       0.4284939719D-01 E2=     -0.1154095095D+00
 ANorm=    0.1141135280D+01
 E2 =    -0.8100673591D+00 EUMP2 =    -0.55811187783930D+04
 R2 and R3 integrals will be kept in memory, NReq=  1024335774.
 Iterations=  50 Convergence= 0.100D-07
 Iteration Nr.   1
 **********************
 DD1Dir will call FoFMem   1 times, MxPair=       506
 NAB=   253 NAA=     0 NBB=     0.
 MP4(R+Q)=  0.23453852D-01
 E3=       -0.12196795D-01        EUMP3=      -0.55811309752D+04
 E4(DQ)=   -0.49821988D-03        UMP4(DQ)=   -0.55811314734D+04
 E4(SDQ)=  -0.10149826D-01        UMP4(SDQ)=  -0.55811411250D+04
 DE(Corr)= -0.79881030     E(Corr)=     -5581.1075213    
 NORM(A)=   0.11409322D+01
 Iteration Nr.   2
 **********************
 DD1Dir will call FoFMem   1 times, MxPair=       506
 NAB=   253 NAA=     0 NBB=     0.
 DE(Corr)= -0.82752896     E(CORR)=     -5581.1362400     Delta=-2.87D-02
 NORM(A)=   0.11530972D+01
 Iteration Nr.   3
 **********************
 DD1Dir will call FoFMem   1 times, MxPair=       506
 NAB=   253 NAA=     0 NBB=     0.
 DE(Corr)= -0.82613602     E(CORR)=     -5581.1348471     Delta= 1.39D-03
 NORM(A)=   0.11559207D+01
 Iteration Nr.   4
 **********************
 DD1Dir will call FoFMem   1 times, MxPair=       506
 NAB=   253 NAA=     0 NBB=     0.
 DE(Corr)= -0.82847774     E(CORR)=     -5581.1371888     Delta=-2.34D-03
 NORM(A)=   0.11572208D+01
 Iteration Nr.   5
 **********************
 DD1Dir will call FoFMem   1 times, MxPair=       506
 NAB=   253 NAA=     0 NBB=     0.
 DE(Corr)= -0.82878515     E(CORR)=     -5581.1374962     Delta=-3.07D-04
 NORM(A)=   0.11578532D+01
 Iteration Nr.   6
 **********************
 DD1Dir will call FoFMem   1 times, MxPair=       506
 NAB=   253 NAA=     0 NBB=     0.
 DE(Corr)= -0.82884942     E(CORR)=     -5581.1375605     Delta=-6.43D-05
 NORM(A)=   0.11579321D+01
 Iteration Nr.   7
 **********************
 DD1Dir will call FoFMem   1 times, MxPair=       506
 NAB=   253 NAA=     0 NBB=     0.
 DE(Corr)= -0.82886110     E(CORR)=     -5581.1375721     Delta=-1.17D-05
 NORM(A)=   0.11579485D+01
 Iteration Nr.   8
 **********************
 DD1Dir will call FoFMem   1 times, MxPair=       506
 NAB=   253 NAA=     0 NBB=     0.
 DE(Corr)= -0.82885725     E(CORR)=     -5581.1375683     Delta= 3.85D-06
 NORM(A)=   0.11579567D+01
 Iteration Nr.   9
 **********************
 DD1Dir will call FoFMem   1 times, MxPair=       506
 NAB=   253 NAA=     0 NBB=     0.
 DE(Corr)= -0.82885891     E(CORR)=     -5581.1375699     Delta=-1.66D-06
 NORM(A)=   0.11579573D+01
 Iteration Nr.  10
 **********************
 DD1Dir will call FoFMem   1 times, MxPair=       506
 NAB=   253 NAA=     0 NBB=     0.
 DE(Corr)= -0.82885904     E(CORR)=     -5581.1375701     Delta=-1.31D-07
 NORM(A)=   0.11579610D+01
 Iteration Nr.  11
 **********************
 DD1Dir will call FoFMem   1 times, MxPair=       506
 NAB=   253 NAA=     0 NBB=     0.
 DE(Corr)= -0.82886059     E(CORR)=     -5581.1375716     Delta=-1.55D-06
 NORM(A)=   0.11579629D+01
 Iteration Nr.  12
 **********************
 DD1Dir will call FoFMem   1 times, MxPair=       506
 NAB=   253 NAA=     0 NBB=     0.
 DE(Corr)= -0.82886067     E(CORR)=     -5581.1375717     Delta=-8.25D-08
 NORM(A)=   0.11579644D+01
 Iteration Nr.  13
 **********************
 DD1Dir will call FoFMem   1 times, MxPair=       506
 NAB=   253 NAA=     0 NBB=     0.
 DE(Corr)= -0.82886129     E(CORR)=     -5581.1375723     Delta=-6.23D-07
 NORM(A)=   0.11579654D+01
 Iteration Nr.  14
 **********************
 DD1Dir will call FoFMem   1 times, MxPair=       506
 NAB=   253 NAA=     0 NBB=     0.
 DE(Corr)= -0.82886130     E(CORR)=     -5581.1375723     Delta=-1.16D-08
 NORM(A)=   0.11579658D+01
 Iteration Nr.  15
 **********************
 DD1Dir will call FoFMem   1 times, MxPair=       506
 NAB=   253 NAA=     0 NBB=     0.
 DE(Corr)= -0.82886142     E(CORR)=     -5581.1375725     Delta=-1.14D-07
 NORM(A)=   0.11579661D+01
 Iteration Nr.  16
 **********************
 DD1Dir will call FoFMem   1 times, MxPair=       506
 NAB=   253 NAA=     0 NBB=     0.
 DE(Corr)= -0.82886145     E(CORR)=     -5581.1375725     Delta=-2.80D-08
 NORM(A)=   0.11579661D+01
 Iteration Nr.  17
 **********************
 DD1Dir will call FoFMem   1 times, MxPair=       506
 NAB=   253 NAA=     0 NBB=     0.
 DE(Corr)= -0.82886143     E(CORR)=     -5581.1375725     Delta= 1.30D-08
 NORM(A)=   0.11579661D+01
 Iteration Nr.  18
 **********************
 DD1Dir will call FoFMem   1 times, MxPair=       506
 NAB=   253 NAA=     0 NBB=     0.
 DE(Corr)= -0.82886145     E(CORR)=     -5581.1375725     Delta=-1.57D-08
 NORM(A)=   0.11579661D+01
 Iteration Nr.  19
 **********************
 DD1Dir will call FoFMem   1 times, MxPair=       506
 NAB=   253 NAA=     0 NBB=     0.
 DE(Corr)= -0.82886144     E(CORR)=     -5581.1375725     Delta= 3.36D-09
 NORM(A)=   0.11579662D+01
 Iteration Nr.  20
 **********************
 DD1Dir will call FoFMem   1 times, MxPair=       506
 NAB=   253 NAA=     0 NBB=     0.
 DE(Corr)= -0.82886145     E(CORR)=     -5581.1375725     Delta=-1.75D-09
 NORM(A)=   0.11579662D+01
 Iteration Nr.  21
 **********************
 DD1Dir will call FoFMem   1 times, MxPair=       506
 NAB=   253 NAA=     0 NBB=     0.
 DE(Corr)= -0.82886145     E(CORR)=     -5581.1375725     Delta=-3.97D-10
 NORM(A)=   0.11579661D+01
 Iteration Nr.  22
 **********************
 DD1Dir will call FoFMem   1 times, MxPair=       506
 NAB=   253 NAA=     0 NBB=     0.
 DE(Corr)= -0.82886145     E(CORR)=     -5581.1375725     Delta=-4.54D-10
 NORM(A)=   0.11579662D+01
 Iteration Nr.  23
 **********************
 DD1Dir will call FoFMem   1 times, MxPair=       506
 NAB=   253 NAA=     0 NBB=     0.
 DE(Corr)= -0.82886144     E(CORR)=     -5581.1375725     Delta= 2.50D-09
 NORM(A)=   0.11579662D+01
 Iteration Nr.  24
 **********************
 DD1Dir will call FoFMem   1 times, MxPair=       506
 NAB=   253 NAA=     0 NBB=     0.
 DE(Corr)= -0.82886145     E(CORR)=     -5581.1375725     Delta=-1.55D-09
 NORM(A)=   0.11579662D+01
 Iteration Nr.  25
 **********************
 DD1Dir will call FoFMem   1 times, MxPair=       506
 NAB=   253 NAA=     0 NBB=     0.
 DE(Corr)= -0.82886145     E(CORR)=     -5581.1375725     Delta= 5.96D-10
 NORM(A)=   0.11579662D+01
 Largest amplitude= 7.68D-02

 Z-AMPLITUDE ITERATIONS

 Iteration Nr.   1
 **********************
 DD1Dir will call FoFMem   1 times, MxPair=       506
 NAB=   253 NAA=     0 NBB=     0.
 DE(Z)  -0.79823934D+00          E(Z)=    -0.55811069504D+04
 NORM(A)=   0.11572218D+01
 Iteration Nr.   2
 **********************
 DD1Dir will call FoFMem   1 times, MxPair=       506
 NAB=   253 NAA=     0 NBB=     0.
 DE(Z)  -0.79823379D+00          E(Z)=    -0.55811069448D+04
 NORM(A)=   0.11565691D+01
 Iteration Nr.   3
 **********************
 DD1Dir will call FoFMem   1 times, MxPair=       506
 NAB=   253 NAA=     0 NBB=     0.
 DE(Z)  -0.79823030D+00          E(Z)=    -0.55811069413D+04
 NORM(A)=   0.11560691D+01
 Iteration Nr.   4
 **********************
 DD1Dir will call FoFMem   1 times, MxPair=       506
 NAB=   253 NAA=     0 NBB=     0.
 DE(Z)  -0.79822505D+00          E(Z)=    -0.55811069361D+04
 NORM(A)=   0.11539075D+01
 Iteration Nr.   5
 **********************
 DD1Dir will call FoFMem   1 times, MxPair=       506
 NAB=   253 NAA=     0 NBB=     0.
 DE(Z)  -0.79820128D+00          E(Z)=    -0.55811069123D+04
 NORM(A)=   0.11447303D+01
 Iteration Nr.   6
 **********************
 DD1Dir will call FoFMem   1 times, MxPair=       506
 NAB=   253 NAA=     0 NBB=     0.
 DE(Z)  -0.79812067D+00          E(Z)=    -0.55811068317D+04
 NORM(A)=   0.11447311D+01
 Iteration Nr.   7
 **********************
 DD1Dir will call FoFMem   1 times, MxPair=       506
 NAB=   253 NAA=     0 NBB=     0.
 DE(Z)  -0.79811796D+00          E(Z)=    -0.55811068290D+04
 NORM(A)=   0.11447298D+01
 Iteration Nr.   8
 **********************
 DD1Dir will call FoFMem   1 times, MxPair=       506
 NAB=   253 NAA=     0 NBB=     0.
 DE(Z)  -0.79811884D+00          E(Z)=    -0.55811068299D+04
 NORM(A)=   0.11447296D+01
 Iteration Nr.   9
 **********************
 DD1Dir will call FoFMem   1 times, MxPair=       506
 NAB=   253 NAA=     0 NBB=     0.
 DE(Z)  -0.79811812D+00          E(Z)=    -0.55811068292D+04
 NORM(A)=   0.11447295D+01
 Iteration Nr.  10
 **********************
 DD1Dir will call FoFMem   1 times, MxPair=       506
 NAB=   253 NAA=     0 NBB=     0.
 DE(Z)  -0.79811803D+00          E(Z)=    -0.55811068291D+04
 NORM(A)=   0.11447297D+01
 Iteration Nr.  11
 **********************
 DD1Dir will call FoFMem   1 times, MxPair=       506
 NAB=   253 NAA=     0 NBB=     0.
 DE(Z)  -0.79811807D+00          E(Z)=    -0.55811068291D+04
 NORM(A)=   0.11447300D+01
 Iteration Nr.  12
 **********************
 DD1Dir will call FoFMem   1 times, MxPair=       506
 NAB=   253 NAA=     0 NBB=     0.
 DE(Z)  -0.79811805D+00          E(Z)=    -0.55811068291D+04
 NORM(A)=   0.11447301D+01
 Iteration Nr.  13
 **********************
 DD1Dir will call FoFMem   1 times, MxPair=       506
 NAB=   253 NAA=     0 NBB=     0.
 DE(Z)  -0.79811809D+00          E(Z)=    -0.55811068291D+04
 NORM(A)=   0.11447302D+01
 Iteration Nr.  14
 **********************
 DD1Dir will call FoFMem   1 times, MxPair=       506
 NAB=   253 NAA=     0 NBB=     0.
 DE(Z)  -0.79811810D+00          E(Z)=    -0.55811068291D+04
 NORM(A)=   0.11447301D+01
 Iteration Nr.  15
 **********************
 DD1Dir will call FoFMem   1 times, MxPair=       506
 NAB=   253 NAA=     0 NBB=     0.
 DE(Z)  -0.79811809D+00          E(Z)=    -0.55811068291D+04
 NORM(A)=   0.11447301D+01
 Iteration Nr.  16
 **********************
 DD1Dir will call FoFMem   1 times, MxPair=       506
 NAB=   253 NAA=     0 NBB=     0.
 DE(Z)  -0.79811809D+00          E(Z)=    -0.55811068291D+04
 NORM(A)=   0.11447301D+01
 Discarding MO integrals.
          Differentiating once with respect to electric field.
                with respect to dipole field.
          Electric field/nuclear overlap derivatives assumed to be zero.
          Keep R1 ints in memory in canonical form, NReq=510060614.
          There are     1 degrees of freedom in the 1st order CPHF.  IDoFFX=0.
 LinEq1:  Iter=  0 NonCon=     1 RMS=1.78D-03 Max=6.59D-02
 AX will form     1 AO Fock derivatives at one time.
 LinEq1:  Iter=  1 NonCon=     1 RMS=8.39D-04 Max=1.80D-02
 LinEq1:  Iter=  2 NonCon=     1 RMS=3.80D-04 Max=1.47D-02
 LinEq1:  Iter=  3 NonCon=     1 RMS=1.25D-04 Max=4.29D-03
 LinEq1:  Iter=  4 NonCon=     1 RMS=4.83D-05 Max=9.47D-04
 LinEq1:  Iter=  5 NonCon=     1 RMS=9.54D-06 Max=1.71D-04
 LinEq1:  Iter=  6 NonCon=     1 RMS=3.28D-06 Max=8.41D-05
 LinEq1:  Iter=  7 NonCon=     1 RMS=7.21D-07 Max=2.34D-05
 LinEq1:  Iter=  8 NonCon=     1 RMS=1.42D-07 Max=4.27D-06
 LinEq1:  Iter=  9 NonCon=     1 RMS=3.45D-08 Max=1.01D-06
 LinEq1:  Iter= 10 NonCon=     1 RMS=9.58D-09 Max=2.11D-07
 LinEq1:  Iter= 11 NonCon=     1 RMS=1.99D-09 Max=4.97D-08
 LinEq1:  Iter= 12 NonCon=     1 RMS=4.13D-10 Max=9.48D-09
 LinEq1:  Iter= 13 NonCon=     1 RMS=1.27D-10 Max=1.78D-09
 LinEq1:  Iter= 14 NonCon=     0 RMS=3.02D-11 Max=5.31D-10
 Linear equations converged to 1.000D-10 1.000D-09 after    14 iterations.
 End of Minotr Frequency-dependent properties file   721 does not exist.
 End of Minotr Frequency-dependent properties file   722 does not exist.

 **********************************************************************

            Population analysis using the QCI/CC density.

 **********************************************************************

     Natural Orbital Coefficients:
                           1         2         3         4         5
     Eigenvalues --     2.00003   2.00002   2.00002   2.00002   2.00001
   1 1   C  1S         -0.00120  -0.17662   0.31202   0.03409   0.46911
   2        2S          0.00003   0.00356  -0.00982  -0.00101  -0.00720
   3        3S         -0.00005  -0.00677   0.01169   0.00130   0.01896
   4        4S         -0.00013  -0.01141  -0.01473  -0.00149   0.00512
   5        5S         -0.00006  -0.00464  -0.00480  -0.00049   0.00423
   6        6PX         0.00000   0.00000   0.00000   0.00000   0.00000
   7        6PY        -0.00119   0.00001   0.00032  -0.00300  -0.00001
   8        6PZ         0.00002   0.00105   0.00152   0.00015  -0.00245
   9        7PX         0.00000   0.00000   0.00000   0.00000   0.00000
  10        7PY        -0.00128   0.00001   0.00056  -0.00516   0.00000
  11        7PZ         0.00001  -0.00050   0.00390   0.00040  -0.00053
  12        8PX         0.00000   0.00000   0.00000   0.00000   0.00000
  13        8PY         0.01275  -0.00007   0.00047  -0.00429  -0.00001
  14        8PZ        -0.00007  -0.00952   0.00631   0.00069   0.00852
  15        9PX         0.00000   0.00000   0.00000   0.00000   0.00000
  16        9PY         0.00367  -0.00001  -0.00004   0.00040  -0.00006
  17        9PZ         0.00000   0.00004   0.00083   0.00009   0.00140
  18       10D 0        0.00000  -0.00007   0.00012   0.00001   0.00003
  19       10D+1        0.00000   0.00000   0.00000   0.00000   0.00000
  20       10D-1       -0.00035   0.00000  -0.00004   0.00035   0.00000
  21       10D+2        0.00000   0.00003   0.00012   0.00001  -0.00022
  22       10D-2        0.00000   0.00000   0.00000   0.00000   0.00000
  23       11D 0        0.00000  -0.00111  -0.00030  -0.00004   0.00015
  24       11D+1        0.00000   0.00000   0.00000   0.00000   0.00000
  25       11D-1        0.00000   0.00000  -0.00011   0.00112   0.00000
  26       11D+2        0.00000  -0.00003   0.00159   0.00017   0.00067
  27       11D-2        0.00000   0.00000   0.00000   0.00000   0.00000
  28       12D 0        0.00001  -0.00425   0.00100   0.00011   0.00476
  29       12D+1        0.00000   0.00000   0.00000   0.00000   0.00000
  30       12D-1       -0.00634   0.00003  -0.00029   0.00304  -0.00003
  31       12D+2        0.00001  -0.00153   0.00199   0.00021   0.00202
  32       12D-2        0.00000   0.00000   0.00000   0.00000   0.00000
  33       13F 0        0.00000  -0.00001   0.00001   0.00000  -0.00009
  34       13F+1        0.00000   0.00000   0.00000   0.00000   0.00000
  35       13F-1       -0.00031   0.00000   0.00001  -0.00007   0.00000
  36       13F+2        0.00000  -0.00007   0.00001   0.00000   0.00009
  37       13F-2        0.00000   0.00000   0.00000   0.00000   0.00000
  38       13F+3        0.00000   0.00000   0.00000   0.00000   0.00000
  39       13F-3        0.00007   0.00000   0.00001  -0.00007   0.00000
  40       14F 0        0.00000   0.00018  -0.00010  -0.00002  -0.00105
  41       14F+1        0.00000   0.00000   0.00000   0.00000   0.00000
  42       14F-1        0.00184  -0.00002  -0.00007   0.00071   0.00001
  43       14F+2        0.00001   0.00044  -0.00035  -0.00004  -0.00107
  44       14F-2        0.00000   0.00000   0.00000   0.00000   0.00000
  45       14F+3        0.00000   0.00000   0.00000   0.00000   0.00000
  46       14F-3       -0.00029   0.00000  -0.00002   0.00020   0.00000
  47 2   S  1S         -0.00106  -0.21711  -0.00860  -0.00097  -0.15630
  48        2S          0.00360   0.74200   0.02991   0.00338   0.53960
  49        3S         -0.00012  -0.02057  -0.00109  -0.00011  -0.00835
  50        4S          0.00024   0.04974   0.00196   0.00022   0.03867
  51        5S          0.00006   0.01162  -0.00104  -0.00014  -0.01511
  52        6S          0.00001   0.00173   0.00028   0.00001  -0.00421
  53        7PX         0.00000   0.00000   0.00000   0.00000   0.00000
  54        7PY         0.97043  -0.00670  -0.00921   0.09401   0.00077
  55        7PZ         0.00617   0.62338   0.02343   0.00213  -0.49420
  56        8PX         0.00000   0.00000   0.00000   0.00000   0.00000
  57        8PY        -0.01892   0.00012   0.00012  -0.00125  -0.00002
  58        8PZ        -0.00012  -0.01238  -0.00059  -0.00005   0.00844
  59        9PX         0.00000   0.00000   0.00000   0.00000   0.00000
  60        9PY         0.05628  -0.00040  -0.00056   0.00574   0.00005
  61        9PZ         0.00037   0.03841   0.00153   0.00014  -0.03219
  62       10PX         0.00000   0.00000   0.00000   0.00000   0.00000
  63       10PY        -0.00360   0.00002   0.00009  -0.00103   0.00002
  64       10PZ        -0.00007  -0.00860  -0.00067  -0.00005   0.00536
  65       11PX         0.00000   0.00000   0.00000   0.00000   0.00000
  66       11PY        -0.00130   0.00001   0.00001  -0.00007   0.00001
  67       11PZ         0.00000  -0.00023  -0.00020  -0.00002   0.00027
  68       12D 0        0.00002   0.00230   0.00016   0.00002  -0.00222
  69       12D+1        0.00000   0.00000   0.00000   0.00000   0.00000
  70       12D-1        0.00268  -0.00002  -0.00007   0.00070   0.00000
  71       12D+2        0.00000  -0.00040  -0.00006  -0.00001   0.00010
  72       12D-2        0.00000   0.00000   0.00000   0.00000   0.00000
  73       13D 0        0.00000   0.00016  -0.00015  -0.00002   0.00021
  74       13D+1        0.00000   0.00000   0.00000   0.00000   0.00000
  75       13D-1       -0.00037   0.00000  -0.00002   0.00018   0.00000
  76       13D+2        0.00000   0.00030   0.00002   0.00000   0.00017
  77       13D-2        0.00000   0.00000   0.00000   0.00000   0.00000
  78       14D 0        0.00001   0.00122   0.00027   0.00003  -0.00045
  79       14D+1        0.00000   0.00000   0.00000   0.00000   0.00000
  80       14D-1       -0.00079   0.00000  -0.00002   0.00020  -0.00001
  81       14D+2        0.00000   0.00049  -0.00036  -0.00004  -0.00032
  82       14D-2        0.00000   0.00000   0.00000   0.00000   0.00000
  83       15F 0        0.00000  -0.00019   0.00011   0.00001   0.00017
  84       15F+1        0.00000   0.00000   0.00000   0.00000   0.00000
  85       15F-1       -0.00015   0.00000   0.00001  -0.00011   0.00000
  86       15F+2        0.00000   0.00013   0.00002   0.00000  -0.00017
  87       15F-2        0.00000   0.00000   0.00000   0.00000   0.00000
  88       15F+3        0.00000   0.00000   0.00000   0.00000   0.00000
  89       15F-3        0.00011   0.00000   0.00000   0.00000   0.00000
  90       16F 0        0.00000  -0.00044  -0.00005  -0.00001   0.00034
  91       16F+1        0.00000   0.00000   0.00000   0.00000   0.00000
  92       16F-1       -0.00085   0.00001   0.00001  -0.00009   0.00000
  93       16F+2        0.00000  -0.00013   0.00012   0.00001   0.00004
  94       16F-2        0.00000   0.00000   0.00000   0.00000   0.00000
  95       16F+3        0.00000   0.00000   0.00000   0.00000   0.00000
  96       16F-3       -0.00019   0.00000   0.00000   0.00001   0.00000
  97 3   Br 1S          0.00047   0.00074  -0.04331   0.03257   0.04427
  98        2S         -0.00183  -0.00276   0.16023  -0.12044  -0.16470
  99        3S          0.00414   0.00602  -0.33599   0.25133   0.35382
 100        4S         -0.00097  -0.00021  -0.00089   0.00059   0.00216
 101        5S         -0.00012   0.00017  -0.01824   0.01355   0.01718
 102        6S          0.01032  -0.00202   0.00585  -0.00250   0.00589
 103        7S          0.00687   0.00106   0.00235   0.00081  -0.00032
 104        8PX         0.00000   0.00000   0.00000   0.00000   0.00000
 105        8PY         0.02270   0.00463   0.22604  -0.20192   0.01885
 106        8PZ         0.01967   0.00592   0.14255  -0.11937  -0.01032
 107        9PX         0.00000   0.00000   0.00000   0.00000   0.00000
 108        9PY        -0.06011  -0.01193  -0.58763   0.52674  -0.06135
 109        9PZ        -0.05308  -0.01615  -0.37108   0.30969   0.02415
 110       10PX         0.00000   0.00000   0.00000   0.00000   0.00000
 111       10PY         0.00066  -0.00051   0.00272  -0.00059   0.00080
 112       10PZ        -0.00052  -0.00039   0.00151  -0.00119   0.00091
 113       11PX         0.00000   0.00000   0.00000   0.00000   0.00000
 114       11PY        -0.00334  -0.00059  -0.02790   0.02488  -0.00283
 115       11PZ        -0.00309  -0.00096  -0.01772   0.01462   0.00123
 116       12PX         0.00000   0.00000   0.00000   0.00000   0.00000
 117       12PY         0.00472   0.00016   0.00146   0.00125  -0.00053
 118       12PZ         0.00200  -0.00167   0.00123   0.00038   0.00215
 119       13PX         0.00000   0.00000   0.00000   0.00000   0.00000
 120       13PY         0.00069   0.00025   0.00043   0.00006  -0.00005
 121       13PZ         0.00057   0.00012   0.00017   0.00003  -0.00026
 122       14D 0        0.00005   0.00000   0.00225  -0.00179  -0.00092
 123       14D+1        0.00000   0.00000   0.00000   0.00000   0.00000
 124       14D-1       -0.00306  -0.00086  -0.03158   0.02773   0.00169
 125       14D+2        0.00193   0.00065   0.02043  -0.01785  -0.00210
 126       14D-2        0.00000   0.00000   0.00000   0.00000   0.00000
 127       15D 0        0.00006   0.00000   0.00026  -0.00011  -0.00007
 128       15D+1        0.00000   0.00000   0.00000   0.00000   0.00000
 129       15D-1       -0.00023  -0.00009  -0.00310   0.00268   0.00033
 130       15D+2        0.00012   0.00011   0.00213  -0.00174  -0.00037
 131       15D-2        0.00000   0.00000   0.00000   0.00000   0.00000
 132       16D 0       -0.00001   0.00020   0.00000  -0.00017  -0.00027
 133       16D+1        0.00000   0.00000   0.00000   0.00000   0.00000
 134       16D-1        0.00033   0.00009   0.00113  -0.00045   0.00032
 135       16D+2       -0.00040  -0.00001  -0.00088   0.00026  -0.00010
 136       16D-2        0.00000   0.00000   0.00000   0.00000   0.00000
 137       17D 0       -0.00010  -0.00025   0.00001   0.00018   0.00035
 138       17D+1        0.00000   0.00000   0.00000   0.00000   0.00000
 139       17D-1        0.00116  -0.00023   0.00065  -0.00019   0.00029
 140       17D+2       -0.00063  -0.00024  -0.00043  -0.00019   0.00033
 141       17D-2        0.00000   0.00000   0.00000   0.00000   0.00000
 142       18F 0        0.00009   0.00002   0.00029  -0.00028  -0.00004
 143       18F+1        0.00000   0.00000   0.00000   0.00000   0.00000
 144       18F-1       -0.00003   0.00000  -0.00012   0.00012   0.00004
 145       18F+2        0.00001   0.00004   0.00045  -0.00040  -0.00010
 146       18F-2        0.00000   0.00000   0.00000   0.00000   0.00000
 147       18F+3        0.00000   0.00000   0.00000   0.00000   0.00000
 148       18F-3       -0.00007   0.00004   0.00024  -0.00022  -0.00007
 149       19F 0       -0.00002   0.00006  -0.00036   0.00029  -0.00025
 150       19F+1        0.00000   0.00000   0.00000   0.00000   0.00000
 151       19F-1       -0.00005   0.00006   0.00020  -0.00024  -0.00007
 152       19F+2        0.00001  -0.00006  -0.00064   0.00040  -0.00003
 153       19F-2        0.00000   0.00000   0.00000   0.00000   0.00000
 154       19F+3        0.00000   0.00000   0.00000   0.00000   0.00000
 155       19F-3        0.00006  -0.00008  -0.00036   0.00014   0.00011
 156 4   Br 1S         -0.00047   0.00074  -0.03596  -0.04119   0.04039
 157        2S          0.00183  -0.00274   0.13305   0.15238  -0.15024
 158        3S         -0.00414   0.00598  -0.27931  -0.31846   0.32265
 159        4S          0.00096  -0.00022  -0.00076  -0.00075   0.00204
 160        5S          0.00012   0.00017  -0.01516  -0.01716   0.01565
 161        6S         -0.01029  -0.00190   0.00516   0.00360   0.00557
 162        7S         -0.00682   0.00111   0.00244  -0.00030  -0.00011
 163        8PX         0.00000   0.00000   0.00000   0.00000   0.00000
 164        8PY         0.02290  -0.00510  -0.17933  -0.24225  -0.01440
 165        8PZ        -0.01989   0.00633   0.11556   0.14656  -0.01198
 166        9PX         0.00000   0.00000   0.00000   0.00000   0.00000
 167        9PY        -0.06068   0.01318   0.46589   0.63162   0.04870
 168        9PZ         0.05365  -0.01726  -0.30101  -0.38055   0.02882
 169       10PX         0.00000   0.00000   0.00000   0.00000   0.00000
 170       10PY         0.00066   0.00050  -0.00253  -0.00115  -0.00079
 171       10PZ         0.00051  -0.00041   0.00126   0.00149   0.00092
 172       11PX         0.00000   0.00000   0.00000   0.00000   0.00000
 173       11PY        -0.00337   0.00066   0.02213   0.02986   0.00225
 174       11PZ         0.00311  -0.00102  -0.01441  -0.01800   0.00143
 175       12PX         0.00000   0.00000   0.00000   0.00000   0.00000
 176       12PY         0.00470  -0.00020  -0.00166   0.00093   0.00044
 177       12PZ        -0.00203  -0.00165   0.00128  -0.00012   0.00222
 178       13PX         0.00000   0.00000   0.00000   0.00000   0.00000
 179       13PY         0.00068  -0.00025  -0.00043  -0.00003   0.00003
 180       13PZ        -0.00057   0.00013   0.00017   0.00000  -0.00024
 181       14D 0       -0.00001  -0.00001   0.00152   0.00181  -0.00087
 182       14D+1        0.00000   0.00000   0.00000   0.00000   0.00000
 183       14D-1       -0.00304   0.00092   0.02491   0.03310  -0.00195
 184       14D+2       -0.00189   0.00068   0.01590   0.02103  -0.00220
 185       14D-2        0.00000   0.00000   0.00000   0.00000   0.00000
 186       15D 0       -0.00006   0.00000   0.00020   0.00012  -0.00006
 187       15D+1        0.00000   0.00000   0.00000   0.00000   0.00000
 188       15D-1       -0.00023   0.00010   0.00246   0.00321  -0.00034
 189       15D+2       -0.00012   0.00011   0.00169   0.00208  -0.00037
 190       15D-2        0.00000   0.00000   0.00000   0.00000   0.00000
 191       16D 0        0.00002   0.00019  -0.00002   0.00017  -0.00025
 192       16D+1        0.00000   0.00000   0.00000   0.00000   0.00000
 193       16D-1        0.00034  -0.00009  -0.00102  -0.00068  -0.00034
 194       16D+2        0.00040  -0.00002  -0.00080  -0.00043  -0.00009
 195       16D-2        0.00000   0.00000   0.00000   0.00000   0.00000
 196       17D 0        0.00010  -0.00025   0.00005  -0.00016   0.00036
 197       17D+1        0.00000   0.00000   0.00000   0.00000   0.00000
 198       17D-1        0.00116   0.00022  -0.00059  -0.00031  -0.00031
 199       17D+2        0.00063  -0.00025  -0.00045   0.00011   0.00031
 200       17D-2        0.00000   0.00000   0.00000   0.00000   0.00000
 201       18F 0       -0.00008   0.00002   0.00022   0.00033  -0.00004
 202       18F+1        0.00000   0.00000   0.00000   0.00000   0.00000
 203       18F-1       -0.00003   0.00000   0.00010   0.00014  -0.00004
 204       18F+2       -0.00001   0.00004   0.00035   0.00048  -0.00010
 205       18F-2        0.00000   0.00000   0.00000   0.00000   0.00000
 206       18F+3        0.00000   0.00000   0.00000   0.00000   0.00000
 207       18F-3       -0.00007  -0.00003  -0.00018  -0.00025   0.00007
 208       19F 0        0.00002   0.00006  -0.00029  -0.00036  -0.00024
 209       19F+1        0.00000   0.00000   0.00000   0.00000   0.00000
 210       19F-1       -0.00004  -0.00006  -0.00016  -0.00028   0.00005
 211       19F+2        0.00000  -0.00006  -0.00054  -0.00052  -0.00002
 212       19F-2        0.00000   0.00000   0.00000   0.00000   0.00000
 213       19F+3        0.00000   0.00000   0.00000   0.00000   0.00000
 214       19F-3        0.00006   0.00008   0.00032   0.00021  -0.00011
                           6         7         8         9        10
     Eigenvalues --     2.00001   2.00001   2.00001   2.00001   2.00001
   1 1   C  1S         -0.01681   0.08844   0.00000  -0.00171  -0.09417
   2        2S          0.00033  -0.00252   0.00000   0.00002   0.00142
   3        3S         -0.00066   0.00332   0.00000  -0.00007  -0.00385
   4        4S         -0.00061   0.00913   0.00000   0.00001   0.00124
   5        5S         -0.00017   0.00137   0.00000  -0.00002  -0.00072
   6        6PX         0.00000   0.00000  -0.00073   0.00000   0.00000
   7        6PY        -0.00003   0.00001   0.00000  -0.00031   0.00001
   8        6PZ         0.00012  -0.00115   0.00000   0.00002   0.00055
   9        7PX         0.00000   0.00000  -0.00005   0.00000   0.00000
  10        7PY        -0.00019   0.00000   0.00000  -0.00044   0.00001
  11        7PZ         0.00003  -0.00051   0.00000   0.00001   0.00013
  12        8PX         0.00000   0.00000   0.00158   0.00000   0.00000
  13        8PY        -0.00060  -0.00004   0.00000  -0.00530   0.00014
  14        8PZ        -0.00036   0.00329   0.00000   0.00029   0.00944
  15        9PX         0.00000   0.00000  -0.00091   0.00000   0.00000
  16        9PY        -0.00256  -0.00015   0.00000  -0.00120   0.00004
  17        9PZ        -0.00008   0.00111   0.00000   0.00005   0.00166
  18       10D 0        0.00000  -0.00007   0.00000   0.00000  -0.00015
  19       10D+1        0.00000   0.00000  -0.00021   0.00000   0.00000
  20       10D-1        0.00013   0.00001   0.00000  -0.00005   0.00000
  21       10D+2        0.00000   0.00007   0.00000   0.00000  -0.00006
  22       10D-2        0.00000   0.00000   0.00000   0.00000   0.00000
  23       11D 0       -0.00002   0.00029   0.00000  -0.00001  -0.00029
  24       11D+1        0.00000   0.00000   0.00057   0.00000   0.00000
  25       11D-1        0.00001   0.00000   0.00000  -0.00039   0.00001
  26       11D+2        0.00000  -0.00025   0.00000   0.00000  -0.00031
  27       11D-2        0.00000   0.00000   0.00000   0.00000   0.00000
  28       12D 0       -0.00020   0.00186   0.00000   0.00000   0.00018
  29       12D+1        0.00000   0.00000  -0.00136   0.00000   0.00000
  30       12D-1       -0.00099  -0.00006   0.00000   0.00062  -0.00004
  31       12D+2       -0.00005   0.00021   0.00000   0.00002   0.00042
  32       12D-2        0.00000   0.00000  -0.00002   0.00000   0.00000
  33       13F 0        0.00001  -0.00013   0.00000   0.00000  -0.00002
  34       13F+1        0.00000   0.00000  -0.00013   0.00000   0.00000
  35       13F-1       -0.00002   0.00000   0.00000   0.00003   0.00000
  36       13F+2        0.00000  -0.00001   0.00000   0.00000   0.00005
  37       13F-2        0.00000   0.00000   0.00000   0.00000   0.00000
  38       13F+3        0.00000   0.00000   0.00005   0.00000   0.00000
  39       13F-3        0.00002   0.00000   0.00000  -0.00003   0.00000
  40       14F 0        0.00002   0.00001   0.00000   0.00001   0.00048
  41       14F+1        0.00000   0.00000   0.00095   0.00000   0.00000
  42       14F-1        0.00000   0.00001   0.00000  -0.00033   0.00000
  43       14F+2        0.00002  -0.00001   0.00000  -0.00001  -0.00032
  44       14F-2        0.00000   0.00000   0.00000   0.00000   0.00000
  45       14F+3        0.00000   0.00000  -0.00031   0.00000   0.00000
  46       14F-3       -0.00002   0.00000   0.00000   0.00022  -0.00001
  47 2   S  1S          0.00833  -0.08833   0.00000   0.00066   0.01617
  48        2S         -0.02873   0.30448   0.00000  -0.00230  -0.05664
  49        3S          0.00046  -0.00501   0.00000   0.00003   0.00096
  50        4S         -0.00206   0.02185   0.00000  -0.00017  -0.00409
  51        5S          0.00078  -0.00813   0.00000  -0.00017  -0.00616
  52        6S          0.00025  -0.00278   0.00000  -0.00012  -0.00417
  53        7PX         0.00000   0.00000   0.72695   0.00000   0.00000
  54        7PY        -0.04459  -0.00197   0.00000   0.02284  -0.00058
  55        7PZ         0.02704  -0.29618   0.00000   0.00238   0.05022
  56        8PX         0.00000   0.00000  -0.00924   0.00000   0.00000
  57        8PY         0.00054   0.00001   0.00000   0.00041  -0.00001
  58        8PZ        -0.00048   0.00529   0.00000  -0.00001  -0.00005
  59        9PX         0.00000   0.00000   0.04627   0.00000   0.00000
  60        9PY        -0.00275  -0.00012   0.00000   0.00134  -0.00003
  61        9PZ         0.00176  -0.01922   0.00000   0.00015   0.00321
  62       10PX         0.00000   0.00000   0.00045   0.00000   0.00000
  63       10PY         0.00063   0.00003   0.00000   0.00138  -0.00002
  64       10PZ        -0.00032   0.00354   0.00000   0.00010   0.00393
  65       11PX         0.00000   0.00000  -0.00015   0.00000   0.00000
  66       11PY         0.00047   0.00003   0.00000   0.00012   0.00000
  67       11PZ        -0.00002   0.00020   0.00000   0.00001   0.00052
  68       12D 0        0.00013  -0.00141   0.00000   0.00001   0.00018
  69       12D+1        0.00000   0.00000   0.00161   0.00000   0.00000
  70       12D-1       -0.00022   0.00000   0.00000  -0.00046   0.00001
  71       12D+2        0.00000  -0.00010   0.00000   0.00000   0.00008
  72       12D-2        0.00000   0.00000   0.00000   0.00000   0.00000
  73       13D 0       -0.00001   0.00016   0.00000   0.00000  -0.00004
  74       13D+1        0.00000   0.00000  -0.00018   0.00000   0.00000
  75       13D-1        0.00000   0.00000   0.00000   0.00008   0.00000
  76       13D+2       -0.00001   0.00012   0.00000   0.00000  -0.00005
  77       13D-2        0.00000   0.00000   0.00000   0.00000   0.00000
  78       14D 0        0.00003  -0.00044   0.00000  -0.00001  -0.00061
  79       14D+1        0.00000   0.00000  -0.00044   0.00000   0.00000
  80       14D-1       -0.00015  -0.00001   0.00000  -0.00054   0.00001
  81       14D+2        0.00001  -0.00001   0.00000   0.00000  -0.00011
  82       14D-2        0.00000   0.00000   0.00000   0.00000   0.00000
  83       15F 0       -0.00001   0.00003   0.00000   0.00000  -0.00002
  84       15F+1        0.00000   0.00000  -0.00019   0.00000   0.00000
  85       15F-1        0.00004   0.00000   0.00000   0.00006   0.00000
  86       15F+2        0.00001  -0.00007   0.00000   0.00000  -0.00005
  87       15F-2        0.00000   0.00000   0.00000   0.00000   0.00000
  88       15F+3        0.00000   0.00000   0.00011   0.00000   0.00000
  89       15F-3       -0.00001   0.00000   0.00000  -0.00001   0.00000
  90       16F 0       -0.00002   0.00028   0.00000  -0.00001  -0.00023
  91       16F+1        0.00000   0.00000  -0.00036   0.00000   0.00000
  92       16F-1        0.00003   0.00000   0.00000   0.00018  -0.00001
  93       16F+2       -0.00001   0.00010   0.00000   0.00000   0.00004
  94       16F-2        0.00000   0.00000   0.00000   0.00000   0.00000
  95       16F+3        0.00000   0.00000  -0.00010   0.00000   0.00000
  96       16F-3        0.00004   0.00000   0.00000   0.00002   0.00000
  97 3   Br 1S          0.08733  -0.06706   0.00000  -0.00544   0.00618
  98        2S         -0.32525   0.24988   0.00000   0.02038  -0.02320
  99        3S          0.70138  -0.53996   0.00000  -0.04424   0.05086
 100        4S          0.00216  -0.00139   0.00000  -0.00009  -0.00006
 101        5S          0.03399  -0.02594   0.00000  -0.00211   0.00241
 102        6S          0.00643  -0.00535   0.00000  -0.00311   0.00354
 103        7S         -0.00417   0.00055   0.00000  -0.00200   0.00212
 104        8PX         0.00000   0.00000  -0.17499   0.00000   0.00000
 105        8PY         0.10013  -0.07205   0.00000   0.13257   0.15349
 106        8PZ         0.04104  -0.08665   0.00000  -0.23601  -0.20390
 107        9PX         0.00000   0.00000   0.49482   0.00000   0.00000
 108        9PY        -0.28137   0.19732   0.00000  -0.37376  -0.42647
 109        9PZ        -0.11528   0.24120   0.00000   0.66092   0.57358
 110       10PX         0.00000   0.00000   0.00120   0.00000   0.00000
 111       10PY        -0.00004  -0.00056   0.00000  -0.00132   0.00019
 112       10PZ         0.00020   0.00013   0.00000   0.00093   0.00110
 113       11PX         0.00000   0.00000   0.02226   0.00000   0.00000
 114       11PY        -0.01275   0.00890   0.00000  -0.01662  -0.01888
 115       11PZ        -0.00518   0.01106   0.00000   0.02939   0.02546
 116       12PX         0.00000   0.00000   0.00153   0.00000   0.00000
 117       12PY        -0.00206  -0.00012   0.00000  -0.00353   0.00038
 118       12PZ        -0.00112   0.00130   0.00000   0.00222   0.00319
 119       13PX         0.00000   0.00000   0.00022   0.00000   0.00000
 120       13PY        -0.00042   0.00008   0.00000  -0.00010   0.00048
 121       13PZ        -0.00046  -0.00010   0.00000  -0.00047  -0.00006
 122       14D 0       -0.00049  -0.00172   0.00000  -0.01019  -0.00953
 123       14D+1        0.00000   0.00000  -0.00036   0.00000   0.00000
 124       14D-1       -0.00665   0.00689   0.00000  -0.00438  -0.00747
 125       14D+2        0.00319  -0.00553   0.00000  -0.00700  -0.00471
 126       14D-2        0.00000   0.00000  -0.00005   0.00000   0.00000
 127       15D 0       -0.00006  -0.00012   0.00000  -0.00064  -0.00056
 128       15D+1        0.00000   0.00000  -0.00001   0.00000   0.00000
 129       15D-1       -0.00036   0.00050   0.00000  -0.00027  -0.00047
 130       15D+2        0.00015  -0.00042   0.00000  -0.00046  -0.00026
 131       15D-2        0.00000   0.00000   0.00010   0.00000   0.00000
 132       16D 0       -0.00002  -0.00019   0.00000  -0.00026  -0.00042
 133       16D+1        0.00000   0.00000  -0.00015   0.00000   0.00000
 134       16D-1       -0.00027  -0.00013   0.00000  -0.00019  -0.00019
 135       16D+2        0.00011   0.00002   0.00000  -0.00013  -0.00031
 136       16D-2        0.00000   0.00000  -0.00035   0.00000   0.00000
 137       17D 0       -0.00011   0.00006   0.00000   0.00006  -0.00034
 138       17D+1        0.00000   0.00000  -0.00028   0.00000   0.00000
 139       17D-1       -0.00024   0.00000   0.00000  -0.00031   0.00024
 140       17D+2        0.00029   0.00022   0.00000   0.00021  -0.00041
 141       17D-2        0.00000   0.00000  -0.00055   0.00000   0.00000
 142       18F 0        0.00008  -0.00009   0.00000   0.00005   0.00009
 143       18F+1        0.00000   0.00000   0.00000   0.00000   0.00000
 144       18F-1       -0.00001   0.00006   0.00000   0.00036   0.00032
 145       18F+2        0.00010  -0.00013   0.00000  -0.00002   0.00002
 146       18F-2        0.00000   0.00000   0.00018   0.00000   0.00000
 147       18F+3        0.00000   0.00000  -0.00019   0.00000   0.00000
 148       18F-3        0.00004  -0.00008   0.00000   0.00014   0.00008
 149       19F 0       -0.00006   0.00002   0.00000  -0.00005  -0.00008
 150       19F+1        0.00000   0.00000  -0.00001   0.00000   0.00000
 151       19F-1       -0.00003  -0.00014   0.00000  -0.00030  -0.00041
 152       19F+2       -0.00002   0.00014   0.00000   0.00001   0.00002
 153       19F-2        0.00000   0.00000  -0.00021   0.00000   0.00000
 154       19F+3        0.00000   0.00000   0.00035   0.00000   0.00000
 155       19F-3        0.00003   0.00010   0.00000  -0.00016  -0.00009
 156 4   Br 1S         -0.08140  -0.07595   0.00000   0.00597   0.00594
 157        2S          0.30317   0.28298   0.00000  -0.02239  -0.02229
 158        3S         -0.65362  -0.61141   0.00000   0.04863   0.04890
 159        4S         -0.00208  -0.00160   0.00000   0.00009  -0.00007
 160        5S         -0.03169  -0.02940   0.00000   0.00231   0.00231
 161        6S         -0.00606  -0.00600   0.00000   0.00334   0.00335
 162        7S          0.00409   0.00104   0.00000   0.00212   0.00199
 163        8PX         0.00000   0.00000  -0.17341   0.00000   0.00000
 164        8PY         0.09263   0.08392   0.00000   0.12478  -0.16170
 165        8PZ        -0.03194  -0.09093   0.00000   0.22458  -0.21523
 166        9PX         0.00000   0.00000   0.49034   0.00000   0.00000
 167        9PY        -0.26109  -0.23043   0.00000  -0.35224   0.44965
 168        9PZ         0.09012   0.25305   0.00000  -0.62881   0.60540
 169       10PX         0.00000   0.00000   0.00119   0.00000   0.00000
 170       10PY        -0.00006   0.00056   0.00000  -0.00135  -0.00011
 171       10PZ        -0.00025   0.00010   0.00000  -0.00086   0.00115
 172       11PX         0.00000   0.00000   0.02205   0.00000   0.00000
 173       11PY        -0.01184  -0.01041   0.00000  -0.01566   0.01991
 174       11PZ         0.00403   0.01159   0.00000  -0.02797   0.02688
 175       12PX         0.00000   0.00000   0.00154   0.00000   0.00000
 176       12PY        -0.00208  -0.00014   0.00000  -0.00358  -0.00015
 177       12PZ         0.00089   0.00142   0.00000  -0.00202   0.00332
 178       13PX         0.00000   0.00000   0.00023   0.00000   0.00000
 179       13PY        -0.00041  -0.00013   0.00000  -0.00013  -0.00048
 180       13PZ         0.00048  -0.00004   0.00000   0.00047  -0.00008
 181       14D 0        0.00077  -0.00152   0.00000   0.00961  -0.01004
 182       14D+1        0.00000   0.00000  -0.00037   0.00000   0.00000
 183       14D-1       -0.00579  -0.00771   0.00000  -0.00384   0.00760
 184       14D+2       -0.00244  -0.00580   0.00000   0.00676  -0.00510
 185       14D-2        0.00000   0.00000   0.00011   0.00000   0.00000
 186       15D 0        0.00007  -0.00010   0.00000   0.00061  -0.00060
 187       15D+1        0.00000   0.00000  -0.00001   0.00000   0.00000
 188       15D-1       -0.00029  -0.00055   0.00000  -0.00024   0.00048
 189       15D+2       -0.00008  -0.00043   0.00000   0.00045  -0.00028
 190       15D-2        0.00000   0.00000  -0.00010   0.00000   0.00000
 191       16D 0        0.00006  -0.00017   0.00000   0.00024  -0.00043
 192       16D+1        0.00000   0.00000  -0.00015   0.00000   0.00000
 193       16D-1       -0.00027   0.00009   0.00000  -0.00019   0.00019
 194       16D+2       -0.00011   0.00002   0.00000   0.00011  -0.00032
 195       16D-2        0.00000   0.00000   0.00035   0.00000   0.00000
 196       17D 0        0.00009   0.00007   0.00000  -0.00007  -0.00032
 197       17D+1        0.00000   0.00000  -0.00027   0.00000   0.00000
 198       17D-1       -0.00023  -0.00003   0.00000  -0.00033  -0.00024
 199       17D+2       -0.00032   0.00019   0.00000  -0.00024  -0.00040
 200       17D-2        0.00000   0.00000   0.00054   0.00000   0.00000
 201       18F 0       -0.00007  -0.00009   0.00000  -0.00005   0.00010
 202       18F+1        0.00000   0.00000   0.00000   0.00000   0.00000
 203       18F-1       -0.00001  -0.00006   0.00000   0.00034  -0.00033
 204       18F+2       -0.00009  -0.00014   0.00000   0.00002   0.00002
 205       18F-2        0.00000   0.00000  -0.00018   0.00000   0.00000
 206       18F+3        0.00000   0.00000  -0.00018   0.00000   0.00000
 207       18F-3        0.00003   0.00008   0.00000   0.00013  -0.00009
 208       19F 0        0.00007   0.00002   0.00000   0.00005  -0.00009
 209       19F+1        0.00000   0.00000  -0.00001   0.00000   0.00000
 210       19F-1       -0.00005   0.00013   0.00000  -0.00028   0.00043
 211       19F+2        0.00001   0.00014   0.00000   0.00000   0.00002
 212       19F-2        0.00000   0.00000   0.00021   0.00000   0.00000
 213       19F+3        0.00000   0.00000   0.00035   0.00000   0.00000
 214       19F-3        0.00005  -0.00010   0.00000  -0.00016   0.00010
                          11        12        13        14        15
     Eigenvalues --     2.00001   2.00000   2.00000   2.00000   2.00000
   1 1   C  1S          0.00000   0.00000   0.77143  -0.00083   0.00056
   2        2S          0.00000   0.00000  -0.00784   0.00001  -0.00001
   3        3S          0.00000   0.00000   0.03236  -0.00004   0.00002
   4        4S          0.00000   0.00000  -0.01022  -0.00014   0.00010
   5        5S          0.00000   0.00000  -0.00555   0.00006  -0.00004
   6        6PX         0.00000  -0.00154   0.00000   0.00000   0.00000
   7        6PY         0.00000   0.00000   0.00000   0.00000   0.00000
   8        6PZ         0.00000   0.00000  -0.00058   0.00001   0.00000
   9        7PX        -0.00001  -0.00173   0.00000   0.00000   0.00000
  10        7PY         0.00000   0.00000   0.00002  -0.00001  -0.00001
  11        7PZ         0.00000   0.00000   0.00167   0.00002  -0.00001
  12        8PX         0.00000  -0.00155   0.00000   0.00000   0.00000
  13        8PY         0.00000   0.00000  -0.00001   0.00020   0.00027
  14        8PZ         0.00000   0.00000  -0.00395  -0.00085   0.00058
  15        9PX         0.00000  -0.00047   0.00000   0.00000   0.00000
  16        9PY         0.00000   0.00000   0.00000   0.00007   0.00009
  17        9PZ         0.00000   0.00000   0.00069  -0.00015   0.00010
  18       10D 0        0.00000   0.00000   0.00030   0.00000   0.00000
  19       10D+1        0.00000  -0.00008   0.00000   0.00000   0.00000
  20       10D-1        0.00000   0.00000   0.00000   0.00000   0.00000
  21       10D+2        0.00000   0.00000  -0.00027   0.00000   0.00000
  22       10D-2        0.00009   0.00000   0.00000   0.00000   0.00000
  23       11D 0        0.00000   0.00000  -0.00030   0.00001  -0.00001
  24       11D+1        0.00000   0.00108   0.00000   0.00000   0.00000
  25       11D-1        0.00000   0.00000  -0.00001   0.00001   0.00001
  26       11D+2        0.00000   0.00000   0.00154   0.00001   0.00000
  27       11D-2        0.00067   0.00000   0.00000   0.00000   0.00000
  28       12D 0        0.00000   0.00000  -0.00406  -0.00008   0.00006
  29       12D+1        0.00000  -0.00148   0.00000   0.00000   0.00000
  30       12D-1        0.00000   0.00000  -0.00004  -0.00001  -0.00001
  31       12D+2        0.00000   0.00000  -0.00150  -0.00006   0.00005
  32       12D-2       -0.00005  -0.00001   0.00000   0.00000   0.00000
  33       13F 0        0.00000   0.00000   0.00034   0.00001   0.00000
  34       13F+1        0.00000  -0.00008   0.00000   0.00000   0.00000
  35       13F-1        0.00000   0.00000   0.00000   0.00000   0.00001
  36       13F+2        0.00000   0.00000  -0.00007   0.00000   0.00000
  37       13F-2        0.00000   0.00000   0.00000   0.00000   0.00000
  38       13F+3        0.00000   0.00001   0.00000   0.00000   0.00000
  39       13F-3        0.00000   0.00000   0.00000   0.00000   0.00000
  40       14F 0        0.00000   0.00000  -0.00109  -0.00003   0.00002
  41       14F+1        0.00000   0.00051   0.00000   0.00000   0.00000
  42       14F-1        0.00000   0.00000  -0.00003  -0.00003  -0.00005
  43       14F+2        0.00000   0.00000  -0.00088   0.00004  -0.00003
  44       14F-2       -0.00019   0.00000   0.00000   0.00000   0.00000
  45       14F+3        0.00000   0.00019   0.00000   0.00000   0.00000
  46       14F-3        0.00000   0.00000  -0.00001  -0.00002  -0.00003
  47 2   S  1S          0.00000   0.00000   0.06069  -0.00193   0.00131
  48        2S          0.00000   0.00000  -0.21120  -0.00006   0.00004
  49        3S          0.00000   0.00000   0.00232  -0.00003   0.00002
  50        4S          0.00000   0.00000  -0.01556   0.00000   0.00000
  51        5S          0.00000   0.00000   0.00957   0.00066  -0.00046
  52        6S          0.00000   0.00000   0.00017   0.00039  -0.00027
  53        7PX         0.00112   0.64526   0.00000   0.00000   0.00000
  54        7PY         0.00000   0.00000  -0.00168  -0.00003  -0.00006
  55        7PZ         0.00000   0.00000   0.47112  -0.00011   0.00007
  56        8PX        -0.00001  -0.00702   0.00000   0.00000   0.00000
  57        8PY         0.00000   0.00000   0.00003   0.00001   0.00001
  58        8PZ         0.00000   0.00000  -0.00545  -0.00006   0.00004
  59        9PX         0.00007   0.04155   0.00000   0.00000   0.00000
  60        9PY         0.00000   0.00000  -0.00011   0.00000   0.00000
  61        9PZ         0.00000   0.00000   0.03103   0.00000   0.00000
  62       10PX         0.00000   0.00271   0.00000   0.00000   0.00000
  63       10PY         0.00000   0.00000   0.00004  -0.00005  -0.00007
  64       10PZ         0.00000   0.00000  -0.00138  -0.00037   0.00026
  65       11PX         0.00000  -0.00025   0.00000   0.00000   0.00000
  66       11PY         0.00000   0.00000   0.00000  -0.00001  -0.00001
  67       11PZ         0.00000   0.00000  -0.00003  -0.00004   0.00003
  68       12D 0        0.00000   0.00000   0.00094   0.00001  -0.00001
  69       12D+1        0.00000   0.00123   0.00000   0.00000   0.00000
  70       12D-1        0.00000   0.00000  -0.00002   0.00001   0.00001
  71       12D+2        0.00000   0.00000   0.00029  -0.00001   0.00001
  72       12D-2        0.00004   0.00000   0.00000   0.00000   0.00000
  73       13D 0        0.00000   0.00000  -0.00055   0.00000   0.00000
  74       13D+1        0.00000  -0.00006   0.00000   0.00000   0.00000
  75       13D-1        0.00000   0.00000   0.00000   0.00000   0.00000
  76       13D+2        0.00000   0.00000  -0.00010   0.00000   0.00000
  77       13D-2        0.00003   0.00000   0.00000   0.00000   0.00000
  78       14D 0        0.00000   0.00000  -0.00002   0.00006  -0.00004
  79       14D+1        0.00000  -0.00110   0.00000   0.00000   0.00000
  80       14D-1        0.00000   0.00000  -0.00001   0.00002   0.00004
  81       14D+2        0.00000   0.00000   0.00055   0.00001   0.00000
  82       14D-2        0.00000   0.00000   0.00000   0.00000   0.00000
  83       15F 0        0.00000   0.00000   0.00041   0.00000   0.00000
  84       15F+1        0.00000  -0.00021   0.00000   0.00000   0.00000
  85       15F-1        0.00000   0.00000   0.00000   0.00000   0.00000
  86       15F+2        0.00000   0.00000   0.00011   0.00001  -0.00001
  87       15F-2        0.00000   0.00000   0.00000   0.00000   0.00000
  88       15F+3        0.00000   0.00009   0.00000   0.00000   0.00000
  89       15F-3        0.00000   0.00000   0.00000   0.00000   0.00000
  90       16F 0        0.00000   0.00000  -0.00037   0.00002  -0.00001
  91       16F+1        0.00000  -0.00012   0.00000   0.00000   0.00000
  92       16F-1        0.00000   0.00000   0.00001   0.00000  -0.00001
  93       16F+2        0.00000   0.00000  -0.00045   0.00000   0.00000
  94       16F-2       -0.00001   0.00000   0.00000   0.00000   0.00000
  95       16F+3        0.00000  -0.00012   0.00000   0.00000   0.00000
  96       16F-3        0.00000   0.00000   0.00000   0.00000   0.00000
  97 3   Br 1S          0.00000   0.00000   0.00144   0.00555   0.01061
  98        2S          0.00000   0.00000  -0.00410  -0.01871  -0.03157
  99        3S          0.00000   0.00000  -0.00656  -0.00191  -0.00283
 100        4S          0.00000   0.00000   0.00067   0.00002  -0.00002
 101        5S          0.00000   0.00000  -0.00050  -0.00006  -0.00009
 102        6S          0.00000   0.00000   0.00094  -0.00021   0.00032
 103        7S          0.00000   0.00000   0.00252  -0.00006   0.00032
 104        8PX         0.26152   0.19774   0.00000   0.00000   0.00000
 105        8PY         0.00000   0.00000  -0.08182  -0.61111  -0.17889
 106        8PZ         0.00000   0.00000  -0.07097   0.77670   0.08028
 107        9PX        -0.73955  -0.55658   0.00000   0.00000   0.00000
 108        9PY         0.00000   0.00000   0.16653   0.00957   0.00156
 109        9PZ         0.00000   0.00000   0.15881  -0.01718  -0.00317
 110       10PX        -0.00124   0.00031   0.00000   0.00000   0.00000
 111       10PY         0.00000   0.00000  -0.00022  -0.00031  -0.00004
 112       10PZ         0.00000   0.00000   0.00002   0.00034   0.00007
 113       11PX        -0.03302  -0.02425   0.00000   0.00000   0.00000
 114       11PY         0.00000   0.00000   0.00686   0.00087   0.00020
 115       11PZ         0.00000   0.00000   0.00647  -0.00130  -0.00019
 116       12PX        -0.00381  -0.00249   0.00000   0.00000   0.00000
 117       12PY         0.00000   0.00000   0.00196  -0.00003   0.00024
 118       12PZ         0.00000   0.00000  -0.00014  -0.00013   0.00011
 119       13PX         0.00031   0.00038   0.00000   0.00000   0.00000
 120       13PY         0.00000   0.00000   0.00038  -0.00003   0.00004
 121       13PZ         0.00000   0.00000   0.00019   0.00003   0.00003
 122       14D 0        0.00000   0.00000  -0.00147   0.00055   0.00009
 123       14D+1        0.00057   0.00022   0.00000   0.00000   0.00000
 124       14D-1        0.00000   0.00000   0.01055   0.00032   0.00011
 125       14D+2        0.00000   0.00000  -0.00746   0.00031   0.00001
 126       14D-2       -0.00027  -0.00039   0.00000   0.00000   0.00000
 127       15D 0        0.00000   0.00000  -0.00011   0.00001   0.00000
 128       15D+1       -0.00004  -0.00010   0.00000   0.00000   0.00000
 129       15D-1        0.00000   0.00000   0.00092   0.00001   0.00001
 130       15D+2        0.00000   0.00000  -0.00066   0.00000   0.00000
 131       15D-2       -0.00013  -0.00017   0.00000   0.00000   0.00000
 132       16D 0        0.00000   0.00000   0.00013   0.00009   0.00001
 133       16D+1        0.00011   0.00012   0.00000   0.00000   0.00000
 134       16D-1        0.00000   0.00000   0.00100   0.00003   0.00000
 135       16D+2        0.00000   0.00000  -0.00043   0.00006   0.00000
 136       16D-2        0.00019  -0.00001   0.00000   0.00000   0.00000
 137       17D 0        0.00000   0.00000  -0.00024   0.00000  -0.00002
 138       17D+1       -0.00007  -0.00011   0.00000   0.00000   0.00000
 139       17D-1        0.00000   0.00000   0.00011  -0.00002   0.00004
 140       17D+2        0.00000   0.00000  -0.00052   0.00000  -0.00005
 141       17D-2       -0.00013  -0.00036   0.00000   0.00000   0.00000
 142       18F 0        0.00000   0.00000  -0.00012   0.00000   0.00000
 143       18F+1       -0.00001  -0.00002   0.00000   0.00000   0.00000
 144       18F-1        0.00000   0.00000   0.00011  -0.00001   0.00000
 145       18F+2        0.00000   0.00000  -0.00019   0.00000   0.00000
 146       18F-2       -0.00023  -0.00018   0.00000   0.00000   0.00000
 147       18F+3        0.00018   0.00012   0.00000   0.00000   0.00000
 148       18F-3        0.00000   0.00000  -0.00007   0.00000   0.00000
 149       19F 0        0.00000   0.00000  -0.00007   0.00001   0.00001
 150       19F+1        0.00001   0.00005   0.00000   0.00000   0.00000
 151       19F-1        0.00000   0.00000   0.00021   0.00004   0.00000
 152       19F+2        0.00000   0.00000  -0.00022   0.00000   0.00001
 153       19F-2        0.00018   0.00016   0.00000   0.00000   0.00000
 154       19F+3       -0.00014   0.00002   0.00000   0.00000   0.00000
 155       19F-3        0.00000   0.00000  -0.00006   0.00001   0.00000
 156 4   Br 1S          0.00000   0.00000   0.00142  -0.00722  -0.00955
 157        2S          0.00000   0.00000  -0.00403   0.02058   0.03059
 158        3S          0.00000   0.00000  -0.00674   0.00172   0.00297
 159        4S          0.00000   0.00000   0.00066   0.00002  -0.00001
 160        5S          0.00000   0.00000  -0.00051   0.00006   0.00009
 161        6S          0.00000   0.00000   0.00089  -0.00039   0.00010
 162        7S          0.00000   0.00000   0.00250  -0.00033  -0.00006
 163        8PX        -0.26321   0.19685   0.00000   0.00000   0.00000
 164        8PY         0.00000   0.00000   0.08185   0.05480  -0.64628
 165        8PZ         0.00000   0.00000  -0.07208   0.18459  -0.74585
 166        9PX         0.74437  -0.55411   0.00000   0.00000   0.00000
 167        9PY         0.00000   0.00000  -0.16751  -0.00177   0.00956
 168        9PZ         0.00000   0.00000   0.16219  -0.00300   0.01721
 169       10PX         0.00126   0.00030   0.00000   0.00000   0.00000
 170       10PY         0.00000   0.00000   0.00022   0.00008  -0.00031
 171       10PZ         0.00000   0.00000  -0.00001   0.00005  -0.00033
 172       11PX         0.03324  -0.02414   0.00000   0.00000   0.00000
 173       11PY         0.00000   0.00000  -0.00691  -0.00012   0.00090
 174       11PZ         0.00000   0.00000   0.00662  -0.00026   0.00127
 175       12PX         0.00383  -0.00247   0.00000   0.00000   0.00000
 176       12PY         0.00000   0.00000  -0.00196   0.00024   0.00005
 177       12PZ         0.00000   0.00000  -0.00013  -0.00015   0.00008
 178       13PX        -0.00031   0.00037   0.00000   0.00000   0.00000
 179       13PY         0.00000   0.00000  -0.00037   0.00005  -0.00001
 180       13PZ         0.00000   0.00000   0.00018  -0.00002  -0.00004
 181       14D 0        0.00000   0.00000  -0.00136   0.00010  -0.00055
 182       14D+1       -0.00059   0.00023   0.00000   0.00000   0.00000
 183       14D-1        0.00000   0.00000  -0.01054  -0.00001   0.00033
 184       14D+2        0.00000   0.00000  -0.00736   0.00009  -0.00029
 185       14D-2       -0.00018   0.00031   0.00000   0.00000   0.00000
 186       15D 0        0.00000   0.00000  -0.00010   0.00000  -0.00001
 187       15D+1        0.00004  -0.00010   0.00000   0.00000   0.00000
 188       15D-1        0.00000   0.00000  -0.00092   0.00001   0.00001
 189       15D+2        0.00000   0.00000  -0.00065   0.00001   0.00000
 190       15D-2       -0.00012   0.00016   0.00000   0.00000   0.00000
 191       16D 0        0.00000   0.00000   0.00013   0.00002  -0.00008
 192       16D+1       -0.00011   0.00012   0.00000   0.00000   0.00000
 193       16D-1        0.00000   0.00000  -0.00099   0.00000   0.00003
 194       16D+2        0.00000   0.00000  -0.00043   0.00003  -0.00006
 195       16D-2        0.00019   0.00001   0.00000   0.00000   0.00000
 196       17D 0        0.00000   0.00000  -0.00025   0.00002   0.00001
 197       17D+1        0.00007  -0.00011   0.00000   0.00000   0.00000
 198       17D-1        0.00000   0.00000  -0.00012   0.00004  -0.00001
 199       17D+2        0.00000   0.00000  -0.00053   0.00005   0.00001
 200       17D-2       -0.00013   0.00036   0.00000   0.00000   0.00000
 201       18F 0        0.00000   0.00000  -0.00012   0.00000   0.00000
 202       18F+1        0.00002  -0.00002   0.00000   0.00000   0.00000
 203       18F-1        0.00000   0.00000  -0.00011   0.00000  -0.00001
 204       18F+2        0.00000   0.00000  -0.00019   0.00000   0.00000
 205       18F-2       -0.00023   0.00018   0.00000   0.00000   0.00000
 206       18F+3       -0.00018   0.00011   0.00000   0.00000   0.00000
 207       18F-3        0.00000   0.00000   0.00007  -0.00001   0.00000
 208       19F 0        0.00000   0.00000  -0.00007   0.00000  -0.00001
 209       19F+1       -0.00002   0.00006   0.00000   0.00000   0.00000
 210       19F-1        0.00000   0.00000  -0.00021  -0.00001   0.00004
 211       19F+2        0.00000   0.00000  -0.00022   0.00000   0.00000
 212       19F-2        0.00018  -0.00016   0.00000   0.00000   0.00000
 213       19F+3        0.00014   0.00002   0.00000   0.00000   0.00000
 214       19F-3        0.00000   0.00000   0.00006   0.00000   0.00001
                          16        17        18        19        20
     Eigenvalues --     2.00000   2.00000   2.00000   2.00000   2.00000
   1 1   C  1S          0.00019   0.00000   0.00000   0.02391   0.00022
   2        2S          0.00000   0.00000   0.00000  -0.00022   0.00000
   3        3S          0.00001   0.00000   0.00000   0.00105   0.00001
   4        4S          0.00000   0.00000   0.00000  -0.00137  -0.00001
   5        5S          0.00000   0.00000   0.00000  -0.00064   0.00000
   6        6PX         0.00000   0.00001   0.00000   0.00000   0.00000
   7        6PY        -0.00003   0.00000   0.00000   0.00000   0.00000
   8        6PZ         0.00000   0.00000   0.00000  -0.00004   0.00000
   9        7PX         0.00000  -0.00002   0.00000   0.00000   0.00000
  10        7PY         0.00006   0.00000   0.00000   0.00000   0.00002
  11        7PZ         0.00000   0.00000   0.00000   0.00007   0.00000
  12        8PX         0.00000  -0.00015  -0.00001   0.00000   0.00000
  13        8PY         0.00061   0.00000   0.00000   0.00000   0.00002
  14        8PZ         0.00001   0.00000   0.00000   0.00053   0.00000
  15        9PX         0.00000   0.00003   0.00000   0.00000   0.00000
  16        9PY         0.00007   0.00000   0.00000   0.00000  -0.00001
  17        9PZ         0.00000   0.00000   0.00000   0.00013   0.00000
  18       10D 0        0.00000   0.00000   0.00000   0.00001   0.00000
  19       10D+1        0.00000   0.00000   0.00000   0.00000   0.00000
  20       10D-1        0.00000   0.00000   0.00000   0.00000   0.00000
  21       10D+2        0.00000   0.00000   0.00000  -0.00001   0.00000
  22       10D-2        0.00000   0.00000   0.00001   0.00000   0.00000
  23       11D 0        0.00000   0.00000   0.00000  -0.00003   0.00000
  24       11D+1        0.00000   0.00002   0.00000   0.00000   0.00000
  25       11D-1       -0.00008   0.00000   0.00000   0.00000  -0.00001
  26       11D+2        0.00000   0.00000   0.00000   0.00014   0.00000
  27       11D-2        0.00000   0.00000  -0.00004   0.00000   0.00000
  28       12D 0        0.00000   0.00000   0.00000   0.00011   0.00000
  29       12D+1        0.00000  -0.00004   0.00000   0.00000   0.00000
  30       12D-1       -0.00042   0.00000   0.00000   0.00000  -0.00005
  31       12D+2        0.00000   0.00000   0.00000   0.00021   0.00000
  32       12D-2        0.00000   0.00000   0.00004   0.00000   0.00000
  33       13F 0        0.00000   0.00000   0.00000   0.00000   0.00000
  34       13F+1        0.00000   0.00000   0.00000   0.00000   0.00000
  35       13F-1        0.00000   0.00000   0.00000   0.00000   0.00000
  36       13F+2        0.00000   0.00000   0.00000   0.00000   0.00000
  37       13F-2        0.00000   0.00000   0.00000   0.00000   0.00000
  38       13F+3        0.00000  -0.00001   0.00000   0.00000   0.00000
  39       13F-3        0.00001   0.00000   0.00000   0.00000   0.00000
  40       14F 0        0.00000   0.00000   0.00000  -0.00001   0.00000
  41       14F+1        0.00000  -0.00002   0.00000   0.00000   0.00000
  42       14F-1       -0.00005   0.00000   0.00000   0.00000  -0.00001
  43       14F+2        0.00000   0.00000   0.00000  -0.00004   0.00000
  44       14F-2        0.00000   0.00000   0.00003   0.00000   0.00000
  45       14F+3        0.00000   0.00004   0.00000   0.00000   0.00000
  46       14F-3       -0.00004   0.00000   0.00000   0.00000  -0.00001
  47 2   S  1S         -0.00009   0.00000   0.00000  -0.03422  -0.00109
  48        2S         -0.00004   0.00000   0.00000  -0.00602  -0.00007
  49        3S          0.00000   0.00000   0.00000   0.00002   0.00000
  50        4S          0.00000   0.00000   0.00000  -0.00043   0.00000
  51        5S         -0.00001   0.00000   0.00000   0.00003   0.00000
  52        6S          0.00000   0.00000   0.00000   0.00003   0.00000
  53        7PX         0.00000  -0.00082  -0.00004   0.00000   0.00000
  54        7PY         0.00056   0.00000   0.00000  -0.00005  -0.00004
  55        7PZ         0.00010   0.00000   0.00000   0.01329   0.00012
  56        8PX         0.00000   0.00001   0.00000   0.00000   0.00000
  57        8PY         0.00000   0.00000   0.00000   0.00000   0.00001
  58        8PZ         0.00000   0.00000   0.00000  -0.00016   0.00000
  59        9PX         0.00000  -0.00005   0.00000   0.00000   0.00000
  60        9PY         0.00004   0.00000   0.00000   0.00000   0.00000
  61        9PZ         0.00001   0.00000   0.00000   0.00089   0.00001
  62       10PX         0.00000   0.00010   0.00000   0.00000   0.00000
  63       10PY         0.00018   0.00000   0.00000   0.00000   0.00001
  64       10PZ         0.00000   0.00000   0.00000  -0.00005   0.00000
  65       11PX         0.00000  -0.00001   0.00000   0.00000   0.00000
  66       11PY         0.00000   0.00000   0.00000   0.00000   0.00000
  67       11PZ         0.00000   0.00000   0.00000  -0.00003   0.00000
  68       12D 0        0.00000   0.00000   0.00000   0.00007   0.00000
  69       12D+1        0.00000  -0.00002   0.00000   0.00000   0.00000
  70       12D-1       -0.00001   0.00000   0.00000   0.00000   0.00000
  71       12D+2        0.00000   0.00000   0.00000  -0.00001   0.00000
  72       12D-2        0.00000   0.00000  -0.00001   0.00000   0.00000
  73       13D 0        0.00000   0.00000   0.00000  -0.00002   0.00000
  74       13D+1        0.00000   0.00000   0.00000   0.00000   0.00000
  75       13D-1        0.00000   0.00000   0.00000   0.00000   0.00000
  76       13D+2        0.00000   0.00000   0.00000   0.00000   0.00000
  77       13D-2        0.00000   0.00000   0.00000   0.00000   0.00000
  78       14D 0        0.00000   0.00000   0.00000   0.00003   0.00000
  79       14D+1        0.00000  -0.00005   0.00000   0.00000   0.00000
  80       14D-1       -0.00004   0.00000   0.00000   0.00000   0.00000
  81       14D+2        0.00000   0.00000   0.00000  -0.00002   0.00000
  82       14D-2        0.00000   0.00000  -0.00001   0.00000   0.00000
  83       15F 0        0.00000   0.00000   0.00000   0.00001   0.00000
  84       15F+1        0.00000   0.00000   0.00000   0.00000   0.00000
  85       15F-1        0.00000   0.00000   0.00000   0.00000   0.00000
  86       15F+2        0.00000   0.00000   0.00000   0.00001   0.00000
  87       15F-2        0.00000   0.00000   0.00000   0.00000   0.00000
  88       15F+3        0.00000   0.00000   0.00000   0.00000   0.00000
  89       15F-3        0.00000   0.00000   0.00000   0.00000   0.00000
  90       16F 0        0.00000   0.00000   0.00000  -0.00002   0.00000
  91       16F+1        0.00000   0.00002   0.00000   0.00000   0.00000
  92       16F-1        0.00000   0.00000   0.00000   0.00000   0.00000
  93       16F+2        0.00000   0.00000   0.00000   0.00000   0.00000
  94       16F-2        0.00000   0.00000   0.00001   0.00000   0.00000
  95       16F+3        0.00000  -0.00001   0.00000   0.00000   0.00000
  96       16F-3        0.00000   0.00000   0.00000   0.00000   0.00000
  97 3   Br 1S         -0.04974   0.00000   0.00000   0.00587   0.21351
  98        2S          0.15545   0.00000   0.00000  -0.01956  -0.69217
  99        3S          0.01468   0.00000   0.00000   0.00688  -0.02954
 100        4S         -0.00014   0.00000   0.00000  -0.00008   0.00020
 101        5S          0.00044   0.00000   0.00000   0.00023  -0.00070
 102        6S          0.00077   0.00000   0.00000   0.00078  -0.00003
 103        7S          0.00009   0.00000   0.00000   0.00029  -0.00003
 104        8PX         0.00000   0.74824  -0.67601   0.00000   0.00000
 105        8PY         0.49004   0.00000   0.00000   0.57745   0.13815
 106        8PZ         0.48056   0.00000   0.00000   0.40004   0.08449
 107        9PX         0.00000  -0.01664   0.01573   0.00000   0.00000
 108        9PY         0.00501   0.00000   0.00000   0.00885  -0.00225
 109        9PZ         0.00021   0.00000   0.00000   0.00567  -0.00133
 110       10PX         0.00000   0.00030  -0.00028   0.00000   0.00000
 111       10PY         0.00027   0.00000   0.00000   0.00036   0.00007
 112       10PZ         0.00029   0.00000   0.00000   0.00023   0.00005
 113       11PX         0.00000  -0.00127   0.00118   0.00000   0.00000
 114       11PY        -0.00023   0.00000   0.00000  -0.00017  -0.00022
 115       11PZ        -0.00041   0.00000   0.00000  -0.00013  -0.00013
 116       12PX         0.00000  -0.00008   0.00013   0.00000   0.00000
 117       12PY         0.00024   0.00000   0.00000   0.00025  -0.00005
 118       12PZ         0.00008   0.00000   0.00000   0.00024  -0.00002
 119       13PX         0.00000   0.00002  -0.00003   0.00000   0.00000
 120       13PY         0.00000   0.00000   0.00000   0.00004   0.00000
 121       13PZ         0.00001   0.00000   0.00000   0.00001   0.00000
 122       14D 0        0.00007   0.00000   0.00000  -0.00002   0.00003
 123       14D+1        0.00000   0.00003  -0.00003   0.00000   0.00000
 124       14D-1       -0.00022   0.00000   0.00000   0.00008  -0.00002
 125       14D+2        0.00024   0.00000   0.00000  -0.00003  -0.00005
 126       14D-2        0.00000  -0.00002   0.00002   0.00000   0.00000
 127       15D 0        0.00000   0.00000   0.00000   0.00000   0.00000
 128       15D+1        0.00000  -0.00001   0.00001   0.00000   0.00000
 129       15D-1       -0.00004   0.00000   0.00000  -0.00002   0.00000
 130       15D+2        0.00004   0.00000   0.00000   0.00002   0.00000
 131       15D-2        0.00000  -0.00002   0.00002   0.00000   0.00000
 132       16D 0        0.00003   0.00000   0.00000  -0.00001   0.00001
 133       16D+1        0.00000   0.00003  -0.00002   0.00000   0.00000
 134       16D-1        0.00010   0.00000   0.00000   0.00014   0.00001
 135       16D+2       -0.00005   0.00000   0.00000  -0.00012  -0.00001
 136       16D-2        0.00000   0.00004  -0.00003   0.00000   0.00000
 137       17D 0       -0.00003   0.00000   0.00000   0.00001   0.00000
 138       17D+1        0.00000   0.00000   0.00002   0.00000   0.00000
 139       17D-1        0.00003   0.00000   0.00000   0.00006  -0.00001
 140       17D+2       -0.00002   0.00000   0.00000  -0.00003   0.00002
 141       17D-2        0.00000   0.00000   0.00002   0.00000   0.00000
 142       18F 0        0.00000   0.00000   0.00000   0.00000   0.00000
 143       18F+1        0.00000   0.00000   0.00000   0.00000   0.00000
 144       18F-1        0.00001   0.00000   0.00000   0.00000   0.00000
 145       18F+2       -0.00001   0.00000   0.00000  -0.00001   0.00000
 146       18F-2        0.00000  -0.00001   0.00000   0.00000   0.00000
 147       18F+3        0.00000   0.00000   0.00000   0.00000   0.00000
 148       18F-3       -0.00001   0.00000   0.00000  -0.00001   0.00000
 149       19F 0       -0.00001   0.00000   0.00000  -0.00002   0.00000
 150       19F+1        0.00000   0.00001   0.00000   0.00000   0.00000
 151       19F-1        0.00002   0.00000   0.00000   0.00001   0.00000
 152       19F+2       -0.00002   0.00000   0.00000  -0.00003   0.00000
 153       19F-2        0.00000   0.00002  -0.00001   0.00000   0.00000
 154       19F+3        0.00000  -0.00002   0.00001   0.00000   0.00000
 155       19F-3        0.00000   0.00000   0.00000  -0.00002   0.00000
 156 4   Br 1S          0.05080   0.00000   0.00000   0.00607  -0.22398
 157        2S         -0.15881   0.00000   0.00000  -0.02031   0.72636
 158        3S         -0.01479   0.00000   0.00000   0.00678   0.03109
 159        4S          0.00014   0.00000   0.00000  -0.00008  -0.00021
 160        5S         -0.00044   0.00000   0.00000   0.00022   0.00073
 161        6S         -0.00076   0.00000   0.00000   0.00078   0.00004
 162        7S         -0.00008   0.00000   0.00000   0.00029   0.00003
 163        8PX         0.00000   0.67574   0.74849   0.00000   0.00000
 164        8PY         0.47831   0.00000  -0.00001  -0.57459   0.13643
 165        8PZ        -0.49767   0.00000   0.00000   0.40308  -0.08503
 166        9PX         0.00000  -0.01497  -0.01735   0.00000   0.00000
 167        9PY         0.00509   0.00000   0.00000  -0.00882  -0.00250
 168        9PZ         0.00015   0.00000   0.00000   0.00575   0.00154
 169       10PX         0.00000   0.00027   0.00030   0.00000   0.00000
 170       10PY         0.00026   0.00000   0.00000  -0.00035   0.00007
 171       10PZ        -0.00029   0.00000   0.00000   0.00023  -0.00005
 172       11PX         0.00000  -0.00115  -0.00130   0.00000   0.00000
 173       11PY        -0.00022   0.00000   0.00000   0.00017  -0.00022
 174       11PZ         0.00044   0.00000   0.00000  -0.00013   0.00014
 175       12PX         0.00000  -0.00007  -0.00013   0.00000   0.00000
 176       12PY         0.00023   0.00000   0.00000  -0.00025  -0.00005
 177       12PZ        -0.00008   0.00000   0.00000   0.00024   0.00003
 178       13PX         0.00000   0.00001   0.00003   0.00000   0.00000
[...]
 174       11PZ        -0.00849  -0.00026  -0.01270  -0.01866   0.00000
 175       12PX         0.00000   0.00000   0.00000   0.00000   0.37712
 176       12PY         8.20414  -5.03787   2.78192  -5.75466   0.00000
 177       12PZ        -3.39909   5.91445  -1.69122   2.54765   0.00000
 178       13PX         0.00000   0.00000   0.00000   0.00000  -2.13030
 179       13PY        -0.47395  -1.11550   2.00082  -3.32559   0.00000
 180       13PZ        -1.70524   0.66178   0.24477   1.14356   0.00000
 181       14D 0        0.00292  -0.00132  -0.00422  -0.00019   0.00000
 182       14D+1        0.00000   0.00000   0.00000   0.00000   0.00097
 183       14D-1        0.00389   0.00108   0.00019   0.00007   0.00000
 184       14D+2        0.00418  -0.00121   0.00253   0.00374   0.00000
 185       14D-2        0.00000   0.00000   0.00000   0.00000  -0.00123
 186       15D 0       -0.03640   0.02358   0.04858   0.00198   0.00000
 187       15D+1        0.00000   0.00000   0.00000   0.00000  -0.01495
 188       15D-1       -0.05426   0.00129  -0.01490   0.01174   0.00000
 189       15D+2       -0.05161   0.02557  -0.03405  -0.03390   0.00000
 190       15D-2        0.00000   0.00000   0.00000   0.00000   0.02444
 191       16D 0        0.23456  -0.16833  -0.24683  -0.01895   0.00000
 192       16D+1        0.00000   0.00000   0.00000   0.00000   0.07255
 193       16D-1        0.47080  -0.36577   0.28942  -0.13971   0.00000
 194       16D+2        0.43317  -0.39613   0.27417   0.09942   0.00000
 195       16D-2        0.00000   0.00000   0.00000   0.00000  -0.12850
 196       17D 0        0.59943   0.83145   0.30339  -0.46969   0.00000
 197       17D+1        0.00000   0.00000   0.00000   0.00000  -0.16348
 198       17D-1        1.02697  -1.71714  -0.03193  -1.42600   0.00000
 199       17D+2        0.81209  -0.45998  -0.04978  -2.00500   0.00000
 200       17D-2        0.00000   0.00000   0.00000   0.00000   0.15312
 201       18F 0       -0.03667  -0.00277   0.02675  -0.00421   0.00000
 202       18F+1        0.00000   0.00000   0.00000   0.00000  -0.01539
 203       18F-1        0.00373  -0.03632   0.00151   0.01274   0.00000
 204       18F+2       -0.00816  -0.01214   0.00002   0.03809   0.00000
 205       18F-2        0.00000   0.00000   0.00000   0.00000   0.00478
 206       18F+3        0.00000   0.00000   0.00000   0.00000   0.04299
 207       18F-3       -0.02251  -0.01586  -0.01292  -0.03350   0.00000
 208       19F 0        0.20476  -0.08749  -0.07151  -0.06492   0.00000
 209       19F+1        0.00000   0.00000   0.00000   0.00000   0.02370
 210       19F-1       -0.02092   0.03358   0.05001  -0.03926   0.00000
 211       19F+2        0.14060  -0.10775   0.02119  -0.19814   0.00000
 212       19F-2        0.00000   0.00000   0.00000   0.00000  -0.01464
 213       19F+3        0.00000   0.00000   0.00000   0.00000  -0.10260
 214       19F-3       -0.00263   0.08849   0.01862   0.17866   0.00000
                         211       212       213       214
     Eigenvalues --     0.00000   0.00000   0.00000   0.00000
   1 1   C  1S         -0.12849  -0.00126   0.02649  -0.02007
   2        2S         -0.61168  -0.00643   0.10613  -0.06144
   3        3S          0.09161  -0.00017  -0.06561   0.11060
   4        4S          3.18083   0.11899  -3.55694   1.00849
   5        5S         21.35039   0.19243   2.53886  26.17846
   6        6PX         0.00000   0.00000   0.00000   0.00000
   7        6PY        -0.00003  -0.01503  -0.00006  -0.00014
   8        6PZ        -0.00620  -0.00030  -0.02095   0.01751
   9        7PX         0.00000   0.00000   0.00000   0.00000
  10        7PY         0.00090   0.02077   0.00052   0.00111
  11        7PZ         0.10755   0.00314   0.01363  -0.16920
  12        8PX         0.00000   0.00000   0.00000   0.00000
  13        8PY         0.06995  -5.95425   0.00564  -0.01477
  14        8PZ         3.67190   0.04303  -5.09886   0.28188
  15        9PX         0.00000   0.00000   0.00000   0.00000
  16        9PY         0.17012 -19.83012   0.07943  -0.05486
  17        9PZ         8.50655   0.07290 -12.93441  -0.42228
  18       10D 0        0.00956  -0.00010   0.00941   0.01170
  19       10D+1        0.00000   0.00000   0.00000   0.00000
  20       10D-1        0.00007  -0.01287   0.00007   0.00003
  21       10D+2       -0.03219   0.00027   0.01073  -0.03153
  22       10D-2        0.00000   0.00000   0.00000   0.00000
  23       11D 0        0.21074   0.00457  -0.02921  -0.30779
  24       11D+1        0.00000   0.00000   0.00000   0.00000
  25       11D-1       -0.00249   0.25232  -0.00195  -0.00105
  26       11D+2        0.15958  -0.00240  -0.05505   0.18755
  27       11D-2        0.00000   0.00000   0.00000   0.00000
  28       12D 0        2.89333   0.02649  -0.66890  -0.45989
  29       12D+1        0.00000   0.00000   0.00000   0.00000
  30       12D-1       -0.02733   2.16807  -0.02616  -0.01492
  31       12D+2       -0.06902   0.00519  -0.50417  -0.64904
  32       12D-2        0.00000   0.00000   0.00000   0.00000
  33       13F 0       -0.00993  -0.00005  -0.01056  -0.02715
  34       13F+1        0.00000   0.00000   0.00000   0.00000
  35       13F-1       -0.00039  -0.00453   0.00011  -0.00009
  36       13F+2       -0.00531  -0.00039   0.00734  -0.00777
  37       13F-2        0.00000   0.00000   0.00000   0.00000
  38       13F+3        0.00000   0.00000   0.00000   0.00000
  39       13F-3       -0.00009   0.00917  -0.00012   0.00017
  40       14F 0        0.04158   0.00299   0.06849  -0.14097
  41       14F+1        0.00000   0.00000   0.00000   0.00000
  42       14F-1        0.00280  -0.01674  -0.00123  -0.00110
  43       14F+2       -0.06801   0.00209  -0.03445  -0.10058
  44       14F-2        0.00000   0.00000   0.00000   0.00000
  45       14F+3        0.00000   0.00000   0.00000   0.00000
  46       14F-3        0.00031  -0.01696   0.00021  -0.00042
  47 2   S  1S          0.00684   0.00016   0.00244   0.00196
  48        2S          0.12068   0.00318   0.09540   0.01925
  49        3S          0.31820   0.00773   0.15975   0.07365
  50        4S         -0.03047  -0.00191  -0.18150  -0.01136
  51        5S         -6.85112  -0.10459   1.48668   1.58896
  52        6S        -11.38289  -0.03163  20.50813 -12.64796
  53        7PX         0.00000   0.00000   0.00000   0.00000
  54        7PY        -0.00008   0.00815   0.00003   0.00006
  55        7PZ         0.01636   0.00054   0.03053  -0.03679
  56        8PX         0.00000   0.00000   0.00000   0.00000
  57        8PY        -0.00114   0.08287   0.00086   0.00116
  58        8PZ         0.50060   0.01257   0.44925  -0.75998
  59        9PX         0.00000   0.00000   0.00000   0.00000
  60        9PY         0.00020  -0.02690  -0.00011  -0.00022
  61        9PZ        -0.03952  -0.00149  -0.10543   0.11210
  62       10PX         0.00000   0.00000   0.00000   0.00000
  63       10PY        -0.00135  -0.48134   0.01348   0.01073
  64       10PZ         2.70055   0.03095  -6.01125   2.15866
  65       11PX         0.00000   0.00000   0.00000   0.00000
  66       11PY        -0.05801   5.08290  -0.01551   0.00989
  67       11PZ        -1.33505  -0.03447  -2.05141   4.20716
  68       12D 0       -0.61579  -0.00997   0.22538   0.34509
  69       12D+1        0.00000   0.00000   0.00000   0.00000
  70       12D-1       -0.00034   0.13429  -0.00180  -0.00202
  71       12D+2        0.20265   0.00103   0.01225   0.07828
  72       12D-2        0.00000   0.00000   0.00000   0.00000
  73       13D 0        0.10604   0.00105  -0.03549  -0.00985
  74       13D+1        0.00000   0.00000   0.00000   0.00000
  75       13D-1        0.00051  -0.03585   0.00010   0.00022
  76       13D+2       -0.05402  -0.00037   0.00260  -0.01744
  77       13D-2        0.00000   0.00000   0.00000   0.00000
  78       14D 0        1.21141   0.00981   1.70094  -1.20085
  79       14D+1        0.00000   0.00000   0.00000   0.00000
  80       14D-1        0.00909  -0.27144  -0.00513  -0.00368
  81       14D+2       -0.53601  -0.00862  -0.02468  -0.00014
  82       14D-2        0.00000   0.00000   0.00000   0.00000
  83       15F 0        0.03852   0.00080   0.06675  -0.05816
  84       15F+1        0.00000   0.00000   0.00000   0.00000
  85       15F-1        0.00023  -0.01278  -0.00007   0.00018
  86       15F+2       -0.01523  -0.00018  -0.01031   0.01449
  87       15F-2        0.00000   0.00000   0.00000   0.00000
  88       15F+3        0.00000   0.00000   0.00000   0.00000
  89       15F-3        0.00026  -0.03748   0.00026   0.00001
  90       16F 0       -0.15584  -0.00056  -0.29842   0.08094
  91       16F+1        0.00000   0.00000   0.00000   0.00000
  92       16F-1       -0.00202   0.03347   0.00117   0.00051
  93       16F+2        0.06883   0.00189   0.01707  -0.07444
  94       16F-2        0.00000   0.00000   0.00000   0.00000
  95       16F+3        0.00000   0.00000   0.00000   0.00000
  96       16F-3       -0.00067   0.10126  -0.00060   0.00011
  97 3   Br 1S          0.00028  -0.00011  -0.00021   0.00023
  98        2S          0.00254   0.00240   0.00044   0.00089
  99        3S          0.01091   0.00334  -0.00297   0.00615
 100        4S          0.03384   0.04000   0.00785   0.01059
 101        5S          0.00751   0.11605   0.04047  -0.02853
 102        6S          0.32983  -1.99538  -0.42549   0.08155
 103        7S         -4.51146 -21.58053 -10.21524  -7.40230
 104        8PX         0.00000   0.00000   0.00000   0.00000
 105        8PY        -0.00060  -0.00101  -0.00003  -0.00004
 106        8PZ         0.00003  -0.00062  -0.00025  -0.00011
 107        9PX         0.00000   0.00000   0.00000   0.00000
 108        9PY         0.01853   0.01678   0.00526   0.01798
 109        9PZ         0.01386   0.00598   0.01226   0.01086
 110       10PX         0.00000   0.00000   0.00000   0.00000
 111       10PY         0.18661   0.14580   0.06063   0.20798
 112       10PZ         0.16188   0.03836   0.13064   0.12215
 113       11PX         0.00000   0.00000   0.00000   0.00000
 114       11PY        -0.03048  -0.02752  -0.00514  -0.02514
 115       11PZ        -0.02043  -0.01268  -0.01754  -0.01422
 116       12PX         0.00000   0.00000   0.00000   0.00000
 117       12PY        -0.95575  -4.62183  -1.68364  -0.48886
 118       12PZ        -0.17340  -2.68816  -1.54949  -0.62384
 119       13PX         0.00000   0.00000   0.00000   0.00000
 120       13PY        -0.81292  -1.78915  -2.96690  -2.39967
 121       13PZ        -3.06117  -3.44272   0.37886  -1.43544
 122       14D 0        0.00100   0.00007  -0.00144  -0.00061
 123       14D+1        0.00000   0.00000   0.00000   0.00000
 124       14D-1        0.00206   0.00078   0.00084   0.00154
 125       14D+2       -0.00019   0.00099  -0.00071  -0.00070
 126       14D-2        0.00000   0.00000   0.00000   0.00000
 127       15D 0       -0.01198  -0.00317   0.01508   0.01029
 128       15D+1        0.00000   0.00000   0.00000   0.00000
 129       15D-1       -0.02803   0.00615  -0.00791  -0.02294
 130       15D+2       -0.00046  -0.02136   0.00691   0.01255
 131       15D-2        0.00000   0.00000   0.00000   0.00000
 132       16D 0        0.06052   0.01792  -0.05162  -0.06851
 133       16D+1        0.00000   0.00000   0.00000   0.00000
 134       16D-1        0.17488  -0.15001   0.03000   0.19837
 135       16D+2       -0.01356   0.16926  -0.02287  -0.12965
 136       16D-2        0.00000   0.00000   0.00000   0.00000
 137       17D 0       -0.20598   0.18249   0.05989   0.05097
 138       17D+1        0.00000   0.00000   0.00000   0.00000
 139       17D-1       -0.29296  -1.12787  -0.72169  -0.40628
 140       17D+2        0.28208   0.80360   0.47921   0.12278
 141       17D-2        0.00000   0.00000   0.00000   0.00000
 142       18F 0        0.00249  -0.02752   0.00933   0.00234
 143       18F+1        0.00000   0.00000   0.00000   0.00000
 144       18F-1        0.00013   0.01007   0.00396   0.00269
 145       18F+2        0.01828  -0.01478  -0.01440   0.00272
 146       18F-2        0.00000   0.00000   0.00000   0.00000
 147       18F+3        0.00000   0.00000   0.00000   0.00000
 148       18F-3       -0.02793  -0.02999  -0.00528   0.00445
 149       19F 0       -0.05354   0.12693  -0.00421  -0.02842
 150       19F+1        0.00000   0.00000   0.00000   0.00000
 151       19F-1       -0.00265  -0.04943  -0.01995  -0.00455
 152       19F+2       -0.05723   0.12424   0.06757  -0.04027
 153       19F-2        0.00000   0.00000   0.00000   0.00000
 154       19F+3        0.00000   0.00000   0.00000   0.00000
 155       19F-3        0.06757   0.12373   0.02607  -0.03350
 156 4   Br 1S          0.00028   0.00010  -0.00021   0.00024
 157        2S          0.00254  -0.00241   0.00044   0.00095
 158        3S          0.01078  -0.00345  -0.00301   0.00658
 159        4S          0.03405  -0.04016   0.00797   0.01148
 160        5S          0.00982  -0.11486   0.04124  -0.02888
 161        6S          0.26378   1.95997  -0.43932   0.06015
 162        7S         -4.84294  21.41819 -10.36811  -7.25415
 163        8PX         0.00000   0.00000   0.00000   0.00000
 164        8PY         0.00061  -0.00100   0.00004   0.00004
 165        8PZ         0.00001   0.00062  -0.00025  -0.00012
 166        9PX         0.00000   0.00000   0.00000   0.00000
 167        9PY        -0.01836   0.01720  -0.00546  -0.01762
 168        9PZ         0.01399  -0.00616   0.01230   0.01087
 169       10PX         0.00000   0.00000   0.00000   0.00000
 170       10PY        -0.18410   0.15109  -0.06242  -0.20360
 171       10PZ         0.16232  -0.04080   0.13086   0.12183
 172       11PX         0.00000   0.00000   0.00000   0.00000
 173       11PY         0.03034  -0.02772   0.00539   0.02487
 174       11PZ        -0.02091   0.01256  -0.01762  -0.01450
 175       12PX         0.00000   0.00000   0.00000   0.00000
 176       12PY         1.04956  -4.56623   1.71245   0.47505
 177       12PZ        -0.22330   2.69647  -1.56697  -0.61569
 178       13PX         0.00000   0.00000   0.00000   0.00000
 179       13PY         0.83629  -1.75468   2.96613   2.37437
 180       13PZ        -3.10620   3.41763   0.32652  -1.41999
 181       14D 0        0.00101  -0.00009  -0.00145  -0.00059
 182       14D+1        0.00000   0.00000   0.00000   0.00000
 183       14D-1       -0.00208   0.00076  -0.00085  -0.00156
 184       14D+2       -0.00018  -0.00100  -0.00069  -0.00070
 185       14D-2        0.00000   0.00000   0.00000   0.00000
 186       15D 0       -0.01247   0.00322   0.01501   0.01010
 187       15D+1        0.00000   0.00000   0.00000   0.00000
 188       15D-1        0.02804   0.00667   0.00789   0.02324
 189       15D+2       -0.00077   0.02149   0.00651   0.01262
 190       15D-2        0.00000   0.00000   0.00000   0.00000
 191       16D 0        0.06523  -0.01637  -0.05144  -0.06676
 192       16D+1        0.00000   0.00000   0.00000   0.00000
 193       16D-1       -0.17179  -0.14879  -0.02889  -0.19926
 194       16D+2       -0.00870  -0.16628  -0.02097  -0.12877
 195       16D-2        0.00000   0.00000   0.00000   0.00000
 196       17D 0       -0.19940  -0.17075   0.05927   0.05028
 197       17D+1        0.00000   0.00000   0.00000   0.00000
 198       17D-1        0.31401  -1.12412   0.73121   0.40083
 199       17D+2        0.29911  -0.78798   0.47974   0.11702
 200       17D-2        0.00000   0.00000   0.00000   0.00000
 201       18F 0        0.00216   0.02792   0.00908   0.00229
 202       18F+1        0.00000   0.00000   0.00000   0.00000
 203       18F-1        0.00002   0.01013  -0.00405  -0.00240
 204       18F+2        0.01820   0.01529  -0.01463   0.00323
 205       18F-2        0.00000   0.00000   0.00000   0.00000
 206       18F+3        0.00000   0.00000   0.00000   0.00000
 207       18F-3        0.02825  -0.02951   0.00546  -0.00492
 208       19F 0       -0.05028  -0.12694  -0.00281  -0.02830
 209       19F+1        0.00000   0.00000   0.00000   0.00000
 210       19F-1        0.00074  -0.05044   0.02116   0.00312
 211       19F+2       -0.05464  -0.12438   0.06900  -0.04184
 212       19F-2        0.00000   0.00000   0.00000   0.00000
 213       19F+3        0.00000   0.00000   0.00000   0.00000
 214       19F-3       -0.07024   0.12157  -0.02654   0.03461
          Condensed to atoms (all electrons):
              1          2          3          4
     1  C    6.384332  -0.028399  -0.097505  -0.095294
     2  S   -0.028399  16.454914  -0.190987  -0.189070
     3  Br  -0.097505  -0.190987  35.316993  -0.136494
     4  Br  -0.095294  -0.189070  -0.136494  35.319259
 Mulliken atomic charges:
              1
     1  C   -0.163133
     2  S   -0.046458
     3  Br   0.107992
     4  Br   0.101599
 Sum of Mulliken atomic charges =   0.00000
 Mulliken charges with hydrogens summed into heavy atoms:
              1
     1  C   -0.163133
     2  S   -0.046458
     3  Br   0.107992
     4  Br   0.101599
 Sum of Mulliken charges with hydrogens summed into heavy atoms =   0.00000
 Electronic spatial extent (au):  <R**2>=           1427.6874
 Charge=              0.0000 electrons
 Dipole moment (field-independent basis, Debye):
    X=              0.0000    Y=             -0.0161    Z=             -0.4890  Tot=              0.4893
 Quadrupole moment (field-independent basis, Debye-Ang):
   XX=            -54.9471   YY=            -53.7847   ZZ=            -53.7927
   XY=              0.0000   XZ=              0.0000   YZ=              0.0060
 Traceless Quadrupole moment (field-independent basis, Debye-Ang):
   XX=             -0.7722   YY=              0.3901   ZZ=              0.3821
   XY=              0.0000   XZ=              0.0000   YZ=              0.0060
 Octapole moment (field-independent basis, Debye-Ang**2):
  XXX=              0.0000  YYY=             -0.1212  ZZZ=            140.7256  XYY=              0.0000
  XXY=             -0.0239  XXZ=             47.5721  XZZ=              0.0000  YZZ=              0.0128
  YYZ=             35.1358  XYZ=              0.0000
 Hexadecapole moment (field-independent basis, Debye-Ang**3):
 XXXX=            -67.2232 YYYY=           -571.9278 ZZZZ=           -697.3057 XXXY=              0.0000
 XXXZ=              0.0000 YYYX=              0.0000 YYYZ=              0.9227 ZZZX=              0.0000
 ZZZY=              0.6735 XXYY=           -113.4992 XXZZ=           -129.9114 YYZZ=           -194.4733
 XXYZ=              0.3130 YYXZ=              0.0000 ZZXY=              0.0000
 N-N= 5.480110134902D+02 E-N=-1.443721908362D+04  KE= 5.579855130150D+03
 1\1\GINC-TRAPISTA\SP\RQCISD-FC\Aug-CC-pVTZ\C1Br2S1\BRUNS\29-Nov-2021\0
 \\# qcisd/aug-cc-pvtz nosymm density=current output=wfn\\br2cs-wavefun
 ction\\0,1\C,0,0.,0.,-0.519451\S,0,0.,0.,1.083692\Br,0,0.,-1.568516,-1
 .56857\Br,0,0.,1.568516,-1.57857\\Version=EM64L-G09RevB.01\HF=-5580.30
 8711\MP2=-5581.1187784\MP3=-5581.1309752\MP4D=-5581.1549273\MP4DQ=-558
 1.1314734\MP4SDQ=-5581.141125\QCISD=-5581.1375725\RMSD=3.123e-09\Dipol
 e=0.,-0.006327,-0.1924007\Quadrupole=-0.5741327,0.2900335,0.2840992,0.
 ,0.,0.0044672\PG=CS [SG(C1Br2S1)]\\@

 Writing a WFN file to GAUSSIAN.wfn.


 THESE ARE THE TIMES THAT TRY MENS SOULS.
 THE SUMMER SOLDIER AND THE SUNSHINE PATRIOT WILL IN THIS CRISIS,
 SHRINK FROM THE SERVICE OF HIS COUNTRY.  BUT HE THAT STANDS NOW,
 DESERVES THE LOVE AND THANKS OF MAN AND WOMAN.
 TYRANNY, LIKE HELL, IS NOT EASILY CONQUERED,
 YET WE HAVE THIS CONSOLATION WITH US,
 THAT THE HARDER THE CONFLICT, THE MORE GLORIOUS THE TRIUMPH.
 WHAT WE OBTAIN TOO CHEAP, WE ESTEEM TOO LIGHTLY, 
 'TIS DEARNESS ONLY THAT GIVES EVERYTHING ITS VALUE.

                                              -- TOM PAINE
 Job cpu time:  0 days  6 hours  0 minutes 59.7 seconds.
 File lengths (MBytes):  RWF=  25271 Int=      0 D2E=      0 Chk=      4 Scr=      1
 Normal termination of Gaussian 09 at Mon Nov 29 14:08:21 2021.
