 Entering Gaussian System, Link 0=/home/bruns/programas/chemistry/gaussian/g09/g09
 Input=./h2cs/h2cs-opt.com
 Output=./h2cs/h2cs-opt.log
 Initial command:
 /home/bruns/programas/chemistry/gaussian/g09/l1.exe /home/bruns/programas/chemistry/gaussian/work/Gau-64885.inp -scrdir=/home/bruns/programas/chemistry/gaussian/work/
 Entering Link 1 = /home/bruns/programas/chemistry/gaussian/g09/l1.exe PID=     64887.
  
 Copyright (c) 1988,1990,1992,1993,1995,1998,2003,2009,2010,
            Gaussian, Inc.  All Rights Reserved.
  
 This is part of the Gaussian(R) 09 program.  It is based on
 the Gaussian(R) 03 system (copyright 2003, Gaussian, Inc.),
 the Gaussian(R) 98 system (copyright 1998, Gaussian, Inc.),
 the Gaussian(R) 94 system (copyright 1995, Gaussian, Inc.),
 the Gaussian 92(TM) system (copyright 1992, Gaussian, Inc.),
 the Gaussian 90(TM) system (copyright 1990, Gaussian, Inc.),
 the Gaussian 88(TM) system (copyright 1988, Gaussian, Inc.),
 the Gaussian 86(TM) system (copyright 1986, Carnegie Mellon
 University), and the Gaussian 82(TM) system (copyright 1983,
 Carnegie Mellon University). Gaussian is a federally registered
 trademark of Gaussian, Inc.
  
 This software contains proprietary and confidential information,
 including trade secrets, belonging to Gaussian, Inc.
  
 This software is provided under written license and may be
 used, copied, transmitted, or stored only in accord with that
 written license.
  
 The following legend is applicable only to US Government
 contracts under FAR:
  
                    RESTRICTED RIGHTS LEGEND
  
 Use, reproduction and disclosure by the US Government is
 subject to restrictions as set forth in subparagraphs (a)
 and (c) of the Commercial Computer Software - Restricted
 Rights clause in FAR 52.227-19.
  
 Gaussian, Inc.
 340 Quinnipiac St., Bldg. 40, Wallingford CT 06492
  
  
 ---------------------------------------------------------------
 Warning -- This program may not be used in any manner that
 competes with the business of Gaussian, Inc. or will provide
 assistance to any competitor of Gaussian, Inc.  The licensee
 of this program is prohibited from giving any competitor of
 Gaussian, Inc. access to this program.  By using this program,
 the user acknowledges that Gaussian, Inc. is engaged in the
 business of creating and licensing software in the field of
 computational chemistry and represents and warrants to the
 licensee that it is not a competitor of Gaussian, Inc. and that
 it will not use this program in any manner prohibited above.
 ---------------------------------------------------------------
  

 Cite this work as:
 Gaussian 09, Revision B.01,
 M. J. Frisch, G. W. Trucks, H. B. Schlegel, G. E. Scuseria, 
 M. A. Robb, J. R. Cheeseman, G. Scalmani, V. Barone, B. Mennucci, 
 G. A. Petersson, H. Nakatsuji, M. Caricato, X. Li, H. P. Hratchian, 
 A. F. Izmaylov, J. Bloino, G. Zheng, J. L. Sonnenberg, M. Hada, 
 M. Ehara, K. Toyota, R. Fukuda, J. Hasegawa, M. Ishida, T. Nakajima, 
 Y. Honda, O. Kitao, H. Nakai, T. Vreven, J. A. Montgomery, Jr., 
 J. E. Peralta, F. Ogliaro, M. Bearpark, J. J. Heyd, E. Brothers, 
 K. N. Kudin, V. N. Staroverov, T. Keith, R. Kobayashi, J. Normand, 
 K. Raghavachari, A. Rendell, J. C. Burant, S. S. Iyengar, J. Tomasi, 
 M. Cossi, N. Rega, J. M. Millam, M. Klene, J. E. Knox, J. B. Cross, 
 V. Bakken, C. Adamo, J. Jaramillo, R. Gomperts, R. E. Stratmann, 
 O. Yazyev, A. J. Austin, R. Cammi, C. Pomelli, J. W. Ochterski, 
 R. L. Martin, K. Morokuma, V. G. Zakrzewski, G. A. Voth, 
 P. Salvador, J. J. Dannenberg, S. Dapprich, A. D. Daniels, 
 O. Farkas, J. B. Foresman, J. V. Ortiz, J. Cioslowski, 
 and D. J. Fox, Gaussian, Inc., Wallingford CT, 2010.
 
 ******************************************
 Gaussian 09:  EM64L-G09RevB.01 12-Aug-2010
                17-Nov-2021 
 ******************************************
 %nproc=8
 Will use up to    8 processors via shared memory.
 %mem=8GB
 --------------------------------------------
 #opt qcisd/aug-cc-pvtz density=current nosym
 --------------------------------------------
 1/18=20,19=15,38=1/1,3;
 2/9=110,12=2,15=1,17=6,18=5,40=1/2;
 3/5=16,6=1,7=10,11=9,16=1,25=1,30=1,71=1/1,2,3;
 4//1;
 5/5=2,38=5/2;
 8/6=4,9=120000,10=1/1,4;
 9/5=8,15=1/13;
 11/28=-7,29=200,31=1,42=3/11;
 10/5=6,31=1/2;
 6/7=2,8=2,9=2,10=2,22=-1/1;
 7/12=7,30=1/1,2,3,16;
 1/18=20,19=15/3(2);
 2/9=110,15=1/2;
 99//99;
 2/9=110,15=1/2;
 3/5=16,6=1,7=10,11=9,16=1,25=1,30=1,71=1/1,2,3;
 4/5=5,16=3/1;
 5/5=2,38=5/2;
 8/6=4,9=120000,10=1/1,4;
 9/5=8,15=1/13;
 11/28=-7,29=200,31=1,42=3/11;
 10/5=6,31=1/2;
 7/12=7,30=1/1,2,3,16;
 1/18=20,19=15/3(-9);
 2/9=110,15=1/2;
 6/7=2,8=2,9=2,10=2,22=-1/1;
 99//99;
 ----
 h2cs
 ----
 Symbolic Z-matrix:
 Charge =  0 Multiplicity = 1
 C                     0.        0.       -0.56233 
 S                     0.        0.        1.00408 
 H                     0.       -0.92665  -1.09733 
 H                     0.        0.92665  -1.09733 
 

 GradGradGradGradGradGradGradGradGradGradGradGradGradGradGradGradGradGrad
 Berny optimization.
 Initialization pass.
                           ----------------------------
                           !    Initial Parameters    !
                           ! (Angstroms and Degrees)  !
 --------------------------                            --------------------------
 ! Name  Definition              Value          Derivative Info.                !
 --------------------------------------------------------------------------------
 ! R1    R(1,2)                  1.5664         estimate D2E/DX2                !
 ! R2    R(1,3)                  1.07           estimate D2E/DX2                !
 ! R3    R(1,4)                  1.07           estimate D2E/DX2                !
 ! A1    A(2,1,3)              120.0            estimate D2E/DX2                !
 ! A2    A(2,1,4)              120.0            estimate D2E/DX2                !
 ! A3    A(3,1,4)              120.0            estimate D2E/DX2                !
 ! D1    D(2,1,4,3)            180.0            estimate D2E/DX2                !
 --------------------------------------------------------------------------------
 Trust Radius=3.00D-01 FncErr=1.00D-07 GrdErr=1.00D-07
 Number of steps in this run=     20 maximum allowed number of steps=    100.
 GradGradGradGradGradGradGradGradGradGradGradGradGradGradGradGradGradGrad

                          Input orientation:                          
 ---------------------------------------------------------------------
 Center     Atomic      Atomic             Coordinates (Angstroms)
 Number     Number       Type             X           Y           Z
 ---------------------------------------------------------------------
      1          6           0        0.000000    0.000000   -0.562325
      2         16           0        0.000000    0.000000    1.004075
      3          1           0        0.000000   -0.926647   -1.097325
      4          1           0        0.000000    0.926647   -1.097325
 ---------------------------------------------------------------------
                    Distance matrix (angstroms):
                    1          2          3          4
     1  C    0.000000
     2  S    1.566400   0.000000
     3  H    1.070000   2.296640   0.000000
     4  H    1.070000   2.296640   1.853294   0.000000
 Symmetry turned off by external request.
 Stoichiometry    CH2S
 Framework group  C2V[C2(CS),SGV(H2)]
 Deg. of freedom     3
 Full point group                 C2V     NOp   4
 Rotational constants (GHZ):    291.9935380     18.8513824     17.7081286
 Standard basis: Aug-CC-pVTZ (5D, 7F)
 Integral buffers will be    131072 words long.
 Raffenetti 1 integral format.
 Two-electron integral symmetry is turned off.
   142 basis functions,   240 primitive gaussians,   164 cartesian basis functions
    12 alpha electrons       12 beta electrons
       nuclear repulsion energy        46.0251648119 Hartrees.
 NAtoms=    4 NActive=    4 NUniq=    4 SFac= 1.00D+00 NAtFMM=   50 NAOKFM=F Big=F
 One-electron integrals computed using PRISM.
 NBasis=   142 RedAO= T  NBF=   142
 NBsUse=   142 1.00D-06 NBFU=   142
 Harris functional with IExCor=  205 diagonalized for initial guess.
 ExpMin= 2.53D-02 ExpMax= 3.74D+05 ExpMxC= 1.18D+03 IAcc=3 IRadAn=         0 AccDes= 0.00D+00
 HarFok:  IExCor=  205 AccDes= 0.00D+00 IRadAn=         0 IDoV= 1
 ScaDFX=  1.000000  1.000000  1.000000  1.000000
 FoFCou: FMM=F IPFlag=           0 FMFlag=      100000 FMFlg1=           0
         NFxFlg=           0 DoJE=T BraDBF=F KetDBF=T FulRan=T
         Omega=  0.000000  0.000000  1.000000  0.000000  0.000000 ICntrl=     500 IOpCl=  0
         NMat0=    1 NMatS0=    1 NMatT0=    0 NMatD0=    1 NMtDS0=    0 NMtDT0=    0
         I1Cent=           4 NGrid=           0.
 Symmetry not used in FoFCou.
 Requested convergence on RMS density matrix=1.00D-08 within 128 cycles.
 Requested convergence on MAX density matrix=1.00D-06.
 Requested convergence on             energy=1.00D-06.
 No special actions if energy rises.
 Keep R1 ints in memory in canonical form, NReq=93884347.
 SCF Done:  E(RHF) =  -436.556730741     A.U. after   11 cycles
             Convg  =    0.5572D-08             -V/T =  1.9998
 ExpMin= 2.53D-02 ExpMax= 3.74D+05 ExpMxC= 1.18D+03 IAcc=3 IRadAn=         5 AccDes= 0.00D+00
 HarFok:  IExCor=  205 AccDes= 0.00D+00 IRadAn=         5 IDoV=-2
 ScaDFX=  1.000000  1.000000  1.000000  1.000000
 Range of M.O.s used for correlation:     7   142
 NBasis=   142 NAE=    12 NBE=    12 NFC=     6 NFV=     0
 NROrb=    136 NOA=     6 NOB=     6 NVA=   130 NVB=   130

 **** Warning!!: The largest alpha MO coefficient is  0.44392459D+02

 Semi-Direct transformation.
 ModeAB=           2 MOrb=             6 LenV=    1073081435
 LASXX=      7286295 LTotXX=     7286295 LenRXX=     7286295
 LTotAB=     7445736 MaxLAS=    11040480 LenRXY=    11040480
 NonZer=    14572590 LenScr=    22628352 LnRSAI=           0
 LnScr1=           0 LExtra=           0 Total=     40955127
 MaxDsk=          -1 SrtSym=           F ITran=            4
 JobTyp=0 Pass  1:  I=   1 to   6.
 (rs|ai) integrals will be sorted in core.
 Spin components of T(2) and E(2):
     alpha-alpha T2 =       0.1636370496D-01 E2=     -0.3852989446D-01
     alpha-beta  T2 =       0.1018943667D+00 E2=     -0.2617520565D+00
     beta-beta   T2 =       0.1636370496D-01 E2=     -0.3852989446D-01
 ANorm=    0.1065186264D+01
 E2 =    -0.3388118454D+00 EUMP2 =    -0.43689554258647D+03
 R2 and R3 integrals will be kept in memory, NReq=   185320410.
 Iterations=  50 Convergence= 0.100D-07
 Iteration Nr.   1
 **********************
 DD1Dir will call FoFMem   1 times, MxPair=        42
 NAB=    21 NAA=     0 NBB=     0.
 MP4(R+Q)=  0.11230218D-01
 E3=       -0.23282347D-01        EUMP3=      -0.43691882493D+03
 E4(DQ)=    0.16220211D-02        UMP4(DQ)=   -0.43691720291D+03
 E4(SDQ)=  -0.13925345D-02        UMP4(SDQ)=  -0.43692021747D+03
 DE(Corr)= -0.35086397     E(Corr)=     -436.90759472    
 NORM(A)=   0.10719004D+01
 Iteration Nr.   2
 **********************
 DD1Dir will call FoFMem   1 times, MxPair=        42
 NAB=    21 NAA=     0 NBB=     0.
 DE(Corr)= -0.36142953     E(CORR)=     -436.91816028     Delta=-1.06D-02
 NORM(A)=   0.10785945D+01
 Iteration Nr.   3
 **********************
 DD1Dir will call FoFMem   1 times, MxPair=        42
 NAB=    21 NAA=     0 NBB=     0.
 DE(Corr)= -0.36247511     E(CORR)=     -436.91920585     Delta=-1.05D-03
 NORM(A)=   0.10805124D+01
 Iteration Nr.   4
 **********************
 DD1Dir will call FoFMem   1 times, MxPair=        42
 NAB=    21 NAA=     0 NBB=     0.
 DE(Corr)= -0.36358727     E(CORR)=     -436.92031801     Delta=-1.11D-03
 NORM(A)=   0.10812307D+01
 Iteration Nr.   5
 **********************
 DD1Dir will call FoFMem   1 times, MxPair=        42
 NAB=    21 NAA=     0 NBB=     0.
 DE(Corr)= -0.36373624     E(CORR)=     -436.92046698     Delta=-1.49D-04
 NORM(A)=   0.10814692D+01
 Iteration Nr.   6
 **********************
 DD1Dir will call FoFMem   1 times, MxPair=        42
 NAB=    21 NAA=     0 NBB=     0.
 DE(Corr)= -0.36375858     E(CORR)=     -436.92048933     Delta=-2.23D-05
 NORM(A)=   0.10814739D+01
 Iteration Nr.   7
 **********************
 DD1Dir will call FoFMem   1 times, MxPair=        42
 NAB=    21 NAA=     0 NBB=     0.
 DE(Corr)= -0.36375930     E(CORR)=     -436.92049004     Delta=-7.18D-07
 NORM(A)=   0.10814819D+01
 Iteration Nr.   8
 **********************
 DD1Dir will call FoFMem   1 times, MxPair=        42
 NAB=    21 NAA=     0 NBB=     0.
 DE(Corr)= -0.36375709     E(CORR)=     -436.92048783     Delta= 2.21D-06
 NORM(A)=   0.10814810D+01
 Iteration Nr.   9
 **********************
 DD1Dir will call FoFMem   1 times, MxPair=        42
 NAB=    21 NAA=     0 NBB=     0.
 DE(Corr)= -0.36375889     E(CORR)=     -436.92048964     Delta=-1.80D-06
 NORM(A)=   0.10814819D+01
 Iteration Nr.  10
 **********************
 DD1Dir will call FoFMem   1 times, MxPair=        42
 NAB=    21 NAA=     0 NBB=     0.
 DE(Corr)= -0.36375876     E(CORR)=     -436.92048950     Delta= 1.36D-07
 NORM(A)=   0.10814826D+01
 Iteration Nr.  11
 **********************
 DD1Dir will call FoFMem   1 times, MxPair=        42
 NAB=    21 NAA=     0 NBB=     0.
 DE(Corr)= -0.36375913     E(CORR)=     -436.92048987     Delta=-3.75D-07
 NORM(A)=   0.10814829D+01
 Iteration Nr.  12
 **********************
 DD1Dir will call FoFMem   1 times, MxPair=        42
 NAB=    21 NAA=     0 NBB=     0.
 DE(Corr)= -0.36375923     E(CORR)=     -436.92048997     Delta=-9.30D-08
 NORM(A)=   0.10814832D+01
 Iteration Nr.  13
 **********************
 DD1Dir will call FoFMem   1 times, MxPair=        42
 NAB=    21 NAA=     0 NBB=     0.
 DE(Corr)= -0.36375929     E(CORR)=     -436.92049003     Delta=-6.40D-08
 NORM(A)=   0.10814833D+01
 Iteration Nr.  14
 **********************
 DD1Dir will call FoFMem   1 times, MxPair=        42
 NAB=    21 NAA=     0 NBB=     0.
 DE(Corr)= -0.36375931     E(CORR)=     -436.92049005     Delta=-2.05D-08
 NORM(A)=   0.10814833D+01
 Iteration Nr.  15
 **********************
 DD1Dir will call FoFMem   1 times, MxPair=        42
 NAB=    21 NAA=     0 NBB=     0.
 DE(Corr)= -0.36375932     E(CORR)=     -436.92049006     Delta=-5.73D-09
 NORM(A)=   0.10814833D+01
 Iteration Nr.  16
 **********************
 DD1Dir will call FoFMem   1 times, MxPair=        42
 NAB=    21 NAA=     0 NBB=     0.
 DE(Corr)= -0.36375932     E(CORR)=     -436.92049006     Delta=-6.63D-10
 NORM(A)=   0.10814833D+01
 Dominant configurations:
 ***********************
 Spin Case        I    J    A    B          Value
   ABAB          11   11   14   14      -0.103132D+00
 Largest amplitude= 1.03D-01

 Z-AMPLITUDE ITERATIONS

 Iteration Nr.   1
 **********************
 DD1Dir will call FoFMem   1 times, MxPair=        42
 NAB=    21 NAA=     0 NBB=     0.
 DE(Z)  -0.34860985D+00          E(Z)=    -0.43690534059D+03
 NORM(A)=   0.10814770D+01
 Iteration Nr.   2
 **********************
 DD1Dir will call FoFMem   1 times, MxPair=        42
 NAB=    21 NAA=     0 NBB=     0.
 DE(Z)  -0.34860949D+00          E(Z)=    -0.43690534023D+03
 NORM(A)=   0.10814852D+01
 Iteration Nr.   3
 **********************
 DD1Dir will call FoFMem   1 times, MxPair=        42
 NAB=    21 NAA=     0 NBB=     0.
 DE(Z)  -0.34860995D+00          E(Z)=    -0.43690534069D+03
 NORM(A)=   0.10814817D+01
 Iteration Nr.   4
 **********************
 DD1Dir will call FoFMem   1 times, MxPair=        42
 NAB=    21 NAA=     0 NBB=     0.
 DE(Z)  -0.34860975D+00          E(Z)=    -0.43690534049D+03
 NORM(A)=   0.10814739D+01
 Iteration Nr.   5
 **********************
 DD1Dir will call FoFMem   1 times, MxPair=        42
 NAB=    21 NAA=     0 NBB=     0.
 DE(Z)  -0.34860931D+00          E(Z)=    -0.43690534005D+03
 NORM(A)=   0.10740568D+01
 Iteration Nr.   6
 **********************
 DD1Dir will call FoFMem   1 times, MxPair=        42
 NAB=    21 NAA=     0 NBB=     0.
 DE(Z)  -0.34817125D+00          E(Z)=    -0.43690490199D+03
 NORM(A)=   0.10740953D+01
 Iteration Nr.   7
 **********************
 DD1Dir will call FoFMem   1 times, MxPair=        42
 NAB=    21 NAA=     0 NBB=     0.
 DE(Z)  -0.34817780D+00          E(Z)=    -0.43690490854D+03
 NORM(A)=   0.10740376D+01
 Iteration Nr.   8
 **********************
 DD1Dir will call FoFMem   1 times, MxPair=        42
 NAB=    21 NAA=     0 NBB=     0.
 DE(Z)  -0.34816867D+00          E(Z)=    -0.43690489941D+03
 NORM(A)=   0.10740356D+01
 Iteration Nr.   9
 **********************
 DD1Dir will call FoFMem   1 times, MxPair=        42
 NAB=    21 NAA=     0 NBB=     0.
 DE(Z)  -0.34816825D+00          E(Z)=    -0.43690489899D+03
 NORM(A)=   0.10740357D+01
 Iteration Nr.  10
 **********************
 DD1Dir will call FoFMem   1 times, MxPair=        42
 NAB=    21 NAA=     0 NBB=     0.
 DE(Z)  -0.34816840D+00          E(Z)=    -0.43690489914D+03
 NORM(A)=   0.10740358D+01
 Iteration Nr.  11
 **********************
 DD1Dir will call FoFMem   1 times, MxPair=        42
 NAB=    21 NAA=     0 NBB=     0.
 DE(Z)  -0.34816835D+00          E(Z)=    -0.43690489909D+03
 NORM(A)=   0.10740357D+01
 Iteration Nr.  12
 **********************
 DD1Dir will call FoFMem   1 times, MxPair=        42
 NAB=    21 NAA=     0 NBB=     0.
 DE(Z)  -0.34816836D+00          E(Z)=    -0.43690489910D+03
 NORM(A)=   0.10740357D+01
 Iteration Nr.  13
 **********************
 DD1Dir will call FoFMem   1 times, MxPair=        42
 NAB=    21 NAA=     0 NBB=     0.
 DE(Z)  -0.34816836D+00          E(Z)=    -0.43690489910D+03
 NORM(A)=   0.10740357D+01
 Discarding MO integrals.
          IDoAtm=1111
          Differentiating once with respect to electric field.
                with respect to dipole field.
          Differentiating once with respect to nuclear coordinates.
          Keep R1 ints in memory in canonical form, NReq=93478224.
          There are     1 degrees of freedom in the 1st order CPHF.  IDoFFX=0.
 LinEq1:  Iter=  0 NonCon=     1 RMS=2.76D-03 Max=4.26D-02
 AX will form     1 AO Fock derivatives at one time.
 LinEq1:  Iter=  1 NonCon=     1 RMS=9.24D-04 Max=1.28D-02
 LinEq1:  Iter=  2 NonCon=     1 RMS=4.08D-04 Max=1.08D-02
 LinEq1:  Iter=  3 NonCon=     1 RMS=1.31D-04 Max=1.96D-03
 LinEq1:  Iter=  4 NonCon=     1 RMS=3.37D-05 Max=4.78D-04
 LinEq1:  Iter=  5 NonCon=     1 RMS=7.51D-06 Max=8.10D-05
 LinEq1:  Iter=  6 NonCon=     1 RMS=1.34D-06 Max=1.80D-05
 LinEq1:  Iter=  7 NonCon=     1 RMS=1.70D-07 Max=2.21D-06
 LinEq1:  Iter=  8 NonCon=     1 RMS=1.96D-08 Max=1.87D-07
 LinEq1:  Iter=  9 NonCon=     1 RMS=3.15D-09 Max=3.44D-08
 LinEq1:  Iter= 10 NonCon=     1 RMS=4.33D-10 Max=4.67D-09
 LinEq1:  Iter= 11 NonCon=     0 RMS=5.28D-11 Max=5.24D-10
 Linear equations converged to 1.000D-10 1.000D-09 after    11 iterations.
 End of Minotr Frequency-dependent properties file   721 does not exist.
 End of Minotr Frequency-dependent properties file   722 does not exist.

 **********************************************************************

            Population analysis using the QCI/CC density.

 **********************************************************************

 Alpha  occ. eigenvalues --  -91.95053 -11.30716  -8.95509  -6.63596  -6.63536
 Alpha  occ. eigenvalues --   -6.63334  -1.08211  -0.80902  -0.65751  -0.54300
 Alpha  occ. eigenvalues --   -0.42825  -0.34993
 Alpha virt. eigenvalues --    0.02910   0.04172   0.04266   0.06136   0.09119
 Alpha virt. eigenvalues --    0.10373   0.11598   0.13275   0.13589   0.14737
 Alpha virt. eigenvalues --    0.19697   0.21697   0.22918   0.24938   0.28014
 Alpha virt. eigenvalues --    0.29140   0.31169   0.31934   0.32730   0.34182
 Alpha virt. eigenvalues --    0.37496   0.38267   0.38619   0.40134   0.41212
 Alpha virt. eigenvalues --    0.43159   0.44985   0.46023   0.47415   0.49164
 Alpha virt. eigenvalues --    0.56127   0.62484   0.65056   0.66900   0.68369
 Alpha virt. eigenvalues --    0.74892   0.75431   0.77421   0.78597   0.80263
 Alpha virt. eigenvalues --    0.84416   0.84870   0.85832   0.86723   0.87812
 Alpha virt. eigenvalues --    0.89865   0.91099   0.96670   0.97287   0.97488
 Alpha virt. eigenvalues --    0.98754   1.02118   1.02334   1.09402   1.11042
 Alpha virt. eigenvalues --    1.12002   1.13998   1.14442   1.14560   1.18615
 Alpha virt. eigenvalues --    1.24767   1.31679   1.35334   1.44699   1.50468
 Alpha virt. eigenvalues --    1.53112   1.55084   1.59443   1.59920   1.61013
 Alpha virt. eigenvalues --    1.61595   1.67340   1.81475   1.89503   1.89797
 Alpha virt. eigenvalues --    2.03128   2.04090   2.04799   2.07368   2.09493
 Alpha virt. eigenvalues --    2.10166   2.12909   2.18362   2.35450   2.35719
 Alpha virt. eigenvalues --    2.39715   2.40856   2.42394   2.48992   2.52437
 Alpha virt. eigenvalues --    2.58505   2.72240   2.73686   2.85266   3.04411
 Alpha virt. eigenvalues --    3.08044   3.13466   3.20997   3.23790   3.48506
 Alpha virt. eigenvalues --    3.58010   3.60322   3.66768   3.67143   3.71180
 Alpha virt. eigenvalues --    3.86024   3.88196   3.88945   3.92160   3.97025
 Alpha virt. eigenvalues --    4.09908   4.15715   4.30482   4.42288   4.42324
 Alpha virt. eigenvalues --    4.52573   4.72186   4.76105   4.77067   5.12292
 Alpha virt. eigenvalues --    5.14076   5.27203   5.29959   5.37127   5.60903
 Alpha virt. eigenvalues --    5.97768   6.04697   6.44809   6.85004  15.73429
          Condensed to atoms (all electrons):
              1          2          3          4
     1  C    6.231109   0.262536   0.179845   0.179845
     2  S    0.262536  16.099773  -0.144513  -0.144513
     3  H    0.179845  -0.144513   0.683660  -0.182301
     4  H    0.179845  -0.144513  -0.182301   0.683660
 Mulliken atomic charges:
              1
     1  C   -0.853335
     2  S   -0.073283
     3  H    0.463309
     4  H    0.463309
 Sum of Mulliken atomic charges =   0.00000
 Mulliken charges with hydrogens summed into heavy atoms:
              1
     1  C    0.073283
     2  S   -0.073283
 Sum of Mulliken charges with hydrogens summed into heavy atoms =   0.00000
 Electronic spatial extent (au):  <R**2>=            123.2071
 Charge=              0.0000 electrons
 Dipole moment (field-independent basis, Debye):
    X=              0.0000    Y=              0.0000    Z=             -1.6849  Tot=              1.6849
 Quadrupole moment (field-independent basis, Debye-Ang):
   XX=            -19.7783   YY=            -20.3915   ZZ=            -19.1400
   XY=              0.0000   XZ=              0.0000   YZ=              0.0000
 Traceless Quadrupole moment (field-independent basis, Debye-Ang):
   XX=             -0.0083   YY=             -0.6216   ZZ=              0.6299
   XY=              0.0000   XZ=              0.0000   YZ=              0.0000
 Octapole moment (field-independent basis, Debye-Ang**2):
  XXX=              0.0000  YYY=              0.0000  ZZZ=            -25.5435  XYY=              0.0000
  XXY=              0.0000  XXZ=             -7.8185  XZZ=              0.0000  YZZ=              0.0000
  YYZ=            -12.3537  XYZ=              0.0000
 Hexadecapole moment (field-independent basis, Debye-Ang**3):
 XXXX=            -24.7489 YYYY=            -34.6646 ZZZZ=           -119.2393 XXXY=              0.0000
 XXXZ=              0.0000 YYYX=              0.0000 YYYZ=              0.0000 ZZZX=              0.0000
 ZZZY=              0.0000 XXYY=            -10.3474 XXZZ=            -23.6779 YYZZ=            -27.9524
 XXYZ=              0.0000 YYXZ=              0.0000 ZZXY=              0.0000
 N-N= 4.602516481190D+01 E-N=-1.130186528272D+03  KE= 4.370606224022D+02
 Calling FoFJK, ICntrl=      2127 FMM=F ISym2X=0 I1Cent= 0 IOpClX= 0 NMat=1 NMatS=1 NMatT=0.
 -------------------------------------------------------------------
 Center     Atomic                   Forces (Hartrees/Bohr)
 Number     Number              X              Y              Z
 -------------------------------------------------------------------
      1        6           0.000000000    0.000000000   -0.027050821
      2       16           0.000000000    0.000000000    0.050191544
      3        1           0.000000000   -0.006159800   -0.011570362
      4        1           0.000000000    0.006159800   -0.011570362
 -------------------------------------------------------------------
 Cartesian Forces:  Max     0.050191544 RMS     0.017307443

 GradGradGradGradGradGradGradGradGradGradGradGradGradGradGradGradGradGrad
 Berny optimization.
 Internal  Forces:  Max     0.050191544 RMS     0.020346212
 Search for a local minimum.
 Step number   1 out of a maximum of   20
 All quantities printed in internal units (Hartrees-Bohrs-Radians)
 Mixed Optimization -- RFO/linear search
 Second derivative matrix not updated -- first step.
 The second derivative matrix:
                          R1        R2        R3        A1        A2
           R1           0.58306
           R2           0.00000   0.37230
           R3           0.00000   0.00000   0.37230
           A1           0.00000   0.00000   0.00000   0.16000
           A2           0.00000   0.00000   0.00000   0.00000   0.16000
           A3           0.00000   0.00000   0.00000   0.00000   0.00000
           D1           0.00000   0.00000   0.00000   0.00000   0.00000
                          A3        D1
           A3           0.16000
           D1           0.00000   0.00499
 ITU=  0
     Eigenvalues ---    0.00499   0.16000   0.16000   0.37230   0.37230
     Eigenvalues ---    0.58306
 RFO step:  Lambda=-5.72503936D-03 EMin= 4.99391742D-03
 Linear search not attempted -- first point.
 Iteration  1 RMS(Cart)=  0.04636731 RMS(Int)=  0.00057049
 Iteration  2 RMS(Cart)=  0.00060904 RMS(Int)=  0.00000017
 Iteration  3 RMS(Cart)=  0.00000014 RMS(Int)=  0.00000000
 Variable       Old X    -DE/DX   Delta X   Delta X   Delta X     New X
                                 (Linear)    (Quad)   (Total)
    R1        2.96007   0.05019   0.00000   0.08525   0.08525   3.04531
    R2        2.02201   0.01112   0.00000   0.02942   0.02942   2.05142
    R3        2.02201   0.01112   0.00000   0.02942   0.02942   2.05142
    A1        2.09440   0.00468   0.00000   0.02823   0.02823   2.12262
    A2        2.09440   0.00468   0.00000   0.02823   0.02823   2.12262
    A3        2.09440  -0.00936   0.00000  -0.05645  -0.05645   2.03794
    D1        3.14159   0.00000   0.00000   0.00000   0.00000   3.14159
         Item               Value     Threshold  Converged?
 Maximum Force            0.050192     0.000450     NO 
 RMS     Force            0.020346     0.000300     NO 
 Maximum Displacement     0.096154     0.001800     NO 
 RMS     Displacement     0.046492     0.001200     NO 
 Predicted change in Energy=-2.901959D-03
 GradGradGradGradGradGradGradGradGradGradGradGradGradGradGradGradGradGrad

                          Input orientation:                          
 ---------------------------------------------------------------------
 Center     Atomic      Atomic             Coordinates (Angstroms)
 Number     Number       Type             X           Y           Z
 ---------------------------------------------------------------------
      1          6           0        0.000000    0.000000   -0.556553
      2         16           0        0.000000    0.000000    1.054958
      3          1           0        0.000000   -0.924434   -1.125652
      4          1           0        0.000000    0.924434   -1.125652
 ---------------------------------------------------------------------
                    Distance matrix (angstroms):
                    1          2          3          4
     1  C    0.000000
     2  S    1.611510   0.000000
     3  H    1.085566   2.368468   0.000000
     4  H    1.085566   2.368468   1.848869   0.000000
 Symmetry turned off by external request.
 Stoichiometry    CH2S
 Framework group  C2V[C2(CS),SGV(H2)]
 Deg. of freedom     3
 Full point group                 C2V     NOp   4
 Rotational constants (GHZ):    293.3930503     17.7327905     16.7221002
 Standard basis: Aug-CC-pVTZ (5D, 7F)
 Integral buffers will be    131072 words long.
 Raffenetti 1 integral format.
 Two-electron integral symmetry is turned off.
   142 basis functions,   240 primitive gaussians,   164 cartesian basis functions
    12 alpha electrons       12 beta electrons
       nuclear repulsion energy        44.8092993326 Hartrees.
 NAtoms=    4 NActive=    4 NUniq=    4 SFac= 1.00D+00 NAtFMM=   50 NAOKFM=F Big=F
 One-electron integrals computed using PRISM.
 NBasis=   142 RedAO= T  NBF=   142
 NBsUse=   142 1.00D-06 NBFU=   142
 Initial guess read from the read-write file.
 B after Tr=     0.000000    0.000000    0.000000
         Rot=    1.000000    0.000000    0.000000    0.000000 Ang=   0.00 deg.
 Harris functional with IExCor=  205 diagonalized for initial guess.
 ExpMin= 2.53D-02 ExpMax= 3.74D+05 ExpMxC= 1.18D+03 IAcc=3 IRadAn=         0 AccDes= 0.00D+00
 HarFok:  IExCor=  205 AccDes= 0.00D+00 IRadAn=         0 IDoV= 1
 ScaDFX=  1.000000  1.000000  1.000000  1.000000
 FoFCou: FMM=F IPFlag=           0 FMFlag=      100000 FMFlg1=           0
         NFxFlg=           0 DoJE=T BraDBF=F KetDBF=T FulRan=T
         Omega=  0.000000  0.000000  1.000000  0.000000  0.000000 ICntrl=     500 IOpCl=  0
         NMat0=    1 NMatS0=    1 NMatT0=    0 NMatD0=    1 NMtDS0=    0 NMtDT0=    0
         I1Cent=           4 NGrid=           0.
 Symmetry not used in FoFCou.
 Requested convergence on RMS density matrix=1.00D-08 within 128 cycles.
 Requested convergence on MAX density matrix=1.00D-06.
 Requested convergence on             energy=1.00D-06.
 No special actions if energy rises.
 Keep R1 ints in memory in canonical form, NReq=93884347.
 SCF Done:  E(RHF) =  -436.557737998     A.U. after   10 cycles
             Convg  =    0.4800D-08             -V/T =  2.0002
 ExpMin= 2.53D-02 ExpMax= 3.74D+05 ExpMxC= 1.18D+03 IAcc=3 IRadAn=         5 AccDes= 0.00D+00
 HarFok:  IExCor=  205 AccDes= 0.00D+00 IRadAn=         5 IDoV=-2
 ScaDFX=  1.000000  1.000000  1.000000  1.000000
 Range of M.O.s used for correlation:     7   142
 NBasis=   142 NAE=    12 NBE=    12 NFC=     6 NFV=     0
 NROrb=    136 NOA=     6 NOB=     6 NVA=   130 NVB=   130

 **** Warning!!: The largest alpha MO coefficient is  0.44528454D+02

 Semi-Direct transformation.
 ModeAB=           2 MOrb=             6 LenV=    1073081939
 LASXX=      7286295 LTotXX=     7286295 LenRXX=     7286295
 LTotAB=     7445736 MaxLAS=    11040480 LenRXY=    11040480
 NonZer=    14572590 LenScr=    22628352 LnRSAI=           0
 LnScr1=           0 LExtra=           0 Total=     40955127
 MaxDsk=          -1 SrtSym=           F ITran=            4
 JobTyp=0 Pass  1:  I=   1 to   6.
 (rs|ai) integrals will be sorted in core.
 Spin components of T(2) and E(2):
     alpha-alpha T2 =       0.1680218760D-01 E2=     -0.3866688286D-01
     alpha-beta  T2 =       0.1049540302D+00 E2=     -0.2633788488D+00
     beta-beta   T2 =       0.1680218760D-01 E2=     -0.3866688286D-01
 ANorm=    0.1067032523D+01
 E2 =    -0.3407126145D+00 EUMP2 =    -0.43689845061297D+03
 R2 and R3 integrals will be kept in memory, NReq=   185320410.
 Iterations=  50 Convergence= 0.100D-07
 Iteration Nr.   1
 **********************
 DD1Dir will call FoFMem   1 times, MxPair=        42
 NAB=    21 NAA=     0 NBB=     0.
 MP4(R+Q)=  0.11627639D-01
 E3=       -0.22849162D-01        EUMP3=      -0.43692129977D+03
 E4(DQ)=    0.16406283D-02        UMP4(DQ)=   -0.43691965915D+03
 E4(SDQ)=  -0.17996066D-02        UMP4(SDQ)=  -0.43692309938D+03
 DE(Corr)= -0.35193414     E(Corr)=     -436.90967214    
 NORM(A)=   0.10736820D+01
 Iteration Nr.   2
 **********************
 DD1Dir will call FoFMem   1 times, MxPair=        42
 NAB=    21 NAA=     0 NBB=     0.
 DE(Corr)= -0.36328149     E(CORR)=     -436.92101949     Delta=-1.13D-02
 NORM(A)=   0.10809910D+01
 Iteration Nr.   3
 **********************
 DD1Dir will call FoFMem   1 times, MxPair=        42
 NAB=    21 NAA=     0 NBB=     0.
 DE(Corr)= -0.36422029     E(CORR)=     -436.92195829     Delta=-9.39D-04
 NORM(A)=   0.10833676D+01
 Iteration Nr.   4
 **********************
 DD1Dir will call FoFMem   1 times, MxPair=        42
 NAB=    21 NAA=     0 NBB=     0.
 DE(Corr)= -0.36552832     E(CORR)=     -436.92326632     Delta=-1.31D-03
 NORM(A)=   0.10843305D+01
 Iteration Nr.   5
 **********************
 DD1Dir will call FoFMem   1 times, MxPair=        42
 NAB=    21 NAA=     0 NBB=     0.
 DE(Corr)= -0.36572103     E(CORR)=     -436.92345903     Delta=-1.93D-04
 NORM(A)=   0.10846793D+01
 Iteration Nr.   6
 **********************
 DD1Dir will call FoFMem   1 times, MxPair=        42
 NAB=    21 NAA=     0 NBB=     0.
 DE(Corr)= -0.36575209     E(CORR)=     -436.92349009     Delta=-3.11D-05
 NORM(A)=   0.10846930D+01
 Iteration Nr.   7
 **********************
 DD1Dir will call FoFMem   1 times, MxPair=        42
 NAB=    21 NAA=     0 NBB=     0.
 DE(Corr)= -0.36575341     E(CORR)=     -436.92349141     Delta=-1.33D-06
 NORM(A)=   0.10847042D+01
 Iteration Nr.   8
 **********************
 DD1Dir will call FoFMem   1 times, MxPair=        42
 NAB=    21 NAA=     0 NBB=     0.
 DE(Corr)= -0.36575052     E(CORR)=     -436.92348852     Delta= 2.89D-06
 NORM(A)=   0.10847033D+01
 Iteration Nr.   9
 **********************
 DD1Dir will call FoFMem   1 times, MxPair=        42
 NAB=    21 NAA=     0 NBB=     0.
 DE(Corr)= -0.36575291     E(CORR)=     -436.92349091     Delta=-2.39D-06
 NORM(A)=   0.10847045D+01
 Iteration Nr.  10
 **********************
 DD1Dir will call FoFMem   1 times, MxPair=        42
 NAB=    21 NAA=     0 NBB=     0.
 DE(Corr)= -0.36575261     E(CORR)=     -436.92349061     Delta= 3.02D-07
 NORM(A)=   0.10847053D+01
 Iteration Nr.  11
 **********************
 DD1Dir will call FoFMem   1 times, MxPair=        42
 NAB=    21 NAA=     0 NBB=     0.
 DE(Corr)= -0.36575312     E(CORR)=     -436.92349112     Delta=-5.10D-07
 NORM(A)=   0.10847058D+01
 Iteration Nr.  12
 **********************
 DD1Dir will call FoFMem   1 times, MxPair=        42
 NAB=    21 NAA=     0 NBB=     0.
 DE(Corr)= -0.36575323     E(CORR)=     -436.92349122     Delta=-1.07D-07
 NORM(A)=   0.10847062D+01
 Iteration Nr.  13
 **********************
 DD1Dir will call FoFMem   1 times, MxPair=        42
 NAB=    21 NAA=     0 NBB=     0.
 DE(Corr)= -0.36575331     E(CORR)=     -436.92349131     Delta=-8.75D-08
 NORM(A)=   0.10847064D+01
 Iteration Nr.  14
 **********************
 DD1Dir will call FoFMem   1 times, MxPair=        42
 NAB=    21 NAA=     0 NBB=     0.
 DE(Corr)= -0.36575334     E(CORR)=     -436.92349134     Delta=-2.83D-08
 NORM(A)=   0.10847064D+01
 Iteration Nr.  15
 **********************
 DD1Dir will call FoFMem   1 times, MxPair=        42
 NAB=    21 NAA=     0 NBB=     0.
 DE(Corr)= -0.36575335     E(CORR)=     -436.92349135     Delta=-8.71D-09
 NORM(A)=   0.10847064D+01
 Iteration Nr.  16
 **********************
 DD1Dir will call FoFMem   1 times, MxPair=        42
 NAB=    21 NAA=     0 NBB=     0.
 DE(Corr)= -0.36575335     E(CORR)=     -436.92349135     Delta=-1.42D-09
 NORM(A)=   0.10847064D+01
 Dominant configurations:
 ***********************
 Spin Case        I    J    A    B          Value
   ABAB          11   11   14   14      -0.113514D+00
 Largest amplitude= 1.14D-01

 Z-AMPLITUDE ITERATIONS

 Iteration Nr.   1
 **********************
 DD1Dir will call FoFMem   1 times, MxPair=        42
 NAB=    21 NAA=     0 NBB=     0.
 DE(Z)  -0.34981286D+00          E(Z)=    -0.43690755086D+03
 NORM(A)=   0.10847063D+01
 Iteration Nr.   2
 **********************
 DD1Dir will call FoFMem   1 times, MxPair=        42
 NAB=    21 NAA=     0 NBB=     0.
 DE(Z)  -0.34981286D+00          E(Z)=    -0.43690755086D+03
 NORM(A)=   0.10847064D+01
 Iteration Nr.   3
 **********************
 DD1Dir will call FoFMem   1 times, MxPair=        42
 NAB=    21 NAA=     0 NBB=     0.
 DE(Z)  -0.34981286D+00          E(Z)=    -0.43690755086D+03
 NORM(A)=   0.10847064D+01
 Iteration Nr.   4
 **********************
 DD1Dir will call FoFMem   1 times, MxPair=        42
 NAB=    21 NAA=     0 NBB=     0.
 DE(Z)  -0.34981286D+00          E(Z)=    -0.43690755086D+03
 NORM(A)=   0.10847064D+01
 Iteration Nr.   5
 **********************
 DD1Dir will call FoFMem   1 times, MxPair=        42
 NAB=    21 NAA=     0 NBB=     0.
 DE(Z)  -0.34981286D+00          E(Z)=    -0.43690755086D+03
 NORM(A)=   0.10773762D+01
 Iteration Nr.   6
 **********************
 DD1Dir will call FoFMem   1 times, MxPair=        42
 NAB=    21 NAA=     0 NBB=     0.
 DE(Z)  -0.34949202D+00          E(Z)=    -0.43690723002D+03
 NORM(A)=   0.10769867D+01
 Iteration Nr.   7
 **********************
 DD1Dir will call FoFMem   1 times, MxPair=        42
 NAB=    21 NAA=     0 NBB=     0.
 DE(Z)  -0.34944199D+00          E(Z)=    -0.43690717999D+03
 NORM(A)=   0.10767656D+01
 Iteration Nr.   8
 **********************
 DD1Dir will call FoFMem   1 times, MxPair=        42
 NAB=    21 NAA=     0 NBB=     0.
 DE(Z)  -0.34944121D+00          E(Z)=    -0.43690717921D+03
 NORM(A)=   0.10766325D+01
 Iteration Nr.   9
 **********************
 DD1Dir will call FoFMem   1 times, MxPair=        42
 NAB=    21 NAA=     0 NBB=     0.
 DE(Z)  -0.34941271D+00          E(Z)=    -0.43690715070D+03
 NORM(A)=   0.10765783D+01
 Iteration Nr.  10
 **********************
 DD1Dir will call FoFMem   1 times, MxPair=        42
 NAB=    21 NAA=     0 NBB=     0.
 DE(Z)  -0.34941162D+00          E(Z)=    -0.43690714962D+03
 NORM(A)=   0.10765612D+01
 Iteration Nr.  11
 **********************
 DD1Dir will call FoFMem   1 times, MxPair=        42
 NAB=    21 NAA=     0 NBB=     0.
 DE(Z)  -0.34940784D+00          E(Z)=    -0.43690714584D+03
 NORM(A)=   0.10765566D+01
 Iteration Nr.  12
 **********************
 DD1Dir will call FoFMem   1 times, MxPair=        42
 NAB=    21 NAA=     0 NBB=     0.
 DE(Z)  -0.34940811D+00          E(Z)=    -0.43690714610D+03
 NORM(A)=   0.10765562D+01
 Iteration Nr.  13
 **********************
 DD1Dir will call FoFMem   1 times, MxPair=        42
 NAB=    21 NAA=     0 NBB=     0.
 DE(Z)  -0.34940787D+00          E(Z)=    -0.43690714587D+03
 NORM(A)=   0.10765561D+01
 Iteration Nr.  14
 **********************
 DD1Dir will call FoFMem   1 times, MxPair=        42
 NAB=    21 NAA=     0 NBB=     0.
 DE(Z)  -0.34940787D+00          E(Z)=    -0.43690714587D+03
 NORM(A)=   0.10765561D+01
 Iteration Nr.  15
 **********************
 DD1Dir will call FoFMem   1 times, MxPair=        42
 NAB=    21 NAA=     0 NBB=     0.
 DE(Z)  -0.34940789D+00          E(Z)=    -0.43690714589D+03
 NORM(A)=   0.10765561D+01
 Iteration Nr.  16
 **********************
 DD1Dir will call FoFMem   1 times, MxPair=        42
 NAB=    21 NAA=     0 NBB=     0.
 DE(Z)  -0.34940788D+00          E(Z)=    -0.43690714587D+03
 NORM(A)=   0.10765561D+01
 Iteration Nr.  17
 **********************
 DD1Dir will call FoFMem   1 times, MxPair=        42
 NAB=    21 NAA=     0 NBB=     0.
 DE(Z)  -0.34940788D+00          E(Z)=    -0.43690714588D+03
 NORM(A)=   0.10765561D+01
 Discarding MO integrals.
          IDoAtm=1111
          Differentiating once with respect to electric field.
                with respect to dipole field.
          Differentiating once with respect to nuclear coordinates.
          Keep R1 ints in memory in canonical form, NReq=93478224.
          There are     1 degrees of freedom in the 1st order CPHF.  IDoFFX=0.
 LinEq1:  Iter=  0 NonCon=     1 RMS=2.93D-03 Max=4.35D-02
 AX will form     1 AO Fock derivatives at one time.
 LinEq1:  Iter=  1 NonCon=     1 RMS=9.82D-04 Max=1.22D-02
 LinEq1:  Iter=  2 NonCon=     1 RMS=4.70D-04 Max=1.30D-02
 LinEq1:  Iter=  3 NonCon=     1 RMS=1.58D-04 Max=2.43D-03
 LinEq1:  Iter=  4 NonCon=     1 RMS=3.94D-05 Max=5.22D-04
 LinEq1:  Iter=  5 NonCon=     1 RMS=8.64D-06 Max=9.81D-05
 LinEq1:  Iter=  6 NonCon=     1 RMS=1.53D-06 Max=2.16D-05
 LinEq1:  Iter=  7 NonCon=     1 RMS=1.99D-07 Max=2.65D-06
 LinEq1:  Iter=  8 NonCon=     1 RMS=2.29D-08 Max=2.24D-07
 LinEq1:  Iter=  9 NonCon=     1 RMS=3.66D-09 Max=3.75D-08
 LinEq1:  Iter= 10 NonCon=     1 RMS=5.10D-10 Max=5.73D-09
 LinEq1:  Iter= 11 NonCon=     0 RMS=6.24D-11 Max=6.28D-10
 Linear equations converged to 1.000D-10 1.000D-09 after    11 iterations.
 End of Minotr Frequency-dependent properties file   721 does not exist.
 End of Minotr Frequency-dependent properties file   722 does not exist.
 Calling FoFJK, ICntrl=      2127 FMM=F ISym2X=0 I1Cent= 0 IOpClX= 0 NMat=1 NMatS=1 NMatT=0.
 -------------------------------------------------------------------
 Center     Atomic                   Forces (Hartrees/Bohr)
 Number     Number              X              Y              Z
 -------------------------------------------------------------------
      1        6           0.000000000    0.000000000   -0.002122070
      2       16           0.000000000    0.000000000    0.003894668
      3        1           0.000000000    0.000211974   -0.000886299
      4        1           0.000000000   -0.000211974   -0.000886299
 -------------------------------------------------------------------
 Cartesian Forces:  Max     0.003894668 RMS     0.001333309

 GradGradGradGradGradGradGradGradGradGradGradGradGradGradGradGradGradGrad
 Berny optimization.
 Using GEDIIS/GDIIS optimizer.
 Internal  Forces:  Max     0.003894668 RMS     0.001578123
 Search for a local minimum.
 Step number   2 out of a maximum of   20
 All quantities printed in internal units (Hartrees-Bohrs-Radians)
 Mixed Optimization -- RFO/linear search
 Update second derivatives using D2CorX and points    1    2
 DE= -3.00D-03 DEPred=-2.90D-03 R= 1.03D+00
 SS=  1.41D+00  RLast= 1.17D-01 DXNew= 5.0454D-01 3.5214D-01
 Trust test= 1.03D+00 RLast= 1.17D-01 DXMaxT set to 3.52D-01
 The second derivative matrix:
                          R1        R2        R3        A1        A2
           R1           0.55177
           R2          -0.00132   0.37331
           R3          -0.00132   0.00101   0.37331
           A1          -0.00390  -0.00037  -0.00037   0.15955
           A2          -0.00390  -0.00037  -0.00037  -0.00045   0.15955
           A3           0.00781   0.00074   0.00074   0.00090   0.00090
           D1           0.00000   0.00000   0.00000   0.00000   0.00000
                          A3        D1
           A3           0.15821
           D1           0.00000   0.00499
 ITU=  1  0
 Use linear search instead of GDIIS.
     Eigenvalues ---    0.00499   0.15707   0.16000   0.37230   0.37431
     Eigenvalues ---    0.55202
 RFO step:  Lambda=-5.84759459D-06 EMin= 4.99391742D-03
 Quartic linear search produced a step of  0.09505.
 Iteration  1 RMS(Cart)=  0.00564516 RMS(Int)=  0.00001207
 Iteration  2 RMS(Cart)=  0.00001185 RMS(Int)=  0.00000000
 Iteration  3 RMS(Cart)=  0.00000000 RMS(Int)=  0.00000000
 Variable       Old X    -DE/DX   Delta X   Delta X   Delta X     New X
                                 (Linear)    (Quad)   (Total)
    R1        3.04531   0.00389   0.00810  -0.00025   0.00785   3.05316
    R2        2.05142   0.00028   0.00280  -0.00168   0.00111   2.05254
    R3        2.05142   0.00028   0.00280  -0.00168   0.00111   2.05254
    A1        2.12262   0.00059   0.00268   0.00196   0.00465   2.12727
    A2        2.12262   0.00059   0.00268   0.00196   0.00465   2.12727
    A3        2.03794  -0.00118  -0.00537  -0.00393  -0.00930   2.02865
    D1        3.14159   0.00000   0.00000   0.00000   0.00000   3.14159
         Item               Value     Threshold  Converged?
 Maximum Force            0.003895     0.000450     NO 
 RMS     Force            0.001578     0.000300     NO 
 Maximum Displacement     0.010235     0.001800     NO 
 RMS     Displacement     0.005647     0.001200     NO 
 Predicted change in Energy=-2.095892D-05
 GradGradGradGradGradGradGradGradGradGradGradGradGradGradGradGradGradGrad

                          Input orientation:                          
 ---------------------------------------------------------------------
 Center     Atomic      Atomic             Coordinates (Angstroms)
 Number     Number       Type             X           Y           Z
 ---------------------------------------------------------------------
      1          6           0        0.000000    0.000000   -0.555291
      2         16           0        0.000000    0.000000    1.060374
      3          1           0        0.000000   -0.922280   -1.128992
      4          1           0        0.000000    0.922280   -1.128992
 ---------------------------------------------------------------------
                    Distance matrix (angstroms):
                    1          2          3          4
     1  C    0.000000
     2  S    1.615664   0.000000
     3  H    1.086155   2.375694   0.000000
     4  H    1.086155   2.375694   1.844560   0.000000
 Symmetry turned off by external request.
 Stoichiometry    CH2S
 Framework group  CS[SG(CS),X(H2)]
 Deg. of freedom     4
 Full point group                 CS      NOp   2
 Rotational constants (GHZ):    294.7654022     17.6287339     16.6339257
 Standard basis: Aug-CC-pVTZ (5D, 7F)
 Integral buffers will be    131072 words long.
 Raffenetti 1 integral format.
 Two-electron integral symmetry is turned off.
   142 basis functions,   240 primitive gaussians,   164 cartesian basis functions
    12 alpha electrons       12 beta electrons
       nuclear repulsion energy        44.7039957781 Hartrees.
 NAtoms=    4 NActive=    4 NUniq=    4 SFac= 1.00D+00 NAtFMM=   50 NAOKFM=F Big=F
 One-electron integrals computed using PRISM.
 NBasis=   142 RedAO= T  NBF=   142
 NBsUse=   142 1.00D-06 NBFU=   142
 Initial guess read from the read-write file.
 B after Tr=     0.000000    0.000000    0.000000
         Rot=    1.000000    0.000000    0.000000    0.000000 Ang=   0.00 deg.
 Requested convergence on RMS density matrix=1.00D-08 within 128 cycles.
 Requested convergence on MAX density matrix=1.00D-06.
 Requested convergence on             energy=1.00D-06.
 No special actions if energy rises.
 Keep R1 ints in memory in canonical form, NReq=93884347.
 SCF Done:  E(RHF) =  -436.557589508     A.U. after    9 cycles
             Convg  =    0.3685D-08             -V/T =  2.0003
 ExpMin= 2.53D-02 ExpMax= 3.74D+05 ExpMxC= 1.18D+03 IAcc=3 IRadAn=         5 AccDes= 0.00D+00
 HarFok:  IExCor=  205 AccDes= 0.00D+00 IRadAn=         5 IDoV=-2
 ScaDFX=  1.000000  1.000000  1.000000  1.000000
 Range of M.O.s used for correlation:     7   142
 NBasis=   142 NAE=    12 NBE=    12 NFC=     6 NFV=     0
 NROrb=    136 NOA=     6 NOB=     6 NVA=   130 NVB=   130

 **** Warning!!: The largest alpha MO coefficient is  0.44511326D+02

 Semi-Direct transformation.
 ModeAB=           2 MOrb=             6 LenV=    1073081967
 LASXX=      7286295 LTotXX=     7286295 LenRXX=     7286295
 LTotAB=     7445736 MaxLAS=    11040480 LenRXY=    11040480
 NonZer=    14572590 LenScr=    22628352 LnRSAI=           0
 LnScr1=           0 LExtra=           0 Total=     40955127
 MaxDsk=          -1 SrtSym=           F ITran=            4
 JobTyp=0 Pass  1:  I=   1 to   6.
 (rs|ai) integrals will be sorted in core.
 Spin components of T(2) and E(2):
     alpha-alpha T2 =       0.1683990499D-01 E2=     -0.3867675501D-01
     alpha-beta  T2 =       0.1052162208D+00 E2=     -0.2635158436D+00
     beta-beta   T2 =       0.1683990499D-01 E2=     -0.3867675501D-01
 ANorm=    0.1067190719D+01
 E2 =    -0.3408693536D+00 EUMP2 =    -0.43689845886208D+03
 R2 and R3 integrals will be kept in memory, NReq=   185320410.
 Iterations=  50 Convergence= 0.100D-07
 Iteration Nr.   1
 **********************
 DD1Dir will call FoFMem   1 times, MxPair=        42
 NAB=    21 NAA=     0 NBB=     0.
 MP4(R+Q)=  0.11663110D-01
 E3=       -0.22812276D-01        EUMP3=      -0.43692127114D+03
 E4(DQ)=    0.16434296D-02        UMP4(DQ)=   -0.43691962771D+03
 E4(SDQ)=  -0.18391558D-02        UMP4(SDQ)=  -0.43692311029D+03
 DE(Corr)= -0.35201852     E(Corr)=     -436.90960803    
 NORM(A)=   0.10738364D+01
 Iteration Nr.   2
 **********************
 DD1Dir will call FoFMem   1 times, MxPair=        42
 NAB=    21 NAA=     0 NBB=     0.
 DE(Corr)= -0.36343960     E(CORR)=     -436.92102911     Delta=-1.14D-02
 NORM(A)=   0.10812036D+01
 Iteration Nr.   3
 **********************
 DD1Dir will call FoFMem   1 times, MxPair=        42
 NAB=    21 NAA=     0 NBB=     0.
 DE(Corr)= -0.36436665     E(CORR)=     -436.92195616     Delta=-9.27D-04
 NORM(A)=   0.10836297D+01
 Iteration Nr.   4
 **********************
 DD1Dir will call FoFMem   1 times, MxPair=        42
 NAB=    21 NAA=     0 NBB=     0.
 DE(Corr)= -0.36569460     E(CORR)=     -436.92328411     Delta=-1.33D-03
 NORM(A)=   0.10846207D+01
 Iteration Nr.   5
 **********************
 DD1Dir will call FoFMem   1 times, MxPair=        42
 NAB=    21 NAA=     0 NBB=     0.
 DE(Corr)= -0.36589212     E(CORR)=     -436.92348162     Delta=-1.98D-04
 NORM(A)=   0.10849821D+01
 Iteration Nr.   6
 **********************
 DD1Dir will call FoFMem   1 times, MxPair=        42
 NAB=    21 NAA=     0 NBB=     0.
 DE(Corr)= -0.36592413     E(CORR)=     -436.92351364     Delta=-3.20D-05
 NORM(A)=   0.10849968D+01
 Iteration Nr.   7
 **********************
 DD1Dir will call FoFMem   1 times, MxPair=        42
 NAB=    21 NAA=     0 NBB=     0.
 DE(Corr)= -0.36592553     E(CORR)=     -436.92351504     Delta=-1.40D-06
 NORM(A)=   0.10850084D+01
 Iteration Nr.   8
 **********************
 DD1Dir will call FoFMem   1 times, MxPair=        42
 NAB=    21 NAA=     0 NBB=     0.
 DE(Corr)= -0.36592257     E(CORR)=     -436.92351208     Delta= 2.96D-06
 NORM(A)=   0.10850075D+01
 Iteration Nr.   9
 **********************
 DD1Dir will call FoFMem   1 times, MxPair=        42
 NAB=    21 NAA=     0 NBB=     0.
 DE(Corr)= -0.36592502     E(CORR)=     -436.92351453     Delta=-2.45D-06
 NORM(A)=   0.10850087D+01
 Iteration Nr.  10
 **********************
 DD1Dir will call FoFMem   1 times, MxPair=        42
 NAB=    21 NAA=     0 NBB=     0.
 DE(Corr)= -0.36592470     E(CORR)=     -436.92351421     Delta= 3.20D-07
 NORM(A)=   0.10850095D+01
 Iteration Nr.  11
 **********************
 DD1Dir will call FoFMem   1 times, MxPair=        42
 NAB=    21 NAA=     0 NBB=     0.
 DE(Corr)= -0.36592522     E(CORR)=     -436.92351473     Delta=-5.24D-07
 NORM(A)=   0.10850100D+01
 Iteration Nr.  12
 **********************
 DD1Dir will call FoFMem   1 times, MxPair=        42
 NAB=    21 NAA=     0 NBB=     0.
 DE(Corr)= -0.36592533     E(CORR)=     -436.92351484     Delta=-1.08D-07
 NORM(A)=   0.10850105D+01
 Iteration Nr.  13
 **********************
 DD1Dir will call FoFMem   1 times, MxPair=        42
 NAB=    21 NAA=     0 NBB=     0.
 DE(Corr)= -0.36592542     E(CORR)=     -436.92351493     Delta=-9.00D-08
 NORM(A)=   0.10850106D+01
 Iteration Nr.  14
 **********************
 DD1Dir will call FoFMem   1 times, MxPair=        42
 NAB=    21 NAA=     0 NBB=     0.
 DE(Corr)= -0.36592545     E(CORR)=     -436.92351496     Delta=-2.92D-08
 NORM(A)=   0.10850107D+01
 Iteration Nr.  15
 **********************
 DD1Dir will call FoFMem   1 times, MxPair=        42
 NAB=    21 NAA=     0 NBB=     0.
 DE(Corr)= -0.36592546     E(CORR)=     -436.92351497     Delta=-9.20D-09
 NORM(A)=   0.10850107D+01
 Iteration Nr.  16
 **********************
 DD1Dir will call FoFMem   1 times, MxPair=        42
 NAB=    21 NAA=     0 NBB=     0.
 DE(Corr)= -0.36592546     E(CORR)=     -436.92351497     Delta=-1.52D-09
 NORM(A)=   0.10850107D+01
 Dominant configurations:
 ***********************
 Spin Case        I    J    A    B          Value
   ABAB          11   11   14   14      -0.114474D+00
 Largest amplitude= 1.14D-01

 Z-AMPLITUDE ITERATIONS

 Iteration Nr.   1
 **********************
 DD1Dir will call FoFMem   1 times, MxPair=        42
 NAB=    21 NAA=     0 NBB=     0.
 DE(Z)  -0.34990902D+00          E(Z)=    -0.43690749853D+03
 NORM(A)=   0.10850045D+01
 Iteration Nr.   2
 **********************
 DD1Dir will call FoFMem   1 times, MxPair=        42
 NAB=    21 NAA=     0 NBB=     0.
 DE(Z)  -0.34990874D+00          E(Z)=    -0.43690749825D+03
 NORM(A)=   0.10849830D+01
 Iteration Nr.   3
 **********************
 DD1Dir will call FoFMem   1 times, MxPair=        42
 NAB=    21 NAA=     0 NBB=     0.
 DE(Z)  -0.34990774D+00          E(Z)=    -0.43690749724D+03
 NORM(A)=   0.10850021D+01
 Iteration Nr.   4
 **********************
 DD1Dir will call FoFMem   1 times, MxPair=        42
 NAB=    21 NAA=     0 NBB=     0.
 DE(Z)  -0.34990862D+00          E(Z)=    -0.43690749813D+03
 NORM(A)=   0.10850329D+01
 Iteration Nr.   5
 **********************
 DD1Dir will call FoFMem   1 times, MxPair=        42
 NAB=    21 NAA=     0 NBB=     0.
 DE(Z)  -0.34991008D+00          E(Z)=    -0.43690749959D+03
 NORM(A)=   0.10767951D+01
 Iteration Nr.   6
 **********************
 DD1Dir will call FoFMem   1 times, MxPair=        42
 NAB=    21 NAA=     0 NBB=     0.
 DE(Z)  -0.34950891D+00          E(Z)=    -0.43690709841D+03
 NORM(A)=   0.10767900D+01
 Iteration Nr.   7
 **********************
 DD1Dir will call FoFMem   1 times, MxPair=        42
 NAB=    21 NAA=     0 NBB=     0.
 DE(Z)  -0.34950742D+00          E(Z)=    -0.43690709692D+03
 NORM(A)=   0.10767891D+01
 Iteration Nr.   8
 **********************
 DD1Dir will call FoFMem   1 times, MxPair=        42
 NAB=    21 NAA=     0 NBB=     0.
 DE(Z)  -0.34950776D+00          E(Z)=    -0.43690709727D+03
 NORM(A)=   0.10767891D+01
 Iteration Nr.   9
 **********************
 DD1Dir will call FoFMem   1 times, MxPair=        42
 NAB=    21 NAA=     0 NBB=     0.
 DE(Z)  -0.34950763D+00          E(Z)=    -0.43690709714D+03
 NORM(A)=   0.10767891D+01
 Iteration Nr.  10
 **********************
 DD1Dir will call FoFMem   1 times, MxPair=        42
 NAB=    21 NAA=     0 NBB=     0.
 DE(Z)  -0.34950766D+00          E(Z)=    -0.43690709716D+03
 NORM(A)=   0.10767891D+01
 Iteration Nr.  11
 **********************
 DD1Dir will call FoFMem   1 times, MxPair=        42
 NAB=    21 NAA=     0 NBB=     0.
 DE(Z)  -0.34950765D+00          E(Z)=    -0.43690709716D+03
 NORM(A)=   0.10767891D+01
 Iteration Nr.  12
 **********************
 DD1Dir will call FoFMem   1 times, MxPair=        42
 NAB=    21 NAA=     0 NBB=     0.
 DE(Z)  -0.34950765D+00          E(Z)=    -0.43690709716D+03
 NORM(A)=   0.10767891D+01
 Discarding MO integrals.
          IDoAtm=1111
          Differentiating once with respect to electric field.
                with respect to dipole field.
          Differentiating once with respect to nuclear coordinates.
          Keep R1 ints in memory in canonical form, NReq=93478224.
          There are     1 degrees of freedom in the 1st order CPHF.  IDoFFX=0.
 LinEq1:  Iter=  0 NonCon=     1 RMS=2.95D-03 Max=4.36D-02
 AX will form     1 AO Fock derivatives at one time.
 LinEq1:  Iter=  1 NonCon=     1 RMS=9.86D-04 Max=1.21D-02
 LinEq1:  Iter=  2 NonCon=     1 RMS=4.76D-04 Max=1.32D-02
 LinEq1:  Iter=  3 NonCon=     1 RMS=1.60D-04 Max=2.47D-03
 LinEq1:  Iter=  4 NonCon=     1 RMS=3.99D-05 Max=5.26D-04
 LinEq1:  Iter=  5 NonCon=     1 RMS=8.74D-06 Max=9.99D-05
 LinEq1:  Iter=  6 NonCon=     1 RMS=1.55D-06 Max=2.20D-05
 LinEq1:  Iter=  7 NonCon=     1 RMS=2.01D-07 Max=2.70D-06
 LinEq1:  Iter=  8 NonCon=     1 RMS=2.32D-08 Max=2.27D-07
 LinEq1:  Iter=  9 NonCon=     1 RMS=3.70D-09 Max=3.77D-08
 LinEq1:  Iter= 10 NonCon=     1 RMS=5.17D-10 Max=5.81D-09
 LinEq1:  Iter= 11 NonCon=     0 RMS=6.33D-11 Max=6.37D-10
 Linear equations converged to 1.000D-10 1.000D-09 after    11 iterations.
 End of Minotr Frequency-dependent properties file   721 does not exist.
 End of Minotr Frequency-dependent properties file   722 does not exist.
 Calling FoFJK, ICntrl=      2127 FMM=F ISym2X=0 I1Cent= 0 IOpClX= 0 NMat=1 NMatS=1 NMatT=0.
 -------------------------------------------------------------------
 Center     Atomic                   Forces (Hartrees/Bohr)
 Number     Number              X              Y              Z
 -------------------------------------------------------------------
      1        6           0.000000003    0.000000000   -0.000103360
      2       16          -0.000000001    0.000000000    0.000023232
      3        1          -0.000000001    0.000019354    0.000040064
      4        1          -0.000000001   -0.000019354    0.000040064
 -------------------------------------------------------------------
 Cartesian Forces:  Max     0.000103360 RMS     0.000035570

 GradGradGradGradGradGradGradGradGradGradGradGradGradGradGradGradGradGrad
 Berny optimization.
 Using GEDIIS/GDIIS optimizer.
 Internal  Forces:  Max     0.000037596 RMS     0.000026611
 Search for a local minimum.
 Step number   3 out of a maximum of   20
 All quantities printed in internal units (Hartrees-Bohrs-Radians)
 Mixed Optimization -- En-DIIS/RFO-DIIS
 Update second derivatives using D2CorX and points    1    2    3
 DE= -2.36D-05 DEPred=-2.10D-05 R= 1.13D+00
 SS=  1.41D+00  RLast= 1.39D-02 DXNew= 5.9222D-01 4.1753D-02
 Trust test= 1.13D+00 RLast= 1.39D-02 DXMaxT set to 3.52D-01
 The second derivative matrix:
                          R1        R2        R3        A1        A2
           R1           0.53109
           R2          -0.00653   0.37253
           R3          -0.00653   0.00022   0.37253
           A1          -0.01015  -0.00151  -0.00151   0.15813
           A2          -0.01015  -0.00151  -0.00151  -0.00187   0.15813
           A3           0.02030   0.00302   0.00302   0.00374   0.00374
           D1           0.00000   0.00000   0.00000   0.00000   0.00000
                          A3        D1
           A3           0.15251
           D1           0.00000   0.00499
 ITU=  1  1  0
 Use linear search instead of GDIIS.
     Eigenvalues ---    0.00499   0.14701   0.16000   0.37230   0.37241
     Eigenvalues ---    0.53319
 RFO step:  Lambda=-1.65335874D-08 EMin= 4.99391742D-03
 Quartic linear search produced a step of -0.00745.
 Iteration  1 RMS(Cart)=  0.00008964 RMS(Int)=  0.00000001
 Iteration  2 RMS(Cart)=  0.00000001 RMS(Int)=  0.00000000
 Variable       Old X    -DE/DX   Delta X   Delta X   Delta X     New X
                                 (Linear)    (Quad)   (Total)
    R1        3.05316   0.00002  -0.00006   0.00009   0.00003   3.05319
    R2        2.05254  -0.00004  -0.00001  -0.00009  -0.00010   2.05243
    R3        2.05254  -0.00004  -0.00001  -0.00009  -0.00010   2.05243
    A1        2.12727  -0.00002  -0.00003  -0.00008  -0.00011   2.12716
    A2        2.12727  -0.00002  -0.00003  -0.00008  -0.00011   2.12716
    A3        2.02865   0.00003   0.00007   0.00015   0.00022   2.02887
    D1        3.14159   0.00000   0.00000   0.00000   0.00000  -3.14159
         Item               Value     Threshold  Converged?
 Maximum Force            0.000038     0.000450     YES
 RMS     Force            0.000027     0.000300     YES
 Maximum Displacement     0.000130     0.001800     YES
 RMS     Displacement     0.000090     0.001200     YES
 Predicted change in Energy=-9.558106D-09
 Optimization completed.
    -- Stationary point found.
                           ----------------------------
                           !   Optimized Parameters   !
                           ! (Angstroms and Degrees)  !
 --------------------------                            --------------------------
 ! Name  Definition              Value          Derivative Info.                !
 --------------------------------------------------------------------------------
 ! R1    R(1,2)                  1.6157         -DE/DX =    0.0                 !
 ! R2    R(1,3)                  1.0862         -DE/DX =    0.0                 !
 ! R3    R(1,4)                  1.0862         -DE/DX =    0.0                 !
 ! A1    A(2,1,3)              121.8835         -DE/DX =    0.0                 !
 ! A2    A(2,1,4)              121.8835         -DE/DX =    0.0                 !
 ! A3    A(3,1,4)              116.2329         -DE/DX =    0.0                 !
 ! D1    D(2,1,4,3)           -180.0            -DE/DX =    0.0                 !
 --------------------------------------------------------------------------------
 GradGradGradGradGradGradGradGradGradGradGradGradGradGradGradGradGradGrad

                          Input orientation:                          
 ---------------------------------------------------------------------
 Center     Atomic      Atomic             Coordinates (Angstroms)
 Number     Number       Type             X           Y           Z
 ---------------------------------------------------------------------
      1          6           0        0.000000    0.000000   -0.555291
      2         16           0        0.000000    0.000000    1.060374
      3          1           0        0.000000   -0.922280   -1.128992
      4          1           0        0.000000    0.922280   -1.128992
 ---------------------------------------------------------------------
                    Distance matrix (angstroms):
                    1          2          3          4
     1  C    0.000000
     2  S    1.615664   0.000000
     3  H    1.086155   2.375694   0.000000
     4  H    1.086155   2.375694   1.844560   0.000000
 Symmetry turned off by external request.
 Stoichiometry    CH2S
 Framework group  CS[SG(CS),X(H2)]
 Deg. of freedom     4
 Full point group                 CS      NOp   2
 Rotational constants (GHZ):    294.7654022     17.6287339     16.6339257

 **********************************************************************

            Population analysis using the QCI/CC density.

 **********************************************************************

 Alpha  occ. eigenvalues --  -91.95647 -11.32122  -8.95855  -6.63916  -6.63890
 Alpha  occ. eigenvalues --   -6.63692  -1.06423  -0.81467  -0.64496  -0.54133
 Alpha  occ. eigenvalues --   -0.41771  -0.35260
 Alpha virt. eigenvalues --    0.02840   0.03497   0.04269   0.06130   0.09229
 Alpha virt. eigenvalues --    0.10419   0.11645   0.13132   0.13507   0.14771
 Alpha virt. eigenvalues --    0.19859   0.21666   0.23070   0.24351   0.27036
 Alpha virt. eigenvalues --    0.29043   0.30910   0.31754   0.32523   0.34392
 Alpha virt. eigenvalues --    0.37582   0.38361   0.38569   0.40186   0.41300
 Alpha virt. eigenvalues --    0.43221   0.44721   0.45159   0.47146   0.48716
 Alpha virt. eigenvalues --    0.56391   0.62026   0.65216   0.66051   0.67764
 Alpha virt. eigenvalues --    0.74938   0.75470   0.76848   0.78918   0.80724
 Alpha virt. eigenvalues --    0.83297   0.84783   0.85063   0.87303   0.87809
 Alpha virt. eigenvalues --    0.89455   0.89810   0.96022   0.97169   0.97225
 Alpha virt. eigenvalues --    0.99516   0.99991   1.02048   1.08624   1.10738
 Alpha virt. eigenvalues --    1.10894   1.12566   1.13450   1.14021   1.16688
 Alpha virt. eigenvalues --    1.24545   1.30177   1.34170   1.42633   1.49899
 Alpha virt. eigenvalues --    1.52799   1.54992   1.58336   1.58494   1.58906
 Alpha virt. eigenvalues --    1.61730   1.65198   1.80263   1.87894   1.88927
 Alpha virt. eigenvalues --    2.02032   2.02627   2.02849   2.05460   2.08985
 Alpha virt. eigenvalues --    2.09775   2.13350   2.17745   2.34492   2.35664
 Alpha virt. eigenvalues --    2.39342   2.40526   2.42304   2.47508   2.50456
 Alpha virt. eigenvalues --    2.57235   2.69112   2.71722   2.89266   3.00848
 Alpha virt. eigenvalues --    3.04234   3.12180   3.19045   3.23512   3.46719
 Alpha virt. eigenvalues --    3.57845   3.59568   3.64407   3.67253   3.69179
 Alpha virt. eigenvalues --    3.80146   3.83580   3.85300   3.90274   3.92816
 Alpha virt. eigenvalues --    4.05399   4.10353   4.25217   4.40581   4.41840
 Alpha virt. eigenvalues --    4.45044   4.68684   4.73614   4.74355   5.07309
 Alpha virt. eigenvalues --    5.12434   5.24714   5.25079   5.29683   5.51136
 Alpha virt. eigenvalues --    5.84235   5.94637   6.48117   6.60370  15.23696
          Condensed to atoms (all electrons):
              1          2          3          4
     1  C    6.185074   0.274398   0.183312   0.183312
     2  S    0.274398  16.028304  -0.118612  -0.118612
     3  H    0.183312  -0.118612   0.649835  -0.160324
     4  H    0.183312  -0.118612  -0.160324   0.649835
 Mulliken atomic charges:
              1
     1  C   -0.826098
     2  S   -0.065479
     3  H    0.445788
     4  H    0.445788
 Sum of Mulliken atomic charges =   0.00000
 Mulliken charges with hydrogens summed into heavy atoms:
              1
     1  C    0.065479
     2  S   -0.065479
 Sum of Mulliken charges with hydrogens summed into heavy atoms =   0.00000
 Electronic spatial extent (au):  <R**2>=            130.2857
 Charge=              0.0000 electrons
 Dipole moment (field-independent basis, Debye):
    X=              0.0000    Y=              0.0000    Z=             -1.7524  Tot=              1.7524
 Quadrupole moment (field-independent basis, Debye-Ang):
   XX=            -19.9779   YY=            -20.5753   ZZ=            -18.9724
   XY=              0.0000   XZ=              0.0000   YZ=              0.0000
 Traceless Quadrupole moment (field-independent basis, Debye-Ang):
   XX=             -0.1361   YY=             -0.7334   ZZ=              0.8695
   XY=              0.0000   XZ=              0.0000   YZ=              0.0000
 Octapole moment (field-independent basis, Debye-Ang**2):
  XXX=              0.0000  YYY=              0.0000  ZZZ=            -27.6810  XYY=              0.0000
  XXY=              0.0000  XXZ=             -8.5633  XZZ=              0.0000  YZZ=              0.0000
  YYZ=            -13.1333  XYZ=              0.0000
 Hexadecapole moment (field-independent basis, Debye-Ang**3):
 XXXX=            -25.3174 YYYY=            -35.1166 ZZZZ=           -127.3605 XXXY=              0.0000
 XXXZ=              0.0000 YYYX=              0.0000 YYYZ=              0.0000 ZZZX=              0.0000
 ZZZY=              0.0000 XXYY=            -10.5016 XXZZ=            -25.3322 YYZZ=            -29.5532
 XXYZ=              0.0000 YYXZ=              0.0000 ZZXY=              0.0000
 N-N= 4.470399577806D+01 E-N=-1.127363573366D+03  KE= 4.368673963672D+02
 1\1\GINC-TRAPISTA\FOpt\RQCISD-FC\Aug-CC-pVTZ\C1H2S1\BRUNS\17-Nov-2021\
 0\\#opt qcisd/aug-cc-pvtz density=current nosym\\h2cs\\0,1\C,-0.000000
 0098,0.,-0.5552905969\S,0.0000000026,0.,1.0603737935\H,0.0000000036,-0
 .9222799661,-1.1289915983\H,0.0000000036,0.9222799661,-1.1289915983\\V
 ersion=EM64L-G09RevB.01\HF=-436.5575895\MP2=-436.8984589\MP3=-436.9212
 711\MP4D=-436.9312908\MP4DQ=-436.9196277\MP4SDQ=-436.9231103\QCISD=-43
 6.923515\RMSD=3.685e-09\RMSF=3.557e-05\Dipole=0.,0.,-0.6894484\Quadrup
 ole=-0.1011588,-0.5452822,0.646441,0.,0.,0.\PG=CS [SG(C1S1),X(H2)]\\@


 The impersonal hand of government can
 never replace the helping hand of a neighbor.
                        -- Hubert H. Humphrey
 Job cpu time:  0 days  1 hours 23 minutes  8.1 seconds.
 File lengths (MBytes):  RWF=   5923 Int=      0 D2E=      0 Chk=      3 Scr=      1
 Normal termination of Gaussian 09 at Wed Nov 17 02:01:26 2021.
