 Entering Gaussian System, Link 0=/home/bruns/programas/chemistry/gaussian/g09/g09
 Input=./h2cs/h2cs-fv.com
 Output=./h2cs/h2cs-fv.log
 Initial command:
 /home/bruns/programas/chemistry/gaussian/g09/l1.exe /home/bruns/programas/chemistry/gaussian/work/Gau-65319.inp -scrdir=/home/bruns/programas/chemistry/gaussian/work/
 Entering Link 1 = /home/bruns/programas/chemistry/gaussian/g09/l1.exe PID=     65321.
  
 Copyright (c) 1988,1990,1992,1993,1995,1998,2003,2009,2010,
            Gaussian, Inc.  All Rights Reserved.
  
 This is part of the Gaussian(R) 09 program.  It is based on
 the Gaussian(R) 03 system (copyright 2003, Gaussian, Inc.),
 the Gaussian(R) 98 system (copyright 1998, Gaussian, Inc.),
 the Gaussian(R) 94 system (copyright 1995, Gaussian, Inc.),
 the Gaussian 92(TM) system (copyright 1992, Gaussian, Inc.),
 the Gaussian 90(TM) system (copyright 1990, Gaussian, Inc.),
 the Gaussian 88(TM) system (copyright 1988, Gaussian, Inc.),
 the Gaussian 86(TM) system (copyright 1986, Carnegie Mellon
 University), and the Gaussian 82(TM) system (copyright 1983,
 Carnegie Mellon University). Gaussian is a federally registered
 trademark of Gaussian, Inc.
  
 This software contains proprietary and confidential information,
 including trade secrets, belonging to Gaussian, Inc.
  
 This software is provided under written license and may be
 used, copied, transmitted, or stored only in accord with that
 written license.
  
 The following legend is applicable only to US Government
 contracts under FAR:
  
                    RESTRICTED RIGHTS LEGEND
  
 Use, reproduction and disclosure by the US Government is
 subject to restrictions as set forth in subparagraphs (a)
 and (c) of the Commercial Computer Software - Restricted
 Rights clause in FAR 52.227-19.
  
 Gaussian, Inc.
 340 Quinnipiac St., Bldg. 40, Wallingford CT 06492
  
  
 ---------------------------------------------------------------
 Warning -- This program may not be used in any manner that
 competes with the business of Gaussian, Inc. or will provide
 assistance to any competitor of Gaussian, Inc.  The licensee
 of this program is prohibited from giving any competitor of
 Gaussian, Inc. access to this program.  By using this program,
 the user acknowledges that Gaussian, Inc. is engaged in the
 business of creating and licensing software in the field of
 computational chemistry and represents and warrants to the
 licensee that it is not a competitor of Gaussian, Inc. and that
 it will not use this program in any manner prohibited above.
 ---------------------------------------------------------------
  

 Cite this work as:
 Gaussian 09, Revision B.01,
 M. J. Frisch, G. W. Trucks, H. B. Schlegel, G. E. Scuseria, 
 M. A. Robb, J. R. Cheeseman, G. Scalmani, V. Barone, B. Mennucci, 
 G. A. Petersson, H. Nakatsuji, M. Caricato, X. Li, H. P. Hratchian, 
 A. F. Izmaylov, J. Bloino, G. Zheng, J. L. Sonnenberg, M. Hada, 
 M. Ehara, K. Toyota, R. Fukuda, J. Hasegawa, M. Ishida, T. Nakajima, 
 Y. Honda, O. Kitao, H. Nakai, T. Vreven, J. A. Montgomery, Jr., 
 J. E. Peralta, F. Ogliaro, M. Bearpark, J. J. Heyd, E. Brothers, 
 K. N. Kudin, V. N. Staroverov, T. Keith, R. Kobayashi, J. Normand, 
 K. Raghavachari, A. Rendell, J. C. Burant, S. S. Iyengar, J. Tomasi, 
 M. Cossi, N. Rega, J. M. Millam, M. Klene, J. E. Knox, J. B. Cross, 
 V. Bakken, C. Adamo, J. Jaramillo, R. Gomperts, R. E. Stratmann, 
 O. Yazyev, A. J. Austin, R. Cammi, C. Pomelli, J. W. Ochterski, 
 R. L. Martin, K. Morokuma, V. G. Zakrzewski, G. A. Voth, 
 P. Salvador, J. J. Dannenberg, S. Dapprich, A. D. Daniels, 
 O. Farkas, J. B. Foresman, J. V. Ortiz, J. Cioslowski, 
 and D. J. Fox, Gaussian, Inc., Wallingford CT, 2010.
 
 ******************************************
 Gaussian 09:  EM64L-G09RevB.01 12-Aug-2010
                17-Nov-2021 
 ******************************************
 %nproc=8
 Will use up to    8 processors via shared memory.
 %mem=8GB
 ----------------------------------------------------------------------
 #freq=noraman qcisd/aug-cc-pvtz density=current iop(7/33=1) nosym form
 check=forcecart
 ----------------------------------------------------------------------
 1/10=4,30=1,38=11/1,3,6;
 2/12=2,15=1,17=6,18=5,40=1/2;
 3/5=16,6=1,7=10,11=9,16=1,25=1,30=1,71=1/1,2,3;
 4/69=2/1;
 5/5=2,38=5,98=1/2;
 8/6=4,9=120000,10=1/1,4;
 9/5=8,15=1/13;
 11/28=-7,29=200,31=1,42=3/11;
 10/5=6,31=1/2;
 6/7=2,8=2,9=2,10=2,22=-1/1;
 7/12=7,30=1,33=1/1,2,3,16;
 1/38=10/6(3);
 7/8=1,25=1,30=1,33=1,44=-1/16;
 1/10=4,30=1,38=10/3;
 99//99;
 3/5=16,6=1,7=10,11=9,16=1,25=1,30=1,71=1/1,2,3;
 4/5=5,16=3,69=2/1;
 5/5=2,38=5,98=1/2;
 8/6=4,9=120000,10=1/1,4;
 9/5=8,15=1/13;
 11/28=-7,29=200,31=1,42=3/11;
 10/5=6,31=1/2;
 6/7=2,8=2,9=2,10=2,22=-1/1;
 7/7=1,12=7,30=1,33=1/1,2,3,16;
 1/38=10/6(-9);
 7/8=1,25=1,30=1,33=1,44=-1/16;
 1/10=4,30=1,38=10/3;
 99//99;
 ----------------
 h2cs-frequencies
 ----------------
 Symbolic Z-matrix:
 Charge =  0 Multiplicity = 1
 C                     0.        0.       -0.55529 
 S                     0.        0.        1.06037 
 H                     0.       -0.92228  -1.12899 
 H                     0.        0.92228  -1.12899 
 

 GradGradGradGradGradGradGradGradGradGradGradGradGradGradGradGradGradGrad
 Berny optimization.
 Initialization pass.
 Trust Radius=3.00D-01 FncErr=1.00D-07 GrdErr=1.00D-07
 Number of steps in this run=      2 maximum allowed number of steps=      2.
 GradGradGradGradGradGradGradGradGradGradGradGradGradGradGradGradGradGrad

 NDeriv=  12 NFrqRd=  0 LFDDif=       1
 Numerical evaluation of force-constants.
 Nuclear step= 0.001000 Angstroms, electric field step= 0.000333 atomic units, NStep=1.
                          Input orientation:                          
 ---------------------------------------------------------------------
 Center     Atomic      Atomic             Coordinates (Angstroms)
 Number     Number       Type             X           Y           Z
 ---------------------------------------------------------------------
      1          6           0        0.000000    0.000000   -0.555291
      2         16           0        0.000000    0.000000    1.060374
      3          1           0        0.000000   -0.922280   -1.128992
      4          1           0        0.000000    0.922280   -1.128992
 ---------------------------------------------------------------------
                    Distance matrix (angstroms):
                    1          2          3          4
     1  C    0.000000
     2  S    1.615665   0.000000
     3  H    1.086155   2.375694   0.000000
     4  H    1.086155   2.375694   1.844560   0.000000
 Symmetry turned off by external request.
 Stoichiometry    CH2S
 Framework group  C2V[C2(CS),SGV(H2)]
 Deg. of freedom     3
 Full point group                 C2V     NOp   4
 Rotational constants (GHZ):    294.7653806     17.6287215     16.6339146
 Standard basis: Aug-CC-pVTZ (5D, 7F)
 Integral buffers will be    131072 words long.
 Raffenetti 1 integral format.
 Two-electron integral symmetry is turned off.
   142 basis functions,   240 primitive gaussians,   164 cartesian basis functions
    12 alpha electrons       12 beta electrons
       nuclear repulsion energy        44.7039820313 Hartrees.
 NAtoms=    4 NActive=    4 NUniq=    4 SFac= 1.00D+00 NAtFMM=   50 NAOKFM=F Big=F
 One-electron integrals computed using PRISM.
 NBasis=   142 RedAO= T  NBF=   142
 NBsUse=   142 1.00D-06 NBFU=   142
 Harris functional with IExCor=  205 diagonalized for initial guess.
 ExpMin= 2.53D-02 ExpMax= 3.74D+05 ExpMxC= 1.18D+03 IAcc=3 IRadAn=         0 AccDes= 0.00D+00
 HarFok:  IExCor=  205 AccDes= 0.00D+00 IRadAn=         0 IDoV= 1
 ScaDFX=  1.000000  1.000000  1.000000  1.000000
 FoFCou: FMM=F IPFlag=           0 FMFlag=      100000 FMFlg1=           0
         NFxFlg=           0 DoJE=T BraDBF=F KetDBF=T FulRan=T
         Omega=  0.000000  0.000000  1.000000  0.000000  0.000000 ICntrl=     500 IOpCl=  0
         NMat0=    1 NMatS0=    1 NMatT0=    0 NMatD0=    1 NMtDS0=    0 NMtDT0=    0
         I1Cent=           4 NGrid=           0.
 Symmetry not used in FoFCou.
 Requested convergence on RMS density matrix=1.00D-08 within 128 cycles.
 Requested convergence on MAX density matrix=1.00D-06.
 Requested convergence on             energy=1.00D-06.
 No special actions if energy rises.
 Keep R1 ints in memory in canonical form, NReq=93884347.
 SCF Done:  E(RHF) =  -436.557589484     A.U. after   11 cycles
             Convg  =    0.6200D-08             -V/T =  2.0003
 ExpMin= 2.53D-02 ExpMax= 3.74D+05 ExpMxC= 1.18D+03 IAcc=3 IRadAn=         5 AccDes= 0.00D+00
 HarFok:  IExCor=  205 AccDes= 0.00D+00 IRadAn=         5 IDoV=-2
 ScaDFX=  1.000000  1.000000  1.000000  1.000000
 Range of M.O.s used for correlation:     7   142
 NBasis=   142 NAE=    12 NBE=    12 NFC=     6 NFV=     0
 NROrb=    136 NOA=     6 NOB=     6 NVA=   130 NVB=   130

 **** Warning!!: The largest alpha MO coefficient is  0.44511330D+02

 Semi-Direct transformation.
 ModeAB=           2 MOrb=             6 LenV=    1073081967
 LASXX=      7286295 LTotXX=     7286295 LenRXX=     7286295
 LTotAB=     7445736 MaxLAS=    11040480 LenRXY=    11040480
 NonZer=    14572590 LenScr=    22628352 LnRSAI=           0
 LnScr1=           0 LExtra=           0 Total=     40955127
 MaxDsk=          -1 SrtSym=           F ITran=            4
 JobTyp=0 Pass  1:  I=   1 to   6.
 (rs|ai) integrals will be sorted in core.
 Spin components of T(2) and E(2):
     alpha-alpha T2 =       0.1683990982D-01 E2=     -0.3867675612D-01
     alpha-beta  T2 =       0.1052162563D+00 E2=     -0.2635158620D+00
     beta-beta   T2 =       0.1683990982D-01 E2=     -0.3867675612D-01
 ANorm=    0.1067190740D+01
 E2 =    -0.3408693743D+00 EUMP2 =    -0.43689845885874D+03
 R2 and R3 integrals will be kept in memory, NReq=   185320410.
 Iterations=  50 Convergence= 0.100D-07
 Iteration Nr.   1
 **********************
 DD1Dir will call FoFMem   1 times, MxPair=        42
 NAB=    21 NAA=     0 NBB=     0.
 MP4(R+Q)=  0.11663115D-01
 E3=       -0.22812272D-01        EUMP3=      -0.43692127113D+03
 E4(DQ)=    0.16434304D-02        UMP4(DQ)=   -0.43691962770D+03
 E4(SDQ)=  -0.18391604D-02        UMP4(SDQ)=  -0.43692311029D+03
 DE(Corr)= -0.35201853     E(Corr)=     -436.90960802    
 NORM(A)=   0.10738364D+01
 Iteration Nr.   2
 **********************
 DD1Dir will call FoFMem   1 times, MxPair=        42
 NAB=    21 NAA=     0 NBB=     0.
 DE(Corr)= -0.36343962     E(CORR)=     -436.92102911     Delta=-1.14D-02
 NORM(A)=   0.10812037D+01
 Iteration Nr.   3
 **********************
 DD1Dir will call FoFMem   1 times, MxPair=        42
 NAB=    21 NAA=     0 NBB=     0.
 DE(Corr)= -0.36436667     E(CORR)=     -436.92195615     Delta=-9.27D-04
 NORM(A)=   0.10836298D+01
 Iteration Nr.   4
 **********************
 DD1Dir will call FoFMem   1 times, MxPair=        42
 NAB=    21 NAA=     0 NBB=     0.
 DE(Corr)= -0.36569462     E(CORR)=     -436.92328411     Delta=-1.33D-03
 NORM(A)=   0.10846207D+01
 Iteration Nr.   5
 **********************
 DD1Dir will call FoFMem   1 times, MxPair=        42
 NAB=    21 NAA=     0 NBB=     0.
 DE(Corr)= -0.36589214     E(CORR)=     -436.92348162     Delta=-1.98D-04
 NORM(A)=   0.10849821D+01
 Iteration Nr.   6
 **********************
 DD1Dir will call FoFMem   1 times, MxPair=        42
 NAB=    21 NAA=     0 NBB=     0.
 DE(Corr)= -0.36592416     E(CORR)=     -436.92351364     Delta=-3.20D-05
 NORM(A)=   0.10849969D+01
 Iteration Nr.   7
 **********************
 DD1Dir will call FoFMem   1 times, MxPair=        42
 NAB=    21 NAA=     0 NBB=     0.
 DE(Corr)= -0.36592555     E(CORR)=     -436.92351504     Delta=-1.40D-06
 NORM(A)=   0.10850084D+01
 Iteration Nr.   8
 **********************
 DD1Dir will call FoFMem   1 times, MxPair=        42
 NAB=    21 NAA=     0 NBB=     0.
 DE(Corr)= -0.36592259     E(CORR)=     -436.92351208     Delta= 2.96D-06
 NORM(A)=   0.10850075D+01
 Iteration Nr.   9
 **********************
 DD1Dir will call FoFMem   1 times, MxPair=        42
 NAB=    21 NAA=     0 NBB=     0.
 DE(Corr)= -0.36592504     E(CORR)=     -436.92351453     Delta=-2.45D-06
 NORM(A)=   0.10850088D+01
 Iteration Nr.  10
 **********************
 DD1Dir will call FoFMem   1 times, MxPair=        42
 NAB=    21 NAA=     0 NBB=     0.
 DE(Corr)= -0.36592472     E(CORR)=     -436.92351421     Delta= 3.20D-07
 NORM(A)=   0.10850096D+01
 Iteration Nr.  11
 **********************
 DD1Dir will call FoFMem   1 times, MxPair=        42
 NAB=    21 NAA=     0 NBB=     0.
 DE(Corr)= -0.36592525     E(CORR)=     -436.92351473     Delta=-5.24D-07
 NORM(A)=   0.10850101D+01
 Iteration Nr.  12
 **********************
 DD1Dir will call FoFMem   1 times, MxPair=        42
 NAB=    21 NAA=     0 NBB=     0.
 DE(Corr)= -0.36592535     E(CORR)=     -436.92351484     Delta=-1.08D-07
 NORM(A)=   0.10850105D+01
 Iteration Nr.  13
 **********************
 DD1Dir will call FoFMem   1 times, MxPair=        42
 NAB=    21 NAA=     0 NBB=     0.
 DE(Corr)= -0.36592545     E(CORR)=     -436.92351493     Delta=-9.00D-08
 NORM(A)=   0.10850107D+01
 Iteration Nr.  14
 **********************
 DD1Dir will call FoFMem   1 times, MxPair=        42
 NAB=    21 NAA=     0 NBB=     0.
 DE(Corr)= -0.36592547     E(CORR)=     -436.92351496     Delta=-2.93D-08
 NORM(A)=   0.10850107D+01
 Iteration Nr.  15
 **********************
 DD1Dir will call FoFMem   1 times, MxPair=        42
 NAB=    21 NAA=     0 NBB=     0.
 DE(Corr)= -0.36592548     E(CORR)=     -436.92351497     Delta=-9.00D-09
 NORM(A)=   0.10850107D+01
 Iteration Nr.  16
 **********************
 DD1Dir will call FoFMem   1 times, MxPair=        42
 NAB=    21 NAA=     0 NBB=     0.
 DE(Corr)= -0.36592548     E(CORR)=     -436.92351497     Delta=-1.55D-09
 NORM(A)=   0.10850108D+01
 Dominant configurations:
 ***********************
 Spin Case        I    J    A    B          Value
   ABAB          11   11   14   14      -0.114474D+00
 Largest amplitude= 1.14D-01

 Z-AMPLITUDE ITERATIONS

 Iteration Nr.   1
 **********************
 DD1Dir will call FoFMem   1 times, MxPair=        42
 NAB=    21 NAA=     0 NBB=     0.
 DE(Z)  -0.34990904D+00          E(Z)=    -0.43690749852D+03
 NORM(A)=   0.10850041D+01
 Iteration Nr.   2
 **********************
 DD1Dir will call FoFMem   1 times, MxPair=        42
 NAB=    21 NAA=     0 NBB=     0.
 DE(Z)  -0.34990874D+00          E(Z)=    -0.43690749822D+03
 NORM(A)=   0.10850213D+01
 Iteration Nr.   3
 **********************
 DD1Dir will call FoFMem   1 times, MxPair=        42
 NAB=    21 NAA=     0 NBB=     0.
 DE(Z)  -0.34990953D+00          E(Z)=    -0.43690749901D+03
 NORM(A)=   0.10850760D+01
 Iteration Nr.   4
 **********************
 DD1Dir will call FoFMem   1 times, MxPair=        42
 NAB=    21 NAA=     0 NBB=     0.
 DE(Z)  -0.34991207D+00          E(Z)=    -0.43690750155D+03
 NORM(A)=   0.10849121D+01
 Iteration Nr.   5
 **********************
 DD1Dir will call FoFMem   1 times, MxPair=        42
 NAB=    21 NAA=     0 NBB=     0.
 DE(Z)  -0.34990436D+00          E(Z)=    -0.43690749384D+03
 NORM(A)=   0.10767946D+01
 Iteration Nr.   6
 **********************
 DD1Dir will call FoFMem   1 times, MxPair=        42
 NAB=    21 NAA=     0 NBB=     0.
 DE(Z)  -0.34950873D+00          E(Z)=    -0.43690709822D+03
 NORM(A)=   0.10767900D+01
 Iteration Nr.   7
 **********************
 DD1Dir will call FoFMem   1 times, MxPair=        42
 NAB=    21 NAA=     0 NBB=     0.
 DE(Z)  -0.34950758D+00          E(Z)=    -0.43690709707D+03
 NORM(A)=   0.10767890D+01
 Iteration Nr.   8
 **********************
 DD1Dir will call FoFMem   1 times, MxPair=        42
 NAB=    21 NAA=     0 NBB=     0.
 DE(Z)  -0.34950775D+00          E(Z)=    -0.43690709723D+03
 NORM(A)=   0.10767891D+01
 Iteration Nr.   9
 **********************
 DD1Dir will call FoFMem   1 times, MxPair=        42
 NAB=    21 NAA=     0 NBB=     0.
 DE(Z)  -0.34950765D+00          E(Z)=    -0.43690709713D+03
 NORM(A)=   0.10767891D+01
 Iteration Nr.  10
 **********************
 DD1Dir will call FoFMem   1 times, MxPair=        42
 NAB=    21 NAA=     0 NBB=     0.
 DE(Z)  -0.34950766D+00          E(Z)=    -0.43690709715D+03
 NORM(A)=   0.10767891D+01
 Iteration Nr.  11
 **********************
 DD1Dir will call FoFMem   1 times, MxPair=        42
 NAB=    21 NAA=     0 NBB=     0.
 DE(Z)  -0.34950767D+00          E(Z)=    -0.43690709715D+03
 NORM(A)=   0.10767891D+01
 Iteration Nr.  12
 **********************
 DD1Dir will call FoFMem   1 times, MxPair=        42
 NAB=    21 NAA=     0 NBB=     0.
 DE(Z)  -0.34950766D+00          E(Z)=    -0.43690709715D+03
 NORM(A)=   0.10767891D+01
 Discarding MO integrals.
          IDoAtm=1111
          Differentiating once with respect to electric field.
                with respect to dipole field.
          Differentiating once with respect to nuclear coordinates.
          Keep R1 ints in memory in canonical form, NReq=93478224.
          There are     1 degrees of freedom in the 1st order CPHF.  IDoFFX=0.
 LinEq1:  Iter=  0 NonCon=     1 RMS=2.95D-03 Max=4.36D-02
 AX will form     1 AO Fock derivatives at one time.
 LinEq1:  Iter=  1 NonCon=     1 RMS=9.86D-04 Max=1.21D-02
 LinEq1:  Iter=  2 NonCon=     1 RMS=4.76D-04 Max=1.32D-02
 LinEq1:  Iter=  3 NonCon=     1 RMS=1.60D-04 Max=2.47D-03
 LinEq1:  Iter=  4 NonCon=     1 RMS=3.99D-05 Max=5.26D-04
 LinEq1:  Iter=  5 NonCon=     1 RMS=8.74D-06 Max=9.99D-05
 LinEq1:  Iter=  6 NonCon=     1 RMS=1.55D-06 Max=2.20D-05
 LinEq1:  Iter=  7 NonCon=     1 RMS=2.01D-07 Max=2.70D-06
 LinEq1:  Iter=  8 NonCon=     1 RMS=2.32D-08 Max=2.27D-07
 LinEq1:  Iter=  9 NonCon=     1 RMS=3.70D-09 Max=3.77D-08
 LinEq1:  Iter= 10 NonCon=     1 RMS=5.17D-10 Max=5.81D-09
 LinEq1:  Iter= 11 NonCon=     0 RMS=6.33D-11 Max=6.37D-10
 Linear equations converged to 1.000D-10 1.000D-09 after    11 iterations.
 End of Minotr Frequency-dependent properties file   721 does not exist.
 End of Minotr Frequency-dependent properties file   722 does not exist.

 **********************************************************************

            Population analysis using the QCI/CC density.

 **********************************************************************

 Alpha  occ. eigenvalues --  -91.95647 -11.32122  -8.95855  -6.63916  -6.63890
 Alpha  occ. eigenvalues --   -6.63692  -1.06423  -0.81467  -0.64496  -0.54133
 Alpha  occ. eigenvalues --   -0.41771  -0.35260
 Alpha virt. eigenvalues --    0.02840   0.03497   0.04269   0.06130   0.09229
 Alpha virt. eigenvalues --    0.10419   0.11645   0.13132   0.13507   0.14771
 Alpha virt. eigenvalues --    0.19859   0.21666   0.23070   0.24351   0.27036
 Alpha virt. eigenvalues --    0.29043   0.30910   0.31754   0.32523   0.34392
 Alpha virt. eigenvalues --    0.37582   0.38361   0.38569   0.40186   0.41300
 Alpha virt. eigenvalues --    0.43221   0.44721   0.45159   0.47146   0.48716
 Alpha virt. eigenvalues --    0.56391   0.62026   0.65216   0.66051   0.67764
 Alpha virt. eigenvalues --    0.74938   0.75470   0.76848   0.78918   0.80724
 Alpha virt. eigenvalues --    0.83297   0.84783   0.85063   0.87303   0.87809
 Alpha virt. eigenvalues --    0.89455   0.89810   0.96022   0.97169   0.97225
 Alpha virt. eigenvalues --    0.99516   0.99991   1.02048   1.08624   1.10738
 Alpha virt. eigenvalues --    1.10894   1.12566   1.13450   1.14021   1.16688
 Alpha virt. eigenvalues --    1.24545   1.30177   1.34170   1.42633   1.49899
 Alpha virt. eigenvalues --    1.52799   1.54992   1.58336   1.58494   1.58906
 Alpha virt. eigenvalues --    1.61730   1.65198   1.80263   1.87894   1.88927
 Alpha virt. eigenvalues --    2.02032   2.02627   2.02849   2.05460   2.08985
 Alpha virt. eigenvalues --    2.09775   2.13350   2.17745   2.34492   2.35664
 Alpha virt. eigenvalues --    2.39342   2.40526   2.42304   2.47508   2.50456
 Alpha virt. eigenvalues --    2.57235   2.69112   2.71722   2.89266   3.00848
 Alpha virt. eigenvalues --    3.04234   3.12180   3.19045   3.23512   3.46719
 Alpha virt. eigenvalues --    3.57845   3.59568   3.64407   3.67253   3.69179
 Alpha virt. eigenvalues --    3.80146   3.83580   3.85300   3.90274   3.92816
 Alpha virt. eigenvalues --    4.05399   4.10353   4.25217   4.40581   4.41840
 Alpha virt. eigenvalues --    4.45044   4.68684   4.73614   4.74355   5.07309
 Alpha virt. eigenvalues --    5.12434   5.24714   5.25079   5.29683   5.51136
 Alpha virt. eigenvalues --    5.84235   5.94637   6.48117   6.60370  15.23696
          Condensed to atoms (all electrons):
              1          2          3          4
     1  C    6.185074   0.274399   0.183312   0.183312
     2  S    0.274399  16.028303  -0.118612  -0.118612
     3  H    0.183312  -0.118612   0.649835  -0.160324
     4  H    0.183312  -0.118612  -0.160324   0.649835
 Mulliken atomic charges:
              1
     1  C   -0.826097
     2  S   -0.065479
     3  H    0.445788
     4  H    0.445788
 Sum of Mulliken atomic charges =   0.00000
 Mulliken charges with hydrogens summed into heavy atoms:
              1
     1  C    0.065479
     2  S   -0.065479
 Sum of Mulliken charges with hydrogens summed into heavy atoms =   0.00000
 Electronic spatial extent (au):  <R**2>=            130.2857
 Charge=              0.0000 electrons
 Dipole moment (field-independent basis, Debye):
    X=              0.0000    Y=              0.0000    Z=             -1.7524  Tot=              1.7524
 Quadrupole moment (field-independent basis, Debye-Ang):
   XX=            -19.9779   YY=            -20.5753   ZZ=            -18.9724
   XY=              0.0000   XZ=              0.0000   YZ=              0.0000
 Traceless Quadrupole moment (field-independent basis, Debye-Ang):
   XX=             -0.1361   YY=             -0.7334   ZZ=              0.8695
   XY=              0.0000   XZ=              0.0000   YZ=              0.0000
 Octapole moment (field-independent basis, Debye-Ang**2):
  XXX=              0.0000  YYY=              0.0000  ZZZ=            -27.6810  XYY=              0.0000
  XXY=              0.0000  XXZ=             -8.5633  XZZ=              0.0000  YZZ=              0.0000
  YYZ=            -13.1333  XYZ=              0.0000
 Hexadecapole moment (field-independent basis, Debye-Ang**3):
 XXXX=            -25.3174 YYYY=            -35.1166 ZZZZ=           -127.3605 XXXY=              0.0000
 XXXZ=              0.0000 YYYX=              0.0000 YYYZ=              0.0000 ZZZX=              0.0000
 ZZZY=              0.0000 XXYY=            -10.5016 XXZZ=            -25.3322 YYZZ=            -29.5532
 XXYZ=              0.0000 YYXZ=              0.0000 ZZXY=              0.0000
 N-N= 4.470398203135D+01 E-N=-1.127363544195D+03  KE= 4.368673946295D+02
 Use density number 7.
 DipInt: DoE/N= T T RetVal/Mat= T F Init=T NMatP=  1 IDeriv=0 Min/MaxMlt=  1  1
 Entering OneElI...
 Multipole integrals L=1 to 1 MinM= 0 MaxM= 0.
 Requested accuracy = 0.1000D-12
 PrsmSu:  NPrtUS=   1 ThrOK=F IAlg=1 NPAlg=1 LenDen=           0.
 Prism:   IPart=     0 DynPar=F LinDyn=F Incr=          11.
 PRISM was handed  1073551374 working-precision words and  1176 shell-pairs
 IPart=  0 NShTot=        1176 NBatch=          71 AvBLen=        16.6
 PrSmSu:  NxtVal=             12.
 Entering OneElI...
 Calculate overlap and kinetic energy integrals
    NBasis = 164  MinDer = 1  MaxDer = 1
 Requested accuracy = 0.1000D-12
 PrsmSu:  NPrtUS=   8 ThrOK=T IAlg=1 NPAlg=1 LenDen=           0.
 Prism:   IPart=     0 DynPar=F LinDyn=F Incr=           1.
 PRISM was handed   134155923 working-precision words and  1176 shell-pairs
 PRISM was handed   134155923 working-precision words and  1176 shell-pairs
 PRISM was handed   134155923 working-precision words and  1176 shell-pairs
 PRISM was handed   134155923 working-precision words and  1176 shell-pairs
 PRISM was handed   134155923 working-precision words and  1176 shell-pairs
 PRISM was handed   134155923 working-precision words and  1176 shell-pairs
 PRISM was handed   134155923 working-precision words and  1176 shell-pairs
 PRISM was handed   134155923 working-precision words and  1176 shell-pairs
 IPart=  0 NShTot=         187 NBatch=          71 AvBLen=         2.6
 IPart=  6 NShTot=         128 NBatch=          34 AvBLen=         3.8
 IPart=  7 NShTot=         127 NBatch=          34 AvBLen=         3.7
 IPart=  3 NShTot=         150 NBatch=          41 AvBLen=         3.7
 IPart=  4 NShTot=         133 NBatch=          34 AvBLen=         3.9
 IPart=  5 NShTot=         132 NBatch=          34 AvBLen=         3.9
 IPart=  2 NShTot=         151 NBatch=          42 AvBLen=         3.6
 IPart=  1 NShTot=         168 NBatch=          52 AvBLen=         3.2
 PrSmSu:  NxtVal=              9.
 Entering OneElI...
 Calculate potential energy integrals
    NBasis = 164  MinDer = 1  MaxDer = 1
 Requested accuracy = 0.1000D-12
 PrsmSu:  NPrtUS=   8 ThrOK=T IAlg=1 NPAlg=1 LenDen=           0.
 Prism:   IPart=     0 DynPar=F LinDyn=F Incr=           5.
 PRISM was handed   134161225 working-precision words and  1176 shell-pairs
 PRISM was handed   134161225 working-precision words and  1176 shell-pairs
 PRISM was handed   134161225 working-precision words and  1176 shell-pairs
 PRISM was handed   134161225 working-precision words and  1176 shell-pairs
 PRISM was handed   134161225 working-precision words and  1176 shell-pairs
 PRISM was handed   134161225 working-precision words and  1176 shell-pairs
 PRISM was handed   134161225 working-precision words and  1176 shell-pairs
 PRISM was handed   134161225 working-precision words and  1176 shell-pairs
 IPart=  7 NShTot=         508 NBatch=         127 AvBLen=         4.0
 IPart=  6 NShTot=         512 NBatch=         128 AvBLen=         4.0
 IPart=  3 NShTot=         588 NBatch=         147 AvBLen=         4.0
 IPart=  0 NShTot=         744 NBatch=         186 AvBLen=         4.0
 IPart=  5 NShTot=         544 NBatch=         136 AvBLen=         4.0
 IPart=  4 NShTot=         544 NBatch=         136 AvBLen=         4.0
 IPart=  2 NShTot=         604 NBatch=         151 AvBLen=         4.0
 IPart=  1 NShTot=         660 NBatch=         165 AvBLen=         4.0
 PrSmSu:  NxtVal=             41.
 l701 out
 I=    0 X=   0.000000000000D+00 Y=   0.000000000000D+00 Z=  -6.894485390353D-01
 I=    1 X=   0.000000000000D+00 Y=   0.000000000000D+00 Z=  -1.077459311429D+01
 I=    2 X=   0.000000000000D+00 Y=   0.000000000000D+00 Z=   1.392362390616D+01
 I=    3 X=   0.000000000000D+00 Y=  -3.114611703941D+00 Z=  -1.574515396045D+00
 I=    4 X=   0.000000000000D+00 Y=   3.114611703818D+00 Z=  -1.574515395830D+00
 ICntrl=      2127.
 Calling FoFJK, ICntrl=      2127 FMM=F ISym2X=0 I1Cent= 0 IOpClX= 0 NMat=1 NMatS=1 NMatT=0.
 FoFJK:  IHMeth= 1 ICntrl=  2127 DoSepK=F KAlg= 1 I1Cent= 0 FoldK=F
 FoFCou: FMM=F IPFlag=           0 FMFlag=      100000 FMFlg1=         800
         NFxFlg=           0 DoJE=F BraDBF=F KetDBF=F FulRan=T
         Omega=  0.000000  0.000000  1.000000  0.000000  0.000000 ICntrl=    2127 IOpCl=  0
         NMat0=    1 NMatS0=    1 NMatT0=    0 NMatD0=    1 NMtDS0=    0 NMtDT0=    0
         I1Cent=           0 NGrid=           0.
 Symmetry not used in FoFCou.
 FoFCou:  KetSym=F NOpSet=  1 NOpAb=1 NOp=  1.
 FoFCou:  CnvScl= 1.00D+00 Thresh= 1.00D-10
 PrismS was handed  1073591504 working-precision words and  1176 shell-pairs
 FoFCou: LinMIO=F DoNuc=F BraDBF=F KetDBF=F HaveP=T PDBF=F HaveZ=T HaveW=F
         NIJTC =      10 NIJTAt=       0 NIJTCD=       0 NIJTT =      10
         IJTBeg=       1 IJTEnd=      10 KLTBeg=       1 KLTEnd=      10
         IPTBeg=       1 IPTEnd=      10 IPTBCv=       1 IPTECv=      10
         IZTBeg=       1 IZTEnd=      10 IZTBCv=       1 IZTECv=      10
         IWTBeg=      11 IWTEnd=      10 IWTBCv=      11 IWTECv=      10
         INTBeg=       1 INTEnd=       0 IFTBCv=       1 IFTECv=      10
 NCel replicated for PrismC:     1
 CoulSu:  IncDef=  1024 NBBP=         692076 NTPThr=   100 NPartT=    8 Incr=         865 LDynOK=F.
 CoulSu:  NPrtUS=   8 ThrOK=T IAlg=1 NPAlg=1 LenDen=           0.
 Enter PrismC: JobTyp=21 DoJE=F Cont=F.
 PrismC:  IPart=     0 DynPar=T LinDyn=F Incr=         865 UseFst=F UseS4=T.
 PrismC was handed   134165245 working-precision words and  1176 shell-pairs
 Enter PrismC: JobTyp=21 DoJE=F Cont=F.
 PrismC was handed   134165245 working-precision words and  1176 shell-pairs
 Enter PrismC: JobTyp=21 DoJE=F Cont=F.
 PrismC was handed   134165245 working-precision words and  1176 shell-pairs
 Enter PrismC: JobTyp=21 DoJE=F Cont=F.
 PrismC was handed   134165245 working-precision words and  1176 shell-pairs
 Enter PrismC: JobTyp=21 DoJE=F Cont=F.
 PrismC was handed   134165245 working-precision words and  1176 shell-pairs
 Enter PrismC: JobTyp=21 DoJE=F Cont=F.
 Enter PrismC: JobTyp=21 DoJE=F Cont=F.
 PrismC was handed   134165245 working-precision words and  1176 shell-pairs
 PrismC was handed   134165245 working-precision words and  1176 shell-pairs
 Enter PrismC: JobTyp=21 DoJE=F Cont=F.
 PrismC was handed   134165245 working-precision words and  1176 shell-pairs
 IPart=  3 NShTot=       88804 NShNF=       88804 NShFF=           0 NBatch=         494 AvBLen=       179.8
 IPart=  7 NShTot=       75182 NShNF=       75182 NShFF=           0 NBatch=         472 AvBLen=       159.3
 IPart=  2 NShTot=      100673 NShNF=      100673 NShFF=           0 NBatch=         390 AvBLen=       258.1
 IPart=  0 NShTot=       82004 NShNF=       82004 NShFF=           0 NBatch=         483 AvBLen=       169.8
 IPart=  4 NShTot=       73638 NShNF=       73638 NShFF=           0 NBatch=         429 AvBLen=       171.7
 IPart=  1 NShTot=      101043 NShNF=      101043 NShFF=           0 NBatch=         448 AvBLen=       225.5
 IPart=  6 NShTot=       79112 NShNF=       79112 NShFF=           0 NBatch=         459 AvBLen=       172.4
 IPart=  5 NShTot=       82626 NShNF=       82626 NShFF=           0 NBatch=         479 AvBLen=       172.5
 CoulSu:  NxtVal=         736981.
 Forces at end of L703
 I=    0 X=   0.000000000000D+00 Y=   0.000000000000D+00 Z=  -6.894485390353D-01
 I=    1 X=   0.000000000000D+00 Y=   0.000000000000D+00 Z=   1.029138391786D-04
 I=    2 X=   0.000000000000D+00 Y=   0.000000000000D+00 Z=  -2.272624639410D-05
 I=    3 X=   0.000000000000D+00 Y=  -1.936529349233D-05 Z=  -4.009379396597D-05
 I=    4 X=   0.000000000000D+00 Y=   1.936530595037D-05 Z=  -4.009379900083D-05
 FrcOut:
 IF    =    56 IFX   =    68 IFXYZ =    80
 IFFX  =    92 IFFFX =    92 IFLen =    12
 IFFLen=     0 IFFFLn=     0 IEDerv=    92
 LEDerv=   629 IFroze=   725 ICStrt= 41390
 DipInt: DoE/N= T T RetVal/Mat= T F Init=T NMatP=  1 IDeriv=0 Min/MaxMlt=  1  1
 Entering OneElI...
 Multipole integrals L=1 to 1 MinM= 0 MaxM= 0.
 Requested accuracy = 0.1000D-12
 PrsmSu:  NPrtUS=   1 ThrOK=F IAlg=1 NPAlg=1 LenDen=           0.
 Prism:   IPart=     0 DynPar=F LinDyn=F Incr=          11.
 PRISM was handed  1073577656 working-precision words and  1176 shell-pairs
 IPart=  0 NShTot=        1176 NBatch=          71 AvBLen=        16.6
 PrSmSu:  NxtVal=             12.
 Computed dipole moment (without fudge factor):
 X= 0.1521268762971D-14   Y=-0.3286260152890D-13   Z=-0.6894485390353D+00
 Quadrupole    =-1.01160318D-01-5.45282556D-01 6.46442875D-01
                 2.19583062D-13-9.90683900D-15-4.65293899D-13
 -------------------------------------------------------------------
 Center     Atomic                   Forces (Hartrees/Bohr)
 Number     Number              X              Y              Z
 -------------------------------------------------------------------
      1        6           0.000000000    0.000000000   -0.000102914
      2       16           0.000000000    0.000000000    0.000022726
      3        1           0.000000000    0.000019365    0.000040094
      4        1           0.000000000   -0.000019365    0.000040094
 -------------------------------------------------------------------
 Cartesian Forces:  Max     0.000102914 RMS     0.000035441
 Z-matrix is all fixed cartesians, so copy forces.
 Final forces over variables, Energy=-4.36923515D+02:
  1.23522814D-13 1.06472849D-13-1.52504427D-11 1.50204470D-11
  1.36514476D-11-1.21895712D-12 1.93652935D-05-1.93653060D-05
 -1.02913839D-04 2.27262464D-05 4.00937940D-05 4.00937990D-05
 NDeriv=  12 NFrqRd=  0 LFDDif=       1
 NDeriv=  12 NFrqRd=  0 LFDDif=       1
 At 1st pt Frequency-dependent properties file   721 does not exist.
 D2Numr ... symmetry will not be used.
 Standard basis: Aug-CC-pVTZ (5D, 7F)
 Integral buffers will be    131072 words long.
 Raffenetti 1 integral format.
 Two-electron integral symmetry is turned off.
   142 basis functions,   240 primitive gaussians,   164 cartesian basis functions
    12 alpha electrons       12 beta electrons
       nuclear repulsion energy        44.7039735308 Hartrees.
 NAtoms=    4 NActive=    4 NUniq=    4 SFac= 1.00D+00 NAtFMM=   50 NAOKFM=F Big=F
 One-electron integrals computed using PRISM.
 NBasis=   142 RedAO= T  NBF=   142
 NBsUse=   142 1.00D-06 NBFU=   142
 Initial guess read from the read-write file.
 B after Tr=     0.000000    0.000000    0.000000
         Rot=    1.000000    0.000000    0.000000    0.000000 Ang=   0.00 deg.
 Requested convergence on RMS density matrix=1.00D-08 within 128 cycles.
 Requested convergence on MAX density matrix=1.00D-06.
 Requested convergence on             energy=1.00D-06.
 No special actions if energy rises.
 Keep R1 ints in memory in canonical form, NReq=93884347.
 SCF Done:  E(RHF) =  -436.557589217     A.U. after    7 cycles
             Convg  =    0.4831D-08             -V/T =  2.0003
 ExpMin= 2.53D-02 ExpMax= 3.74D+05 ExpMxC= 1.18D+03 IAcc=3 IRadAn=         5 AccDes= 0.00D+00
 HarFok:  IExCor=  205 AccDes= 0.00D+00 IRadAn=         5 IDoV=-2
 ScaDFX=  1.000000  1.000000  1.000000  1.000000
 Range of M.O.s used for correlation:     7   142
 NBasis=   142 NAE=    12 NBE=    12 NFC=     6 NFV=     0
 NROrb=    136 NOA=     6 NOB=     6 NVA=   130 NVB=   130

 **** Warning!!: The largest alpha MO coefficient is  0.44442967D+02

 Semi-Direct transformation.
 ModeAB=           2 MOrb=             6 LenV=    1073081967
 LASXX=      7286295 LTotXX=     7286295 LenRXX=     7286295
 LTotAB=     7445736 MaxLAS=    11040480 LenRXY=    11040480
 NonZer=    14572590 LenScr=    22628352 LnRSAI=           0
 LnScr1=           0 LExtra=           0 Total=     40955127
 MaxDsk=          -1 SrtSym=           F ITran=            4
 JobTyp=0 Pass  1:  I=   1 to   6.
 (rs|ai) integrals will be sorted in core.
 Spin components of T(2) and E(2):
     alpha-alpha T2 =       0.1683991782D-01 E2=     -0.3867676430D-01
     alpha-beta  T2 =       0.1052163222D+00 E2=     -0.2635159152D+00
     beta-beta   T2 =       0.1683991782D-01 E2=     -0.3867676430D-01
 ANorm=    0.1067190779D+01
 E2 =    -0.3408694438D+00 EUMP2 =    -0.43689845866092D+03
 R2 and R3 integrals will be kept in memory, NReq=   185320410.
 Iterations=  50 Convergence= 0.100D-07
 Iteration Nr.   1
 **********************
 DD1Dir will call FoFMem   1 times, MxPair=        42
 NAB=    21 NAA=     0 NBB=     0.
 MP4(R+Q)=  0.11663124D-01
 E3=       -0.22812263D-01        EUMP3=      -0.43692127092D+03
 E4(DQ)=    0.16434304D-02        UMP4(DQ)=   -0.43691962749D+03
 E4(SDQ)=  -0.18391650D-02        UMP4(SDQ)=  -0.43692311009D+03
 DE(Corr)= -0.35201858     E(Corr)=     -436.90960780    
 NORM(A)=   0.10738364D+01
 Iteration Nr.   2
 **********************
 DD1Dir will call FoFMem   1 times, MxPair=        42
 NAB=    21 NAA=     0 NBB=     0.
 DE(Corr)= -0.36343969     E(CORR)=     -436.92102890     Delta=-1.14D-02
 NORM(A)=   0.10812037D+01
 Iteration Nr.   3
 **********************
 DD1Dir will call FoFMem   1 times, MxPair=        42
 NAB=    21 NAA=     0 NBB=     0.
 DE(Corr)= -0.36436673     E(CORR)=     -436.92195595     Delta=-9.27D-04
 NORM(A)=   0.10836298D+01
 Iteration Nr.   4
 **********************
 DD1Dir will call FoFMem   1 times, MxPair=        42
 NAB=    21 NAA=     0 NBB=     0.
 DE(Corr)= -0.36569469     E(CORR)=     -436.92328390     Delta=-1.33D-03
 NORM(A)=   0.10846207D+01
 Iteration Nr.   5
 **********************
 DD1Dir will call FoFMem   1 times, MxPair=        42
 NAB=    21 NAA=     0 NBB=     0.
 DE(Corr)= -0.36589220     E(CORR)=     -436.92348142     Delta=-1.98D-04
 NORM(A)=   0.10849822D+01
 Iteration Nr.   6
 **********************
 DD1Dir will call FoFMem   1 times, MxPair=        42
 NAB=    21 NAA=     0 NBB=     0.
 DE(Corr)= -0.36592422     E(CORR)=     -436.92351344     Delta=-3.20D-05
 NORM(A)=   0.10849969D+01
 Iteration Nr.   7
 **********************
 DD1Dir will call FoFMem   1 times, MxPair=        42
 NAB=    21 NAA=     0 NBB=     0.
 DE(Corr)= -0.36592562     E(CORR)=     -436.92351483     Delta=-1.40D-06
 NORM(A)=   0.10850085D+01
 Iteration Nr.   8
 **********************
 DD1Dir will call FoFMem   1 times, MxPair=        42
 NAB=    21 NAA=     0 NBB=     0.
 DE(Corr)= -0.36592266     E(CORR)=     -436.92351188     Delta= 2.96D-06
 NORM(A)=   0.10850076D+01
 Iteration Nr.   9
 **********************
 DD1Dir will call FoFMem   1 times, MxPair=        42
 NAB=    21 NAA=     0 NBB=     0.
 DE(Corr)= -0.36592511     E(CORR)=     -436.92351433     Delta=-2.45D-06
 NORM(A)=   0.10850088D+01
 Iteration Nr.  10
 **********************
 DD1Dir will call FoFMem   1 times, MxPair=        42
 NAB=    21 NAA=     0 NBB=     0.
 DE(Corr)= -0.36592479     E(CORR)=     -436.92351401     Delta= 3.20D-07
 NORM(A)=   0.10850096D+01
 Iteration Nr.  11
 **********************
 DD1Dir will call FoFMem   1 times, MxPair=        42
 NAB=    21 NAA=     0 NBB=     0.
 DE(Corr)= -0.36592531     E(CORR)=     -436.92351453     Delta=-5.24D-07
 NORM(A)=   0.10850101D+01
 Iteration Nr.  12
 **********************
 DD1Dir will call FoFMem   1 times, MxPair=        42
 NAB=    21 NAA=     0 NBB=     0.
 DE(Corr)= -0.36592542     E(CORR)=     -436.92351464     Delta=-1.08D-07
 NORM(A)=   0.10850106D+01
 Iteration Nr.  13
 **********************
 DD1Dir will call FoFMem   1 times, MxPair=        42
 NAB=    21 NAA=     0 NBB=     0.
 DE(Corr)= -0.36592551     E(CORR)=     -436.92351473     Delta=-9.00D-08
 NORM(A)=   0.10850107D+01
 Iteration Nr.  14
 **********************
 DD1Dir will call FoFMem   1 times, MxPair=        42
 NAB=    21 NAA=     0 NBB=     0.
 DE(Corr)= -0.36592554     E(CORR)=     -436.92351476     Delta=-2.93D-08
 NORM(A)=   0.10850108D+01
 Iteration Nr.  15
 **********************
 DD1Dir will call FoFMem   1 times, MxPair=        42
 NAB=    21 NAA=     0 NBB=     0.
 DE(Corr)= -0.36592555     E(CORR)=     -436.92351477     Delta=-8.99D-09
 NORM(A)=   0.10850108D+01
 Iteration Nr.  16
 **********************
 DD1Dir will call FoFMem   1 times, MxPair=        42
 NAB=    21 NAA=     0 NBB=     0.
 DE(Corr)= -0.36592555     E(CORR)=     -436.92351477     Delta=-1.53D-09
 NORM(A)=   0.10850108D+01
 Dominant configurations:
 ***********************
 Spin Case        I    J    A    B          Value
   ABAB          11   11   14   14      -0.114474D+00
 Largest amplitude= 1.14D-01

 Z-AMPLITUDE ITERATIONS

 Iteration Nr.   1
 **********************
 DD1Dir will call FoFMem   1 times, MxPair=        42
 NAB=    21 NAA=     0 NBB=     0.
 DE(Z)  -0.34990909D+00          E(Z)=    -0.43690749830D+03
 NORM(A)=   0.10850012D+01
 Iteration Nr.   2
 **********************
 DD1Dir will call FoFMem   1 times, MxPair=        42
 NAB=    21 NAA=     0 NBB=     0.
 DE(Z)  -0.34990865D+00          E(Z)=    -0.43690749787D+03
 NORM(A)=   0.10850325D+01
 Iteration Nr.   3
 **********************
 DD1Dir will call FoFMem   1 times, MxPair=        42
 NAB=    21 NAA=     0 NBB=     0.
 DE(Z)  -0.34991009D+00          E(Z)=    -0.43690749931D+03
 NORM(A)=   0.10849926D+01
 Iteration Nr.   4
 **********************
 DD1Dir will call FoFMem   1 times, MxPair=        42
 NAB=    21 NAA=     0 NBB=     0.
 DE(Z)  -0.34990824D+00          E(Z)=    -0.43690749746D+03
 NORM(A)=   0.10850504D+01
 Iteration Nr.   5
 **********************
 DD1Dir will call FoFMem   1 times, MxPair=        42
 NAB=    21 NAA=     0 NBB=     0.
 DE(Z)  -0.34991096D+00          E(Z)=    -0.43690750018D+03
 NORM(A)=   0.10767959D+01
 Iteration Nr.   6
 **********************
 DD1Dir will call FoFMem   1 times, MxPair=        42
 NAB=    21 NAA=     0 NBB=     0.
 DE(Z)  -0.34950884D+00          E(Z)=    -0.43690709806D+03
 NORM(A)=   0.10767900D+01
 Iteration Nr.   7
 **********************
 DD1Dir will call FoFMem   1 times, MxPair=        42
 NAB=    21 NAA=     0 NBB=     0.
 DE(Z)  -0.34950754D+00          E(Z)=    -0.43690709675D+03
 NORM(A)=   0.10767892D+01
 Iteration Nr.   8
 **********************
 DD1Dir will call FoFMem   1 times, MxPair=        42
 NAB=    21 NAA=     0 NBB=     0.
 DE(Z)  -0.34950786D+00          E(Z)=    -0.43690709707D+03
 NORM(A)=   0.10767891D+01
 Iteration Nr.   9
 **********************
 DD1Dir will call FoFMem   1 times, MxPair=        42
 NAB=    21 NAA=     0 NBB=     0.
 DE(Z)  -0.34950768D+00          E(Z)=    -0.43690709690D+03
 NORM(A)=   0.10767892D+01
 Iteration Nr.  10
 **********************
 DD1Dir will call FoFMem   1 times, MxPair=        42
 NAB=    21 NAA=     0 NBB=     0.
 DE(Z)  -0.34950772D+00          E(Z)=    -0.43690709694D+03
 NORM(A)=   0.10767892D+01
 Iteration Nr.  11
 **********************
 DD1Dir will call FoFMem   1 times, MxPair=        42
 NAB=    21 NAA=     0 NBB=     0.
 DE(Z)  -0.34950771D+00          E(Z)=    -0.43690709693D+03
 NORM(A)=   0.10767892D+01
 Iteration Nr.  12
 **********************
 DD1Dir will call FoFMem   1 times, MxPair=        42
 NAB=    21 NAA=     0 NBB=     0.
 DE(Z)  -0.34950771D+00          E(Z)=    -0.43690709693D+03
 NORM(A)=   0.10767892D+01
 Discarding MO integrals.
          IDoAtm=1111
          Differentiating once with respect to electric field.
                with respect to dipole field.
          Differentiating once with respect to nuclear coordinates.
          Keep R1 ints in memory in canonical form, NReq=93478224.
          There are     1 degrees of freedom in the 1st order CPHF.  IDoFFX=0.
 LinEq1:  Iter=  0 NonCon=     1 RMS=2.95D-03 Max=4.36D-02
 AX will form     1 AO Fock derivatives at one time.
 LinEq1:  Iter=  1 NonCon=     1 RMS=9.86D-04 Max=1.21D-02
 LinEq1:  Iter=  2 NonCon=     1 RMS=4.76D-04 Max=1.32D-02
 LinEq1:  Iter=  3 NonCon=     1 RMS=1.60D-04 Max=2.47D-03
 LinEq1:  Iter=  4 NonCon=     1 RMS=3.99D-05 Max=5.26D-04
 LinEq1:  Iter=  5 NonCon=     1 RMS=8.74D-06 Max=9.99D-05
 LinEq1:  Iter=  6 NonCon=     1 RMS=1.55D-06 Max=2.20D-05
 LinEq1:  Iter=  7 NonCon=     1 RMS=2.01D-07 Max=2.70D-06
 LinEq1:  Iter=  8 NonCon=     1 RMS=2.32D-08 Max=2.27D-07
 LinEq1:  Iter=  9 NonCon=     1 RMS=3.70D-09 Max=3.77D-08
 LinEq1:  Iter= 10 NonCon=     1 RMS=5.20D-10 Max=5.81D-09
 LinEq1:  Iter= 11 NonCon=     0 RMS=6.70D-11 Max=6.91D-10
 Linear equations converged to 1.000D-10 1.000D-09 after    11 iterations.
 End of Minotr Frequency-dependent properties file   721 does not exist.
 End of Minotr Frequency-dependent properties file   722 does not exist.

 **********************************************************************

            Population analysis using the QCI/CC density.

 **********************************************************************

 Alpha  occ. eigenvalues --  -91.95647 -11.32122  -8.95855  -6.63916  -6.63890
 Alpha  occ. eigenvalues --   -6.63692  -1.06423  -0.81467  -0.64496  -0.54133
 Alpha  occ. eigenvalues --   -0.41771  -0.35260
 Alpha virt. eigenvalues --    0.02840   0.03497   0.04269   0.06130   0.09229
 Alpha virt. eigenvalues --    0.10419   0.11645   0.13132   0.13507   0.14771
 Alpha virt. eigenvalues --    0.19859   0.21666   0.23070   0.24351   0.27036
 Alpha virt. eigenvalues --    0.29043   0.30910   0.31754   0.32523   0.34392
 Alpha virt. eigenvalues --    0.37582   0.38361   0.38570   0.40186   0.41300
 Alpha virt. eigenvalues --    0.43221   0.44721   0.45159   0.47146   0.48716
 Alpha virt. eigenvalues --    0.56391   0.62026   0.65216   0.66051   0.67764
 Alpha virt. eigenvalues --    0.74938   0.75470   0.76848   0.78918   0.80724
 Alpha virt. eigenvalues --    0.83297   0.84783   0.85064   0.87303   0.87809
 Alpha virt. eigenvalues --    0.89455   0.89810   0.96021   0.97169   0.97225
 Alpha virt. eigenvalues --    0.99516   0.99991   1.02048   1.08624   1.10738
 Alpha virt. eigenvalues --    1.10894   1.12566   1.13450   1.14021   1.16688
 Alpha virt. eigenvalues --    1.24544   1.30177   1.34170   1.42633   1.49899
 Alpha virt. eigenvalues --    1.52799   1.54992   1.58336   1.58494   1.58906
 Alpha virt. eigenvalues --    1.61730   1.65197   1.80262   1.87891   1.88930
 Alpha virt. eigenvalues --    2.02032   2.02627   2.02849   2.05459   2.08985
 Alpha virt. eigenvalues --    2.09775   2.13350   2.17744   2.34491   2.35664
 Alpha virt. eigenvalues --    2.39342   2.40526   2.42304   2.47508   2.50456
 Alpha virt. eigenvalues --    2.57235   2.69112   2.71722   2.89265   3.00848
 Alpha virt. eigenvalues --    3.04234   3.12180   3.19045   3.23512   3.46719
 Alpha virt. eigenvalues --    3.57845   3.59568   3.64407   3.67254   3.69179
 Alpha virt. eigenvalues --    3.80146   3.83579   3.85300   3.90273   3.92816
 Alpha virt. eigenvalues --    4.05399   4.10354   4.25217   4.40581   4.41839
 Alpha virt. eigenvalues --    4.45045   4.68684   4.73614   4.74356   5.07309
 Alpha virt. eigenvalues --    5.12434   5.24714   5.25079   5.29683   5.51136
 Alpha virt. eigenvalues --    5.84234   5.94637   6.48117   6.60369  15.23695
          Condensed to atoms (all electrons):
              1          2          3          4
     1  C    6.185070   0.274398   0.183313   0.183313
     2  S    0.274398  16.028303  -0.118611  -0.118611
     3  H    0.183313  -0.118611   0.649833  -0.160322
     4  H    0.183313  -0.118611  -0.160322   0.649833
 Mulliken atomic charges:
              1
     1  C   -0.826095
     2  S   -0.065478
     3  H    0.445787
     4  H    0.445787
 Sum of Mulliken atomic charges =   0.00000
 Mulliken charges with hydrogens summed into heavy atoms:
              1
     1  C    0.065478
     2  S   -0.065478
 Sum of Mulliken charges with hydrogens summed into heavy atoms =   0.00000
 Electronic spatial extent (au):  <R**2>=            130.2858
 Charge=              0.0000 electrons
 Dipole moment (field-independent basis, Debye):
    X=             -0.0008    Y=              0.0000    Z=             -1.7524  Tot=              1.7524
 Quadrupole moment (field-independent basis, Debye-Ang):
   XX=            -19.9779   YY=            -20.5753   ZZ=            -18.9724
   XY=              0.0000   XZ=             -0.0005   YZ=              0.0000
 Traceless Quadrupole moment (field-independent basis, Debye-Ang):
   XX=             -0.1361   YY=             -0.7334   ZZ=              0.8695
   XY=              0.0000   XZ=             -0.0005   YZ=              0.0000
 Octapole moment (field-independent basis, Debye-Ang**2):
  XXX=             -0.0187  YYY=              0.0000  ZZZ=            -27.6810  XYY=             -0.0068
  XXY=              0.0000  XXZ=             -8.5633  XZZ=             -0.0086  YZZ=              0.0000
  YYZ=            -13.1333  XYZ=              0.0000
 Hexadecapole moment (field-independent basis, Debye-Ang**3):
 XXXX=            -25.3174 YYYY=            -35.1167 ZZZZ=           -127.3606 XXXY=              0.0000
 XXXZ=              0.0069 YYYX=              0.0000 YYYZ=              0.0000 ZZZX=              0.0071
 ZZZY=              0.0000 XXYY=            -10.5016 XXZZ=            -25.3322 YYZZ=            -29.5532
 XXYZ=              0.0000 YYXZ=              0.0041 ZZXY=              0.0000
 N-N= 4.470397353083D+01 E-N=-1.127363525569D+03  KE= 4.368673930075D+02
 Use density number 7.
 DipInt: DoE/N= T T RetVal/Mat= T F Init=T NMatP=  1 IDeriv=0 Min/MaxMlt=  1  1
 Entering OneElI...
 Multipole integrals L=1 to 1 MinM= 0 MaxM= 0.
 Requested accuracy = 0.1000D-12
 PrsmSu:  NPrtUS=   1 ThrOK=F IAlg=1 NPAlg=1 LenDen=           0.
 Prism:   IPart=     0 DynPar=F LinDyn=F Incr=          11.
 PRISM was handed  1073551374 working-precision words and  1176 shell-pairs
 IPart=  0 NShTot=        1176 NBatch=          71 AvBLen=        16.6
 PrSmSu:  NxtVal=             12.
 Entering OneElI...
 Calculate overlap and kinetic energy integrals
    NBasis = 164  MinDer = 1  MaxDer = 1
 Requested accuracy = 0.1000D-12
 PrsmSu:  NPrtUS=   8 ThrOK=T IAlg=1 NPAlg=1 LenDen=           0.
 Prism:   IPart=     0 DynPar=F LinDyn=F Incr=           1.
 PRISM was handed   134155923 working-precision words and  1176 shell-pairs
 PRISM was handed   134155923 working-precision words and  1176 shell-pairs
 PRISM was handed   134155923 working-precision words and  1176 shell-pairs
 PRISM was handed   134155923 working-precision words and  1176 shell-pairs
 PRISM was handed   134155923 working-precision words and  1176 shell-pairs
 PRISM was handed   134155923 working-precision words and  1176 shell-pairs
 PRISM was handed   134155923 working-precision words and  1176 shell-pairs
 PRISM was handed   134155923 working-precision words and  1176 shell-pairs
 IPart=  0 NShTot=         187 NBatch=          71 AvBLen=         2.6
 IPart=  2 NShTot=         151 NBatch=          42 AvBLen=         3.6
 IPart=  5 NShTot=         132 NBatch=          34 AvBLen=         3.9
 IPart=  7 NShTot=         127 NBatch=          34 AvBLen=         3.7
 IPart=  4 NShTot=         133 NBatch=          34 AvBLen=         3.9
 IPart=  6 NShTot=         128 NBatch=          34 AvBLen=         3.8
 IPart=  3 NShTot=         150 NBatch=          41 AvBLen=         3.7
 IPart=  1 NShTot=         168 NBatch=          52 AvBLen=         3.2
 PrSmSu:  NxtVal=              9.
 Entering OneElI...
 Calculate potential energy integrals
    NBasis = 164  MinDer = 1  MaxDer = 1
 Requested accuracy = 0.1000D-12
 PrsmSu:  NPrtUS=   8 ThrOK=T IAlg=1 NPAlg=1 LenDen=           0.
 Prism:   IPart=     0 DynPar=F LinDyn=F Incr=           5.
 PRISM was handed   134161225 working-precision words and  1176 shell-pairs
 PRISM was handed   134161225 working-precision words and  1176 shell-pairs
 PRISM was handed   134161225 working-precision words and  1176 shell-pairs
 PRISM was handed   134161225 working-precision words and  1176 shell-pairs
 PRISM was handed   134161225 working-precision words and  1176 shell-pairs
 PRISM was handed   134161225 working-precision words and  1176 shell-pairs
 PRISM was handed   134161225 working-precision words and  1176 shell-pairs
 PRISM was handed   134161225 working-precision words and  1176 shell-pairs
 IPart=  0 NShTot=         744 NBatch=         186 AvBLen=         4.0
 IPart=  2 NShTot=         604 NBatch=         151 AvBLen=         4.0
 IPart=  5 NShTot=         544 NBatch=         136 AvBLen=         4.0
 IPart=  7 NShTot=         508 NBatch=         127 AvBLen=         4.0
 IPart=  6 NShTot=         512 NBatch=         128 AvBLen=         4.0
 IPart=  4 NShTot=         544 NBatch=         136 AvBLen=         4.0
 IPart=  3 NShTot=         588 NBatch=         147 AvBLen=         4.0
 IPart=  1 NShTot=         660 NBatch=         165 AvBLen=         4.0
 PrSmSu:  NxtVal=             41.
 l701 out
 I=    0 X=  -3.230826493808D-04 Y=   0.000000000000D+00 Z=  -6.894484966367D-01
 I=    1 X=   1.493979594357D-02 Y=   0.000000000000D+00 Z=  -1.077457669616D+01
 I=    2 X=  -7.398179156952D-03 Y=   0.000000000000D+00 Z=   1.392361663264D+01
 I=    3 X=  -3.770808393304D-03 Y=  -3.114612073837D+00 Z=  -1.574519968175D+00
 I=    4 X=  -3.770808393312D-03 Y=   3.114612074447D+00 Z=  -1.574519968305D+00
 ICntrl=      2127.
 Calling FoFJK, ICntrl=      2127 FMM=F ISym2X=0 I1Cent= 0 IOpClX= 0 NMat=1 NMatS=1 NMatT=0.
 FoFJK:  IHMeth= 1 ICntrl=  2127 DoSepK=F KAlg= 1 I1Cent= 0 FoldK=F
 FoFCou: FMM=F IPFlag=           0 FMFlag=      100000 FMFlg1=         800
         NFxFlg=           0 DoJE=F BraDBF=F KetDBF=F FulRan=T
         Omega=  0.000000  0.000000  1.000000  0.000000  0.000000 ICntrl=    2127 IOpCl=  0
         NMat0=    1 NMatS0=    1 NMatT0=    0 NMatD0=    1 NMtDS0=    0 NMtDT0=    0
         I1Cent=           0 NGrid=           0.
 Symmetry not used in FoFCou.
 FoFCou:  KetSym=F NOpSet=  1 NOpAb=1 NOp=  1.
 FoFCou:  CnvScl= 1.00D+00 Thresh= 1.00D-10
 PrismS was handed  1073591504 working-precision words and  1176 shell-pairs
 FoFCou: LinMIO=F DoNuc=F BraDBF=F KetDBF=F HaveP=T PDBF=F HaveZ=T HaveW=F
         NIJTC =      10 NIJTAt=       0 NIJTCD=       0 NIJTT =      10
         IJTBeg=       1 IJTEnd=      10 KLTBeg=       1 KLTEnd=      10
         IPTBeg=       1 IPTEnd=      10 IPTBCv=       1 IPTECv=      10
         IZTBeg=       1 IZTEnd=      10 IZTBCv=       1 IZTECv=      10
         IWTBeg=      11 IWTEnd=      10 IWTBCv=      11 IWTECv=      10
         INTBeg=       1 INTEnd=       0 IFTBCv=       1 IFTECv=      10
 NCel replicated for PrismC:     1
 CoulSu:  IncDef=  1024 NBBP=         692076 NTPThr=   100 NPartT=    8 Incr=         865 LDynOK=F.
 CoulSu:  NPrtUS=   8 ThrOK=T IAlg=1 NPAlg=1 LenDen=           0.
 Enter PrismC: JobTyp=21 DoJE=F Cont=F.
 PrismC:  IPart=     0 DynPar=T LinDyn=F Incr=         865 UseFst=F UseS4=T.
 PrismC was handed   134165245 working-precision words and  1176 shell-pairs
 Enter PrismC: JobTyp=21 DoJE=F Cont=F.
 PrismC was handed   134165245 working-precision words and  1176 shell-pairs
 Enter PrismC: JobTyp=21 DoJE=F Cont=F.
 PrismC was handed   134165245 working-precision words and  1176 shell-pairs
 Enter PrismC: JobTyp=21 DoJE=F Cont=F.
 PrismC was handed   134165245 working-precision words and  1176 shell-pairs
 Enter PrismC: JobTyp=21 DoJE=F Cont=F.
 Enter PrismC: JobTyp=21 DoJE=F Cont=F.
 Enter PrismC: JobTyp=21 DoJE=F Cont=F.
 PrismC was handed   134165245 working-precision words and  1176 shell-pairs
 Enter PrismC: JobTyp=21 DoJE=F Cont=F.
 PrismC was handed   134165245 working-precision words and  1176 shell-pairs
 PrismC was handed   134165245 working-precision words and  1176 shell-pairs
 PrismC was handed   134165245 working-precision words and  1176 shell-pairs
 IPart=  2 NShTot=       78273 NShNF=       78273 NShFF=           0 NBatch=         454 AvBLen=       172.4
 IPart=  6 NShTot=       75896 NShNF=       75896 NShFF=           0 NBatch=         483 AvBLen=       157.1
 IPart=  0 NShTot=       94997 NShNF=       94997 NShFF=           0 NBatch=         548 AvBLen=       173.4
 IPart=  4 NShTot=       83489 NShNF=       83489 NShFF=           0 NBatch=         445 AvBLen=       187.6
 IPart=  1 NShTot=       93536 NShNF=       93536 NShFF=           0 NBatch=         408 AvBLen=       229.3
 IPart=  5 NShTot=       94140 NShNF=       94140 NShFF=           0 NBatch=         510 AvBLen=       184.6
 IPart=  3 NShTot=       91061 NShNF=       91061 NShFF=           0 NBatch=         401 AvBLen=       227.1
 IPart=  7 NShTot=       71690 NShNF=       71690 NShFF=           0 NBatch=         410 AvBLen=       174.9
 CoulSu:  NxtVal=         736981.
 Forces at end of L703
 I=    0 X=  -3.230826493808D-04 Y=   0.000000000000D+00 Z=  -6.894484966367D-01
 I=    1 X=   2.087308128328D-04 Y=   0.000000000000D+00 Z=   1.030803269337D-04
 I=    2 X=  -5.462225924226D-05 Y=   0.000000000000D+00 Z=  -2.259370137025D-05
 I=    3 X=  -7.705427677524D-05 Y=  -1.955161002032D-05 Z=  -4.024331123231D-05
 I=    4 X=  -7.705427681515D-05 Y=   1.955160750233D-05 Z=  -4.024331431518D-05
 FrcOut:
 IF    =    56 IFX   =    68 IFXYZ =    80
 IFFX  =    92 IFFFX =    92 IFLen =    12
 IFFLen=     0 IFFFLn=     0 IEDerv=    92
 LEDerv=   629 IFroze=   725 ICStrt= 41390
 DipInt: DoE/N= T T RetVal/Mat= T F Init=T NMatP=  1 IDeriv=0 Min/MaxMlt=  1  1
 Entering OneElI...
 Multipole integrals L=1 to 1 MinM= 0 MaxM= 0.
 Requested accuracy = 0.1000D-12
 PrsmSu:  NPrtUS=   1 ThrOK=F IAlg=1 NPAlg=1 LenDen=           0.
 Prism:   IPart=     0 DynPar=F LinDyn=F Incr=          11.
 PRISM was handed  1073577656 working-precision words and  1176 shell-pairs
 IPart=  0 NShTot=        1176 NBatch=          71 AvBLen=        16.6
 PrSmSu:  NxtVal=             12.
 Computed dipole moment (without fudge factor):
 X=-0.3230826493808D-03   Y=-0.1165734175856D-12   Z=-0.6894484966367D+00
 Quadrupole    =-1.01157681D-01-5.45282990D-01 6.46440672D-01
                -2.11146478D-15-3.76008626D-04 6.42477689D-13
 -------------------------------------------------------------------
 Center     Atomic                   Forces (Hartrees/Bohr)
 Number     Number              X              Y              Z
 -------------------------------------------------------------------
      1        6          -0.000208731    0.000000000   -0.000103080
      2       16           0.000054622    0.000000000    0.000022594
      3        1           0.000077054    0.000019552    0.000040243
      4        1           0.000077054   -0.000019552    0.000040243
 -------------------------------------------------------------------
 Cartesian Forces:  Max     0.000208731 RMS     0.000078298
 Final forces over variables, Energy=-4.36923515D+02:
  1.23522814D-13 1.06472849D-13-1.52504427D-11 1.50204470D-11
  1.36514476D-11-1.21895712D-12 1.93652935D-05-1.93653060D-05
 -1.02913839D-04 2.27262464D-05 4.00937940D-05 4.00937990D-05
 NDeriv=  12 NFrqRd=  0 LFDDif=       1
 NDeriv=  12 NFrqRd=  0 LFDDif=       1
 Re-enter D2Numr: IAtom=  1 IXYZ=1 IStep= 1.
 Standard basis: Aug-CC-pVTZ (5D, 7F)
 Integral buffers will be    131072 words long.
 Raffenetti 1 integral format.
 Two-electron integral symmetry is turned off.
   142 basis functions,   240 primitive gaussians,   164 cartesian basis functions
    12 alpha electrons       12 beta electrons
       nuclear repulsion energy        44.7039735308 Hartrees.
 NAtoms=    4 NActive=    4 NUniq=    4 SFac= 1.00D+00 NAtFMM=   50 NAOKFM=F Big=F
 One-electron integrals computed using PRISM.
 NBasis=   142 RedAO= T  NBF=   142
 NBsUse=   142 1.00D-06 NBFU=   142
 Initial guess read from the read-write file.
 B after Tr=     0.000000    0.000000    0.000000
         Rot=    1.000000    0.000000    0.000000    0.000000 Ang=   0.00 deg.
 Requested convergence on RMS density matrix=1.00D-08 within 128 cycles.
 Requested convergence on MAX density matrix=1.00D-06.
 Requested convergence on             energy=1.00D-06.
 No special actions if energy rises.
 Keep R1 ints in memory in canonical form, NReq=93884347.
 SCF Done:  E(RHF) =  -436.557589217     A.U. after    8 cycles
             Convg  =    0.1264D-08             -V/T =  2.0003
 ExpMin= 2.53D-02 ExpMax= 3.74D+05 ExpMxC= 1.18D+03 IAcc=3 IRadAn=         5 AccDes= 0.00D+00
 HarFok:  IExCor=  205 AccDes= 0.00D+00 IRadAn=         5 IDoV=-2
 ScaDFX=  1.000000  1.000000  1.000000  1.000000
 Range of M.O.s used for correlation:     7   142
 NBasis=   142 NAE=    12 NBE=    12 NFC=     6 NFV=     0
 NROrb=    136 NOA=     6 NOB=     6 NVA=   130 NVB=   130

 **** Warning!!: The largest alpha MO coefficient is  0.44442966D+02

 Semi-Direct transformation.
 ModeAB=           2 MOrb=             6 LenV=    1073081967
 LASXX=      7286295 LTotXX=     7286295 LenRXX=     7286295
 LTotAB=     7445736 MaxLAS=    11040480 LenRXY=    11040480
 NonZer=    14572590 LenScr=    22628352 LnRSAI=           0
 LnScr1=           0 LExtra=           0 Total=     40955127
 MaxDsk=          -1 SrtSym=           F ITran=            4
 JobTyp=0 Pass  1:  I=   1 to   6.
 (rs|ai) integrals will be sorted in core.
 Spin components of T(2) and E(2):
     alpha-alpha T2 =       0.1683991801D-01 E2=     -0.3867676491D-01
     alpha-beta  T2 =       0.1052163243D+00 E2=     -0.2635159186D+00
     beta-beta   T2 =       0.1683991801D-01 E2=     -0.3867676491D-01
 ANorm=    0.1067190780D+01
 E2 =    -0.3408694484D+00 EUMP2 =    -0.43689845866548D+03
 R2 and R3 integrals will be kept in memory, NReq=   185320410.
 Iterations=  50 Convergence= 0.100D-07
 Iteration Nr.   1
 **********************
 DD1Dir will call FoFMem   1 times, MxPair=        42
 NAB=    21 NAA=     0 NBB=     0.
 MP4(R+Q)=  0.11663124D-01
 E3=       -0.22812262D-01        EUMP3=      -0.43692127093D+03
 E4(DQ)=    0.16434303D-02        UMP4(DQ)=   -0.43691962750D+03
 E4(SDQ)=  -0.18391654D-02        UMP4(SDQ)=  -0.43692311009D+03
 DE(Corr)= -0.35201859     E(Corr)=     -436.90960780    
 NORM(A)=   0.10738364D+01
 Iteration Nr.   2
 **********************
 DD1Dir will call FoFMem   1 times, MxPair=        42
 NAB=    21 NAA=     0 NBB=     0.
 DE(Corr)= -0.36343969     E(CORR)=     -436.92102891     Delta=-1.14D-02
 NORM(A)=   0.10812037D+01
 Iteration Nr.   3
 **********************
 DD1Dir will call FoFMem   1 times, MxPair=        42
 NAB=    21 NAA=     0 NBB=     0.
 DE(Corr)= -0.36436673     E(CORR)=     -436.92195595     Delta=-9.27D-04
 NORM(A)=   0.10836298D+01
 Iteration Nr.   4
 **********************
 DD1Dir will call FoFMem   1 times, MxPair=        42
 NAB=    21 NAA=     0 NBB=     0.
 DE(Corr)= -0.36569469     E(CORR)=     -436.92328391     Delta=-1.33D-03
 NORM(A)=   0.10846207D+01
 Iteration Nr.   5
 **********************
 DD1Dir will call FoFMem   1 times, MxPair=        42
 NAB=    21 NAA=     0 NBB=     0.
 DE(Corr)= -0.36589221     E(CORR)=     -436.92348143     Delta=-1.98D-04
 NORM(A)=   0.10849822D+01
 Iteration Nr.   6
 **********************
 DD1Dir will call FoFMem   1 times, MxPair=        42
 NAB=    21 NAA=     0 NBB=     0.
 DE(Corr)= -0.36592423     E(CORR)=     -436.92351344     Delta=-3.20D-05
 NORM(A)=   0.10849969D+01
 Iteration Nr.   7
 **********************
 DD1Dir will call FoFMem   1 times, MxPair=        42
 NAB=    21 NAA=     0 NBB=     0.
 DE(Corr)= -0.36592562     E(CORR)=     -436.92351484     Delta=-1.40D-06
 NORM(A)=   0.10850085D+01
 Iteration Nr.   8
 **********************
 DD1Dir will call FoFMem   1 times, MxPair=        42
 NAB=    21 NAA=     0 NBB=     0.
 DE(Corr)= -0.36592266     E(CORR)=     -436.92351188     Delta= 2.96D-06
 NORM(A)=   0.10850076D+01
 Iteration Nr.   9
 **********************
 DD1Dir will call FoFMem   1 times, MxPair=        42
 NAB=    21 NAA=     0 NBB=     0.
 DE(Corr)= -0.36592511     E(CORR)=     -436.92351433     Delta=-2.45D-06
 NORM(A)=   0.10850088D+01
 Iteration Nr.  10
 **********************
 DD1Dir will call FoFMem   1 times, MxPair=        42
 NAB=    21 NAA=     0 NBB=     0.
 DE(Corr)= -0.36592479     E(CORR)=     -436.92351401     Delta= 3.20D-07
 NORM(A)=   0.10850096D+01
 Iteration Nr.  11
 **********************
 DD1Dir will call FoFMem   1 times, MxPair=        42
 NAB=    21 NAA=     0 NBB=     0.
 DE(Corr)= -0.36592532     E(CORR)=     -436.92351453     Delta=-5.24D-07
 NORM(A)=   0.10850101D+01
 Iteration Nr.  12
 **********************
 DD1Dir will call FoFMem   1 times, MxPair=        42
 NAB=    21 NAA=     0 NBB=     0.
 DE(Corr)= -0.36592543     E(CORR)=     -436.92351464     Delta=-1.08D-07
 NORM(A)=   0.10850106D+01
 Iteration Nr.  13
 **********************
 DD1Dir will call FoFMem   1 times, MxPair=        42
 NAB=    21 NAA=     0 NBB=     0.
 DE(Corr)= -0.36592552     E(CORR)=     -436.92351473     Delta=-9.00D-08
 NORM(A)=   0.10850107D+01
 Iteration Nr.  14
 **********************
 DD1Dir will call FoFMem   1 times, MxPair=        42
 NAB=    21 NAA=     0 NBB=     0.
 DE(Corr)= -0.36592554     E(CORR)=     -436.92351476     Delta=-2.93D-08
 NORM(A)=   0.10850108D+01
 Iteration Nr.  15
 **********************
 DD1Dir will call FoFMem   1 times, MxPair=        42
 NAB=    21 NAA=     0 NBB=     0.
 DE(Corr)= -0.36592555     E(CORR)=     -436.92351477     Delta=-9.02D-09
 NORM(A)=   0.10850108D+01
 Iteration Nr.  16
 **********************
 DD1Dir will call FoFMem   1 times, MxPair=        42
 NAB=    21 NAA=     0 NBB=     0.
 DE(Corr)= -0.36592556     E(CORR)=     -436.92351477     Delta=-1.50D-09
 NORM(A)=   0.10850108D+01
 Dominant configurations:
 ***********************
 Spin Case        I    J    A    B          Value
   ABAB          11   11   14   14      -0.114474D+00
 Largest amplitude= 1.14D-01

 Z-AMPLITUDE ITERATIONS

 Iteration Nr.   1
 **********************
 DD1Dir will call FoFMem   1 times, MxPair=        42
 NAB=    21 NAA=     0 NBB=     0.
 DE(Z)  -0.34990909D+00          E(Z)=    -0.43690749831D+03
 NORM(A)=   0.10849972D+01
 Iteration Nr.   2
 **********************
 DD1Dir will call FoFMem   1 times, MxPair=        42
 NAB=    21 NAA=     0 NBB=     0.
 DE(Z)  -0.34990848D+00          E(Z)=    -0.43690749769D+03
 NORM(A)=   0.10850431D+01
 Iteration Nr.   3
 **********************
 DD1Dir will call FoFMem   1 times, MxPair=        42
 NAB=    21 NAA=     0 NBB=     0.
 DE(Z)  -0.34991059D+00          E(Z)=    -0.43690749981D+03
 NORM(A)=   0.10849905D+01
 Iteration Nr.   4
 **********************
 DD1Dir will call FoFMem   1 times, MxPair=        42
 NAB=    21 NAA=     0 NBB=     0.
 DE(Z)  -0.34990814D+00          E(Z)=    -0.43690749736D+03
 NORM(A)=   0.10848778D+01
 Iteration Nr.   5
 **********************
 DD1Dir will call FoFMem   1 times, MxPair=        42
 NAB=    21 NAA=     0 NBB=     0.
 DE(Z)  -0.34990278D+00          E(Z)=    -0.43690749200D+03
 NORM(A)=   0.10767956D+01
 Iteration Nr.   6
 **********************
 DD1Dir will call FoFMem   1 times, MxPair=        42
 NAB=    21 NAA=     0 NBB=     0.
 DE(Z)  -0.34950891D+00          E(Z)=    -0.43690709813D+03
 NORM(A)=   0.10767912D+01
 Iteration Nr.   7
 **********************
 DD1Dir will call FoFMem   1 times, MxPair=        42
 NAB=    21 NAA=     0 NBB=     0.
 DE(Z)  -0.34950762D+00          E(Z)=    -0.43690709684D+03
 NORM(A)=   0.10767891D+01
 Iteration Nr.   8
 **********************
 DD1Dir will call FoFMem   1 times, MxPair=        42
 NAB=    21 NAA=     0 NBB=     0.
 DE(Z)  -0.34950777D+00          E(Z)=    -0.43690709699D+03
 NORM(A)=   0.10767891D+01
 Iteration Nr.   9
 **********************
 DD1Dir will call FoFMem   1 times, MxPair=        42
 NAB=    21 NAA=     0 NBB=     0.
 DE(Z)  -0.34950770D+00          E(Z)=    -0.43690709691D+03
 NORM(A)=   0.10767892D+01
 Iteration Nr.  10
 **********************
 DD1Dir will call FoFMem   1 times, MxPair=        42
 NAB=    21 NAA=     0 NBB=     0.
 DE(Z)  -0.34950772D+00          E(Z)=    -0.43690709694D+03
 NORM(A)=   0.10767892D+01
 Iteration Nr.  11
 **********************
 DD1Dir will call FoFMem   1 times, MxPair=        42
 NAB=    21 NAA=     0 NBB=     0.
 DE(Z)  -0.34950772D+00          E(Z)=    -0.43690709694D+03
 NORM(A)=   0.10767892D+01
 Iteration Nr.  12
 **********************
 DD1Dir will call FoFMem   1 times, MxPair=        42
 NAB=    21 NAA=     0 NBB=     0.
 DE(Z)  -0.34950772D+00          E(Z)=    -0.43690709693D+03
 NORM(A)=   0.10767892D+01
 Discarding MO integrals.
          IDoAtm=1111
          Differentiating once with respect to electric field.
                with respect to dipole field.
          Differentiating once with respect to nuclear coordinates.
          Keep R1 ints in memory in canonical form, NReq=93478224.
          There are     1 degrees of freedom in the 1st order CPHF.  IDoFFX=0.
 LinEq1:  Iter=  0 NonCon=     1 RMS=2.95D-03 Max=4.36D-02
 AX will form     1 AO Fock derivatives at one time.
 LinEq1:  Iter=  1 NonCon=     1 RMS=9.86D-04 Max=1.21D-02
 LinEq1:  Iter=  2 NonCon=     1 RMS=4.76D-04 Max=1.32D-02
 LinEq1:  Iter=  3 NonCon=     1 RMS=1.60D-04 Max=2.47D-03
 LinEq1:  Iter=  4 NonCon=     1 RMS=3.99D-05 Max=5.26D-04
 LinEq1:  Iter=  5 NonCon=     1 RMS=8.74D-06 Max=9.99D-05
 LinEq1:  Iter=  6 NonCon=     1 RMS=1.55D-06 Max=2.20D-05
 LinEq1:  Iter=  7 NonCon=     1 RMS=2.01D-07 Max=2.70D-06
 LinEq1:  Iter=  8 NonCon=     1 RMS=2.32D-08 Max=2.27D-07
 LinEq1:  Iter=  9 NonCon=     1 RMS=3.70D-09 Max=3.77D-08
 LinEq1:  Iter= 10 NonCon=     1 RMS=5.20D-10 Max=5.81D-09
 LinEq1:  Iter= 11 NonCon=     0 RMS=6.70D-11 Max=6.91D-10
 Linear equations converged to 1.000D-10 1.000D-09 after    11 iterations.
 End of Minotr Frequency-dependent properties file   721 does not exist.
 End of Minotr Frequency-dependent properties file   722 does not exist.

 **********************************************************************

            Population analysis using the QCI/CC density.

 **********************************************************************

 Alpha  occ. eigenvalues --  -91.95647 -11.32122  -8.95855  -6.63916  -6.63890
 Alpha  occ. eigenvalues --   -6.63692  -1.06423  -0.81467  -0.64496  -0.54133
 Alpha  occ. eigenvalues --   -0.41771  -0.35260
 Alpha virt. eigenvalues --    0.02840   0.03497   0.04269   0.06130   0.09229
 Alpha virt. eigenvalues --    0.10419   0.11645   0.13132   0.13507   0.14771
 Alpha virt. eigenvalues --    0.19859   0.21666   0.23070   0.24351   0.27036
 Alpha virt. eigenvalues --    0.29043   0.30910   0.31754   0.32523   0.34392
 Alpha virt. eigenvalues --    0.37582   0.38361   0.38570   0.40186   0.41300
 Alpha virt. eigenvalues --    0.43221   0.44721   0.45159   0.47146   0.48716
 Alpha virt. eigenvalues --    0.56391   0.62026   0.65216   0.66051   0.67764
 Alpha virt. eigenvalues --    0.74938   0.75470   0.76848   0.78918   0.80724
 Alpha virt. eigenvalues --    0.83297   0.84783   0.85064   0.87303   0.87809
 Alpha virt. eigenvalues --    0.89455   0.89810   0.96021   0.97169   0.97225
 Alpha virt. eigenvalues --    0.99516   0.99991   1.02048   1.08624   1.10738
 Alpha virt. eigenvalues --    1.10894   1.12566   1.13450   1.14021   1.16688
 Alpha virt. eigenvalues --    1.24544   1.30177   1.34170   1.42633   1.49899
 Alpha virt. eigenvalues --    1.52799   1.54992   1.58336   1.58494   1.58906
 Alpha virt. eigenvalues --    1.61730   1.65197   1.80262   1.87891   1.88930
 Alpha virt. eigenvalues --    2.02032   2.02627   2.02849   2.05459   2.08985
 Alpha virt. eigenvalues --    2.09775   2.13350   2.17744   2.34491   2.35664
 Alpha virt. eigenvalues --    2.39342   2.40526   2.42304   2.47508   2.50456
 Alpha virt. eigenvalues --    2.57235   2.69112   2.71722   2.89265   3.00848
 Alpha virt. eigenvalues --    3.04234   3.12180   3.19045   3.23512   3.46719
 Alpha virt. eigenvalues --    3.57845   3.59568   3.64407   3.67254   3.69179
 Alpha virt. eigenvalues --    3.80146   3.83579   3.85300   3.90273   3.92816
 Alpha virt. eigenvalues --    4.05398   4.10354   4.25217   4.40581   4.41839
 Alpha virt. eigenvalues --    4.45045   4.68684   4.73614   4.74356   5.07309
 Alpha virt. eigenvalues --    5.12434   5.24714   5.25079   5.29683   5.51136
 Alpha virt. eigenvalues --    5.84234   5.94637   6.48117   6.60369  15.23695
          Condensed to atoms (all electrons):
              1          2          3          4
     1  C    6.185071   0.274398   0.183313   0.183313
     2  S    0.274398  16.028302  -0.118611  -0.118611
     3  H    0.183313  -0.118611   0.649833  -0.160322
     4  H    0.183313  -0.118611  -0.160322   0.649833
 Mulliken atomic charges:
              1
     1  C   -0.826095
     2  S   -0.065478
     3  H    0.445787
     4  H    0.445787
 Sum of Mulliken atomic charges =   0.00000
 Mulliken charges with hydrogens summed into heavy atoms:
              1
     1  C    0.065478
     2  S   -0.065478
 Sum of Mulliken charges with hydrogens summed into heavy atoms =   0.00000
 Electronic spatial extent (au):  <R**2>=            130.2858
 Charge=              0.0000 electrons
 Dipole moment (field-independent basis, Debye):
    X=              0.0008    Y=              0.0000    Z=             -1.7524  Tot=              1.7524
 Quadrupole moment (field-independent basis, Debye-Ang):
   XX=            -19.9779   YY=            -20.5753   ZZ=            -18.9724
   XY=              0.0000   XZ=              0.0005   YZ=              0.0000
 Traceless Quadrupole moment (field-independent basis, Debye-Ang):
   XX=             -0.1361   YY=             -0.7334   ZZ=              0.8695
   XY=              0.0000   XZ=              0.0005   YZ=              0.0000
 Octapole moment (field-independent basis, Debye-Ang**2):
  XXX=              0.0187  YYY=              0.0000  ZZZ=            -27.6810  XYY=              0.0068
  XXY=              0.0000  XXZ=             -8.5633  XZZ=              0.0086  YZZ=              0.0000
  YYZ=            -13.1333  XYZ=              0.0000
 Hexadecapole moment (field-independent basis, Debye-Ang**3):
 XXXX=            -25.3174 YYYY=            -35.1167 ZZZZ=           -127.3606 XXXY=              0.0000
 XXXZ=             -0.0069 YYYX=              0.0000 YYYZ=              0.0000 ZZZX=             -0.0071
 ZZZY=              0.0000 XXYY=            -10.5016 XXZZ=            -25.3322 YYZZ=            -29.5532
 XXYZ=              0.0000 YYXZ=             -0.0041 ZZXY=              0.0000
 N-N= 4.470397353083D+01 E-N=-1.127363525325D+03  KE= 4.368673928990D+02
 Use density number 7.
 DipInt: DoE/N= T T RetVal/Mat= T F Init=T NMatP=  1 IDeriv=0 Min/MaxMlt=  1  1
 Entering OneElI...
 Multipole integrals L=1 to 1 MinM= 0 MaxM= 0.
 Requested accuracy = 0.1000D-12
 PrsmSu:  NPrtUS=   1 ThrOK=F IAlg=1 NPAlg=1 LenDen=           0.
 Prism:   IPart=     0 DynPar=F LinDyn=F Incr=          11.
 PRISM was handed  1073551374 working-precision words and  1176 shell-pairs
 IPart=  0 NShTot=        1176 NBatch=          71 AvBLen=        16.6
 PrSmSu:  NxtVal=             12.
 Entering OneElI...
 Calculate overlap and kinetic energy integrals
    NBasis = 164  MinDer = 1  MaxDer = 1
 Requested accuracy = 0.1000D-12
 PrsmSu:  NPrtUS=   8 ThrOK=T IAlg=1 NPAlg=1 LenDen=           0.
 Prism:   IPart=     0 DynPar=F LinDyn=F Incr=           1.
 PRISM was handed   134155923 working-precision words and  1176 shell-pairs
 PRISM was handed   134155923 working-precision words and  1176 shell-pairs
 PRISM was handed   134155923 working-precision words and  1176 shell-pairs
 PRISM was handed   134155923 working-precision words and  1176 shell-pairs
 PRISM was handed   134155923 working-precision words and  1176 shell-pairs
 PRISM was handed   134155923 working-precision words and  1176 shell-pairs
 PRISM was handed   134155923 working-precision words and  1176 shell-pairs
 PRISM was handed   134155923 working-precision words and  1176 shell-pairs
 IPart=  0 NShTot=         187 NBatch=          71 AvBLen=         2.6
 IPart=  4 NShTot=         133 NBatch=          34 AvBLen=         3.9
 IPart=  5 NShTot=         132 NBatch=          34 AvBLen=         3.9
 IPart=  7 NShTot=         127 NBatch=          34 AvBLen=         3.7
 IPart=  6 NShTot=         128 NBatch=          34 AvBLen=         3.8
 IPart=  3 NShTot=         150 NBatch=          41 AvBLen=         3.7
 IPart=  2 NShTot=         151 NBatch=          42 AvBLen=         3.6
 IPart=  1 NShTot=         168 NBatch=          52 AvBLen=         3.2
 PrSmSu:  NxtVal=              9.
 Entering OneElI...
 Calculate potential energy integrals
    NBasis = 164  MinDer = 1  MaxDer = 1
 Requested accuracy = 0.1000D-12
 PrsmSu:  NPrtUS=   8 ThrOK=T IAlg=1 NPAlg=1 LenDen=           0.
 Prism:   IPart=     0 DynPar=F LinDyn=F Incr=           5.
 PRISM was handed   134161225 working-precision words and  1176 shell-pairs
 PRISM was handed   134161225 working-precision words and  1176 shell-pairs
 PRISM was handed   134161225 working-precision words and  1176 shell-pairs
 PRISM was handed   134161225 working-precision words and  1176 shell-pairs
 PRISM was handed   134161225 working-precision words and  1176 shell-pairs
 PRISM was handed   134161225 working-precision words and  1176 shell-pairs
 PRISM was handed   134161225 working-precision words and  1176 shell-pairs
 PRISM was handed   134161225 working-precision words and  1176 shell-pairs
 IPart=  7 NShTot=         508 NBatch=         127 AvBLen=         4.0
 IPart=  4 NShTot=         544 NBatch=         136 AvBLen=         4.0
 IPart=  5 NShTot=         544 NBatch=         136 AvBLen=         4.0
 IPart=  0 NShTot=         744 NBatch=         186 AvBLen=         4.0
 IPart=  2 NShTot=         604 NBatch=         151 AvBLen=         4.0
 IPart=  1 NShTot=         660 NBatch=         165 AvBLen=         4.0
 IPart=  6 NShTot=         512 NBatch=         128 AvBLen=         4.0
 IPart=  3 NShTot=         588 NBatch=         147 AvBLen=         4.0
 PrSmSu:  NxtVal=             41.
 l701 out
 I=    0 X=   3.229804740458D-04 Y=   0.000000000000D+00 Z=  -6.894481176197D-01
 I=    1 X=  -1.493972180697D-02 Y=   0.000000000000D+00 Z=  -1.077457687172D+01
 I=    2 X=   7.398220782220D-03 Y=   0.000000000000D+00 Z=   1.392361674936D+01
 I=    3 X=   3.770750512079D-03 Y=  -3.114612093529D+00 Z=  -1.574519938888D+00
 I=    4 X=   3.770750512674D-03 Y=   3.114612093490D+00 Z=  -1.574519938749D+00
 ICntrl=      2127.
 Calling FoFJK, ICntrl=      2127 FMM=F ISym2X=0 I1Cent= 0 IOpClX= 0 NMat=1 NMatS=1 NMatT=0.
 FoFJK:  IHMeth= 1 ICntrl=  2127 DoSepK=F KAlg= 1 I1Cent= 0 FoldK=F
 FoFCou: FMM=F IPFlag=           0 FMFlag=      100000 FMFlg1=         800
         NFxFlg=           0 DoJE=F BraDBF=F KetDBF=F FulRan=T
         Omega=  0.000000  0.000000  1.000000  0.000000  0.000000 ICntrl=    2127 IOpCl=  0
         NMat0=    1 NMatS0=    1 NMatT0=    0 NMatD0=    1 NMtDS0=    0 NMtDT0=    0
         I1Cent=           0 NGrid=           0.
 Symmetry not used in FoFCou.
 FoFCou:  KetSym=F NOpSet=  1 NOpAb=1 NOp=  1.
 FoFCou:  CnvScl= 1.00D+00 Thresh= 1.00D-10
 PrismS was handed  1073591504 working-precision words and  1176 shell-pairs
 FoFCou: LinMIO=F DoNuc=F BraDBF=F KetDBF=F HaveP=T PDBF=F HaveZ=T HaveW=F
         NIJTC =      10 NIJTAt=       0 NIJTCD=       0 NIJTT =      10
         IJTBeg=       1 IJTEnd=      10 KLTBeg=       1 KLTEnd=      10
         IPTBeg=       1 IPTEnd=      10 IPTBCv=       1 IPTECv=      10
         IZTBeg=       1 IZTEnd=      10 IZTBCv=       1 IZTECv=      10
         IWTBeg=      11 IWTEnd=      10 IWTBCv=      11 IWTECv=      10
         INTBeg=       1 INTEnd=       0 IFTBCv=       1 IFTECv=      10
 NCel replicated for PrismC:     1
 CoulSu:  IncDef=  1024 NBBP=         692076 NTPThr=   100 NPartT=    8 Incr=         865 LDynOK=F.
 CoulSu:  NPrtUS=   8 ThrOK=T IAlg=1 NPAlg=1 LenDen=           0.
 Enter PrismC: JobTyp=21 DoJE=F Cont=F.
 PrismC:  IPart=     0 DynPar=T LinDyn=F Incr=         865 UseFst=F UseS4=T.
 PrismC was handed   134165245 working-precision words and  1176 shell-pairs
 Enter PrismC: JobTyp=21 DoJE=F Cont=F.
 PrismC was handed   134165245 working-precision words and  1176 shell-pairs
 Enter PrismC: JobTyp=21 DoJE=F Cont=F.
 PrismC was handed   134165245 working-precision words and  1176 shell-pairs
 Enter PrismC: JobTyp=21 DoJE=F Cont=F.
 PrismC was handed   134165245 working-precision words and  1176 shell-pairs
 Enter PrismC: JobTyp=21 DoJE=F Cont=F.
 Enter PrismC: JobTyp=21 DoJE=F Cont=F.
 PrismC was handed   134165245 working-precision words and  1176 shell-pairs
 Enter PrismC: JobTyp=21 DoJE=F Cont=F.
 PrismC was handed   134165245 working-precision words and  1176 shell-pairs
 PrismC was handed   134165245 working-precision words and  1176 shell-pairs
 Enter PrismC: JobTyp=21 DoJE=F Cont=F.
 PrismC was handed   134165245 working-precision words and  1176 shell-pairs
 IPart=  1 NShTot=       96107 NShNF=       96107 NShFF=           0 NBatch=         477 AvBLen=       201.5
 IPart=  4 NShTot=       86501 NShNF=       86501 NShFF=           0 NBatch=         402 AvBLen=       215.2
 IPart=  0 NShTot=       67966 NShNF=       67966 NShFF=           0 NBatch=         465 AvBLen=       146.2
 IPart=  2 NShTot=       94114 NShNF=       94114 NShFF=           0 NBatch=         465 AvBLen=       202.4
 IPart=  5 NShTot=       91874 NShNF=       91874 NShFF=           0 NBatch=         404 AvBLen=       227.4
 IPart=  6 NShTot=       86087 NShNF=       86087 NShFF=           0 NBatch=         479 AvBLen=       179.7
 IPart=  3 NShTot=       76613 NShNF=       76613 NShFF=           0 NBatch=         460 AvBLen=       166.6
 IPart=  7 NShTot=       83820 NShNF=       83820 NShFF=           0 NBatch=         504 AvBLen=       166.3
 CoulSu:  NxtVal=         736981.
 Forces at end of L703
[...]
 OrtVCM:  Ph=2 NNew=    0 IAdd=    2 IPass= 1 DotMx2= 0.00D+00
 OrtVCM:  IS=    1 I=    2 IndO=    2 Dot= 1.00D+00 DotN= 1.00D+00 ElMax1= 8.34D-01 ElMax1N= 8.34D-01
 OrtVCM:  Ph=2 NNew=    0 IAdd=    3 IPass= 1 DotMx2= 0.00D+00
 OrtVCM:  IS=    1 I=    3 IndO=    3 Dot= 1.00D+00 DotN= 1.00D+00 ElMax1= 8.34D-01 ElMax1N= 8.34D-01
 OrtVCM:  Ph=2 NNew=    0 IAdd=    4 IPass= 1 DotMx2= 0.00D+00
 OrtVCM:  IS=    1 I=    4 IndO=    4 Dot= 1.00D+00 DotN= 1.00D+00 ElMax1= 7.07D-01 ElMax1N= 7.07D-01
 OrtVCM:  Ph=2 NNew=    0 IAdd=    5 IPass= 1 DotMx2= 0.00D+00
 OrtVCM:  IS=    1 I=    5 IndO=    5 Dot= 1.00D+00 DotN= 1.00D+00 ElMax1= 7.10D-01 ElMax1N= 7.10D-01
 OrtVCM:  Ph=2 NNew=    0 IAdd=    6 IPass= 1 DotMx2= 6.94D-17
 OrtVCM:  IS=    1 I=    6 IndO=    6 Dot= 1.00D+00 DotN= 1.00D+00 ElMax1= 6.90D-01 ElMax1N= 6.90D-01
 OrtVCM:  Ph=1 IPass= 1 DotMx1= 8.34D-01
 OrtVCM:  Ph=1 IPass= 2 DotMx1= 1.67D-16
 OrtVCM:  IS=    1 I=    1 IndO=    7 Dot= 2.34D-01 DotN= 2.34D-01 ElMax1= 2.98D-01 ElMax1N= 2.98D-01
 OrtVCM:  Ph=2 NNew=    0 IAdd=    2 IPass= 1 DotMx2= 0.00D+00
 OrtVCM:  IS=    1 I=    2 IndO=    8 Dot= 2.63D-01 DotN= 2.63D-01 ElMax1= 2.86D-01 ElMax1N= 2.86D-01
 OrtVCM:  Ph=2 NNew=    0 IAdd=    3 IPass= 1 DotMx2= 0.00D+00
 OrtVCM:  IS=    1 I=    3 IndO=    9 Dot= 7.39D-01 DotN= 7.39D-01 ElMax1= 7.39D-01 ElMax1N= 7.39D-01
 OrtVCM:  Ph=2 NNew=    0 IAdd=    4 IPass= 1 DotMx2= 7.77D-02
 OrtVCM:  Ph=2 NNew=    0 IAdd=    4 IPass= 2 DotMx2= 1.22D-17
 OrtVCM:  IS=    1 I=    4 IndO=    0 Dot= 8.10D-36 DotN= 8.10D-36 ElMax1= 2.52D-18 ElMax1N= 2.52D-18
 OrtVCM:  Ph=2 NNew=    0 IAdd=    5 IPass= 1 DotMx2= 1.16D-01
 OrtVCM:  Ph=2 NNew=    0 IAdd=    5 IPass= 2 DotMx2= 2.26D-17
 OrtVCM:  IS=    1 I=    5 IndO=   10 Dot= 9.41D-03 DotN= 9.41D-03 ElMax1= 6.29D-02 ElMax1N= 6.29D-02
 OrtVCM:  Ph=2 NNew=    0 IAdd=    6 IPass= 1 DotMx2= 4.95D-01
 OrtVCM:  Ph=2 NNew=    0 IAdd=    6 IPass= 2 DotMx2= 1.11D-16
 OrtVCM:  IS=    1 I=    6 IndO=   11 Dot= 5.93D-02 DotN= 5.93D-02 ElMax1= 1.67D-01 ElMax1N= 1.67D-01
 SchOr2:  IPass= 1 Test2A= 1.00D-01 IOff=     0 NDo=     6 NNew=     5
 OrtVCM:  Ph=1 IPass= 1 DotMx1= 7.07D-01
 OrtVCM:  Ph=1 IPass= 2 DotMx1= 1.57D-16
 OrtVCM:  IS=    1 I=    1 IndO=    0 Dot= 2.35D-63 DotN= 2.35D-63 ElMax1= 4.01D-32 ElMax1N= 4.01D-32
 SchOr2:  IPass= 1 Test2A= 1.00D-01 IOff=     6 NDo=     1 NNew=     0
 OrtVCM:  Ph=1 IPass= 1 DotMx1= 5.57D-01
 OrtVCM:  Ph=1 IPass= 2 DotMx1= 1.29D-16
 OrtVCM:  IS=    1 I=    1 IndO=   12 Dot= 5.00D-01 DotN= 5.00D-01 ElMax1= 5.00D-01 ElMax1N= 5.00D-01
 SchOr2:  IPass= 1 Test2A= 1.00D-01 IOff=     7 NDo=     1 NNew=     1
 VibFq2-Diag2:  N=      6 IV=           5 MDV=  1073699542 NE2=   178949923
 Dipole derivatives wrt mode   1: -1.75937D-06 -1.25679D+00  5.41591D-04
 Vibrational polarizability contributions from mode   1       0.0000000       0.0418661       0.0000000
 Vibrational hyperpolarizability contributions from mode   1       0.0000000       0.0000000       0.0000000
 Dipole derivatives wrt mode   2: -6.30425D+00  3.52114D-07 -5.90547D-03
 Vibrational polarizability contributions from mode   2       1.0303391       0.0000000       0.0000009
 Vibrational hyperpolarizability contributions from mode   2       0.0000000       0.0000000       0.0000000
 Dipole derivatives wrt mode   3:  1.31844D-03 -1.82760D-05  3.34588D+00
 Vibrational polarizability contributions from mode   3       0.0000000       0.0000000       0.2552996
 Vibrational hyperpolarizability contributions from mode   3       0.0000000       0.0000000       0.0000000
 Dipole derivatives wrt mode   4: -9.89916D-05  5.59292D-06  1.67823D+00
 Vibrational polarizability contributions from mode   4       0.0000000       0.0000000       0.0332682
 Vibrational hyperpolarizability contributions from mode   4       0.0000000       0.0000000       0.0000000
 Dipole derivatives wrt mode   5:  1.31585D-04 -4.44246D-05 -4.86968D+00
 Vibrational polarizability contributions from mode   5       0.0000000       0.0000000       0.0661518
 Vibrational hyperpolarizability contributions from mode   5       0.0000000       0.0000000       0.0000000
 Dipole derivatives wrt mode   6:  2.44412D-08  1.66744D+00  3.21170D-04
 Vibrational polarizability contributions from mode   6       0.0000000       0.0073378       0.0000000
 Vibrational hyperpolarizability contributions from mode   6       0.0000000       0.0000000       0.0000000
 Diagonal vibrational polarizability:
        1.0303392       0.0492040       0.3547204
 NorSel:  MapVib=      1      2      3      4      5      6
 Harmonic frequencies (cm**-1), IR intensities (KM/Mole), Raman scattering
 activities (A**4/AMU), depolarization ratios for plane and unpolarized
 incident light, reduced masses (AMU), force constants (mDyne/A),
 and normal coordinates:
                           1         2         3         4         5
                           A         A         A         A         A
       Frequencies ---  1007.6235 1018.8487 1086.3055 1509.3981 3105.9644
    Reduced masses ---     1.2040    1.2929    4.7500    1.1768    1.0506
   Force constants ---     0.7203    0.7907    3.3025    1.5797    5.9715
    IR Intensities ---     1.5795   39.7436   11.1949    2.8165   23.7138
 Coord Atom Element:
   1     1     6          0.00000   0.15888  -0.00006   0.00000   0.00000
   2     1     6          0.12419   0.00000   0.00000   0.00000   0.00000
   3     1     6          0.00000   0.00005   0.46264   0.12287  -0.06235
   1     2    16          0.00000  -0.01563   0.00001   0.00000   0.00000
   2     2    16         -0.02936   0.00000   0.00000   0.00000   0.00000
   3     2    16          0.00000  -0.00002  -0.21184  -0.00991   0.00131
   1     3     1          0.00000  -0.69804   0.00028  -0.00001   0.00001
   2     3     1         -0.27356   0.00000  -0.05907   0.40329   0.61260
   3     3     1          0.64577   0.00008   0.60587  -0.57425   0.35044
   1     4     1          0.00000  -0.69804   0.00028  -0.00001   0.00001
   2     4     1         -0.27356   0.00000   0.05906  -0.40329  -0.61256
   3     4     1         -0.64578   0.00008   0.60584  -0.57424   0.35042
                           6
                           A
       Frequencies ---  3193.2429
    Reduced masses ---     1.1197
   Force constants ---     6.7270
    IR Intensities ---     2.7803
 Coord Atom Element:
   1     1     6          0.00000
   2     1     6          0.10089
   3     1     6          0.00000
   1     2    16          0.00000
   2     2    16         -0.00012
   3     2    16          0.00000
   1     3     1          0.00000
   2     3     1         -0.59878
   3     3     1         -0.36924
   1     4     1          0.00000
   2     4     1         -0.59882
   3     4     1          0.36927
 Harmonic frequencies (cm**-1), IR intensities (KM/Mole), Raman scattering
 activities (A**4/AMU), depolarization ratios for plane and unpolarized
 incident light, reduced masses (AMU), force constants (mDyne/A),
 and normal coordinates:
                     1                      2                      3
                     A                      A                      A
 Frequencies --  1007.6235              1018.8487              1086.3055
 Red. masses --     1.2040                 1.2929                 4.7500
 Frc consts  --     0.7203                 0.7907                 3.3025
 IR Inten    --     1.5795                39.7436                11.1949
  Atom  AN      X      Y      Z        X      Y      Z        X      Y      Z
     1   6     0.00   0.12   0.00     0.16   0.00   0.00     0.00   0.00   0.46
     2  16     0.00  -0.03   0.00    -0.02   0.00   0.00     0.00   0.00  -0.21
     3   1     0.00  -0.27   0.65    -0.70   0.00   0.00     0.00  -0.06   0.61
     4   1     0.00  -0.27  -0.65    -0.70   0.00   0.00     0.00   0.06   0.61
                     4                      5                      6
                     A                      A                      A
 Frequencies --  1509.3981              3105.9644              3193.2429
 Red. masses --     1.1768                 1.0506                 1.1197
 Frc consts  --     1.5797                 5.9715                 6.7270
 IR Inten    --     2.8165                23.7138                 2.7803
  Atom  AN      X      Y      Z        X      Y      Z        X      Y      Z
     1   6     0.00   0.00   0.12     0.00   0.00  -0.06     0.00   0.10   0.00
     2  16     0.00   0.00  -0.01     0.00   0.00   0.00     0.00   0.00   0.00
     3   1     0.00   0.40  -0.57     0.00   0.61   0.35     0.00  -0.60  -0.37
     4   1     0.00  -0.40  -0.57     0.00  -0.61   0.35     0.00  -0.60   0.37

 -------------------
 - Thermochemistry -
 -------------------
 Temperature   298.150 Kelvin.  Pressure   1.00000 Atm.
 Atom     1 has atomic number  6 and mass  12.00000
 Atom     2 has atomic number 16 and mass  31.97207
 Atom     3 has atomic number  1 and mass   1.00783
 Atom     4 has atomic number  1 and mass   1.00783
 Molecular mass:    45.98772 amu.
 Principal axes and moments of inertia in atomic units:
                           1         2         3
     Eigenvalues --     6.12264 102.37505 108.49768
           X            0.00000   0.00000   1.00000
           Y            0.00000   1.00000   0.00000
           Z            1.00000   0.00000   0.00000
 This molecule is an asymmetric top.
 Rotational symmetry number  2.
 Rotational temperatures (Kelvin)     14.14649     0.84604     0.79830
 Rotational constants (GHZ):         294.76538    17.62872    16.63391
 Zero-point vibrational energy      65324.4 (Joules/Mol)
                                   15.61290 (Kcal/Mol)
 Vibrational temperatures:   1449.74  1465.89  1562.95  2171.68  4468.78
          (Kelvin)           4594.36
 
 Zero-point correction=                           0.024881 (Hartree/Particle)
 Thermal correction to Energy=                    0.027814
 Thermal correction to Enthalpy=                  0.028759
 Thermal correction to Gibbs Free Energy=         0.002560
 Sum of electronic and zero-point Energies=           -436.898634
 Sum of electronic and thermal Energies=              -436.895701
 Sum of electronic and thermal Enthalpies=            -436.894756
 Sum of electronic and thermal Free Energies=         -436.920955
 
                     E (Thermal)             CV                S
                      KCal/Mol        Cal/Mol-Kelvin    Cal/Mol-Kelvin
 Total                   17.454              7.052             55.139
 Electronic               0.000              0.000              0.000
 Translational            0.889              2.981             37.403
 Rotational               0.889              2.981             17.482
 Vibrational             15.676              1.091              0.255
                       Q            Log10(Q)             Ln(Q)
 Total Bot       0.664283D-01         -1.177647         -2.711631
 Total V=0       0.184789D+11         10.266676         23.639894
 Vib (Bot)       0.367149D-11        -11.435158        -26.330423
 Vib (V=0)       0.102133D+01          0.009165          0.021102
 Electronic      0.100000D+01          0.000000          0.000000
 Translational   0.122580D+08          7.088418         16.321686
 Rotational      0.147602D+04          3.169093          7.297106
 -------------------------------------------------------------------
 Center     Atomic                   Forces (Hartrees/Bohr)
 Number     Number              X              Y              Z
 -------------------------------------------------------------------
      1        6           0.000000000    0.000000000   -0.000102914
      2       16           0.000000000    0.000000000    0.000022726
      3        1           0.000000000    0.000019365    0.000040094
      4        1           0.000000000   -0.000019365    0.000040094
 -------------------------------------------------------------------
 Cartesian Forces:  Max     0.000102914 RMS     0.000035441
 Z-matrix is all fixed cartesians, so copy forces.
 Force constants in Cartesian coordinates: 
                1             2             3             4             5 
      1  0.110457D+00
      2  0.000000D+00  0.575975D+00
      3  0.107153D-05 -0.241985D-05  0.643567D+00
      4 -0.289150D-01  0.000000D+00  0.169018D-05  0.757418D-02
      5  0.000000D+00 -0.461597D-01  0.000000D+00  0.000000D+00  0.281100D-01
      6  0.219642D-05 -0.347384D-05 -0.398628D+00  0.334122D-05  0.000000D+00
      7 -0.407679D-01  0.000000D+00 -0.258841D-05  0.106830D-01  0.000000D+00
      8 -0.202904D-05 -0.264898D+00 -0.119715D+00 -0.307485D-05  0.902223D-02
      9 -0.163380D-05 -0.124321D+00 -0.122470D+00 -0.251528D-05 -0.190187D-01
     10 -0.407679D-01  0.000000D+00 -0.225949D-05  0.106830D-01  0.000000D+00
     11  0.202939D-05 -0.264905D+00  0.119714D+00  0.307428D-05  0.902143D-02
     12 -0.163418D-05  0.124327D+00 -0.122470D+00 -0.251614D-05  0.190193D-01
                6             7             8             9            10 
      6  0.439220D+00
      7 -0.210827D-05  0.150565D-01
      8  0.333349D-02  0.287264D-05  0.272520D+00
      9 -0.202995D-01  0.234837D-05  0.129862D+00  0.132632D+00
     10 -0.235263D-05  0.150129D-01  0.290510D-05  0.230570D-05  0.150565D-01
     11 -0.333304D-02 -0.287879D-05 -0.166437D-01  0.134795D-01 -0.290135D-05
     12 -0.203000D-01  0.234831D-05 -0.134794D-01  0.101419D-01  0.230641D-05
               11            12 
     11  0.272520D+00
     12 -0.129862D+00  0.132632D+00
 Final forces over variables, Energy=-4.36923515D+02:
  1.23522814D-13 1.06472849D-13-1.52504427D-11 1.50204470D-11
  1.36514476D-11-1.21895712D-12 1.93652935D-05-1.93653060D-05
 -1.02913839D-04 2.27262464D-05 4.00937940D-05 4.00937990D-05

 GradGradGradGradGradGradGradGradGradGradGradGradGradGradGradGradGradGrad
 Berny optimization.
 Search for a local minimum.
 Step number   1 out of a maximum of    2
 All quantities printed in internal units (Hartrees-Bohrs-Radians)
 Second derivative matrix not updated -- analytic derivatives used.
 The second derivative matrix:
                          X1        Y1        Z1        X2        Y2
           X1           0.11046
           Y1           0.00000   0.57597
           Z1           0.00000   0.00000   0.64357
           X2          -0.02892   0.00000   0.00000   0.00757
           Y2           0.00000  -0.04616   0.00000   0.00000   0.02811
           Z2           0.00000   0.00000  -0.39863   0.00000   0.00000
           X3          -0.04077   0.00000   0.00000   0.01068   0.00000
           Y3           0.00000  -0.26490  -0.11971   0.00000   0.00902
           Z3           0.00000  -0.12432  -0.12247   0.00000  -0.01902
           X4          -0.04077   0.00000   0.00000   0.01068   0.00000
           Y4           0.00000  -0.26491   0.11971   0.00000   0.00902
           Z4           0.00000   0.12433  -0.12247   0.00000   0.01902
                          Z2        X3        Y3        Z3        X4
           Z2           0.43922
           X3           0.00000   0.01506
           Y3           0.00333   0.00000   0.27252
           Z3          -0.02030   0.00000   0.12986   0.13263
           X4           0.00000   0.01501   0.00000   0.00000   0.01506
           Y4          -0.00333   0.00000  -0.01664   0.01348   0.00000
           Z4          -0.02030   0.00000  -0.01348   0.01014   0.00000
                          Y4        Z4
           Y4           0.27252
           Z4          -0.12986   0.13263
 ITU=  0
     Eigenvalues ---    0.07579   0.10556   0.12132   0.33724   0.77626
     Eigenvalues ---    0.99533
 Angle between quadratic step and forces=  52.58 degrees.
 Linear search not attempted -- first point.
 TrRot=  0.000000  0.000000 -0.000075  0.000000  0.000000  0.000000
 Variable       Old X    -DE/DX   Delta X   Delta X   Delta X     New X
                                 (Linear)    (Quad)   (Total)
    X1        0.00000   0.00000   0.00000   0.00000   0.00000   0.00000
    Y1        0.00000   0.00000   0.00000   0.00000   0.00000   0.00000
    Z1       -1.04935  -0.00010   0.00000  -0.00012  -0.00020  -1.04955
    X2        0.00000   0.00000   0.00000   0.00000   0.00000   0.00000
    Y2        0.00000   0.00000   0.00000   0.00000   0.00000   0.00000
    Z2        2.00382   0.00002   0.00000  -0.00004  -0.00011   2.00370
    X3        0.00000   0.00000   0.00000   0.00000   0.00000   0.00000
    Y3       -1.74286   0.00002   0.00000  -0.00008  -0.00008  -1.74293
    Z3       -2.13349   0.00004   0.00000   0.00023   0.00016  -2.13333
    X4        0.00000   0.00000   0.00000   0.00000   0.00000   0.00000
    Y4        1.74286  -0.00002   0.00000   0.00008   0.00008   1.74293
    Z4       -2.13349   0.00004   0.00000   0.00023   0.00016  -2.13333
         Item               Value     Threshold  Converged?
 Maximum Force            0.000103     0.000450     YES
 RMS     Force            0.000035     0.000300     YES
 Maximum Displacement     0.000199     0.001800     YES
 RMS     Displacement     0.000097     0.001200     YES
 Predicted change in Energy=-1.375388D-08
 Optimization completed.
    -- Stationary point found.
 GradGradGradGradGradGradGradGradGradGradGradGradGradGradGradGradGradGrad


 Test job not archived.
 1\1\GINC-TRAPISTA\Freq\RQCISD-FC\Aug-CC-pVTZ\C1H2S1\BRUNS\17-Nov-2021\
 0\\#freq=noraman qcisd/aug-cc-pvtz density=current iop(7/33=1) nosym f
 ormcheck=forcecart\\h2cs-frequencies\\0,1\C,0.,0.,-0.555291\S,0.,0.,1.
 060374\H,0.,-0.92228,-1.128992\H,0.,0.92228,-1.128992\\Version=EM64L-G
 09RevB.01\HF=-436.5575895\MP2=-436.8984589\MP3=-436.9212711\MP4D=-436.
 9312908\MP4DQ=-436.9196277\MP4SDQ=-436.9231103\QCISD=-436.923515\RMSD=
 6.200e-09\RMSF=3.544e-05\ZeroPoint=0.0248807\Thermal=0.0278144\Dipole=
 0.,0.,-0.6894485\DipoleDeriv=-0.1709409,0.,-0.0001003,0.,0.1646886,0.0
 001915,0.,0.,0.4598025,-0.1219128,0.,-0.0001696,0.,-0.1644951,0.000028
 6,0.,0.,-0.3552622,0.1463576,-0.0000002,0.0001657,0.,-0.0001082,-0.076
 7249,0.,-0.0538191,-0.0523985,0.1463576,0.0000002,0.0001532,0.,-0.0001
 085,0.076732,0.,0.0538191,-0.0523971\Quadrupole=-0.1011603,-0.5452826,
 0.6464429,0.,0.,0.\QuadrupoleDeriv=0.0000732,0.0000603,-0.0001335,0.,-
 0.1990662,0.,-0.0001333,-0.0001135,0.0002468,0.,0.,-1.8810312,0.847549
 4,-0.3522409,-0.4953085,0.,0.,0.,0.0001039,0.0000985,-0.0002024,0.,-0.
 1225599,0.,-0.00003,-0.0000152,0.0000452,0.,0.,0.7108795,-0.7788801,-0
 .1244072,0.9032873,0.,0.,0.,-0.000111,-0.0000973,0.0002083,0.1270396,-
 0.1832819,0.,0.1764566,-0.6641063,0.4876497,0.,0.,0.2405144,0.1953188,
 0.468169,-0.6634878,0.,0.,-0.3387363,-0.0001184,-0.0000905,0.0002089,-
 0.1270396,-0.183282,0.,-0.1764523,0.6640979,-0.4876456,0.,0.,0.2405127
 ,0.1953293,0.4681706,-0.6635,0.,0.,0.3387363\PG=C02V [C2(C1S1),SGV(H2)
 ]\NImag=0\\0.11045658,0.,0.57597488,0.00000107,-0.00000242,0.64356681,
 -0.02891505,0.,0.00000169,0.00757418,0.,-0.04615974,-0.00000080,0.,0.0
 2810998,0.00000220,-0.00000347,-0.39862841,0.00000334,0.00000022,0.439
 21990,-0.04076788,0.,-0.00000259,0.01068299,0.,-0.00000211,0.01505649,
 -0.00000203,-0.26489786,-0.11971492,-0.00000307,0.00902223,0.00333349,
 0.00000287,0.27252036,-0.00000163,-0.12432076,-0.12247000,-0.00000252,
 -0.01901868,-0.02029950,0.00000235,0.12986177,0.13263223,-0.04076787,0
 .,-0.00000226,0.01068299,0.,-0.00000235,0.01501294,0.00000291,0.000002
 31,0.01505649,0.00000203,-0.26490512,0.11971440,0.00000307,0.00902143,
 -0.00333304,-0.00000288,-0.01664374,0.01347946,-0.00000290,0.27252038,
 -0.00000163,0.12432665,-0.12246958,-0.00000252,0.01901927,-0.02030001,
 0.00000235,-0.01347941,0.01014188,0.00000231,-0.12986175,0.13263231\\0
 .,0.,0.00010291,0.,0.,-0.00002273,0.,-0.00001937,-0.00004009,0.,0.0000
 1937,-0.00004009\\\@


 BLACK HOLES SUCK.
 Job cpu time:  0 days 11 hours 52 minutes 23.8 seconds.
 File lengths (MBytes):  RWF=   5923 Int=      0 D2E=      0 Chk=     41 Scr=      1
 Normal termination of Gaussian 09 at Wed Nov 17 03:32:19 2021.
