 Entering Gaussian System, Link 0=/home/bruns/programas/chemistry/gaussian/g09/g09
 Input=./br2co/br2co-fv.com
 Output=./br2co/br2co-fv.log
 Initial command:
 /home/bruns/programas/chemistry/gaussian/g09/l1.exe /home/bruns/programas/chemistry/gaussian/work/Gau-15437.inp -scrdir=/home/bruns/programas/chemistry/gaussian/work/
 Entering Link 1 = /home/bruns/programas/chemistry/gaussian/g09/l1.exe PID=     15439.
  
 Copyright (c) 1988,1990,1992,1993,1995,1998,2003,2009,2010,
            Gaussian, Inc.  All Rights Reserved.
  
 This is part of the Gaussian(R) 09 program.  It is based on
 the Gaussian(R) 03 system (copyright 2003, Gaussian, Inc.),
 the Gaussian(R) 98 system (copyright 1998, Gaussian, Inc.),
 the Gaussian(R) 94 system (copyright 1995, Gaussian, Inc.),
 the Gaussian 92(TM) system (copyright 1992, Gaussian, Inc.),
 the Gaussian 90(TM) system (copyright 1990, Gaussian, Inc.),
 the Gaussian 88(TM) system (copyright 1988, Gaussian, Inc.),
 the Gaussian 86(TM) system (copyright 1986, Carnegie Mellon
 University), and the Gaussian 82(TM) system (copyright 1983,
 Carnegie Mellon University). Gaussian is a federally registered
 trademark of Gaussian, Inc.
  
 This software contains proprietary and confidential information,
 including trade secrets, belonging to Gaussian, Inc.
  
 This software is provided under written license and may be
 used, copied, transmitted, or stored only in accord with that
 written license.
  
 The following legend is applicable only to US Government
 contracts under FAR:
  
                    RESTRICTED RIGHTS LEGEND
  
 Use, reproduction and disclosure by the US Government is
 subject to restrictions as set forth in subparagraphs (a)
 and (c) of the Commercial Computer Software - Restricted
 Rights clause in FAR 52.227-19.
  
 Gaussian, Inc.
 340 Quinnipiac St., Bldg. 40, Wallingford CT 06492
  
  
 ---------------------------------------------------------------
 Warning -- This program may not be used in any manner that
 competes with the business of Gaussian, Inc. or will provide
 assistance to any competitor of Gaussian, Inc.  The licensee
 of this program is prohibited from giving any competitor of
 Gaussian, Inc. access to this program.  By using this program,
 the user acknowledges that Gaussian, Inc. is engaged in the
 business of creating and licensing software in the field of
 computational chemistry and represents and warrants to the
 licensee that it is not a competitor of Gaussian, Inc. and that
 it will not use this program in any manner prohibited above.
 ---------------------------------------------------------------
  

 Cite this work as:
 Gaussian 09, Revision B.01,
 M. J. Frisch, G. W. Trucks, H. B. Schlegel, G. E. Scuseria, 
 M. A. Robb, J. R. Cheeseman, G. Scalmani, V. Barone, B. Mennucci, 
 G. A. Petersson, H. Nakatsuji, M. Caricato, X. Li, H. P. Hratchian, 
 A. F. Izmaylov, J. Bloino, G. Zheng, J. L. Sonnenberg, M. Hada, 
 M. Ehara, K. Toyota, R. Fukuda, J. Hasegawa, M. Ishida, T. Nakajima, 
 Y. Honda, O. Kitao, H. Nakai, T. Vreven, J. A. Montgomery, Jr., 
 J. E. Peralta, F. Ogliaro, M. Bearpark, J. J. Heyd, E. Brothers, 
 K. N. Kudin, V. N. Staroverov, T. Keith, R. Kobayashi, J. Normand, 
 K. Raghavachari, A. Rendell, J. C. Burant, S. S. Iyengar, J. Tomasi, 
 M. Cossi, N. Rega, J. M. Millam, M. Klene, J. E. Knox, J. B. Cross, 
 V. Bakken, C. Adamo, J. Jaramillo, R. Gomperts, R. E. Stratmann, 
 O. Yazyev, A. J. Austin, R. Cammi, C. Pomelli, J. W. Ochterski, 
 R. L. Martin, K. Morokuma, V. G. Zakrzewski, G. A. Voth, 
 P. Salvador, J. J. Dannenberg, S. Dapprich, A. D. Daniels, 
 O. Farkas, J. B. Foresman, J. V. Ortiz, J. Cioslowski, 
 and D. J. Fox, Gaussian, Inc., Wallingford CT, 2010.
 
 ******************************************
 Gaussian 09:  EM64L-G09RevB.01 12-Aug-2010
                18-Nov-2021 
 ******************************************
 %nproc=8
 Will use up to    8 processors via shared memory.
 %mem=8GB
 ----------------------------------------------------------------------
 #freq=noraman qcisd/aug-cc-pvtz density=current iop(7/33=1) nosym form
 check=forcecart
 ----------------------------------------------------------------------
 1/10=4,30=1,38=11/1,3,6;
 2/12=2,15=1,17=6,18=5,40=1/2;
 3/5=16,6=1,7=10,11=9,16=1,25=1,30=1,71=1/1,2,3;
 4/69=2/1;
 5/5=2,38=5,98=1/2;
 8/6=4,9=120000,10=1/1,4;
 9/5=8,15=1/13;
 11/28=-7,29=200,31=1,42=3/11;
 10/5=6,31=1/2;
 6/7=2,8=2,9=2,10=2,22=-1/1;
 7/12=7,30=1,33=1/1,2,3,16;
 1/38=10/6(3);
 7/8=1,25=1,30=1,33=1,44=-1/16;
 1/10=4,30=1,38=10/3;
 99//99;
 3/5=16,6=1,7=10,11=9,16=1,25=1,30=1,71=1/1,2,3;
 4/5=5,16=3,69=2/1;
 5/5=2,38=5,98=1/2;
 8/6=4,9=120000,10=1/1,4;
 9/5=8,15=1/13;
 11/28=-7,29=200,31=1,42=3/11;
 10/5=6,31=1/2;
 6/7=2,8=2,9=2,10=2,22=-1/1;
 7/7=1,12=7,30=1,33=1/1,2,3,16;
 1/38=10/6(-9);
 7/8=1,25=1,30=1,33=1,44=-1/16;
 1/10=4,30=1,38=10/3;
 99//99;
 -----------------
 br2co-frequencies
 -----------------
 Symbolic Z-matrix:
 Charge =  0 Multiplicity = 1
 C                     0.        0.       -0.49176 
 Br                    0.       -1.59418  -1.54682 
 Br                    0.        1.59418  -1.54682 
 O                     0.        0.        0.6845 
 

 GradGradGradGradGradGradGradGradGradGradGradGradGradGradGradGradGradGrad
 Berny optimization.
 Initialization pass.
 Trust Radius=3.00D-01 FncErr=1.00D-07 GrdErr=1.00D-07
 Number of steps in this run=      2 maximum allowed number of steps=      2.
 GradGradGradGradGradGradGradGradGradGradGradGradGradGradGradGradGradGrad

 NDeriv=  12 NFrqRd=  0 LFDDif=       1
 Numerical evaluation of force-constants.
 Nuclear step= 0.001000 Angstroms, electric field step= 0.000333 atomic units, NStep=1.
                          Input orientation:                          
 ---------------------------------------------------------------------
 Center     Atomic      Atomic             Coordinates (Angstroms)
 Number     Number       Type             X           Y           Z
 ---------------------------------------------------------------------
      1          6           0        0.000000    0.000000   -0.491759
      2         35           0        0.000000   -1.594181   -1.546820
      3         35           0        0.000000    1.594181   -1.546820
      4          8           0        0.000000    0.000000    0.684500
 ---------------------------------------------------------------------
                    Distance matrix (angstroms):
                    1          2          3          4
     1  C    0.000000
     2  Br   1.911692   0.000000
     3  Br   1.911692   3.188362   0.000000
     4  O    1.176259   2.742299   2.742299   0.000000
 Symmetry turned off by external request.
 Stoichiometry    CBr2O
 Framework group  C2V[C2(CO),SGV(Br2)]
 Deg. of freedom     3
 Full point group                 C2V     NOp   4
 Rotational constants (GHZ):      6.2847849      1.2598940      1.0495030
 Standard basis: Aug-CC-pVTZ (5D, 7F)
 Integral buffers will be    131072 words long.
 Raffenetti 1 integral format.
 Two-electron integral symmetry is turned off.
   210 basis functions,   578 primitive gaussians,   248 cartesian basis functions
    42 alpha electrons       42 beta electrons
       nuclear repulsion energy       449.2323209223 Hartrees.
 NAtoms=    4 NActive=    4 NUniq=    4 SFac= 1.00D+00 NAtFMM=   50 NAOKFM=F Big=F
 One-electron integrals computed using PRISM.
 NBasis=   210 RedAO= T  NBF=   210
 NBsUse=   210 1.00D-06 NBFU=   210
 Harris functional with IExCor=  205 diagonalized for initial guess.
 ExpMin= 3.51D-02 ExpMax= 1.06D+07 ExpMxC= 1.21D+04 IAcc=3 IRadAn=         0 AccDes= 0.00D+00
 HarFok:  IExCor=  205 AccDes= 0.00D+00 IRadAn=         0 IDoV= 1
 ScaDFX=  1.000000  1.000000  1.000000  1.000000
 FoFCou: FMM=F IPFlag=           0 FMFlag=      100000 FMFlg1=           0
         NFxFlg=           0 DoJE=T BraDBF=F KetDBF=T FulRan=T
         Omega=  0.000000  0.000000  1.000000  0.000000  0.000000 ICntrl=     500 IOpCl=  0
         NMat0=    1 NMatS0=    1 NMatT0=    0 NMatD0=    1 NMtDS0=    0 NMtDT0=    0
         I1Cent=           4 NGrid=           0.
 Symmetry not used in FoFCou.
 Requested convergence on RMS density matrix=1.00D-08 within 128 cycles.
 Requested convergence on MAX density matrix=1.00D-06.
 Requested convergence on             energy=1.00D-06.
 No special actions if energy rises.
 Keep R1 ints in memory in canonical form, NReq=484604278.
 SCF Done:  E(RHF) =  -5257.68454935     A.U. after   12 cycles
             Convg  =    0.9212D-08             -V/T =  2.0000
 ExpMin= 3.51D-02 ExpMax= 1.06D+07 ExpMxC= 1.21D+04 IAcc=3 IRadAn=         5 AccDes= 0.00D+00
 HarFok:  IExCor=  205 AccDes= 0.00D+00 IRadAn=         5 IDoV=-2
 ScaDFX=  1.000000  1.000000  1.000000  1.000000
 DSYEVD returned Info=          93 IAlg= 4 N=    46 NDim=    46 NE2=    18196533 trying DSYEV.
 DSYEVD returned Info=          93 IAlg= 4 N=    46 NDim=    46 NE2=    18196533 trying DSYEV.
 Range of M.O.s used for correlation:    21   210
 NBasis=   210 NAE=    42 NBE=    42 NFC=    20 NFV=     0
 NROrb=    190 NOA=    22 NOB=    22 NVA=   168 NVB=   168

 **** Warning!!: The largest alpha MO coefficient is  0.28109636D+02

 Semi-Direct transformation.
 ModeAB=           2 MOrb=            22 LenV=    1072497277
 LASXX=     69628944 LTotXX=    69628944 LenRXX=    69628944
 LTotAB=    70719517 MaxLAS=   129061680 LenRXY=   129061680
 NonZer=   139257888 LenScr=   209707008 LnRSAI=           0
 LnScr1=           0 LExtra=           0 Total=    408397632
 MaxDsk=          -1 SrtSym=           F ITran=            4
 JobTyp=0 Pass  1:  I=   1 to  22.
 (rs|ai) integrals will be sorted in core.
 Spin components of T(2) and E(2):
     alpha-alpha T2 =       0.3832195230D-01 E2=     -0.1232778908D+00
     alpha-beta  T2 =       0.1924923039D+00 E2=     -0.6175052865D+00
     beta-beta   T2 =       0.3832195230D-01 E2=     -0.1232778908D+00
 ANorm=    0.1126559456D+01
 E2 =    -0.8640610682D+00 EUMP2 =    -0.52585486104195D+04
 R2 and R3 integrals will be kept in memory, NReq=   961077252.
 Iterations=  50 Convergence= 0.100D-07
 Iteration Nr.   1
 **********************
 DD1Dir will call FoFMem   1 times, MxPair=       506
 NAB=   253 NAA=     0 NBB=     0.
 MP4(R+Q)=  0.21479113D-01
 E3=        0.13939014D-03        EUMP3=      -0.52585484710D+04
 E4(DQ)=    0.26939486D-03        UMP4(DQ)=   -0.52585482016D+04
 E4(SDQ)=  -0.11697362D-01        UMP4(SDQ)=  -0.52585601684D+04
 DE(Corr)= -0.84244257     E(Corr)=     -5258.5269919    
 NORM(A)=   0.11248481D+01
 Iteration Nr.   2
 **********************
 DD1Dir will call FoFMem   1 times, MxPair=       506
 NAB=   253 NAA=     0 NBB=     0.
 DE(Corr)= -0.87233836     E(CORR)=     -5258.5568877     Delta=-2.99D-02
 NORM(A)=   0.11352476D+01
 Iteration Nr.   3
 **********************
 DD1Dir will call FoFMem   1 times, MxPair=       506
 NAB=   253 NAA=     0 NBB=     0.
 DE(Corr)= -0.87023438     E(CORR)=     -5258.5547837     Delta= 2.10D-03
 NORM(A)=   0.11380094D+01
 Iteration Nr.   4
 **********************
 DD1Dir will call FoFMem   1 times, MxPair=       506
 NAB=   253 NAA=     0 NBB=     0.
 DE(Corr)= -0.87276469     E(CORR)=     -5258.5573140     Delta=-2.53D-03
 NORM(A)=   0.11393221D+01
 Iteration Nr.   5
 **********************
 DD1Dir will call FoFMem   1 times, MxPair=       506
 NAB=   253 NAA=     0 NBB=     0.
 DE(Corr)= -0.87313911     E(CORR)=     -5258.5576885     Delta=-3.74D-04
 NORM(A)=   0.11398370D+01
 Iteration Nr.   6
 **********************
 DD1Dir will call FoFMem   1 times, MxPair=       506
 NAB=   253 NAA=     0 NBB=     0.
 DE(Corr)= -0.87320338     E(CORR)=     -5258.5577527     Delta=-6.43D-05
 NORM(A)=   0.11399410D+01
 Iteration Nr.   7
 **********************
 DD1Dir will call FoFMem   1 times, MxPair=       506
 NAB=   253 NAA=     0 NBB=     0.
 DE(Corr)= -0.87321768     E(CORR)=     -5258.5577670     Delta=-1.43D-05
 NORM(A)=   0.11399498D+01
 Iteration Nr.   8
 **********************
 DD1Dir will call FoFMem   1 times, MxPair=       506
 NAB=   253 NAA=     0 NBB=     0.
 DE(Corr)= -0.87321802     E(CORR)=     -5258.5577674     Delta=-3.34D-07
 NORM(A)=   0.11399649D+01
 Iteration Nr.   9
 **********************
 DD1Dir will call FoFMem   1 times, MxPair=       506
 NAB=   253 NAA=     0 NBB=     0.
 DE(Corr)= -0.87321609     E(CORR)=     -5258.5577654     Delta= 1.92D-06
 NORM(A)=   0.11399648D+01
 Iteration Nr.  10
 **********************
 DD1Dir will call FoFMem   1 times, MxPair=       506
 NAB=   253 NAA=     0 NBB=     0.
 DE(Corr)= -0.87321750     E(CORR)=     -5258.5577669     Delta=-1.41D-06
 NORM(A)=   0.11399676D+01
 Iteration Nr.  11
 **********************
 DD1Dir will call FoFMem   1 times, MxPair=       506
 NAB=   253 NAA=     0 NBB=     0.
 DE(Corr)= -0.87321863     E(CORR)=     -5258.5577680     Delta=-1.13D-06
 NORM(A)=   0.11399694D+01
 Iteration Nr.  12
 **********************
 DD1Dir will call FoFMem   1 times, MxPair=       506
 NAB=   253 NAA=     0 NBB=     0.
 DE(Corr)= -0.87321895     E(CORR)=     -5258.5577683     Delta=-3.16D-07
 NORM(A)=   0.11399704D+01
 Iteration Nr.  13
 **********************
 DD1Dir will call FoFMem   1 times, MxPair=       506
 NAB=   253 NAA=     0 NBB=     0.
 DE(Corr)= -0.87321942     E(CORR)=     -5258.5577688     Delta=-4.67D-07
 NORM(A)=   0.11399711D+01
 Iteration Nr.  14
 **********************
 DD1Dir will call FoFMem   1 times, MxPair=       506
 NAB=   253 NAA=     0 NBB=     0.
 DE(Corr)= -0.87321953     E(CORR)=     -5258.5577689     Delta=-1.09D-07
 NORM(A)=   0.11399714D+01
 Iteration Nr.  15
 **********************
 DD1Dir will call FoFMem   1 times, MxPair=       506
 NAB=   253 NAA=     0 NBB=     0.
 DE(Corr)= -0.87321960     E(CORR)=     -5258.5577689     Delta=-6.93D-08
 NORM(A)=   0.11399716D+01
 Iteration Nr.  16
 **********************
 DD1Dir will call FoFMem   1 times, MxPair=       506
 NAB=   253 NAA=     0 NBB=     0.
 DE(Corr)= -0.87321963     E(CORR)=     -5258.5577690     Delta=-3.07D-08
 NORM(A)=   0.11399716D+01
 Iteration Nr.  17
 **********************
 DD1Dir will call FoFMem   1 times, MxPair=       506
 NAB=   253 NAA=     0 NBB=     0.
 DE(Corr)= -0.87321962     E(CORR)=     -5258.5577690     Delta= 3.07D-09
 NORM(A)=   0.11399717D+01
 Iteration Nr.  18
 **********************
 DD1Dir will call FoFMem   1 times, MxPair=       506
 NAB=   253 NAA=     0 NBB=     0.
 DE(Corr)= -0.87321963     E(CORR)=     -5258.5577690     Delta=-1.42D-09
 NORM(A)=   0.11399717D+01
 Iteration Nr.  19
 **********************
 DD1Dir will call FoFMem   1 times, MxPair=       506
 NAB=   253 NAA=     0 NBB=     0.
 DE(Corr)= -0.87321963     E(CORR)=     -5258.5577690     Delta=-4.01D-09
 NORM(A)=   0.11399717D+01
 Iteration Nr.  20
 **********************
 DD1Dir will call FoFMem   1 times, MxPair=       506
 NAB=   253 NAA=     0 NBB=     0.
 DE(Corr)= -0.87321963     E(CORR)=     -5258.5577690     Delta= 8.08D-10
 NORM(A)=   0.11399717D+01
 Iteration Nr.  21
 **********************
 DD1Dir will call FoFMem   1 times, MxPair=       506
 NAB=   253 NAA=     0 NBB=     0.
 DE(Corr)= -0.87321963     E(CORR)=     -5258.5577690     Delta=-8.58D-10
 NORM(A)=   0.11399717D+01
 Largest amplitude= 4.23D-02

 Z-AMPLITUDE ITERATIONS

 Iteration Nr.   1
 **********************
 DD1Dir will call FoFMem   1 times, MxPair=       506
 NAB=   253 NAA=     0 NBB=     0.
 DE(Z)  -0.84604529D+00          E(Z)=    -0.52585305946D+04
 NORM(A)=   0.11399087D+01
 Iteration Nr.   2
 **********************
 DD1Dir will call FoFMem   1 times, MxPair=       506
 NAB=   253 NAA=     0 NBB=     0.
 DE(Z)  -0.84604518D+00          E(Z)=    -0.52585305945D+04
 NORM(A)=   0.11404081D+01
 Iteration Nr.   3
 **********************
 DD1Dir will call FoFMem   1 times, MxPair=       506
 NAB=   253 NAA=     0 NBB=     0.
 DE(Z)  -0.84604588D+00          E(Z)=    -0.52585305952D+04
 NORM(A)=   0.11397541D+01
 Iteration Nr.   4
 **********************
 DD1Dir will call FoFMem   1 times, MxPair=       506
 NAB=   253 NAA=     0 NBB=     0.
 DE(Z)  -0.84604505D+00          E(Z)=    -0.52585305944D+04
 NORM(A)=   0.11423673D+01
 Iteration Nr.   5
 **********************
 DD1Dir will call FoFMem   1 times, MxPair=       506
 NAB=   253 NAA=     0 NBB=     0.
 DE(Z)  -0.84605473D+00          E(Z)=    -0.52585306041D+04
 NORM(A)=   0.11301177D+01
 Iteration Nr.   6
 **********************
 DD1Dir will call FoFMem   1 times, MxPair=       506
 NAB=   253 NAA=     0 NBB=     0.
 DE(Z)  -0.84601521D+00          E(Z)=    -0.52585305646D+04
 NORM(A)=   0.11301187D+01
 Iteration Nr.   7
 **********************
 DD1Dir will call FoFMem   1 times, MxPair=       506
 NAB=   253 NAA=     0 NBB=     0.
 DE(Z)  -0.84601137D+00          E(Z)=    -0.52585305607D+04
 NORM(A)=   0.11301185D+01
 Iteration Nr.   8
 **********************
 DD1Dir will call FoFMem   1 times, MxPair=       506
 NAB=   253 NAA=     0 NBB=     0.
 DE(Z)  -0.84601320D+00          E(Z)=    -0.52585305625D+04
 NORM(A)=   0.11301191D+01
 Iteration Nr.   9
 **********************
 DD1Dir will call FoFMem   1 times, MxPair=       506
 NAB=   253 NAA=     0 NBB=     0.
 DE(Z)  -0.84601312D+00          E(Z)=    -0.52585305625D+04
 NORM(A)=   0.11301193D+01
 Iteration Nr.  10
 **********************
 DD1Dir will call FoFMem   1 times, MxPair=       506
 NAB=   253 NAA=     0 NBB=     0.
 DE(Z)  -0.84601311D+00          E(Z)=    -0.52585305625D+04
 NORM(A)=   0.11301193D+01
 Iteration Nr.  11
 **********************
 DD1Dir will call FoFMem   1 times, MxPair=       506
 NAB=   253 NAA=     0 NBB=     0.
 DE(Z)  -0.84601314D+00          E(Z)=    -0.52585305625D+04
 NORM(A)=   0.11301194D+01
 Iteration Nr.  12
 **********************
 DD1Dir will call FoFMem   1 times, MxPair=       506
 NAB=   253 NAA=     0 NBB=     0.
 DE(Z)  -0.84601313D+00          E(Z)=    -0.52585305625D+04
 NORM(A)=   0.11301194D+01
 Iteration Nr.  13
 **********************
 DD1Dir will call FoFMem   1 times, MxPair=       506
 NAB=   253 NAA=     0 NBB=     0.
 DE(Z)  -0.84601313D+00          E(Z)=    -0.52585305625D+04
 NORM(A)=   0.11301194D+01
 Iteration Nr.  14
 **********************
 DD1Dir will call FoFMem   1 times, MxPair=       506
 NAB=   253 NAA=     0 NBB=     0.
 DE(Z)  -0.84601313D+00          E(Z)=    -0.52585305625D+04
 NORM(A)=   0.11301194D+01
 Discarding MO integrals.
          IDoAtm=1111
          Differentiating once with respect to electric field.
                with respect to dipole field.
          Differentiating once with respect to nuclear coordinates.
          Keep R1 ints in memory in canonical form, NReq=478620425.
          There are     1 degrees of freedom in the 1st order CPHF.  IDoFFX=0.
 LinEq1:  Iter=  0 NonCon=     1 RMS=1.95D-03 Max=5.61D-02
 AX will form     1 AO Fock derivatives at one time.
 LinEq1:  Iter=  1 NonCon=     1 RMS=7.40D-04 Max=2.61D-02
 LinEq1:  Iter=  2 NonCon=     1 RMS=3.09D-04 Max=9.34D-03
 LinEq1:  Iter=  3 NonCon=     1 RMS=1.03D-04 Max=2.97D-03
 LinEq1:  Iter=  4 NonCon=     1 RMS=5.33D-05 Max=1.64D-03
 LinEq1:  Iter=  5 NonCon=     1 RMS=1.64D-05 Max=4.65D-04
 LinEq1:  Iter=  6 NonCon=     1 RMS=6.29D-06 Max=1.31D-04
 LinEq1:  Iter=  7 NonCon=     1 RMS=1.35D-06 Max=2.12D-05
 LinEq1:  Iter=  8 NonCon=     1 RMS=2.69D-07 Max=4.30D-06
 LinEq1:  Iter=  9 NonCon=     1 RMS=6.50D-08 Max=1.21D-06
 LinEq1:  Iter= 10 NonCon=     1 RMS=1.39D-08 Max=2.08D-07
 LinEq1:  Iter= 11 NonCon=     1 RMS=3.90D-09 Max=9.55D-08
 LinEq1:  Iter= 12 NonCon=     1 RMS=7.18D-10 Max=1.62D-08
 LinEq1:  Iter= 13 NonCon=     1 RMS=1.20D-10 Max=2.63D-09
 LinEq1:  Iter= 14 NonCon=     0 RMS=1.85D-11 Max=4.29D-10
 Linear equations converged to 1.000D-10 1.000D-09 after    14 iterations.
 End of Minotr Frequency-dependent properties file   721 does not exist.
 End of Minotr Frequency-dependent properties file   722 does not exist.

 **********************************************************************

            Population analysis using the QCI/CC density.

 **********************************************************************

 Alpha  occ. eigenvalues -- -490.06638-490.06638 -65.20633 -65.20633 -58.56165
 Alpha  occ. eigenvalues --  -58.56165 -58.56015 -58.56015 -58.55998 -58.55998
 Alpha  occ. eigenvalues --  -20.62832 -11.46325  -9.87940  -9.87940  -7.49128
 Alpha  occ. eigenvalues --   -7.49127  -7.48407  -7.48406  -7.48336  -7.48335
 Alpha  occ. eigenvalues --   -3.23522  -3.23522  -3.23165  -3.23163  -3.23069
 Alpha  occ. eigenvalues --   -3.23068  -3.22160  -3.22159  -3.22158  -3.22157
 Alpha  occ. eigenvalues --   -1.48400  -1.10818  -1.04780  -0.79379  -0.68342
 Alpha  occ. eigenvalues --   -0.67614  -0.63062  -0.47901  -0.46167  -0.45791
 Alpha  occ. eigenvalues --   -0.45104  -0.43156
 Alpha virt. eigenvalues --    0.03790   0.05638   0.07006   0.07544   0.08199
 Alpha virt. eigenvalues --    0.09328   0.09994   0.10256   0.10940   0.11868
 Alpha virt. eigenvalues --    0.13017   0.13181   0.17481   0.19374   0.21889
 Alpha virt. eigenvalues --    0.22373   0.23248   0.24159   0.25848   0.26652
 Alpha virt. eigenvalues --    0.27523   0.28944   0.31893   0.32940   0.35605
 Alpha virt. eigenvalues --    0.36769   0.37009   0.39727   0.41344   0.43786
 Alpha virt. eigenvalues --    0.44682   0.46414   0.46631   0.49568   0.49657
 Alpha virt. eigenvalues --    0.52593   0.55724   0.56293   0.58707   0.60139
 Alpha virt. eigenvalues --    0.60836   0.63136   0.69493   0.70121   0.71486
 Alpha virt. eigenvalues --    0.71870   0.74565   0.75884   0.77553   0.78530
 Alpha virt. eigenvalues --    0.79396   0.82306   0.83576   0.85027   0.88440
 Alpha virt. eigenvalues --    0.88445   0.89892   0.90088   0.91468   0.93823
 Alpha virt. eigenvalues --    0.94754   0.98082   1.00453   1.01613   1.02914
 Alpha virt. eigenvalues --    1.05487   1.06676   1.11242   1.13075   1.13256
 Alpha virt. eigenvalues --    1.17145   1.17717   1.18749   1.30605   1.34477
 Alpha virt. eigenvalues --    1.36374   1.36482   1.40584   1.43883   1.44824
 Alpha virt. eigenvalues --    1.44904   1.45490   1.51424   1.52388   1.53186
 Alpha virt. eigenvalues --    1.62942   1.63526   1.70602   1.74583   1.79848
 Alpha virt. eigenvalues --    1.95199   2.10714   2.16504   2.17062   2.17669
 Alpha virt. eigenvalues --    2.19031   2.23324   2.24531   2.25295   2.26799
 Alpha virt. eigenvalues --    2.27143   2.27411   2.28645   2.28996   2.29667
 Alpha virt. eigenvalues --    2.30141   2.32566   2.32677   2.32726   2.34003
 Alpha virt. eigenvalues --    2.35709   2.36366   2.37244   2.37820   2.38003
 Alpha virt. eigenvalues --    2.39338   2.39351   2.40508   2.46608   2.48752
 Alpha virt. eigenvalues --    2.53272   2.55810   2.58675   2.59593   2.67063
 Alpha virt. eigenvalues --    2.70573   2.72925   2.76501   2.78580   2.88194
 Alpha virt. eigenvalues --    2.93453   2.97603   3.01162   3.09869   3.48933
 Alpha virt. eigenvalues --    3.58149   3.59193   3.59765   3.61823   3.67588
 Alpha virt. eigenvalues --    3.73504   3.83762   3.86413   3.89895   3.96058
 Alpha virt. eigenvalues --    4.12141   4.13799   4.48764   4.50080   5.01191
 Alpha virt. eigenvalues --    5.12634   5.14791   5.33907   5.47829   6.57477
 Alpha virt. eigenvalues --    6.58685   6.86255   6.88078   7.04534   7.16242
 Alpha virt. eigenvalues --    7.16985   7.22100   7.37320   7.49969   7.67774
 Alpha virt. eigenvalues --    7.68204  13.54924  15.29194
          Condensed to atoms (all electrons):
              1          2          3          4
     1  C    5.559217   0.025734   0.025734   0.239657
     2  Br   0.025734  35.045296  -0.118496  -0.056261
     3  Br   0.025734  -0.118496  35.045296  -0.056261
     4  O    0.239657  -0.056261  -0.056261   8.229978
 Mulliken atomic charges:
              1
     1  C    0.149657
     2  Br   0.103727
     3  Br   0.103727
     4  O   -0.357112
 Sum of Mulliken atomic charges =   0.00000
 Mulliken charges with hydrogens summed into heavy atoms:
              1
     1  C    0.149657
     2  Br   0.103727
     3  Br   0.103727
     4  O   -0.357112
 Sum of Mulliken charges with hydrogens summed into heavy atoms =   0.00000
 Electronic spatial extent (au):  <R**2>=           1355.6161
 Charge=              0.0000 electrons
 Dipole moment (field-independent basis, Debye):
    X=              0.0000    Y=              0.0000    Z=             -1.2404  Tot=              1.2404
 Quadrupole moment (field-independent basis, Debye-Ang):
   XX=            -46.9633   YY=            -44.9357   ZZ=            -47.5252
   XY=              0.0000   XZ=              0.0000   YZ=              0.0000
 Traceless Quadrupole moment (field-independent basis, Debye-Ang):
   XX=             -0.4886   YY=              1.5391   ZZ=             -1.0505
   XY=              0.0000   XZ=              0.0000   YZ=              0.0000
 Octapole moment (field-independent basis, Debye-Ang**2):
  XXX=              0.0000  YYY=              0.0000  ZZZ=            164.8162  XYY=              0.0000
  XXY=              0.0000  XXZ=             56.3135  XZZ=              0.0000  YZZ=              0.0000
  YYZ=             45.7169  XYZ=              0.0000
 Hexadecapole moment (field-independent basis, Debye-Ang**3):
 XXXX=            -53.6974 YYYY=           -570.9346 ZZZZ=           -597.1021 XXXY=              0.0000
 XXXZ=              0.0000 YYYX=              0.0000 YYYZ=              0.0000 ZZZX=              0.0000
 ZZZY=              0.0000 XXYY=           -111.3604 XXZZ=           -110.4163 YYZZ=           -175.0970
 XXYZ=              0.0000 YYXZ=              0.0000 ZZXY=              0.0000
 N-N= 4.492323209223D+02 E-N=-1.347022216797D+04  KE= 5.257230208761D+03
 Use density number 7.
 DipInt: DoE/N= T T RetVal/Mat= T F Init=T NMatP=  1 IDeriv=0 Min/MaxMlt=  1  1
 Entering OneElI...
 Multipole integrals L=1 to 1 MinM= 0 MaxM= 0.
 Requested accuracy = 0.1000D-12
 PrsmSu:  NPrtUS=   1 ThrOK=F IAlg=1 NPAlg=1 LenDen=           0.
 Prism:   IPart=     0 DynPar=F LinDyn=F Incr=          21.
 PRISM was handed  1073214117 working-precision words and  2192 shell-pairs
 IPart=  0 NShTot=        2192 NBatch=         106 AvBLen=        20.7
 PrSmSu:  NxtVal=             22.
 Entering OneElI...
 Calculate overlap and kinetic energy integrals
    NBasis = 248  MinDer = 1  MaxDer = 1
 Requested accuracy = 0.1000D-12
 PrsmSu:  NPrtUS=   8 ThrOK=T IAlg=1 NPAlg=1 LenDen=           0.
 Prism:   IPart=     0 DynPar=F LinDyn=F Incr=           2.
 PRISM was handed   133995406 working-precision words and  2211 shell-pairs
 PRISM was handed   133995406 working-precision words and  2211 shell-pairs
 PRISM was handed   133995406 working-precision words and  2211 shell-pairs
 PRISM was handed   133995406 working-precision words and  2211 shell-pairs
 PRISM was handed   133995406 working-precision words and  2211 shell-pairs
 PRISM was handed   133995406 working-precision words and  2211 shell-pairs
 PRISM was handed   133995406 working-precision words and  2211 shell-pairs
 PRISM was handed   133995406 working-precision words and  2211 shell-pairs
 IPart=  5 NShTot=         253 NBatch=          52 AvBLen=         4.9
 IPart=  7 NShTot=         245 NBatch=          48 AvBLen=         5.1
 IPart=  6 NShTot=         245 NBatch=          48 AvBLen=         5.1
 IPart=  4 NShTot=         254 NBatch=          53 AvBLen=         4.8
 IPart=  0 NShTot=         336 NBatch=         129 AvBLen=         2.6
 IPart=  2 NShTot=         277 NBatch=          73 AvBLen=         3.8
 IPart=  3 NShTot=         273 NBatch=          70 AvBLen=         3.9
 IPart=  1 NShTot=         328 NBatch=         121 AvBLen=         2.7
 PrSmSu:  NxtVal=             17.
 Entering OneElI...
 Calculate potential energy integrals
    NBasis = 248  MinDer = 1  MaxDer = 1
 Requested accuracy = 0.1000D-12
 PrsmSu:  NPrtUS=   8 ThrOK=T IAlg=1 NPAlg=1 LenDen=           0.
 Prism:   IPart=     0 DynPar=F LinDyn=F Incr=          10.
 PRISM was handed   134026880 working-precision words and  2143 shell-pairs
 PRISM was handed   134026880 working-precision words and  2143 shell-pairs
 PRISM was handed   134026880 working-precision words and  2143 shell-pairs
 PRISM was handed   134026880 working-precision words and  2143 shell-pairs
 PRISM was handed   134026880 working-precision words and  2143 shell-pairs
 PRISM was handed   134026880 working-precision words and  2143 shell-pairs
 PRISM was handed   134026880 working-precision words and  2143 shell-pairs
 PRISM was handed   134026880 working-precision words and  2143 shell-pairs
 IPart=  7 NShTot=         932 NBatch=         233 AvBLen=         4.0
 IPart=  6 NShTot=         936 NBatch=         234 AvBLen=         4.0
 IPart=  4 NShTot=         984 NBatch=         246 AvBLen=         4.0
 IPart=  5 NShTot=         980 NBatch=         245 AvBLen=         4.0
 IPart=  2 NShTot=        1112 NBatch=         278 AvBLen=         4.0
 IPart=  0 NShTot=        1276 NBatch=         319 AvBLen=         4.0
 IPart=  3 NShTot=        1096 NBatch=         274 AvBLen=         4.0
 IPart=  1 NShTot=        1256 NBatch=         314 AvBLen=         4.0
 PrSmSu:  NxtVal=             81.
 l701 out
 I=    0 X=   0.000000000000D+00 Y=   0.000000000000D+00 Z=  -4.880113462184D-01
 I=    1 X=   0.000000000000D+00 Y=   0.000000000000D+00 Z=  -8.990868869003D-01
 I=    2 X=   0.000000000000D+00 Y=  -5.480604083448D+01 Z=  -1.838841063270D+01
 I=    3 X=   0.000000000000D+00 Y=   5.480604083108D+01 Z=  -1.838841063016D+01
 I=    4 X=   0.000000000000D+00 Y=   0.000000000000D+00 Z=   3.767590814976D+01
 ICntrl=      2127.
 Calling FoFJK, ICntrl=      2127 FMM=F ISym2X=0 I1Cent= 0 IOpClX= 0 NMat=1 NMatS=1 NMatT=0.
 FoFJK:  IHMeth= 1 ICntrl=  2127 DoSepK=F KAlg= 1 I1Cent= 0 FoldK=F
 FoFCou: FMM=F IPFlag=           0 FMFlag=      100000 FMFlg1=         800
         NFxFlg=           0 DoJE=F BraDBF=F KetDBF=F FulRan=T
         Omega=  0.000000  0.000000  1.000000  0.000000  0.000000 ICntrl=    2127 IOpCl=  0
         NMat0=    1 NMatS0=    1 NMatT0=    0 NMatD0=    1 NMtDS0=    0 NMtDT0=    0
         I1Cent=           0 NGrid=           0.
 Symmetry not used in FoFCou.
 FoFCou:  KetSym=F NOpSet=  1 NOpAb=1 NOp=  1.
 FoFCou:  CnvScl= 1.00D+00 Thresh= 1.00D-10
 PrismS was handed  1073303218 working-precision words and  2199 shell-pairs
 FoFCou: LinMIO=F DoNuc=F BraDBF=F KetDBF=F HaveP=T PDBF=F HaveZ=T HaveW=F
         NIJTC =      10 NIJTAt=       0 NIJTCD=       0 NIJTT =      10
         IJTBeg=       1 IJTEnd=      10 KLTBeg=       1 KLTEnd=      10
         IPTBeg=       1 IPTEnd=      10 IPTBCv=       1 IPTECv=      10
         IZTBeg=       1 IZTEnd=      10 IZTBCv=       1 IZTECv=      10
         IWTBeg=      11 IWTEnd=      10 IWTBCv=      11 IWTECv=      10
         INTBeg=       1 INTEnd=       0 IFTBCv=       1 IFTECv=      10
 NCel replicated for PrismC:     1
 CoulSu:  IncDef=  1024 NBBP=        2418900 NTPThr=   100 NPartT=    8 Incr=        1024 LDynOK=F.
 CoulSu:  NPrtUS=   8 ThrOK=T IAlg=1 NPAlg=1 LenDen=           0.
 Enter PrismC: JobTyp=21 DoJE=F Cont=F.
 PrismC:  IPart=     0 DynPar=T LinDyn=F Incr=        1024 UseFst=F UseS4=T.
 PrismC was handed   134032546 working-precision words and  2199 shell-pairs
 Enter PrismC: JobTyp=21 DoJE=F Cont=F.
 PrismC was handed   134032546 working-precision words and  2199 shell-pairs
 Enter PrismC: JobTyp=21 DoJE=F Cont=F.
 PrismC was handed   134032546 working-precision words and  2199 shell-pairs
 Enter PrismC: JobTyp=21 DoJE=F Cont=F.
 Enter PrismC: JobTyp=21 DoJE=F Cont=F.
 Enter PrismC: JobTyp=21 DoJE=F Cont=F.
 PrismC was handed   134032546 working-precision words and  2199 shell-pairs
 Enter PrismC: JobTyp=21 DoJE=F Cont=F.
 Enter PrismC: JobTyp=21 DoJE=F Cont=F.
 PrismC was handed   134032546 working-precision words and  2199 shell-pairs
 PrismC was handed   134032546 working-precision words and  2199 shell-pairs
 PrismC was handed   134032546 working-precision words and  2199 shell-pairs
 PrismC was handed   134032546 working-precision words and  2199 shell-pairs
 IPart=  5 NShTot=      260355 NShNF=      260355 NShFF=           0 NBatch=        1605 AvBLen=       162.2
 IPart=  0 NShTot=      258503 NShNF=      258503 NShFF=           0 NBatch=        1740 AvBLen=       148.6
 IPart=  3 NShTot=      280817 NShNF=      280817 NShFF=           0 NBatch=        1699 AvBLen=       165.3
 IPart=  7 NShTot=      233750 NShNF=      233750 NShFF=           0 NBatch=        1429 AvBLen=       163.6
 IPart=  2 NShTot=      261445 NShNF=      261445 NShFF=           0 NBatch=        1626 AvBLen=       160.8
 IPart=  1 NShTot=      268181 NShNF=      268181 NShFF=           0 NBatch=        1555 AvBLen=       172.5
 IPart=  4 NShTot=      307368 NShNF=      307368 NShFF=           0 NBatch=        1704 AvBLen=       180.4
 IPart=  6 NShTot=      266225 NShNF=      266225 NShFF=           0 NBatch=        1678 AvBLen=       158.7
 CoulSu:  NxtVal=        2501633.
 Forces at end of L703
 I=    0 X=   0.000000000000D+00 Y=   0.000000000000D+00 Z=  -4.880113462184D-01
 I=    1 X=   0.000000000000D+00 Y=   0.000000000000D+00 Z=  -8.041091324318D-05
 I=    2 X=   0.000000000000D+00 Y=  -1.524043258883D-05 Z=   6.873272954522D-05
 I=    3 X=   0.000000000000D+00 Y=   1.524043316437D-05 Z=   6.873272890928D-05
 I=    4 X=   0.000000000000D+00 Y=   0.000000000000D+00 Z=  -5.705454540106D-05
 FrcOut:
 IF    =    58 IFX   =    70 IFXYZ =    82
 IFFX  =    94 IFFFX =    94 IFLen =    12
 IFFLen=     0 IFFFLn=     0 IEDerv=    94
 LEDerv=   629 IFroze=   727 ICStrt= 89400
 DipInt: DoE/N= T T RetVal/Mat= T F Init=T NMatP=  1 IDeriv=0 Min/MaxMlt=  1  1
 Entering OneElI...
 Multipole integrals L=1 to 1 MinM= 0 MaxM= 0.
 Requested accuracy = 0.1000D-12
 PrsmSu:  NPrtUS=   1 ThrOK=F IAlg=1 NPAlg=1 LenDen=           0.
 Prism:   IPart=     0 DynPar=F LinDyn=F Incr=          21.
 PRISM was handed  1073279119 working-precision words and  2192 shell-pairs
 IPart=  0 NShTot=        2192 NBatch=         106 AvBLen=        20.7
 PrSmSu:  NxtVal=             22.
 Computed dipole moment (without fudge factor):
 X= 0.3401066942273D-13   Y= 0.6252776074689D-12   Z=-0.4880113462184D+00
 Quadrupole    =-3.63242936D-01 1.14426043D+00-7.81017498D-01
                -5.13552728D-14-9.07144766D-14-6.77502499D-12
 -------------------------------------------------------------------
 Center     Atomic                   Forces (Hartrees/Bohr)
 Number     Number              X              Y              Z
 -------------------------------------------------------------------
      1        6           0.000000000    0.000000000    0.000080411
      2       35           0.000000000    0.000015240   -0.000068733
      3       35           0.000000000   -0.000015240   -0.000068733
      4        8           0.000000000    0.000000000    0.000057055
 -------------------------------------------------------------------
 Cartesian Forces:  Max     0.000080411 RMS     0.000040450
 Z-matrix is all fixed cartesians, so copy forces.
 Final forces over variables, Energy=-5.25855777D+03:
 -1.64124239D-13 1.05951085D-13-2.12321399D-14 7.94052937D-14
  2.45217806D-12 1.52404326D-05-1.52404332D-05-1.56424868D-12
  8.04109132D-05-6.87327295D-05-6.87327289D-05 5.70545454D-05
 NDeriv=  12 NFrqRd=  0 LFDDif=       1
 NDeriv=  12 NFrqRd=  0 LFDDif=       1
 At 1st pt Frequency-dependent properties file   721 does not exist.
 D2Numr ... symmetry will not be used.
 Standard basis: Aug-CC-pVTZ (5D, 7F)
 Integral buffers will be    131072 words long.
 Raffenetti 1 integral format.
 Two-electron integral symmetry is turned off.
   210 basis functions,   578 primitive gaussians,   248 cartesian basis functions
    42 alpha electrons       42 beta electrons
       nuclear repulsion energy       449.2322972124 Hartrees.
 NAtoms=    4 NActive=    4 NUniq=    4 SFac= 1.00D+00 NAtFMM=   50 NAOKFM=F Big=F
 One-electron integrals computed using PRISM.
 NBasis=   210 RedAO= T  NBF=   210
 NBsUse=   210 1.00D-06 NBFU=   210
 Initial guess read from the read-write file.
 B after Tr=     0.000000    0.000000    0.000000
         Rot=    1.000000    0.000000    0.000000    0.000000 Ang=   0.00 deg.
 Requested convergence on RMS density matrix=1.00D-08 within 128 cycles.
 Requested convergence on MAX density matrix=1.00D-06.
 Requested convergence on             energy=1.00D-06.
 No special actions if energy rises.
 Keep R1 ints in memory in canonical form, NReq=484604278.
 SCF Done:  E(RHF) =  -5257.68454909     A.U. after    7 cycles
             Convg  =    0.1944D-08             -V/T =  2.0000
 ExpMin= 3.51D-02 ExpMax= 1.06D+07 ExpMxC= 1.21D+04 IAcc=3 IRadAn=         5 AccDes= 0.00D+00
 HarFok:  IExCor=  205 AccDes= 0.00D+00 IRadAn=         5 IDoV=-2
 ScaDFX=  1.000000  1.000000  1.000000  1.000000
 DSYEVD returned Info=          89 IAlg= 4 N=    59 NDim=    59 NE2=    18196533 trying DSYEV.
 DSYEVD returned Info=          93 IAlg= 4 N=    46 NDim=    46 NE2=    18196533 trying DSYEV.
 Range of M.O.s used for correlation:    21   210
 NBasis=   210 NAE=    42 NBE=    42 NFC=    20 NFV=     0
 NROrb=    190 NOA=    22 NOB=    22 NVA=   168 NVB=   168

 **** Warning!!: The largest alpha MO coefficient is  0.28109488D+02

 Semi-Direct transformation.
 ModeAB=           2 MOrb=            22 LenV=    1072497277
 LASXX=     69628944 LTotXX=    69628944 LenRXX=    69628944
 LTotAB=    70719517 MaxLAS=   129061680 LenRXY=   129061680
 NonZer=   139257888 LenScr=   209707008 LnRSAI=           0
 LnScr1=           0 LExtra=           0 Total=    408397632
 MaxDsk=          -1 SrtSym=           F ITran=            4
 JobTyp=0 Pass  1:  I=   1 to  22.
 (rs|ai) integrals will be sorted in core.
 Spin components of T(2) and E(2):
     alpha-alpha T2 =       0.3832196757D-01 E2=     -0.1232779057D+00
     alpha-beta  T2 =       0.1924923925D+00 E2=     -0.6175053703D+00
     beta-beta   T2 =       0.3832196757D-01 E2=     -0.1232779057D+00
 ANorm=    0.1126559509D+01
 E2 =    -0.8640611817D+00 EUMP2 =    -0.52585486102696D+04
 R2 and R3 integrals will be kept in memory, NReq=   961077252.
 Iterations=  50 Convergence= 0.100D-07
 Iteration Nr.   1
 **********************
 DD1Dir will call FoFMem   1 times, MxPair=       506
 NAB=   253 NAA=     0 NBB=     0.
 MP4(R+Q)=  0.21479128D-01
 E3=        0.13942607D-03        EUMP3=      -0.52585484708D+04
 E4(DQ)=    0.26938916D-03        UMP4(DQ)=   -0.52585482015D+04
 E4(SDQ)=  -0.11697381D-01        UMP4(SDQ)=  -0.52585601682D+04
 DE(Corr)= -0.84244263     E(Corr)=     -5258.5269917    
 NORM(A)=   0.11248481D+01
 Iteration Nr.   2
 **********************
 DD1Dir will call FoFMem   1 times, MxPair=       506
 NAB=   253 NAA=     0 NBB=     0.
 DE(Corr)= -0.87233846     E(CORR)=     -5258.5568875     Delta=-2.99D-02
 NORM(A)=   0.11352476D+01
 Iteration Nr.   3
 **********************
 DD1Dir will call FoFMem   1 times, MxPair=       506
 NAB=   253 NAA=     0 NBB=     0.
 DE(Corr)= -0.87023447     E(CORR)=     -5258.5547836     Delta= 2.10D-03
 NORM(A)=   0.11380095D+01
 Iteration Nr.   4
 **********************
 DD1Dir will call FoFMem   1 times, MxPair=       506
 NAB=   253 NAA=     0 NBB=     0.
 DE(Corr)= -0.87276478     E(CORR)=     -5258.5573139     Delta=-2.53D-03
 NORM(A)=   0.11393222D+01
 Iteration Nr.   5
 **********************
 DD1Dir will call FoFMem   1 times, MxPair=       506
 NAB=   253 NAA=     0 NBB=     0.
 DE(Corr)= -0.87313920     E(CORR)=     -5258.5576883     Delta=-3.74D-04
 NORM(A)=   0.11398371D+01
 Iteration Nr.   6
 **********************
 DD1Dir will call FoFMem   1 times, MxPair=       506
 NAB=   253 NAA=     0 NBB=     0.
 DE(Corr)= -0.87320347     E(CORR)=     -5258.5577526     Delta=-6.43D-05
 NORM(A)=   0.11399411D+01
 Iteration Nr.   7
 **********************
 DD1Dir will call FoFMem   1 times, MxPair=       506
 NAB=   253 NAA=     0 NBB=     0.
 DE(Corr)= -0.87321778     E(CORR)=     -5258.5577669     Delta=-1.43D-05
 NORM(A)=   0.11399499D+01
 Iteration Nr.   8
 **********************
 DD1Dir will call FoFMem   1 times, MxPair=       506
 NAB=   253 NAA=     0 NBB=     0.
 DE(Corr)= -0.87321811     E(CORR)=     -5258.5577672     Delta=-3.34D-07
 NORM(A)=   0.11399650D+01
 Iteration Nr.   9
 **********************
 DD1Dir will call FoFMem   1 times, MxPair=       506
 NAB=   253 NAA=     0 NBB=     0.
 DE(Corr)= -0.87321619     E(CORR)=     -5258.5577653     Delta= 1.92D-06
 NORM(A)=   0.11399649D+01
 Iteration Nr.  10
 **********************
 DD1Dir will call FoFMem   1 times, MxPair=       506
 NAB=   253 NAA=     0 NBB=     0.
 DE(Corr)= -0.87321760     E(CORR)=     -5258.5577667     Delta=-1.41D-06
 NORM(A)=   0.11399676D+01
 Iteration Nr.  11
 **********************
 DD1Dir will call FoFMem   1 times, MxPair=       506
 NAB=   253 NAA=     0 NBB=     0.
 DE(Corr)= -0.87321873     E(CORR)=     -5258.5577678     Delta=-1.13D-06
 NORM(A)=   0.11399694D+01
 Iteration Nr.  12
 **********************
 DD1Dir will call FoFMem   1 times, MxPair=       506
 NAB=   253 NAA=     0 NBB=     0.
 DE(Corr)= -0.87321904     E(CORR)=     -5258.5577681     Delta=-3.16D-07
 NORM(A)=   0.11399705D+01
 Iteration Nr.  13
 **********************
 DD1Dir will call FoFMem   1 times, MxPair=       506
 NAB=   253 NAA=     0 NBB=     0.
 DE(Corr)= -0.87321951     E(CORR)=     -5258.5577686     Delta=-4.66D-07
 NORM(A)=   0.11399712D+01
 Iteration Nr.  14
 **********************
 DD1Dir will call FoFMem   1 times, MxPair=       506
 NAB=   253 NAA=     0 NBB=     0.
 DE(Corr)= -0.87321962     E(CORR)=     -5258.5577687     Delta=-1.09D-07
 NORM(A)=   0.11399715D+01
 Iteration Nr.  15
 **********************
 DD1Dir will call FoFMem   1 times, MxPair=       506
 NAB=   253 NAA=     0 NBB=     0.
 DE(Corr)= -0.87321969     E(CORR)=     -5258.5577688     Delta=-6.94D-08
 NORM(A)=   0.11399716D+01
 Iteration Nr.  16
 **********************
 DD1Dir will call FoFMem   1 times, MxPair=       506
 NAB=   253 NAA=     0 NBB=     0.
 DE(Corr)= -0.87321972     E(CORR)=     -5258.5577688     Delta=-3.01D-08
 NORM(A)=   0.11399717D+01
 Iteration Nr.  17
 **********************
 DD1Dir will call FoFMem   1 times, MxPair=       506
 NAB=   253 NAA=     0 NBB=     0.
 DE(Corr)= -0.87321972     E(CORR)=     -5258.5577688     Delta= 3.66D-09
 NORM(A)=   0.11399717D+01
 Iteration Nr.  18
 **********************
 DD1Dir will call FoFMem   1 times, MxPair=       506
 NAB=   253 NAA=     0 NBB=     0.
 DE(Corr)= -0.87321971     E(CORR)=     -5258.5577688     Delta= 2.55D-09
 NORM(A)=   0.11399717D+01
 Iteration Nr.  19
 **********************
 DD1Dir will call FoFMem   1 times, MxPair=       506
 NAB=   253 NAA=     0 NBB=     0.
 DE(Corr)= -0.87321973     E(CORR)=     -5258.5577688     Delta=-1.60D-08
 NORM(A)=   0.11399729D+01
 Iteration Nr.  20
 **********************
 DD1Dir will call FoFMem   1 times, MxPair=       506
 NAB=   253 NAA=     0 NBB=     0.
 DE(Corr)= -0.87321997     E(CORR)=     -5258.5577691     Delta=-2.37D-07
 NORM(A)=   0.11399722D+01
 Iteration Nr.  21
 **********************
 DD1Dir will call FoFMem   1 times, MxPair=       506
 NAB=   253 NAA=     0 NBB=     0.
 DE(Corr)= -0.87321983     E(CORR)=     -5258.5577689     Delta= 1.36D-07
 NORM(A)=   0.11399716D+01
 Iteration Nr.  22
 **********************
 DD1Dir will call FoFMem   1 times, MxPair=       506
 NAB=   253 NAA=     0 NBB=     0.
 DE(Corr)= -0.87321967     E(CORR)=     -5258.5577688     Delta= 1.57D-07
 NORM(A)=   0.11399718D+01
 Iteration Nr.  23
 **********************
 DD1Dir will call FoFMem   1 times, MxPair=       506
 NAB=   253 NAA=     0 NBB=     0.
 DE(Corr)= -0.87321973     E(CORR)=     -5258.5577688     Delta=-5.55D-08
 NORM(A)=   0.11399717D+01
 Iteration Nr.  24
 **********************
 DD1Dir will call FoFMem   1 times, MxPair=       506
 NAB=   253 NAA=     0 NBB=     0.
 DE(Corr)= -0.87321973     E(CORR)=     -5258.5577688     Delta= 3.26D-09
 NORM(A)=   0.11399717D+01
 Iteration Nr.  25
 **********************
 DD1Dir will call FoFMem   1 times, MxPair=       506
 NAB=   253 NAA=     0 NBB=     0.
 DE(Corr)= -0.87321972     E(CORR)=     -5258.5577688     Delta= 4.69D-09
 NORM(A)=   0.11399717D+01
 Largest amplitude= 4.23D-02

 Z-AMPLITUDE ITERATIONS

 Iteration Nr.   1
 **********************
 DD1Dir will call FoFMem   1 times, MxPair=       506
 NAB=   253 NAA=     0 NBB=     0.
 DE(Z)  -0.84604536D+00          E(Z)=    -0.52585305944D+04
 NORM(A)=   0.11398597D+01
 Iteration Nr.   2
 **********************
 DD1Dir will call FoFMem   1 times, MxPair=       506
 NAB=   253 NAA=     0 NBB=     0.
 DE(Z)  -0.84604517D+00          E(Z)=    -0.52585305943D+04
 NORM(A)=   0.11416702D+01
 Iteration Nr.   3
 **********************
 DD1Dir will call FoFMem   1 times, MxPair=       506
 NAB=   253 NAA=     0 NBB=     0.
 DE(Z)  -0.84604765D+00          E(Z)=    -0.52585305967D+04
 NORM(A)=   0.11396942D+01
 Iteration Nr.   4
 **********************
 DD1Dir will call FoFMem   1 times, MxPair=       506
 NAB=   253 NAA=     0 NBB=     0.
 DE(Z)  -0.84604506D+00          E(Z)=    -0.52585305941D+04
 NORM(A)=   0.11413480D+01
 Iteration Nr.   5
 **********************
 DD1Dir will call FoFMem   1 times, MxPair=       506
 NAB=   253 NAA=     0 NBB=     0.
 DE(Z)  -0.84605081D+00          E(Z)=    -0.52585305999D+04
 NORM(A)=   0.11301177D+01
 Iteration Nr.   6
 **********************
 DD1Dir will call FoFMem   1 times, MxPair=       506
 NAB=   253 NAA=     0 NBB=     0.
 DE(Z)  -0.84601534D+00          E(Z)=    -0.52585305644D+04
 NORM(A)=   0.11301191D+01
 Iteration Nr.   7
 **********************
 DD1Dir will call FoFMem   1 times, MxPair=       506
 NAB=   253 NAA=     0 NBB=     0.
 DE(Z)  -0.84601118D+00          E(Z)=    -0.52585305603D+04
 NORM(A)=   0.11301184D+01
 Iteration Nr.   8
 **********************
 DD1Dir will call FoFMem   1 times, MxPair=       506
 NAB=   253 NAA=     0 NBB=     0.
 DE(Z)  -0.84601339D+00          E(Z)=    -0.52585305625D+04
 NORM(A)=   0.11301191D+01
 Iteration Nr.   9
 **********************
 DD1Dir will call FoFMem   1 times, MxPair=       506
 NAB=   253 NAA=     0 NBB=     0.
 DE(Z)  -0.84601317D+00          E(Z)=    -0.52585305623D+04
 NORM(A)=   0.11301193D+01
 Iteration Nr.  10
 **********************
 DD1Dir will call FoFMem   1 times, MxPair=       506
 NAB=   253 NAA=     0 NBB=     0.
 DE(Z)  -0.84601319D+00          E(Z)=    -0.52585305623D+04
 NORM(A)=   0.11301194D+01
 Iteration Nr.  11
 **********************
 DD1Dir will call FoFMem   1 times, MxPair=       506
 NAB=   253 NAA=     0 NBB=     0.
 DE(Z)  -0.84601321D+00          E(Z)=    -0.52585305623D+04
 NORM(A)=   0.11301195D+01
 Iteration Nr.  12
 **********************
 DD1Dir will call FoFMem   1 times, MxPair=       506
 NAB=   253 NAA=     0 NBB=     0.
 DE(Z)  -0.84601318D+00          E(Z)=    -0.52585305623D+04
 NORM(A)=   0.11301197D+01
 Iteration Nr.  13
 **********************
 DD1Dir will call FoFMem   1 times, MxPair=       506
 NAB=   253 NAA=     0 NBB=     0.
 DE(Z)  -0.84601316D+00          E(Z)=    -0.52585305622D+04
 NORM(A)=   0.11301195D+01
 Iteration Nr.  14
 **********************
 DD1Dir will call FoFMem   1 times, MxPair=       506
 NAB=   253 NAA=     0 NBB=     0.
 DE(Z)  -0.84601322D+00          E(Z)=    -0.52585305623D+04
 NORM(A)=   0.11301195D+01
 Iteration Nr.  15
 **********************
 DD1Dir will call FoFMem   1 times, MxPair=       506
 NAB=   253 NAA=     0 NBB=     0.
 DE(Z)  -0.84601320D+00          E(Z)=    -0.52585305623D+04
 NORM(A)=   0.11301194D+01
 Iteration Nr.  16
 **********************
 DD1Dir will call FoFMem   1 times, MxPair=       506
 NAB=   253 NAA=     0 NBB=     0.
 DE(Z)  -0.84601321D+00          E(Z)=    -0.52585305623D+04
 NORM(A)=   0.11301194D+01
 Iteration Nr.  17
 **********************
 DD1Dir will call FoFMem   1 times, MxPair=       506
 NAB=   253 NAA=     0 NBB=     0.
 DE(Z)  -0.84601321D+00          E(Z)=    -0.52585305623D+04
 NORM(A)=   0.11301194D+01
 Iteration Nr.  18
 **********************
 DD1Dir will call FoFMem   1 times, MxPair=       506
 NAB=   253 NAA=     0 NBB=     0.
 DE(Z)  -0.84601321D+00          E(Z)=    -0.52585305623D+04
 NORM(A)=   0.11301195D+01
 Iteration Nr.  19
 **********************
 DD1Dir will call FoFMem   1 times, MxPair=       506
 NAB=   253 NAA=     0 NBB=     0.
 DE(Z)  -0.84601321D+00          E(Z)=    -0.52585305623D+04
 NORM(A)=   0.11301195D+01
 Iteration Nr.  20
 **********************
 DD1Dir will call FoFMem   1 times, MxPair=       506
 NAB=   253 NAA=     0 NBB=     0.
 DE(Z)  -0.84601321D+00          E(Z)=    -0.52585305623D+04
 NORM(A)=   0.11301194D+01
 Iteration Nr.  21
 **********************
 DD1Dir will call FoFMem   1 times, MxPair=       506
 NAB=   253 NAA=     0 NBB=     0.
 DE(Z)  -0.84601321D+00          E(Z)=    -0.52585305623D+04
 NORM(A)=   0.11301194D+01
 Discarding MO integrals.
          IDoAtm=1111
          Differentiating once with respect to electric field.
                with respect to dipole field.
          Differentiating once with respect to nuclear coordinates.
          Keep R1 ints in memory in canonical form, NReq=478620425.
          There are     1 degrees of freedom in the 1st order CPHF.  IDoFFX=0.
 LinEq1:  Iter=  0 NonCon=     1 RMS=1.95D-03 Max=5.61D-02
 AX will form     1 AO Fock derivatives at one time.
 LinEq1:  Iter=  1 NonCon=     1 RMS=7.40D-04 Max=2.61D-02
 LinEq1:  Iter=  2 NonCon=     1 RMS=3.09D-04 Max=9.34D-03
 LinEq1:  Iter=  3 NonCon=     1 RMS=1.03D-04 Max=2.97D-03
 LinEq1:  Iter=  4 NonCon=     1 RMS=5.33D-05 Max=1.64D-03
 LinEq1:  Iter=  5 NonCon=     1 RMS=1.64D-05 Max=4.65D-04
 LinEq1:  Iter=  6 NonCon=     1 RMS=6.29D-06 Max=1.31D-04
 LinEq1:  Iter=  7 NonCon=     1 RMS=1.35D-06 Max=2.12D-05
 LinEq1:  Iter=  8 NonCon=     1 RMS=2.69D-07 Max=4.30D-06
 LinEq1:  Iter=  9 NonCon=     1 RMS=6.50D-08 Max=1.21D-06
 LinEq1:  Iter= 10 NonCon=     1 RMS=1.39D-08 Max=2.08D-07
 LinEq1:  Iter= 11 NonCon=     1 RMS=3.90D-09 Max=9.55D-08
 LinEq1:  Iter= 12 NonCon=     1 RMS=7.18D-10 Max=1.62D-08
 LinEq1:  Iter= 13 NonCon=     1 RMS=1.20D-10 Max=2.63D-09
 LinEq1:  Iter= 14 NonCon=     0 RMS=1.85D-11 Max=4.29D-10
 Linear equations converged to 1.000D-10 1.000D-09 after    14 iterations.
 End of Minotr Frequency-dependent properties file   721 does not exist.
 End of Minotr Frequency-dependent properties file   722 does not exist.

 **********************************************************************

            Population analysis using the QCI/CC density.

 **********************************************************************

 Alpha  occ. eigenvalues -- -490.06638-490.06638 -65.20633 -65.20633 -58.56165
 Alpha  occ. eigenvalues --  -58.56165 -58.56015 -58.56015 -58.55998 -58.55998
 Alpha  occ. eigenvalues --  -20.62832 -11.46325  -9.87940  -9.87940  -7.49128
 Alpha  occ. eigenvalues --   -7.49127  -7.48407  -7.48406  -7.48336  -7.48335
 Alpha  occ. eigenvalues --   -3.23522  -3.23522  -3.23165  -3.23163  -3.23069
 Alpha  occ. eigenvalues --   -3.23068  -3.22160  -3.22159  -3.22158  -3.22157
 Alpha  occ. eigenvalues --   -1.48400  -1.10818  -1.04780  -0.79379  -0.68342
 Alpha  occ. eigenvalues --   -0.67614  -0.63062  -0.47901  -0.46167  -0.45791
 Alpha  occ. eigenvalues --   -0.45104  -0.43156
 Alpha virt. eigenvalues --    0.03790   0.05638   0.07006   0.07544   0.08199
 Alpha virt. eigenvalues --    0.09328   0.09994   0.10256   0.10940   0.11868
 Alpha virt. eigenvalues --    0.13017   0.13181   0.17481   0.19374   0.21889
 Alpha virt. eigenvalues --    0.22373   0.23248   0.24159   0.25848   0.26652
 Alpha virt. eigenvalues --    0.27523   0.28944   0.31893   0.32940   0.35605
 Alpha virt. eigenvalues --    0.36769   0.37009   0.39727   0.41344   0.43786
 Alpha virt. eigenvalues --    0.44682   0.46414   0.46631   0.49567   0.49658
 Alpha virt. eigenvalues --    0.52593   0.55724   0.56293   0.58706   0.60139
 Alpha virt. eigenvalues --    0.60836   0.63136   0.69493   0.70121   0.71486
 Alpha virt. eigenvalues --    0.71870   0.74565   0.75884   0.77553   0.78530
 Alpha virt. eigenvalues --    0.79396   0.82306   0.83576   0.85027   0.88439
 Alpha virt. eigenvalues --    0.88445   0.89892   0.90088   0.91468   0.93823
 Alpha virt. eigenvalues --    0.94754   0.98082   1.00453   1.01613   1.02914
 Alpha virt. eigenvalues --    1.05487   1.06676   1.11242   1.13075   1.13256
 Alpha virt. eigenvalues --    1.17145   1.17717   1.18749   1.30605   1.34477
 Alpha virt. eigenvalues --    1.36374   1.36482   1.40584   1.43883   1.44824
 Alpha virt. eigenvalues --    1.44904   1.45490   1.51424   1.52388   1.53186
 Alpha virt. eigenvalues --    1.62941   1.63526   1.70602   1.74583   1.79848
 Alpha virt. eigenvalues --    1.95199   2.10714   2.16504   2.17063   2.17669
 Alpha virt. eigenvalues --    2.19031   2.23324   2.24531   2.25295   2.26799
 Alpha virt. eigenvalues --    2.27143   2.27411   2.28645   2.28996   2.29667
 Alpha virt. eigenvalues --    2.30141   2.32566   2.32677   2.32726   2.34003
 Alpha virt. eigenvalues --    2.35709   2.36367   2.37244   2.37820   2.38003
 Alpha virt. eigenvalues --    2.39338   2.39351   2.40508   2.46608   2.48752
 Alpha virt. eigenvalues --    2.53272   2.55810   2.58675   2.59593   2.67063
 Alpha virt. eigenvalues --    2.70573   2.72925   2.76501   2.78579   2.88194
 Alpha virt. eigenvalues --    2.93453   2.97604   3.01162   3.09869   3.48933
 Alpha virt. eigenvalues --    3.58149   3.59192   3.59766   3.61823   3.67588
 Alpha virt. eigenvalues --    3.73504   3.83762   3.86413   3.89895   3.96058
 Alpha virt. eigenvalues --    4.12140   4.13799   4.48764   4.50080   5.01190
 Alpha virt. eigenvalues --    5.12634   5.14791   5.33906   5.47829   6.57477
 Alpha virt. eigenvalues --    6.58685   6.86255   6.88078   7.04534   7.16242
 Alpha virt. eigenvalues --    7.16985   7.22100   7.37319   7.49969   7.67773
 Alpha virt. eigenvalues --    7.68204  13.54923  15.29192
          Condensed to atoms (all electrons):
              1          2          3          4
     1  C    5.559217   0.025734   0.025734   0.239657
     2  Br   0.025734  35.045295  -0.118496  -0.056261
     3  Br   0.025734  -0.118496  35.045295  -0.056261
     4  O    0.239657  -0.056261  -0.056261   8.229977
 Mulliken atomic charges:
              1
     1  C    0.149658
     2  Br   0.103727
     3  Br   0.103727
     4  O   -0.357112
 Sum of Mulliken atomic charges =   0.00000
 Mulliken charges with hydrogens summed into heavy atoms:
              1
     1  C    0.149658
     2  Br   0.103727
     3  Br   0.103727
     4  O   -0.357112
 Sum of Mulliken charges with hydrogens summed into heavy atoms =   0.00000
 Electronic spatial extent (au):  <R**2>=           1355.6162
 Charge=              0.0000 electrons
 Dipole moment (field-independent basis, Debye):
    X=              0.0006    Y=              0.0000    Z=             -1.2404  Tot=              1.2404
 Quadrupole moment (field-independent basis, Debye-Ang):
   XX=            -46.9633   YY=            -44.9357   ZZ=            -47.5252
   XY=              0.0000   XZ=              0.0024   YZ=              0.0000
 Traceless Quadrupole moment (field-independent basis, Debye-Ang):
   XX=             -0.4886   YY=              1.5391   ZZ=             -1.0505
   XY=              0.0000   XZ=              0.0024   YZ=              0.0000
 Octapole moment (field-independent basis, Debye-Ang**2):
  XXX=             -0.0161  YYY=              0.0000  ZZZ=            164.8162  XYY=             -0.0162
  XXY=              0.0000  XXZ=             56.3135  XZZ=             -0.0137  YZZ=              0.0000
  YYZ=             45.7170  XYZ=              0.0000
 Hexadecapole moment (field-independent basis, Debye-Ang**3):
 XXXX=            -53.6974 YYYY=           -570.9346 ZZZZ=           -597.1022 XXXY=              0.0000
 XXXZ=              0.0117 YYYX=              0.0000 YYYZ=              0.0000 ZZZX=              0.0297
 ZZZY=              0.0000 XXYY=           -111.3604 XXZZ=           -110.4163 YYZZ=           -175.0970
 XXYZ=              0.0000 YYXZ=              0.0261 ZZXY=              0.0000
 N-N= 4.492322972124D+02 E-N=-1.347022212130D+04  KE= 5.257230207064D+03
 Use density number 7.
 DipInt: DoE/N= T T RetVal/Mat= T F Init=T NMatP=  1 IDeriv=0 Min/MaxMlt=  1  1
 Entering OneElI...
 Multipole integrals L=1 to 1 MinM= 0 MaxM= 0.
 Requested accuracy = 0.1000D-12
 PrsmSu:  NPrtUS=   1 ThrOK=F IAlg=1 NPAlg=1 LenDen=           0.
 Prism:   IPart=     0 DynPar=F LinDyn=F Incr=          21.
 PRISM was handed  1073214117 working-precision words and  2192 shell-pairs
 IPart=  0 NShTot=        2192 NBatch=         106 AvBLen=        20.7
 PrSmSu:  NxtVal=             22.
 Entering OneElI...
 Calculate overlap and kinetic energy integrals
    NBasis = 248  MinDer = 1  MaxDer = 1
 Requested accuracy = 0.1000D-12
 PrsmSu:  NPrtUS=   8 ThrOK=T IAlg=1 NPAlg=1 LenDen=           0.
 Prism:   IPart=     0 DynPar=F LinDyn=F Incr=           2.
 PRISM was handed   133995406 working-precision words and  2211 shell-pairs
 PRISM was handed   133995406 working-precision words and  2211 shell-pairs
 PRISM was handed   133995406 working-precision words and  2211 shell-pairs
 PRISM was handed   133995406 working-precision words and  2211 shell-pairs
 PRISM was handed   133995406 working-precision words and  2211 shell-pairs
 PRISM was handed   133995406 working-precision words and  2211 shell-pairs
 PRISM was handed   133995406 working-precision words and  2211 shell-pairs
 PRISM was handed   133995406 working-precision words and  2211 shell-pairs
 IPart=  7 NShTot=         245 NBatch=          48 AvBLen=         5.1
 IPart=  5 NShTot=         253 NBatch=          52 AvBLen=         4.9
 IPart=  2 NShTot=         277 NBatch=          73 AvBLen=         3.8
 IPart=  3 NShTot=         273 NBatch=          70 AvBLen=         3.9
 IPart=  1 NShTot=         328 NBatch=         121 AvBLen=         2.7
 IPart=  6 NShTot=         245 NBatch=          48 AvBLen=         5.1
 IPart=  4 NShTot=         254 NBatch=          53 AvBLen=         4.8
 IPart=  0 NShTot=         336 NBatch=         129 AvBLen=         2.6
 PrSmSu:  NxtVal=             17.
 Entering OneElI...
 Calculate potential energy integrals
    NBasis = 248  MinDer = 1  MaxDer = 1
 Requested accuracy = 0.1000D-12
 PrsmSu:  NPrtUS=   8 ThrOK=T IAlg=1 NPAlg=1 LenDen=           0.
 Prism:   IPart=     0 DynPar=F LinDyn=F Incr=          10.
 PRISM was handed   134026880 working-precision words and  2143 shell-pairs
 PRISM was handed   134026880 working-precision words and  2143 shell-pairs
 PRISM was handed   134026880 working-precision words and  2143 shell-pairs
 PRISM was handed   134026880 working-precision words and  2143 shell-pairs
 PRISM was handed   134026880 working-precision words and  2143 shell-pairs
 PRISM was handed   134026880 working-precision words and  2143 shell-pairs
 PRISM was handed   134026880 working-precision words and  2143 shell-pairs
 PRISM was handed   134026880 working-precision words and  2143 shell-pairs
 IPart=  7 NShTot=         932 NBatch=         233 AvBLen=         4.0
 IPart=  4 NShTot=         984 NBatch=         246 AvBLen=         4.0
 IPart=  5 NShTot=         980 NBatch=         245 AvBLen=         4.0
 IPart=  2 NShTot=        1112 NBatch=         278 AvBLen=         4.0
 IPart=  0 NShTot=        1276 NBatch=         319 AvBLen=         4.0
 IPart=  3 NShTot=        1096 NBatch=         274 AvBLen=         4.0
 IPart=  1 NShTot=        1256 NBatch=         314 AvBLen=         4.0
 IPart=  6 NShTot=         936 NBatch=         234 AvBLen=         4.0
 PrSmSu:  NxtVal=             81.
 l701 out
 I=    0 X=   2.336906295301D-04 Y=   0.000000000000D+00 Z=  -4.880104668974D-01
 I=    1 X=   3.861479916948D-02 Y=   0.000000000000D+00 Z=  -8.990461039910D-01
 I=    2 X=  -9.992961775812D-03 Y=  -5.480603833609D+01 Z=  -1.838842002817D+01
 I=    3 X=  -9.992961773562D-03 Y=   5.480603833366D+01 Z=  -1.838842002930D+01
 I=    4 X=  -1.862887562011D-02 Y=   0.000000000000D+00 Z=   3.767588616146D+01
 ICntrl=      2127.
 Calling FoFJK, ICntrl=      2127 FMM=F ISym2X=0 I1Cent= 0 IOpClX= 0 NMat=1 NMatS=1 NMatT=0.
 FoFJK:  IHMeth= 1 ICntrl=  2127 DoSepK=F KAlg= 1 I1Cent= 0 FoldK=F
 FoFCou: FMM=F IPFlag=           0 FMFlag=      100000 FMFlg1=         800
         NFxFlg=           0 DoJE=F BraDBF=F KetDBF=F FulRan=T
         Omega=  0.000000  0.000000  1.000000  0.000000  0.000000 ICntrl=    2127 IOpCl=  0
         NMat0=    1 NMatS0=    1 NMatT0=    0 NMatD0=    1 NMtDS0=    0 NMtDT0=    0
         I1Cent=           0 NGrid=           0.
 Symmetry not used in FoFCou.
 FoFCou:  KetSym=F NOpSet=  1 NOpAb=1 NOp=  1.
 FoFCou:  CnvScl= 1.00D+00 Thresh= 1.00D-10
 PrismS was handed  1073303218 working-precision words and  2199 shell-pairs
 FoFCou: LinMIO=F DoNuc=F BraDBF=F KetDBF=F HaveP=T PDBF=F HaveZ=T HaveW=F
         NIJTC =      10 NIJTAt=       0 NIJTCD=       0 NIJTT =      10
         IJTBeg=       1 IJTEnd=      10 KLTBeg=       1 KLTEnd=      10
         IPTBeg=       1 IPTEnd=      10 IPTBCv=       1 IPTECv=      10
         IZTBeg=       1 IZTEnd=      10 IZTBCv=       1 IZTECv=      10
         IWTBeg=      11 IWTEnd=      10 IWTBCv=      11 IWTECv=      10
         INTBeg=       1 INTEnd=       0 IFTBCv=       1 IFTECv=      10
 NCel replicated for PrismC:     1
 CoulSu:  IncDef=  1024 NBBP=        2418900 NTPThr=   100 NPartT=    8 Incr=        1024 LDynOK=F.
 CoulSu:  NPrtUS=   8 ThrOK=T IAlg=1 NPAlg=1 LenDen=           0.
 Enter PrismC: JobTyp=21 DoJE=F Cont=F.
 PrismC:  IPart=     0 DynPar=T LinDyn=F Incr=        1024 UseFst=F UseS4=T.
 PrismC was handed   134032546 working-precision words and  2199 shell-pairs
 Enter PrismC: JobTyp=21 DoJE=F Cont=F.
 PrismC was handed   134032546 working-precision words and  2199 shell-pairs
 Enter PrismC: JobTyp=21 DoJE=F Cont=F.
 Enter PrismC: JobTyp=21 DoJE=F Cont=F.
 PrismC was handed   134032546 working-precision words and  2199 shell-pairs
 PrismC was handed   134032546 working-precision words and  2199 shell-pairs
 Enter PrismC: JobTyp=21 DoJE=F Cont=F.
 PrismC was handed   134032546 working-precision words and  2199 shell-pairs
 Enter PrismC: JobTyp=21 DoJE=F Cont=F.
 PrismC was handed   134032546 working-precision words and  2199 shell-pairs
 Enter PrismC: JobTyp=21 DoJE=F Cont=F.
 PrismC was handed   134032546 working-precision words and  2199 shell-pairs
 Enter PrismC: JobTyp=21 DoJE=F Cont=F.
 PrismC was handed   134032546 working-precision words and  2199 shell-pairs
 IPart=  7 NShTot=      263867 NShNF=      263867 NShFF=           0 NBatch=        1469 AvBLen=       179.6
 IPart=  0 NShTot=      291750 NShNF=      291750 NShFF=           0 NBatch=        1890 AvBLen=       154.4
 IPart=  1 NShTot=      275762 NShNF=      275762 NShFF=           0 NBatch=        1547 AvBLen=       178.3
 IPart=  2 NShTot=      237219 NShNF=      237219 NShFF=           0 NBatch=        1500 AvBLen=       158.1
 IPart=  5 NShTot=      278492 NShNF=      278492 NShFF=           0 NBatch=        1768 AvBLen=       157.5
 IPart=  4 NShTot=      211458 NShNF=      211458 NShFF=           0 NBatch=        1462 AvBLen=       144.6
 IPart=  6 NShTot=      331595 NShNF=      331595 NShFF=           0 NBatch=        1936 AvBLen=       171.3
 IPart=  3 NShTot=      246501 NShNF=      246501 NShFF=           0 NBatch=        1467 AvBLen=       168.0
 CoulSu:  NxtVal=        2501633.
 Forces at end of L703
 I=    0 X=   2.336906295301D-04 Y=   0.000000000000D+00 Z=  -4.880104668974D-01
 I=    1 X=   2.030738165673D-04 Y=   0.000000000000D+00 Z=  -8.094496726951D-05
 I=    2 X=  -5.348287313037D-05 Y=  -1.527110174493D-05 Z=   6.869780206742D-05
 I=    3 X=  -5.348287314384D-05 Y=   1.527110300259D-05 Z=   6.869780030527D-05
 I=    4 X=  -9.610807029302D-05 Y=   0.000000000000D+00 Z=  -5.645063536974D-05
 FrcOut:
 IF    =    58 IFX   =    70 IFXYZ =    82
 IFFX  =    94 IFFFX =    94 IFLen =    12
 IFFLen=     0 IFFFLn=     0 IEDerv=    94
 LEDerv=   629 IFroze=   727 ICStrt= 89400
 DipInt: DoE/N= T T RetVal/Mat= T F Init=T NMatP=  1 IDeriv=0 Min/MaxMlt=  1  1
 Entering OneElI...
 Multipole integrals L=1 to 1 MinM= 0 MaxM= 0.
 Requested accuracy = 0.1000D-12
 PrsmSu:  NPrtUS=   1 ThrOK=F IAlg=1 NPAlg=1 LenDen=           0.
 Prism:   IPart=     0 DynPar=F LinDyn=F Incr=          21.
 PRISM was handed  1073279119 working-precision words and  2192 shell-pairs
 IPart=  0 NShTot=        2192 NBatch=         106 AvBLen=        20.7
 PrSmSu:  NxtVal=             22.
 Computed dipole moment (without fudge factor):
 X= 0.2336906295301D-03   Y= 0.3126388037344D-12   Z=-0.4880104668974D+00
 Quadrupole    =-3.63239324D-01 1.14425947D+00-7.81020148D-01
                 6.13775433D-14 1.81633892D-03 1.05160325D-12
 -------------------------------------------------------------------
 Center     Atomic                   Forces (Hartrees/Bohr)
 Number     Number              X              Y              Z
 -------------------------------------------------------------------
      1        6          -0.000203074    0.000000000    0.000080945
      2       35           0.000053483    0.000015271   -0.000068698
      3       35           0.000053483   -0.000015271   -0.000068698
      4        8           0.000096108    0.000000000    0.000056451
 -------------------------------------------------------------------
 Cartesian Forces:  Max     0.000203074 RMS     0.000079499
 Final forces over variables, Energy=-5.25855777D+03:
 -1.64124239D-13 1.05951085D-13-2.12321399D-14 7.94052937D-14
  2.45217806D-12 1.52404326D-05-1.52404332D-05-1.56424868D-12
  8.04109132D-05-6.87327295D-05-6.87327289D-05 5.70545454D-05
 NDeriv=  12 NFrqRd=  0 LFDDif=       1
 NDeriv=  12 NFrqRd=  0 LFDDif=       1
 Re-enter D2Numr: IAtom=  1 IXYZ=1 IStep= 1.
 Standard basis: Aug-CC-pVTZ (5D, 7F)
 Integral buffers will be    131072 words long.
 Raffenetti 1 integral format.
 Two-electron integral symmetry is turned off.
   210 basis functions,   578 primitive gaussians,   248 cartesian basis functions
    42 alpha electrons       42 beta electrons
       nuclear repulsion energy       449.2322972124 Hartrees.
 NAtoms=    4 NActive=    4 NUniq=    4 SFac= 1.00D+00 NAtFMM=   50 NAOKFM=F Big=F
 One-electron integrals computed using PRISM.
 NBasis=   210 RedAO= T  NBF=   210
 NBsUse=   210 1.00D-06 NBFU=   210
 Initial guess read from the read-write file.
 B after Tr=     0.000000    0.000000    0.000000
         Rot=    1.000000    0.000000    0.000000    0.000000 Ang=   0.00 deg.
 Requested convergence on RMS density matrix=1.00D-08 within 128 cycles.
 Requested convergence on MAX density matrix=1.00D-06.
 Requested convergence on             energy=1.00D-06.
 No special actions if energy rises.
 Keep R1 ints in memory in canonical form, NReq=484604278.
 DSYEVD returned Info=       22576 IAlg= 4 N=   210 NDim=   210 NE2=     2842251 trying DSYEV.
 SCF Done:  E(RHF) =  -5257.68454909     A.U. after    7 cycles
             Convg  =    0.4639D-08             -V/T =  2.0000
 ExpMin= 3.51D-02 ExpMax= 1.06D+07 ExpMxC= 1.21D+04 IAcc=3 IRadAn=         5 AccDes= 0.00D+00
 HarFok:  IExCor=  205 AccDes= 0.00D+00 IRadAn=         5 IDoV=-2
 ScaDFX=  1.000000  1.000000  1.000000  1.000000
 DSYEVD returned Info=         119 IAlg= 4 N=    59 NDim=    59 NE2=    18196533 trying DSYEV.
 DSYEVD returned Info=          93 IAlg= 4 N=    46 NDim=    46 NE2=    18196533 trying DSYEV.
 Range of M.O.s used for correlation:    21   210
 NBasis=   210 NAE=    42 NBE=    42 NFC=    20 NFV=     0
 NROrb=    190 NOA=    22 NOB=    22 NVA=   168 NVB=   168

 **** Warning!!: The largest alpha MO coefficient is  0.28109488D+02

 Semi-Direct transformation.
 ModeAB=           2 MOrb=            22 LenV=    1072497277
 LASXX=     69628944 LTotXX=    69628944 LenRXX=    69628944
 LTotAB=    70719517 MaxLAS=   129061680 LenRXY=   129061680
 NonZer=   139257888 LenScr=   209707008 LnRSAI=           0
 LnScr1=           0 LExtra=           0 Total=    408397632
 MaxDsk=          -1 SrtSym=           F ITran=            4
 JobTyp=0 Pass  1:  I=   1 to  22.
 (rs|ai) integrals will be sorted in core.
 Spin components of T(2) and E(2):
     alpha-alpha T2 =       0.3832196819D-01 E2=     -0.1232779065D+00
     alpha-beta  T2 =       0.1924923955D+00 E2=     -0.6175053740D+00
     beta-beta   T2 =       0.3832196819D-01 E2=     -0.1232779065D+00
 ANorm=    0.1126559511D+01
 E2 =    -0.8640611871D+00 EUMP2 =    -0.52585486102749D+04
 R2 and R3 integrals will be kept in memory, NReq=   961077252.
 Iterations=  50 Convergence= 0.100D-07
 Iteration Nr.   1
 **********************
 DD1Dir will call FoFMem   1 times, MxPair=       506
 NAB=   253 NAA=     0 NBB=     0.
 MP4(R+Q)=  0.21479128D-01
 E3=        0.13942767D-03        EUMP3=      -0.52585484708D+04
 E4(DQ)=    0.26938885D-03        UMP4(DQ)=   -0.52585482015D+04
 E4(SDQ)=  -0.11697382D-01        UMP4(SDQ)=  -0.52585601682D+04
 DE(Corr)= -0.84244263     E(Corr)=     -5258.5269917    
 NORM(A)=   0.11248481D+01
 Iteration Nr.   2
 **********************
 DD1Dir will call FoFMem   1 times, MxPair=       506
 NAB=   253 NAA=     0 NBB=     0.
 DE(Corr)= -0.87233846     E(CORR)=     -5258.5568875     Delta=-2.99D-02
 NORM(A)=   0.11352476D+01
 Iteration Nr.   3
 **********************
 DD1Dir will call FoFMem   1 times, MxPair=       506
 NAB=   253 NAA=     0 NBB=     0.
 DE(Corr)= -0.87023447     E(CORR)=     -5258.5547836     Delta= 2.10D-03
 NORM(A)=   0.11380095D+01
 Iteration Nr.   4
 **********************
 DD1Dir will call FoFMem   1 times, MxPair=       506
 NAB=   253 NAA=     0 NBB=     0.
 DE(Corr)= -0.87276478     E(CORR)=     -5258.5573139     Delta=-2.53D-03
 NORM(A)=   0.11393222D+01
 Iteration Nr.   5
 **********************
 DD1Dir will call FoFMem   1 times, MxPair=       506
 NAB=   253 NAA=     0 NBB=     0.
 DE(Corr)= -0.87313921     E(CORR)=     -5258.5576883     Delta=-3.74D-04
 NORM(A)=   0.11398371D+01
 Iteration Nr.   6
 **********************
 DD1Dir will call FoFMem   1 times, MxPair=       506
 NAB=   253 NAA=     0 NBB=     0.
 DE(Corr)= -0.87320347     E(CORR)=     -5258.5577526     Delta=-6.43D-05
 NORM(A)=   0.11399411D+01
 Iteration Nr.   7
 **********************
 DD1Dir will call FoFMem   1 times, MxPair=       506
 NAB=   253 NAA=     0 NBB=     0.
 DE(Corr)= -0.87321778     E(CORR)=     -5258.5577669     Delta=-1.43D-05
 NORM(A)=   0.11399499D+01
 Iteration Nr.   8
 **********************
 DD1Dir will call FoFMem   1 times, MxPair=       506
 NAB=   253 NAA=     0 NBB=     0.
 DE(Corr)= -0.87321811     E(CORR)=     -5258.5577672     Delta=-3.34D-07
 NORM(A)=   0.11399650D+01
 Iteration Nr.   9
 **********************
 DD1Dir will call FoFMem   1 times, MxPair=       506
 NAB=   253 NAA=     0 NBB=     0.
 DE(Corr)= -0.87321619     E(CORR)=     -5258.5577653     Delta= 1.92D-06
 NORM(A)=   0.11399649D+01
 Iteration Nr.  10
 **********************
 DD1Dir will call FoFMem   1 times, MxPair=       506
 NAB=   253 NAA=     0 NBB=     0.
 DE(Corr)= -0.87321760     E(CORR)=     -5258.5577667     Delta=-1.41D-06
 NORM(A)=   0.11399676D+01
 Iteration Nr.  11
 **********************
 DD1Dir will call FoFMem   1 times, MxPair=       506
 NAB=   253 NAA=     0 NBB=     0.
 DE(Corr)= -0.87321873     E(CORR)=     -5258.5577678     Delta=-1.13D-06
 NORM(A)=   0.11399694D+01
 Iteration Nr.  12
 **********************
 DD1Dir will call FoFMem   1 times, MxPair=       506
 NAB=   253 NAA=     0 NBB=     0.
 DE(Corr)= -0.87321905     E(CORR)=     -5258.5577681     Delta=-3.16D-07
 NORM(A)=   0.11399705D+01
 Iteration Nr.  13
 **********************
 DD1Dir will call FoFMem   1 times, MxPair=       506
 NAB=   253 NAA=     0 NBB=     0.
 DE(Corr)= -0.87321952     E(CORR)=     -5258.5577686     Delta=-4.67D-07
 NORM(A)=   0.11399712D+01
 Iteration Nr.  14
 **********************
 DD1Dir will call FoFMem   1 times, MxPair=       506
 NAB=   253 NAA=     0 NBB=     0.
 DE(Corr)= -0.87321962     E(CORR)=     -5258.5577687     Delta=-1.09D-07
 NORM(A)=   0.11399715D+01
 Iteration Nr.  15
 **********************
 DD1Dir will call FoFMem   1 times, MxPair=       506
 NAB=   253 NAA=     0 NBB=     0.
 DE(Corr)= -0.87321969     E(CORR)=     -5258.5577688     Delta=-6.93D-08
 NORM(A)=   0.11399716D+01
 Iteration Nr.  16
 **********************
 DD1Dir will call FoFMem   1 times, MxPair=       506
 NAB=   253 NAA=     0 NBB=     0.
 DE(Corr)= -0.87321972     E(CORR)=     -5258.5577688     Delta=-3.03D-08
 NORM(A)=   0.11399717D+01
 Iteration Nr.  17
 **********************
 DD1Dir will call FoFMem   1 times, MxPair=       506
 NAB=   253 NAA=     0 NBB=     0.
 DE(Corr)= -0.87321972     E(CORR)=     -5258.5577688     Delta= 3.99D-09
 NORM(A)=   0.11399717D+01
 Iteration Nr.  18
 **********************
 DD1Dir will call FoFMem   1 times, MxPair=       506
 NAB=   253 NAA=     0 NBB=     0.
 DE(Corr)= -0.87321971     E(CORR)=     -5258.5577688     Delta= 1.06D-08
 NORM(A)=   0.11399717D+01
 Iteration Nr.  19
 **********************
 DD1Dir will call FoFMem   1 times, MxPair=       506
 NAB=   253 NAA=     0 NBB=     0.
 DE(Corr)= -0.87321970     E(CORR)=     -5258.5577688     Delta= 6.37D-09
 NORM(A)=   0.11399717D+01
 Iteration Nr.  20
 **********************
 DD1Dir will call FoFMem   1 times, MxPair=       506
 NAB=   253 NAA=     0 NBB=     0.
 DE(Corr)= -0.87321972     E(CORR)=     -5258.5577688     Delta=-1.65D-08
 NORM(A)=   0.11399717D+01
 Iteration Nr.  21
 **********************
 DD1Dir will call FoFMem   1 times, MxPair=       506
 NAB=   253 NAA=     0 NBB=     0.
 DE(Corr)= -0.87321972     E(CORR)=     -5258.5577688     Delta=-6.83D-10
 NORM(A)=   0.11399717D+01
 Iteration Nr.  22
 **********************
 DD1Dir will call FoFMem   1 times, MxPair=       506
 NAB=   253 NAA=     0 NBB=     0.
 DE(Corr)= -0.87321972     E(CORR)=     -5258.5577688     Delta=-3.23D-09
 NORM(A)=   0.11399717D+01
 Largest amplitude= 4.23D-02

 Z-AMPLITUDE ITERATIONS

 Iteration Nr.   1
 **********************
 DD1Dir will call FoFMem   1 times, MxPair=       506
 NAB=   253 NAA=     0 NBB=     0.
 DE(Z)  -0.84604537D+00          E(Z)=    -0.52585305945D+04
 NORM(A)=   0.11402351D+01
 Iteration Nr.   2
 **********************
 DD1Dir will call FoFMem   1 times, MxPair=       506
 NAB=   253 NAA=     0 NBB=     0.
 DE(Z)  -0.84604581D+00          E(Z)=    -0.52585305949D+04
 NORM(A)=   0.11401452D+01
 Iteration Nr.   3
 **********************
 DD1Dir will call FoFMem   1 times, MxPair=       506
 NAB=   253 NAA=     0 NBB=     0.
 DE(Z)  -0.84604560D+00          E(Z)=    -0.52585305947D+04
 NORM(A)=   0.11406897D+01
 Iteration Nr.   4
 **********************
 DD1Dir will call FoFMem   1 times, MxPair=       506
 NAB=   253 NAA=     0 NBB=     0.
 DE(Z)  -0.84604615D+00          E(Z)=    -0.52585305952D+04
 NORM(A)=   0.11407643D+01
 Iteration Nr.   5
 **********************
 DD1Dir will call FoFMem   1 times, MxPair=       506
 NAB=   253 NAA=     0 NBB=     0.
 DE(Z)  -0.84604850D+00          E(Z)=    -0.52585305976D+04
 NORM(A)=   0.11301178D+01
 Iteration Nr.   6
 **********************
 DD1Dir will call FoFMem   1 times, MxPair=       506
 NAB=   253 NAA=     0 NBB=     0.
 DE(Z)  -0.84601528D+00          E(Z)=    -0.52585305644D+04
 NORM(A)=   0.11301187D+01
 Iteration Nr.   7
 **********************
 DD1Dir will call FoFMem   1 times, MxPair=       506
 NAB=   253 NAA=     0 NBB=     0.
 DE(Z)  -0.84601322D+00          E(Z)=    -0.52585305623D+04
 NORM(A)=   0.11301190D+01
 Iteration Nr.   8
 **********************
 DD1Dir will call FoFMem   1 times, MxPair=       506
 NAB=   253 NAA=     0 NBB=     0.
 DE(Z)  -0.84601355D+00          E(Z)=    -0.52585305626D+04
 NORM(A)=   0.11301191D+01
 Iteration Nr.   9
 **********************
 DD1Dir will call FoFMem   1 times, MxPair=       506
 NAB=   253 NAA=     0 NBB=     0.
 DE(Z)  -0.84601315D+00          E(Z)=    -0.52585305622D+04
 NORM(A)=   0.11301192D+01
 Iteration Nr.  10
 **********************
 DD1Dir will call FoFMem   1 times, MxPair=       506
 NAB=   253 NAA=     0 NBB=     0.
 DE(Z)  -0.84601317D+00          E(Z)=    -0.52585305623D+04
 NORM(A)=   0.11301193D+01
 Iteration Nr.  11
 **********************
 DD1Dir will call FoFMem   1 times, MxPair=       506
 NAB=   253 NAA=     0 NBB=     0.
 DE(Z)  -0.84601320D+00          E(Z)=    -0.52585305623D+04
 NORM(A)=   0.11301194D+01
 Iteration Nr.  12
 **********************
 DD1Dir will call FoFMem   1 times, MxPair=       506
 NAB=   253 NAA=     0 NBB=     0.
 DE(Z)  -0.84601320D+00          E(Z)=    -0.52585305623D+04
 NORM(A)=   0.11301193D+01
 Iteration Nr.  13
 **********************
 DD1Dir will call FoFMem   1 times, MxPair=       506
 NAB=   253 NAA=     0 NBB=     0.
 DE(Z)  -0.84601320D+00          E(Z)=    -0.52585305623D+04
 NORM(A)=   0.11301193D+01
 Iteration Nr.  14
 **********************
 DD1Dir will call FoFMem   1 times, MxPair=       506
 NAB=   253 NAA=     0 NBB=     0.
 DE(Z)  -0.84601317D+00          E(Z)=    -0.52585305623D+04
 NORM(A)=   0.11301185D+01
 Iteration Nr.  15
 **********************
 DD1Dir will call FoFMem   1 times, MxPair=       506
 NAB=   253 NAA=     0 NBB=     0.
 DE(Z)  -0.84601304D+00          E(Z)=    -0.52585305621D+04
 NORM(A)=   0.11301184D+01
 Iteration Nr.  16
 **********************
 DD1Dir will call FoFMem   1 times, MxPair=       506
 NAB=   253 NAA=     0 NBB=     0.
 DE(Z)  -0.84601302D+00          E(Z)=    -0.52585305621D+04
 NORM(A)=   0.11301195D+01
 Iteration Nr.  17
 **********************
 DD1Dir will call FoFMem   1 times, MxPair=       506
 NAB=   253 NAA=     0 NBB=     0.
 DE(Z)  -0.84601322D+00          E(Z)=    -0.52585305623D+04
 NORM(A)=   0.11301194D+01
 Iteration Nr.  18
 **********************
 DD1Dir will call FoFMem   1 times, MxPair=       506
 NAB=   253 NAA=     0 NBB=     0.
 DE(Z)  -0.84601321D+00          E(Z)=    -0.52585305623D+04
 NORM(A)=   0.11301194D+01
 Discarding MO integrals.
          IDoAtm=1111
          Differentiating once with respect to electric field.
                with respect to dipole field.
          Differentiating once with respect to nuclear coordinates.
          Keep R1 ints in memory in canonical form, NReq=478620425.
          There are     1 degrees of freedom in the 1st order CPHF.  IDoFFX=0.
 LinEq1:  Iter=  0 NonCon=     1 RMS=1.95D-03 Max=5.61D-02
 AX will form     1 AO Fock derivatives at one time.
 LinEq1:  Iter=  1 NonCon=     1 RMS=7.40D-04 Max=2.61D-02
 LinEq1:  Iter=  2 NonCon=     1 RMS=3.09D-04 Max=9.34D-03
 LinEq1:  Iter=  3 NonCon=     1 RMS=1.03D-04 Max=2.97D-03
 LinEq1:  Iter=  4 NonCon=     1 RMS=5.33D-05 Max=1.64D-03
 LinEq1:  Iter=  5 NonCon=     1 RMS=1.64D-05 Max=4.65D-04
 LinEq1:  Iter=  6 NonCon=     1 RMS=6.29D-06 Max=1.31D-04
 LinEq1:  Iter=  7 NonCon=     1 RMS=1.35D-06 Max=2.12D-05
 LinEq1:  Iter=  8 NonCon=     1 RMS=2.69D-07 Max=4.30D-06
 LinEq1:  Iter=  9 NonCon=     1 RMS=6.50D-08 Max=1.21D-06
 LinEq1:  Iter= 10 NonCon=     1 RMS=1.39D-08 Max=2.08D-07
 LinEq1:  Iter= 11 NonCon=     1 RMS=3.90D-09 Max=9.55D-08
 LinEq1:  Iter= 12 NonCon=     1 RMS=7.18D-10 Max=1.62D-08
 LinEq1:  Iter= 13 NonCon=     1 RMS=1.20D-10 Max=2.63D-09
 LinEq1:  Iter= 14 NonCon=     0 RMS=1.85D-11 Max=4.29D-10
 Linear equations converged to 1.000D-10 1.000D-09 after    14 iterations.
 End of Minotr Frequency-dependent properties file   721 does not exist.
 End of Minotr Frequency-dependent properties file   722 does not exist.

 **********************************************************************

            Population analysis using the QCI/CC density.

 **********************************************************************

 Alpha  occ. eigenvalues -- -490.06638-490.06638 -65.20633 -65.20633 -58.56165
 Alpha  occ. eigenvalues --  -58.56165 -58.56015 -58.56015 -58.55998 -58.55998
 Alpha  occ. eigenvalues --  -20.62832 -11.46325  -9.87940  -9.87940  -7.49128
 Alpha  occ. eigenvalues --   -7.49127  -7.48407  -7.48406  -7.48336  -7.48335
[...]
 OrtVCM:  Ph=2 NNew=    0 IAdd=    2 IPass= 1 DotMx2= 0.00D+00
 OrtVCM:  IS=    1 I=    2 IndO=    8 Dot= 9.20D-01 DotN= 9.20D-01 ElMax1= 9.20D-01 ElMax1N= 9.20D-01
 OrtVCM:  Ph=2 NNew=    0 IAdd=    3 IPass= 1 DotMx2= 0.00D+00
 OrtVCM:  IS=    1 I=    3 IndO=    9 Dot= 9.35D-01 DotN= 9.35D-01 ElMax1= 9.35D-01 ElMax1N= 9.35D-01
 OrtVCM:  Ph=2 NNew=    0 IAdd=    4 IPass= 1 DotMx2= 9.43D-02
 OrtVCM:  Ph=2 NNew=    0 IAdd=    4 IPass= 2 DotMx2= 9.47D-18
 OrtVCM:  IS=    1 I=    4 IndO=    0 Dot= 1.75D-34 DotN= 1.75D-34 ElMax1= 1.05D-17 ElMax1N= 1.05D-17
 OrtVCM:  Ph=2 NNew=    0 IAdd=    5 IPass= 1 DotMx2= 1.59D-01
 OrtVCM:  Ph=2 NNew=    0 IAdd=    5 IPass= 2 DotMx2= 1.04D-17
 OrtVCM:  IS=    1 I=    5 IndO=   10 Dot= 5.39D-01 DotN= 5.39D-01 ElMax1= 5.39D-01 ElMax1N= 5.39D-01
 OrtVCM:  Ph=2 NNew=    0 IAdd=    6 IPass= 1 DotMx2= 1.71D-01
 OrtVCM:  Ph=2 NNew=    0 IAdd=    6 IPass= 2 DotMx2= 2.78D-17
 OrtVCM:  IS=    1 I=    6 IndO=   11 Dot= 1.17D-01 DotN= 1.17D-01 ElMax1= 2.25D-01 ElMax1N= 2.25D-01
 SchOr2:  IPass= 1 Test2A= 1.00D-01 IOff=     0 NDo=     6 NNew=     5
 OrtVCM:  Ph=1 IPass= 1 DotMx1= 7.07D-01
 OrtVCM:  Ph=1 IPass= 2 DotMx1= 2.36D-16
 OrtVCM:  IS=    1 I=    1 IndO=    0 Dot= 1.58D-63 DotN= 1.58D-63 ElMax1= 3.74D-32 ElMax1N= 3.74D-32
 SchOr2:  IPass= 1 Test2A= 1.00D-01 IOff=     6 NDo=     1 NNew=     0
 OrtVCM:  Ph=1 IPass= 1 DotMx1= 6.52D-01
 OrtVCM:  Ph=1 IPass= 2 DotMx1= 9.71D-17
 OrtVCM:  IS=    1 I=    1 IndO=   12 Dot= 5.70D-02 DotN= 5.70D-02 ElMax1= 1.77D-01 ElMax1N= 1.77D-01
 SchOr2:  IPass= 1 Test2A= 1.00D-01 IOff=     7 NDo=     1 NNew=     1
 VibFq2-Diag2:  N=      6 IV=           5 MDV=  1073651532 NE2=   178941921
 Dipole derivatives wrt mode   1:  2.38242D-06  8.76359D-06 -6.08207D-01
 Vibrational polarizability contributions from mode   1       0.0000000       0.0000000       0.2909125
 Vibrational hyperpolarizability contributions from mode   1       0.0000000       0.0000000       0.0000000
 Dipole derivatives wrt mode   2: -6.21703D-09 -6.83238D-01  1.35062D-04
 Vibrational polarizability contributions from mode   2       0.0000000       0.0951486       0.0000000
 Vibrational hyperpolarizability contributions from mode   2       0.0000000       0.0000000       0.0000000
 Dipole derivatives wrt mode   3:  7.94870D-05  7.73659D-04  2.39975D+00
 Vibrational polarizability contributions from mode   3       0.0000000       0.0000001       0.7913767
 Vibrational hyperpolarizability contributions from mode   3       0.0000000       0.0000000       0.0000000
 Dipole derivatives wrt mode   4:  1.51638D+00 -6.48523D-08  4.63852D-04
 Vibrational polarizability contributions from mode   4       0.2198970       0.0000000       0.0000000
 Vibrational hyperpolarizability contributions from mode   4       0.0000000       0.0000000       0.0000000
 Dipole derivatives wrt mode   5:  1.69310D-09  2.07587D+01  1.63105D-03
 Vibrational polarizability contributions from mode   5       0.0000000      18.7584588       0.0000001
 Vibrational hyperpolarizability contributions from mode   5       0.0000000       0.0000000       0.0000000
 Dipole derivatives wrt mode   6: -4.85209D-06 -1.34184D-04  1.76350D+01
 Vibrational polarizability contributions from mode   6       0.0000000       0.0000000       2.4104607
 Vibrational hyperpolarizability contributions from mode   6       0.0000000       0.0000000       0.0000000
 Diagonal vibrational polarizability:
        0.2198970      18.8536075       3.4927501
 NorSel:  MapVib=      1      2      3      4      5      6
 Harmonic frequencies (cm**-1), IR intensities (KM/Mole), Raman scattering
 activities (A**4/AMU), depolarization ratios for plane and unpolarized
 incident light, reduced masses (AMU), force constants (mDyne/A),
 and normal coordinates:
                           1         2         3         4         5
                           A         A         A         A         A
       Frequencies ---   184.9851  363.3601  442.5281  530.4734  786.2654
    Reduced masses ---    53.2382   20.0018   17.7344   12.6357   12.5852
   Force constants ---     1.0734    1.5559    2.0462    2.0950    4.5840
    IR Intensities ---     0.3699    0.4668    5.7588    2.2994  430.9257
 Coord Atom Element:
   1     1     6          0.00000   0.00000   0.00006   0.94111   0.00000
   2     1     6          0.00000  -0.20091   0.00004   0.00000   0.96909
   3     1     6          0.44188   0.00000   0.68318  -0.00003  -0.00002
   1     2    35          0.00000   0.00000   0.00000  -0.03772   0.00000
   2     2    35          0.54397   0.11106  -0.11743   0.00000  -0.04982
   3     2    35         -0.07897   0.14417  -0.12186   0.00001  -0.01536
   1     3    35          0.00000   0.00000   0.00000  -0.03772   0.00000
   2     3    35         -0.54397   0.11106   0.11743   0.00000  -0.04982
   3     3    35         -0.07897  -0.14418  -0.12185   0.00001   0.01537
   1     4     8          0.00000   0.00000  -0.00002  -0.33385   0.00000
   2     4     8          0.00000  -0.94519  -0.00001   0.00000  -0.23544
   3     4     8          0.44773   0.00000   0.68992  -0.00003  -0.00003
                           6
                           A
       Frequencies ---  1863.3353
    Reduced masses ---    13.4228
   Force constants ---    27.4585
    IR Intensities ---   310.9918
 Coord Atom Element:
   1     1     6          0.00000
   2     1     6         -0.00001
   3     1     6          0.80240
   1     2    35          0.00000
   2     2    35          0.00015
   3     2    35         -0.00053
   1     3    35          0.00000
   2     3    35         -0.00015
   3     3    35         -0.00053
   1     4     8          0.00000
   2     4     8          0.00000
   3     4     8         -0.59679
 Harmonic frequencies (cm**-1), IR intensities (KM/Mole), Raman scattering
 activities (A**4/AMU), depolarization ratios for plane and unpolarized
 incident light, reduced masses (AMU), force constants (mDyne/A),
 and normal coordinates:
                     1                      2                      3
                     A                      A                      A
 Frequencies --   184.9851               363.3601               442.5281
 Red. masses --    53.2382                20.0018                17.7344
 Frc consts  --     1.0734                 1.5559                 2.0462
 IR Inten    --     0.3699                 0.4668                 5.7588
  Atom  AN      X      Y      Z        X      Y      Z        X      Y      Z
     1   6     0.00   0.00   0.44     0.00  -0.20   0.00     0.00   0.00   0.68
     2  35     0.00   0.54  -0.08     0.00   0.11   0.14     0.00  -0.12  -0.12
     3  35     0.00  -0.54  -0.08     0.00   0.11  -0.14     0.00   0.12  -0.12
     4   8     0.00   0.00   0.45     0.00  -0.95   0.00     0.00   0.00   0.69
                     4                      5                      6
                     A                      A                      A
 Frequencies --   530.4734               786.2654              1863.3353
 Red. masses --    12.6357                12.5852                13.4228
 Frc consts  --     2.0950                 4.5840                27.4585
 IR Inten    --     2.2994               430.9257               310.9918
  Atom  AN      X      Y      Z        X      Y      Z        X      Y      Z
     1   6     0.94   0.00   0.00     0.00   0.97   0.00     0.00   0.00   0.80
     2  35    -0.04   0.00   0.00     0.00  -0.05  -0.02     0.00   0.00   0.00
     3  35    -0.04   0.00   0.00     0.00  -0.05   0.02     0.00   0.00   0.00
     4   8    -0.33   0.00   0.00     0.00  -0.24   0.00     0.00   0.00  -0.60

 -------------------
 - Thermochemistry -
 -------------------
 Temperature   298.150 Kelvin.  Pressure   1.00000 Atm.
 Atom     1 has atomic number  6 and mass  12.00000
 Atom     2 has atomic number 35 and mass  78.91834
 Atom     3 has atomic number 35 and mass  78.91834
 Atom     4 has atomic number  8 and mass  15.99491
 Molecular mass:   185.83159 amu.
 Principal axes and moments of inertia in atomic units:
                           1         2         3
     Eigenvalues --   287.160381432.454751719.61513
           X            0.00000   0.00000   1.00000
           Y            1.00000   0.00000   0.00000
           Z            0.00000   1.00000   0.00000
 This molecule is an asymmetric top.
 Rotational symmetry number  2.
 Rotational temperatures (Kelvin)      0.30162     0.06047     0.05037
 Rotational constants (GHZ):           6.28478     1.25989     1.04950
 Zero-point vibrational energy      24947.8 (Joules/Mol)
                                    5.96267 (Kcal/Mol)
 Warning -- explicit consideration of   4 degrees of freedom as
           vibrations may cause significant error
 Vibrational temperatures:    266.15   522.79   636.70   763.23  1131.26
          (Kelvin)           2680.92
 
 Zero-point correction=                           0.009502 (Hartree/Particle)
 Thermal correction to Energy=                    0.013822
 Thermal correction to Enthalpy=                  0.014767
 Thermal correction to Gibbs Free Energy=        -0.020036
 Sum of electronic and zero-point Energies=          -5258.548267
 Sum of electronic and thermal Energies=             -5258.543947
 Sum of electronic and thermal Enthalpies=           -5258.543002
 Sum of electronic and thermal Free Energies=        -5258.577805
 
                     E (Thermal)             CV                S
                      KCal/Mol        Cal/Mol-Kelvin    Cal/Mol-Kelvin
 Total                    8.674             12.623             73.249
 Electronic               0.000              0.000              0.000
 Translational            0.889              2.981             41.565
 Rotational               0.889              2.981             26.672
 Vibrational              6.896              6.662              5.011
 Vibration     1          0.631              1.860              2.278
 Vibration     2          0.737              1.548              1.108
 Vibration     3          0.802              1.377              0.819
 Vibration     4          0.885              1.183              0.586
                       Q            Log10(Q)             Ln(Q)
 Total Bot       0.164446D+10          9.216022         21.220675
 Total V=0       0.386085D+14         13.586683         31.284494
 Vib (Bot)       0.109712D-03         -3.959747         -9.117655
 Vib (Bot)    1  0.108388D+01          0.034980          0.080544
 Vib (Bot)    2  0.503301D+00         -0.298173         -0.686568
 Vib (Bot)    3  0.389857D+00         -0.409094         -0.941974
 Vib (Bot)    4  0.301351D+00         -0.520928         -1.199481
 Vib (V=0)       0.257581D+01          0.410914          0.946164
 Vib (V=0)    1  0.169365D+01          0.228822          0.526883
 Vib (V=0)    2  0.120944D+01          0.082586          0.190161
 Vib (V=0)    3  0.113403D+01          0.054623          0.125774
 Vib (V=0)    4  0.108379D+01          0.034946          0.080465
 Electronic      0.100000D+01          0.000000          0.000000
 Translational   0.995714D+08          7.998135         18.416385
 Rotational      0.150534D+06          5.177635         11.921945
 -------------------------------------------------------------------
 Center     Atomic                   Forces (Hartrees/Bohr)
 Number     Number              X              Y              Z
 -------------------------------------------------------------------
      1        6           0.000000000    0.000000000    0.000080411
      2       35           0.000000000    0.000015240   -0.000068733
      3       35           0.000000000   -0.000015240   -0.000068733
      4        8           0.000000000    0.000000000    0.000057055
 -------------------------------------------------------------------
 Cartesian Forces:  Max     0.000080411 RMS     0.000040450
 Z-matrix is all fixed cartesians, so copy forces.
 Force constants in Cartesian coordinates: 
                1             2             3             4             5 
      1  0.107452D+00
      2  0.000000D+00  0.252845D+00
      3  0.278013D-05 -0.103598D-04  0.936331D+00
      4 -0.282972D-01  0.000000D+00 -0.154326D-05  0.745797D-02
      5 -0.131801D-05 -0.902749D-01 -0.251280D-01  0.000000D+00  0.128647D+00
      6 -0.112409D-05 -0.330668D-01 -0.376578D-01  0.000000D+00  0.645126D-01
      7 -0.282972D-01  0.000000D+00 -0.117762D-05  0.744281D-02  0.000000D+00
      8  0.131812D-05 -0.902837D-01  0.251274D-01  0.000000D+00 -0.327895D-01
      9 -0.112431D-05  0.330763D-01 -0.376569D-01  0.000000D+00 -0.304901D-02
     10 -0.508866D-01  0.000000D+00  0.225878D-04  0.134207D-01 -0.665664D-05
     11  0.000000D+00 -0.723073D-01  0.274280D-05  0.000000D+00 -0.557037D-02
     12  0.000000D+00  0.000000D+00 -0.860976D+00  0.219657D-05 -0.363307D-01
                6             7             8             9            10 
      6  0.746955D-01
      7  0.000000D+00  0.745797D-02
      8  0.304883D-02  0.000000D+00  0.128646D+00
      9  0.449197D-02  0.000000D+00 -0.645122D-01  0.746948D-01
     10 -0.738331D-05  0.134207D-01  0.665657D-05 -0.738294D-05  0.240259D-01
     11 -0.344952D-01  0.000000D+00 -0.556844D-02  0.344929D-01  0.000000D+00
     12 -0.415466D-01  0.220949D-05  0.363312D-01 -0.415467D-01 -0.782226D-05
               11            12 
     11  0.834506D-01
     12  0.000000D+00  0.944064D+00
 Final forces over variables, Energy=-5.25855777D+03:
 -1.64124239D-13 1.05951085D-13-2.12321399D-14 7.94052937D-14
  2.45217806D-12 1.52404326D-05-1.52404332D-05-1.56424868D-12
  8.04109132D-05-6.87327295D-05-6.87327289D-05 5.70545454D-05

 GradGradGradGradGradGradGradGradGradGradGradGradGradGradGradGradGradGrad
 Berny optimization.
 Search for a local minimum.
 Step number   1 out of a maximum of    2
 All quantities printed in internal units (Hartrees-Bohrs-Radians)
 Second derivative matrix not updated -- analytic derivatives used.
 The second derivative matrix:
                          X1        Y1        Z1        X2        Y2
           X1           0.10745
           Y1           0.00000   0.25284
           Z1           0.00000  -0.00001   0.93633
           X2          -0.02830   0.00000   0.00000   0.00746
           Y2           0.00000  -0.09027  -0.02513   0.00000   0.12865
           Z2           0.00000  -0.03307  -0.03766   0.00000   0.06451
           X3          -0.02830   0.00000   0.00000   0.00744   0.00000
           Y3           0.00000  -0.09028   0.02513   0.00000  -0.03279
           Z3           0.00000   0.03308  -0.03766   0.00000  -0.00305
           X4          -0.05089   0.00000   0.00002   0.01342  -0.00001
           Y4           0.00000  -0.07231   0.00000   0.00000  -0.00557
           Z4           0.00000   0.00000  -0.86098   0.00000  -0.03633
                          Z2        X3        Y3        Z3        X4
           Z2           0.07470
           X3           0.00000   0.00746
           Y3           0.00305   0.00000   0.12865
           Z3           0.00449   0.00000  -0.06451   0.07469
           X4          -0.00001   0.01342   0.00001  -0.00001   0.02403
           Y4          -0.03450   0.00000  -0.00557   0.03449   0.00000
           Z4          -0.04155   0.00000   0.03633  -0.04155  -0.00001
                          Y4        Z4
           Y4           0.08345
           Z4           0.00000   0.94406
 ITU=  0
     Eigenvalues ---    0.06779   0.13667   0.14122   0.23167   0.32700
     Eigenvalues ---    1.79989
 Angle between quadratic step and forces=  29.97 degrees.
 Linear search not attempted -- first point.
 TrRot=  0.000000  0.000000 -0.000256  0.000000  0.000000  0.000000
 Variable       Old X    -DE/DX   Delta X   Delta X   Delta X     New X
                                 (Linear)    (Quad)   (Total)
    X1        0.00000   0.00000   0.00000   0.00000   0.00000   0.00000
    Y1        0.00000   0.00000   0.00000   0.00000   0.00000   0.00000
    Z1       -0.92929   0.00008   0.00000   0.00093   0.00067  -0.92862
    X2        0.00000   0.00000   0.00000   0.00000   0.00000   0.00000
    Y2       -3.01257   0.00002   0.00000   0.00060   0.00060  -3.01196
    Z2       -2.92307  -0.00007   0.00000  -0.00041  -0.00067  -2.92373
    X3        0.00000   0.00000   0.00000   0.00000   0.00000   0.00000
    Y3        3.01257  -0.00002   0.00000  -0.00060  -0.00060   3.01196
    Z3       -2.92307  -0.00007   0.00000  -0.00041  -0.00067  -2.92373
    X4        0.00000   0.00000   0.00000   0.00000   0.00000   0.00000
    Y4        0.00000   0.00000   0.00000   0.00000   0.00000   0.00000
    Z4        1.29352   0.00006   0.00000   0.00092   0.00066   1.29418
         Item               Value     Threshold  Converged?
 Maximum Force            0.000080     0.000450     YES
 RMS     Force            0.000040     0.000300     YES
 Maximum Displacement     0.000673     0.001800     YES
 RMS     Displacement     0.000457     0.001200     YES
 Predicted change in Energy=-1.010472D-07
 Optimization completed.
    -- Stationary point found.
 GradGradGradGradGradGradGradGradGradGradGradGradGradGradGradGradGradGrad


 Test job not archived.
 1\1\GINC-TRAPISTA\Freq\RQCISD-FC\Aug-CC-pVTZ\C1Br2O1\BRUNS\19-Nov-2021
 \0\\#freq=noraman qcisd/aug-cc-pvtz density=current iop(7/33=1) nosym 
 formcheck=forcecart\\br2co-frequencies\\0,1\C,0.,0.,-0.491759\Br,0.,-1
 .594181,-1.54682\Br,0.,1.594181,-1.54682\O,0.,0.,0.6845\\Version=EM64L
 -G09RevB.01\HF=-5257.6845494\MP2=-5258.5486104\MP3=-5258.548471\MP4D=-
 5258.5696807\MP4DQ=-5258.5482016\MP4SDQ=-5258.5601684\QCISD=-5258.5577
 69\RMSD=9.212e-09\RMSF=4.045e-05\ZeroPoint=0.0095021\Thermal=0.0138223
 \Dipole=0.,0.,-0.4880113\DipoleDeriv=0.1236191,0.,-0.0000486,0.,2.1861
 27,0.000178,0.,0.,1.6198608,0.0252084,-0.0000003,0.0000035,0.,-0.76858
 83,-0.2819594,0.,-0.3502814,-0.1652702,0.0252084,0.0000003,0.0000098,0
 .,-0.7685895,0.2819833,0.,0.3502819,-0.1652929,-0.1743203,0.,-0.000319
 9,0.,-0.6486298,-0.0000488,0.,0.,-1.2892732\Quadrupole=-0.3632429,1.14
 42604,-0.7810175,0.,0.,0.\QuadrupoleDeriv=0.0000761,-0.0000847,0.00000
 86,0.,0.9611611,0.,-0.000364,0.0004305,-0.0000665,0.,0.,-6.9670846,2.1
 514372,-3.0667447,0.9153076,0.,0.,0.,0.0001033,-0.000088,-0.0000153,-0
 .2509834,-0.2787226,0.0000007,0.1587613,-0.7042476,0.5454863,0.,0.,2.3
 666493,0.0003738,0.8917851,-0.8921589,0.,0.,0.5276312,0.000115,-0.0001
 03,-0.000012,0.2509835,-0.2787226,-0.0000006,-0.1587313,0.7042161,-0.5
 454848,0.,0.,2.366655,0.000341,0.891823,-0.8921639,0.,0.,-0.527633,0.0
 003833,-0.0005589,0.0001756,0.,-0.8908176,0.,0.0000615,-0.0000799,0.00
 00184,0.,0.,1.7448981,-1.8267165,1.6089193,0.2177972,0.,0.,0.\PG=C02V 
 [C2(C1O1),SGV(Br2)]\NImag=0\\0.10745170,0.,0.25284493,0.00000278,-0.00
 001036,0.93633056,-0.02829717,0.00000001,-0.00000154,0.00745797,-0.000
 00132,-0.09027485,-0.02512805,-0.00000056,0.12864686,-0.00000112,-0.03
 306677,-0.03765775,-0.00000033,0.06451258,0.07469548,-0.02829717,-0.00
 000001,-0.00000118,0.00744281,-0.00000035,-0.00000052,0.00745797,0.000
 00132,-0.09028370,0.02512739,0.00000055,-0.03278946,0.00304883,0.00000
 036,0.12864594,-0.00000112,0.03307626,-0.03765694,-0.00000033,-0.00304
 901,0.00449197,-0.00000052,-0.06451222,0.07469481,-0.05088656,0.,0.000
 02259,0.01342067,-0.00000666,-0.00000738,0.01342067,0.00000666,-0.0000
 0738,0.02402592,0.,-0.07230734,0.00000274,0.,-0.00557037,-0.03449517,0
 .,-0.00556844,0.03449294,0.,0.08345061,-0.00000053,0.00000085,-0.86097
 621,0.00000220,-0.03633074,-0.04154656,0.00000221,0.03633123,-0.041546
 71,-0.00000782,-0.00000052,0.94406354\\0.,0.,-0.00008041,0.,-0.0000152
 4,0.00006873,0.,0.00001524,0.00006873,0.,0.,-0.00005705\\\@


 PICNIC:  A SNACK IN THE GRASS.
 Job cpu time:  6 days  4 hours 51 minutes 59.1 seconds.
 File lengths (MBytes):  RWF=  23799 Int=      0 D2E=      0 Chk=     44 Scr=      1
 Normal termination of Gaussian 09 at Fri Nov 19 03:31:53 2021.
