 br2co-wavefunction
GAUSSIAN            210 MOL ORBITALS    578 PRIMITIVES        4 NUCLEI
  C    1    (CENTRE  1)   0.00000000  0.00000000 -0.92928983  CHARGE =  6.0
  Br   2    (CENTRE  2)   0.00000000 -3.01256550 -2.92306618  CHARGE = 35.0
  Br   3    (CENTRE  3)  -0.01889726  3.01256550 -2.92306618  CHARGE = 35.0
  O    4    (CENTRE  4)   0.00000000  0.00000000  1.29351754  CHARGE =  8.0
CENTRE ASSIGNMENTS    1  1  1  1  1  1  1  1  1  1  1  1  1  1  1  1  1  1  1  1
CENTRE ASSIGNMENTS    1  1  1  1  1  1  1  1  1  1  1  1  1  1  1  1  1  1  1  1
CENTRE ASSIGNMENTS    1  1  1  1  1  1  1  1  1  1  1  1  1  1  1  1  1  1  1  1
CENTRE ASSIGNMENTS    1  1  1  1  1  1  1  1  1  1  1  1  2  2  2  2  2  2  2  2
CENTRE ASSIGNMENTS    2  2  2  2  2  2  2  2  2  2  2  2  2  2  2  2  2  2  2  2
CENTRE ASSIGNMENTS    2  2  2  2  2  2  2  2  2  2  2  2  2  2  2  2  2  2  2  2
CENTRE ASSIGNMENTS    2  2  2  2  2  2  2  2  2  2  2  2  2  2  2  2  2  2  2  2
CENTRE ASSIGNMENTS    2  2  2  2  2  2  2  2  2  2  2  2  2  2  2  2  2  2  2  2
CENTRE ASSIGNMENTS    2  2  2  2  2  2  2  2  2  2  2  2  2  2  2  2  2  2  2  2
CENTRE ASSIGNMENTS    2  2  2  2  2  2  2  2  2  2  2  2  2  2  2  2  2  2  2  2
CENTRE ASSIGNMENTS    2  2  2  2  2  2  2  2  2  2  2  2  2  2  2  2  2  2  2  2
CENTRE ASSIGNMENTS    2  2  2  2  2  2  2  2  2  2  2  2  2  2  2  2  2  2  2  2
CENTRE ASSIGNMENTS    2  2  2  2  2  2  2  2  2  2  2  2  2  2  2  2  2  2  2  2
CENTRE ASSIGNMENTS    2  2  2  2  2  2  2  2  2  2  2  2  2  2  2  2  2  2  2  2
CENTRE ASSIGNMENTS    2  2  2  2  2  2  2  2  2  3  3  3  3  3  3  3  3  3  3  3
CENTRE ASSIGNMENTS    3  3  3  3  3  3  3  3  3  3  3  3  3  3  3  3  3  3  3  3
CENTRE ASSIGNMENTS    3  3  3  3  3  3  3  3  3  3  3  3  3  3  3  3  3  3  3  3
CENTRE ASSIGNMENTS    3  3  3  3  3  3  3  3  3  3  3  3  3  3  3  3  3  3  3  3
CENTRE ASSIGNMENTS    3  3  3  3  3  3  3  3  3  3  3  3  3  3  3  3  3  3  3  3
CENTRE ASSIGNMENTS    3  3  3  3  3  3  3  3  3  3  3  3  3  3  3  3  3  3  3  3
CENTRE ASSIGNMENTS    3  3  3  3  3  3  3  3  3  3  3  3  3  3  3  3  3  3  3  3
CENTRE ASSIGNMENTS    3  3  3  3  3  3  3  3  3  3  3  3  3  3  3  3  3  3  3  3
CENTRE ASSIGNMENTS    3  3  3  3  3  3  3  3  3  3  3  3  3  3  3  3  3  3  3  3
CENTRE ASSIGNMENTS    3  3  3  3  3  3  3  3  3  3  3  3  3  3  3  3  3  3  3  3
CENTRE ASSIGNMENTS    3  3  3  3  3  3  3  3  3  3  3  3  3  3  3  3  3  3  3  3
CENTRE ASSIGNMENTS    3  3  3  3  3  3  4  4  4  4  4  4  4  4  4  4  4  4  4  4
CENTRE ASSIGNMENTS    4  4  4  4  4  4  4  4  4  4  4  4  4  4  4  4  4  4  4  4
CENTRE ASSIGNMENTS    4  4  4  4  4  4  4  4  4  4  4  4  4  4  4  4  4  4  4  4
CENTRE ASSIGNMENTS    4  4  4  4  4  4  4  4  4  4  4  4  4  4  4  4  4  4
TYPE ASSIGNMENTS      1  1  1  1  1  1  1  1  1  1  1  1  1  1  1  1  2  2  2  3
TYPE ASSIGNMENTS      3  3  4  4  4  2  3  4  2  3  4  2  3  4  5  6  7  8  9 10
TYPE ASSIGNMENTS      5  6  7  8  9 10  5  6  7  8  9 10 11 12 13 17 14 15 18 19
TYPE ASSIGNMENTS     16 20 11 12 13 17 14 15 18 19 16 20  1  1  1  1  1  1  1  1
TYPE ASSIGNMENTS      1  1  1  1  1  1  1  1  1  1  1  1  1  1  1  1  1  1  1  1
TYPE ASSIGNMENTS      1  1  1  1  1  1  1  1  1  1  1  1  1  1  1  1  1  1  1  1
TYPE ASSIGNMENTS      1  1  2  2  2  2  2  2  2  2  2  3  3  3  3  3  3  3  3  3
TYPE ASSIGNMENTS      4  4  4  4  4  4  4  4  4  2  2  2  2  2  2  2  2  2  3  3
TYPE ASSIGNMENTS      3  3  3  3  3  3  3  4  4  4  4  4  4  4  4  4  2  2  2  2
TYPE ASSIGNMENTS      2  2  2  2  3  3  3  3  3  3  3  3  4  4  4  4  4  4  4  4
TYPE ASSIGNMENTS      2  3  4  2  3  4  2  3  4  5  5  5  5  5  5  5  6  6  6  6
TYPE ASSIGNMENTS      6  6  6  7  7  7  7  7  7  7  8  8  8  8  8  8  8  9  9  9
TYPE ASSIGNMENTS      9  9  9  9 10 10 10 10 10 10 10  5  6  7  8  9 10  5  6  7
TYPE ASSIGNMENTS      8  9 10  5  6  7  8  9 10 11 12 13 17 14 15 18 19 16 20 11
TYPE ASSIGNMENTS     12 13 17 14 15 18 19 16 20  1  1  1  1  1  1  1  1  1  1  1
TYPE ASSIGNMENTS      1  1  1  1  1  1  1  1  1  1  1  1  1  1  1  1  1  1  1  1
TYPE ASSIGNMENTS      1  1  1  1  1  1  1  1  1  1  1  1  1  1  1  1  1  1  1  2
TYPE ASSIGNMENTS      2  2  2  2  2  2  2  2  3  3  3  3  3  3  3  3  3  4  4  4
TYPE ASSIGNMENTS      4  4  4  4  4  4  2  2  2  2  2  2  2  2  2  3  3  3  3  3
TYPE ASSIGNMENTS      3  3  3  3  4  4  4  4  4  4  4  4  4  2  2  2  2  2  2  2
TYPE ASSIGNMENTS      2  3  3  3  3  3  3  3  3  4  4  4  4  4  4  4  4  2  3  4
TYPE ASSIGNMENTS      2  3  4  2  3  4  5  5  5  5  5  5  5  6  6  6  6  6  6  6
TYPE ASSIGNMENTS      7  7  7  7  7  7  7  8  8  8  8  8  8  8  9  9  9  9  9  9
TYPE ASSIGNMENTS      9 10 10 10 10 10 10 10  5  6  7  8  9 10  5  6  7  8  9 10
TYPE ASSIGNMENTS      5  6  7  8  9 10 11 12 13 17 14 15 18 19 16 20 11 12 13 17
TYPE ASSIGNMENTS     14 15 18 19 16 20  1  1  1  1  1  1  1  1  1  1  1  1  1  1
TYPE ASSIGNMENTS      1  1  2  2  2  3  3  3  4  4  4  2  3  4  2  3  4  2  3  4
TYPE ASSIGNMENTS      5  6  7  8  9 10  5  6  7  8  9 10  5  6  7  8  9 10 11 12
TYPE ASSIGNMENTS     13 17 14 15 18 19 16 20 11 12 13 17 14 15 18 19 16 20
EXPONENTS  0.8236000D+04 0.1235000D+04 0.2808000D+03 0.7927000D+02 0.2559000D+02
EXPONENTS  0.8997000D+01 0.3319000D+01 0.2808000D+03 0.7927000D+02 0.2559000D+02
EXPONENTS  0.8997000D+01 0.3319000D+01 0.3643000D+00 0.9059000D+00 0.1285000D+00
EXPONENTS  0.4402000D-01 0.1871000D+02 0.4133000D+01 0.1200000D+01 0.1871000D+02
EXPONENTS  0.4133000D+01 0.1200000D+01 0.1871000D+02 0.4133000D+01 0.1200000D+01
EXPONENTS  0.3827000D+00 0.3827000D+00 0.3827000D+00 0.1209000D+00 0.1209000D+00
EXPONENTS  0.1209000D+00 0.3569000D-01 0.3569000D-01 0.3569000D-01 0.1097000D+01
EXPONENTS  0.1097000D+01 0.1097000D+01 0.1097000D+01 0.1097000D+01 0.1097000D+01
EXPONENTS  0.3180000D+00 0.3180000D+00 0.3180000D+00 0.3180000D+00 0.3180000D+00
EXPONENTS  0.3180000D+00 0.1000000D+00 0.1000000D+00 0.1000000D+00 0.1000000D+00
EXPONENTS  0.1000000D+00 0.1000000D+00 0.7610000D+00 0.7610000D+00 0.7610000D+00
EXPONENTS  0.7610000D+00 0.7610000D+00 0.7610000D+00 0.7610000D+00 0.7610000D+00
EXPONENTS  0.7610000D+00 0.7610000D+00 0.2680000D+00 0.2680000D+00 0.2680000D+00
EXPONENTS  0.2680000D+00 0.2680000D+00 0.2680000D+00 0.2680000D+00 0.2680000D+00
EXPONENTS  0.2680000D+00 0.2680000D+00 0.1063900D+08 0.1593400D+07 0.3626100D+06
EXPONENTS  0.1027000D+06 0.3350100D+05 0.1209300D+05 0.4715900D+04 0.1955600D+04
EXPONENTS  0.8526100D+03 0.3876700D+03 0.1826800D+03 0.8824500D+02 0.3926300D+02
EXPONENTS  0.9405700D+01 0.1899500D+01 0.3350100D+05 0.1209300D+05 0.4715900D+04
EXPONENTS  0.1955600D+04 0.8526100D+03 0.3876700D+03 0.1826800D+03 0.8824500D+02
EXPONENTS  0.3926300D+02 0.1923400D+02 0.9405700D+01 0.1899500D+01 0.4715900D+04
EXPONENTS  0.8526100D+03 0.3876700D+03 0.1826800D+03 0.8824500D+02 0.3926300D+02
EXPONENTS  0.1923400D+02 0.9405700D+01 0.4160100D+01 0.1899500D+01 0.4715900D+04
EXPONENTS  0.8526100D+03 0.3876700D+03 0.8824500D+02 0.3926300D+02 0.1923400D+02
EXPONENTS  0.9405700D+01 0.4160100D+01 0.1899500D+01 0.3011400D+00 0.6047200D+00
EXPONENTS  0.1251500D+00 0.4559300D-01 0.8676500D+04 0.2055900D+04 0.6662300D+03
EXPONENTS  0.2531000D+03 0.1061200D+03 0.4724200D+02 0.2182500D+02 0.9968400D+01
EXPONENTS  0.1998200D+01 0.8676500D+04 0.2055900D+04 0.6662300D+03 0.2531000D+03
EXPONENTS  0.1061200D+03 0.4724200D+02 0.2182500D+02 0.9968400D+01 0.1998200D+01
EXPONENTS  0.8676500D+04 0.2055900D+04 0.6662300D+03 0.2531000D+03 0.1061200D+03
EXPONENTS  0.4724200D+02 0.2182500D+02 0.9968400D+01 0.1998200D+01 0.8676500D+04
EXPONENTS  0.6662300D+03 0.2531000D+03 0.1061200D+03 0.4724200D+02 0.2182500D+02
EXPONENTS  0.9968400D+01 0.4517100D+01 0.1998200D+01 0.8676500D+04 0.6662300D+03
EXPONENTS  0.2531000D+03 0.1061200D+03 0.4724200D+02 0.2182500D+02 0.9968400D+01
EXPONENTS  0.4517100D+01 0.1998200D+01 0.8676500D+04 0.6662300D+03 0.2531000D+03
EXPONENTS  0.1061200D+03 0.4724200D+02 0.2182500D+02 0.9968400D+01 0.4517100D+01
EXPONENTS  0.1998200D+01 0.6662300D+03 0.1061200D+03 0.4724200D+02 0.2182500D+02
EXPONENTS  0.9968400D+01 0.4517100D+01 0.1998200D+01 0.2814500D+00 0.6662300D+03
EXPONENTS  0.1061200D+03 0.4724200D+02 0.2182500D+02 0.9968400D+01 0.4517100D+01
EXPONENTS  0.1998200D+01 0.2814500D+00 0.6662300D+03 0.1061200D+03 0.4724200D+02
EXPONENTS  0.2182500D+02 0.9968400D+01 0.4517100D+01 0.1998200D+01 0.2814500D+00
EXPONENTS  0.7098800D+00 0.7098800D+00 0.7098800D+00 0.1020400D+00 0.1020400D+00
EXPONENTS  0.1020400D+00 0.3514200D-01 0.3514200D-01 0.3514200D-01 0.4038300D+03
EXPONENTS  0.1211700D+03 0.4634500D+02 0.1972100D+02 0.8862400D+01 0.3996200D+01
EXPONENTS  0.1763600D+01 0.4038300D+03 0.1211700D+03 0.4634500D+02 0.1972100D+02
EXPONENTS  0.8862400D+01 0.3996200D+01 0.1763600D+01 0.4038300D+03 0.1211700D+03
EXPONENTS  0.4634500D+02 0.1972100D+02 0.8862400D+01 0.3996200D+01 0.1763600D+01
EXPONENTS  0.4038300D+03 0.1211700D+03 0.4634500D+02 0.1972100D+02 0.8862400D+01
EXPONENTS  0.3996200D+01 0.1763600D+01 0.4038300D+03 0.1211700D+03 0.4634500D+02
EXPONENTS  0.1972100D+02 0.8862400D+01 0.3996200D+01 0.1763600D+01 0.4038300D+03
EXPONENTS  0.1211700D+03 0.4634500D+02 0.1972100D+02 0.8862400D+01 0.3996200D+01
EXPONENTS  0.1763600D+01 0.7061900D+00 0.7061900D+00 0.7061900D+00 0.7061900D+00
EXPONENTS  0.7061900D+00 0.7061900D+00 0.2639000D+00 0.2639000D+00 0.2639000D+00
EXPONENTS  0.2639000D+00 0.2639000D+00 0.2639000D+00 0.1047000D+00 0.1047000D+00
EXPONENTS  0.1047000D+00 0.1047000D+00 0.1047000D+00 0.1047000D+00 0.5515000D+00
EXPONENTS  0.5515000D+00 0.5515000D+00 0.5515000D+00 0.5515000D+00 0.5515000D+00
EXPONENTS  0.5515000D+00 0.5515000D+00 0.5515000D+00 0.5515000D+00 0.2580000D+00
EXPONENTS  0.2580000D+00 0.2580000D+00 0.2580000D+00 0.2580000D+00 0.2580000D+00
EXPONENTS  0.2580000D+00 0.2580000D+00 0.2580000D+00 0.2580000D+00 0.1063900D+08
EXPONENTS  0.1593400D+07 0.3626100D+06 0.1027000D+06 0.3350100D+05 0.1209300D+05
EXPONENTS  0.4715900D+04 0.1955600D+04 0.8526100D+03 0.3876700D+03 0.1826800D+03
EXPONENTS  0.8824500D+02 0.3926300D+02 0.9405700D+01 0.1899500D+01 0.3350100D+05
EXPONENTS  0.1209300D+05 0.4715900D+04 0.1955600D+04 0.8526100D+03 0.3876700D+03
EXPONENTS  0.1826800D+03 0.8824500D+02 0.3926300D+02 0.1923400D+02 0.9405700D+01
EXPONENTS  0.1899500D+01 0.4715900D+04 0.8526100D+03 0.3876700D+03 0.1826800D+03
EXPONENTS  0.8824500D+02 0.3926300D+02 0.1923400D+02 0.9405700D+01 0.4160100D+01
EXPONENTS  0.1899500D+01 0.4715900D+04 0.8526100D+03 0.3876700D+03 0.8824500D+02
EXPONENTS  0.3926300D+02 0.1923400D+02 0.9405700D+01 0.4160100D+01 0.1899500D+01
EXPONENTS  0.3011400D+00 0.6047200D+00 0.1251500D+00 0.4559300D-01 0.8676500D+04
EXPONENTS  0.2055900D+04 0.6662300D+03 0.2531000D+03 0.1061200D+03 0.4724200D+02
EXPONENTS  0.2182500D+02 0.9968400D+01 0.1998200D+01 0.8676500D+04 0.2055900D+04
EXPONENTS  0.6662300D+03 0.2531000D+03 0.1061200D+03 0.4724200D+02 0.2182500D+02
EXPONENTS  0.9968400D+01 0.1998200D+01 0.8676500D+04 0.2055900D+04 0.6662300D+03
EXPONENTS  0.2531000D+03 0.1061200D+03 0.4724200D+02 0.2182500D+02 0.9968400D+01
EXPONENTS  0.1998200D+01 0.8676500D+04 0.6662300D+03 0.2531000D+03 0.1061200D+03
EXPONENTS  0.4724200D+02 0.2182500D+02 0.9968400D+01 0.4517100D+01 0.1998200D+01
EXPONENTS  0.8676500D+04 0.6662300D+03 0.2531000D+03 0.1061200D+03 0.4724200D+02
EXPONENTS  0.2182500D+02 0.9968400D+01 0.4517100D+01 0.1998200D+01 0.8676500D+04
EXPONENTS  0.6662300D+03 0.2531000D+03 0.1061200D+03 0.4724200D+02 0.2182500D+02
EXPONENTS  0.9968400D+01 0.4517100D+01 0.1998200D+01 0.6662300D+03 0.1061200D+03
EXPONENTS  0.4724200D+02 0.2182500D+02 0.9968400D+01 0.4517100D+01 0.1998200D+01
EXPONENTS  0.2814500D+00 0.6662300D+03 0.1061200D+03 0.4724200D+02 0.2182500D+02
EXPONENTS  0.9968400D+01 0.4517100D+01 0.1998200D+01 0.2814500D+00 0.6662300D+03
EXPONENTS  0.1061200D+03 0.4724200D+02 0.2182500D+02 0.9968400D+01 0.4517100D+01
EXPONENTS  0.1998200D+01 0.2814500D+00 0.7098800D+00 0.7098800D+00 0.7098800D+00
EXPONENTS  0.1020400D+00 0.1020400D+00 0.1020400D+00 0.3514200D-01 0.3514200D-01
EXPONENTS  0.3514200D-01 0.4038300D+03 0.1211700D+03 0.4634500D+02 0.1972100D+02
EXPONENTS  0.8862400D+01 0.3996200D+01 0.1763600D+01 0.4038300D+03 0.1211700D+03
EXPONENTS  0.4634500D+02 0.1972100D+02 0.8862400D+01 0.3996200D+01 0.1763600D+01
EXPONENTS  0.4038300D+03 0.1211700D+03 0.4634500D+02 0.1972100D+02 0.8862400D+01
EXPONENTS  0.3996200D+01 0.1763600D+01 0.4038300D+03 0.1211700D+03 0.4634500D+02
EXPONENTS  0.1972100D+02 0.8862400D+01 0.3996200D+01 0.1763600D+01 0.4038300D+03
EXPONENTS  0.1211700D+03 0.4634500D+02 0.1972100D+02 0.8862400D+01 0.3996200D+01
EXPONENTS  0.1763600D+01 0.4038300D+03 0.1211700D+03 0.4634500D+02 0.1972100D+02
EXPONENTS  0.8862400D+01 0.3996200D+01 0.1763600D+01 0.7061900D+00 0.7061900D+00
EXPONENTS  0.7061900D+00 0.7061900D+00 0.7061900D+00 0.7061900D+00 0.2639000D+00
EXPONENTS  0.2639000D+00 0.2639000D+00 0.2639000D+00 0.2639000D+00 0.2639000D+00
EXPONENTS  0.1047000D+00 0.1047000D+00 0.1047000D+00 0.1047000D+00 0.1047000D+00
EXPONENTS  0.1047000D+00 0.5515000D+00 0.5515000D+00 0.5515000D+00 0.5515000D+00
EXPONENTS  0.5515000D+00 0.5515000D+00 0.5515000D+00 0.5515000D+00 0.5515000D+00
EXPONENTS  0.5515000D+00 0.2580000D+00 0.2580000D+00 0.2580000D+00 0.2580000D+00
EXPONENTS  0.2580000D+00 0.2580000D+00 0.2580000D+00 0.2580000D+00 0.2580000D+00
EXPONENTS  0.2580000D+00 0.1533000D+05 0.2299000D+04 0.5224000D+03 0.1473000D+03
EXPONENTS  0.4755000D+02 0.1676000D+02 0.6207000D+01 0.5224000D+03 0.1473000D+03
EXPONENTS  0.4755000D+02 0.1676000D+02 0.6207000D+01 0.6882000D+00 0.1752000D+01
EXPONENTS  0.2384000D+00 0.7376000D-01 0.3446000D+02 0.7749000D+01 0.2280000D+01
EXPONENTS  0.3446000D+02 0.7749000D+01 0.2280000D+01 0.3446000D+02 0.7749000D+01
EXPONENTS  0.2280000D+01 0.7156000D+00 0.7156000D+00 0.7156000D+00 0.2140000D+00
EXPONENTS  0.2140000D+00 0.2140000D+00 0.5974000D-01 0.5974000D-01 0.5974000D-01
EXPONENTS  0.2314000D+01 0.2314000D+01 0.2314000D+01 0.2314000D+01 0.2314000D+01
EXPONENTS  0.2314000D+01 0.6450000D+00 0.6450000D+00 0.6450000D+00 0.6450000D+00
EXPONENTS  0.6450000D+00 0.6450000D+00 0.2140000D+00 0.2140000D+00 0.2140000D+00
EXPONENTS  0.2140000D+00 0.2140000D+00 0.2140000D+00 0.1428000D+01 0.1428000D+01
EXPONENTS  0.1428000D+01 0.1428000D+01 0.1428000D+01 0.1428000D+01 0.1428000D+01
EXPONENTS  0.1428000D+01 0.1428000D+01 0.1428000D+01 0.5000000D+00 0.5000000D+00
EXPONENTS  0.5000000D+00 0.5000000D+00 0.5000000D+00 0.5000000D+00 0.5000000D+00
EXPONENTS  0.5000000D+00 0.5000000D+00 0.5000000D+00
MO    1     MO 0.0        OCC NO =    2.0000166  ORB. ENERGY =    0.000000
  0.12315068D+00  0.22957767D+00  0.38801754D+00  0.58326273D+00  0.71643379D+00
  0.60464485D+00  0.22736225D+00  0.29320090D-04  0.21914951D-03  0.81901174D-03
  0.22849152D-02  0.30611565D-02 -0.36146550D-02  0.94447556D-02 -0.19936274D-02
 -0.30927238D-03  0.10690133D-04  0.10022680D-04  0.71367449D-05  0.40214432D-05
  0.37703586D-05  0.26847200D-05  0.36722389D-02  0.34429574D-02  0.24515908D-02
  0.43592555D-05  0.13650780D-05  0.19863749D-02  0.16863118D-05  0.29908251D-06
  0.38478748D-03 -0.57469731D-07 -0.11188940D-07  0.48957333D-05 -0.97184858D-04
 -0.49939653D-03  0.59658139D-03  0.25193389D-05 -0.15421133D-05 -0.97678857D-06
  0.33694916D-03 -0.32304498D-03 -0.13904183D-04  0.41383908D-05 -0.38611550D-05
 -0.44089288D-06  0.30925568D-04 -0.18826173D-04 -0.12099394D-04  0.31175199D-06
 -0.51834266D-06 -0.89920851D-07  0.36023707D-06 -0.38566354D-07  0.12402831D-03
  0.68991535D-07  0.10268981D-06 -0.16603036D-03 -0.11497027D-05  0.13009252D-07
 -0.20605456D-03  0.25016577D-06 -0.16103838D-06  0.31766354D-07 -0.14095898D-04
  0.35982650D-06 -0.65959041D-08  0.25094669D-05  0.12328865D-06 -0.88703157D-07
  0.39778228D-04 -0.23514156D-06 -0.34910005D-01 -0.65670978D-01 -0.11367982D+00
 -0.18634305D+00 -0.29190923D+00 -0.43876332D+00 -0.62709593D+00 -0.83246848D+00
 -0.96946969D+00 -0.89034575D+00 -0.52046555D+00 -0.13656713D+00 -0.77645996D-02
 -0.13548391D-03 -0.13637997D-04 -0.16564271D-02 -0.47850361D-02 -0.21930945D-01
 -0.64920373D-01 -0.18827097D+00 -0.39133860D+00 -0.55981452D+00 -0.16051670D+00
  0.64144624D+00  0.62021646D+00  0.13537172D+00 -0.19594647D-02 -0.10131348D-02
 -0.47264833D-02 -0.95920471D-02 -0.37592901D-01 -0.26379829D-01  0.17179543D+00
  0.53233505D+00  0.65116498D-01 -0.46534162D+00 -0.21838481D+00 -0.11099565D-05
 -0.15216622D-05  0.29173946D-05  0.62004228D-05 -0.23439333D-04 -0.75796848D-04
 -0.26360991D-04  0.25783920D-03  0.57511508D-03 -0.38162887D-03 -0.90646975D-02
  0.53799425D-03  0.15412116D-03  0.42225893D-02  0.60587854D-02  0.80223917D-02
  0.92644660D-02  0.85899071D-02  0.55627086D-02  0.19628529D-02  0.22616749D-03
 -0.36948820D-06  0.10020359D+02  0.14377719D+02  0.19037428D+02  0.21984916D+02
  0.20384163D+02  0.13200511D+02  0.46579217D+01  0.53670371D+00 -0.87680898D-03
  0.62326305D+01  0.89428945D+01  0.11841219D+02  0.13674546D+02  0.12678883D+02
  0.82106747D+01  0.28972122D+01  0.33382797D+00 -0.54537234D-03 -0.24138924D-04
  0.68824374D-04  0.33594062D-03  0.69613285D-03  0.87357801D-03  0.13853376D-03
 -0.11213840D-02 -0.97800942D-03 -0.25141188D-03 -0.59719646D-01  0.17027135D+00
  0.83111636D+00  0.17222311D+01  0.21612301D+01  0.34273222D+00 -0.27743015D+01
 -0.24195932D+01 -0.62199243D+00 -0.37225459D-01  0.10613642D+00  0.51806549D+00
  0.10735302D+01  0.13471745D+01  0.21363764D+00 -0.17293245D+01 -0.15082217D+01
 -0.38771083D+00 -0.44351982D-08 -0.62657769D-08  0.29154333D-08 -0.58425558D-08
 -0.64138185D-08 -0.17312907D-07 -0.54557543D-08  0.11713620D-07 -0.25825953D-03
 -0.36485328D-03  0.16976433D-03 -0.34020931D-03 -0.37347367D-03 -0.10081225D-02
 -0.31768604D-03  0.68207867D-03 -0.14280163D-03 -0.20174141D-03  0.93869226D-04
 -0.18811482D-03 -0.20650796D-03 -0.55742972D-03 -0.17566083D-03  0.37714754D-03
 -0.89784917D-05 -0.22028290D-01 -0.13850562D-01 -0.26120153D-06  0.12520243D-03
  0.59990446D-04  0.33293007D-07  0.87770842D-05  0.66718921D-05  0.10223258D+01
  0.10697538D+01  0.91148752D+00  0.60028344D+00  0.27665277D+00  0.82844119D-01
  0.14095224D-01 -0.12453111D+01 -0.13030839D+01 -0.11102972D+01 -0.73121466D+00
 -0.33699506D+00 -0.10091372D+00 -0.17169613D-01  0.22298526D+00  0.23333005D+00
  0.19880969D+00  0.13093121D+00  0.60342298D-01  0.18069599D-01  0.30743890D-02
 -0.60404452D-02 -0.63206751D-02 -0.53855535D-02 -0.35467941D-02 -0.16346118D-02
 -0.48948715D-03 -0.83282089D-04  0.93372936D-03  0.97704716D-03  0.83249648D-03
  0.54826187D-03  0.25267757D-03  0.75664708D-04  0.12873709D-04 -0.37527279D+01
 -0.39268254D+01 -0.33458654D+01 -0.22035053D+01 -0.10155300D+01 -0.30410210D+00
 -0.51740395D-01  0.11378011D-02 -0.13754452D-02  0.23764404D-03 -0.43362461D-05
  0.76862013D-06 -0.38113911D-02 -0.11628819D-03  0.11052405D-03  0.57641465D-05
 -0.20522563D-06  0.40574161D-07  0.30470490D-03 -0.13574784D-04  0.15148384D-04
 -0.15736006D-05 -0.69418933D-07  0.27677087D-07  0.28814721D-04  0.19642352D-06
 -0.40149676D-04  0.92023079D-04 -0.44491746D-06  0.20914459D-03  0.14535785D-03
 -0.14435311D-06 -0.88695557D-04 -0.42142709D-03 -0.13036113D-06 -0.45014917D-07
  0.97194615D-05 -0.20885041D-04 -0.18497837D-07 -0.68920756D-04 -0.54628759D-04
  0.15354259D-06  0.39762372D-04  0.11728388D-03  0.11512180D-07 -0.34869975D-01
 -0.65595675D-01 -0.11354946D+00 -0.18612937D+00 -0.29157450D+00 -0.43826020D+00
 -0.62637686D+00 -0.83151392D+00 -0.96835803D+00 -0.88932482D+00 -0.51986875D+00
 -0.13641053D+00 -0.77556962D-02 -0.13532856D-03 -0.13622359D-04 -0.16545287D-02
 -0.47795520D-02 -0.21905810D-01 -0.64845967D-01 -0.18805520D+00 -0.39089009D+00
 -0.55917291D+00 -0.16033273D+00  0.64071108D+00  0.61950562D+00  0.13521657D+00
 -0.19572190D-02 -0.10119812D-02 -0.47211017D-02 -0.95811257D-02 -0.37550098D-01
 -0.26349793D-01  0.17159982D+00  0.53172894D+00  0.65042357D-01 -0.46481179D+00
 -0.21813616D+00 -0.11086826D-05 -0.15199159D-05  0.29140464D-05  0.61933068D-05
 -0.23412433D-04 -0.75709860D-04 -0.26330738D-04  0.25754329D-03  0.57445505D-03
 -0.38119089D-03 -0.90542682D-02  0.53740917D-03  0.15415573D-03  0.66973624D-01
  0.96097154D-01  0.12724151D+00  0.14694180D+00  0.13624276D+00  0.88228982D-01
  0.31132409D-01  0.35871963D-02 -0.58603766D-05 -0.10004771D+02 -0.14355353D+02
 -0.19007813D+02 -0.21950716D+02 -0.20352453D+02 -0.13179976D+02 -0.46506757D+01
 -0.53586881D+00  0.87544500D-03  0.62232864D+01  0.89294871D+01  0.11823466D+02
  0.13654045D+02  0.12659875D+02  0.81983651D+01  0.28928686D+01  0.33332748D+00
 -0.54455470D-03 -0.39812279D-03  0.11351190D-02  0.55406618D-02  0.11481305D-01
  0.14407904D-01  0.22848345D-02 -0.18494963D-01 -0.16130290D-01 -0.41465310D-02
  0.59626340D-01 -0.17000532D+00 -0.82981782D+00 -0.17195403D+01 -0.21578534D+01
 -0.34219674D+00  0.27699670D+01  0.24158128D+01  0.62102063D+00 -0.37169573D-01
  0.10597707D+00  0.51728772D+00  0.10719185D+01  0.13451519D+01  0.21331691D+00
 -0.17267283D+01 -0.15059574D+01 -0.38712876D+00 -0.16232220D-05 -0.22931888D-05
  0.10670088D-05 -0.21382957D-05 -0.23473700D-05 -0.63362875D-05 -0.19967316D-05
  0.42870252D-05  0.25814960D-03  0.36469797D-03 -0.16969206D-03  0.34006449D-03
  0.37331469D-03  0.10076934D-02  0.31755081D-03 -0.68178833D-03 -0.14266317D-03
 -0.20154580D-03  0.93778209D-04 -0.18793242D-03 -0.20630773D-03 -0.55688922D-03
 -0.17549051D-03  0.37678185D-03 -0.14692550D-03  0.21993820D-01 -0.13829819D-01
  0.52484685D-06 -0.12532444D-03  0.60012992D-04  0.88354141D-07 -0.87743827D-05
  0.66719632D-05  0.10205414D+01  0.10678866D+01  0.90989653D+00  0.59923565D+00
  0.27616987D+00  0.82699515D-01  0.14070621D-01 -0.12432042D+01 -0.13008793D+01
 -0.11084188D+01 -0.72997756D+00 -0.33642492D+00 -0.10074299D+00 -0.17140565D-01
  0.22266286D+00  0.23299269D+00  0.19852225D+00  0.13074191D+00  0.60255053D-01
  0.18043473D-01  0.30699440D-02  0.34433520D-01  0.36030969D-01  0.30700314D-01
  0.20218477D-01  0.93180943D-02  0.27903184D-02  0.47474902D-03 -0.22570078D-01
 -0.23617155D-01 -0.20123080D-01 -0.13252569D-01 -0.61077147D-02 -0.18289650D-02
 -0.31118290D-03  0.37466912D+01  0.39205086D+01  0.33404832D+01  0.21999607D+01
  0.10138964D+01  0.30361291D+00  0.51657163D-01  0.11359890D-02 -0.13734011D-02
  0.23741204D-03  0.35812262D-04 -0.23103582D-04  0.38055511D-02 -0.11618694D-03
  0.11047028D-03  0.57166599D-05 -0.26377640D-05  0.19497313D-05 -0.30445542D-03
 -0.13578500D-04  0.15150905D-04 -0.15724055D-05 -0.29085949D-06  0.20844453D-06
 -0.28787652D-04  0.15061528D-05  0.40084145D-04  0.91866269D-04 -0.38180705D-05
 -0.20877415D-03  0.14513019D-03 -0.70038798D-06  0.88521720D-04 -0.42072900D-03
  0.72298409D-05 -0.47691665D-06 -0.97209843D-05 -0.20856918D-04  0.10279149D-05
  0.68852610D-04 -0.54577197D-04  0.40283502D-06 -0.39689657D-04  0.11714795D-03
 -0.21657901D-05 -0.35431929D-01 -0.66039290D-01 -0.11197890D+00 -0.16946815D+00
 -0.21139816D+00 -0.18141107D+00 -0.69470804D-01 -0.34372191D-05 -0.36879106D-04
 -0.13594333D-03 -0.39749032D-03 -0.47899516D-03  0.57700043D-03 -0.31477189D-02
  0.29524544D-03  0.68435140D-04  0.67605406D-05  0.65554502D-05  0.44222680D-05
 -0.19608432D-05 -0.19013583D-05 -0.12826451D-05  0.27616728D-02  0.26778936D-02
  0.18064912D-02  0.15929850D-05 -0.43575168D-06  0.61969310D-03  0.16568832D-05
  0.55799426D-07  0.77191495D-04  0.24167178D-06  0.20858073D-07  0.74408773D-05
  0.28558470D-03 -0.50259742D-04 -0.23532496D-03  0.21051607D-05  0.18425317D-08
 -0.24615247D-06  0.32283189D-04  0.15425315D-03 -0.18653634D-03 -0.76428326D-06
 -0.17301229D-05 -0.15128368D-06  0.24670020D-05  0.45657988D-04 -0.48124990D-04
 -0.27010263D-06 -0.78722897D-06 -0.47758265D-07  0.75011057D-06 -0.40360751D-07
 -0.29156412D-03 -0.11365881D-05  0.94819198D-07  0.43150227D-03 -0.11137436D-05
  0.26263055D-07  0.44319010D-03 -0.70175315D-07 -0.39165033D-06  0.12184785D-08
  0.79501684D-04  0.59052809D-07 -0.39314273D-07 -0.39823303D-04  0.11158982D-05
  0.35658837D-07 -0.19868175D-03  0.99440869D-06
MO    2     MO 0.0        OCC NO =    2.0000158  ORB. ENERGY =    0.000000
  0.83774009D-04  0.15617163D-03  0.26395133D-03  0.39676808D-03  0.48735852D-03
  0.41131340D-03  0.15466458D-03  0.19205623D-07  0.14355014D-06  0.53647963D-06
  0.14966946D-05  0.20051582D-05 -0.23677179D-05  0.64795042D-05 -0.13102975D-05
 -0.20790067D-06  0.18341439D-04  0.17196265D-04  0.12244765D-04 -0.58458525D-02
 -0.54808583D-02 -0.39026976D-02  0.22748166D-05  0.21327852D-05  0.15186701D-05
  0.61959086D-05 -0.19746048D-02  0.12758143D-05  0.14206947D-05 -0.45260790D-03
  0.25336915D-06 -0.50699935D-07  0.16152359D-04  0.33523853D-08 -0.89678634D-07
 -0.31905161D-06  0.40873025D-06  0.54980584D-05 -0.45651964D-05  0.14552556D-02
  0.22122849D-06 -0.20858631D-06 -0.12642183D-07  0.24745721D-05 -0.19698015D-05
  0.62720237D-03  0.19086088D-07 -0.11175242D-07 -0.79108464D-08  0.51994917D-06
 -0.41819870D-06  0.13322446D-03  0.45897007D-06  0.55436250D-04  0.81636737D-07
 -0.14390101D-05 -0.14626186D-03 -0.12166566D-06  0.62099881D-07 -0.20046891D-04
 -0.12324455D-06  0.12825606D-05 -0.29971687D-07 -0.45930956D-04 -0.96333966D-08
  0.49213148D-06  0.95162257D-05 -0.65058837D-08 -0.40221642D-06  0.12827664D-03
  0.35406074D-07  0.20278769D-05  0.31173861D-01  0.58642729D-01  0.10151356D+00
  0.16640021D+00  0.26066847D+00  0.39180592D+00  0.55998277D+00  0.74337591D+00
  0.86571495D+00  0.79505903D+00  0.46476421D+00  0.12195142D+00  0.69336155D-02
  0.12098413D-03  0.12178429D-04  0.14789070D-02  0.42722214D-02  0.19580594D-01
  0.57962824D-01  0.16809388D+00  0.34939865D+00  0.49981891D+00  0.14331405D+00
 -0.57270212D+00 -0.55374755D+00 -0.12086387D+00  0.17494679D-02  0.89992378D-03
  0.41983306D-02  0.85202003D-02  0.33392147D-01  0.23432060D-01 -0.15259845D+00
 -0.47285019D+00 -0.57840168D-01  0.41334283D+00  0.19398178D+00  0.98122495D-06
  0.13451815D-05 -0.25790384D-05 -0.54813046D-05  0.20720865D-04  0.67006014D-04
  0.23303673D-04 -0.22793530D-03 -0.50841387D-03  0.33736798D-03  0.80767877D-02
 -0.39983899D-03  0.28506502D-04 -0.52843353D-02 -0.75822324D-02 -0.10039576D-01
 -0.11593963D-01 -0.10749790D-01 -0.69614199D-02 -0.24564011D-02 -0.28303601D-03
  0.46239389D-06 -0.11505706D+02 -0.16508971D+02 -0.21859404D+02 -0.25243806D+02
 -0.23405769D+02 -0.15157262D+02 -0.53483794D+01 -0.61626091D+00  0.10067810D-02
 -0.68566528D+01 -0.98382734D+01 -0.13026783D+02 -0.15043667D+02 -0.13948316D+02
 -0.90327425D+01 -0.31872863D+01 -0.36725143D+00  0.59997601D-03  0.30774318D-04
 -0.87743062D-04 -0.42828517D-03 -0.88748831D-03 -0.11137102D-02 -0.17661441D-03
  0.14296340D-02  0.12468481D-02  0.32052086D-03  0.68921445D-01 -0.19650732D+00
 -0.95917749D+00 -0.19875981D+01 -0.24942395D+01 -0.39554152D+00  0.32017750D+01
  0.27924120D+01  0.71783106D+00  0.41010958D-01 -0.11692955D+00 -0.57074816D+00
 -0.11826987D+01 -0.14841702D+01 -0.23536269D+00  0.19051815D+01  0.16615945D+01
  0.42713759D+00  0.42994017D-06  0.60739320D-06 -0.28261688D-06  0.56636690D-06
  0.62174409D-06  0.16782822D-05  0.52887105D-06 -0.11354974D-05  0.78168484D-04
  0.11043166D-03 -0.51383273D-04  0.10297256D-03  0.11304083D-03  0.30513262D-03
  0.96155352D-04 -0.20644758D-03  0.10387331D-03  0.14674587D-03 -0.68280085D-04
  0.13683394D-03  0.15021303D-03  0.40547206D-03  0.12777496D-03 -0.27433555D-03
  0.12057604D-04  0.25422898D-01  0.15197515D-01 -0.72243038D-07  0.98760013D-04
  0.18103740D-04  0.15595688D-07 -0.16783334D-05  0.14490899D-06 -0.11584104D+01
 -0.12121517D+01 -0.10328181D+01 -0.68018881D+00 -0.31347877D+00 -0.93871725D-01
 -0.15971478D-01  0.14138256D+01  0.14794162D+01  0.12605418D+01  0.83016205D+00
  0.38259697D+00  0.11456928D+00  0.19492992D-01 -0.25541521D+00 -0.26726449D+00
 -0.22772365D+00 -0.14997324D+00 -0.69118202D-01 -0.20697557D-01 -0.35215139D-02
  0.64722549D-02  0.67725174D-02  0.57705473D-02  0.38003417D-02  0.17514643D-02
  0.52447883D-03  0.89235626D-04 -0.11471185D-02 -0.12003359D-02 -0.10227505D-02
 -0.67355850D-03 -0.31042306D-03 -0.92956687D-04 -0.15815792D-04  0.42083065D+01
  0.44035393D+01  0.37520512D+01  0.24710093D+01  0.11388146D+01  0.34101989D+00
  0.58021643D-01 -0.11859475D-02  0.13733522D-02 -0.18740466D-03  0.55960125D-05
 -0.51847191D-06  0.40782837D-02  0.68611939D-04 -0.35268326D-04 -0.33343612D-04
 -0.51566471D-06 -0.48518561D-06 -0.17555720D-03 -0.38814669D-05  0.29696941D-05
  0.91177288D-06 -0.12257507D-06  0.14470883D-06 -0.18935773D-04 -0.11494848D-07
  0.40010782D-04 -0.11321744D-03  0.60023340D-06 -0.23446060D-03 -0.14309863D-03
 -0.56574886D-06  0.11442825D-03  0.48275094D-03 -0.99017643D-07  0.28502955D-07
  0.30745324D-05  0.20642214D-04 -0.33347016D-06  0.40908837D-04  0.31452657D-04
  0.24796130D-06 -0.50132434D-04 -0.93379299D-04 -0.15914857D-06 -0.31222583D-01
 -0.58734382D-01 -0.10167221D+00 -0.16666028D+00 -0.26107587D+00 -0.39241828D+00
 -0.56085797D+00 -0.74453774D+00 -0.86706798D+00 -0.79630163D+00 -0.46549059D+00
 -0.12214202D+00 -0.69444520D-02 -0.12117322D-03 -0.12197463D-04 -0.14812197D-02
 -0.42789023D-02 -0.19611214D-01 -0.58053466D-01 -0.16835674D+00 -0.34994503D+00
 -0.50060053D+00 -0.14353816D+00  0.57359772D+00  0.55461350D+00  0.12105287D+00
 -0.17522037D-02 -0.90134072D-03 -0.42049409D-02 -0.85336155D-02 -0.33444723D-01
 -0.23468954D-01  0.15283871D+00  0.47359470D+00  0.57931237D-01 -0.41399364D+00
 -0.19428720D+00 -0.98272452D-06 -0.13472373D-05  0.25829798D-05  0.54896815D-05
 -0.20752532D-04 -0.67108417D-04 -0.23339287D-04  0.22828364D-03  0.50919086D-03
 -0.33788356D-03 -0.80893745D-02  0.40049509D-03 -0.28300568D-04  0.77543592D-01
  0.11126348D+00  0.14732313D+00  0.17013257D+00  0.15774498D+00  0.10215353D+00
  0.36045814D-01  0.41533378D-02 -0.67852780D-05 -0.11518509D+02 -0.16527341D+02
 -0.21883727D+02 -0.25271895D+02 -0.23431813D+02 -0.15174128D+02 -0.53543306D+01
 -0.61694664D+00  0.10079013D-02  0.68646553D+01  0.98497557D+01  0.13041987D+02
  0.15061225D+02  0.13964596D+02  0.90432847D+01  0.31910062D+01  0.36768005D+00
 -0.60067625D-03 -0.46361742D-03  0.13218559D-02  0.64521485D-02  0.13370079D-01