 br2co-wavefunction
GAUSSIAN            210 MOL ORBITALS    578 PRIMITIVES        4 NUCLEI
  C    1    (CENTRE  1)   0.00000000  0.00000000 -0.91039257  CHARGE =  6.0
  Br   2    (CENTRE  2)   0.00000000 -3.01256550 -2.92306618  CHARGE = 35.0
  Br   3    (CENTRE  3)   0.00000000  3.01256550 -2.92306618  CHARGE = 35.0
  O    4    (CENTRE  4)   0.00000000  0.00000000  1.29351754  CHARGE =  8.0
CENTRE ASSIGNMENTS    1  1  1  1  1  1  1  1  1  1  1  1  1  1  1  1  1  1  1  1
CENTRE ASSIGNMENTS    1  1  1  1  1  1  1  1  1  1  1  1  1  1  1  1  1  1  1  1
CENTRE ASSIGNMENTS    1  1  1  1  1  1  1  1  1  1  1  1  1  1  1  1  1  1  1  1
CENTRE ASSIGNMENTS    1  1  1  1  1  1  1  1  1  1  1  1  2  2  2  2  2  2  2  2
CENTRE ASSIGNMENTS    2  2  2  2  2  2  2  2  2  2  2  2  2  2  2  2  2  2  2  2
CENTRE ASSIGNMENTS    2  2  2  2  2  2  2  2  2  2  2  2  2  2  2  2  2  2  2  2
CENTRE ASSIGNMENTS    2  2  2  2  2  2  2  2  2  2  2  2  2  2  2  2  2  2  2  2
CENTRE ASSIGNMENTS    2  2  2  2  2  2  2  2  2  2  2  2  2  2  2  2  2  2  2  2
CENTRE ASSIGNMENTS    2  2  2  2  2  2  2  2  2  2  2  2  2  2  2  2  2  2  2  2
CENTRE ASSIGNMENTS    2  2  2  2  2  2  2  2  2  2  2  2  2  2  2  2  2  2  2  2
CENTRE ASSIGNMENTS    2  2  2  2  2  2  2  2  2  2  2  2  2  2  2  2  2  2  2  2
CENTRE ASSIGNMENTS    2  2  2  2  2  2  2  2  2  2  2  2  2  2  2  2  2  2  2  2
CENTRE ASSIGNMENTS    2  2  2  2  2  2  2  2  2  2  2  2  2  2  2  2  2  2  2  2
CENTRE ASSIGNMENTS    2  2  2  2  2  2  2  2  2  2  2  2  2  2  2  2  2  2  2  2
CENTRE ASSIGNMENTS    2  2  2  2  2  2  2  2  2  3  3  3  3  3  3  3  3  3  3  3
CENTRE ASSIGNMENTS    3  3  3  3  3  3  3  3  3  3  3  3  3  3  3  3  3  3  3  3
CENTRE ASSIGNMENTS    3  3  3  3  3  3  3  3  3  3  3  3  3  3  3  3  3  3  3  3
CENTRE ASSIGNMENTS    3  3  3  3  3  3  3  3  3  3  3  3  3  3  3  3  3  3  3  3
CENTRE ASSIGNMENTS    3  3  3  3  3  3  3  3  3  3  3  3  3  3  3  3  3  3  3  3
CENTRE ASSIGNMENTS    3  3  3  3  3  3  3  3  3  3  3  3  3  3  3  3  3  3  3  3
CENTRE ASSIGNMENTS    3  3  3  3  3  3  3  3  3  3  3  3  3  3  3  3  3  3  3  3
CENTRE ASSIGNMENTS    3  3  3  3  3  3  3  3  3  3  3  3  3  3  3  3  3  3  3  3
CENTRE ASSIGNMENTS    3  3  3  3  3  3  3  3  3  3  3  3  3  3  3  3  3  3  3  3
CENTRE ASSIGNMENTS    3  3  3  3  3  3  3  3  3  3  3  3  3  3  3  3  3  3  3  3
CENTRE ASSIGNMENTS    3  3  3  3  3  3  3  3  3  3  3  3  3  3  3  3  3  3  3  3
CENTRE ASSIGNMENTS    3  3  3  3  3  3  4  4  4  4  4  4  4  4  4  4  4  4  4  4
CENTRE ASSIGNMENTS    4  4  4  4  4  4  4  4  4  4  4  4  4  4  4  4  4  4  4  4
CENTRE ASSIGNMENTS    4  4  4  4  4  4  4  4  4  4  4  4  4  4  4  4  4  4  4  4
CENTRE ASSIGNMENTS    4  4  4  4  4  4  4  4  4  4  4  4  4  4  4  4  4  4
TYPE ASSIGNMENTS      1  1  1  1  1  1  1  1  1  1  1  1  1  1  1  1  2  2  2  3
TYPE ASSIGNMENTS      3  3  4  4  4  2  3  4  2  3  4  2  3  4  5  6  7  8  9 10
TYPE ASSIGNMENTS      5  6  7  8  9 10  5  6  7  8  9 10 11 12 13 17 14 15 18 19
TYPE ASSIGNMENTS     16 20 11 12 13 17 14 15 18 19 16 20  1  1  1  1  1  1  1  1
TYPE ASSIGNMENTS      1  1  1  1  1  1  1  1  1  1  1  1  1  1  1  1  1  1  1  1
TYPE ASSIGNMENTS      1  1  1  1  1  1  1  1  1  1  1  1  1  1  1  1  1  1  1  1
TYPE ASSIGNMENTS      1  1  2  2  2  2  2  2  2  2  2  3  3  3  3  3  3  3  3  3
TYPE ASSIGNMENTS      4  4  4  4  4  4  4  4  4  2  2  2  2  2  2  2  2  2  3  3
TYPE ASSIGNMENTS      3  3  3  3  3  3  3  4  4  4  4  4  4  4  4  4  2  2  2  2
TYPE ASSIGNMENTS      2  2  2  2  3  3  3  3  3  3  3  3  4  4  4  4  4  4  4  4
TYPE ASSIGNMENTS      2  3  4  2  3  4  2  3  4  5  5  5  5  5  5  5  6  6  6  6
TYPE ASSIGNMENTS      6  6  6  7  7  7  7  7  7  7  8  8  8  8  8  8  8  9  9  9
TYPE ASSIGNMENTS      9  9  9  9 10 10 10 10 10 10 10  5  6  7  8  9 10  5  6  7
TYPE ASSIGNMENTS      8  9 10  5  6  7  8  9 10 11 12 13 17 14 15 18 19 16 20 11
TYPE ASSIGNMENTS     12 13 17 14 15 18 19 16 20  1  1  1  1  1  1  1  1  1  1  1
TYPE ASSIGNMENTS      1  1  1  1  1  1  1  1  1  1  1  1  1  1  1  1  1  1  1  1
TYPE ASSIGNMENTS      1  1  1  1  1  1  1  1  1  1  1  1  1  1  1  1  1  1  1  2
TYPE ASSIGNMENTS      2  2  2  2  2  2  2  2  3  3  3  3  3  3  3  3  3  4  4  4
TYPE ASSIGNMENTS      4  4  4  4  4  4  2  2  2  2  2  2  2  2  2  3  3  3  3  3
TYPE ASSIGNMENTS      3  3  3  3  4  4  4  4  4  4  4  4  4  2  2  2  2  2  2  2
TYPE ASSIGNMENTS      2  3  3  3  3  3  3  3  3  4  4  4  4  4  4  4  4  2  3  4
TYPE ASSIGNMENTS      2  3  4  2  3  4  5  5  5  5  5  5  5  6  6  6  6  6  6  6
TYPE ASSIGNMENTS      7  7  7  7  7  7  7  8  8  8  8  8  8  8  9  9  9  9  9  9
TYPE ASSIGNMENTS      9 10 10 10 10 10 10 10  5  6  7  8  9 10  5  6  7  8  9 10
TYPE ASSIGNMENTS      5  6  7  8  9 10 11 12 13 17 14 15 18 19 16 20 11 12 13 17
TYPE ASSIGNMENTS     14 15 18 19 16 20  1  1  1  1  1  1  1  1  1  1  1  1  1  1
TYPE ASSIGNMENTS      1  1  2  2  2  3  3  3  4  4  4  2  3  4  2  3  4  2  3  4
TYPE ASSIGNMENTS      5  6  7  8  9 10  5  6  7  8  9 10  5  6  7  8  9 10 11 12
TYPE ASSIGNMENTS     13 17 14 15 18 19 16 20 11 12 13 17 14 15 18 19 16 20
EXPONENTS  0.8236000D+04 0.1235000D+04 0.2808000D+03 0.7927000D+02 0.2559000D+02
EXPONENTS  0.8997000D+01 0.3319000D+01 0.2808000D+03 0.7927000D+02 0.2559000D+02
EXPONENTS  0.8997000D+01 0.3319000D+01 0.3643000D+00 0.9059000D+00 0.1285000D+00
EXPONENTS  0.4402000D-01 0.1871000D+02 0.4133000D+01 0.1200000D+01 0.1871000D+02
EXPONENTS  0.4133000D+01 0.1200000D+01 0.1871000D+02 0.4133000D+01 0.1200000D+01
EXPONENTS  0.3827000D+00 0.3827000D+00 0.3827000D+00 0.1209000D+00 0.1209000D+00
EXPONENTS  0.1209000D+00 0.3569000D-01 0.3569000D-01 0.3569000D-01 0.1097000D+01
EXPONENTS  0.1097000D+01 0.1097000D+01 0.1097000D+01 0.1097000D+01 0.1097000D+01
EXPONENTS  0.3180000D+00 0.3180000D+00 0.3180000D+00 0.3180000D+00 0.3180000D+00
EXPONENTS  0.3180000D+00 0.1000000D+00 0.1000000D+00 0.1000000D+00 0.1000000D+00
EXPONENTS  0.1000000D+00 0.1000000D+00 0.7610000D+00 0.7610000D+00 0.7610000D+00
EXPONENTS  0.7610000D+00 0.7610000D+00 0.7610000D+00 0.7610000D+00 0.7610000D+00
EXPONENTS  0.7610000D+00 0.7610000D+00 0.2680000D+00 0.2680000D+00 0.2680000D+00
EXPONENTS  0.2680000D+00 0.2680000D+00 0.2680000D+00 0.2680000D+00 0.2680000D+00
EXPONENTS  0.2680000D+00 0.2680000D+00 0.1063900D+08 0.1593400D+07 0.3626100D+06
EXPONENTS  0.1027000D+06 0.3350100D+05 0.1209300D+05 0.4715900D+04 0.1955600D+04
EXPONENTS  0.8526100D+03 0.3876700D+03 0.1826800D+03 0.8824500D+02 0.3926300D+02
EXPONENTS  0.9405700D+01 0.1899500D+01 0.3350100D+05 0.1209300D+05 0.4715900D+04
EXPONENTS  0.1955600D+04 0.8526100D+03 0.3876700D+03 0.1826800D+03 0.8824500D+02
EXPONENTS  0.3926300D+02 0.1923400D+02 0.9405700D+01 0.1899500D+01 0.4715900D+04
EXPONENTS  0.8526100D+03 0.3876700D+03 0.1826800D+03 0.8824500D+02 0.3926300D+02
EXPONENTS  0.1923400D+02 0.9405700D+01 0.4160100D+01 0.1899500D+01 0.4715900D+04
EXPONENTS  0.8526100D+03 0.3876700D+03 0.8824500D+02 0.3926300D+02 0.1923400D+02
EXPONENTS  0.9405700D+01 0.4160100D+01 0.1899500D+01 0.3011400D+00 0.6047200D+00
EXPONENTS  0.1251500D+00 0.4559300D-01 0.8676500D+04 0.2055900D+04 0.6662300D+03
EXPONENTS  0.2531000D+03 0.1061200D+03 0.4724200D+02 0.2182500D+02 0.9968400D+01
EXPONENTS  0.1998200D+01 0.8676500D+04 0.2055900D+04 0.6662300D+03 0.2531000D+03
EXPONENTS  0.1061200D+03 0.4724200D+02 0.2182500D+02 0.9968400D+01 0.1998200D+01
EXPONENTS  0.8676500D+04 0.2055900D+04 0.6662300D+03 0.2531000D+03 0.1061200D+03
EXPONENTS  0.4724200D+02 0.2182500D+02 0.9968400D+01 0.1998200D+01 0.8676500D+04
EXPONENTS  0.6662300D+03 0.2531000D+03 0.1061200D+03 0.4724200D+02 0.2182500D+02
EXPONENTS  0.9968400D+01 0.4517100D+01 0.1998200D+01 0.8676500D+04 0.6662300D+03
EXPONENTS  0.2531000D+03 0.1061200D+03 0.4724200D+02 0.2182500D+02 0.9968400D+01
EXPONENTS  0.4517100D+01 0.1998200D+01 0.8676500D+04 0.6662300D+03 0.2531000D+03
EXPONENTS  0.1061200D+03 0.4724200D+02 0.2182500D+02 0.9968400D+01 0.4517100D+01
EXPONENTS  0.1998200D+01 0.6662300D+03 0.1061200D+03 0.4724200D+02 0.2182500D+02
EXPONENTS  0.9968400D+01 0.4517100D+01 0.1998200D+01 0.2814500D+00 0.6662300D+03
EXPONENTS  0.1061200D+03 0.4724200D+02 0.2182500D+02 0.9968400D+01 0.4517100D+01
EXPONENTS  0.1998200D+01 0.2814500D+00 0.6662300D+03 0.1061200D+03 0.4724200D+02
EXPONENTS  0.2182500D+02 0.9968400D+01 0.4517100D+01 0.1998200D+01 0.2814500D+00
EXPONENTS  0.7098800D+00 0.7098800D+00 0.7098800D+00 0.1020400D+00 0.1020400D+00
EXPONENTS  0.1020400D+00 0.3514200D-01 0.3514200D-01 0.3514200D-01 0.4038300D+03
EXPONENTS  0.1211700D+03 0.4634500D+02 0.1972100D+02 0.8862400D+01 0.3996200D+01
EXPONENTS  0.1763600D+01 0.4038300D+03 0.1211700D+03 0.4634500D+02 0.1972100D+02
EXPONENTS  0.8862400D+01 0.3996200D+01 0.1763600D+01 0.4038300D+03 0.1211700D+03
EXPONENTS  0.4634500D+02 0.1972100D+02 0.8862400D+01 0.3996200D+01 0.1763600D+01
EXPONENTS  0.4038300D+03 0.1211700D+03 0.4634500D+02 0.1972100D+02 0.8862400D+01
EXPONENTS  0.3996200D+01 0.1763600D+01 0.4038300D+03 0.1211700D+03 0.4634500D+02
EXPONENTS  0.1972100D+02 0.8862400D+01 0.3996200D+01 0.1763600D+01 0.4038300D+03
EXPONENTS  0.1211700D+03 0.4634500D+02 0.1972100D+02 0.8862400D+01 0.3996200D+01
EXPONENTS  0.1763600D+01 0.7061900D+00 0.7061900D+00 0.7061900D+00 0.7061900D+00
EXPONENTS  0.7061900D+00 0.7061900D+00 0.2639000D+00 0.2639000D+00 0.2639000D+00
EXPONENTS  0.2639000D+00 0.2639000D+00 0.2639000D+00 0.1047000D+00 0.1047000D+00
EXPONENTS  0.1047000D+00 0.1047000D+00 0.1047000D+00 0.1047000D+00 0.5515000D+00
EXPONENTS  0.5515000D+00 0.5515000D+00 0.5515000D+00 0.5515000D+00 0.5515000D+00
EXPONENTS  0.5515000D+00 0.5515000D+00 0.5515000D+00 0.5515000D+00 0.2580000D+00
EXPONENTS  0.2580000D+00 0.2580000D+00 0.2580000D+00 0.2580000D+00 0.2580000D+00
EXPONENTS  0.2580000D+00 0.2580000D+00 0.2580000D+00 0.2580000D+00 0.1063900D+08
EXPONENTS  0.1593400D+07 0.3626100D+06 0.1027000D+06 0.3350100D+05 0.1209300D+05
EXPONENTS  0.4715900D+04 0.1955600D+04 0.8526100D+03 0.3876700D+03 0.1826800D+03
EXPONENTS  0.8824500D+02 0.3926300D+02 0.9405700D+01 0.1899500D+01 0.3350100D+05
EXPONENTS  0.1209300D+05 0.4715900D+04 0.1955600D+04 0.8526100D+03 0.3876700D+03
EXPONENTS  0.1826800D+03 0.8824500D+02 0.3926300D+02 0.1923400D+02 0.9405700D+01
EXPONENTS  0.1899500D+01 0.4715900D+04 0.8526100D+03 0.3876700D+03 0.1826800D+03
EXPONENTS  0.8824500D+02 0.3926300D+02 0.1923400D+02 0.9405700D+01 0.4160100D+01
EXPONENTS  0.1899500D+01 0.4715900D+04 0.8526100D+03 0.3876700D+03 0.8824500D+02
EXPONENTS  0.3926300D+02 0.1923400D+02 0.9405700D+01 0.4160100D+01 0.1899500D+01
EXPONENTS  0.3011400D+00 0.6047200D+00 0.1251500D+00 0.4559300D-01 0.8676500D+04
EXPONENTS  0.2055900D+04 0.6662300D+03 0.2531000D+03 0.1061200D+03 0.4724200D+02
EXPONENTS  0.2182500D+02 0.9968400D+01 0.1998200D+01 0.8676500D+04 0.2055900D+04
EXPONENTS  0.6662300D+03 0.2531000D+03 0.1061200D+03 0.4724200D+02 0.2182500D+02
EXPONENTS  0.9968400D+01 0.1998200D+01 0.8676500D+04 0.2055900D+04 0.6662300D+03
EXPONENTS  0.2531000D+03 0.1061200D+03 0.4724200D+02 0.2182500D+02 0.9968400D+01
EXPONENTS  0.1998200D+01 0.8676500D+04 0.6662300D+03 0.2531000D+03 0.1061200D+03
EXPONENTS  0.4724200D+02 0.2182500D+02 0.9968400D+01 0.4517100D+01 0.1998200D+01
EXPONENTS  0.8676500D+04 0.6662300D+03 0.2531000D+03 0.1061200D+03 0.4724200D+02
EXPONENTS  0.2182500D+02 0.9968400D+01 0.4517100D+01 0.1998200D+01 0.8676500D+04
EXPONENTS  0.6662300D+03 0.2531000D+03 0.1061200D+03 0.4724200D+02 0.2182500D+02
EXPONENTS  0.9968400D+01 0.4517100D+01 0.1998200D+01 0.6662300D+03 0.1061200D+03
EXPONENTS  0.4724200D+02 0.2182500D+02 0.9968400D+01 0.4517100D+01 0.1998200D+01
EXPONENTS  0.2814500D+00 0.6662300D+03 0.1061200D+03 0.4724200D+02 0.2182500D+02
EXPONENTS  0.9968400D+01 0.4517100D+01 0.1998200D+01 0.2814500D+00 0.6662300D+03
EXPONENTS  0.1061200D+03 0.4724200D+02 0.2182500D+02 0.9968400D+01 0.4517100D+01
EXPONENTS  0.1998200D+01 0.2814500D+00 0.7098800D+00 0.7098800D+00 0.7098800D+00
EXPONENTS  0.1020400D+00 0.1020400D+00 0.1020400D+00 0.3514200D-01 0.3514200D-01
EXPONENTS  0.3514200D-01 0.4038300D+03 0.1211700D+03 0.4634500D+02 0.1972100D+02
EXPONENTS  0.8862400D+01 0.3996200D+01 0.1763600D+01 0.4038300D+03 0.1211700D+03
EXPONENTS  0.4634500D+02 0.1972100D+02 0.8862400D+01 0.3996200D+01 0.1763600D+01
EXPONENTS  0.4038300D+03 0.1211700D+03 0.4634500D+02 0.1972100D+02 0.8862400D+01
EXPONENTS  0.3996200D+01 0.1763600D+01 0.4038300D+03 0.1211700D+03 0.4634500D+02
EXPONENTS  0.1972100D+02 0.8862400D+01 0.3996200D+01 0.1763600D+01 0.4038300D+03
EXPONENTS  0.1211700D+03 0.4634500D+02 0.1972100D+02 0.8862400D+01 0.3996200D+01
EXPONENTS  0.1763600D+01 0.4038300D+03 0.1211700D+03 0.4634500D+02 0.1972100D+02
EXPONENTS  0.8862400D+01 0.3996200D+01 0.1763600D+01 0.7061900D+00 0.7061900D+00
EXPONENTS  0.7061900D+00 0.7061900D+00 0.7061900D+00 0.7061900D+00 0.2639000D+00
EXPONENTS  0.2639000D+00 0.2639000D+00 0.2639000D+00 0.2639000D+00 0.2639000D+00
EXPONENTS  0.1047000D+00 0.1047000D+00 0.1047000D+00 0.1047000D+00 0.1047000D+00
EXPONENTS  0.1047000D+00 0.5515000D+00 0.5515000D+00 0.5515000D+00 0.5515000D+00
EXPONENTS  0.5515000D+00 0.5515000D+00 0.5515000D+00 0.5515000D+00 0.5515000D+00
EXPONENTS  0.5515000D+00 0.2580000D+00 0.2580000D+00 0.2580000D+00 0.2580000D+00
EXPONENTS  0.2580000D+00 0.2580000D+00 0.2580000D+00 0.2580000D+00 0.2580000D+00
EXPONENTS  0.2580000D+00 0.1533000D+05 0.2299000D+04 0.5224000D+03 0.1473000D+03
EXPONENTS  0.4755000D+02 0.1676000D+02 0.6207000D+01 0.5224000D+03 0.1473000D+03
EXPONENTS  0.4755000D+02 0.1676000D+02 0.6207000D+01 0.6882000D+00 0.1752000D+01
EXPONENTS  0.2384000D+00 0.7376000D-01 0.3446000D+02 0.7749000D+01 0.2280000D+01
EXPONENTS  0.3446000D+02 0.7749000D+01 0.2280000D+01 0.3446000D+02 0.7749000D+01
EXPONENTS  0.2280000D+01 0.7156000D+00 0.7156000D+00 0.7156000D+00 0.2140000D+00
EXPONENTS  0.2140000D+00 0.2140000D+00 0.5974000D-01 0.5974000D-01 0.5974000D-01
EXPONENTS  0.2314000D+01 0.2314000D+01 0.2314000D+01 0.2314000D+01 0.2314000D+01
EXPONENTS  0.2314000D+01 0.6450000D+00 0.6450000D+00 0.6450000D+00 0.6450000D+00
EXPONENTS  0.6450000D+00 0.6450000D+00 0.2140000D+00 0.2140000D+00 0.2140000D+00
EXPONENTS  0.2140000D+00 0.2140000D+00 0.2140000D+00 0.1428000D+01 0.1428000D+01
EXPONENTS  0.1428000D+01 0.1428000D+01 0.1428000D+01 0.1428000D+01 0.1428000D+01
EXPONENTS  0.1428000D+01 0.1428000D+01 0.1428000D+01 0.5000000D+00 0.5000000D+00
EXPONENTS  0.5000000D+00 0.5000000D+00 0.5000000D+00 0.5000000D+00 0.5000000D+00
EXPONENTS  0.5000000D+00 0.5000000D+00 0.5000000D+00
MO    1     MO 0.0        OCC NO =    2.0000163  ORB. ENERGY =    0.000000
  0.12440383D+00  0.23191380D+00  0.39196592D+00  0.58919788D+00  0.72372406D+00
  0.61079758D+00  0.22967584D+00  0.29299997D-04  0.21899933D-03  0.81845048D-03
  0.22833494D-02  0.30590587D-02 -0.36121779D-02  0.95773285D-02 -0.19694956D-02
 -0.30442585D-03 -0.19950951D-12 -0.18705285D-12 -0.13319277D-12  0.31227398D-10
  0.29277671D-10  0.20847446D-10  0.36451717D-02  0.34175802D-02  0.24335207D-02
 -0.40290436D-13  0.10440927D-10  0.19720151D-02 -0.13013639D-13  0.19161403D-11
  0.38096952D-03  0.14273659D-15 -0.11565193D-12  0.46802595D-05 -0.10500950D-03
 -0.50293502D-03  0.60794451D-03  0.54440615D-13  0.48382076D-13 -0.79991805D-11
  0.33843073D-03 -0.32064426D-03 -0.17786470D-04  0.55461270D-13  0.62369530D-13
 -0.34187294D-11  0.30732435D-04 -0.18265370D-04 -0.12467065D-04 -0.26146197D-14
  0.59464282D-14 -0.66594543D-12 -0.87170031D-14 -0.29201384D-12  0.12772607D-03
 -0.38383506D-14  0.77458838D-12 -0.17098113D-03  0.29989360D-13  0.10145314D-12
 -0.21219707D-03  0.58417896D-14  0.31118317D-14  0.24727132D-12 -0.14270825D-04
 -0.96474003D-14 -0.10203155D-13  0.24401210D-05  0.31190538D-15 -0.73161081D-12
  0.40372353D-04 -0.14972902D-13 -0.35436861D-01 -0.66662073D-01 -0.11539545D+00
 -0.18915530D+00 -0.29631467D+00 -0.44538505D+00 -0.63655995D+00 -0.84503194D+00
 -0.98410075D+00 -0.90378269D+00 -0.52832032D+00 -0.13862817D+00 -0.78817816D-02
 -0.13752861D-03 -0.13843819D-04 -0.16816278D-02 -0.48578353D-02 -0.22264600D-01
 -0.65908066D-01 -0.19113531D+00 -0.39729239D+00 -0.56833149D+00 -0.16295879D+00
  0.65120515D+00  0.62965238D+00  0.13743126D+00 -0.19892759D-02 -0.10291112D-02
 -0.48010166D-02 -0.97433068D-02 -0.38185714D-01 -0.26795820D-01  0.17450452D+00
  0.54072960D+00  0.66143339D-01 -0.47267973D+00 -0.22182858D+00 -0.11223630D-05
 -0.15386706D-05  0.29500038D-05  0.62697280D-05 -0.23701326D-04 -0.76644068D-04
 -0.26655641D-04  0.26072120D-03  0.58154343D-03 -0.38589453D-03 -0.91843087D-02
  0.51697781D-03  0.15129603D-03  0.57062951D-08  0.81876818D-08  0.10841247D-07
  0.12519754D-07  0.11608173D-07  0.75172968D-08  0.26525474D-08  0.30563674D-09
 -0.49931654D-12  0.99089470D+01  0.14217860D+02  0.18825760D+02  0.21740477D+02
  0.20157522D+02  0.13053741D+02  0.46061325D+01  0.53073636D+00 -0.86706016D-03
  0.62061182D+01  0.89048534D+01  0.11790849D+02  0.13616378D+02  0.12624950D+02
  0.81757483D+01  0.28848881D+01  0.33240793D+00 -0.54305244D-03 -0.30619597D-10
  0.87301927D-10  0.42613193D-09  0.88302640D-09  0.11081110D-08  0.17572647D-09
 -0.14224464D-08 -0.12405795D-08 -0.31890942D-09 -0.59061644D-01  0.16839527D+00
  0.82195896D+00  0.17032553D+01  0.21374172D+01  0.33895593D+00 -0.27437337D+01
 -0.23929336D+01 -0.61513920D+00 -0.37066212D-01  0.10568237D+00  0.51584926D+00
  0.10689377D+01  0.13414114D+01  0.21272372D+00 -0.17219266D+01 -0.15017697D+01
 -0.38605224D+00  0.40491933D-13  0.57204528D-13 -0.26616968D-13  0.53340656D-13
  0.58556101D-13  0.15806127D-12  0.49809282D-13 -0.10694159D-12 -0.25620406D-03
 -0.36194944D-03  0.16841318D-03 -0.33750161D-03 -0.37050122D-03 -0.10000989D-02
 -0.31515759D-03  0.67665005D-03 -0.14371316D-03 -0.20302917D-03  0.94468410D-04
 -0.18931559D-03 -0.20782614D-03 -0.56098789D-03 -0.17678211D-03  0.37955494D-03
 -0.10610359D-10 -0.21779937D-01 -0.13791314D-01 -0.98547869D-13  0.12240042D-03
  0.59288791D-04  0.20871180D-14  0.86122007D-05  0.66537296D-05  0.98602189D+00
  0.10317657D+01  0.87911957D+00  0.57896670D+00  0.26682851D+00  0.79902230D-01
  0.13594687D-01 -0.11779118D+01 -0.12325578D+01 -0.10502052D+01 -0.69163952D+00
 -0.31875606D+00 -0.95452018D-01 -0.16240352D-01  0.19188990D+00  0.20079211D+00
  0.17108562D+00  0.11267282D+00  0.51927547D-01  0.15549788D-01  0.26456646D-02
 -0.22454066D-09 -0.23495761D-09 -0.20019646D-09 -0.13184450D-09 -0.60763207D-10
 -0.18195641D-10 -0.30958340D-11  0.43440361D-10  0.45455657D-10  0.38730653D-10
  0.25507063D-10  0.11755446D-10  0.35201873D-11  0.59893002D-12 -0.36699803D+01
 -0.38402390D+01 -0.32720892D+01 -0.21549181D+01 -0.99313759D+00 -0.29739666D+00
 -0.50599520D-01  0.11058363D-02 -0.13141246D-02  0.20828828D-03 -0.24695960D-12
 -0.13002145D-13 -0.37424671D-02 -0.11564471D-03  0.10883766D-03  0.68070512D-05
  0.18370240D-13  0.13453288D-13  0.30438266D-03 -0.13352953D-04  0.14802163D-04
 -0.14492092D-05 -0.43556284D-15 -0.91606053D-15  0.28455960D-04  0.21432753D-13
 -0.37019173D-04  0.89640362D-04 -0.62845311D-13  0.20342272D-03  0.14348927D-03
 -0.14529484D-14 -0.92365204D-04 -0.41241036D-03 -0.11770334D-12 -0.38192643D-14
  0.90132796D-05 -0.20547624D-04  0.10669168D-13 -0.67942694D-04 -0.54519937D-04
  0.78862500D-15  0.40902855D-04  0.11616281D-03  0.19613803D-13 -0.35436860D-01
 -0.66662072D-01 -0.11539545D+00 -0.18915530D+00 -0.29631466D+00 -0.44538505D+00
 -0.63655994D+00 -0.84503193D+00 -0.98410073D+00 -0.90378267D+00 -0.52832032D+00
 -0.13862817D+00 -0.78817815D-02 -0.13752861D-03 -0.13843819D-04 -0.16816278D-02
 -0.48578352D-02 -0.22264600D-01 -0.65908066D-01 -0.19113531D+00 -0.39729239D+00
 -0.56833148D+00 -0.16295879D+00  0.65120515D+00  0.62965237D+00  0.13743125D+00
 -0.19892758D-02 -0.10291112D-02 -0.48010165D-02 -0.97433068D-02 -0.38185714D-01
 -0.26795819D-01  0.17450452D+00  0.54072959D+00  0.66143339D-01 -0.47267973D+00
 -0.22182858D+00 -0.11223630D-05 -0.15386706D-05  0.29500037D-05  0.62697279D-05
 -0.23701326D-04 -0.76644067D-04 -0.26655641D-04  0.26072120D-03  0.58154343D-03
 -0.38589452D-03 -0.91843086D-02  0.51697781D-03  0.15129603D-03 -0.22194577D-08
 -0.31845905D-08 -0.42166921D-08 -0.48695455D-08 -0.45149870D-08 -0.29238450D-08
 -0.10317056D-08 -0.11887710D-09  0.19420866D-12 -0.99089469D+01 -0.14217860D+02
 -0.18825760D+02 -0.21740476D+02 -0.20157521D+02 -0.13053740D+02 -0.46061324D+01
 -0.53073636D+00  0.86706015D-03  0.62061182D+01  0.89048533D+01  0.11790849D+02
  0.13616378D+02  0.12624950D+02  0.81757482D+01  0.28848880D+01  0.33240793D+00
 -0.54305244D-03  0.51936305D-11 -0.14807966D-10 -0.72279586D-10 -0.14977705D-09
 -0.18795541D-09 -0.29806347D-10  0.24127231D-09  0.21042444D-09  0.54092733D-10
  0.59061643D-01 -0.16839527D+00 -0.82195895D+00 -0.17032552D+01 -0.21374172D+01
 -0.33895593D+00  0.27437337D+01  0.23929336D+01  0.61513919D+00 -0.37066211D-01
  0.10568237D+00  0.51584925D+00  0.10689377D+01  0.13414114D+01  0.21272371D+00
 -0.17219266D+01 -0.15017696D+01 -0.38605224D+00 -0.17512685D-13 -0.24740851D-13
  0.11511788D-13 -0.23069733D-13 -0.25325403D-13 -0.68361200D-13 -0.21542420D-13
  0.46252034D-13  0.25620406D-03  0.36194944D-03 -0.16841318D-03  0.33750161D-03
  0.37050122D-03  0.10000989D-02  0.31515759D-03 -0.67665005D-03 -0.14371316D-03
 -0.20302916D-03  0.94468409D-04 -0.18931558D-03 -0.20782614D-03 -0.56098788D-03
 -0.17678210D-03  0.37955493D-03  0.18766259D-11  0.21779937D-01 -0.13791314D-01
  0.35025100D-13 -0.12240042D-03  0.59288791D-04 -0.67260709D-15 -0.86122007D-05
  0.66537296D-05  0.98602188D+00  0.10317657D+01  0.87911956D+00  0.57896669D+00
  0.26682851D+00  0.79902229D-01  0.13594687D-01 -0.11779118D+01 -0.12325578D+01
 -0.10502052D+01 -0.69163951D+00 -0.31875606D+00 -0.95452017D-01 -0.16240352D-01
  0.19188990D+00  0.20079211D+00  0.17108562D+00  0.11267282D+00  0.51927546D-01
  0.15549788D-01  0.26456646D-02 -0.12191721D-09 -0.12757322D-09 -0.10869921D-09
 -0.71586650D-10 -0.32992156D-10 -0.98795544D-11 -0.16809224D-11  0.11207003D-09
  0.11726921D-09  0.99919644D-10  0.65804640D-10  0.30327399D-10  0.90815888D-11
  0.15451553D-11  0.36699803D+01  0.38402390D+01  0.32720891D+01  0.21549181D+01
  0.99313758D+00  0.29739665D+00  0.50599520D-01  0.11058363D-02 -0.13141246D-02
  0.20828828D-03 -0.94722506D-13  0.93971340D-13  0.37424671D-02 -0.11564471D-03
  0.10883766D-03  0.68070509D-05  0.25634726D-14  0.91320347D-15 -0.30438266D-03
 -0.13352953D-04  0.14802163D-04 -0.14492092D-05 -0.39605558D-14  0.22027444D-14
 -0.28455960D-04 -0.18496262D-14  0.37019172D-04  0.89640361D-04  0.52930559D-14
 -0.20342272D-03  0.14348927D-03  0.25582278D-15  0.92365203D-04 -0.41241036D-03
 -0.14792819D-13 -0.62536773D-15 -0.90132796D-05 -0.20547624D-04  0.11535687D-14
  0.67942694D-04 -0.54519937D-04  0.72253451D-15 -0.40902855D-04  0.11616281D-03
 -0.12642439D-14 -0.36881536D-01 -0.68741120D-01 -0.11656023D+00 -0.17640151D+00
 -0.22004698D+00 -0.18883305D+00 -0.72313025D-01 -0.36160208D-05 -0.38797531D-04
 -0.14301500D-03 -0.41816748D-03 -0.50391215D-03  0.60701558D-03 -0.32849963D-02
  0.30794378D-03  0.69301076D-04  0.34827445D-12  0.33770906D-12  0.22781654D-12
 -0.17083580D-10 -0.16565326D-10 -0.11174871D-10  0.29729795D-02  0.28827900D-02
  0.19447131D-02  0.67476942D-13 -0.37699227D-11  0.65171181D-03 -0.83480367D-14
  0.45835927D-12  0.82876658D-04 -0.13534042D-14  0.16013986D-12  0.78686952D-05
  0.28670218D-03 -0.59949952D-04 -0.22675222D-03  0.24074601D-13 -0.39881712D-13
 -0.20075262D-11  0.27625669D-04  0.15454048D-03 -0.18216615D-03 -0.82608465D-14
  0.44517184D-13 -0.11930911D-11  0.24704894D-05  0.46455903D-04 -0.48926393D-04
  0.28445692D-14  0.11250786D-13 -0.39920936D-12 -0.13398766D-13 -0.30808051D-12
 -0.32849253D-03  0.33177183D-13  0.57787782D-12  0.48482009D-03  0.70191149D-14
  0.34636371D-12  0.50065749D-03 -0.14039581D-13  0.43018020D-14  0.39861307D-14
  0.80497520D-04  0.80958625D-14 -0.27905520D-12 -0.38676137D-04 -0.21001269D-13
  0.26709681D-12 -0.20281642D-03  0.78806088D-14
MO    2     MO 0.0        OCC NO =    2.0000156  ORB. ENERGY =    0.000000
  0.66180846D-09  0.12337443D-08  0.20851959D-08  0.31344384D-08  0.38500962D-08
  0.32493454D-08  0.12218387D-08  0.15811147D-12  0.11817853D-11  0.44166013D-11
  0.12321630D-10  0.16507587D-10 -0.19492382D-10  0.50935980D-10 -0.11186370D-10
 -0.17743896D-11 -0.48424109D-13 -0.45400680D-13 -0.32327989D-13 -0.57505053D-02
 -0.53914642D-02 -0.38390437D-02  0.19716985D-10  0.18485927D-10  0.13163081D-10
 -0.67939616D-14 -0.19453970D-02  0.10451789D-10 -0.29709855D-14 -0.44251358D-03
  0.21441772D-11  0.63120545D-15  0.16318006D-04  0.27956106D-13 -0.48625303D-12
 -0.26975917D-11  0.31838447D-11 -0.36323468D-13  0.19175890D-13  0.14571111D-02
  0.18982871D-11 -0.17418015D-11 -0.15648561D-12 -0.34290778D-13  0.23095236D-13
  0.63895399D-03  0.17251278D-12 -0.99248685D-13 -0.73264097D-13  0.37564178D-15
  0.26017363D-14  0.13271649D-03 -0.35162816D-14  0.54859675D-04  0.63635288D-12
  0.51659055D-15 -0.14422492D-03 -0.88347771D-12  0.10032254D-13 -0.20354101D-04
 -0.10255809D-11 -0.35539623D-14  0.10647625D-14 -0.46887900D-04 -0.77894526D-13
 -0.39375746D-14  0.96439214D-05  0.15625596D-14  0.74328702D-15  0.13101978D-03
  0.23212102D-12  0.65743414D-14  0.31759698D-01  0.59744776D-01  0.10342126D+00
  0.16952730D+00  0.26556710D+00  0.39916896D+00  0.57050629D+00  0.75734586D+00
  0.88198396D+00  0.81000023D+00  0.47349832D+00  0.12424320D+00  0.70639159D-02
  0.12325774D-03  0.12407293D-04  0.15069231D-02  0.43531534D-02  0.19951525D-01
  0.59060859D-01  0.17127821D+00  0.35601758D+00  0.50928738D+00  0.14602896D+00
 -0.58355127D+00 -0.56423762D+00 -0.12315349D+00  0.17826095D-02  0.91760348D-03
  0.42808100D-02  0.86875862D-02  0.34048161D-01  0.23892401D-01 -0.15559636D+00
 -0.48213970D+00 -0.58976482D-01  0.42146327D+00  0.19779270D+00  0.10016041D-05
  0.13731197D-05 -0.26326027D-05 -0.55951463D-05  0.21151219D-04  0.68397668D-04
  0.23787669D-04 -0.23266930D-03 -0.51897317D-03  0.34437480D-03  0.82146829D-02
 -0.38102988D-03  0.29919121D-04 -0.49364303D-09 -0.70830407D-09 -0.93786004D-09
 -0.10830651D-08 -0.10042056D-08 -0.65031007D-09 -0.22946790D-09 -0.26440176D-10
  0.43195125D-13 -0.11442641D+02 -0.16418482D+02 -0.21739588D+02 -0.25105440D+02
 -0.23277477D+02 -0.15074182D+02 -0.53190639D+01 -0.61288307D+00  0.10012626D-02
 -0.68673613D+01 -0.98536384D+01 -0.13047128D+02 -0.15067162D+02 -0.13970100D+02
 -0.90468494D+01 -0.31922641D+01 -0.36782499D+00  0.60091303D-03  0.70271855D-11
 -0.20035758D-10 -0.97797110D-10 -0.20265421D-09 -0.25431103D-09 -0.40329155D-10
  0.32645088D-09  0.28471250D-09  0.73189586D-10  0.68557000D-01 -0.19546822D+00
 -0.95410552D+00 -0.19770881D+01 -0.24810504D+01 -0.39344997D+00  0.31848445D+01
  0.27776462D+01  0.71403529D+00  0.41083988D-01 -0.11713777D+00 -0.57176452D+00
 -0.11848048D+01 -0.14868131D+01 -0.23578181D+00  0.19085741D+01  0.16645533D+01
  0.42789821D+00 -0.13216291D-13 -0.18671168D-13  0.86875968D-14 -0.17410026D-13
 -0.19112312D-13 -0.51590120D-13 -0.16257410D-13  0.34905004D-13  0.77530171D-04
  0.10952989D-03 -0.50963684D-04  0.10213170D-03  0.11211775D-03  0.30264095D-03
  0.95370160D-04 -0.20476176D-03  0.10339306D-03  0.14606740D-03 -0.67964397D-04
  0.13620129D-03  0.14951853D-03  0.40359739D-03  0.12718420D-03 -0.27306718D-03
  0.24316568D-11  0.25281359D-01  0.15229463D-01  0.28631354D-13  0.10204274D-03
  0.18992083D-04 -0.92474478D-15 -0.15855024D-05  0.18579737D-06 -0.11231427D+01
 -0.11752478D+01 -0.10013741D+01 -0.65948052D+00 -0.30393494D+00 -0.91013809D-01
 -0.15485228D-01  0.13459601D+01  0.14084022D+01  0.12000340D+01  0.79031314D+00
  0.36423180D+00  0.10906980D+00  0.18557302D-01 -0.22281735D+00 -0.23315434D+00
 -0.19865998D+00 -0.13083262D+00 -0.60296857D-01 -0.18055992D-01 -0.30720739D-02
  0.56490741D-10  0.59111474D-10  0.50366139D-10  0.33169910D-10  0.15287024D-10
  0.45777241D-11  0.77886095D-12  0.75920535D-10  0.79442660D-10  0.67689398D-10
  0.44578586D-10  0.20544943D-10  0.61522165D-11  0.10467475D-11  0.41365895D+01
  0.43284953D+01  0.36881096D+01  0.24288990D+01  0.11194072D+01  0.33520831D+00
  0.57032852D-01 -0.11555508D-02  0.13133700D-02 -0.15781915D-03  0.54126653D-13
  0.67429532D-13  0.40155345D-02  0.69081282D-04 -0.34302860D-04 -0.34778422D-04
 -0.26940751D-14 -0.41557513D-15 -0.17618571D-03 -0.40065217D-05  0.33403934D-05
  0.66612828D-06  0.15271411D-14  0.56418850D-15 -0.18789561D-04 -0.46099934D-14
  0.37512069D-04 -0.11121327D-03  0.12877007D-13 -0.23005513D-03 -0.14161535D-03
  0.95297295D-15  0.11751892D-03  0.47525517D-03  0.26221175D-13  0.35939347D-15
  0.36206567D-05  0.20130656D-04 -0.10159367D-14  0.40551052D-04  0.31670879D-04
 -0.62243727D-16 -0.51413022D-04 -0.92062846D-04 -0.27742240D-14 -0.31759699D-01
 -0.59744777D-01 -0.10342126D+00 -0.16952730D+00 -0.26556711D+00 -0.39916897D+00
 -0.57050629D+00 -0.75734587D+00 -0.88198397D+00 -0.81000024D+00 -0.47349833D+00
 -0.12424320D+00 -0.70639160D-02 -0.12325774D-03 -0.12407294D-04 -0.15069231D-02
 -0.43531535D-02 -0.19951525D-01 -0.59060860D-01 -0.17127822D+00 -0.35601758D+00
 -0.50928738D+00 -0.14602896D+00  0.58355128D+00  0.56423763D+00  0.12315349D+00
 -0.17826095D-02 -0.91760349D-03 -0.42808101D-02 -0.86875863D-02 -0.34048162D-01
 -0.23892401D-01  0.15559636D+00  0.48213970D+00  0.58976483D-01 -0.42146327D+00
 -0.19779270D+00 -0.10016041D-05 -0.13731197D-05  0.26326027D-05  0.55951464D-05
 -0.21151219D-04 -0.68397669D-04 -0.23787669D-04  0.23266931D-03  0.51897317D-03
 -0.34437481D-03 -0.82146830D-02  0.38102989D-03 -0.29919119D-04  0.86804361D-08
  0.12455130D-07  0.16491743D-07  0.19045093D-07  0.17658393D-07  0.11435338D-07
  0.40350643D-08  0.46493568D-09 -0.75956207D-12 -0.11442641D+02 -0.16418483D+02
 -0.21739588D+02 -0.25105440D+02 -0.23277478D+02 -0.15074182D+02 -0.53190639D+01
 -0.61288307D+00  0.10012627D-02  0.68673613D+01  0.98536385D+01  0.13047128D+02
  0.15067162D+02  0.13970100D+02  0.90468495D+01  0.31922641D+01  0.36782499D+00
 -0.60091303D-03 -0.14634886D-10  0.41726668D-10  0.20367323D-09  0.42204967D-09