 br2co-wavefunction
GAUSSIAN            210 MOL ORBITALS    578 PRIMITIVES        4 NUCLEI
  C    1    (CENTRE  1)   0.00000000  0.00000000 -0.92928983  CHARGE =  6.0
  Br   2    (CENTRE  2)   0.00000000 -3.01256550 -2.92306618  CHARGE = 35.0
  Br   3    (CENTRE  3)   0.00000000  3.01256550 -2.92306618  CHARGE = 35.0
  O    4    (CENTRE  4)   0.00000000  0.00000000  1.27462028  CHARGE =  8.0
CENTRE ASSIGNMENTS    1  1  1  1  1  1  1  1  1  1  1  1  1  1  1  1  1  1  1  1
CENTRE ASSIGNMENTS    1  1  1  1  1  1  1  1  1  1  1  1  1  1  1  1  1  1  1  1
CENTRE ASSIGNMENTS    1  1  1  1  1  1  1  1  1  1  1  1  1  1  1  1  1  1  1  1
CENTRE ASSIGNMENTS    1  1  1  1  1  1  1  1  1  1  1  1  2  2  2  2  2  2  2  2
CENTRE ASSIGNMENTS    2  2  2  2  2  2  2  2  2  2  2  2  2  2  2  2  2  2  2  2
CENTRE ASSIGNMENTS    2  2  2  2  2  2  2  2  2  2  2  2  2  2  2  2  2  2  2  2
CENTRE ASSIGNMENTS    2  2  2  2  2  2  2  2  2  2  2  2  2  2  2  2  2  2  2  2
CENTRE ASSIGNMENTS    2  2  2  2  2  2  2  2  2  2  2  2  2  2  2  2  2  2  2  2
CENTRE ASSIGNMENTS    2  2  2  2  2  2  2  2  2  2  2  2  2  2  2  2  2  2  2  2
CENTRE ASSIGNMENTS    2  2  2  2  2  2  2  2  2  2  2  2  2  2  2  2  2  2  2  2
CENTRE ASSIGNMENTS    2  2  2  2  2  2  2  2  2  2  2  2  2  2  2  2  2  2  2  2
CENTRE ASSIGNMENTS    2  2  2  2  2  2  2  2  2  2  2  2  2  2  2  2  2  2  2  2
CENTRE ASSIGNMENTS    2  2  2  2  2  2  2  2  2  2  2  2  2  2  2  2  2  2  2  2
CENTRE ASSIGNMENTS    2  2  2  2  2  2  2  2  2  2  2  2  2  2  2  2  2  2  2  2
CENTRE ASSIGNMENTS    2  2  2  2  2  2  2  2  2  3  3  3  3  3  3  3  3  3  3  3
CENTRE ASSIGNMENTS    3  3  3  3  3  3  3  3  3  3  3  3  3  3  3  3  3  3  3  3
CENTRE ASSIGNMENTS    3  3  3  3  3  3  3  3  3  3  3  3  3  3  3  3  3  3  3  3
CENTRE ASSIGNMENTS    3  3  3  3  3  3  3  3  3  3  3  3  3  3  3  3  3  3  3  3
CENTRE ASSIGNMENTS    3  3  3  3  3  3  3  3  3  3  3  3  3  3  3  3  3  3  3  3
CENTRE ASSIGNMENTS    3  3  3  3  3  3  3  3  3  3  3  3  3  3  3  3  3  3  3  3
CENTRE ASSIGNMENTS    3  3  3  3  3  3  3  3  3  3  3  3  3  3  3  3  3  3  3  3
CENTRE ASSIGNMENTS    3  3  3  3  3  3  3  3  3  3  3  3  3  3  3  3  3  3  3  3
CENTRE ASSIGNMENTS    3  3  3  3  3  3  3  3  3  3  3  3  3  3  3  3  3  3  3  3
CENTRE ASSIGNMENTS    3  3  3  3  3  3  3  3  3  3  3  3  3  3  3  3  3  3  3  3
CENTRE ASSIGNMENTS    3  3  3  3  3  3  3  3  3  3  3  3  3  3  3  3  3  3  3  3
CENTRE ASSIGNMENTS    3  3  3  3  3  3  4  4  4  4  4  4  4  4  4  4  4  4  4  4
CENTRE ASSIGNMENTS    4  4  4  4  4  4  4  4  4  4  4  4  4  4  4  4  4  4  4  4
CENTRE ASSIGNMENTS    4  4  4  4  4  4  4  4  4  4  4  4  4  4  4  4  4  4  4  4
CENTRE ASSIGNMENTS    4  4  4  4  4  4  4  4  4  4  4  4  4  4  4  4  4  4
TYPE ASSIGNMENTS      1  1  1  1  1  1  1  1  1  1  1  1  1  1  1  1  2  2  2  3
TYPE ASSIGNMENTS      3  3  4  4  4  2  3  4  2  3  4  2  3  4  5  6  7  8  9 10
TYPE ASSIGNMENTS      5  6  7  8  9 10  5  6  7  8  9 10 11 12 13 17 14 15 18 19
TYPE ASSIGNMENTS     16 20 11 12 13 17 14 15 18 19 16 20  1  1  1  1  1  1  1  1
TYPE ASSIGNMENTS      1  1  1  1  1  1  1  1  1  1  1  1  1  1  1  1  1  1  1  1
TYPE ASSIGNMENTS      1  1  1  1  1  1  1  1  1  1  1  1  1  1  1  1  1  1  1  1
TYPE ASSIGNMENTS      1  1  2  2  2  2  2  2  2  2  2  3  3  3  3  3  3  3  3  3
TYPE ASSIGNMENTS      4  4  4  4  4  4  4  4  4  2  2  2  2  2  2  2  2  2  3  3
TYPE ASSIGNMENTS      3  3  3  3  3  3  3  4  4  4  4  4  4  4  4  4  2  2  2  2
TYPE ASSIGNMENTS      2  2  2  2  3  3  3  3  3  3  3  3  4  4  4  4  4  4  4  4
TYPE ASSIGNMENTS      2  3  4  2  3  4  2  3  4  5  5  5  5  5  5  5  6  6  6  6
TYPE ASSIGNMENTS      6  6  6  7  7  7  7  7  7  7  8  8  8  8  8  8  8  9  9  9
TYPE ASSIGNMENTS      9  9  9  9 10 10 10 10 10 10 10  5  6  7  8  9 10  5  6  7
TYPE ASSIGNMENTS      8  9 10  5  6  7  8  9 10 11 12 13 17 14 15 18 19 16 20 11
TYPE ASSIGNMENTS     12 13 17 14 15 18 19 16 20  1  1  1  1  1  1  1  1  1  1  1
TYPE ASSIGNMENTS      1  1  1  1  1  1  1  1  1  1  1  1  1  1  1  1  1  1  1  1
TYPE ASSIGNMENTS      1  1  1  1  1  1  1  1  1  1  1  1  1  1  1  1  1  1  1  2
TYPE ASSIGNMENTS      2  2  2  2  2  2  2  2  3  3  3  3  3  3  3  3  3  4  4  4
TYPE ASSIGNMENTS      4  4  4  4  4  4  2  2  2  2  2  2  2  2  2  3  3  3  3  3
TYPE ASSIGNMENTS      3  3  3  3  4  4  4  4  4  4  4  4  4  2  2  2  2  2  2  2
TYPE ASSIGNMENTS      2  3  3  3  3  3  3  3  3  4  4  4  4  4  4  4  4  2  3  4
TYPE ASSIGNMENTS      2  3  4  2  3  4  5  5  5  5  5  5  5  6  6  6  6  6  6  6
TYPE ASSIGNMENTS      7  7  7  7  7  7  7  8  8  8  8  8  8  8  9  9  9  9  9  9
TYPE ASSIGNMENTS      9 10 10 10 10 10 10 10  5  6  7  8  9 10  5  6  7  8  9 10
TYPE ASSIGNMENTS      5  6  7  8  9 10 11 12 13 17 14 15 18 19 16 20 11 12 13 17
TYPE ASSIGNMENTS     14 15 18 19 16 20  1  1  1  1  1  1  1  1  1  1  1  1  1  1
TYPE ASSIGNMENTS      1  1  2  2  2  3  3  3  4  4  4  2  3  4  2  3  4  2  3  4
TYPE ASSIGNMENTS      5  6  7  8  9 10  5  6  7  8  9 10  5  6  7  8  9 10 11 12
TYPE ASSIGNMENTS     13 17 14 15 18 19 16 20 11 12 13 17 14 15 18 19 16 20
EXPONENTS  0.8236000D+04 0.1235000D+04 0.2808000D+03 0.7927000D+02 0.2559000D+02
EXPONENTS  0.8997000D+01 0.3319000D+01 0.2808000D+03 0.7927000D+02 0.2559000D+02
EXPONENTS  0.8997000D+01 0.3319000D+01 0.3643000D+00 0.9059000D+00 0.1285000D+00
EXPONENTS  0.4402000D-01 0.1871000D+02 0.4133000D+01 0.1200000D+01 0.1871000D+02
EXPONENTS  0.4133000D+01 0.1200000D+01 0.1871000D+02 0.4133000D+01 0.1200000D+01
EXPONENTS  0.3827000D+00 0.3827000D+00 0.3827000D+00 0.1209000D+00 0.1209000D+00
EXPONENTS  0.1209000D+00 0.3569000D-01 0.3569000D-01 0.3569000D-01 0.1097000D+01
EXPONENTS  0.1097000D+01 0.1097000D+01 0.1097000D+01 0.1097000D+01 0.1097000D+01
EXPONENTS  0.3180000D+00 0.3180000D+00 0.3180000D+00 0.3180000D+00 0.3180000D+00
EXPONENTS  0.3180000D+00 0.1000000D+00 0.1000000D+00 0.1000000D+00 0.1000000D+00
EXPONENTS  0.1000000D+00 0.1000000D+00 0.7610000D+00 0.7610000D+00 0.7610000D+00
EXPONENTS  0.7610000D+00 0.7610000D+00 0.7610000D+00 0.7610000D+00 0.7610000D+00
EXPONENTS  0.7610000D+00 0.7610000D+00 0.2680000D+00 0.2680000D+00 0.2680000D+00
EXPONENTS  0.2680000D+00 0.2680000D+00 0.2680000D+00 0.2680000D+00 0.2680000D+00
EXPONENTS  0.2680000D+00 0.2680000D+00 0.1063900D+08 0.1593400D+07 0.3626100D+06
EXPONENTS  0.1027000D+06 0.3350100D+05 0.1209300D+05 0.4715900D+04 0.1955600D+04
EXPONENTS  0.8526100D+03 0.3876700D+03 0.1826800D+03 0.8824500D+02 0.3926300D+02
EXPONENTS  0.9405700D+01 0.1899500D+01 0.3350100D+05 0.1209300D+05 0.4715900D+04
EXPONENTS  0.1955600D+04 0.8526100D+03 0.3876700D+03 0.1826800D+03 0.8824500D+02
EXPONENTS  0.3926300D+02 0.1923400D+02 0.9405700D+01 0.1899500D+01 0.4715900D+04
EXPONENTS  0.8526100D+03 0.3876700D+03 0.1826800D+03 0.8824500D+02 0.3926300D+02
EXPONENTS  0.1923400D+02 0.9405700D+01 0.4160100D+01 0.1899500D+01 0.4715900D+04
EXPONENTS  0.8526100D+03 0.3876700D+03 0.8824500D+02 0.3926300D+02 0.1923400D+02
EXPONENTS  0.9405700D+01 0.4160100D+01 0.1899500D+01 0.3011400D+00 0.6047200D+00
EXPONENTS  0.1251500D+00 0.4559300D-01 0.8676500D+04 0.2055900D+04 0.6662300D+03
EXPONENTS  0.2531000D+03 0.1061200D+03 0.4724200D+02 0.2182500D+02 0.9968400D+01
EXPONENTS  0.1998200D+01 0.8676500D+04 0.2055900D+04 0.6662300D+03 0.2531000D+03
EXPONENTS  0.1061200D+03 0.4724200D+02 0.2182500D+02 0.9968400D+01 0.1998200D+01
EXPONENTS  0.8676500D+04 0.2055900D+04 0.6662300D+03 0.2531000D+03 0.1061200D+03
EXPONENTS  0.4724200D+02 0.2182500D+02 0.9968400D+01 0.1998200D+01 0.8676500D+04
EXPONENTS  0.6662300D+03 0.2531000D+03 0.1061200D+03 0.4724200D+02 0.2182500D+02
EXPONENTS  0.9968400D+01 0.4517100D+01 0.1998200D+01 0.8676500D+04 0.6662300D+03
EXPONENTS  0.2531000D+03 0.1061200D+03 0.4724200D+02 0.2182500D+02 0.9968400D+01
EXPONENTS  0.4517100D+01 0.1998200D+01 0.8676500D+04 0.6662300D+03 0.2531000D+03
EXPONENTS  0.1061200D+03 0.4724200D+02 0.2182500D+02 0.9968400D+01 0.4517100D+01
EXPONENTS  0.1998200D+01 0.6662300D+03 0.1061200D+03 0.4724200D+02 0.2182500D+02
EXPONENTS  0.9968400D+01 0.4517100D+01 0.1998200D+01 0.2814500D+00 0.6662300D+03
EXPONENTS  0.1061200D+03 0.4724200D+02 0.2182500D+02 0.9968400D+01 0.4517100D+01
EXPONENTS  0.1998200D+01 0.2814500D+00 0.6662300D+03 0.1061200D+03 0.4724200D+02
EXPONENTS  0.2182500D+02 0.9968400D+01 0.4517100D+01 0.1998200D+01 0.2814500D+00
EXPONENTS  0.7098800D+00 0.7098800D+00 0.7098800D+00 0.1020400D+00 0.1020400D+00
EXPONENTS  0.1020400D+00 0.3514200D-01 0.3514200D-01 0.3514200D-01 0.4038300D+03
EXPONENTS  0.1211700D+03 0.4634500D+02 0.1972100D+02 0.8862400D+01 0.3996200D+01
EXPONENTS  0.1763600D+01 0.4038300D+03 0.1211700D+03 0.4634500D+02 0.1972100D+02
EXPONENTS  0.8862400D+01 0.3996200D+01 0.1763600D+01 0.4038300D+03 0.1211700D+03
EXPONENTS  0.4634500D+02 0.1972100D+02 0.8862400D+01 0.3996200D+01 0.1763600D+01
EXPONENTS  0.4038300D+03 0.1211700D+03 0.4634500D+02 0.1972100D+02 0.8862400D+01
EXPONENTS  0.3996200D+01 0.1763600D+01 0.4038300D+03 0.1211700D+03 0.4634500D+02
EXPONENTS  0.1972100D+02 0.8862400D+01 0.3996200D+01 0.1763600D+01 0.4038300D+03
EXPONENTS  0.1211700D+03 0.4634500D+02 0.1972100D+02 0.8862400D+01 0.3996200D+01
EXPONENTS  0.1763600D+01 0.7061900D+00 0.7061900D+00 0.7061900D+00 0.7061900D+00
EXPONENTS  0.7061900D+00 0.7061900D+00 0.2639000D+00 0.2639000D+00 0.2639000D+00
EXPONENTS  0.2639000D+00 0.2639000D+00 0.2639000D+00 0.1047000D+00 0.1047000D+00
EXPONENTS  0.1047000D+00 0.1047000D+00 0.1047000D+00 0.1047000D+00 0.5515000D+00
EXPONENTS  0.5515000D+00 0.5515000D+00 0.5515000D+00 0.5515000D+00 0.5515000D+00
EXPONENTS  0.5515000D+00 0.5515000D+00 0.5515000D+00 0.5515000D+00 0.2580000D+00
EXPONENTS  0.2580000D+00 0.2580000D+00 0.2580000D+00 0.2580000D+00 0.2580000D+00
EXPONENTS  0.2580000D+00 0.2580000D+00 0.2580000D+00 0.2580000D+00 0.1063900D+08
EXPONENTS  0.1593400D+07 0.3626100D+06 0.1027000D+06 0.3350100D+05 0.1209300D+05
EXPONENTS  0.4715900D+04 0.1955600D+04 0.8526100D+03 0.3876700D+03 0.1826800D+03
EXPONENTS  0.8824500D+02 0.3926300D+02 0.9405700D+01 0.1899500D+01 0.3350100D+05
EXPONENTS  0.1209300D+05 0.4715900D+04 0.1955600D+04 0.8526100D+03 0.3876700D+03
EXPONENTS  0.1826800D+03 0.8824500D+02 0.3926300D+02 0.1923400D+02 0.9405700D+01
EXPONENTS  0.1899500D+01 0.4715900D+04 0.8526100D+03 0.3876700D+03 0.1826800D+03
EXPONENTS  0.8824500D+02 0.3926300D+02 0.1923400D+02 0.9405700D+01 0.4160100D+01
EXPONENTS  0.1899500D+01 0.4715900D+04 0.8526100D+03 0.3876700D+03 0.8824500D+02
EXPONENTS  0.3926300D+02 0.1923400D+02 0.9405700D+01 0.4160100D+01 0.1899500D+01
EXPONENTS  0.3011400D+00 0.6047200D+00 0.1251500D+00 0.4559300D-01 0.8676500D+04
EXPONENTS  0.2055900D+04 0.6662300D+03 0.2531000D+03 0.1061200D+03 0.4724200D+02
EXPONENTS  0.2182500D+02 0.9968400D+01 0.1998200D+01 0.8676500D+04 0.2055900D+04
EXPONENTS  0.6662300D+03 0.2531000D+03 0.1061200D+03 0.4724200D+02 0.2182500D+02
EXPONENTS  0.9968400D+01 0.1998200D+01 0.8676500D+04 0.2055900D+04 0.6662300D+03
EXPONENTS  0.2531000D+03 0.1061200D+03 0.4724200D+02 0.2182500D+02 0.9968400D+01
EXPONENTS  0.1998200D+01 0.8676500D+04 0.6662300D+03 0.2531000D+03 0.1061200D+03
EXPONENTS  0.4724200D+02 0.2182500D+02 0.9968400D+01 0.4517100D+01 0.1998200D+01
EXPONENTS  0.8676500D+04 0.6662300D+03 0.2531000D+03 0.1061200D+03 0.4724200D+02
EXPONENTS  0.2182500D+02 0.9968400D+01 0.4517100D+01 0.1998200D+01 0.8676500D+04
EXPONENTS  0.6662300D+03 0.2531000D+03 0.1061200D+03 0.4724200D+02 0.2182500D+02
EXPONENTS  0.9968400D+01 0.4517100D+01 0.1998200D+01 0.6662300D+03 0.1061200D+03
EXPONENTS  0.4724200D+02 0.2182500D+02 0.9968400D+01 0.4517100D+01 0.1998200D+01
EXPONENTS  0.2814500D+00 0.6662300D+03 0.1061200D+03 0.4724200D+02 0.2182500D+02
EXPONENTS  0.9968400D+01 0.4517100D+01 0.1998200D+01 0.2814500D+00 0.6662300D+03
EXPONENTS  0.1061200D+03 0.4724200D+02 0.2182500D+02 0.9968400D+01 0.4517100D+01
EXPONENTS  0.1998200D+01 0.2814500D+00 0.7098800D+00 0.7098800D+00 0.7098800D+00
EXPONENTS  0.1020400D+00 0.1020400D+00 0.1020400D+00 0.3514200D-01 0.3514200D-01
EXPONENTS  0.3514200D-01 0.4038300D+03 0.1211700D+03 0.4634500D+02 0.1972100D+02
EXPONENTS  0.8862400D+01 0.3996200D+01 0.1763600D+01 0.4038300D+03 0.1211700D+03
EXPONENTS  0.4634500D+02 0.1972100D+02 0.8862400D+01 0.3996200D+01 0.1763600D+01
EXPONENTS  0.4038300D+03 0.1211700D+03 0.4634500D+02 0.1972100D+02 0.8862400D+01
EXPONENTS  0.3996200D+01 0.1763600D+01 0.4038300D+03 0.1211700D+03 0.4634500D+02
EXPONENTS  0.1972100D+02 0.8862400D+01 0.3996200D+01 0.1763600D+01 0.4038300D+03
EXPONENTS  0.1211700D+03 0.4634500D+02 0.1972100D+02 0.8862400D+01 0.3996200D+01
EXPONENTS  0.1763600D+01 0.4038300D+03 0.1211700D+03 0.4634500D+02 0.1972100D+02
EXPONENTS  0.8862400D+01 0.3996200D+01 0.1763600D+01 0.7061900D+00 0.7061900D+00
EXPONENTS  0.7061900D+00 0.7061900D+00 0.7061900D+00 0.7061900D+00 0.2639000D+00
EXPONENTS  0.2639000D+00 0.2639000D+00 0.2639000D+00 0.2639000D+00 0.2639000D+00
EXPONENTS  0.1047000D+00 0.1047000D+00 0.1047000D+00 0.1047000D+00 0.1047000D+00
EXPONENTS  0.1047000D+00 0.5515000D+00 0.5515000D+00 0.5515000D+00 0.5515000D+00
EXPONENTS  0.5515000D+00 0.5515000D+00 0.5515000D+00 0.5515000D+00 0.5515000D+00
EXPONENTS  0.5515000D+00 0.2580000D+00 0.2580000D+00 0.2580000D+00 0.2580000D+00
EXPONENTS  0.2580000D+00 0.2580000D+00 0.2580000D+00 0.2580000D+00 0.2580000D+00
EXPONENTS  0.2580000D+00 0.1533000D+05 0.2299000D+04 0.5224000D+03 0.1473000D+03
EXPONENTS  0.4755000D+02 0.1676000D+02 0.6207000D+01 0.5224000D+03 0.1473000D+03
EXPONENTS  0.4755000D+02 0.1676000D+02 0.6207000D+01 0.6882000D+00 0.1752000D+01
EXPONENTS  0.2384000D+00 0.7376000D-01 0.3446000D+02 0.7749000D+01 0.2280000D+01
EXPONENTS  0.3446000D+02 0.7749000D+01 0.2280000D+01 0.3446000D+02 0.7749000D+01
EXPONENTS  0.2280000D+01 0.7156000D+00 0.7156000D+00 0.7156000D+00 0.2140000D+00
EXPONENTS  0.2140000D+00 0.2140000D+00 0.5974000D-01 0.5974000D-01 0.5974000D-01
EXPONENTS  0.2314000D+01 0.2314000D+01 0.2314000D+01 0.2314000D+01 0.2314000D+01
EXPONENTS  0.2314000D+01 0.6450000D+00 0.6450000D+00 0.6450000D+00 0.6450000D+00
EXPONENTS  0.6450000D+00 0.6450000D+00 0.2140000D+00 0.2140000D+00 0.2140000D+00
EXPONENTS  0.2140000D+00 0.2140000D+00 0.2140000D+00 0.1428000D+01 0.1428000D+01
EXPONENTS  0.1428000D+01 0.1428000D+01 0.1428000D+01 0.1428000D+01 0.1428000D+01
EXPONENTS  0.1428000D+01 0.1428000D+01 0.1428000D+01 0.5000000D+00 0.5000000D+00
EXPONENTS  0.5000000D+00 0.5000000D+00 0.5000000D+00 0.5000000D+00 0.5000000D+00
EXPONENTS  0.5000000D+00 0.5000000D+00 0.5000000D+00
MO    1     MO 0.0        OCC NO =    2.0000165  ORB. ENERGY =    0.000000
  0.12282380D+00  0.22896831D+00  0.38698764D+00  0.58171461D+00  0.71453221D+00
  0.60303997D+00  0.22675878D+00  0.29295149D-04  0.21896309D-03  0.81831506D-03
  0.22829716D-02  0.30585525D-02 -0.36115802D-02  0.94386383D-02 -0.19836734D-02
 -0.30657204D-03 -0.10263632D-13 -0.96228070D-14 -0.68520118D-14 -0.48449790D-11
 -0.45424758D-11 -0.32345134D-11  0.36805404D-02  0.34507406D-02  0.24571329D-02
  0.78253259D-14 -0.15912495D-11  0.19862907D-02 -0.24605562D-15 -0.45184634D-12
  0.37964690D-03 -0.24751563D-16  0.12886326D-13  0.46764830D-05 -0.10016367D-03
 -0.50633760D-03  0.60650127D-03  0.88497767D-14  0.23446319D-14  0.12270215D-11
  0.33683951D-03 -0.32310253D-03 -0.13736985D-04  0.15141631D-13  0.89856392D-14
  0.56297331D-12  0.30764590D-04 -0.18456928D-04 -0.12307661D-04 -0.35127283D-15
  0.16528838D-14  0.12873107D-12 -0.16349277D-14  0.37977726D-13  0.12741935D-03
  0.16574940D-15 -0.13724878D-12 -0.16908727D-03  0.47390338D-14  0.23315607D-13
 -0.21317079D-03  0.11560469D-14  0.81810204D-16 -0.38184905D-13 -0.13856399D-04
 -0.13233641D-14  0.62099423D-14  0.31417175D-05  0.10779335D-14  0.10834477D-12
  0.38427481D-04 -0.45227188D-14 -0.35089366D-01 -0.66008383D-01 -0.11426388D+00
 -0.18730044D+00 -0.29340900D+00 -0.44101760D+00 -0.63031783D+00 -0.83674554D+00
 -0.97445064D+00 -0.89492017D+00 -0.52313960D+00 -0.13726878D+00 -0.78044927D-02
 -0.13618000D-03 -0.13708067D-04 -0.16649726D-02 -0.48097222D-02 -0.22044087D-01
 -0.65255298D-01 -0.18924227D+00 -0.39335752D+00 -0.56270261D+00 -0.16134481D+00
  0.64475547D+00  0.62341616D+00  0.13607011D+00 -0.19695736D-02 -0.10184932D-02
 -0.47514815D-02 -0.96427791D-02 -0.37791728D-01 -0.26519350D-01  0.17270405D+00
  0.53515055D+00  0.65460897D-01 -0.46780280D+00 -0.21953984D+00 -0.11192412D-05
 -0.15343908D-05  0.29417984D-05  0.62522889D-05 -0.23635402D-04 -0.76430884D-04
 -0.26581499D-04  0.25999601D-03  0.57992588D-03 -0.38482117D-03 -0.91058498D-02
  0.53017702D-03  0.15268677D-03  0.66515569D-09  0.95439913D-09  0.12637126D-08
  0.14593681D-08  0.13531095D-08  0.87625554D-09  0.30919483D-09  0.35626622D-10
 -0.58202955D-13  0.10001472D+02  0.14350620D+02  0.19001547D+02  0.21943480D+02
  0.20345744D+02  0.13175631D+02  0.46491426D+01  0.53569215D+00 -0.87515640D-03
  0.62092808D+01  0.89093911D+01  0.11796857D+02  0.13623317D+02  0.12631384D+02
  0.81799145D+01  0.28863581D+01  0.33257732D+00 -0.54332917D-03 -0.43926143D-11
  0.12524126D-10  0.61131869D-10  0.12667686D-09  0.15896695D-09  0.25209300D-10
 -0.20406076D-09 -0.17797057D-09 -0.45749984D-10 -0.59609514D-01  0.16995734D+00
  0.82958365D+00  0.17190551D+01  0.21572444D+01  0.34210017D+00 -0.27691853D+01
 -0.24151310D+01 -0.62084537D+00 -0.37087971D-01  0.10574441D+00  0.51615208D+00
  0.10695653D+01  0.13421988D+01  0.21284859D+00 -0.17229374D+01 -0.15026513D+01
 -0.38627886D+00  0.64233438D-14  0.90745076D-14 -0.42223210D-14  0.84615711D-14
  0.92889111D-14  0.25073682D-13  0.79013798D-14 -0.16964430D-13 -0.25729919D-03
 -0.36349657D-03  0.16913305D-03 -0.33894423D-03 -0.37208490D-03 -0.10043738D-02
 -0.31650471D-03  0.67954235D-03 -0.14236313D-03 -0.20112192D-03  0.93580981D-04
 -0.18753717D-03 -0.20587383D-03 -0.55571801D-03 -0.17512143D-03  0.37598943D-03
 -0.15275154D-11 -0.21985694D-01 -0.13799314D-01 -0.14336355D-13  0.12410094D-03
  0.59407379D-04  0.37740156D-15  0.87067628D-05  0.66397364D-05  0.10156065D+01
  0.10627227D+01  0.90549664D+00  0.59633799D+00  0.27483443D+00  0.82299614D-01
  0.14002582D-01 -0.12404619D+01 -0.12980098D+01 -0.11059738D+01 -0.72836735D+00
 -0.33568283D+00 -0.10052077D+00 -0.17102756D-01  0.22485548D+00  0.23528703D+00
  0.20047714D+00  0.13202936D+00  0.60848399D-01  0.18221152D-01  0.31001745D-02
  0.34632712D-10  0.36239401D-10  0.30877909D-10  0.20335438D-10  0.93719978D-11
  0.28064599D-11  0.47749536D-12 -0.12184301D-09 -0.12749558D-09 -0.10863306D-09
 -0.71543083D-10 -0.32972077D-10 -0.98735418D-11 -0.16798994D-11 -0.37373373D+01
 -0.39107208D+01 -0.33321434D+01 -0.21944684D+01 -0.10113651D+01 -0.30285493D+00
 -0.51528198D-01  0.11331538D-02 -0.13717786D-02  0.23862481D-03  0.15583522D-13
 -0.10206722D-12 -0.38014138D-02 -0.11609485D-03  0.11008651D-03  0.60083426D-05
  0.45838258D-14  0.23964035D-14  0.30416030D-03 -0.13510251D-04  0.15089419D-04
 -0.15791688D-05  0.12041767D-15 -0.10874303D-15  0.28616784D-04  0.28861588D-14
 -0.40257587D-04  0.91987266D-04 -0.85305172D-14  0.20897607D-03  0.14483569D-03
 -0.12795925D-15 -0.88203310D-04 -0.42079749D-03 -0.19160322D-13 -0.74093979D-15
  0.97078715D-05 -0.20853105D-04  0.19602484D-14 -0.68941275D-04 -0.54563589D-04
  0.26257100D-15  0.39817660D-04  0.11712290D-03  0.41183957D-14 -0.35089366D-01
 -0.66008383D-01 -0.11426388D+00 -0.18730044D+00 -0.29340900D+00 -0.44101760D+00
 -0.63031783D+00 -0.83674555D+00 -0.97445064D+00 -0.89492018D+00 -0.52313960D+00
 -0.13726878D+00 -0.78044927D-02 -0.13618000D-03 -0.13708067D-04 -0.16649726D-02
 -0.48097222D-02 -0.22044087D-01 -0.65255298D-01 -0.18924227D+00 -0.39335752D+00
 -0.56270261D+00 -0.16134481D+00  0.64475547D+00  0.62341617D+00  0.13607011D+00
 -0.19695736D-02 -0.10184932D-02 -0.47514815D-02 -0.96427791D-02 -0.37791728D-01
 -0.26519351D-01  0.17270405D+00  0.53515055D+00  0.65460897D-01 -0.46780280D+00
 -0.21953984D+00 -0.11192412D-05 -0.15343908D-05  0.29417984D-05  0.62522889D-05
 -0.23635402D-04 -0.76430884D-04 -0.26581499D-04  0.25999601D-03  0.57992588D-03
 -0.38482117D-03 -0.91058499D-02  0.53017703D-03  0.15268677D-03 -0.30327201D-08
 -0.43515007D-08 -0.57617890D-08 -0.66538634D-08 -0.61693862D-08 -0.39952117D-08
 -0.14097472D-08 -0.16243652D-09  0.26537136D-12 -0.10001473D+02 -0.14350620D+02
 -0.19001547D+02 -0.21943480D+02 -0.20345744D+02 -0.13175631D+02 -0.46491426D+01
 -0.53569215D+00  0.87515640D-03  0.62092808D+01  0.89093911D+01  0.11796857D+02
  0.13623317D+02  0.12631384D+02  0.81799145D+01  0.28863581D+01  0.33257732D+00
 -0.54332917D-03  0.41862790D-11 -0.11935827D-10 -0.58260307D-10 -0.12072644D-09
 -0.15149976D-09 -0.24025137D-10  0.19447537D-09  0.16961072D-09  0.43600959D-10
  0.59609514D-01 -0.16995734D+00 -0.82958365D+00 -0.17190551D+01 -0.21572444D+01
 -0.34210017D+00  0.27691853D+01  0.24151311D+01  0.62084538D+00 -0.37087971D-01
  0.10574441D+00  0.51615208D+00  0.10695653D+01  0.13421988D+01  0.21284859D+00
 -0.17229374D+01 -0.15026513D+01 -0.38627887D+00 -0.41259848D-14 -0.58289391D-14
  0.27121749D-14 -0.54352241D-14 -0.59666595D-14 -0.16105884D-13 -0.50753896D-14
  0.10896969D-13  0.25729919D-03  0.36349657D-03 -0.16913305D-03  0.33894423D-03
  0.37208490D-03  0.10043738D-02  0.31650471D-03 -0.67954235D-03 -0.14236313D-03
 -0.20112192D-03  0.93580981D-04 -0.18753717D-03 -0.20587383D-03 -0.55571801D-03
 -0.17512143D-03  0.37598943D-03  0.14824919D-11  0.21985694D-01 -0.13799314D-01
  0.16349883D-13 -0.12410094D-03  0.59407379D-04 -0.31634507D-15 -0.87067628D-05
  0.66397364D-05  0.10156065D+01  0.10627227D+01  0.90549664D+00  0.59633799D+00
  0.27483443D+00  0.82299614D-01  0.14002582D-01 -0.12404619D+01 -0.12980098D+01
 -0.11059738D+01 -0.72836735D+00 -0.33568283D+00 -0.10052077D+00 -0.17102756D-01
  0.22485548D+00  0.23528703D+00  0.20047714D+00  0.13202936D+00  0.60848399D-01
  0.18221152D-01  0.31001745D-02 -0.66998733D-10 -0.70106955D-10 -0.59734878D-10
 -0.39339933D-10 -0.18130604D-10 -0.54292387D-11 -0.92373893D-12 -0.12054521D-10
 -0.12613757D-10 -0.10747596D-10 -0.70781047D-11 -0.32620877D-11 -0.97683745D-12
 -0.16620061D-12  0.37373373D+01  0.39107208D+01  0.33321434D+01  0.21944684D+01
  0.10113651D+01  0.30285493D+00  0.51528198D-01  0.11331538D-02 -0.13717786D-02
  0.23862481D-03 -0.61395295D-13 -0.65909196D-15  0.38014138D-02 -0.11609485D-03
  0.11008651D-03  0.60083427D-05  0.23967916D-14 -0.17888154D-14 -0.30416030D-03
 -0.13510251D-04  0.15089419D-04 -0.15791688D-05 -0.10498431D-14  0.42188111D-15
 -0.28616784D-04 -0.28275336D-14  0.40257587D-04  0.91987266D-04  0.72636428D-14
 -0.20897607D-03  0.14483569D-03  0.12189581D-14  0.88203310D-04 -0.42079749D-03
 -0.14679447D-13  0.34536605D-15 -0.97078715D-05 -0.20853105D-04 -0.69295481D-15
  0.68941275D-04 -0.54563589D-04 -0.34314334D-15 -0.39817661D-04  0.11712290D-03
  0.18578850D-14 -0.35976897D-01 -0.67055020D-01 -0.11370121D+00 -0.17207469D+00
 -0.21464961D+00 -0.18420130D+00 -0.70539313D-01 -0.34789813D-05 -0.37327186D-04
 -0.13759504D-03 -0.40231982D-03 -0.48481494D-03  0.58401098D-03 -0.32072762D-02
  0.30102927D-03  0.68671844D-04 -0.25540474D-14 -0.24765668D-14 -0.16706774D-14
  0.26599954D-11  0.25793007D-11  0.17399810D-11  0.28935461D-02  0.28057664D-02
  0.18927534D-02 -0.43284991D-15  0.56900781D-12  0.64021216D-03 -0.88945382D-14
 -0.66643476D-13  0.85012986D-04 -0.70457807D-15 -0.31375986D-13  0.78698168D-05
  0.28236457D-03 -0.61512249D-04 -0.22085232D-03  0.20709211D-13 -0.85403101D-14
  0.24173354D-12  0.27795196D-04  0.15556405D-03 -0.18335924D-03 -0.39427370D-14
  0.93927371D-14  0.23229374D-12  0.31066504D-05  0.46666575D-04 -0.49773226D-04
  0.60120975D-15  0.35716315D-14  0.54754036D-13  0.15464588D-14  0.43092926D-13
 -0.32329025D-03 -0.83758824D-14 -0.69396619D-13  0.48296567D-03  0.37365059D-14
 -0.59882160D-13  0.48690508D-03  0.24593659D-14  0.11751241D-14  0.30938054D-14
  0.80096066D-04  0.17821971D-14  0.46391136D-13 -0.40092759D-04 -0.53075693D-14
 -0.55672552D-13 -0.20019544D-03  0.21632379D-14
MO    2     MO 0.0        OCC NO =    2.0000158  ORB. ENERGY =    0.000000
 -0.58761054D-10 -0.10954244D-09 -0.18514165D-09 -0.27830244D-09 -0.34184470D-09
 -0.28850486D-09 -0.10848536D-09 -0.20225400D-13 -0.15117233D-12 -0.56496553D-12
 -0.15761659D-11 -0.21116277D-11  0.24934386D-11 -0.42679058D-11  0.13048931D-11
  0.36981151D-12  0.26907184D-12  0.25227195D-12  0.17963266D-12 -0.58221671D-02
 -0.54586517D-02 -0.38868852D-02 -0.33058276D-11 -0.30994235D-11 -0.22069742D-11
  0.10285927D-12 -0.19637783D-02 -0.16358488D-11  0.37681319D-13 -0.44464660D-03
 -0.20574951D-12  0.88843360D-15  0.16267648D-04 -0.15713756D-13 -0.12376898D-12
  0.55608706D-12 -0.43231809D-12  0.10284231D-12 -0.69346364D-13  0.14606756D-02
 -0.20447764D-12  0.26359435D-12 -0.59116707D-13  0.10298317D-12 -0.48426471D-13
  0.63254544D-03 -0.22128782D-13  0.20077864D-13  0.20509186D-14 -0.29086431D-14
 -0.71262737D-14  0.13264687D-03  0.79525578D-14  0.54818669D-04 -0.48908591D-13
 -0.97650538D-14 -0.14579031D-03  0.84824347D-13 -0.14092620D-13 -0.18665698D-04
  0.61901425D-13  0.14058046D-13 -0.62582225D-14 -0.45741547D-04 -0.12606933D-13
  0.13184557D-13  0.85287701D-05 -0.13083675D-13  0.55901105D-14  0.12869587D-03
  0.50904474D-13 -0.26503225D-13  0.31350581D-01  0.58975164D-01  0.10208902D+00
  0.16734351D+00  0.26214616D+00  0.39402700D+00  0.56315722D+00  0.74758998D+00
  0.87062254D+00  0.79956608D+00  0.46739888D+00  0.12264274D+00  0.69729209D-02
  0.12166997D-03  0.12247467D-04  0.14873320D-02  0.42965592D-02  0.19692140D-01
  0.58293024D-01  0.16905147D+00  0.35138909D+00  0.50266627D+00  0.14413047D+00
 -0.57596468D+00 -0.55690212D+00 -0.12155240D+00  0.17594342D-02  0.90521564D-03
  0.42230182D-02  0.85703020D-02  0.33588504D-01  0.23569849D-01 -0.15349578D+00
 -0.47563071D+00 -0.58180288D-01  0.41577343D+00  0.19512245D+00  0.99734264D-06
  0.13672776D-05 -0.26214019D-05 -0.55713410D-05  0.21061228D-04  0.68106661D-04
  0.23686461D-04 -0.23167938D-03 -0.51676513D-03  0.34290961D-03  0.81192394D-02
 -0.39211893D-03  0.28729298D-04  0.85101454D-08  0.12210788D-07  0.16168212D-07
  0.18671471D-07  0.17311975D-07  0.11211003D-07  0.39559054D-08  0.45581469D-09
 -0.74466117D-12 -0.11502603D+02 -0.16504519D+02 -0.21853508D+02 -0.25236998D+02
 -0.23399456D+02 -0.15153174D+02 -0.53469368D+01 -0.61609470D+00  0.10065095D-02
 -0.68449929D+01 -0.98215431D+01 -0.13004631D+02 -0.15018085D+02 -0.13924597D+02
 -0.90173820D+01 -0.31818662D+01 -0.36662691D+00  0.59895573D-03 -0.15315040D-10
  0.43665907D-10  0.21313891D-09  0.44166434D-09  0.55424515D-09  0.87893313D-10
 -0.71146667D-09 -0.62050209D-09 -0.15950930D-09  0.68909076D-01 -0.19647205D+00
 -0.95900535D+00 -0.19872414D+01 -0.24937919D+01 -0.39547054D+00  0.32012004D+01
  0.27919109D+01  0.71770223D+00  0.40949762D-01 -0.11675507D+00 -0.56989649D+00
 -0.11809339D+01 -0.14819555D+01 -0.23501149D+00  0.19023386D+01  0.16591150D+01
  0.42650021D+00  0.33001906D-13  0.46623076D-13 -0.21693474D-13  0.43473926D-13
  0.47724640D-13  0.12882376D-12  0.40595771D-13 -0.87159983D-13  0.76728900D-04
  0.10839790D-03 -0.50436977D-04  0.10107618D-03  0.11095902D-03  0.29951317D-03
  0.94384514D-04 -0.20264556D-03  0.10184514D-03  0.14388059D-03 -0.66946888D-04
  0.13416219D-03  0.14728006D-03  0.39755505D-03  0.12528010D-03 -0.26897903D-03
 -0.54648230D-11  0.25420154D-01  0.15177355D-01 -0.78595504D-13  0.10010718D-03
  0.19078536D-04  0.13330129D-14 -0.16717148D-05  0.15584143D-06 -0.11526222D+01
 -0.12060949D+01 -0.10276574D+01 -0.67679010D+00 -0.31191241D+00 -0.93402675D-01
 -0.15891673D-01  0.14109060D+01  0.14763611D+01  0.12579386D+01  0.82844770D+00
  0.38180688D+00  0.11433269D+00  0.19452738D-01 -0.25828378D+00 -0.27026615D+00
 -0.23028123D+00 -0.15165760D+00 -0.69894471D-01 -0.20930012D-01 -0.35610642D-02
 -0.16238849D-09 -0.16992206D-09 -0.14478269D-09 -0.95350348D-10 -0.43944136D-10
 -0.13159143D-10 -0.22389166D-11  0.43275502D-10  0.45283150D-10  0.38583667D-10
  0.25410262D-10  0.11710833D-10  0.35068279D-11  0.59665704D-12  0.41964085D+01
  0.43910893D+01  0.37414431D+01  0.24640232D+01  0.11355949D+01  0.34005573D+00
  0.57857600D-01 -0.11820511D-02  0.13719843D-02 -0.18993320D-03 -0.14083574D-12
  0.11653960D-13  0.40710093D-02  0.68640209D-04 -0.35473019D-04 -0.33167190D-04
  0.97903698D-14  0.28867351D-14 -0.17559924D-03 -0.38480373D-05  0.29846544D-05
  0.86338294D-06 -0.71708202D-14 -0.38960028D-14 -0.18801286D-04  0.72935976D-14
  0.40206611D-04 -0.11294430D-03 -0.19644491D-13 -0.23474379D-03 -0.14333257D-03
 -0.22363013D-14  0.11412396D-03  0.48216548D-03 -0.43365806D-13  0.13548497D-15
  0.29986063D-05  0.20610018D-04 -0.13733220D-16  0.41095266D-04  0.31589704D-04
 -0.39272170D-15 -0.50091085D-04 -0.93419757D-04  0.14858887D-14 -0.31350581D-01
 -0.58975164D-01 -0.10208902D+00 -0.16734351D+00 -0.26214616D+00 -0.39402700D+00
 -0.56315722D+00 -0.74758998D+00 -0.87062254D+00 -0.79956608D+00 -0.46739887D+00
 -0.12264274D+00 -0.69729209D-02 -0.12166997D-03 -0.12247467D-04 -0.14873320D-02
 -0.42965592D-02 -0.19692140D-01 -0.58293024D-01 -0.16905147D+00 -0.35138909D+00
 -0.50266626D+00 -0.14413047D+00  0.57596467D+00  0.55690212D+00  0.12155240D+00
 -0.17594342D-02 -0.90521564D-03 -0.42230182D-02 -0.85703020D-02 -0.33588504D-01
 -0.23569849D-01  0.15349578D+00  0.47563071D+00  0.58180288D-01 -0.41577343D+00
 -0.19512245D+00 -0.99734264D-06 -0.13672776D-05  0.26214019D-05  0.55713410D-05
 -0.21061228D-04 -0.68106661D-04 -0.23686461D-04  0.23167938D-03  0.51676512D-03
 -0.34290961D-03 -0.81192394D-02  0.39211893D-03 -0.28729298D-04 -0.70313175D-08
 -0.10088891D-07 -0.13358624D-07 -0.15426886D-07 -0.14303632D-07 -0.92628403D-08
 -0.32684785D-08 -0.37660670D-09  0.61525965D-12 -0.11502603D+02 -0.16504518D+02
 -0.21853508D+02 -0.25236998D+02 -0.23399456D+02 -0.15153174D+02 -0.53469368D+01
 -0.61609469D+00  0.10065095D-02  0.68449928D+01  0.98215430D+01  0.13004631D+02
  0.15018085D+02  0.13924597D+02  0.90173820D+01  0.31818662D+01  0.36662691D+00
 -0.59895573D-03  0.51977816D-10 -0.14819801D-09 -0.72337357D-09 -0.14989676D-08