 Entering Gaussian System, Link 0=/home/bruns/programas/chemistry/gaussian/g09/g09
 Input=GAUSSIAN.com
 Output=GAUSSIAN.log
 Initial command:
 /home/bruns/programas/chemistry/gaussian/g09/l1.exe /home/bruns/programas/chemistry/gaussian/work/Gau-74992.inp -scrdir=/home/bruns/programas/chemistry/gaussian/work/
 Entering Link 1 = /home/bruns/programas/chemistry/gaussian/g09/l1.exe PID=     74994.
  
 Copyright (c) 1988,1990,1992,1993,1995,1998,2003,2009,2010,
            Gaussian, Inc.  All Rights Reserved.
  
 This is part of the Gaussian(R) 09 program.  It is based on
 the Gaussian(R) 03 system (copyright 2003, Gaussian, Inc.),
 the Gaussian(R) 98 system (copyright 1998, Gaussian, Inc.),
 the Gaussian(R) 94 system (copyright 1995, Gaussian, Inc.),
 the Gaussian 92(TM) system (copyright 1992, Gaussian, Inc.),
 the Gaussian 90(TM) system (copyright 1990, Gaussian, Inc.),
 the Gaussian 88(TM) system (copyright 1988, Gaussian, Inc.),
 the Gaussian 86(TM) system (copyright 1986, Carnegie Mellon
 University), and the Gaussian 82(TM) system (copyright 1983,
 Carnegie Mellon University). Gaussian is a federally registered
 trademark of Gaussian, Inc.
  
 This software contains proprietary and confidential information,
 including trade secrets, belonging to Gaussian, Inc.
  
 This software is provided under written license and may be
 used, copied, transmitted, or stored only in accord with that
 written license.
  
 The following legend is applicable only to US Government
 contracts under FAR:
  
                    RESTRICTED RIGHTS LEGEND
  
 Use, reproduction and disclosure by the US Government is
 subject to restrictions as set forth in subparagraphs (a)
 and (c) of the Commercial Computer Software - Restricted
 Rights clause in FAR 52.227-19.
  
 Gaussian, Inc.
 340 Quinnipiac St., Bldg. 40, Wallingford CT 06492
  
  
 ---------------------------------------------------------------
 Warning -- This program may not be used in any manner that
 competes with the business of Gaussian, Inc. or will provide
 assistance to any competitor of Gaussian, Inc.  The licensee
 of this program is prohibited from giving any competitor of
 Gaussian, Inc. access to this program.  By using this program,
 the user acknowledges that Gaussian, Inc. is engaged in the
 business of creating and licensing software in the field of
 computational chemistry and represents and warrants to the
 licensee that it is not a competitor of Gaussian, Inc. and that
 it will not use this program in any manner prohibited above.
 ---------------------------------------------------------------
  

 Cite this work as:
 Gaussian 09, Revision B.01,
 M. J. Frisch, G. W. Trucks, H. B. Schlegel, G. E. Scuseria, 
 M. A. Robb, J. R. Cheeseman, G. Scalmani, V. Barone, B. Mennucci, 
 G. A. Petersson, H. Nakatsuji, M. Caricato, X. Li, H. P. Hratchian, 
 A. F. Izmaylov, J. Bloino, G. Zheng, J. L. Sonnenberg, M. Hada, 
 M. Ehara, K. Toyota, R. Fukuda, J. Hasegawa, M. Ishida, T. Nakajima, 
 Y. Honda, O. Kitao, H. Nakai, T. Vreven, J. A. Montgomery, Jr., 
 J. E. Peralta, F. Ogliaro, M. Bearpark, J. J. Heyd, E. Brothers, 
 K. N. Kudin, V. N. Staroverov, T. Keith, R. Kobayashi, J. Normand, 
 K. Raghavachari, A. Rendell, J. C. Burant, S. S. Iyengar, J. Tomasi, 
 M. Cossi, N. Rega, J. M. Millam, M. Klene, J. E. Knox, J. B. Cross, 
 V. Bakken, C. Adamo, J. Jaramillo, R. Gomperts, R. E. Stratmann, 
 O. Yazyev, A. J. Austin, R. Cammi, C. Pomelli, J. W. Ochterski, 
 R. L. Martin, K. Morokuma, V. G. Zakrzewski, G. A. Voth, 
 P. Salvador, J. J. Dannenberg, S. Dapprich, A. D. Daniels, 
 O. Farkas, J. B. Foresman, J. V. Ortiz, J. Cioslowski, 
 and D. J. Fox, Gaussian, Inc., Wallingford CT, 2010.
 
 ******************************************
 Gaussian 09:  EM64L-G09RevB.01 12-Aug-2010
                28-Nov-2021 
 ******************************************
 %nproc=8
 Will use up to    8 processors via shared memory.
 %mem=8GB
 -----------------------------------------------------
 # qcisd/aug-cc-pvtz nosymm density=current output=wfn
 -----------------------------------------------------
 1/30=1,38=1/1;
 2/12=2,15=1,17=6,18=5,40=1/2;
 3/5=16,6=1,7=10,11=9,16=1,25=1,30=1,71=1/1,2,3;
 4//1;
 5/5=2,38=5/2;
 8/6=4,9=120000,10=1/1,4;
 9/5=8,15=1/13;
 11/28=-7,31=1,32=3,42=3/11;
 10/5=6,13=10,31=1/2;
 6/7=2,8=2,9=2,10=2,22=-1,31=1/1;
 99/5=1,6=1100,9=1/99;
 ------------------
 br2co-wavefunction
 ------------------
 Symbolic Z-matrix:
 Charge =  0 Multiplicity = 1
 C                     0.        0.       -0.49176 
 Br                    0.       -1.59418  -1.53682 
 Br                    0.        1.59418  -1.54682 
 O                     0.        0.        0.6845 
 
                          Input orientation:                          
 ---------------------------------------------------------------------
 Center     Atomic      Atomic             Coordinates (Angstroms)
 Number     Number       Type             X           Y           Z
 ---------------------------------------------------------------------
      1          6           0        0.000000    0.000000   -0.491759
      2         35           0        0.000000   -1.594181   -1.536820
      3         35           0        0.000000    1.594181   -1.546820
      4          8           0        0.000000    0.000000    0.684500
 ---------------------------------------------------------------------
                    Distance matrix (angstroms):
                    1          2          3          4
     1  C    0.000000
     2  Br   1.906191   0.000000
     3  Br   1.911692   3.188378   0.000000
     4  O    1.176259   2.734168   2.742299   0.000000
 Symmetry turned off by external request.
 Stoichiometry    CBr2O
 Framework group  CS[SG(CBr2O)]
 Deg. of freedom     5
 Full point group                 CS      NOp   2
 Rotational constants (GHZ):      6.3170765      1.2598786      1.0503889
 Standard basis: Aug-CC-pVTZ (5D, 7F)
 Integral buffers will be    131072 words long.
 Raffenetti 1 integral format.
 Two-electron integral symmetry is turned off.
   210 basis functions,   578 primitive gaussians,   248 cartesian basis functions
    42 alpha electrons       42 beta electrons
       nuclear repulsion energy       449.5597396634 Hartrees.
 NAtoms=    4 NActive=    4 NUniq=    4 SFac= 1.00D+00 NAtFMM=   50 NAOKFM=F Big=F
 One-electron integrals computed using PRISM.
 NBasis=   210 RedAO= T  NBF=   210
 NBsUse=   210 1.00D-06 NBFU=   210
 Harris functional with IExCor=  205 diagonalized for initial guess.
 ExpMin= 3.51D-02 ExpMax= 1.06D+07 ExpMxC= 1.21D+04 IAcc=3 IRadAn=         0 AccDes= 0.00D+00
 HarFok:  IExCor=  205 AccDes= 0.00D+00 IRadAn=         0 IDoV= 1
 ScaDFX=  1.000000  1.000000  1.000000  1.000000
 FoFCou: FMM=F IPFlag=           0 FMFlag=      100000 FMFlg1=           0
         NFxFlg=           0 DoJE=T BraDBF=F KetDBF=T FulRan=T
         Omega=  0.000000  0.000000  1.000000  0.000000  0.000000 ICntrl=     500 IOpCl=  0
         NMat0=    1 NMatS0=    1 NMatT0=    0 NMatD0=    1 NMtDS0=    0 NMtDT0=    0
         I1Cent=           4 NGrid=           0.
 Symmetry not used in FoFCou.
 Requested convergence on RMS density matrix=1.00D-08 within 128 cycles.
 Requested convergence on MAX density matrix=1.00D-06.
 Requested convergence on             energy=1.00D-06.
 No special actions if energy rises.
 Keep R1 ints in memory in canonical form, NReq=484604278.
 SCF Done:  E(RHF) =  -5257.68459580     A.U. after   12 cycles
             Convg  =    0.9211D-08             -V/T =  2.0000
 ExpMin= 3.51D-02 ExpMax= 1.06D+07 ExpMxC= 1.21D+04 IAcc=3 IRadAn=         5 AccDes= 0.00D+00
 HarFok:  IExCor=  205 AccDes= 0.00D+00 IRadAn=         5 IDoV=-2
 ScaDFX=  1.000000  1.000000  1.000000  1.000000
 DSYEVD returned Info=          89 IAlg= 4 N=    59 NDim=    59 NE2=    18196533 trying DSYEV.
 Range of M.O.s used for correlation:    21   210
 NBasis=   210 NAE=    42 NBE=    42 NFC=    20 NFV=     0
 NROrb=    190 NOA=    22 NOB=    22 NVA=   168 NVB=   168

 **** Warning!!: The largest alpha MO coefficient is  0.28191444D+02

 Semi-Direct transformation.
 ModeAB=           2 MOrb=            22 LenV=    1072497221
 LASXX=     69628944 LTotXX=    69628944 LenRXX=    69628944
 LTotAB=    70719517 MaxLAS=   129061680 LenRXY=   129061680
 NonZer=   139257888 LenScr=   209707008 LnRSAI=           0
 LnScr1=           0 LExtra=           0 Total=    408397632
 MaxDsk=          -1 SrtSym=           F ITran=            4
 JobTyp=0 Pass  1:  I=   1 to  22.
 (rs|ai) integrals will be sorted in core.
 Spin components of T(2) and E(2):
     alpha-alpha T2 =       0.3829985743D-01 E2=     -0.1232824699D+00
     alpha-beta  T2 =       0.1923355434D+00 E2=     -0.6174337687D+00
     beta-beta   T2 =       0.3829985743D-01 E2=     -0.1232824699D+00
 ANorm=    0.1126470265D+01
 E2 =    -0.8639987085D+00 EUMP2 =    -0.52585485945088D+04
 R2 and R3 integrals will be kept in memory, NReq=   961077252.
 Iterations=  50 Convergence= 0.100D-07
 Iteration Nr.   1
 **********************
 DD1Dir will call FoFMem   1 times, MxPair=       506
 NAB=   253 NAA=     0 NBB=     0.
 MP4(R+Q)=  0.21456687D-01
 E3=        0.11907426D-03        EUMP3=      -0.52585484754D+04
 E4(DQ)=    0.27430283D-03        UMP4(DQ)=   -0.52585482011D+04
 E4(SDQ)=  -0.11670740D-01        UMP4(SDQ)=  -0.52585601462D+04
 DE(Corr)= -0.84242295     E(Corr)=     -5258.5270187    
 NORM(A)=   0.11247623D+01
 Iteration Nr.   2
 **********************
 DD1Dir will call FoFMem   1 times, MxPair=       506
 NAB=   253 NAA=     0 NBB=     0.
 DE(Corr)= -0.87227481     E(CORR)=     -5258.5568706     Delta=-2.99D-02
 NORM(A)=   0.11351430D+01
 Iteration Nr.   3
 **********************
 DD1Dir will call FoFMem   1 times, MxPair=       506
 NAB=   253 NAA=     0 NBB=     0.
 DE(Corr)= -0.87018204     E(CORR)=     -5258.5547778     Delta= 2.09D-03
 NORM(A)=   0.11378953D+01
 Iteration Nr.   4
 **********************
 DD1Dir will call FoFMem   1 times, MxPair=       506
 NAB=   253 NAA=     0 NBB=     0.
 DE(Corr)= -0.87270498     E(CORR)=     -5258.5573008     Delta=-2.52D-03
 NORM(A)=   0.11392036D+01
 Iteration Nr.   5
 **********************
 DD1Dir will call FoFMem   1 times, MxPair=       506
 NAB=   253 NAA=     0 NBB=     0.
 DE(Corr)= -0.87307821     E(CORR)=     -5258.5576740     Delta=-3.73D-04
 NORM(A)=   0.11397166D+01
 Iteration Nr.   6
 **********************
 DD1Dir will call FoFMem   1 times, MxPair=       506
 NAB=   253 NAA=     0 NBB=     0.
 DE(Corr)= -0.87314228     E(CORR)=     -5258.5577381     Delta=-6.41D-05
 NORM(A)=   0.11398202D+01
 Iteration Nr.   7
 **********************
 DD1Dir will call FoFMem   1 times, MxPair=       506
 NAB=   253 NAA=     0 NBB=     0.
 DE(Corr)= -0.87315653     E(CORR)=     -5258.5577523     Delta=-1.43D-05
 NORM(A)=   0.11398289D+01
 Iteration Nr.   8
 **********************
 DD1Dir will call FoFMem   1 times, MxPair=       506
 NAB=   253 NAA=     0 NBB=     0.
 DE(Corr)= -0.87315687     E(CORR)=     -5258.5577527     Delta=-3.38D-07
 NORM(A)=   0.11398439D+01
 Iteration Nr.   9
 **********************
 DD1Dir will call FoFMem   1 times, MxPair=       506
 NAB=   253 NAA=     0 NBB=     0.
 DE(Corr)= -0.87315494     E(CORR)=     -5258.5577507     Delta= 1.93D-06
 NORM(A)=   0.11398438D+01
 Iteration Nr.  10
 **********************
 DD1Dir will call FoFMem   1 times, MxPair=       506
 NAB=   253 NAA=     0 NBB=     0.
 DE(Corr)= -0.87315635     E(CORR)=     -5258.5577522     Delta=-1.41D-06
 NORM(A)=   0.11398465D+01
 Iteration Nr.  11
 **********************
 DD1Dir will call FoFMem   1 times, MxPair=       506
 NAB=   253 NAA=     0 NBB=     0.
 DE(Corr)= -0.87315748     E(CORR)=     -5258.5577533     Delta=-1.12D-06
 NORM(A)=   0.11398483D+01
 Iteration Nr.  12
 **********************
 DD1Dir will call FoFMem   1 times, MxPair=       506
 NAB=   253 NAA=     0 NBB=     0.
 DE(Corr)= -0.87315780     E(CORR)=     -5258.5577536     Delta=-3.21D-07
 NORM(A)=   0.11398493D+01
 Iteration Nr.  13
 **********************
 DD1Dir will call FoFMem   1 times, MxPair=       506
 NAB=   253 NAA=     0 NBB=     0.
 DE(Corr)= -0.87315826     E(CORR)=     -5258.5577541     Delta=-4.61D-07
 NORM(A)=   0.11398500D+01
 Iteration Nr.  14
 **********************
 DD1Dir will call FoFMem   1 times, MxPair=       506
 NAB=   253 NAA=     0 NBB=     0.
 DE(Corr)= -0.87315837     E(CORR)=     -5258.5577542     Delta=-1.12D-07
 NORM(A)=   0.11398503D+01
 Iteration Nr.  15
 **********************
 DD1Dir will call FoFMem   1 times, MxPair=       506
 NAB=   253 NAA=     0 NBB=     0.
 DE(Corr)= -0.87315844     E(CORR)=     -5258.5577542     Delta=-6.82D-08
 NORM(A)=   0.11398505D+01
 Iteration Nr.  16
 **********************
 DD1Dir will call FoFMem   1 times, MxPair=       506
 NAB=   253 NAA=     0 NBB=     0.
 DE(Corr)= -0.87315847     E(CORR)=     -5258.5577543     Delta=-2.99D-08
 NORM(A)=   0.11398506D+01
 Iteration Nr.  17
 **********************
 DD1Dir will call FoFMem   1 times, MxPair=       506
 NAB=   253 NAA=     0 NBB=     0.
 DE(Corr)= -0.87315846     E(CORR)=     -5258.5577543     Delta= 3.22D-09
 NORM(A)=   0.11398506D+01
 Iteration Nr.  18
 **********************
 DD1Dir will call FoFMem   1 times, MxPair=       506
 NAB=   253 NAA=     0 NBB=     0.
 DE(Corr)= -0.87315848     E(CORR)=     -5258.5577543     Delta=-1.33D-08
 NORM(A)=   0.11398506D+01
 Iteration Nr.  19
 **********************
 DD1Dir will call FoFMem   1 times, MxPair=       506
 NAB=   253 NAA=     0 NBB=     0.
 DE(Corr)= -0.87315847     E(CORR)=     -5258.5577543     Delta= 8.19D-09
 NORM(A)=   0.11398506D+01
 Iteration Nr.  20
 **********************
 DD1Dir will call FoFMem   1 times, MxPair=       506
 NAB=   253 NAA=     0 NBB=     0.
 DE(Corr)= -0.87315848     E(CORR)=     -5258.5577543     Delta=-6.86D-09
 NORM(A)=   0.11398506D+01
 Iteration Nr.  21
 **********************
 DD1Dir will call FoFMem   1 times, MxPair=       506
 NAB=   253 NAA=     0 NBB=     0.
 DE(Corr)= -0.87315848     E(CORR)=     -5258.5577543     Delta=-6.84D-09
 NORM(A)=   0.11398506D+01
 Iteration Nr.  22
 **********************
 DD1Dir will call FoFMem   1 times, MxPair=       506
 NAB=   253 NAA=     0 NBB=     0.
 DE(Corr)= -0.87315848     E(CORR)=     -5258.5577543     Delta= 5.15D-09
 NORM(A)=   0.11398506D+01
 Iteration Nr.  23
 **********************
 DD1Dir will call FoFMem   1 times, MxPair=       506
 NAB=   253 NAA=     0 NBB=     0.
 DE(Corr)= -0.87315848     E(CORR)=     -5258.5577543     Delta= 1.79D-10
 NORM(A)=   0.11398506D+01
 Iteration Nr.  24
 **********************
 DD1Dir will call FoFMem   1 times, MxPair=       506
 NAB=   253 NAA=     0 NBB=     0.
 DE(Corr)= -0.87315847     E(CORR)=     -5258.5577543     Delta= 3.36D-09
 NORM(A)=   0.11398506D+01
 Iteration Nr.  25
 **********************
 DD1Dir will call FoFMem   1 times, MxPair=       506
 NAB=   253 NAA=     0 NBB=     0.
 DE(Corr)= -0.87315847     E(CORR)=     -5258.5577543     Delta= 6.07D-10
 NORM(A)=   0.11398506D+01
 Largest amplitude= 4.19D-02

 Z-AMPLITUDE ITERATIONS

 Iteration Nr.   1
 **********************
 DD1Dir will call FoFMem   1 times, MxPair=       506
 NAB=   253 NAA=     0 NBB=     0.
 DE(Z)  -0.84601945D+00          E(Z)=    -0.52585306153D+04
 NORM(A)=   0.11396156D+01
 Iteration Nr.   2
 **********************
 DD1Dir will call FoFMem   1 times, MxPair=       506
 NAB=   253 NAA=     0 NBB=     0.
 DE(Z)  -0.84601901D+00          E(Z)=    -0.52585306148D+04
 NORM(A)=   0.11391874D+01
 Iteration Nr.   3
 **********************
 DD1Dir will call FoFMem   1 times, MxPair=       506
 NAB=   253 NAA=     0 NBB=     0.
 DE(Z)  -0.84601844D+00          E(Z)=    -0.52585306142D+04
 NORM(A)=   0.11391399D+01
 Iteration Nr.   4
 **********************
 DD1Dir will call FoFMem   1 times, MxPair=       506
 NAB=   253 NAA=     0 NBB=     0.
 DE(Z)  -0.84601854D+00          E(Z)=    -0.52585306143D+04
 NORM(A)=   0.11377453D+01
 Iteration Nr.   5
 **********************
 DD1Dir will call FoFMem   1 times, MxPair=       506
 NAB=   253 NAA=     0 NBB=     0.
 DE(Z)  -0.84601068D+00          E(Z)=    -0.52585306065D+04
 NORM(A)=   0.11300185D+01
 Iteration Nr.   6
 **********************
 DD1Dir will call FoFMem   1 times, MxPair=       506
 NAB=   253 NAA=     0 NBB=     0.
 DE(Z)  -0.84598755D+00          E(Z)=    -0.52585305834D+04
 NORM(A)=   0.11300201D+01
 Iteration Nr.   7
 **********************
 DD1Dir will call FoFMem   1 times, MxPair=       506
 NAB=   253 NAA=     0 NBB=     0.
 DE(Z)  -0.84598485D+00          E(Z)=    -0.52585305806D+04
 NORM(A)=   0.11300200D+01
 Iteration Nr.   8
 **********************
 DD1Dir will call FoFMem   1 times, MxPair=       506
 NAB=   253 NAA=     0 NBB=     0.
 DE(Z)  -0.84598566D+00          E(Z)=    -0.52585305815D+04
 NORM(A)=   0.11300199D+01
 Iteration Nr.   9
 **********************
 DD1Dir will call FoFMem   1 times, MxPair=       506
 NAB=   253 NAA=     0 NBB=     0.
 DE(Z)  -0.84598550D+00          E(Z)=    -0.52585305813D+04
 NORM(A)=   0.11300200D+01
 Iteration Nr.  10
 **********************
 DD1Dir will call FoFMem   1 times, MxPair=       506
 NAB=   253 NAA=     0 NBB=     0.
 DE(Z)  -0.84598542D+00          E(Z)=    -0.52585305812D+04
 NORM(A)=   0.11300200D+01
 Iteration Nr.  11
 **********************
 DD1Dir will call FoFMem   1 times, MxPair=       506
 NAB=   253 NAA=     0 NBB=     0.
 DE(Z)  -0.84598547D+00          E(Z)=    -0.52585305813D+04
 NORM(A)=   0.11300201D+01
 Iteration Nr.  12
 **********************
 DD1Dir will call FoFMem   1 times, MxPair=       506
 NAB=   253 NAA=     0 NBB=     0.
 DE(Z)  -0.84598548D+00          E(Z)=    -0.52585305813D+04
 NORM(A)=   0.11300201D+01
 Iteration Nr.  13
 **********************
 DD1Dir will call FoFMem   1 times, MxPair=       506
 NAB=   253 NAA=     0 NBB=     0.
 DE(Z)  -0.84598548D+00          E(Z)=    -0.52585305813D+04
 NORM(A)=   0.11300202D+01
 Iteration Nr.  14
 **********************
 DD1Dir will call FoFMem   1 times, MxPair=       506
 NAB=   253 NAA=     0 NBB=     0.
 DE(Z)  -0.84598548D+00          E(Z)=    -0.52585305813D+04
 NORM(A)=   0.11300202D+01
 Discarding MO integrals.
          Differentiating once with respect to electric field.
                with respect to dipole field.
          Electric field/nuclear overlap derivatives assumed to be zero.
          Keep R1 ints in memory in canonical form, NReq=478620341.
          There are     1 degrees of freedom in the 1st order CPHF.  IDoFFX=0.
 LinEq1:  Iter=  0 NonCon=     1 RMS=1.95D-03 Max=5.59D-02
 AX will form     1 AO Fock derivatives at one time.
 LinEq1:  Iter=  1 NonCon=     1 RMS=7.39D-04 Max=2.61D-02
 LinEq1:  Iter=  2 NonCon=     1 RMS=3.09D-04 Max=9.29D-03
 LinEq1:  Iter=  3 NonCon=     1 RMS=1.02D-04 Max=2.95D-03
 LinEq1:  Iter=  4 NonCon=     1 RMS=5.31D-05 Max=1.63D-03
 LinEq1:  Iter=  5 NonCon=     1 RMS=1.64D-05 Max=4.60D-04
 LinEq1:  Iter=  6 NonCon=     1 RMS=6.28D-06 Max=1.30D-04
 LinEq1:  Iter=  7 NonCon=     1 RMS=1.34D-06 Max=2.11D-05
 LinEq1:  Iter=  8 NonCon=     1 RMS=2.68D-07 Max=4.30D-06
 LinEq1:  Iter=  9 NonCon=     1 RMS=6.50D-08 Max=1.20D-06
 LinEq1:  Iter= 10 NonCon=     1 RMS=1.39D-08 Max=2.08D-07
 LinEq1:  Iter= 11 NonCon=     1 RMS=3.90D-09 Max=9.44D-08
 LinEq1:  Iter= 12 NonCon=     1 RMS=7.19D-10 Max=1.64D-08
 LinEq1:  Iter= 13 NonCon=     1 RMS=1.25D-10 Max=2.62D-09
 LinEq1:  Iter= 14 NonCon=     0 RMS=3.06D-11 Max=5.84D-10
 Linear equations converged to 1.000D-10 1.000D-09 after    14 iterations.
 End of Minotr Frequency-dependent properties file   721 does not exist.
 End of Minotr Frequency-dependent properties file   722 does not exist.

 **********************************************************************

            Population analysis using the QCI/CC density.

 **********************************************************************

     Natural Orbital Coefficients:
                           1         2         3         4         5
     Eigenvalues --     2.00002   2.00002   2.00001   2.00001   2.00001
   1 1   C  1S          0.36300   0.04981  -0.00725  -0.22341   0.00199
   2        2S         -0.00999  -0.00132   0.00006   0.00237  -0.00002
   3        3S          0.01403   0.00194  -0.00031  -0.00933   0.00008
   4        4S         -0.01297  -0.00171   0.00015   0.00315   0.00006
   5        5S         -0.00449  -0.00060  -0.00009  -0.00266   0.00003
   6        6PX         0.00000   0.00000   0.00000   0.00000   0.00000
   7        6PY         0.00037  -0.00266   0.00003   0.00001  -0.00022
   8        6PZ         0.00167   0.00021   0.00001   0.00013   0.00000
   9        7PX         0.00000   0.00000   0.00000   0.00000   0.00000
  10        7PY         0.00064  -0.00458   0.00026   0.00000  -0.00040
  11        7PZ         0.00461   0.00061  -0.00002  -0.00082   0.00001
  12        8PX         0.00000   0.00000   0.00000   0.00000   0.00000
  13        8PY         0.00058  -0.00443  -0.00125   0.00007  -0.00551
  14        8PZ         0.00374   0.00051  -0.00003  -0.00073  -0.00006
  15        9PX         0.00000   0.00000   0.00000   0.00000   0.00000
  16        9PY        -0.00009   0.00072   0.00165  -0.00007  -0.00173
  17        9PZ         0.00022   0.00003   0.00001   0.00050   0.00000
  18       10D 0        0.00031   0.00004  -0.00001  -0.00019   0.00000
  19       10D+1        0.00000   0.00000   0.00000   0.00000   0.00000
  20       10D-1       -0.00006   0.00043  -0.00008   0.00000  -0.00005
  21       10D+2        0.00012   0.00001   0.00001   0.00016   0.00000
  22       10D-2        0.00000   0.00000   0.00000   0.00000   0.00000
  23       11D 0       -0.00005  -0.00001   0.00000   0.00009   0.00001
  24       11D+1        0.00000   0.00000   0.00000   0.00000   0.00000
  25       11D-1       -0.00021   0.00161   0.00028  -0.00001  -0.00034
  26       11D+2        0.00170   0.00023  -0.00002  -0.00053   0.00001
  27       11D-2        0.00000   0.00000   0.00000   0.00000   0.00000
  28       12D 0       -0.00041  -0.00006   0.00000   0.00015   0.00000
  29       12D+1        0.00000   0.00000   0.00000   0.00000   0.00000
  30       12D-1       -0.00034   0.00260   0.00133  -0.00006   0.00130
  31       12D+2        0.00097   0.00013  -0.00001  -0.00010   0.00000
  32       12D-2        0.00000   0.00000   0.00000   0.00000   0.00000
  33       13F 0        0.00015   0.00002   0.00000  -0.00015   0.00000
  34       13F+1        0.00000   0.00000   0.00000   0.00000   0.00000
  35       13F-1        0.00000  -0.00001   0.00006   0.00000   0.00000
  36       13F+2        0.00001   0.00000   0.00000  -0.00003   0.00000
  37       13F-2        0.00000   0.00000   0.00000   0.00000   0.00000
  38       13F+3        0.00000   0.00000   0.00000   0.00000   0.00000
  39       13F-3        0.00001  -0.00008  -0.00003   0.00000  -0.00004
  40       14F 0       -0.00018  -0.00003   0.00002   0.00053  -0.00001
  41       14F+1        0.00000   0.00000   0.00000   0.00000   0.00000
  42       14F-1       -0.00009   0.00068   0.00003   0.00000  -0.00006
  43       14F+2       -0.00012  -0.00002   0.00001   0.00040   0.00000
  44       14F-2        0.00000   0.00000   0.00000   0.00000   0.00000
  45       14F+3        0.00000   0.00000   0.00000   0.00000   0.00000
  46       14F-3       -0.00003   0.00022   0.00012  -0.00001   0.00027
  47 2   Br 1S         -0.04901   0.03314  -0.08685  -0.07749  -0.00167
  48        2S          0.18144  -0.12264   0.32344   0.28864   0.00628
  49        3S         -0.38198   0.25671  -0.69740  -0.62272  -0.01361
  50        4S         -0.00123   0.00083  -0.00211  -0.00218   0.00016
  51        5S         -0.02041   0.01377  -0.03375  -0.02998  -0.00061
  52        6S          0.00398  -0.00223  -0.00775  -0.00654  -0.00351
  53        7S          0.00214   0.00068   0.00269   0.00126  -0.00312
  54        8PX         0.00000   0.00000   0.00000   0.00000   0.00000
  55        8PY         0.22098  -0.19457  -0.10066  -0.07676   0.12886
  56        8PZ         0.13538  -0.11412  -0.05446  -0.06990  -0.22499
  57        9PX         0.00000   0.00000   0.00000   0.00000   0.00000
  58        9PY        -0.57536   0.50919   0.28267   0.21504  -0.36497
  59        9PZ        -0.35313   0.29808   0.15231   0.19643   0.63374
  60       10PX         0.00000   0.00000   0.00000   0.00000   0.00000
  61       10PY         0.00237  -0.00038  -0.00013  -0.00077  -0.00122
  62       10PZ         0.00136  -0.00074  -0.00019  -0.00027   0.00098
  63       11PX         0.00000   0.00000   0.00000   0.00000   0.00000
  64       11PY        -0.02731   0.02417   0.01293   0.00976  -0.01624
  65       11PZ        -0.01690   0.01420   0.00693   0.00895   0.02825
  66       12PX         0.00000   0.00000   0.00000   0.00000   0.00000
  67       12PY         0.00137   0.00138   0.00135   0.00028  -0.00404
  68       12PZ         0.00069   0.00031   0.00064   0.00058   0.00185
  69       13PX         0.00000   0.00000   0.00000   0.00000   0.00000
  70       13PY         0.00042  -0.00003   0.00025   0.00020  -0.00021
  71       13PZ         0.00030   0.00005   0.00032   0.00005  -0.00064
  72       14D 0        0.00318  -0.00278  -0.00125  -0.00194  -0.00777
  73       14D+1        0.00000   0.00000   0.00000   0.00000   0.00000
  74       14D-1       -0.02758   0.02371   0.00560   0.00440  -0.00392
  75       14D+2        0.01703  -0.01481  -0.00406  -0.00401  -0.00451
  76       14D-2        0.00000   0.00000   0.00000   0.00000   0.00000
  77       15D 0        0.00033  -0.00020  -0.00007  -0.00014  -0.00047
  78       15D+1        0.00000   0.00000   0.00000   0.00000   0.00000
  79       15D-1       -0.00282   0.00232   0.00029   0.00026  -0.00024
  80       15D+2        0.00188  -0.00147  -0.00022  -0.00023  -0.00028
  81       15D-2        0.00000   0.00000   0.00000   0.00000   0.00000
  82       16D 0        0.00006  -0.00020  -0.00004  -0.00001  -0.00027
  83       16D+1        0.00000   0.00000   0.00000   0.00000   0.00000
  84       16D-1        0.00117  -0.00048   0.00011  -0.00027  -0.00025
  85       16D+2       -0.00087   0.00027  -0.00005   0.00007  -0.00010
  86       16D-2        0.00000   0.00000   0.00000   0.00000   0.00000
  87       17D 0       -0.00006   0.00003   0.00005  -0.00003   0.00005
  88       17D+1        0.00000   0.00000   0.00000   0.00000   0.00000
  89       17D-1        0.00057  -0.00028   0.00003  -0.00004  -0.00044
  90       17D+2       -0.00051  -0.00019  -0.00020   0.00009   0.00032
  91       17D-2        0.00000   0.00000   0.00000   0.00000   0.00000
  92       18F 0        0.00028  -0.00026  -0.00009  -0.00005   0.00004
  93       18F+1        0.00000   0.00000   0.00000   0.00000   0.00000
  94       18F-1       -0.00010   0.00010   0.00002   0.00003   0.00033
  95       18F+2        0.00044  -0.00037  -0.00010  -0.00008  -0.00002
  96       18F-2        0.00000   0.00000   0.00000   0.00000   0.00000
  97       18F+3        0.00000   0.00000   0.00000   0.00000   0.00000
  98       18F-3        0.00024  -0.00020  -0.00003  -0.00004   0.00014
  99       19F 0       -0.00034   0.00026   0.00007   0.00014  -0.00005
 100       19F+1        0.00000   0.00000   0.00000   0.00000   0.00000
 101       19F-1        0.00026  -0.00025  -0.00001  -0.00010  -0.00031
 102       19F+2       -0.00070   0.00038   0.00005   0.00018   0.00002
 103       19F-2        0.00000   0.00000   0.00000   0.00000   0.00000
 104       19F+3        0.00000   0.00000   0.00000   0.00000   0.00000
 105       19F-3       -0.00038   0.00013  -0.00004   0.00005  -0.00016
 106 3   Br 1S         -0.03884  -0.04541   0.08010  -0.08402   0.00151
 107        2S          0.14378   0.16810  -0.29832   0.31295  -0.00569
 108        3S         -0.30315  -0.35262   0.64323  -0.67522   0.01231
 109        4S         -0.00097  -0.00112   0.00191  -0.00232  -0.00016
 110        5S         -0.01616  -0.01885   0.03114  -0.03251   0.00055
 111        6S          0.00322   0.00312   0.00717  -0.00715   0.00343
 112        7S          0.00223  -0.00011  -0.00259   0.00148   0.00308
 113        8PX         0.00000   0.00000   0.00000   0.00000   0.00000
 114        8PY        -0.16143  -0.24382  -0.09412   0.08581   0.13458
 115        8PZ         0.10123   0.14620   0.04950  -0.07523   0.23021
 116        9PX         0.00000   0.00000   0.00000   0.00000   0.00000
 117        9PY         0.41971   0.63736   0.26422  -0.24013  -0.38096
 118        9PZ        -0.26395  -0.38176  -0.13833   0.21113  -0.64851
 119       10PX         0.00000   0.00000   0.00000   0.00000   0.00000
 120       10PY        -0.00218  -0.00099  -0.00007   0.00078  -0.00123
 121       10PZ         0.00114   0.00108   0.00017  -0.00029  -0.00101
 122       11PX         0.00000   0.00000   0.00000   0.00000   0.00000
 123       11PY         0.01991   0.03025   0.01210  -0.01092  -0.01694
 124       11PZ        -0.01264  -0.01821  -0.00629   0.00963  -0.02891
 125       12PX         0.00000   0.00000   0.00000   0.00000   0.00000
 126       12PY        -0.00167   0.00098   0.00133  -0.00040  -0.00407
 127       12PZ         0.00076  -0.00013  -0.00061   0.00063  -0.00192
 128       13PX         0.00000   0.00000   0.00000   0.00000   0.00000
 129       13PY        -0.00039  -0.00013   0.00024  -0.00022  -0.00020
 130       13PZ         0.00031   0.00003  -0.00031   0.00008   0.00064
 131       14D 0        0.00209   0.00315   0.00105  -0.00200   0.00800
 132       14D+1        0.00000   0.00000   0.00000   0.00000   0.00000
 133       14D-1        0.02012   0.02965   0.00522  -0.00498  -0.00407
 134       14D+2        0.01217   0.01816   0.00365  -0.00432   0.00461
 135       14D-2        0.00000   0.00000   0.00000   0.00000   0.00000
 136       15D 0        0.00024   0.00025   0.00006  -0.00015   0.00049
 137       15D+1        0.00000   0.00000   0.00000   0.00000   0.00000
 138       15D-1        0.00209   0.00293   0.00027  -0.00029  -0.00025
 139       15D+2        0.00139   0.00185   0.00020  -0.00025   0.00028
 140       15D-2        0.00000   0.00000   0.00000   0.00000   0.00000
 141       16D 0        0.00001   0.00021   0.00003  -0.00002   0.00028
 142       16D+1        0.00000   0.00000   0.00000   0.00000   0.00000
 143       16D-1       -0.00101  -0.00077   0.00013   0.00026  -0.00025
 144       16D+2       -0.00076  -0.00048   0.00005   0.00007   0.00011
 145       16D-2        0.00000   0.00000   0.00000   0.00000   0.00000
 146       17D 0       -0.00004  -0.00004  -0.00006  -0.00003  -0.00004
 147       17D+1        0.00000   0.00000   0.00000   0.00000   0.00000
 148       17D-1       -0.00048  -0.00041   0.00004   0.00004  -0.00044
 149       17D+2       -0.00053   0.00005   0.00021   0.00008  -0.00031
 150       17D-2        0.00000   0.00000   0.00000   0.00000   0.00000
 151       18F 0        0.00020   0.00032   0.00008  -0.00006  -0.00004
 152       18F+1        0.00000   0.00000   0.00000   0.00000   0.00000
 153       18F-1        0.00008   0.00013   0.00002  -0.00003   0.00034
 154       18F+2        0.00032   0.00046   0.00009  -0.00009   0.00002
 155       18F-2        0.00000   0.00000   0.00000   0.00000   0.00000
 156       18F+3        0.00000   0.00000   0.00000   0.00000   0.00000
 157       18F-3       -0.00017  -0.00025  -0.00003   0.00004   0.00014
 158       19F 0       -0.00026  -0.00033  -0.00006   0.00014   0.00006
 159       19F+1        0.00000   0.00000   0.00000   0.00000   0.00000
 160       19F-1       -0.00019  -0.00032  -0.00001   0.00010  -0.00032
 161       19F+2       -0.00057  -0.00054  -0.00003   0.00019  -0.00002
 162       19F-2        0.00000   0.00000   0.00000   0.00000   0.00000
 163       19F+3        0.00000   0.00000   0.00000   0.00000   0.00000
 164       19F-3        0.00033   0.00022  -0.00004  -0.00005  -0.00017
 165 4   O  1S         -0.06785  -0.00984   0.00186   0.06818  -0.00272
 166        2S          0.00097   0.00015  -0.00004  -0.00153   0.00005
 167        3S         -0.00284  -0.00041   0.00008   0.00282  -0.00011
 168        4S          0.00119   0.00017  -0.00002  -0.00065   0.00001
 169        5S          0.00067   0.00009   0.00004   0.00103   0.00002
 170        6PX         0.00000   0.00000   0.00000   0.00000   0.00000
 171        6PY        -0.00008   0.00063   0.00030  -0.00002   0.00016
 172        6PZ         0.00055   0.00008  -0.00001  -0.00048   0.00001
 173        7PX         0.00000   0.00000   0.00000   0.00000   0.00000
 174        7PY        -0.00010   0.00074   0.00032  -0.00002   0.00032
 175        7PZ         0.00065   0.00009  -0.00001  -0.00045   0.00001
 176        8PX         0.00000   0.00000   0.00000   0.00000   0.00000
 177        8PY         0.00005  -0.00024  -0.00010  -0.00001   0.00111
 178        8PZ         0.00037   0.00005  -0.00002  -0.00085   0.00002
 179        9PX         0.00000   0.00000   0.00000   0.00000   0.00000
 180        9PY         0.00009  -0.00069  -0.00064   0.00003   0.00017
 181        9PZ         0.00017   0.00003  -0.00001  -0.00039  -0.00001
 182       10D 0       -0.00003   0.00000   0.00000   0.00002   0.00000
 183       10D+1        0.00000   0.00000   0.00000   0.00000   0.00000
 184       10D-1        0.00000   0.00003  -0.00002   0.00000   0.00001
 185       10D+2        0.00003   0.00000   0.00000   0.00000   0.00000
 186       10D-2        0.00000   0.00000   0.00000   0.00000   0.00000
 187       11D 0       -0.00024  -0.00003   0.00001   0.00016   0.00000
 188       11D+1        0.00000   0.00000   0.00000   0.00000   0.00000
 189       11D-1       -0.00002   0.00016   0.00010   0.00000  -0.00008
 190       11D+2       -0.00009  -0.00001   0.00000  -0.00003   0.00000
 191       11D-2        0.00000   0.00000   0.00000   0.00000   0.00000
 192       12D 0       -0.00043  -0.00006   0.00001   0.00029  -0.00001
 193       12D+1        0.00000   0.00000   0.00000   0.00000   0.00000
 194       12D-1       -0.00005   0.00031   0.00009   0.00000  -0.00034
 195       12D+2       -0.00022  -0.00003   0.00000  -0.00012   0.00000
 196       12D-2        0.00000   0.00000   0.00000   0.00000   0.00000
 197       13F 0       -0.00009  -0.00001   0.00000   0.00003   0.00000
 198       13F+1        0.00000   0.00000   0.00000   0.00000   0.00000
 199       13F-1        0.00000  -0.00001   0.00000   0.00000   0.00003
 200       13F+2        0.00000   0.00000   0.00000  -0.00001   0.00000
 201       13F-2        0.00000   0.00000   0.00000   0.00000   0.00000
 202       13F+3        0.00000   0.00000   0.00000   0.00000   0.00000
 203       13F-3        0.00000  -0.00002   0.00001   0.00000  -0.00001
 204       14F 0        0.00025   0.00003   0.00000  -0.00008   0.00000
 205       14F+1        0.00000   0.00000   0.00000   0.00000   0.00000
 206       14F-1        0.00001  -0.00006  -0.00005   0.00000  -0.00003
 207       14F+2        0.00013   0.00002   0.00000   0.00003   0.00000
 208       14F-2        0.00000   0.00000   0.00000   0.00000   0.00000
 209       14F+3        0.00000   0.00000   0.00000   0.00000   0.00000
 210       14F-3       -0.00001   0.00005  -0.00003   0.00000   0.00001
                           6         7         8         9        10
     Eigenvalues --     2.00001   2.00001   2.00001   2.00001   2.00000
   1 1   C  1S         -0.06991   0.00000   0.45034   0.00000   0.75515
   2        2S          0.00073   0.00000  -0.00535   0.00000  -0.00715
   3        3S         -0.00298   0.00000   0.01881   0.00000   0.03174
   4        4S         -0.00340   0.00000   0.00144   0.00000   0.00262
   5        5S         -0.00156   0.00000   0.00074   0.00000   0.00262
   6        6PX         0.00000   0.00000   0.00000   0.00063   0.00000
   7        6PY        -0.00001   0.00000   0.00000   0.00000   0.00000
   8        6PZ         0.00030   0.00000  -0.00086   0.00000  -0.00115
   9        7PX         0.00000   0.00000   0.00000   0.00104   0.00000
  10        7PY        -0.00001   0.00000   0.00001   0.00000   0.00001
  11        7PZ        -0.00002   0.00000  -0.00076   0.00000   0.00324
  12        8PX         0.00000   0.00000   0.00000   0.00131   0.00000
  13        8PY        -0.00005   0.00000   0.00000   0.00000  -0.00001
  14        8PZ         0.00573   0.00000  -0.00020   0.00000  -0.00147
  15        9PX         0.00000   0.00000   0.00000   0.00004   0.00000
  16        9PY        -0.00002   0.00000  -0.00001   0.00000  -0.00001
  17        9PZ         0.00016   0.00000  -0.00020   0.00000  -0.00014
  18       10D 0       -0.00016   0.00000   0.00010   0.00000   0.00067
  19       10D+1        0.00000   0.00000   0.00000  -0.00010   0.00000
  20       10D-1        0.00000   0.00000   0.00000   0.00000   0.00000
  21       10D+2       -0.00008   0.00000  -0.00015   0.00000  -0.00020
  22       10D-2        0.00000  -0.00009   0.00000   0.00000   0.00000
  23       11D 0       -0.00037   0.00000  -0.00086   0.00000   0.00097
  24       11D+1        0.00000   0.00000   0.00000  -0.00075   0.00000
  25       11D-1        0.00000   0.00000  -0.00001   0.00000  -0.00001
  26       11D+2       -0.00019   0.00000   0.00033   0.00000   0.00108
  27       11D-2        0.00000  -0.00069   0.00000   0.00000   0.00000
  28       12D 0       -0.00020   0.00000   0.00002   0.00000  -0.00116
  29       12D+1        0.00000   0.00000   0.00000  -0.00064   0.00000
  30       12D-1        0.00001   0.00000  -0.00001   0.00000  -0.00002
  31       12D+2        0.00041   0.00000  -0.00022   0.00000  -0.00102
  32       12D-2        0.00000   0.00012   0.00000  -0.00001   0.00000
  33       13F 0       -0.00011   0.00000   0.00026   0.00000   0.00036
  34       13F+1        0.00000   0.00000   0.00000  -0.00006   0.00000
  35       13F-1        0.00000   0.00000   0.00000   0.00000   0.00000
  36       13F+2        0.00003   0.00000   0.00000   0.00000  -0.00009
  37       13F-2        0.00000  -0.00001   0.00000   0.00000   0.00000
  38       13F+3        0.00000   0.00000   0.00000   0.00002   0.00000
  39       13F-3        0.00000   0.00000   0.00000   0.00000   0.00000
  40       14F 0        0.00050   0.00000  -0.00119   0.00000  -0.00065
  41       14F+1        0.00000   0.00000   0.00000   0.00008   0.00000
  42       14F-1        0.00000   0.00000  -0.00001   0.00000  -0.00002
  43       14F+2       -0.00029   0.00000  -0.00068   0.00000  -0.00062
  44       14F-2        0.00000   0.00021   0.00000   0.00000   0.00000
  45       14F+3        0.00000   0.00000   0.00000  -0.00036   0.00000
  46       14F-3        0.00000   0.00000   0.00000   0.00000   0.00000
  47 2   Br 1S          0.00622   0.00000  -0.00192   0.00000   0.00034
  48        2S         -0.02336   0.00000   0.00758   0.00000  -0.00047
  49        3S          0.05136   0.00000  -0.02026   0.00000  -0.00788
  50        4S          0.00001   0.00000   0.00052   0.00000   0.00096
  51        5S          0.00241   0.00000  -0.00081   0.00000  -0.00056
  52        6S          0.00327   0.00000  -0.00057   0.00000  -0.00087
  53        7S          0.00106   0.00000  -0.00021   0.00000  -0.00111
  54        8PX         0.00000  -0.26219   0.00000  -0.26298   0.00000
  55        8PY         0.15840   0.00000  -0.04649   0.00000  -0.08562
  56        8PZ        -0.20892   0.00000  -0.09058   0.00000  -0.04932
  57        9PX         0.00000   0.74159   0.00000   0.74260   0.00000
  58        9PY        -0.44184   0.00000   0.11081   0.00000   0.20280
  59        9PZ         0.59162   0.00000   0.24347   0.00000   0.11728
  60       10PX         0.00000   0.00130   0.00000   0.00071   0.00000
  61       10PY         0.00021   0.00000  -0.00052   0.00000  -0.00041
  62       10PZ         0.00135   0.00000   0.00005   0.00000   0.00019
  63       11PX         0.00000   0.03315   0.00000   0.03284   0.00000
  64       11PY        -0.01963   0.00000   0.00489   0.00000   0.00855
  65       11PZ         0.02627   0.00000   0.01071   0.00000   0.00487
  66       12PX         0.00000   0.00389   0.00000   0.00270   0.00000
  67       12PY        -0.00015   0.00000  -0.00020   0.00000  -0.00008
  68       12PZ         0.00320   0.00000   0.00074   0.00000  -0.00058
  69       13PX         0.00000  -0.00032   0.00000  -0.00025   0.00000
  70       13PY         0.00028   0.00000  -0.00006   0.00000  -0.00025
  71       13PZ         0.00000   0.00000  -0.00003   0.00000  -0.00019
  72       14D 0       -0.00758   0.00000  -0.00270   0.00000  -0.00124
  73       14D+1        0.00000   0.00114   0.00000   0.00123   0.00000
  74       14D-1       -0.00694   0.00000   0.00772   0.00000   0.00968
  75       14D+2       -0.00285   0.00000  -0.00641   0.00000  -0.00621
  76       14D-2        0.00000   0.00238   0.00000   0.00232   0.00000
  77       15D 0       -0.00041   0.00000  -0.00020   0.00000  -0.00011
  78       15D+1        0.00000   0.00017   0.00000   0.00019   0.00000
  79       15D-1       -0.00042   0.00000   0.00071   0.00000   0.00086
  80       15D+2       -0.00011   0.00000  -0.00062   0.00000  -0.00061
  81       15D-2        0.00000   0.00029   0.00000   0.00035   0.00000
  82       16D 0       -0.00037   0.00000  -0.00009   0.00000   0.00012
  83       16D+1        0.00000  -0.00010   0.00000  -0.00016   0.00000
  84       16D-1       -0.00011   0.00000   0.00026   0.00000   0.00074
  85       16D+2       -0.00032   0.00000   0.00000   0.00000  -0.00022
  86       16D-2        0.00000  -0.00017   0.00000  -0.00018   0.00000
  87       17D 0       -0.00023   0.00000   0.00002   0.00000  -0.00011
  88       17D+1        0.00000   0.00009   0.00000  -0.00009   0.00000
  89       17D-1        0.00018   0.00000  -0.00003   0.00000  -0.00022
  90       17D+2       -0.00032   0.00000   0.00006   0.00000   0.00001
  91       17D-2        0.00000   0.00016   0.00000  -0.00023   0.00000
  92       18F 0        0.00008   0.00000  -0.00008   0.00000  -0.00012
  93       18F+1        0.00000   0.00001   0.00000   0.00001   0.00000
  94       18F-1        0.00032   0.00000   0.00007   0.00000   0.00007
  95       18F+2        0.00000   0.00000  -0.00014   0.00000  -0.00022
  96       18F-2        0.00000   0.00022   0.00000   0.00025   0.00000
  97       18F+3        0.00000  -0.00018   0.00000  -0.00022   0.00000
  98       18F-3        0.00008   0.00000  -0.00006   0.00000  -0.00011
  99       19F 0       -0.00008   0.00000  -0.00009   0.00000  -0.00011
 100       19F+1        0.00000  -0.00001   0.00000  -0.00003   0.00000
 101       19F-1       -0.00039   0.00000   0.00000   0.00000   0.00017
 102       19F+2        0.00004   0.00000  -0.00001   0.00000  -0.00011
 103       19F-2        0.00000  -0.00017   0.00000  -0.00025   0.00000
 104       19F+3        0.00000   0.00014   0.00000   0.00024   0.00000
 105       19F-3       -0.00010   0.00000   0.00010   0.00000   0.00001
 106 3   Br 1S          0.00632   0.00000  -0.00198   0.00000   0.00033
 107        2S         -0.02374   0.00000   0.00780   0.00000  -0.00044
 108        3S          0.05219   0.00000  -0.02078   0.00000  -0.00792
 109        4S          0.00000   0.00000   0.00052   0.00000   0.00094
 110        5S          0.00245   0.00000  -0.00083   0.00000  -0.00056
 111        6S          0.00334   0.00000  -0.00060   0.00000  -0.00088
 112        7S          0.00112   0.00000  -0.00019   0.00000  -0.00108
 113        8PX         0.00000   0.26242   0.00000  -0.26274   0.00000
 114        8PY        -0.15605   0.00000   0.04690   0.00000   0.08577
 115        8PZ        -0.20128   0.00000  -0.09180   0.00000  -0.05035
 116        9PX         0.00000  -0.74225   0.00000   0.74195   0.00000
 117        9PY         0.43516   0.00000  -0.11203   0.00000  -0.20372
 118        9PZ         0.57007   0.00000   0.24681   0.00000   0.12021
 119       10PX         0.00000  -0.00131   0.00000   0.00071   0.00000
 120       10PY        -0.00024   0.00000   0.00052   0.00000   0.00041
 121       10PZ         0.00132   0.00000   0.00004   0.00000   0.00018
 122       11PX         0.00000  -0.03317   0.00000   0.03281   0.00000
 123       11PY         0.01933   0.00000  -0.00495   0.00000  -0.00860
 124       11PZ         0.02531   0.00000   0.01086   0.00000   0.00500
 125       12PX         0.00000  -0.00389   0.00000   0.00271   0.00000
 126       12PY         0.00007   0.00000   0.00019   0.00000   0.00006
 127       12PZ         0.00314   0.00000   0.00075   0.00000  -0.00056
 128       13PX         0.00000   0.00032   0.00000  -0.00025   0.00000
 129       13PY        -0.00029   0.00000   0.00006   0.00000   0.00024
 130       13PZ         0.00002   0.00000  -0.00003   0.00000  -0.00019
 131       14D 0       -0.00740   0.00000  -0.00263   0.00000  -0.00114
 132       14D+1        0.00000  -0.00110   0.00000   0.00119   0.00000
 133       14D-1        0.00678   0.00000  -0.00775   0.00000  -0.00964
 134       14D+2       -0.00276   0.00000  -0.00635   0.00000  -0.00610
 135       14D-2        0.00000   0.00226   0.00000  -0.00219   0.00000
 136       15D 0       -0.00040   0.00000  -0.00020   0.00000  -0.00010
 137       15D+1        0.00000  -0.00017   0.00000   0.00019   0.00000
 138       15D-1        0.00041   0.00000  -0.00071   0.00000  -0.00086
 139       15D+2       -0.00011   0.00000  -0.00061   0.00000  -0.00060
 140       15D-2        0.00000   0.00028   0.00000  -0.00034   0.00000
 141       16D 0       -0.00037   0.00000  -0.00008   0.00000   0.00012
 142       16D+1        0.00000   0.00010   0.00000  -0.00015   0.00000
 143       16D-1        0.00010   0.00000  -0.00026   0.00000  -0.00073
 144       16D+2       -0.00032   0.00000   0.00000   0.00000  -0.00021
 145       16D-2        0.00000  -0.00017   0.00000   0.00017   0.00000
 146       17D 0       -0.00023   0.00000   0.00002   0.00000  -0.00011
 147       17D+1        0.00000  -0.00009   0.00000  -0.00009   0.00000
 148       17D-1       -0.00020   0.00000   0.00003   0.00000   0.00022
 149       17D+2       -0.00032   0.00000   0.00005   0.00000   0.00001
 150       17D-2        0.00000   0.00016   0.00000   0.00023   0.00000
 151       18F 0        0.00008   0.00000  -0.00008   0.00000  -0.00012
 152       18F+1        0.00000  -0.00001   0.00000   0.00001   0.00000
 153       18F-1       -0.00031   0.00000  -0.00008   0.00000  -0.00008
 154       18F+2        0.00000   0.00000  -0.00014   0.00000  -0.00022
 155       18F-2        0.00000   0.00022   0.00000  -0.00025   0.00000
 156       18F+3        0.00000   0.00018   0.00000  -0.00022   0.00000
 157       18F-3       -0.00008   0.00000   0.00006   0.00000   0.00010
 158       19F 0       -0.00008   0.00000  -0.00009   0.00000  -0.00011
 159       19F+1        0.00000   0.00001   0.00000  -0.00003   0.00000
 160       19F-1        0.00037   0.00000   0.00000   0.00000  -0.00017
 161       19F+2        0.00003   0.00000   0.00000   0.00000  -0.00011
 162       19F-2        0.00000  -0.00017   0.00000   0.00025   0.00000
 163       19F+3        0.00000  -0.00014   0.00000   0.00024   0.00000
 164       19F-3        0.00010   0.00000  -0.00010   0.00000  -0.00001
 165 4   O  1S          0.16334   0.00000  -0.79376   0.00000   0.54156
 166        2S         -0.00314   0.00000   0.01529   0.00000  -0.00893
 167        3S          0.00690   0.00000  -0.03358   0.00000   0.02347
 168        4S         -0.00156   0.00000   0.00255   0.00000  -0.00140
 169        5S         -0.00192   0.00000  -0.00046   0.00000  -0.00134
 170        6PX         0.00000   0.00000   0.00000  -0.00048   0.00000
 171        6PY         0.00000   0.00000  -0.00001   0.00000  -0.00001
 172        6PZ        -0.00065   0.00000   0.00395   0.00000  -0.00042
 173        7PX         0.00000   0.00000   0.00000  -0.00056   0.00000
 174        7PY         0.00001   0.00000   0.00000   0.00000  -0.00001
 175        7PZ        -0.00011   0.00000   0.00162   0.00000   0.00260
 176        8PX         0.00000   0.00000   0.00000  -0.00036   0.00000
 177        8PY         0.00001   0.00000   0.00000   0.00000   0.00002
 178        8PZ        -0.00135   0.00000   0.00334   0.00000   0.00227
 179        9PX         0.00000   0.00000   0.00000   0.00004   0.00000
 180        9PY         0.00000   0.00000   0.00001   0.00000   0.00001
 181        9PZ         0.00065   0.00000   0.00053   0.00000   0.00042
 182       10D 0        0.00004   0.00000  -0.00021   0.00000   0.00008
 183       10D+1        0.00000   0.00000   0.00000   0.00000   0.00000
 184       10D-1        0.00000   0.00000   0.00000   0.00000   0.00000
 185       10D+2       -0.00003   0.00000   0.00005   0.00000  -0.00002
 186       10D-2        0.00000  -0.00001   0.00000   0.00000   0.00000
 187       11D 0        0.00003   0.00000   0.00015   0.00000  -0.00102
 188       11D+1        0.00000   0.00000   0.00000  -0.00009   0.00000
 189       11D-1        0.00000   0.00000   0.00000   0.00000   0.00000
 190       11D+2        0.00005   0.00000   0.00014   0.00000  -0.00006
 191       11D-2        0.00000   0.00002   0.00000   0.00000   0.00000
 192       12D 0        0.00078   0.00000  -0.00051   0.00000  -0.00057
 193       12D+1        0.00000   0.00000   0.00000  -0.00010   0.00000
 194       12D-1        0.00000   0.00000   0.00000   0.00000  -0.00001
 195       12D+2       -0.00002   0.00000   0.00029   0.00000   0.00041
 196       12D-2        0.00000  -0.00003   0.00000   0.00000   0.00000
 197       13F 0        0.00001   0.00000  -0.00010   0.00000  -0.00010
 198       13F+1        0.00000   0.00000   0.00000   0.00000   0.00000
 199       13F-1        0.00000   0.00000   0.00000   0.00000   0.00000
 200       13F+2       -0.00001   0.00000   0.00002   0.00000  -0.00001
 201       13F-2        0.00000   0.00000   0.00000   0.00000   0.00000
 202       13F+3        0.00000   0.00000   0.00000  -0.00001   0.00000
 203       13F-3        0.00000   0.00000   0.00000   0.00000   0.00000
 204       14F 0       -0.00008   0.00000   0.00001   0.00000   0.00037
 205       14F+1        0.00000   0.00000   0.00000   0.00007   0.00000
 206       14F-1        0.00000   0.00000   0.00000   0.00000   0.00000
 207       14F+2        0.00002   0.00000  -0.00009   0.00000  -0.00003
 208       14F-2        0.00000  -0.00003   0.00000   0.00000   0.00000
 209       14F+3        0.00000   0.00000   0.00000   0.00004   0.00000
 210       14F-3        0.00000   0.00000   0.00000   0.00000   0.00000
                          11        12        13        14        15
     Eigenvalues --     2.00000   2.00000   2.00000   2.00000   2.00000
   1 1   C  1S          0.00019  -0.00117   0.00017   0.01361   0.00000
   2        2S          0.00000   0.00005   0.00000  -0.00011   0.00000
   3        3S          0.00001  -0.00004   0.00001   0.00062   0.00000
   4        4S          0.00000   0.00036  -0.00004  -0.00105   0.00000
   5        5S          0.00000   0.00019  -0.00002  -0.00038   0.00000
   6        6PX         0.00000   0.00000   0.00000   0.00000   0.00001
   7        6PY        -0.00003   0.00000  -0.00001   0.00000   0.00000
   8        6PZ         0.00000   0.00001   0.00000  -0.00004   0.00000
   9        7PX         0.00000   0.00000   0.00000   0.00000   0.00000
  10        7PY         0.00006   0.00000   0.00003   0.00000   0.00000
  11        7PZ         0.00000   0.00007  -0.00001   0.00010   0.00000
  12        8PX         0.00000   0.00000   0.00000   0.00000  -0.00007
  13        8PY         0.00042   0.00005   0.00059   0.00000   0.00000
  14        8PZ         0.00000  -0.00053   0.00005   0.00038   0.00000
  15        9PX         0.00000   0.00000   0.00000   0.00000   0.00000
  16        9PY        -0.00010   0.00001   0.00011   0.00000   0.00000
  17        9PZ         0.00000  -0.00001   0.00000   0.00005   0.00000
  18       10D 0        0.00000   0.00000   0.00000   0.00001   0.00000
  19       10D+1        0.00000   0.00000   0.00000   0.00000   0.00000
  20       10D-1        0.00000   0.00000   0.00000   0.00000   0.00000
  21       10D+2        0.00000   0.00000   0.00000   0.00000   0.00000
  22       10D-2        0.00000   0.00000   0.00000   0.00000   0.00000
  23       11D 0        0.00000   0.00005   0.00000   0.00002   0.00000
  24       11D+1        0.00000   0.00000   0.00000   0.00000   0.00005
  25       11D-1       -0.00008   0.00000  -0.00002   0.00000   0.00000
  26       11D+2        0.00000   0.00001   0.00000   0.00014   0.00000
  27       11D-2        0.00000   0.00000   0.00000   0.00000   0.00001
  28       12D 0        0.00000  -0.00001   0.00000   0.00008   0.00000
  29       12D+1        0.00000   0.00000   0.00000   0.00000   0.00004
  30       12D-1       -0.00020  -0.00002  -0.00019   0.00000   0.00000
  31       12D+2        0.00000  -0.00005   0.00000   0.00017   0.00000
  32       12D-2        0.00000   0.00000   0.00000   0.00000   0.00000
  33       13F 0        0.00000   0.00001   0.00000   0.00000   0.00000
  34       13F+1        0.00000   0.00000   0.00000   0.00000   0.00001
  35       13F-1        0.00000   0.00000   0.00001   0.00000   0.00000
  36       13F+2        0.00000   0.00000   0.00000   0.00000   0.00000
  37       13F-2        0.00000   0.00000   0.00000   0.00000   0.00000
  38       13F+3        0.00000   0.00000   0.00000   0.00000  -0.00001
  39       13F-3        0.00001   0.00000   0.00001   0.00000   0.00000
  40       14F 0        0.00000  -0.00003   0.00000   0.00002   0.00000
  41       14F+1        0.00000   0.00000   0.00000   0.00000  -0.00001
  42       14F-1       -0.00002  -0.00001  -0.00008   0.00000   0.00000
  43       14F+2        0.00000   0.00005   0.00000   0.00001   0.00000
  44       14F-2        0.00000   0.00000   0.00000   0.00000   0.00000
  45       14F+3        0.00000   0.00000   0.00000   0.00000   0.00004
  46       14F-3       -0.00002  -0.00001  -0.00006   0.00000   0.00000
  47 2   Br 1S         -0.05491   0.00127  -0.00933  -0.03757   0.00000
  48        2S          0.16992  -0.00331   0.03150   0.12062   0.00000
  49        3S          0.01518  -0.00033   0.00306   0.01286   0.00000
  50        4S         -0.00012   0.00002  -0.00007  -0.00015   0.00000
  51        5S          0.00045  -0.00001   0.00008   0.00037   0.00000
  52        6S          0.00052  -0.00025   0.00049   0.00066   0.00000
  53        7S         -0.00012  -0.00011   0.00026   0.00018   0.00000
  54        8PX         0.00000   0.00000   0.00000   0.00000   0.78953
  55        8PY         0.65818  -0.41543  -0.18273   0.57211   0.00000
  56        8PZ         0.20426   0.65038   0.62158   0.38607   0.00000
  57        9PX         0.00000   0.00000   0.00000   0.00000  -0.01793
  58        9PY         0.00060   0.00825   0.00785   0.00711   0.00000
  59        9PZ         0.00510  -0.01481  -0.01145   0.00329   0.00000
  60       10PX         0.00000   0.00000   0.00000   0.00000   0.00031
  61       10PY         0.00033  -0.00023  -0.00004   0.00032   0.00000
  62       10PZ         0.00014   0.00026   0.00033   0.00021   0.00000
  63       11PX         0.00000   0.00000   0.00000   0.00000  -0.00136
  64       11PY        -0.00054   0.00067   0.00044  -0.00023   0.00000
  65       11PZ         0.00001  -0.00111  -0.00097  -0.00021   0.00000
  66       12PX         0.00000   0.00000   0.00000   0.00000  -0.00007
  67       12PY         0.00006  -0.00009   0.00029   0.00020   0.00000
  68       12PZ         0.00008  -0.00012   0.00007   0.00020   0.00000
  69       13PX         0.00000   0.00000   0.00000   0.00000   0.00003
  70       13PY        -0.00001  -0.00003   0.00002   0.00002   0.00000
  71       13PZ        -0.00002   0.00000   0.00005   0.00001   0.00000
  72       14D 0       -0.00006   0.00036   0.00029   0.00002   0.00000
  73       14D+1        0.00000   0.00000   0.00000   0.00000  -0.00005
  74       14D-1       -0.00032   0.00019   0.00010  -0.00007   0.00000
  75       14D+2        0.00016   0.00019   0.00019   0.00009   0.00000
  76       14D-2        0.00000   0.00000   0.00000   0.00000  -0.00011
  77       15D 0        0.00000   0.00000   0.00001   0.00000   0.00000
  78       15D+1        0.00000   0.00000   0.00000   0.00000  -0.00002
  79       15D-1       -0.00005   0.00000  -0.00001  -0.00004   0.00000
  80       15D+2        0.00003   0.00000   0.00001   0.00003   0.00000
  81       15D-2        0.00000   0.00000   0.00000   0.00000  -0.00003
  82       16D 0        0.00000   0.00006   0.00006  -0.00001   0.00000
  83       16D+1        0.00000   0.00000   0.00000   0.00000   0.00003
  84       16D-1        0.00008   0.00003   0.00007   0.00012   0.00000
  85       16D+2       -0.00006   0.00005   0.00000  -0.00010   0.00000
  86       16D-2        0.00000   0.00000   0.00000   0.00000   0.00004
  87       17D 0        0.00000   0.00001  -0.00003   0.00002   0.00000
  88       17D+1        0.00000   0.00000   0.00000   0.00000   0.00000
  89       17D-1        0.00002  -0.00002   0.00004   0.00006   0.00000
  90       17D+2        0.00001   0.00002  -0.00005  -0.00003   0.00000
  91       17D-2        0.00000   0.00000   0.00000   0.00000   0.00001
  92       18F 0        0.00000   0.00000   0.00000   0.00000   0.00000
  93       18F+1        0.00000   0.00000   0.00000   0.00000   0.00000
  94       18F-1        0.00000  -0.00001   0.00000   0.00000   0.00000
  95       18F+2       -0.00001   0.00000   0.00000  -0.00001   0.00000
  96       18F-2        0.00000   0.00000   0.00000   0.00000   0.00000
  97       18F+3        0.00000   0.00000   0.00000   0.00000   0.00000
  98       18F-3        0.00000   0.00000   0.00000  -0.00001   0.00000
  99       19F 0       -0.00002   0.00000   0.00000  -0.00001   0.00000
 100       19F+1        0.00000   0.00000   0.00000   0.00000   0.00000
 101       19F-1        0.00001   0.00003   0.00003   0.00001   0.00000
 102       19F+2       -0.00002   0.00000   0.00000  -0.00004   0.00000
 103       19F-2        0.00000   0.00000   0.00000   0.00000   0.00002
 104       19F+3        0.00000   0.00000   0.00000   0.00000  -0.00002
 105       19F-3       -0.00001   0.00001   0.00001  -0.00002   0.00000
 106 3   Br 1S          0.05526   0.00291   0.00898  -0.03874   0.00000
 107        2S         -0.17104  -0.00886  -0.03052   0.12425   0.00000
 108        3S         -0.01511  -0.00088  -0.00291   0.01305   0.00000
 109        4S          0.00012   0.00003   0.00006  -0.00015   0.00000
 110        5S         -0.00045  -0.00002  -0.00008   0.00038   0.00000
 111        6S         -0.00051  -0.00033  -0.00044   0.00066   0.00000
 112        7S          0.00013  -0.00015  -0.00024   0.00018   0.00000
 113        8PX         0.00000   0.00000   0.00000   0.00000   0.62727
 114        8PY         0.65110   0.37929  -0.26137  -0.57441   0.00000
 115        8PZ        -0.20482   0.52601  -0.72485   0.39423   0.00000
 116        9PX         0.00000   0.00000   0.00000   0.00000  -0.01416
 117        9PY         0.00041  -0.00677   0.00922  -0.00713   0.00000
 118        9PZ        -0.00500  -0.01247   0.01389   0.00332   0.00000
 119       10PX         0.00000   0.00000   0.00000   0.00000   0.00025
 120       10PY         0.00033   0.00022  -0.00009  -0.00033   0.00000
 121       10PZ        -0.00014   0.00020  -0.00037   0.00021   0.00000
 122       11PX         0.00000   0.00000   0.00000   0.00000  -0.00107
 123       11PY        -0.00054  -0.00058   0.00056   0.00023   0.00000
 124       11PZ         0.00000  -0.00091   0.00115  -0.00022   0.00000
 125       12PX         0.00000   0.00000   0.00000   0.00000  -0.00004
 126       12PY         0.00006   0.00014   0.00026  -0.00020   0.00000
 127       12PZ        -0.00008  -0.00014  -0.00005   0.00020   0.00000
 128       13PX         0.00000   0.00000   0.00000   0.00000   0.00002
 129       13PY        -0.00001   0.00003   0.00001  -0.00002   0.00000
 130       13PZ         0.00002  -0.00001  -0.00005   0.00001   0.00000
 131       14D 0        0.00006   0.00030  -0.00035   0.00002   0.00000
 132       14D+1        0.00000   0.00000   0.00000   0.00000  -0.00004
 133       14D-1       -0.00032  -0.00016   0.00012   0.00007   0.00000
 134       14D+2       -0.00016   0.00015  -0.00022   0.00009   0.00000
 135       14D-2        0.00000   0.00000   0.00000   0.00000   0.00009
 136       15D 0        0.00000   0.00000  -0.00001   0.00000   0.00000
 137       15D+1        0.00000   0.00000   0.00000   0.00000  -0.00001
 138       15D-1       -0.00005   0.00000  -0.00001   0.00004   0.00000
 139       15D+2       -0.00003   0.00000  -0.00001   0.00003   0.00000
 140       15D-2        0.00000   0.00000   0.00000   0.00000   0.00002
 141       16D 0       -0.00001   0.00005  -0.00007   0.00000   0.00000
 142       16D+1        0.00000   0.00000   0.00000   0.00000   0.00002
 143       16D-1        0.00008  -0.00001   0.00007  -0.00012   0.00000
 144       16D+2        0.00005   0.00005  -0.00001  -0.00010   0.00000
 145       16D-2        0.00000   0.00000   0.00000   0.00000  -0.00003
 146       17D 0        0.00000   0.00001   0.00002   0.00002   0.00000
 147       17D+1        0.00000   0.00000   0.00000   0.00000   0.00001
 148       17D-1        0.00002   0.00003   0.00004  -0.00006   0.00000
 149       17D+2       -0.00001   0.00003   0.00004  -0.00003   0.00000
 150       17D-2        0.00000   0.00000   0.00000   0.00000  -0.00002
 151       18F 0        0.00000   0.00000   0.00000   0.00000   0.00000
 152       18F+1        0.00000   0.00000   0.00000   0.00000   0.00000
 153       18F-1        0.00000   0.00001   0.00000   0.00000   0.00000
 154       18F+2        0.00001   0.00000   0.00000  -0.00001   0.00000
 155       18F-2        0.00000   0.00000   0.00000   0.00000   0.00000
 156       18F+3        0.00000   0.00000   0.00000   0.00000   0.00000
 157       18F-3        0.00000   0.00000   0.00000   0.00001   0.00000
 158       19F 0        0.00002   0.00000  -0.00001  -0.00001   0.00000
 159       19F+1        0.00000   0.00000   0.00000   0.00000   0.00000
 160       19F-1        0.00001  -0.00003   0.00004  -0.00001   0.00000
 161       19F+2        0.00002   0.00000   0.00000  -0.00004   0.00000
 162       19F-2        0.00000   0.00000   0.00000   0.00000  -0.00002
 163       19F+3        0.00000   0.00000   0.00000   0.00000  -0.00002
 164       19F-3       -0.00001  -0.00001   0.00001   0.00002   0.00000
 165 4   O  1S          0.00005  -0.00043   0.00005   0.00407   0.00000
 166        2S          0.00000   0.00000   0.00000  -0.00010   0.00000
 167        3S          0.00000  -0.00002   0.00000   0.00018   0.00000
 168        4S          0.00000   0.00006  -0.00001   0.00004   0.00000
 169        5S          0.00000   0.00018  -0.00002  -0.00005   0.00000
 170        6PX         0.00000   0.00000   0.00000   0.00000   0.00000
 171        6PY         0.00000   0.00000   0.00000   0.00000   0.00000
 172        6PZ         0.00000   0.00000   0.00000   0.00002   0.00000
 173        7PX         0.00000   0.00000   0.00000   0.00000  -0.00001
 174        7PY         0.00001   0.00000   0.00001   0.00000   0.00000
 175        7PZ         0.00000   0.00001   0.00000   0.00006   0.00000
 176        8PX         0.00000   0.00000   0.00000   0.00000  -0.00002
 177        8PY         0.00003   0.00000   0.00000   0.00000   0.00000
 178        8PZ         0.00000   0.00011  -0.00001  -0.00005   0.00000
 179        9PX         0.00000   0.00000   0.00000   0.00000  -0.00001
 180        9PY         0.00008   0.00000   0.00002   0.00000   0.00000
 181        9PZ         0.00000  -0.00006   0.00001   0.00002   0.00000
 182       10D 0        0.00000   0.00000   0.00000   0.00000   0.00000
 183       10D+1        0.00000   0.00000   0.00000   0.00000   0.00000
 184       10D-1        0.00000   0.00000   0.00000   0.00000   0.00000
 185       10D+2        0.00000   0.00000   0.00000   0.00000   0.00000
 186       10D-2        0.00000   0.00000   0.00000   0.00000   0.00000
 187       11D 0        0.00000  -0.00001   0.00000  -0.00002   0.00000
 188       11D+1        0.00000   0.00000   0.00000   0.00000   0.00001
 189       11D-1        0.00000   0.00000   0.00001   0.00000   0.00000
 190       11D+2        0.00000  -0.00001   0.00000  -0.00001   0.00000
 191       11D-2        0.00000   0.00000   0.00000   0.00000   0.00000
 192       12D 0        0.00000  -0.00007   0.00001   0.00000   0.00000
 193       12D+1        0.00000   0.00000   0.00000   0.00000   0.00001
 194       12D-1        0.00000   0.00000   0.00002   0.00000   0.00000
 195       12D+2        0.00000  -0.00001   0.00000  -0.00004   0.00000
 196       12D-2        0.00000   0.00000   0.00000   0.00000   0.00000
 197       13F 0        0.00000   0.00000   0.00000   0.00000   0.00000
 198       13F+1        0.00000   0.00000   0.00000   0.00000   0.00000
 199       13F-1        0.00000   0.00000   0.00000   0.00000   0.00000
 200       13F+2        0.00000   0.00000   0.00000   0.00000   0.00000
 201       13F-2        0.00000   0.00000   0.00000   0.00000   0.00000
 202       13F+3        0.00000   0.00000   0.00000   0.00000   0.00000
 203       13F-3        0.00000   0.00000   0.00000   0.00000   0.00000
 204       14F 0        0.00000   0.00001   0.00000   0.00002   0.00000
 205       14F+1        0.00000   0.00000   0.00000   0.00000  -0.00001
 206       14F-1        0.00000   0.00000  -0.00001   0.00000   0.00000
 207       14F+2        0.00000   0.00001   0.00000   0.00002   0.00000
 208       14F-2        0.00000   0.00000   0.00000   0.00000   0.00000
 209       14F+3        0.00000   0.00000   0.00000   0.00000  -0.00001
 210       14F-3        0.00000   0.00000   0.00000   0.00000   0.00000
                          16        17        18        19        20
     Eigenvalues --     2.00000   2.00000   2.00000   2.00000   2.00000
   1 1   C  1S          0.00000  -0.00014   0.00152  -0.00002   0.00005
   2        2S          0.00000   0.00000  -0.00001   0.00000   0.00000
   3        3S          0.00000  -0.00001   0.00006   0.00000   0.00000
   4        4S          0.00000  -0.00001   0.00006   0.00000   0.00001
   5        5S          0.00000  -0.00001   0.00007   0.00000   0.00000
   6        6PX         0.00000   0.00000   0.00000   0.00000   0.00000
   7        6PY         0.00000   0.00000   0.00000   0.00000   0.00000
   8        6PZ         0.00000   0.00000   0.00000   0.00000   0.00000
   9        7PX         0.00000   0.00000   0.00000   0.00000   0.00000
  10        7PY         0.00000  -0.00002   0.00000   0.00000   0.00000
  11        7PZ         0.00000   0.00000  -0.00001   0.00000   0.00000
  12        8PX         0.00001   0.00000   0.00000   0.00000   0.00000
  13        8PY         0.00000   0.00001   0.00000  -0.00001  -0.00001
  14        8PZ         0.00000   0.00000  -0.00001   0.00000   0.00000
  15        9PX         0.00000   0.00000   0.00000   0.00000   0.00000
  16        9PY         0.00000   0.00002   0.00000   0.00000   0.00000
  17        9PZ         0.00000   0.00000   0.00000   0.00000   0.00000
  18       10D 0        0.00000   0.00000   0.00000   0.00000   0.00000
  19       10D+1        0.00000   0.00000   0.00000   0.00000   0.00000
  20       10D-1        0.00000   0.00000   0.00000   0.00000   0.00000
  21       10D+2        0.00000   0.00000   0.00000   0.00000   0.00000
  22       10D-2       -0.00001   0.00000   0.00000   0.00000   0.00000
  23       11D 0        0.00000   0.00000   0.00000   0.00000   0.00000
  24       11D+1       -0.00001   0.00000   0.00000   0.00000   0.00000
  25       11D-1        0.00000   0.00002   0.00000   0.00000   0.00000
  26       11D+2        0.00000   0.00000  -0.00001   0.00000   0.00000
  27       11D-2        0.00004   0.00000   0.00000   0.00000   0.00000
  28       12D 0        0.00000   0.00000   0.00002   0.00000   0.00000
  29       12D+1        0.00000   0.00000   0.00000   0.00000   0.00000
  30       12D-1        0.00000   0.00004   0.00000   0.00000   0.00000
  31       12D+2        0.00000   0.00000  -0.00001   0.00000   0.00000
  32       12D-2       -0.00004   0.00000   0.00000   0.00000   0.00000
  33       13F 0        0.00000   0.00000   0.00000   0.00000   0.00000
  34       13F+1        0.00000   0.00000   0.00000   0.00000   0.00000
  35       13F-1        0.00000   0.00000   0.00000   0.00000   0.00000
  36       13F+2        0.00000   0.00000   0.00000   0.00000   0.00000
  37       13F-2        0.00000   0.00000   0.00000   0.00000   0.00000
  38       13F+3        0.00000   0.00000   0.00000   0.00000   0.00000
  39       13F-3        0.00000   0.00000   0.00000   0.00000   0.00000
  40       14F 0        0.00000   0.00000  -0.00001   0.00000   0.00000
  41       14F+1        0.00000   0.00000   0.00000   0.00000   0.00000
  42       14F-1        0.00000   0.00002   0.00000   0.00000   0.00000
  43       14F+2        0.00000   0.00000   0.00000   0.00000   0.00000
  44       14F-2       -0.00003   0.00000   0.00000   0.00000   0.00000
  45       14F+3        0.00000   0.00000   0.00000   0.00000   0.00000
  46       14F-3        0.00000   0.00001   0.00000   0.00000   0.00000
  47 2   Br 1S          0.00000  -0.19748  -0.23962   0.38326   0.92204
  48        2S          0.00000   0.63930   0.77826   0.00262   0.00410
  49        3S          0.00000   0.02724   0.03368   0.00033   0.00066
  50        4S          0.00000  -0.00018  -0.00021   0.00001   0.00002
  51        5S          0.00000   0.00064   0.00080   0.00000   0.00000
  52        6S          0.00000   0.00004   0.00003  -0.00001  -0.00002
  53        7S          0.00000   0.00005  -0.00002   0.00000   0.00000
  54        8PX         0.62744   0.00000   0.00000   0.00000   0.00000
  55        8PY         0.00000  -0.14181  -0.11834   0.00196   0.00128
  56        8PZ         0.00000  -0.07455  -0.07037   0.00022   0.00012
  57        9PX        -0.01466   0.00000   0.00000   0.00000   0.00000
  58        9PY         0.00000   0.00225   0.00330  -0.00004  -0.00018
  59        9PZ         0.00000   0.00106   0.00187  -0.00002  -0.00007
  60       10PX         0.00026   0.00000   0.00000   0.00000   0.00000
  61       10PY         0.00000  -0.00007  -0.00007   0.00000   0.00000
  62       10PZ         0.00000  -0.00004  -0.00004   0.00000   0.00000
  63       11PX        -0.00110   0.00000   0.00000   0.00000   0.00000
  64       11PY         0.00000   0.00022   0.00025   0.00000  -0.00001
  65       11PZ         0.00000   0.00011   0.00014   0.00000   0.00000
  66       12PX        -0.00012   0.00000   0.00000   0.00000   0.00000
  67       12PY         0.00000   0.00006   0.00001  -0.00001  -0.00001
  68       12PZ         0.00000   0.00002   0.00002   0.00000  -0.00001
  69       13PX         0.00003   0.00000   0.00000   0.00000   0.00000
  70       13PY         0.00000   0.00000   0.00000   0.00000   0.00000
  71       13PZ         0.00000   0.00000   0.00000   0.00000   0.00000
  72       14D 0        0.00000  -0.00003  -0.00004   0.00000   0.00000
  73       14D+1       -0.00004   0.00000   0.00000   0.00000   0.00000
  74       14D-1        0.00000   0.00001   0.00001   0.00000   0.00000
  75       14D+2        0.00000   0.00006   0.00007   0.00000   0.00000
  76       14D-2       -0.00010   0.00000   0.00000   0.00000   0.00000
  77       15D 0        0.00000   0.00000   0.00000   0.00000   0.00000
  78       15D+1       -0.00001   0.00000   0.00000   0.00000   0.00000
  79       15D-1        0.00000   0.00000   0.00000   0.00000   0.00000
  80       15D+2        0.00000   0.00000   0.00000   0.00000   0.00000
  81       15D-2       -0.00002   0.00000   0.00000   0.00000   0.00000
  82       16D 0        0.00000  -0.00001   0.00000   0.00000   0.00000
  83       16D+1        0.00002   0.00000   0.00000   0.00000   0.00000
  84       16D-1        0.00000  -0.00001  -0.00001   0.00000   0.00000
  85       16D+2        0.00000   0.00000   0.00001   0.00000   0.00000
  86       16D-2        0.00003   0.00000   0.00000   0.00000   0.00000
  87       17D 0        0.00000   0.00000   0.00000   0.00000   0.00000
  88       17D+1       -0.00002   0.00000   0.00000   0.00000   0.00000
  89       17D-1        0.00000   0.00001   0.00001   0.00000   0.00000
  90       17D+2        0.00000  -0.00002   0.00000   0.00000   0.00000
  91       17D-2       -0.00003   0.00000   0.00000   0.00000   0.00000
  92       18F 0        0.00000   0.00000   0.00000   0.00000   0.00000
  93       18F+1        0.00000   0.00000   0.00000   0.00000   0.00000
  94       18F-1        0.00000   0.00000   0.00000   0.00000   0.00000
  95       18F+2        0.00000   0.00000   0.00000   0.00000   0.00000
  96       18F-2        0.00000   0.00000   0.00000   0.00000   0.00000
  97       18F+3        0.00000   0.00000   0.00000   0.00000   0.00000
  98       18F-3        0.00000   0.00000   0.00000   0.00000   0.00000
  99       19F 0        0.00000   0.00000   0.00000   0.00000   0.00000
 100       19F+1        0.00000   0.00000   0.00000   0.00000   0.00000
 101       19F-1        0.00000   0.00000   0.00000   0.00000   0.00000
 102       19F+2        0.00000   0.00000   0.00000   0.00000   0.00000
 103       19F-2        0.00001   0.00000   0.00000   0.00000   0.00000
 104       19F+3       -0.00001   0.00000   0.00000   0.00000   0.00000
 105       19F-3        0.00000   0.00000   0.00000   0.00000   0.00000
 106 3   Br 1S          0.00000   0.23711  -0.20014  -0.92184   0.38375
 107        2S          0.00000  -0.76817   0.65042  -0.00474   0.00103
 108        3S          0.00000  -0.03280   0.02819  -0.00070   0.00023
 109        4S          0.00000   0.00022  -0.00017  -0.00002   0.00001
 110        5S          0.00000  -0.00077   0.00067   0.00000   0.00000
 111        6S          0.00000  -0.00005   0.00002   0.00002   0.00000
 112        7S          0.00000  -0.00004  -0.00003   0.00000   0.00000
 113        8PX        -0.78968   0.00000   0.00000   0.00000   0.00000
 114        8PY         0.00000  -0.16182   0.09234   0.00232   0.00047
 115        8PZ         0.00000   0.08824  -0.05755  -0.00026  -0.00007
 116        9PX         0.01834   0.00000   0.00000   0.00000   0.00000
 117        9PY         0.00000   0.00279  -0.00283  -0.00015   0.00010
 118        9PZ         0.00000  -0.00140   0.00167   0.00006  -0.00003
 119       10PX        -0.00032   0.00000   0.00000   0.00000   0.00000
 120       10PY         0.00000  -0.00008   0.00005   0.00000   0.00000
 121       10PZ         0.00000   0.00005  -0.00003   0.00000   0.00000
 122       11PX         0.00137   0.00000   0.00000   0.00000   0.00000
 123       11PY         0.00000   0.00026  -0.00020  -0.00001   0.00000
 124       11PZ         0.00000  -0.00014   0.00012   0.00000   0.00000
 125       12PX         0.00014   0.00000   0.00000   0.00000   0.00000
 126       12PY         0.00000   0.00006   0.00000  -0.00001   0.00000
 127       12PZ         0.00000  -0.00003   0.00002   0.00000   0.00000
 128       13PX        -0.00004   0.00000   0.00000   0.00000   0.00000
 129       13PY         0.00000   0.00000   0.00001   0.00000   0.00000
 130       13PZ         0.00000   0.00000   0.00000   0.00000   0.00000
 131       14D 0        0.00000   0.00004  -0.00003   0.00000   0.00000
 132       14D+1        0.00005   0.00000   0.00000   0.00000   0.00000
 133       14D-1        0.00000   0.00001   0.00000   0.00000   0.00000
 134       14D+2        0.00000  -0.00007   0.00006   0.00000   0.00000
 135       14D-2       -0.00012   0.00000   0.00000   0.00000   0.00000
 136       15D 0        0.00000   0.00000   0.00000   0.00000   0.00000
 137       15D+1        0.00002   0.00000   0.00000   0.00000   0.00000
 138       15D-1        0.00000   0.00000   0.00000   0.00000   0.00000
 139       15D+2        0.00000   0.00000   0.00000   0.00000   0.00000
 140       15D-2       -0.00003   0.00000   0.00000   0.00000   0.00000
 141       16D 0        0.00000   0.00001   0.00000   0.00000   0.00000
 142       16D+1       -0.00002   0.00000   0.00000   0.00000   0.00000
 143       16D-1        0.00000  -0.00001   0.00001   0.00000   0.00000
 144       16D+2        0.00000  -0.00001   0.00001   0.00000   0.00000
 145       16D-2        0.00004   0.00000   0.00000   0.00000   0.00000
 146       17D 0        0.00000   0.00000   0.00000   0.00000   0.00000
 147       17D+1        0.00002   0.00000   0.00000   0.00000   0.00000
 148       17D-1        0.00000   0.00001  -0.00001   0.00000   0.00000
 149       17D+2        0.00000   0.00002   0.00000   0.00000   0.00000
 150       17D-2       -0.00002   0.00000   0.00000   0.00000   0.00000
 151       18F 0        0.00000   0.00000   0.00000   0.00000   0.00000
 152       18F+1        0.00000   0.00000   0.00000   0.00000   0.00000
 153       18F-1        0.00000   0.00000   0.00000   0.00000   0.00000
 154       18F+2        0.00000   0.00000   0.00000   0.00000   0.00000
 155       18F-2        0.00000   0.00000   0.00000   0.00000   0.00000
 156       18F+3        0.00000   0.00000   0.00000   0.00000   0.00000
 157       18F-3        0.00000   0.00000   0.00000   0.00000   0.00000
 158       19F 0        0.00000   0.00000   0.00000   0.00000   0.00000
 159       19F+1        0.00000   0.00000   0.00000   0.00000   0.00000
 160       19F-1        0.00000   0.00000   0.00000   0.00000   0.00000
 161       19F+2        0.00000   0.00000   0.00000   0.00000   0.00000
 162       19F-2        0.00001   0.00000   0.00000   0.00000   0.00000
 163       19F+3        0.00001   0.00000   0.00000   0.00000   0.00000
 164       19F-3        0.00000   0.00000   0.00000   0.00000   0.00000
 165 4   O  1S          0.00000  -0.00005   0.00061   0.00000   0.00000
 166        2S          0.00000   0.00000   0.00000   0.00000   0.00000
 167        3S          0.00000   0.00000   0.00003   0.00000   0.00000
 168        4S          0.00000   0.00000  -0.00002   0.00000   0.00000
 169        5S          0.00000   0.00000  -0.00005   0.00000   0.00001
 170        6PX         0.00000   0.00000   0.00000   0.00000   0.00000
 171        6PY         0.00000   0.00000   0.00000   0.00000   0.00000
 172        6PZ         0.00000   0.00000   0.00000   0.00000   0.00000
 173        7PX         0.00000   0.00000   0.00000   0.00000   0.00000
 174        7PY         0.00000   0.00000   0.00000   0.00000   0.00000
 175        7PZ         0.00000   0.00000   0.00001   0.00000   0.00000
 176        8PX         0.00000   0.00000   0.00000   0.00000   0.00000
 177        8PY         0.00000  -0.00003   0.00000   0.00000   0.00000
 178        8PZ         0.00000   0.00000   0.00001   0.00000   0.00000
 179        9PX         0.00000   0.00000   0.00000   0.00000   0.00000
 180        9PY         0.00000  -0.00001   0.00000   0.00000   0.00000
 181        9PZ         0.00000   0.00000   0.00001   0.00000   0.00000
 182       10D 0        0.00000   0.00000   0.00000   0.00000   0.00000
 183       10D+1        0.00000   0.00000   0.00000   0.00000   0.00000
 184       10D-1        0.00000   0.00000   0.00000   0.00000   0.00000
 185       10D+2        0.00000   0.00000   0.00000   0.00000   0.00000
 186       10D-2        0.00000   0.00000   0.00000   0.00000   0.00000
 187       11D 0        0.00000   0.00000   0.00000   0.00000   0.00000
 188       11D+1        0.00000   0.00000   0.00000   0.00000   0.00000
 189       11D-1        0.00000   0.00000   0.00000   0.00000   0.00000
 190       11D+2        0.00000   0.00000   0.00000   0.00000   0.00000
 191       11D-2        0.00000   0.00000   0.00000   0.00000   0.00000
 192       12D 0        0.00000   0.00000   0.00001   0.00000   0.00000
 193       12D+1        0.00000   0.00000   0.00000   0.00000   0.00000
 194       12D-1        0.00000   0.00001   0.00000   0.00000   0.00000
 195       12D+2        0.00000   0.00000   0.00001   0.00000   0.00000
 196       12D-2        0.00002   0.00000   0.00000   0.00000   0.00000
[...]
 190       11D+2        0.00100   0.00000  -0.01243  -0.09605  -0.03672
 191       11D-2        0.00000   0.00044   0.00000   0.00000   0.00000
 192       12D 0        4.67762   0.00000  -0.16695  -1.27233   0.77838
 193       12D+1        0.00000   2.06290   0.00000   0.00000   0.00000
 194       12D-1        0.01683   0.00000  -0.24121   0.03218   0.00468
 195       12D+2       -0.59263   0.00000   0.07279   0.55675   0.05136
 196       12D-2        0.00000   0.00076   0.00000   0.00000   0.00000
 197       13F 0        0.02400   0.00000   0.00183   0.01605  -0.04656
 198       13F+1        0.00000   0.01872   0.00000   0.00000   0.00000
 199       13F-1        0.00055   0.00000   0.04747  -0.00608   0.00006
 200       13F+2       -0.05529   0.00000   0.00325   0.02458  -0.01328
 201       13F-2        0.00000  -0.00004   0.00000   0.00000   0.00000
 202       13F+3        0.00000   0.00472   0.00000   0.00000   0.00000
 203       13F-3        0.00014   0.00000  -0.02842   0.00340  -0.00024
 204       14F 0       -1.28786   0.00000   0.02306   0.16735   0.01111
 205       14F+1        0.00000  -0.15086   0.00000   0.00000   0.00000
 206       14F-1       -0.00346   0.00000  -0.12467   0.01562  -0.00091
 207       14F+2        0.19818   0.00000  -0.01309  -0.10029   0.04575
 208       14F-2        0.00000  -0.00014   0.00000   0.00000   0.00000
 209       14F+3        0.00000   0.00233   0.00000   0.00000   0.00000
 210       14F-3       -0.00034   0.00000   0.05913  -0.00716   0.00055
                         206       207       208       209       210
     Eigenvalues --     0.00000   0.00000   0.00000   0.00000   0.00000
   1 1   C  1S          0.00000   0.00303  -0.00237   0.21790   0.00115
   2        2S          0.00000   0.01590  -0.01363   1.24960   0.04463
   3        3S          0.00000  -0.00042  -0.00008   0.00642   0.11097
   4        4S          0.00000  -0.08267  -0.03776   9.36865   3.55180
   5        5S          0.00000  -0.26984  -0.09205   3.67332  31.46840
   6        6PX         0.00399   0.00000   0.00000   0.00000   0.00000
   7        6PY         0.00000  -0.00115  -0.00549  -0.00001  -0.00014
   8        6PZ         0.00000   0.00005   0.00014   0.01355   0.01065
   9        7PX        -0.32144   0.00000   0.00000   0.00000   0.00000
  10        7PY         0.00000  -0.24498   0.12843   0.00054   0.00039
  11        7PZ         0.00000  -0.00439  -0.01607   1.35042   0.07139
  12        8PX        -0.32815   0.00000   0.00000   0.00000   0.00000
  13        8PY         0.00000  -5.60428  -6.86682  -0.03307  -0.02053
  14        8PZ         0.00000   0.05762  -0.05622   5.41686  -0.01264
  15        9PX         6.35521   0.00000   0.00000   0.00000   0.00000
  16        9PY         0.00000  -0.44068 -14.01776  -0.11272  -0.05184
  17        9PZ         0.00000   0.03654  -0.00618   5.91416  -3.82841
  18       10D 0        0.00000  -0.00038  -0.00097   0.08488   0.02106
  19       10D+1       -0.00658   0.00000   0.00000   0.00000   0.00000
  20       10D-1        0.00000   0.00804  -0.02159  -0.00026  -0.00007
  21       10D+2        0.00000  -0.00056   0.00038  -0.00497  -0.04836
  22       10D-2        0.00013   0.00000   0.00000   0.00000   0.00000
  23       11D 0        0.00000  -0.00121  -0.00840   0.59536  -0.21101
  24       11D+1       -0.44653   0.00000   0.00000   0.00000   0.00000
  25       11D-1        0.00000  -0.13699   0.70138   0.00786  -0.00047
  26       11D+2        0.00000   0.00540  -0.00318   0.01547   0.18963
  27       11D-2        0.00017   0.00000   0.00000   0.00000   0.00000
  28       12D 0        0.00000   0.01203  -0.01904   3.54516   0.24066
  29       12D+1        0.90610   0.00000   0.00000   0.00000   0.00000
  30       12D-1        0.00000  -0.19392   0.40567   0.01642  -0.00618
  31       12D+2        0.00000   0.05032  -0.00329   1.41007  -1.01990
  32       12D-2        0.00492   0.00000   0.00000   0.00000   0.00000
  33       13F 0        0.00000   0.00029  -0.00093   0.05113  -0.04515
  34       13F+1       -0.12085   0.00000   0.00000   0.00000   0.00000
  35       13F-1        0.00000  -0.01491   0.06210   0.00030  -0.00029
  36       13F+2        0.00000  -0.00021  -0.00027  -0.00260   0.00528
  37       13F-2       -0.00001   0.00000   0.00000   0.00000   0.00000
  38       13F+3        0.05268   0.00000   0.00000   0.00000   0.00000
  39       13F-3        0.00000   0.04583   0.00106   0.00020   0.00017
  40       14F 0        0.00000  -0.00387   0.00083  -0.01280  -0.09348
  41       14F+1       -0.04919   0.00000   0.00000   0.00000   0.00000
  42       14F-1        0.00000  -0.01235   0.02386   0.00287  -0.00031
  43       14F+2        0.00000  -0.00399   0.00158   0.13101  -0.17185
  44       14F-2        0.00080   0.00000   0.00000   0.00000   0.00000
  45       14F+3       -0.03231   0.00000   0.00000   0.00000   0.00000
  46       14F-3        0.00000  -0.06697   0.10972   0.00062  -0.00023
  47 2   Br 1S          0.00000   0.00213   0.00005  -0.00001   0.00011
  48        2S          0.00000   0.01631   0.00347  -0.00109   0.00082
  49        3S          0.00000   0.07599   0.00868  -0.00263   0.00387
  50        4S          0.00000   0.22371   0.05661  -0.01316   0.01238
  51        5S          0.00000   0.08886   0.15599  -0.00072  -0.00176
  52        6S          0.00000  -0.69901  -1.96642   0.83988   0.04308
  53        7S          0.00000  -9.95293 -14.90791   1.94991 -13.60132
  54        8PX         0.00162   0.00000   0.00000   0.00000   0.00000
  55        8PY         0.00000   0.00101  -0.00061   0.00065  -0.00038
  56        8PZ         0.00000   0.00059   0.00001   0.00045   0.00007
  57        9PX        -0.02011   0.00000   0.00000   0.00000   0.00000
  58        9PY         0.00000   0.01661  -0.00383  -0.00875   0.02585
  59        9PZ         0.00000   0.00147  -0.01329  -0.01004   0.01462
  60       10PX        -0.15421   0.00000   0.00000   0.00000   0.00000
  61       10PY         0.00000   0.24798  -0.07662  -0.06944   0.28441
  62       10PZ         0.00000   0.05045  -0.15455  -0.09486   0.17525
  63       11PX         0.04501   0.00000   0.00000   0.00000   0.00000
  64       11PY         0.00000   0.00185   0.00428   0.01914  -0.03519
  65       11PZ         0.00000   0.01556   0.02326   0.01519  -0.01530
  66       12PX         0.66271   0.00000   0.00000   0.00000   0.00000
  67       12PY         0.00000  -3.68689  -3.73705  -0.39865  -1.69538
  68       12PZ         0.00000  -2.32057  -2.53926   1.57925  -1.31332
  69       13PX        -2.45764   0.00000   0.00000   0.00000   0.00000
  70       13PY         0.00000  -3.82584  -0.37675   0.82974  -3.68401
  71       13PZ         0.00000  -0.92891  -2.82059  -0.96719  -2.17014
  72       14D 0        0.00000  -0.00089   0.00057   0.00121  -0.00097
  73       14D+1        0.00231   0.00000   0.00000   0.00000   0.00000
  74       14D-1        0.00000   0.00087   0.00020  -0.00124   0.00111
  75       14D+2        0.00000  -0.00347   0.00108   0.00226   0.00022
  76       14D-2        0.00099   0.00000   0.00000   0.00000   0.00000
  77       15D 0        0.00000   0.01473  -0.00423  -0.01474   0.01334
  78       15D+1       -0.02777   0.00000   0.00000   0.00000   0.00000
  79       15D-1        0.00000   0.00213   0.01493   0.00882  -0.01691
  80       15D+2        0.00000   0.03702  -0.02466  -0.02420  -0.00155
  81       15D-2       -0.02142   0.00000   0.00000   0.00000   0.00000
  82       16D 0        0.00000  -0.09742   0.00482   0.08913  -0.07669
  83       16D+1        0.10999   0.00000   0.00000   0.00000   0.00000
  84       16D-1        0.00000  -0.02651  -0.30343  -0.05364   0.16766
  85       16D+2        0.00000  -0.20044   0.27536   0.14933  -0.05912
  86       16D-2        0.09982   0.00000   0.00000   0.00000   0.00000
  87       17D 0        0.00000   0.18619  -0.15347   0.33081   0.04457
  88       17D+1       -0.21651   0.00000   0.00000   0.00000   0.00000
  89       17D-1        0.00000  -1.40873  -1.09790   0.28621  -0.75236
  90       17D+2        0.00000   1.77909   0.51349   0.26132   0.35471
  91       17D-2       -0.02700   0.00000   0.00000   0.00000   0.00000
  92       18F 0        0.00000   0.00405  -0.01928  -0.01470  -0.00478
  93       18F+1       -0.00932   0.00000   0.00000   0.00000   0.00000
  94       18F-1        0.00000   0.02768   0.02402   0.00068   0.00684
  95       18F+2        0.00000  -0.04201  -0.01288  -0.01459  -0.00883
  96       18F-2       -0.01283   0.00000   0.00000   0.00000   0.00000
  97       18F+3        0.05033   0.00000   0.00000   0.00000   0.00000
  98       18F-3        0.00000  -0.03991  -0.01418  -0.02009  -0.01235
  99       19F 0        0.00000   0.02458   0.10823   0.03169  -0.00930
 100       19F+1        0.00630   0.00000   0.00000   0.00000   0.00000
 101       19F-1        0.00000  -0.10690  -0.12925   0.02622  -0.03034
 102       19F+2        0.00000   0.17729   0.16372   0.05380   0.01869
 103       19F-2        0.01991   0.00000   0.00000   0.00000   0.00000
 104       19F+3       -0.11144   0.00000   0.00000   0.00000   0.00000
 105       19F-3        0.00000   0.17001   0.10674   0.10162   0.02337
 106 3   Br 1S          0.00000  -0.00223  -0.00003   0.00000   0.00010
 107        2S          0.00000  -0.01698  -0.00340  -0.00113   0.00071
 108        3S          0.00000  -0.07933  -0.00823  -0.00259   0.00336
 109        4S          0.00000  -0.23284  -0.05561  -0.01382   0.01076
 110        5S          0.00000  -0.09298  -0.15541  -0.00336  -0.00278
 111        6S          0.00000   0.82759   1.89807   0.85091   0.04929
 112        7S          0.00000  10.18469  14.91746   2.21621 -13.44743
 113        8PX         0.00164   0.00000   0.00000   0.00000   0.00000
 114        8PY         0.00000   0.00094  -0.00058  -0.00064   0.00038
 115        8PZ         0.00000  -0.00057  -0.00002   0.00043   0.00005
 116        9PX        -0.02019   0.00000   0.00000   0.00000   0.00000
 117        9PY         0.00000   0.01638  -0.00326   0.00866  -0.02559
 118        9PZ         0.00000  -0.00135   0.01300  -0.00980   0.01488
 119       10PX        -0.15442   0.00000   0.00000   0.00000   0.00000
 120       10PY         0.00000   0.24134  -0.06839   0.06887  -0.28113
 121       10PZ         0.00000  -0.04817   0.15009  -0.09282   0.17734
 122       11PX         0.04533   0.00000   0.00000   0.00000   0.00000
 123       11PY         0.00000   0.00093   0.00433  -0.01874   0.03519
 124       11PZ         0.00000  -0.01539  -0.02350   0.01448  -0.01605
 125       12PX         0.65810   0.00000   0.00000   0.00000   0.00000
 126       12PY         0.00000  -3.76104  -3.70439   0.34142   1.66496
 127       12PZ         0.00000   2.42193   2.53397   1.61314  -1.30478
 128       13PX        -2.45776   0.00000   0.00000   0.00000   0.00000
 129       13PY         0.00000  -3.83740  -0.38512  -0.84080   3.66323
 130       13PZ         0.00000   0.96548   2.85831  -0.90182  -2.16288
 131       14D 0        0.00000   0.00091  -0.00062   0.00117  -0.00097
 132       14D+1        0.00233   0.00000   0.00000   0.00000   0.00000
 133       14D-1        0.00000   0.00088   0.00018   0.00128  -0.00114
 134       14D+2        0.00000   0.00341  -0.00111   0.00224   0.00020
 135       14D-2       -0.00099   0.00000   0.00000   0.00000   0.00000
 136       15D 0        0.00000  -0.01487   0.00450  -0.01455   0.01328
 137       15D+1       -0.02808   0.00000   0.00000   0.00000   0.00000
 138       15D-1        0.00000   0.00221   0.01530  -0.00867   0.01744
 139       15D+2        0.00000  -0.03611   0.02503  -0.02368  -0.00128
 140       15D-2        0.02135   0.00000   0.00000   0.00000   0.00000
 141       16D 0        0.00000   0.09714  -0.00361   0.08911  -0.07479
 142       16D+1        0.11176   0.00000   0.00000   0.00000   0.00000
 143       16D-1        0.00000  -0.03462  -0.30142   0.04986  -0.17050
 144       16D+2        0.00000   0.18988  -0.27282   0.14486  -0.05936
 145       16D-2       -0.10024   0.00000   0.00000   0.00000   0.00000
 146       17D 0        0.00000  -0.16185   0.16682   0.33762   0.04071
 147       17D+1       -0.22145   0.00000   0.00000   0.00000   0.00000
 148       17D-1        0.00000  -1.43623  -1.09752  -0.30308   0.74801
 149       17D+2        0.00000  -1.77219  -0.50812   0.25246   0.34695
 150       17D-2        0.02975   0.00000   0.00000   0.00000   0.00000
 151       18F 0        0.00000  -0.00512   0.01935  -0.01460  -0.00464
 152       18F+1       -0.00921   0.00000   0.00000   0.00000   0.00000
 153       18F-1        0.00000   0.02809   0.02459  -0.00046  -0.00692
 154       18F+2        0.00000   0.04196   0.01323  -0.01442  -0.00842
 155       18F-2        0.01320   0.00000   0.00000   0.00000   0.00000
 156       18F+3        0.05029   0.00000   0.00000   0.00000   0.00000
 157       18F-3        0.00000  -0.03987  -0.01448   0.01978   0.01181
 158       19F 0        0.00000  -0.02266  -0.10643   0.03090  -0.00980
 159       19F+1        0.00571   0.00000   0.00000   0.00000   0.00000
 160       19F-1        0.00000  -0.11045  -0.13255  -0.02929   0.02938
 161       19F+2        0.00000  -0.17994  -0.16419   0.05133   0.01699
 162       19F-2       -0.02063   0.00000   0.00000   0.00000   0.00000
 163       19F+3       -0.11148   0.00000   0.00000   0.00000   0.00000
 164       19F-3        0.00000   0.17061   0.10703  -0.09966  -0.02195
 165 4   O  1S          0.00000   0.00055  -0.00034   0.09964   0.02972
 166        2S          0.00000   0.00232  -0.00222   0.52383   0.15535
 167        3S          0.00000  -0.00062  -0.00069   0.00445  -0.00602
 168        4S          0.00000   0.00191   0.05138  -6.20941   0.01661
 169        5S          0.00000   0.04038   0.15232 -15.18254  -8.03683
 170        6PX         0.01947   0.00000   0.00000   0.00000   0.00000
 171        6PY         0.00000   0.01509  -0.00282  -0.00005  -0.00003
 172        6PZ         0.00000  -0.00018   0.00019  -0.00519   0.01149
 173        7PX        -0.03541   0.00000   0.00000   0.00000   0.00000
 174        7PY         0.00000  -0.07931  -0.03645  -0.00007   0.00021
 175        7PZ         0.00000   0.00049  -0.00266   0.14059  -0.13485
 176        8PX         0.80510   0.00000   0.00000   0.00000   0.00000
 177        8PY         0.00000   1.01860  -0.14495  -0.01243   0.00207
 178        8PZ         0.00000  -0.01130  -0.03678   3.75889   0.67282
 179        9PX        -3.47120   0.00000   0.00000   0.00000   0.00000
 180        9PY         0.00000  -0.76675   3.68046   0.01462   0.00291
 181        9PZ         0.00000   0.01284  -0.02268   0.27242   1.67225
 182       10D 0        0.00000  -0.00055  -0.00053   0.05476   0.01243
 183       10D+1        0.03558   0.00000   0.00000   0.00000   0.00000
 184       10D-1        0.00000   0.00118  -0.03689  -0.00012   0.00014
 185       10D+2        0.00000  -0.00029  -0.00006  -0.02710  -0.01083
 186       10D-2       -0.00030   0.00000   0.00000   0.00000   0.00000
 187       11D 0        0.00000   0.00193   0.00439  -0.40184  -0.02867
 188       11D+1       -0.23889   0.00000   0.00000   0.00000   0.00000
 189       11D-1        0.00000  -0.03438   0.20765   0.00127  -0.00062
 190       11D+2        0.00000   0.00123   0.00019   0.07752   0.03454
 191       11D-2        0.00074   0.00000   0.00000   0.00000   0.00000
 192       12D 0        0.00000  -0.00251   0.00437  -0.49679  -0.18920
 193       12D+1       -0.09855   0.00000   0.00000   0.00000   0.00000
 194       12D-1        0.00000  -0.30953  -0.14812   0.00392   0.00050
 195       12D+2        0.00000  -0.00520  -0.00122  -0.38009   0.05584
 196       12D-2       -0.00234   0.00000   0.00000   0.00000   0.00000
 197       13F 0        0.00000   0.00024  -0.00026   0.01806  -0.01330
 198       13F+1       -0.00553   0.00000   0.00000   0.00000   0.00000
 199       13F-1        0.00000  -0.01483   0.00269   0.00009   0.00002
 200       13F+2        0.00000  -0.00005   0.00003  -0.01326   0.01481
 201       13F-2        0.00007   0.00000   0.00000   0.00000   0.00000
 202       13F+3        0.01389   0.00000   0.00000   0.00000   0.00000
 203       13F-3        0.00000  -0.00988  -0.01616  -0.00002   0.00003
 204       14F 0        0.00000  -0.00062  -0.00119   0.14343   0.06384
 205       14F+1        0.17119   0.00000   0.00000   0.00000   0.00000
 206       14F-1        0.00000   0.07224  -0.09758  -0.00106   0.00007
 207       14F+2        0.00000   0.00017  -0.00008   0.05918  -0.03812
 208       14F-2        0.00007   0.00000   0.00000   0.00000   0.00000
 209       14F+3       -0.02523   0.00000   0.00000   0.00000   0.00000
 210       14F-3        0.00000   0.02509   0.02816  -0.00004  -0.00003
          Condensed to atoms (all electrons):
              1          2          3          4
     1  C    5.567589   0.021809   0.025023   0.239006
     2  Br   0.021809  35.045270  -0.118263  -0.057400
     3  Br   0.025023  -0.118263  35.047021  -0.056707
     4  O    0.239006  -0.057400  -0.056707   8.233184
 Mulliken atomic charges:
              1
     1  C    0.146573
     2  Br   0.108584
     3  Br   0.102926
     4  O   -0.358083
 Sum of Mulliken atomic charges =   0.00000
 Mulliken charges with hydrogens summed into heavy atoms:
              1
     1  C    0.146573
     2  Br   0.108584
     3  Br   0.102926
     4  O   -0.358083
 Sum of Mulliken charges with hydrogens summed into heavy atoms =   0.00000
 Electronic spatial extent (au):  <R**2>=           1351.7396
 Charge=              0.0000 electrons
 Dipole moment (field-independent basis, Debye):
    X=              0.0000    Y=             -0.0167    Z=             -1.2482  Tot=              1.2483
 Quadrupole moment (field-independent basis, Debye-Ang):
   XX=            -46.9532   YY=            -44.9029   ZZ=            -47.5380
   XY=              0.0000   XZ=              0.0000   YZ=              0.0129
 Traceless Quadrupole moment (field-independent basis, Debye-Ang):
   XX=             -0.4885   YY=              1.5618   ZZ=             -1.0733
   XY=              0.0000   XZ=              0.0000   YZ=              0.0129
 Octapole moment (field-independent basis, Debye-Ang**2):
  XXX=              0.0000  YYY=             -0.1343  ZZZ=            164.3201  XYY=              0.0000
  XXY=             -0.0225  XXZ=             56.1151  XZZ=              0.0000  YZZ=              0.0114
  YYZ=             45.5300  XYZ=              0.0000
 Hexadecapole moment (field-independent basis, Debye-Ang**3):
 XXXX=            -53.6679 YYYY=           -570.5332 ZZZZ=           -593.9853 XXXY=              0.0000
 XXXZ=              0.0000 YYYX=              0.0000 YYYZ=              0.9650 ZZZX=              0.0000
 ZZZY=              0.7311 XXYY=           -111.3240 XXZZ=           -109.8332 YYZZ=           -174.6883
 XXYZ=              0.3220 YYXZ=              0.0000 ZZXY=              0.0000
 N-N= 4.495597396634D+02 E-N=-1.347088189255D+04  KE= 5.257238908300D+03
 1\1\GINC-TRAPISTA\SP\RQCISD-FC\Aug-CC-pVTZ\C1Br2O1\BRUNS\28-Nov-2021\0
 \\# qcisd/aug-cc-pvtz nosymm density=current output=wfn\\br2co-wavefun
 ction\\0,1\C,0,0.,0.,-0.491759\Br,0,0.,-1.594181,-1.53682\Br,0,0.,1.59
 4181,-1.54682\O,0,0.,0.,0.6845\\Version=EM64L-G09RevB.01\HF=-5257.6845
 958\MP2=-5258.5485945\MP3=-5258.5484754\MP4D=-5258.5696578\MP4DQ=-5258
 .5482011\MP4SDQ=-5258.5601462\QCISD=-5258.5577543\RMSD=9.211e-09\Dipol
 e=0.,-0.0065747,-0.4910861\Quadrupole=-0.363161,1.1611466,-0.7979856,0
 .,0.,0.0096183\PG=CS [SG(C1Br2O1)]\\@

 Writing a WFN file to GAUSSIAN.wfn.


 THE GREAT THING ABOUT BEING IMPERFECT IS THE JOY IT BRINGS OTHERS.
   -- SIGN OUTSIDE LAKE AGASSIZ JR. HIGH SCHOOL, FARGO, N.D.
 Job cpu time:  0 days  5 hours 33 minutes 46.9 seconds.
 File lengths (MBytes):  RWF=  23799 Int=      0 D2E=      0 Chk=      4 Scr=      1
 Normal termination of Gaussian 09 at Sun Nov 28 13:31:27 2021.
