 br2co-wavefunction
GAUSSIAN            210 MOL ORBITALS    578 PRIMITIVES        4 NUCLEI
  C    1    (CENTRE  1)  -0.01889726  0.00000000 -0.92928983  CHARGE =  6.0
  Br   2    (CENTRE  2)   0.00000000 -3.01256550 -2.92306618  CHARGE = 35.0
  Br   3    (CENTRE  3)   0.00000000  3.01256550 -2.92306618  CHARGE = 35.0
  O    4    (CENTRE  4)   0.00000000  0.00000000  1.29351754  CHARGE =  8.0
CENTRE ASSIGNMENTS    1  1  1  1  1  1  1  1  1  1  1  1  1  1  1  1  1  1  1  1
CENTRE ASSIGNMENTS    1  1  1  1  1  1  1  1  1  1  1  1  1  1  1  1  1  1  1  1
CENTRE ASSIGNMENTS    1  1  1  1  1  1  1  1  1  1  1  1  1  1  1  1  1  1  1  1
CENTRE ASSIGNMENTS    1  1  1  1  1  1  1  1  1  1  1  1  2  2  2  2  2  2  2  2
CENTRE ASSIGNMENTS    2  2  2  2  2  2  2  2  2  2  2  2  2  2  2  2  2  2  2  2
CENTRE ASSIGNMENTS    2  2  2  2  2  2  2  2  2  2  2  2  2  2  2  2  2  2  2  2
CENTRE ASSIGNMENTS    2  2  2  2  2  2  2  2  2  2  2  2  2  2  2  2  2  2  2  2
CENTRE ASSIGNMENTS    2  2  2  2  2  2  2  2  2  2  2  2  2  2  2  2  2  2  2  2
CENTRE ASSIGNMENTS    2  2  2  2  2  2  2  2  2  2  2  2  2  2  2  2  2  2  2  2
CENTRE ASSIGNMENTS    2  2  2  2  2  2  2  2  2  2  2  2  2  2  2  2  2  2  2  2
CENTRE ASSIGNMENTS    2  2  2  2  2  2  2  2  2  2  2  2  2  2  2  2  2  2  2  2
CENTRE ASSIGNMENTS    2  2  2  2  2  2  2  2  2  2  2  2  2  2  2  2  2  2  2  2
CENTRE ASSIGNMENTS    2  2  2  2  2  2  2  2  2  2  2  2  2  2  2  2  2  2  2  2
CENTRE ASSIGNMENTS    2  2  2  2  2  2  2  2  2  2  2  2  2  2  2  2  2  2  2  2
CENTRE ASSIGNMENTS    2  2  2  2  2  2  2  2  2  3  3  3  3  3  3  3  3  3  3  3
CENTRE ASSIGNMENTS    3  3  3  3  3  3  3  3  3  3  3  3  3  3  3  3  3  3  3  3
CENTRE ASSIGNMENTS    3  3  3  3  3  3  3  3  3  3  3  3  3  3  3  3  3  3  3  3
CENTRE ASSIGNMENTS    3  3  3  3  3  3  3  3  3  3  3  3  3  3  3  3  3  3  3  3
CENTRE ASSIGNMENTS    3  3  3  3  3  3  3  3  3  3  3  3  3  3  3  3  3  3  3  3
CENTRE ASSIGNMENTS    3  3  3  3  3  3  3  3  3  3  3  3  3  3  3  3  3  3  3  3
CENTRE ASSIGNMENTS    3  3  3  3  3  3  3  3  3  3  3  3  3  3  3  3  3  3  3  3
CENTRE ASSIGNMENTS    3  3  3  3  3  3  3  3  3  3  3  3  3  3  3  3  3  3  3  3
CENTRE ASSIGNMENTS    3  3  3  3  3  3  3  3  3  3  3  3  3  3  3  3  3  3  3  3
CENTRE ASSIGNMENTS    3  3  3  3  3  3  3  3  3  3  3  3  3  3  3  3  3  3  3  3
CENTRE ASSIGNMENTS    3  3  3  3  3  3  3  3  3  3  3  3  3  3  3  3  3  3  3  3
CENTRE ASSIGNMENTS    3  3  3  3  3  3  4  4  4  4  4  4  4  4  4  4  4  4  4  4
CENTRE ASSIGNMENTS    4  4  4  4  4  4  4  4  4  4  4  4  4  4  4  4  4  4  4  4
CENTRE ASSIGNMENTS    4  4  4  4  4  4  4  4  4  4  4  4  4  4  4  4  4  4  4  4
CENTRE ASSIGNMENTS    4  4  4  4  4  4  4  4  4  4  4  4  4  4  4  4  4  4
TYPE ASSIGNMENTS      1  1  1  1  1  1  1  1  1  1  1  1  1  1  1  1  2  2  2  3
TYPE ASSIGNMENTS      3  3  4  4  4  2  3  4  2  3  4  2  3  4  5  6  7  8  9 10
TYPE ASSIGNMENTS      5  6  7  8  9 10  5  6  7  8  9 10 11 12 13 17 14 15 18 19
TYPE ASSIGNMENTS     16 20 11 12 13 17 14 15 18 19 16 20  1  1  1  1  1  1  1  1
TYPE ASSIGNMENTS      1  1  1  1  1  1  1  1  1  1  1  1  1  1  1  1  1  1  1  1
TYPE ASSIGNMENTS      1  1  1  1  1  1  1  1  1  1  1  1  1  1  1  1  1  1  1  1
TYPE ASSIGNMENTS      1  1  2  2  2  2  2  2  2  2  2  3  3  3  3  3  3  3  3  3
TYPE ASSIGNMENTS      4  4  4  4  4  4  4  4  4  2  2  2  2  2  2  2  2  2  3  3
TYPE ASSIGNMENTS      3  3  3  3  3  3  3  4  4  4  4  4  4  4  4  4  2  2  2  2
TYPE ASSIGNMENTS      2  2  2  2  3  3  3  3  3  3  3  3  4  4  4  4  4  4  4  4
TYPE ASSIGNMENTS      2  3  4  2  3  4  2  3  4  5  5  5  5  5  5  5  6  6  6  6
TYPE ASSIGNMENTS      6  6  6  7  7  7  7  7  7  7  8  8  8  8  8  8  8  9  9  9
TYPE ASSIGNMENTS      9  9  9  9 10 10 10 10 10 10 10  5  6  7  8  9 10  5  6  7
TYPE ASSIGNMENTS      8  9 10  5  6  7  8  9 10 11 12 13 17 14 15 18 19 16 20 11
TYPE ASSIGNMENTS     12 13 17 14 15 18 19 16 20  1  1  1  1  1  1  1  1  1  1  1
TYPE ASSIGNMENTS      1  1  1  1  1  1  1  1  1  1  1  1  1  1  1  1  1  1  1  1
TYPE ASSIGNMENTS      1  1  1  1  1  1  1  1  1  1  1  1  1  1  1  1  1  1  1  2
TYPE ASSIGNMENTS      2  2  2  2  2  2  2  2  3  3  3  3  3  3  3  3  3  4  4  4
TYPE ASSIGNMENTS      4  4  4  4  4  4  2  2  2  2  2  2  2  2  2  3  3  3  3  3
TYPE ASSIGNMENTS      3  3  3  3  4  4  4  4  4  4  4  4  4  2  2  2  2  2  2  2
TYPE ASSIGNMENTS      2  3  3  3  3  3  3  3  3  4  4  4  4  4  4  4  4  2  3  4
TYPE ASSIGNMENTS      2  3  4  2  3  4  5  5  5  5  5  5  5  6  6  6  6  6  6  6
TYPE ASSIGNMENTS      7  7  7  7  7  7  7  8  8  8  8  8  8  8  9  9  9  9  9  9
TYPE ASSIGNMENTS      9 10 10 10 10 10 10 10  5  6  7  8  9 10  5  6  7  8  9 10
TYPE ASSIGNMENTS      5  6  7  8  9 10 11 12 13 17 14 15 18 19 16 20 11 12 13 17
TYPE ASSIGNMENTS     14 15 18 19 16 20  1  1  1  1  1  1  1  1  1  1  1  1  1  1
TYPE ASSIGNMENTS      1  1  2  2  2  3  3  3  4  4  4  2  3  4  2  3  4  2  3  4
TYPE ASSIGNMENTS      5  6  7  8  9 10  5  6  7  8  9 10  5  6  7  8  9 10 11 12
TYPE ASSIGNMENTS     13 17 14 15 18 19 16 20 11 12 13 17 14 15 18 19 16 20
EXPONENTS  0.8236000D+04 0.1235000D+04 0.2808000D+03 0.7927000D+02 0.2559000D+02
EXPONENTS  0.8997000D+01 0.3319000D+01 0.2808000D+03 0.7927000D+02 0.2559000D+02
EXPONENTS  0.8997000D+01 0.3319000D+01 0.3643000D+00 0.9059000D+00 0.1285000D+00
EXPONENTS  0.4402000D-01 0.1871000D+02 0.4133000D+01 0.1200000D+01 0.1871000D+02
EXPONENTS  0.4133000D+01 0.1200000D+01 0.1871000D+02 0.4133000D+01 0.1200000D+01
EXPONENTS  0.3827000D+00 0.3827000D+00 0.3827000D+00 0.1209000D+00 0.1209000D+00
EXPONENTS  0.1209000D+00 0.3569000D-01 0.3569000D-01 0.3569000D-01 0.1097000D+01
EXPONENTS  0.1097000D+01 0.1097000D+01 0.1097000D+01 0.1097000D+01 0.1097000D+01
EXPONENTS  0.3180000D+00 0.3180000D+00 0.3180000D+00 0.3180000D+00 0.3180000D+00
EXPONENTS  0.3180000D+00 0.1000000D+00 0.1000000D+00 0.1000000D+00 0.1000000D+00
EXPONENTS  0.1000000D+00 0.1000000D+00 0.7610000D+00 0.7610000D+00 0.7610000D+00
EXPONENTS  0.7610000D+00 0.7610000D+00 0.7610000D+00 0.7610000D+00 0.7610000D+00
EXPONENTS  0.7610000D+00 0.7610000D+00 0.2680000D+00 0.2680000D+00 0.2680000D+00
EXPONENTS  0.2680000D+00 0.2680000D+00 0.2680000D+00 0.2680000D+00 0.2680000D+00
EXPONENTS  0.2680000D+00 0.2680000D+00 0.1063900D+08 0.1593400D+07 0.3626100D+06
EXPONENTS  0.1027000D+06 0.3350100D+05 0.1209300D+05 0.4715900D+04 0.1955600D+04
EXPONENTS  0.8526100D+03 0.3876700D+03 0.1826800D+03 0.8824500D+02 0.3926300D+02
EXPONENTS  0.9405700D+01 0.1899500D+01 0.3350100D+05 0.1209300D+05 0.4715900D+04
EXPONENTS  0.1955600D+04 0.8526100D+03 0.3876700D+03 0.1826800D+03 0.8824500D+02
EXPONENTS  0.3926300D+02 0.1923400D+02 0.9405700D+01 0.1899500D+01 0.4715900D+04
EXPONENTS  0.8526100D+03 0.3876700D+03 0.1826800D+03 0.8824500D+02 0.3926300D+02
EXPONENTS  0.1923400D+02 0.9405700D+01 0.4160100D+01 0.1899500D+01 0.4715900D+04
EXPONENTS  0.8526100D+03 0.3876700D+03 0.8824500D+02 0.3926300D+02 0.1923400D+02
EXPONENTS  0.9405700D+01 0.4160100D+01 0.1899500D+01 0.3011400D+00 0.6047200D+00
EXPONENTS  0.1251500D+00 0.4559300D-01 0.8676500D+04 0.2055900D+04 0.6662300D+03
EXPONENTS  0.2531000D+03 0.1061200D+03 0.4724200D+02 0.2182500D+02 0.9968400D+01
EXPONENTS  0.1998200D+01 0.8676500D+04 0.2055900D+04 0.6662300D+03 0.2531000D+03
EXPONENTS  0.1061200D+03 0.4724200D+02 0.2182500D+02 0.9968400D+01 0.1998200D+01
EXPONENTS  0.8676500D+04 0.2055900D+04 0.6662300D+03 0.2531000D+03 0.1061200D+03
EXPONENTS  0.4724200D+02 0.2182500D+02 0.9968400D+01 0.1998200D+01 0.8676500D+04
EXPONENTS  0.6662300D+03 0.2531000D+03 0.1061200D+03 0.4724200D+02 0.2182500D+02
EXPONENTS  0.9968400D+01 0.4517100D+01 0.1998200D+01 0.8676500D+04 0.6662300D+03
EXPONENTS  0.2531000D+03 0.1061200D+03 0.4724200D+02 0.2182500D+02 0.9968400D+01
EXPONENTS  0.4517100D+01 0.1998200D+01 0.8676500D+04 0.6662300D+03 0.2531000D+03
EXPONENTS  0.1061200D+03 0.4724200D+02 0.2182500D+02 0.9968400D+01 0.4517100D+01
EXPONENTS  0.1998200D+01 0.6662300D+03 0.1061200D+03 0.4724200D+02 0.2182500D+02
EXPONENTS  0.9968400D+01 0.4517100D+01 0.1998200D+01 0.2814500D+00 0.6662300D+03
EXPONENTS  0.1061200D+03 0.4724200D+02 0.2182500D+02 0.9968400D+01 0.4517100D+01
EXPONENTS  0.1998200D+01 0.2814500D+00 0.6662300D+03 0.1061200D+03 0.4724200D+02
EXPONENTS  0.2182500D+02 0.9968400D+01 0.4517100D+01 0.1998200D+01 0.2814500D+00
EXPONENTS  0.7098800D+00 0.7098800D+00 0.7098800D+00 0.1020400D+00 0.1020400D+00
EXPONENTS  0.1020400D+00 0.3514200D-01 0.3514200D-01 0.3514200D-01 0.4038300D+03
EXPONENTS  0.1211700D+03 0.4634500D+02 0.1972100D+02 0.8862400D+01 0.3996200D+01
EXPONENTS  0.1763600D+01 0.4038300D+03 0.1211700D+03 0.4634500D+02 0.1972100D+02
EXPONENTS  0.8862400D+01 0.3996200D+01 0.1763600D+01 0.4038300D+03 0.1211700D+03
EXPONENTS  0.4634500D+02 0.1972100D+02 0.8862400D+01 0.3996200D+01 0.1763600D+01
EXPONENTS  0.4038300D+03 0.1211700D+03 0.4634500D+02 0.1972100D+02 0.8862400D+01
EXPONENTS  0.3996200D+01 0.1763600D+01 0.4038300D+03 0.1211700D+03 0.4634500D+02
EXPONENTS  0.1972100D+02 0.8862400D+01 0.3996200D+01 0.1763600D+01 0.4038300D+03
EXPONENTS  0.1211700D+03 0.4634500D+02 0.1972100D+02 0.8862400D+01 0.3996200D+01
EXPONENTS  0.1763600D+01 0.7061900D+00 0.7061900D+00 0.7061900D+00 0.7061900D+00
EXPONENTS  0.7061900D+00 0.7061900D+00 0.2639000D+00 0.2639000D+00 0.2639000D+00
EXPONENTS  0.2639000D+00 0.2639000D+00 0.2639000D+00 0.1047000D+00 0.1047000D+00
EXPONENTS  0.1047000D+00 0.1047000D+00 0.1047000D+00 0.1047000D+00 0.5515000D+00
EXPONENTS  0.5515000D+00 0.5515000D+00 0.5515000D+00 0.5515000D+00 0.5515000D+00
EXPONENTS  0.5515000D+00 0.5515000D+00 0.5515000D+00 0.5515000D+00 0.2580000D+00
EXPONENTS  0.2580000D+00 0.2580000D+00 0.2580000D+00 0.2580000D+00 0.2580000D+00
EXPONENTS  0.2580000D+00 0.2580000D+00 0.2580000D+00 0.2580000D+00 0.1063900D+08
EXPONENTS  0.1593400D+07 0.3626100D+06 0.1027000D+06 0.3350100D+05 0.1209300D+05
EXPONENTS  0.4715900D+04 0.1955600D+04 0.8526100D+03 0.3876700D+03 0.1826800D+03
EXPONENTS  0.8824500D+02 0.3926300D+02 0.9405700D+01 0.1899500D+01 0.3350100D+05
EXPONENTS  0.1209300D+05 0.4715900D+04 0.1955600D+04 0.8526100D+03 0.3876700D+03
EXPONENTS  0.1826800D+03 0.8824500D+02 0.3926300D+02 0.1923400D+02 0.9405700D+01
EXPONENTS  0.1899500D+01 0.4715900D+04 0.8526100D+03 0.3876700D+03 0.1826800D+03
EXPONENTS  0.8824500D+02 0.3926300D+02 0.1923400D+02 0.9405700D+01 0.4160100D+01
EXPONENTS  0.1899500D+01 0.4715900D+04 0.8526100D+03 0.3876700D+03 0.8824500D+02
EXPONENTS  0.3926300D+02 0.1923400D+02 0.9405700D+01 0.4160100D+01 0.1899500D+01
EXPONENTS  0.3011400D+00 0.6047200D+00 0.1251500D+00 0.4559300D-01 0.8676500D+04
EXPONENTS  0.2055900D+04 0.6662300D+03 0.2531000D+03 0.1061200D+03 0.4724200D+02
EXPONENTS  0.2182500D+02 0.9968400D+01 0.1998200D+01 0.8676500D+04 0.2055900D+04
EXPONENTS  0.6662300D+03 0.2531000D+03 0.1061200D+03 0.4724200D+02 0.2182500D+02
EXPONENTS  0.9968400D+01 0.1998200D+01 0.8676500D+04 0.2055900D+04 0.6662300D+03
EXPONENTS  0.2531000D+03 0.1061200D+03 0.4724200D+02 0.2182500D+02 0.9968400D+01
EXPONENTS  0.1998200D+01 0.8676500D+04 0.6662300D+03 0.2531000D+03 0.1061200D+03
EXPONENTS  0.4724200D+02 0.2182500D+02 0.9968400D+01 0.4517100D+01 0.1998200D+01
EXPONENTS  0.8676500D+04 0.6662300D+03 0.2531000D+03 0.1061200D+03 0.4724200D+02
EXPONENTS  0.2182500D+02 0.9968400D+01 0.4517100D+01 0.1998200D+01 0.8676500D+04
EXPONENTS  0.6662300D+03 0.2531000D+03 0.1061200D+03 0.4724200D+02 0.2182500D+02
EXPONENTS  0.9968400D+01 0.4517100D+01 0.1998200D+01 0.6662300D+03 0.1061200D+03
EXPONENTS  0.4724200D+02 0.2182500D+02 0.9968400D+01 0.4517100D+01 0.1998200D+01
EXPONENTS  0.2814500D+00 0.6662300D+03 0.1061200D+03 0.4724200D+02 0.2182500D+02
EXPONENTS  0.9968400D+01 0.4517100D+01 0.1998200D+01 0.2814500D+00 0.6662300D+03
EXPONENTS  0.1061200D+03 0.4724200D+02 0.2182500D+02 0.9968400D+01 0.4517100D+01
EXPONENTS  0.1998200D+01 0.2814500D+00 0.7098800D+00 0.7098800D+00 0.7098800D+00
EXPONENTS  0.1020400D+00 0.1020400D+00 0.1020400D+00 0.3514200D-01 0.3514200D-01
EXPONENTS  0.3514200D-01 0.4038300D+03 0.1211700D+03 0.4634500D+02 0.1972100D+02
EXPONENTS  0.8862400D+01 0.3996200D+01 0.1763600D+01 0.4038300D+03 0.1211700D+03
EXPONENTS  0.4634500D+02 0.1972100D+02 0.8862400D+01 0.3996200D+01 0.1763600D+01
EXPONENTS  0.4038300D+03 0.1211700D+03 0.4634500D+02 0.1972100D+02 0.8862400D+01
EXPONENTS  0.3996200D+01 0.1763600D+01 0.4038300D+03 0.1211700D+03 0.4634500D+02
EXPONENTS  0.1972100D+02 0.8862400D+01 0.3996200D+01 0.1763600D+01 0.4038300D+03
EXPONENTS  0.1211700D+03 0.4634500D+02 0.1972100D+02 0.8862400D+01 0.3996200D+01
EXPONENTS  0.1763600D+01 0.4038300D+03 0.1211700D+03 0.4634500D+02 0.1972100D+02
EXPONENTS  0.8862400D+01 0.3996200D+01 0.1763600D+01 0.7061900D+00 0.7061900D+00
EXPONENTS  0.7061900D+00 0.7061900D+00 0.7061900D+00 0.7061900D+00 0.2639000D+00
EXPONENTS  0.2639000D+00 0.2639000D+00 0.2639000D+00 0.2639000D+00 0.2639000D+00
EXPONENTS  0.1047000D+00 0.1047000D+00 0.1047000D+00 0.1047000D+00 0.1047000D+00
EXPONENTS  0.1047000D+00 0.5515000D+00 0.5515000D+00 0.5515000D+00 0.5515000D+00
EXPONENTS  0.5515000D+00 0.5515000D+00 0.5515000D+00 0.5515000D+00 0.5515000D+00
EXPONENTS  0.5515000D+00 0.2580000D+00 0.2580000D+00 0.2580000D+00 0.2580000D+00
EXPONENTS  0.2580000D+00 0.2580000D+00 0.2580000D+00 0.2580000D+00 0.2580000D+00
EXPONENTS  0.2580000D+00 0.1533000D+05 0.2299000D+04 0.5224000D+03 0.1473000D+03
EXPONENTS  0.4755000D+02 0.1676000D+02 0.6207000D+01 0.5224000D+03 0.1473000D+03
EXPONENTS  0.4755000D+02 0.1676000D+02 0.6207000D+01 0.6882000D+00 0.1752000D+01
EXPONENTS  0.2384000D+00 0.7376000D-01 0.3446000D+02 0.7749000D+01 0.2280000D+01
EXPONENTS  0.3446000D+02 0.7749000D+01 0.2280000D+01 0.3446000D+02 0.7749000D+01
EXPONENTS  0.2280000D+01 0.7156000D+00 0.7156000D+00 0.7156000D+00 0.2140000D+00
EXPONENTS  0.2140000D+00 0.2140000D+00 0.5974000D-01 0.5974000D-01 0.5974000D-01
EXPONENTS  0.2314000D+01 0.2314000D+01 0.2314000D+01 0.2314000D+01 0.2314000D+01
EXPONENTS  0.2314000D+01 0.6450000D+00 0.6450000D+00 0.6450000D+00 0.6450000D+00
EXPONENTS  0.6450000D+00 0.6450000D+00 0.2140000D+00 0.2140000D+00 0.2140000D+00
EXPONENTS  0.2140000D+00 0.2140000D+00 0.2140000D+00 0.1428000D+01 0.1428000D+01
EXPONENTS  0.1428000D+01 0.1428000D+01 0.1428000D+01 0.1428000D+01 0.1428000D+01
EXPONENTS  0.1428000D+01 0.1428000D+01 0.1428000D+01 0.5000000D+00 0.5000000D+00
EXPONENTS  0.5000000D+00 0.5000000D+00 0.5000000D+00 0.5000000D+00 0.5000000D+00
EXPONENTS  0.5000000D+00 0.5000000D+00 0.5000000D+00
MO    1     MO 0.0        OCC NO =    2.0000166  ORB. ENERGY =    0.000000
  0.12316435D+00  0.22960317D+00  0.38806064D+00  0.58332752D+00  0.71651337D+00
  0.60471201D+00  0.22738751D+00  0.29320664D-04  0.21915380D-03  0.81902779D-03
  0.22849600D-02  0.30612164D-02 -0.36147258D-02  0.94457746D-02 -0.19934425D-02
 -0.30911972D-03 -0.93855203D-05 -0.87995218D-05 -0.62657838D-05 -0.66963529D-12
 -0.62782565D-12 -0.44704926D-12  0.36720107D-02  0.34427434D-02  0.24514384D-02
  0.33076614D-06 -0.45353053D-12  0.19862507D-02 -0.31298588D-05 -0.92287770D-12
  0.38485964D-03  0.25978200D-06 -0.46561598D-13  0.48942083D-05 -0.97161147D-04
 -0.49938217D-03  0.59654331D-03  0.90122670D-13  0.17657241D-04  0.13932732D-12
  0.33695635D-03 -0.32300498D-03 -0.13951370D-04  0.77116914D-13  0.86866277D-05
 -0.10872565D-13  0.30920730D-04 -0.18797355D-04 -0.12123375D-04 -0.37695701D-14
  0.12360803D-05  0.84636113D-13 -0.27786082D-05  0.10265683D-13  0.12399239D-03
 -0.20106038D-05 -0.82313750D-13 -0.16591083D-03  0.10346429D-04  0.51516699D-13
 -0.20606636D-03  0.10565304D-13  0.63209786D-06  0.12407541D-13 -0.14112045D-04
 -0.10272757D-05  0.71116406D-13  0.24945043D-05 -0.86901786D-06 -0.10833903D-12
  0.39841631D-04 -0.22110383D-13 -0.34893508D-01 -0.65639945D-01 -0.11362610D+00
 -0.18625499D+00 -0.29177128D+00 -0.43855598D+00 -0.62679959D+00 -0.83207509D+00
 -0.96901156D+00 -0.88992501D+00 -0.52021960D+00 -0.13650259D+00 -0.77609304D-02
 -0.13541989D-03 -0.13631553D-04 -0.16556467D-02 -0.47827816D-02 -0.21920612D-01
 -0.64889785D-01 -0.18818227D+00 -0.39115422D+00 -0.55955076D+00 -0.16044107D+00
  0.64114402D+00  0.61992424D+00  0.13530794D+00 -0.19585415D-02 -0.10126649D-02
 -0.47242913D-02 -0.95875987D-02 -0.37575467D-01 -0.26367595D-01  0.17171576D+00
  0.53208818D+00  0.65086300D-01 -0.46512582D+00 -0.21828353D+00 -0.11090795D-05
 -0.15204600D-05  0.29150895D-05  0.61955237D-05 -0.23420813D-04 -0.75736961D-04
 -0.26340163D-04  0.25763548D-03  0.57466068D-03 -0.38132734D-03 -0.90603351D-02
  0.53754077D-03  0.15407416D-03 -0.82198187D-01 -0.11794213D+00 -0.15616628D+00
 -0.18034487D+00 -0.16721370D+00 -0.10828535D+00 -0.38209483D-01 -0.44026440D-02
  0.71925678D-05  0.10012021D+02  0.14365756D+02  0.19021588D+02  0.21966623D+02
  0.20367202D+02  0.13189527D+02  0.46540459D+01  0.53625713D+00 -0.87607941D-03
  0.62270757D+01  0.89349242D+01  0.11830665D+02  0.13662359D+02  0.12667583D+02
  0.82033570D+01  0.28946300D+01  0.33353044D+00 -0.54488628D-03  0.48531164D-03
 -0.13837099D-02 -0.67540662D-02 -0.13995709D-01 -0.17563234D-01 -0.27852130D-02
  0.22545358D-01  0.19662821D-01  0.50546208D-02 -0.59669829D-01  0.17012931D+00
  0.83042305D+00  0.17207945D+01  0.21594272D+01  0.34244632D+00 -0.27719872D+01
 -0.24175748D+01 -0.62147357D+00 -0.37192190D-01  0.10604156D+00  0.51760248D+00
  0.10725708D+01  0.13459704D+01  0.21344671D+00 -0.17277790D+01 -0.15068738D+01
 -0.38736432D+00  0.18751316D-05  0.26490713D-05 -0.12325990D-05  0.24701401D-05
  0.27116610D-05  0.73196228D-05  0.23066065D-05 -0.49523333D-05 -0.25820535D-03
 -0.36477674D-03  0.16972871D-03 -0.34013794D-03 -0.37339532D-03 -0.10079110D-02
 -0.31761939D-03  0.68193557D-03 -0.14273720D-03 -0.20165039D-03  0.93826873D-04
 -0.18802994D-03 -0.20641479D-03 -0.55717821D-03 -0.17558157D-03  0.37697737D-03
  0.17827924D-03 -0.22009914D-01 -0.13838271D-01  0.11110410D-07  0.12525940D-03
  0.59943476D-04 -0.17400357D-06  0.87722225D-05  0.66693092D-05  0.10210365D+01
  0.10684047D+01  0.91033798D+00  0.59952638D+00  0.27630386D+00  0.82739638D-01
  0.14077448D-01 -0.12438086D+01 -0.13015116D+01 -0.11089576D+01 -0.73033241D+00
 -0.33658846D+00 -0.10079196D+00 -0.17148897D-01  0.22277205D+00  0.23310695D+00
  0.19861960D+00  0.13080602D+00  0.60284601D-01  0.18052321D-01  0.30714494D-02
  0.44937176D-01  0.47021912D-01  0.40065186D-01  0.26385954D-01  0.12160501D-01
  0.36414816D-02  0.61956722D-03  0.27496949D-01  0.28772594D-01  0.24515790D-01
  0.16145501D-01  0.74409809D-02  0.22282138D-02  0.37911168D-03 -0.37489711D+01
 -0.39228943D+01 -0.33425159D+01 -0.22012994D+01 -0.10145134D+01 -0.30379767D+00
 -0.51688598D-01  0.11365360D-02 -0.13740497D-02  0.23751372D-03  0.43820791D-04
  0.27107855D-04 -0.38077678D-02 -0.11622964D-03  0.11050999D-03  0.57196489D-05
 -0.20275612D-05 -0.17034082D-05  0.30455231D-03 -0.13574714D-04  0.15155555D-04
 -0.15808419D-05 -0.17509530D-06 -0.24369917D-06  0.28790909D-04 -0.19964608D-05
 -0.40110513D-04  0.91939431D-04  0.45116336D-05  0.20890490D-03  0.14520432D-03
  0.14777488D-05 -0.88573357D-04 -0.42102261D-03  0.89104199D-05  0.52617726D-06
  0.97229625D-05 -0.20873017D-04 -0.91915038D-06 -0.68876407D-04 -0.54589676D-04
 -0.65938141D-06  0.39707519D-04  0.11720873D-03 -0.22852423D-05 -0.34893509D-01
 -0.65639945D-01 -0.11362610D+00 -0.18625499D+00 -0.29177128D+00 -0.43855598D+00
 -0.62679959D+00 -0.83207510D+00 -0.96901156D+00 -0.88992502D+00 -0.52021960D+00
 -0.13650259D+00 -0.77609305D-02 -0.13541989D-03 -0.13631553D-04 -0.16556467D-02
 -0.47827816D-02 -0.21920612D-01 -0.64889786D-01 -0.18818227D+00 -0.39115422D+00
 -0.55955076D+00 -0.16044107D+00  0.64114402D+00  0.61992424D+00  0.13530794D+00
 -0.19585415D-02 -0.10126649D-02 -0.47242914D-02 -0.95875987D-02 -0.37575467D-01
 -0.26367595D-01  0.17171576D+00  0.53208818D+00  0.65086300D-01 -0.46512582D+00
 -0.21828353D+00 -0.11090795D-05 -0.15204600D-05  0.29150895D-05  0.61955237D-05
 -0.23420813D-04 -0.75736961D-04 -0.26340163D-04  0.25763548D-03  0.57466068D-03
 -0.38132734D-03 -0.90603351D-02  0.53754077D-03  0.15407416D-03 -0.82198201D-01
 -0.11794215D+00 -0.15616630D+00 -0.18034490D+00 -0.16721373D+00 -0.10828537D+00
 -0.38209489D-01 -0.44026448D-02  0.71925690D-05 -0.10012021D+02 -0.14365756D+02
 -0.19021588D+02 -0.21966623D+02 -0.20367202D+02 -0.13189527D+02 -0.46540459D+01
 -0.53625713D+00  0.87607941D-03  0.62270757D+01  0.89349242D+01  0.11830665D+02
  0.13662359D+02  0.12667583D+02  0.82033570D+01  0.28946300D+01  0.33353044D+00
 -0.54488628D-03  0.48531169D-03 -0.13837101D-02 -0.67540669D-02 -0.13995711D-01
 -0.17563236D-01 -0.27852133D-02  0.22545361D-01  0.19662823D-01  0.50546213D-02
  0.59669828D-01 -0.17012931D+00 -0.83042305D+00 -0.17207945D+01 -0.21594272D+01
 -0.34244632D+00  0.27719872D+01  0.24175748D+01  0.62147357D+00 -0.37192190D-01
  0.10604156D+00  0.51760248D+00  0.10725708D+01  0.13459704D+01  0.21344671D+00
 -0.17277790D+01 -0.15068738D+01 -0.38736432D+00  0.18751315D-05  0.26490712D-05
 -0.12325990D-05  0.24701400D-05  0.27116608D-05  0.73196225D-05  0.23066064D-05
 -0.49523331D-05  0.25820535D-03  0.36477674D-03 -0.16972871D-03  0.34013794D-03
  0.37339532D-03  0.10079110D-02  0.31761939D-03 -0.68193558D-03 -0.14273720D-03
 -0.20165039D-03  0.93826873D-04 -0.18802994D-03 -0.20641479D-03 -0.55717821D-03
 -0.17558157D-03  0.37697737D-03  0.17827926D-03  0.22009914D-01 -0.13838271D-01
  0.11110604D-07 -0.12525940D-03  0.59943476D-04 -0.17400357D-06 -0.87722225D-05
  0.66693093D-05  0.10210365D+01  0.10684047D+01  0.91033798D+00  0.59952638D+00
  0.27630386D+00  0.82739638D-01  0.14077448D-01 -0.12438086D+01 -0.13015116D+01
 -0.11089576D+01 -0.73033241D+00 -0.33658846D+00 -0.10079196D+00 -0.17148897D-01
  0.22277205D+00  0.23310695D+00  0.19861960D+00  0.13080602D+00  0.60284601D-01
  0.18052321D-01  0.30714494D-02 -0.44937176D-01 -0.47021913D-01 -0.40065186D-01
 -0.26385954D-01 -0.12160501D-01 -0.36414816D-02 -0.61956722D-03  0.27496949D-01
  0.28772595D-01  0.24515791D-01  0.16145501D-01  0.74409809D-02  0.22282138D-02
  0.37911168D-03  0.37489711D+01  0.39228943D+01  0.33425159D+01  0.22012994D+01
  0.10145134D+01  0.30379767D+00  0.51688598D-01  0.11365360D-02 -0.13740497D-02
  0.23751372D-03 -0.43820791D-04  0.27107855D-04  0.38077678D-02 -0.11622964D-03
  0.11050999D-03  0.57196489D-05  0.20275612D-05 -0.17034083D-05 -0.30455231D-03
 -0.13574714D-04  0.15155556D-04 -0.15808419D-05  0.17509530D-06 -0.24369917D-06
 -0.28790909D-04 -0.19964608D-05  0.40110513D-04  0.91939431D-04  0.45116336D-05
 -0.20890490D-03  0.14520432D-03  0.14777488D-05  0.88573357D-04 -0.42102261D-03
 -0.89104201D-05  0.52617727D-06 -0.97229625D-05 -0.20873017D-04 -0.91915039D-06
  0.68876407D-04 -0.54589676D-04 -0.65938141D-06 -0.39707519D-04  0.11720873D-03
  0.22852423D-05 -0.35437161D-01 -0.66049042D-01 -0.11199543D+00 -0.16949318D+00
 -0.21142938D+00 -0.18143786D+00 -0.69481063D-01 -0.34385233D-05 -0.36893098D-04
 -0.13599491D-03 -0.39764113D-03 -0.47917690D-03  0.57721935D-03 -0.31481378D-02
  0.29516961D-03  0.68380323D-04 -0.21413614D-05 -0.20764002D-05 -0.14007273D-05
  0.11307960D-12  0.10964918D-12  0.73968687D-13  0.27620880D-02  0.26782962D-02
  0.18067628D-02 -0.76791468D-06  0.36393705D-13  0.61981087D-03 -0.56287732D-05
  0.41933254D-12  0.77279659D-04 -0.85373011D-06  0.60262926D-14  0.74414682D-05
  0.28557491D-03 -0.50164671D-04 -0.23541024D-03  0.43294695D-13 -0.88642965D-05
  0.28745580D-12  0.32373508D-04  0.15424981D-03 -0.18662332D-03 -0.10822278D-13
  0.28416704D-05 -0.11312189D-12  0.25016159D-05  0.45619690D-04 -0.48121306D-04
  0.16028492D-14  0.21258671D-05 -0.17878312D-12  0.82010169D-06  0.47499340D-13
 -0.29132038D-03  0.80787343D-05  0.34276300D-13  0.43122547D-03 -0.10539039D-04
 -0.17677432D-12  0.44273566D-03 -0.11120651D-13  0.11469146D-05 -0.20622605D-13
  0.79494328D-04 -0.19131174D-05 -0.27638393D-13 -0.39919729D-04 -0.15276262D-05
  0.89506207D-13 -0.19856325D-03  0.12291246D-13
MO    2     MO 0.0        OCC NO =    2.0000158  ORB. ENERGY =    0.000000
  0.63433366D-11  0.11825257D-10  0.19986296D-10  0.30043131D-10  0.36902605D-10
  0.31144497D-10  0.11711144D-10 -0.20481933D-14 -0.15308976D-13 -0.57213140D-13
 -0.15961575D-12 -0.21384110D-12  0.25250647D-12  0.65891073D-12  0.42427756D-12
  0.30158889D-12 -0.61175751D-13 -0.57356155D-13 -0.40840999D-13 -0.58456847D-02
 -0.54807010D-02 -0.39025856D-02 -0.77751140D-12 -0.72896636D-12 -0.51906747D-12
 -0.29263646D-13 -0.19747608D-02 -0.22990400D-12 -0.14675938D-13 -0.45294103D-03
 -0.15292552D-12 -0.33231963D-15  0.16104919D-04 -0.15813671D-13 -0.60980128D-13
  0.56328459D-13  0.46516689D-14 -0.84800155D-05  0.14528761D-13  0.14553717D-02
 -0.17565433D-13  0.20850034D-13 -0.32846009D-14 -0.40470267D-05  0.68759959D-14
  0.62683389D-03 -0.86462918D-14 -0.38324673D-14  0.12478759D-13 -0.84035387D-06
  0.87865449D-15  0.13314712D-03 -0.36391711D-14  0.55479889D-04  0.10372990D-13
  0.46338846D-14 -0.14623703D-03 -0.33297349D-13  0.62836288D-14 -0.20202633D-04
  0.21783803D-14 -0.27217796D-05  0.23937128D-14 -0.45915646D-04 -0.12392972D-13
 -0.38650382D-14  0.95157237D-05  0.96467215D-14 -0.33161002D-14  0.12823121D-03
  0.27532195D-13 -0.56734677D-05  0.31203717D-01  0.58698892D-01  0.10161078D+00
  0.16655958D+00  0.26091812D+00  0.39218116D+00  0.56051908D+00  0.74408786D+00
  0.86654406D+00  0.79582047D+00  0.46520932D+00  0.12206821D+00  0.69402559D-02
  0.12110000D-03  0.12190093D-04  0.14803254D-02  0.42763188D-02  0.19599374D-01
  0.58018415D-01  0.16825510D+00  0.34973375D+00  0.50029828D+00  0.14345150D+00
 -0.57325140D+00 -0.55427864D+00 -0.12097979D+00  0.17511458D-02  0.90079784D-03
  0.42024082D-02  0.85284756D-02  0.33424579D-01  0.23454819D-01 -0.15274666D+00
 -0.47330945D+00 -0.57896345D-01  0.41374429D+00  0.19417018D+00  0.98244762D-06
  0.13468577D-05 -0.25822520D-05 -0.54881346D-05  0.20746685D-04  0.67089507D-04
  0.23332710D-04 -0.22821932D-03 -0.50904739D-03  0.33778836D-03  0.80843856D-02
 -0.40012192D-03  0.28242385D-04  0.98716444D-01  0.14164336D+00  0.18754890D+00
  0.21658634D+00  0.20081638D+00  0.13004599D+00  0.45887925D-01  0.52873838D-02
 -0.86379608D-05 -0.11511749D+02 -0.16517642D+02 -0.21870884D+02 -0.25257065D+02
 -0.23418062D+02 -0.15165223D+02 -0.53511884D+01 -0.61658458D+00  0.10073098D-02
 -0.68597688D+01 -0.98427443D+01 -0.13032703D+02 -0.15050504D+02 -0.13954655D+02
 -0.90368473D+01 -0.31887348D+01 -0.36741833D+00  0.60024867D-03 -0.58851302D-03
  0.16779555D-02  0.81903164D-02  0.16971893D-01  0.21298050D-01  0.33774877D-02
 -0.27339622D-01 -0.23844114D-01 -0.61294844D-02  0.68957492D-01 -0.19661009D+00
 -0.95967915D+00 -0.19886377D+01 -0.24955440D+01 -0.39574840D+00  0.32034495D+01
  0.27938725D+01  0.71820649D+00  0.41029469D-01 -0.11698233D+00 -0.57100577D+00
 -0.11832325D+01 -0.14848400D+01 -0.23546893D+00  0.19060414D+01  0.16623444D+01
  0.42733038D+00 -0.16789615D-05 -0.23719341D-05  0.11036486D-05 -0.22117221D-05
 -0.24279758D-05 -0.65538678D-05 -0.20652969D-05  0.44342364D-05  0.78326113D-04
  0.11065435D-03 -0.51486889D-04  0.10318021D-03  0.11326878D-03  0.30574793D-03
  0.96349252D-04 -0.20686389D-03  0.10397419D-03  0.14688838D-03 -0.68346394D-04
  0.13696682D-03  0.15035891D-03  0.40586583D-03  0.12789905D-03 -0.27460197D-03
 -0.21916558D-03  0.25436150D-01  0.15204525D-01 -0.74766343D-06  0.98629771D-04
  0.17960724D-04 -0.37701802D-07 -0.16853239D-05  0.13335756D-06 -0.11585273D+01
 -0.12122740D+01 -0.10329223D+01 -0.68025743D+00 -0.31351040D+00 -0.93881196D-01
 -0.15973090D-01  0.14140390D+01  0.14796395D+01  0.12607320D+01  0.83028735D+00
  0.38265472D+00  0.11458658D+00  0.19495934D-01 -0.25551173D+00 -0.26736549D+00
 -0.22780971D+00 -0.15002992D+00 -0.69144322D-01 -0.20705379D-01 -0.35228447D-02
 -0.50014828D-01 -0.52335129D-01 -0.44592331D-01 -0.29367421D-01 -0.13534570D-01
 -0.40529489D-02 -0.68957489D-03 -0.30384628D-01 -0.31794239D-01 -0.27090393D-01
 -0.17841072D-01 -0.82224190D-02 -0.24622167D-02 -0.41892529D-03  0.42098381D+01
  0.44051419D+01  0.37534167D+01  0.24719087D+01  0.11392291D+01  0.34114400D+00
  0.58042759D-01 -0.11862457D-02  0.13737620D-02 -0.18751635D-03 -0.47488657D-04
 -0.29598531D-04  0.40800739D-02  0.68678697D-04 -0.35324286D-04 -0.33354411D-04
  0.29361373D-05  0.21966485D-05 -0.17575612D-03 -0.38673417D-05  0.29632820D-05
  0.90405966D-06  0.14104527D-06 -0.24186702D-06 -0.18973133D-04  0.16184382D-05
  0.40020435D-04 -0.11327169D-03 -0.51839829D-05 -0.23452815D-03 -0.14316173D-03
  0.32866815D-06  0.11446685D-03  0.48297681D-03 -0.85926185D-05 -0.32785665D-06
  0.30766410D-05  0.20651447D-04  0.13352357D-05  0.40932909D-04  0.31484247D-04
 -0.35166578D-06 -0.50162832D-04 -0.93438588D-04  0.20278464D-05 -0.31203717D-01
 -0.58698892D-01 -0.10161078D+00 -0.16655958D+00 -0.26091812D+00 -0.39218116D+00
 -0.56051908D+00 -0.74408786D+00 -0.86654406D+00 -0.79582047D+00 -0.46520932D+00
 -0.12206821D+00 -0.69402559D-02 -0.12110000D-03 -0.12190093D-04 -0.14803254D-02
 -0.42763188D-02 -0.19599374D-01 -0.58018415D-01 -0.16825510D+00 -0.34973375D+00
 -0.50029828D+00 -0.14345150D+00  0.57325140D+00  0.55427864D+00  0.12097979D+00
 -0.17511458D-02 -0.90079784D-03 -0.42024082D-02 -0.85284756D-02 -0.33424579D-01
 -0.23454819D-01  0.15274666D+00  0.47330945D+00  0.57896345D-01 -0.41374429D+00
 -0.19417018D+00 -0.98244762D-06 -0.13468577D-05  0.25822520D-05  0.54881346D-05
 -0.20746685D-04 -0.67089507D-04 -0.23332710D-04  0.22821932D-03  0.50904739D-03
 -0.33778836D-03 -0.80843856D-02  0.40012192D-03 -0.28242385D-04 -0.98716437D-01
 -0.14164335D+00 -0.18754889D+00 -0.21658632D+00 -0.20081637D+00 -0.13004598D+00
 -0.45887922D-01 -0.52873835D-02  0.86379602D-05 -0.11511749D+02 -0.16517642D+02
 -0.21870884D+02 -0.25257065D+02 -0.23418062D+02 -0.15165223D+02 -0.53511884D+01
 -0.61658458D+00  0.10073098D-02  0.68597688D+01  0.98427443D+01  0.13032703D+02
  0.15050503D+02  0.13954655D+02  0.90368473D+01  0.31887348D+01  0.36741832D+00
 -0.60024867D-03  0.58851301D-03 -0.16779554D-02 -0.81903162D-02 -0.16971893D-01