 br2co-wavefunction
GAUSSIAN            210 MOL ORBITALS    578 PRIMITIVES        4 NUCLEI
  C    1    (CENTRE  1)   0.00000000  0.00000000 -0.94818709  CHARGE =  6.0
  Br   2    (CENTRE  2)   0.00000000 -3.01256550 -2.92306618  CHARGE = 35.0
  Br   3    (CENTRE  3)   0.00000000  3.01256550 -2.92306618  CHARGE = 35.0
  O    4    (CENTRE  4)   0.00000000  0.00000000  1.29351754  CHARGE =  8.0
CENTRE ASSIGNMENTS    1  1  1  1  1  1  1  1  1  1  1  1  1  1  1  1  1  1  1  1
CENTRE ASSIGNMENTS    1  1  1  1  1  1  1  1  1  1  1  1  1  1  1  1  1  1  1  1
CENTRE ASSIGNMENTS    1  1  1  1  1  1  1  1  1  1  1  1  1  1  1  1  1  1  1  1
CENTRE ASSIGNMENTS    1  1  1  1  1  1  1  1  1  1  1  1  2  2  2  2  2  2  2  2
CENTRE ASSIGNMENTS    2  2  2  2  2  2  2  2  2  2  2  2  2  2  2  2  2  2  2  2
CENTRE ASSIGNMENTS    2  2  2  2  2  2  2  2  2  2  2  2  2  2  2  2  2  2  2  2
CENTRE ASSIGNMENTS    2  2  2  2  2  2  2  2  2  2  2  2  2  2  2  2  2  2  2  2
CENTRE ASSIGNMENTS    2  2  2  2  2  2  2  2  2  2  2  2  2  2  2  2  2  2  2  2
CENTRE ASSIGNMENTS    2  2  2  2  2  2  2  2  2  2  2  2  2  2  2  2  2  2  2  2
CENTRE ASSIGNMENTS    2  2  2  2  2  2  2  2  2  2  2  2  2  2  2  2  2  2  2  2
CENTRE ASSIGNMENTS    2  2  2  2  2  2  2  2  2  2  2  2  2  2  2  2  2  2  2  2
CENTRE ASSIGNMENTS    2  2  2  2  2  2  2  2  2  2  2  2  2  2  2  2  2  2  2  2
CENTRE ASSIGNMENTS    2  2  2  2  2  2  2  2  2  2  2  2  2  2  2  2  2  2  2  2
CENTRE ASSIGNMENTS    2  2  2  2  2  2  2  2  2  2  2  2  2  2  2  2  2  2  2  2
CENTRE ASSIGNMENTS    2  2  2  2  2  2  2  2  2  3  3  3  3  3  3  3  3  3  3  3
CENTRE ASSIGNMENTS    3  3  3  3  3  3  3  3  3  3  3  3  3  3  3  3  3  3  3  3
CENTRE ASSIGNMENTS    3  3  3  3  3  3  3  3  3  3  3  3  3  3  3  3  3  3  3  3
CENTRE ASSIGNMENTS    3  3  3  3  3  3  3  3  3  3  3  3  3  3  3  3  3  3  3  3
CENTRE ASSIGNMENTS    3  3  3  3  3  3  3  3  3  3  3  3  3  3  3  3  3  3  3  3
CENTRE ASSIGNMENTS    3  3  3  3  3  3  3  3  3  3  3  3  3  3  3  3  3  3  3  3
CENTRE ASSIGNMENTS    3  3  3  3  3  3  3  3  3  3  3  3  3  3  3  3  3  3  3  3
CENTRE ASSIGNMENTS    3  3  3  3  3  3  3  3  3  3  3  3  3  3  3  3  3  3  3  3
CENTRE ASSIGNMENTS    3  3  3  3  3  3  3  3  3  3  3  3  3  3  3  3  3  3  3  3
CENTRE ASSIGNMENTS    3  3  3  3  3  3  3  3  3  3  3  3  3  3  3  3  3  3  3  3
CENTRE ASSIGNMENTS    3  3  3  3  3  3  3  3  3  3  3  3  3  3  3  3  3  3  3  3
CENTRE ASSIGNMENTS    3  3  3  3  3  3  4  4  4  4  4  4  4  4  4  4  4  4  4  4
CENTRE ASSIGNMENTS    4  4  4  4  4  4  4  4  4  4  4  4  4  4  4  4  4  4  4  4
CENTRE ASSIGNMENTS    4  4  4  4  4  4  4  4  4  4  4  4  4  4  4  4  4  4  4  4
CENTRE ASSIGNMENTS    4  4  4  4  4  4  4  4  4  4  4  4  4  4  4  4  4  4
TYPE ASSIGNMENTS      1  1  1  1  1  1  1  1  1  1  1  1  1  1  1  1  2  2  2  3
TYPE ASSIGNMENTS      3  3  4  4  4  2  3  4  2  3  4  2  3  4  5  6  7  8  9 10
TYPE ASSIGNMENTS      5  6  7  8  9 10  5  6  7  8  9 10 11 12 13 17 14 15 18 19
TYPE ASSIGNMENTS     16 20 11 12 13 17 14 15 18 19 16 20  1  1  1  1  1  1  1  1
TYPE ASSIGNMENTS      1  1  1  1  1  1  1  1  1  1  1  1  1  1  1  1  1  1  1  1
TYPE ASSIGNMENTS      1  1  1  1  1  1  1  1  1  1  1  1  1  1  1  1  1  1  1  1
TYPE ASSIGNMENTS      1  1  2  2  2  2  2  2  2  2  2  3  3  3  3  3  3  3  3  3
TYPE ASSIGNMENTS      4  4  4  4  4  4  4  4  4  2  2  2  2  2  2  2  2  2  3  3
TYPE ASSIGNMENTS      3  3  3  3  3  3  3  4  4  4  4  4  4  4  4  4  2  2  2  2
TYPE ASSIGNMENTS      2  2  2  2  3  3  3  3  3  3  3  3  4  4  4  4  4  4  4  4
TYPE ASSIGNMENTS      2  3  4  2  3  4  2  3  4  5  5  5  5  5  5  5  6  6  6  6
TYPE ASSIGNMENTS      6  6  6  7  7  7  7  7  7  7  8  8  8  8  8  8  8  9  9  9
TYPE ASSIGNMENTS      9  9  9  9 10 10 10 10 10 10 10  5  6  7  8  9 10  5  6  7
TYPE ASSIGNMENTS      8  9 10  5  6  7  8  9 10 11 12 13 17 14 15 18 19 16 20 11
TYPE ASSIGNMENTS     12 13 17 14 15 18 19 16 20  1  1  1  1  1  1  1  1  1  1  1
TYPE ASSIGNMENTS      1  1  1  1  1  1  1  1  1  1  1  1  1  1  1  1  1  1  1  1
TYPE ASSIGNMENTS      1  1  1  1  1  1  1  1  1  1  1  1  1  1  1  1  1  1  1  2
TYPE ASSIGNMENTS      2  2  2  2  2  2  2  2  3  3  3  3  3  3  3  3  3  4  4  4
TYPE ASSIGNMENTS      4  4  4  4  4  4  2  2  2  2  2  2  2  2  2  3  3  3  3  3
TYPE ASSIGNMENTS      3  3  3  3  4  4  4  4  4  4  4  4  4  2  2  2  2  2  2  2
TYPE ASSIGNMENTS      2  3  3  3  3  3  3  3  3  4  4  4  4  4  4  4  4  2  3  4
TYPE ASSIGNMENTS      2  3  4  2  3  4  5  5  5  5  5  5  5  6  6  6  6  6  6  6
TYPE ASSIGNMENTS      7  7  7  7  7  7  7  8  8  8  8  8  8  8  9  9  9  9  9  9
TYPE ASSIGNMENTS      9 10 10 10 10 10 10 10  5  6  7  8  9 10  5  6  7  8  9 10
TYPE ASSIGNMENTS      5  6  7  8  9 10 11 12 13 17 14 15 18 19 16 20 11 12 13 17
TYPE ASSIGNMENTS     14 15 18 19 16 20  1  1  1  1  1  1  1  1  1  1  1  1  1  1
TYPE ASSIGNMENTS      1  1  2  2  2  3  3  3  4  4  4  2  3  4  2  3  4  2  3  4
TYPE ASSIGNMENTS      5  6  7  8  9 10  5  6  7  8  9 10  5  6  7  8  9 10 11 12
TYPE ASSIGNMENTS     13 17 14 15 18 19 16 20 11 12 13 17 14 15 18 19 16 20
EXPONENTS  0.8236000D+04 0.1235000D+04 0.2808000D+03 0.7927000D+02 0.2559000D+02
EXPONENTS  0.8997000D+01 0.3319000D+01 0.2808000D+03 0.7927000D+02 0.2559000D+02
EXPONENTS  0.8997000D+01 0.3319000D+01 0.3643000D+00 0.9059000D+00 0.1285000D+00
EXPONENTS  0.4402000D-01 0.1871000D+02 0.4133000D+01 0.1200000D+01 0.1871000D+02
EXPONENTS  0.4133000D+01 0.1200000D+01 0.1871000D+02 0.4133000D+01 0.1200000D+01
EXPONENTS  0.3827000D+00 0.3827000D+00 0.3827000D+00 0.1209000D+00 0.1209000D+00
EXPONENTS  0.1209000D+00 0.3569000D-01 0.3569000D-01 0.3569000D-01 0.1097000D+01
EXPONENTS  0.1097000D+01 0.1097000D+01 0.1097000D+01 0.1097000D+01 0.1097000D+01
EXPONENTS  0.3180000D+00 0.3180000D+00 0.3180000D+00 0.3180000D+00 0.3180000D+00
EXPONENTS  0.3180000D+00 0.1000000D+00 0.1000000D+00 0.1000000D+00 0.1000000D+00
EXPONENTS  0.1000000D+00 0.1000000D+00 0.7610000D+00 0.7610000D+00 0.7610000D+00
EXPONENTS  0.7610000D+00 0.7610000D+00 0.7610000D+00 0.7610000D+00 0.7610000D+00
EXPONENTS  0.7610000D+00 0.7610000D+00 0.2680000D+00 0.2680000D+00 0.2680000D+00
EXPONENTS  0.2680000D+00 0.2680000D+00 0.2680000D+00 0.2680000D+00 0.2680000D+00
EXPONENTS  0.2680000D+00 0.2680000D+00 0.1063900D+08 0.1593400D+07 0.3626100D+06
EXPONENTS  0.1027000D+06 0.3350100D+05 0.1209300D+05 0.4715900D+04 0.1955600D+04
EXPONENTS  0.8526100D+03 0.3876700D+03 0.1826800D+03 0.8824500D+02 0.3926300D+02
EXPONENTS  0.9405700D+01 0.1899500D+01 0.3350100D+05 0.1209300D+05 0.4715900D+04
EXPONENTS  0.1955600D+04 0.8526100D+03 0.3876700D+03 0.1826800D+03 0.8824500D+02
EXPONENTS  0.3926300D+02 0.1923400D+02 0.9405700D+01 0.1899500D+01 0.4715900D+04
EXPONENTS  0.8526100D+03 0.3876700D+03 0.1826800D+03 0.8824500D+02 0.3926300D+02
EXPONENTS  0.1923400D+02 0.9405700D+01 0.4160100D+01 0.1899500D+01 0.4715900D+04
EXPONENTS  0.8526100D+03 0.3876700D+03 0.8824500D+02 0.3926300D+02 0.1923400D+02
EXPONENTS  0.9405700D+01 0.4160100D+01 0.1899500D+01 0.3011400D+00 0.6047200D+00
EXPONENTS  0.1251500D+00 0.4559300D-01 0.8676500D+04 0.2055900D+04 0.6662300D+03
EXPONENTS  0.2531000D+03 0.1061200D+03 0.4724200D+02 0.2182500D+02 0.9968400D+01
EXPONENTS  0.1998200D+01 0.8676500D+04 0.2055900D+04 0.6662300D+03 0.2531000D+03
EXPONENTS  0.1061200D+03 0.4724200D+02 0.2182500D+02 0.9968400D+01 0.1998200D+01
EXPONENTS  0.8676500D+04 0.2055900D+04 0.6662300D+03 0.2531000D+03 0.1061200D+03
EXPONENTS  0.4724200D+02 0.2182500D+02 0.9968400D+01 0.1998200D+01 0.8676500D+04
EXPONENTS  0.6662300D+03 0.2531000D+03 0.1061200D+03 0.4724200D+02 0.2182500D+02
EXPONENTS  0.9968400D+01 0.4517100D+01 0.1998200D+01 0.8676500D+04 0.6662300D+03
EXPONENTS  0.2531000D+03 0.1061200D+03 0.4724200D+02 0.2182500D+02 0.9968400D+01
EXPONENTS  0.4517100D+01 0.1998200D+01 0.8676500D+04 0.6662300D+03 0.2531000D+03
EXPONENTS  0.1061200D+03 0.4724200D+02 0.2182500D+02 0.9968400D+01 0.4517100D+01
EXPONENTS  0.1998200D+01 0.6662300D+03 0.1061200D+03 0.4724200D+02 0.2182500D+02
EXPONENTS  0.9968400D+01 0.4517100D+01 0.1998200D+01 0.2814500D+00 0.6662300D+03
EXPONENTS  0.1061200D+03 0.4724200D+02 0.2182500D+02 0.9968400D+01 0.4517100D+01
EXPONENTS  0.1998200D+01 0.2814500D+00 0.6662300D+03 0.1061200D+03 0.4724200D+02
EXPONENTS  0.2182500D+02 0.9968400D+01 0.4517100D+01 0.1998200D+01 0.2814500D+00
EXPONENTS  0.7098800D+00 0.7098800D+00 0.7098800D+00 0.1020400D+00 0.1020400D+00
EXPONENTS  0.1020400D+00 0.3514200D-01 0.3514200D-01 0.3514200D-01 0.4038300D+03
EXPONENTS  0.1211700D+03 0.4634500D+02 0.1972100D+02 0.8862400D+01 0.3996200D+01
EXPONENTS  0.1763600D+01 0.4038300D+03 0.1211700D+03 0.4634500D+02 0.1972100D+02
EXPONENTS  0.8862400D+01 0.3996200D+01 0.1763600D+01 0.4038300D+03 0.1211700D+03
EXPONENTS  0.4634500D+02 0.1972100D+02 0.8862400D+01 0.3996200D+01 0.1763600D+01
EXPONENTS  0.4038300D+03 0.1211700D+03 0.4634500D+02 0.1972100D+02 0.8862400D+01
EXPONENTS  0.3996200D+01 0.1763600D+01 0.4038300D+03 0.1211700D+03 0.4634500D+02
EXPONENTS  0.1972100D+02 0.8862400D+01 0.3996200D+01 0.1763600D+01 0.4038300D+03
EXPONENTS  0.1211700D+03 0.4634500D+02 0.1972100D+02 0.8862400D+01 0.3996200D+01
EXPONENTS  0.1763600D+01 0.7061900D+00 0.7061900D+00 0.7061900D+00 0.7061900D+00
EXPONENTS  0.7061900D+00 0.7061900D+00 0.2639000D+00 0.2639000D+00 0.2639000D+00
EXPONENTS  0.2639000D+00 0.2639000D+00 0.2639000D+00 0.1047000D+00 0.1047000D+00
EXPONENTS  0.1047000D+00 0.1047000D+00 0.1047000D+00 0.1047000D+00 0.5515000D+00
EXPONENTS  0.5515000D+00 0.5515000D+00 0.5515000D+00 0.5515000D+00 0.5515000D+00
EXPONENTS  0.5515000D+00 0.5515000D+00 0.5515000D+00 0.5515000D+00 0.2580000D+00
EXPONENTS  0.2580000D+00 0.2580000D+00 0.2580000D+00 0.2580000D+00 0.2580000D+00
EXPONENTS  0.2580000D+00 0.2580000D+00 0.2580000D+00 0.2580000D+00 0.1063900D+08
EXPONENTS  0.1593400D+07 0.3626100D+06 0.1027000D+06 0.3350100D+05 0.1209300D+05
EXPONENTS  0.4715900D+04 0.1955600D+04 0.8526100D+03 0.3876700D+03 0.1826800D+03
EXPONENTS  0.8824500D+02 0.3926300D+02 0.9405700D+01 0.1899500D+01 0.3350100D+05
EXPONENTS  0.1209300D+05 0.4715900D+04 0.1955600D+04 0.8526100D+03 0.3876700D+03
EXPONENTS  0.1826800D+03 0.8824500D+02 0.3926300D+02 0.1923400D+02 0.9405700D+01
EXPONENTS  0.1899500D+01 0.4715900D+04 0.8526100D+03 0.3876700D+03 0.1826800D+03
EXPONENTS  0.8824500D+02 0.3926300D+02 0.1923400D+02 0.9405700D+01 0.4160100D+01
EXPONENTS  0.1899500D+01 0.4715900D+04 0.8526100D+03 0.3876700D+03 0.8824500D+02
EXPONENTS  0.3926300D+02 0.1923400D+02 0.9405700D+01 0.4160100D+01 0.1899500D+01
EXPONENTS  0.3011400D+00 0.6047200D+00 0.1251500D+00 0.4559300D-01 0.8676500D+04
EXPONENTS  0.2055900D+04 0.6662300D+03 0.2531000D+03 0.1061200D+03 0.4724200D+02
EXPONENTS  0.2182500D+02 0.9968400D+01 0.1998200D+01 0.8676500D+04 0.2055900D+04
EXPONENTS  0.6662300D+03 0.2531000D+03 0.1061200D+03 0.4724200D+02 0.2182500D+02
EXPONENTS  0.9968400D+01 0.1998200D+01 0.8676500D+04 0.2055900D+04 0.6662300D+03
EXPONENTS  0.2531000D+03 0.1061200D+03 0.4724200D+02 0.2182500D+02 0.9968400D+01
EXPONENTS  0.1998200D+01 0.8676500D+04 0.6662300D+03 0.2531000D+03 0.1061200D+03
EXPONENTS  0.4724200D+02 0.2182500D+02 0.9968400D+01 0.4517100D+01 0.1998200D+01
EXPONENTS  0.8676500D+04 0.6662300D+03 0.2531000D+03 0.1061200D+03 0.4724200D+02
EXPONENTS  0.2182500D+02 0.9968400D+01 0.4517100D+01 0.1998200D+01 0.8676500D+04
EXPONENTS  0.6662300D+03 0.2531000D+03 0.1061200D+03 0.4724200D+02 0.2182500D+02
EXPONENTS  0.9968400D+01 0.4517100D+01 0.1998200D+01 0.6662300D+03 0.1061200D+03
EXPONENTS  0.4724200D+02 0.2182500D+02 0.9968400D+01 0.4517100D+01 0.1998200D+01
EXPONENTS  0.2814500D+00 0.6662300D+03 0.1061200D+03 0.4724200D+02 0.2182500D+02
EXPONENTS  0.9968400D+01 0.4517100D+01 0.1998200D+01 0.2814500D+00 0.6662300D+03
EXPONENTS  0.1061200D+03 0.4724200D+02 0.2182500D+02 0.9968400D+01 0.4517100D+01
EXPONENTS  0.1998200D+01 0.2814500D+00 0.7098800D+00 0.7098800D+00 0.7098800D+00
EXPONENTS  0.1020400D+00 0.1020400D+00 0.1020400D+00 0.3514200D-01 0.3514200D-01
EXPONENTS  0.3514200D-01 0.4038300D+03 0.1211700D+03 0.4634500D+02 0.1972100D+02
EXPONENTS  0.8862400D+01 0.3996200D+01 0.1763600D+01 0.4038300D+03 0.1211700D+03
EXPONENTS  0.4634500D+02 0.1972100D+02 0.8862400D+01 0.3996200D+01 0.1763600D+01
EXPONENTS  0.4038300D+03 0.1211700D+03 0.4634500D+02 0.1972100D+02 0.8862400D+01
EXPONENTS  0.3996200D+01 0.1763600D+01 0.4038300D+03 0.1211700D+03 0.4634500D+02
EXPONENTS  0.1972100D+02 0.8862400D+01 0.3996200D+01 0.1763600D+01 0.4038300D+03
EXPONENTS  0.1211700D+03 0.4634500D+02 0.1972100D+02 0.8862400D+01 0.3996200D+01
EXPONENTS  0.1763600D+01 0.4038300D+03 0.1211700D+03 0.4634500D+02 0.1972100D+02
EXPONENTS  0.8862400D+01 0.3996200D+01 0.1763600D+01 0.7061900D+00 0.7061900D+00
EXPONENTS  0.7061900D+00 0.7061900D+00 0.7061900D+00 0.7061900D+00 0.2639000D+00
EXPONENTS  0.2639000D+00 0.2639000D+00 0.2639000D+00 0.2639000D+00 0.2639000D+00
EXPONENTS  0.1047000D+00 0.1047000D+00 0.1047000D+00 0.1047000D+00 0.1047000D+00
EXPONENTS  0.1047000D+00 0.5515000D+00 0.5515000D+00 0.5515000D+00 0.5515000D+00
EXPONENTS  0.5515000D+00 0.5515000D+00 0.5515000D+00 0.5515000D+00 0.5515000D+00
EXPONENTS  0.5515000D+00 0.2580000D+00 0.2580000D+00 0.2580000D+00 0.2580000D+00
EXPONENTS  0.2580000D+00 0.2580000D+00 0.2580000D+00 0.2580000D+00 0.2580000D+00
EXPONENTS  0.2580000D+00 0.1533000D+05 0.2299000D+04 0.5224000D+03 0.1473000D+03
EXPONENTS  0.4755000D+02 0.1676000D+02 0.6207000D+01 0.5224000D+03 0.1473000D+03
EXPONENTS  0.4755000D+02 0.1676000D+02 0.6207000D+01 0.6882000D+00 0.1752000D+01
EXPONENTS  0.2384000D+00 0.7376000D-01 0.3446000D+02 0.7749000D+01 0.2280000D+01
EXPONENTS  0.3446000D+02 0.7749000D+01 0.2280000D+01 0.3446000D+02 0.7749000D+01
EXPONENTS  0.2280000D+01 0.7156000D+00 0.7156000D+00 0.7156000D+00 0.2140000D+00
EXPONENTS  0.2140000D+00 0.2140000D+00 0.5974000D-01 0.5974000D-01 0.5974000D-01
EXPONENTS  0.2314000D+01 0.2314000D+01 0.2314000D+01 0.2314000D+01 0.2314000D+01
EXPONENTS  0.2314000D+01 0.6450000D+00 0.6450000D+00 0.6450000D+00 0.6450000D+00
EXPONENTS  0.6450000D+00 0.6450000D+00 0.2140000D+00 0.2140000D+00 0.2140000D+00
EXPONENTS  0.2140000D+00 0.2140000D+00 0.2140000D+00 0.1428000D+01 0.1428000D+01
EXPONENTS  0.1428000D+01 0.1428000D+01 0.1428000D+01 0.1428000D+01 0.1428000D+01
EXPONENTS  0.1428000D+01 0.1428000D+01 0.1428000D+01 0.5000000D+00 0.5000000D+00
EXPONENTS  0.5000000D+00 0.5000000D+00 0.5000000D+00 0.5000000D+00 0.5000000D+00
EXPONENTS  0.5000000D+00 0.5000000D+00 0.5000000D+00
MO    1     MO 0.0        OCC NO =    2.0000168  ORB. ENERGY =    0.000000
  0.12188465D+00  0.22721755D+00  0.38402861D+00  0.57726663D+00  0.70906866D+00
  0.59842894D+00  0.22502491D+00  0.29346511D-04  0.21934699D-03  0.81974979D-03
  0.22869743D-02  0.30639150D-02 -0.36179123D-02  0.93115336D-02 -0.20177454D-02
 -0.31423451D-03  0.35330436D-13  0.33124529D-13  0.23586638D-13 -0.27011596D-12
 -0.25325089D-12 -0.18032972D-12  0.36974857D-02  0.34666279D-02  0.24684456D-02
 -0.17262023D-14 -0.12822263D-12  0.19990649D-02 -0.92632258D-15 -0.70302250D-12
  0.38827809D-03 -0.64792350D-15 -0.16563067D-13  0.51168200D-05 -0.89424891D-04
 -0.49601315D-03  0.58543804D-03  0.17524900D-13 -0.15113052D-13 -0.10548677D-12
  0.33547143D-03 -0.32538264D-03 -0.10088797D-04  0.17036250D-13 -0.10689029D-13
 -0.37712579D-13  0.31115639D-04 -0.19451581D-04 -0.11664058D-04 -0.25222912D-14
 -0.26437803D-14  0.95439349D-13  0.24807083D-15  0.15742041D-13  0.12039794D-03
  0.22763998D-14 -0.98461962D-13 -0.16130720D-03 -0.30206122D-14  0.51235839D-13
 -0.19988663D-03  0.83636802D-14  0.21288622D-15 -0.91106534D-14 -0.13916683D-04
  0.68468196D-17  0.65567903D-13  0.26048453D-05 -0.64550547D-15 -0.38235943D-13
  0.39145203D-04 -0.53365594D-14 -0.34359119D-01 -0.64634679D-01 -0.11188593D+00
 -0.18340252D+00 -0.28730285D+00 -0.43183956D+00 -0.61720025D+00 -0.81933198D+00
 -0.95417129D+00 -0.87629594D+00 -0.51225251D+00 -0.13441207D+00 -0.76420729D-02
 -0.13334595D-03 -0.13422787D-04 -0.16300948D-02 -0.47089683D-02 -0.21582308D-01
 -0.63888332D-01 -0.18527803D+00 -0.38511748D+00 -0.55091513D+00 -0.15796496D+00
  0.63124916D+00  0.61035686D+00  0.13321971D+00 -0.19283151D-02 -0.99649400D-03
 -0.46488506D-02 -0.94344973D-02 -0.36975436D-01 -0.25946539D-01  0.16897368D+00
  0.52359143D+00  0.64046957D-01 -0.45769837D+00 -0.21479783D+00 -0.10968773D-05
 -0.15037317D-05  0.28830174D-05  0.61273600D-05 -0.23163135D-04 -0.74903695D-04
 -0.26050366D-04  0.25480095D-03  0.56833820D-03 -0.37713194D-03 -0.89384883D-02
  0.55820943D-03  0.15704978D-03  0.60752549D-08  0.87170839D-08  0.11542225D-07
  0.13329260D-07  0.12358738D-07  0.80033529D-08  0.28240568D-08  0.32539872D-09
 -0.53160154D-12  0.10112757D+02  0.14510297D+02  0.19212974D+02  0.22187641D+02
  0.20572127D+02  0.13322234D+02  0.47008728D+01  0.54165270D+00 -0.88489411D-03
  0.62478131D+01  0.89646793D+01  0.11870064D+02  0.13707858D+02  0.12709769D+02
  0.82306759D+01  0.29042697D+01  0.33464117D+00 -0.54670086D-03 -0.43962131D-11
  0.12534387D-10  0.61181953D-10  0.12678064D-09  0.15909719D-09  0.25229953D-10
 -0.20422794D-09 -0.17811638D-09 -0.45787466D-10 -0.60263565D-01  0.17182216D+00
  0.83868606D+00  0.17379170D+01  0.21809143D+01  0.34585378D+00 -0.27995695D+01
 -0.24416305D+01 -0.62765746D+00 -0.37316549D-01  0.10639613D+00  0.51933319D+00
  0.10761571D+01  0.13504710D+01  0.21416041D+00 -0.17335561D+01 -0.15119123D+01
 -0.38865956D+00  0.16157139D-14  0.22825819D-14 -0.10620734D-14  0.21284052D-14
  0.23365125D-14  0.63069795D-14  0.19874959D-14 -0.42671959D-14 -0.26011123D-03
 -0.36746925D-03  0.17098152D-03 -0.34264859D-03 -0.37615145D-03 -0.10153507D-02
 -0.31996382D-03  0.68696913D-03 -0.14168325D-03 -0.20016144D-03  0.93134071D-04
 -0.18664156D-03 -0.20489065D-03 -0.55306410D-03 -0.17428511D-03  0.37419383D-03
 -0.16007603D-11 -0.22234881D-01 -0.13884544D-01 -0.20955459D-13  0.12811997D-03
  0.60792137D-04  0.61788715D-15  0.89423567D-05  0.66884957D-05  0.10572408D+01
  0.11062886D+01  0.94261712D+00  0.62078463D+00  0.28610116D+00  0.85673454D-01
  0.14576612D-01 -0.13120764D+01 -0.13729466D+01 -0.11698240D+01 -0.77041753D+00
 -0.35506250D+00 -0.10632404D+00 -0.18090134D-01  0.25483558D+00  0.26665797D+00
  0.22720687D+00  0.14963290D+00  0.68961348D-01  0.20650587D-01  0.35135223D-02
 -0.41801959D-10 -0.43741246D-10 -0.37269883D-10 -0.24545035D-10 -0.11312076D-10
 -0.33874195D-11 -0.57634070D-12  0.97059759D-10  0.10156258D-09  0.86536754D-10
  0.56990995D-10  0.26265453D-10  0.78652323D-11  0.13382026D-11 -0.38274777D+01
 -0.40050430D+01 -0.34125110D+01 -0.22473965D+01 -0.10357581D+01 -0.31015945D+00
 -0.52771000D-01  0.11683441D-02 -0.14359935D-02  0.26764932D-03 -0.40706554D-13
  0.68686258D-13 -0.38729654D-02 -0.11681359D-03  0.11212240D-03  0.46911910D-05
  0.34125453D-14  0.23554418D-14  0.30472321D-03 -0.13799118D-04  0.15484180D-04
 -0.16850625D-05 -0.17610698D-14 -0.10190080D-14  0.29151029D-04  0.20195476D-14
 -0.43302932D-04  0.94240877D-04 -0.59866614D-14  0.21459113D-03  0.14696486D-03
 -0.71981427D-16 -0.84682331D-04 -0.42968749D-03 -0.11894174D-13 -0.13773145D-15
  0.10432449D-04 -0.21186106D-04  0.30710900D-15 -0.69835457D-04 -0.54672093D-04
  0.10608536D-15  0.38538110D-04  0.11823041D-03  0.13590421D-14 -0.34359120D-01
 -0.64634679D-01 -0.11188593D+00 -0.18340252D+00 -0.28730285D+00 -0.43183956D+00
 -0.61720025D+00 -0.81933199D+00 -0.95417129D+00 -0.87629594D+00 -0.51225252D+00
 -0.13441207D+00 -0.76420729D-02 -0.13334595D-03 -0.13422787D-04 -0.16300948D-02
 -0.47089683D-02 -0.21582308D-01 -0.63888332D-01 -0.18527803D+00 -0.38511748D+00
 -0.55091513D+00 -0.15796496D+00  0.63124916D+00  0.61035686D+00  0.13321971D+00
 -0.19283151D-02 -0.99649400D-03 -0.46488506D-02 -0.94344973D-02 -0.36975436D-01
 -0.25946539D-01  0.16897368D+00  0.52359143D+00  0.64046957D-01 -0.45769837D+00
 -0.21479783D+00 -0.10968773D-05 -0.15037317D-05  0.28830174D-05  0.61273600D-05
 -0.23163135D-04 -0.74903695D-04 -0.26050366D-04  0.25480095D-03  0.56833821D-03
 -0.37713194D-03 -0.89384883D-02  0.55820943D-03  0.15704978D-03  0.12302356D-08
  0.17652044D-08  0.23372938D-08  0.26991675D-08  0.25026373D-08  0.16206743D-08
  0.57186985D-09  0.65893051D-10 -0.10764900D-12 -0.10112757D+02 -0.14510297D+02
 -0.19212974D+02 -0.22187641D+02 -0.20572127D+02 -0.13322234D+02 -0.47008728D+01
 -0.54165270D+00  0.88489411D-03  0.62478131D+01  0.89646793D+01  0.11870064D+02
  0.13707858D+02  0.12709769D+02  0.82306759D+01  0.29042697D+01  0.33464117D+00
 -0.54670086D-03  0.76759498D-11 -0.21885500D-10 -0.10682594D-09 -0.22136366D-09
 -0.27778955D-09 -0.44052426D-10  0.35658951D-09  0.31099775D-09  0.79946600D-10
  0.60263565D-01 -0.17182216D+00 -0.83868606D+00 -0.17379170D+01 -0.21809143D+01
 -0.34585378D+00  0.27995695D+01  0.24416305D+01  0.62765745D+00 -0.37316549D-01
  0.10639613D+00  0.51933319D+00  0.10761571D+01  0.13504710D+01  0.21416041D+00
 -0.17335561D+01 -0.15119123D+01 -0.38865956D+00 -0.11759313D-13 -0.16612839D-13
  0.77298670D-14 -0.15490726D-13 -0.17005350D-13 -0.45902771D-13 -0.14465176D-13
  0.31057040D-13  0.26011123D-03  0.36746925D-03 -0.17098152D-03  0.34264859D-03
  0.37615145D-03  0.10153507D-02  0.31996382D-03 -0.68696913D-03 -0.14168325D-03
 -0.20016144D-03  0.93134071D-04 -0.18664156D-03 -0.20489065D-03 -0.55306410D-03
 -0.17428511D-03  0.37419383D-03  0.26223785D-11  0.22234881D-01 -0.13884544D-01
  0.26490654D-13 -0.12811997D-03  0.60792137D-04 -0.30465887D-15 -0.89423567D-05
  0.66884957D-05  0.10572408D+01  0.11062886D+01  0.94261712D+00  0.62078463D+00
  0.28610116D+00  0.85673454D-01  0.14576612D-01 -0.13120764D+01 -0.13729466D+01
 -0.11698240D+01 -0.77041753D+00 -0.35506250D+00 -0.10632404D+00 -0.18090134D-01
  0.25483558D+00  0.26665797D+00  0.22720687D+00  0.14963290D+00  0.68961348D-01
  0.20650587D-01  0.35135224D-02 -0.46045007D-10 -0.48181139D-10 -0.41052909D-10
 -0.27036444D-10 -0.12460292D-10 -0.37312547D-11 -0.63484135D-12  0.91745104D-10
  0.96001366D-10  0.81798302D-10  0.53870366D-10  0.24827248D-10  0.74345595D-11
  0.12649273D-11  0.38274777D+01  0.40050430D+01  0.34125110D+01  0.22473965D+01
  0.10357581D+01  0.31015945D+00  0.52771000D-01  0.11683441D-02 -0.14359935D-02
  0.26764932D-03 -0.50246117D-13  0.81964888D-13  0.38729654D-02 -0.11681359D-03
  0.11212240D-03  0.46911911D-05  0.33463831D-14 -0.14986112D-14 -0.30472321D-03
 -0.13799118D-04  0.15484180D-04 -0.16850625D-05 -0.61750631D-15  0.10970322D-14
 -0.29151029D-04 -0.52000622D-14  0.43302931D-04  0.94240877D-04  0.16735573D-13
 -0.21459113D-03  0.14696486D-03 -0.11353865D-14  0.84682331D-04 -0.42968749D-03
 -0.28402962D-13  0.58390087D-15 -0.10432449D-04 -0.21186106D-04 -0.26705877D-14
  0.69835457D-04 -0.54672093D-04  0.91888514D-15 -0.38538110D-04  0.11823041D-03
  0.30014837D-14 -0.34007659D-01 -0.63384684D-01 -0.10747764D+00 -0.16265598D+00
 -0.20290051D+00 -0.17411883D+00 -0.66678260D-01 -0.32621731D-05 -0.35000977D-04
 -0.12902019D-03 -0.37724747D-03 -0.45460154D-03  0.54761573D-03 -0.30139071D-02
  0.28316366D-03  0.67580371D-04 -0.49746406D-13 -0.48237280D-13 -0.32540584D-13
  0.54928706D-12  0.53262368D-12  0.35930479D-12  0.25580130D-02  0.24804121D-02
  0.16732714D-02 -0.15964331D-13  0.13815723D-12  0.58800442D-03  0.89176077D-14
  0.24740923D-12  0.71382408D-04  0.16936815D-14 -0.12267045D-13  0.70043272D-05
  0.28227200D-03 -0.42733750D-04 -0.23953825D-03  0.24372570D-13  0.75939638D-15
  0.10739564D-12  0.36687334D-04  0.15377717D-03 -0.19046450D-03 -0.49463640D-14
 -0.75591404D-14 -0.40457440D-13  0.24311222D-05  0.44873022D-04 -0.47304145D-04
  0.32408887D-14 -0.51435813D-14 -0.10125266D-12 -0.33574870D-15 -0.79859095D-14
 -0.25667189D-03  0.59266150D-14  0.17149374D-13  0.38121534D-03 -0.49193689D-14
  0.68083546D-14  0.38880034D-03  0.12291582D-13 -0.17710630D-14 -0.78309397D-15
  0.78558725D-04 -0.10795446D-14 -0.17908785D-13 -0.41035242D-04  0.63927336D-14
  0.20258066D-13 -0.19464093D-03 -0.11929599D-14
MO    2     MO 0.0        OCC NO =    2.0000161  ORB. ENERGY =    0.000000
  0.15292515D-10  0.28508329D-10  0.48182959D-10  0.72427974D-10  0.88964794D-10
  0.75083148D-10  0.28233224D-10  0.12750952D-14  0.95305466D-14  0.35617829D-13
  0.99368196D-13  0.13312599D-12 -0.15719697D-12  0.12829560D-11 -0.37054248D-12
  0.58938954D-13  0.36206549D-12  0.33945941D-12  0.24171533D-12 -0.59404425D-02
 -0.55695425D-02 -0.39658460D-02 -0.14784772D-12 -0.13861663D-12 -0.98703299D-13
  0.13000349D-12 -0.20033165D-02 -0.54602347D-13  0.34466713D-13 -0.46256094D-03
  0.13883218D-12  0.24460334D-15  0.15956983D-04 -0.30461127D-14 -0.11147579D-12
  0.99936799D-13  0.11538991D-13 -0.45078087D-13 -0.86037715D-13  0.14531977D-02
  0.53162808D-13 -0.25323201D-13 -0.27839607D-13 -0.31067210D-13 -0.69074683D-13
  0.61539519D-03  0.31492445D-14 -0.11952594D-13  0.88033493D-14  0.25277178D-15
 -0.74189457D-14  0.13368004D-03  0.92516623D-14  0.55856294D-04  0.14562924D-13
 -0.59721817D-14 -0.14807819D-03 -0.12578660D-13 -0.21782805D-13 -0.19490693D-04
 -0.31110112D-13 -0.14414546D-15 -0.64089206D-14 -0.44858703D-04 -0.11515201D-13
  0.14689223D-13  0.93357532D-05 -0.13334609D-13  0.45375384D-14  0.12524036D-03
  0.47880211D-13  0.39088893D-14  0.30665489D-01  0.57686403D-01  0.99858110D-01
  0.16368662D+00  0.25641758D+00  0.38541648D+00  0.55085076D+00  0.73125319D+00
  0.85159717D+00  0.78209348D+00  0.45718499D+00  0.11996268D+00  0.68205444D-02
  0.11901117D-03  0.11979828D-04  0.14545785D-02  0.42019421D-02  0.19258488D-01
  0.57009319D-01  0.16532869D+00  0.34365094D+00  0.49159675D+00  0.14095649D+00
 -0.56328101D+00 -0.54463824D+00 -0.11887562D+00  0.17206887D-02  0.88453108D-03
  0.41265204D-02  0.83744670D-02  0.32820993D-01  0.23031268D-01 -0.14998833D+00
 -0.46476235D+00 -0.56850843D-01  0.40627283D+00  0.19066382D+00  0.96339990D-06
  0.13207448D-05 -0.25321873D-05 -0.53817306D-05  0.20344447D-04  0.65788775D-04
  0.22880335D-04 -0.22379460D-03 -0.49917797D-03  0.33123931D-03  0.79584610D-02
 -0.41879371D-03  0.26725588D-04 -0.44776538D-08 -0.64247648D-08 -0.85069823D-08
 -0.98240839D-08 -0.91087784D-08 -0.58987227D-08 -0.20814186D-08 -0.23982908D-09
  0.39180704D-12 -0.11577817D+02 -0.16612440D+02 -0.21996405D+02 -0.25402020D+02
 -0.23552463D+02 -0.15252259D+02 -0.53818999D+01 -0.62012327D+00  0.10130909D-02
 -0.68529270D+01 -0.98329274D+01 -0.13019704D+02 -0.15035493D+02 -0.13940737D+02
 -0.90278342D+01 -0.31855544D+01 -0.36705187D+00  0.59964999D-03  0.35324726D-10
 -0.10071709D-09 -0.49161306D-09 -0.10187157D-08 -0.12783877D-08 -0.20272930D-09
  0.16410252D-08  0.14312119D-08  0.36791431D-09  0.69339044D-01 -0.19769797D+00
 -0.96498920D+00 -0.19996411D+01 -0.25093522D+01 -0.39793813D+00  0.32211747D+01
  0.28093314D+01  0.72218044D+00  0.40979578D-01 -0.11684008D+00 -0.57031144D+00
 -0.11817938D+01 -0.14830345D+01 -0.23518260D+00  0.19037237D+01  0.16603231D+01
  0.42681075D+00 -0.44159154D-13 -0.62385354D-13  0.29027579D-13 -0.58171543D-13
 -0.63859333D-13 -0.17237636D-12 -0.54320344D-13  0.11662693D-12  0.79179340D-04
  0.11185973D-03 -0.52047749D-04  0.10430418D-03  0.11450264D-03  0.30907853D-03
  0.97398809D-04 -0.20911731D-03  0.10440526D-03  0.14749737D-03 -0.68629754D-04
  0.13753467D-03  0.15098229D-03  0.40754852D-03  0.12842931D-03 -0.27574045D-03
  0.12178007D-10  0.25584359D-01  0.15180844D-01  0.10274427D-12  0.95142091D-04
  0.17200208D-04 -0.23815945D-14 -0.17869865D-05  0.88459016D-07 -0.11950098D+01
 -0.12504490D+01 -0.10654495D+01 -0.70167905D+00 -0.32338298D+00 -0.96837557D-01
 -0.16476089D-01  0.14843671D+01  0.15532302D+01  0.13234353D+01  0.87158217D+00
  0.40168627D+00  0.12028560D+00  0.20465576D-01 -0.28935722D+00 -0.30278116D+00
 -0.25798575D+00 -0.16990312D+00 -0.78303290D-01 -0.23448047D-01 -0.39894864D-02
  0.10945223D-09  0.11452997D-09  0.97585662D-10  0.64267536D-10  0.29618994D-10
  0.88694557D-11  0.15090627D-11 -0.85349642D-10 -0.89309205D-10 -0.76096222D-10
 -0.50115115D-10 -0.23096565D-10 -0.69163036D-11 -0.11767504D-11  0.42820904D+01
  0.44807462D+01  0.38178356D+01  0.25143334D+01  0.11587814D+01  0.34699896D+00
  0.59038932D-01 -0.12179179D-02  0.14361523D-02 -0.21823446D-03  0.16921755D-12
 -0.14103195D-13  0.41439127D-02  0.68284977D-04 -0.36490680D-04 -0.31794297D-04
 -0.15092233D-13 -0.13456743D-13 -0.17523057D-03 -0.37311324D-05  0.25620273D-05
  0.11691051D-05 -0.20183194D-14 -0.83242983D-15 -0.19109115D-04 -0.26510946D-13
  0.42606683D-04 -0.11532032D-03  0.75458782D-13 -0.23918037D-03 -0.14476465D-03
  0.40740575D-14  0.11136032D-03  0.49072560D-03  0.14285046D-12  0.45862393D-14
  0.24812930D-05  0.21183628D-04 -0.11862035D-13  0.41372113D-04  0.31292462D-04
 -0.18966827D-14 -0.48815991D-04 -0.94843347D-04 -0.22769802D-13 -0.30665489D-01
 -0.57686403D-01 -0.99858110D-01 -0.16368661D+00 -0.25641758D+00 -0.38541648D+00
 -0.55085076D+00 -0.73125319D+00 -0.85159717D+00 -0.78209348D+00 -0.45718499D+00
 -0.11996268D+00 -0.68205444D-02 -0.11901117D-03 -0.11979828D-04 -0.14545785D-02
 -0.42019421D-02 -0.19258488D-01 -0.57009319D-01 -0.16532869D+00 -0.34365094D+00
 -0.49159675D+00 -0.14095649D+00  0.56328101D+00  0.54463824D+00  0.11887562D+00
 -0.17206887D-02 -0.88453108D-03 -0.41265204D-02 -0.83744670D-02 -0.32820993D-01
 -0.23031268D-01  0.14998833D+00  0.46476235D+00  0.56850843D-01 -0.40627283D+00
 -0.19066382D+00 -0.96339990D-06 -0.13207448D-05  0.25321873D-05  0.53817306D-05
 -0.20344447D-04 -0.65788775D-04 -0.22880335D-04  0.22379460D-03  0.49917797D-03
 -0.33123931D-03 -0.79584610D-02  0.41879371D-03 -0.26725588D-04 -0.21178108D-08
 -0.30387424D-08 -0.40235757D-08 -0.46465296D-08 -0.43082092D-08 -0.27899384D-08
 -0.98445546D-09 -0.11343276D-09  0.18531428D-12 -0.11577817D+02 -0.16612440D+02
 -0.21996405D+02 -0.25402020D+02 -0.23552463D+02 -0.15252259D+02 -0.53818999D+01
 -0.62012327D+00  0.10130909D-02  0.68529270D+01  0.98329274D+01  0.13019704D+02
  0.15035493D+02  0.13940737D+02  0.90278342D+01  0.31855544D+01  0.36705187D+00
 -0.59964999D-03  0.13084353D-10 -0.37305821D-10 -0.18209451D-09 -0.37733446D-09