 br2co-wavefunction
GAUSSIAN            210 MOL ORBITALS    578 PRIMITIVES        4 NUCLEI
  C    1    (CENTRE  1)   0.00000000 -0.01889726 -0.92928983  CHARGE =  6.0
  Br   2    (CENTRE  2)   0.00000000 -3.01256550 -2.92306618  CHARGE = 35.0
  Br   3    (CENTRE  3)   0.00000000  3.01256550 -2.92306618  CHARGE = 35.0
  O    4    (CENTRE  4)   0.00000000  0.00000000  1.29351754  CHARGE =  8.0
CENTRE ASSIGNMENTS    1  1  1  1  1  1  1  1  1  1  1  1  1  1  1  1  1  1  1  1
CENTRE ASSIGNMENTS    1  1  1  1  1  1  1  1  1  1  1  1  1  1  1  1  1  1  1  1
CENTRE ASSIGNMENTS    1  1  1  1  1  1  1  1  1  1  1  1  1  1  1  1  1  1  1  1
CENTRE ASSIGNMENTS    1  1  1  1  1  1  1  1  1  1  1  1  2  2  2  2  2  2  2  2
CENTRE ASSIGNMENTS    2  2  2  2  2  2  2  2  2  2  2  2  2  2  2  2  2  2  2  2
CENTRE ASSIGNMENTS    2  2  2  2  2  2  2  2  2  2  2  2  2  2  2  2  2  2  2  2
CENTRE ASSIGNMENTS    2  2  2  2  2  2  2  2  2  2  2  2  2  2  2  2  2  2  2  2
CENTRE ASSIGNMENTS    2  2  2  2  2  2  2  2  2  2  2  2  2  2  2  2  2  2  2  2
CENTRE ASSIGNMENTS    2  2  2  2  2  2  2  2  2  2  2  2  2  2  2  2  2  2  2  2
CENTRE ASSIGNMENTS    2  2  2  2  2  2  2  2  2  2  2  2  2  2  2  2  2  2  2  2
CENTRE ASSIGNMENTS    2  2  2  2  2  2  2  2  2  2  2  2  2  2  2  2  2  2  2  2
CENTRE ASSIGNMENTS    2  2  2  2  2  2  2  2  2  2  2  2  2  2  2  2  2  2  2  2
CENTRE ASSIGNMENTS    2  2  2  2  2  2  2  2  2  2  2  2  2  2  2  2  2  2  2  2
CENTRE ASSIGNMENTS    2  2  2  2  2  2  2  2  2  2  2  2  2  2  2  2  2  2  2  2
CENTRE ASSIGNMENTS    2  2  2  2  2  2  2  2  2  3  3  3  3  3  3  3  3  3  3  3
CENTRE ASSIGNMENTS    3  3  3  3  3  3  3  3  3  3  3  3  3  3  3  3  3  3  3  3
CENTRE ASSIGNMENTS    3  3  3  3  3  3  3  3  3  3  3  3  3  3  3  3  3  3  3  3
CENTRE ASSIGNMENTS    3  3  3  3  3  3  3  3  3  3  3  3  3  3  3  3  3  3  3  3
CENTRE ASSIGNMENTS    3  3  3  3  3  3  3  3  3  3  3  3  3  3  3  3  3  3  3  3
CENTRE ASSIGNMENTS    3  3  3  3  3  3  3  3  3  3  3  3  3  3  3  3  3  3  3  3
CENTRE ASSIGNMENTS    3  3  3  3  3  3  3  3  3  3  3  3  3  3  3  3  3  3  3  3
CENTRE ASSIGNMENTS    3  3  3  3  3  3  3  3  3  3  3  3  3  3  3  3  3  3  3  3
CENTRE ASSIGNMENTS    3  3  3  3  3  3  3  3  3  3  3  3  3  3  3  3  3  3  3  3
CENTRE ASSIGNMENTS    3  3  3  3  3  3  3  3  3  3  3  3  3  3  3  3  3  3  3  3
CENTRE ASSIGNMENTS    3  3  3  3  3  3  3  3  3  3  3  3  3  3  3  3  3  3  3  3
CENTRE ASSIGNMENTS    3  3  3  3  3  3  4  4  4  4  4  4  4  4  4  4  4  4  4  4
CENTRE ASSIGNMENTS    4  4  4  4  4  4  4  4  4  4  4  4  4  4  4  4  4  4  4  4
CENTRE ASSIGNMENTS    4  4  4  4  4  4  4  4  4  4  4  4  4  4  4  4  4  4  4  4
CENTRE ASSIGNMENTS    4  4  4  4  4  4  4  4  4  4  4  4  4  4  4  4  4  4
TYPE ASSIGNMENTS      1  1  1  1  1  1  1  1  1  1  1  1  1  1  1  1  2  2  2  3
TYPE ASSIGNMENTS      3  3  4  4  4  2  3  4  2  3  4  2  3  4  5  6  7  8  9 10
TYPE ASSIGNMENTS      5  6  7  8  9 10  5  6  7  8  9 10 11 12 13 17 14 15 18 19
TYPE ASSIGNMENTS     16 20 11 12 13 17 14 15 18 19 16 20  1  1  1  1  1  1  1  1
TYPE ASSIGNMENTS      1  1  1  1  1  1  1  1  1  1  1  1  1  1  1  1  1  1  1  1
TYPE ASSIGNMENTS      1  1  1  1  1  1  1  1  1  1  1  1  1  1  1  1  1  1  1  1
TYPE ASSIGNMENTS      1  1  2  2  2  2  2  2  2  2  2  3  3  3  3  3  3  3  3  3
TYPE ASSIGNMENTS      4  4  4  4  4  4  4  4  4  2  2  2  2  2  2  2  2  2  3  3
TYPE ASSIGNMENTS      3  3  3  3  3  3  3  4  4  4  4  4  4  4  4  4  2  2  2  2
TYPE ASSIGNMENTS      2  2  2  2  3  3  3  3  3  3  3  3  4  4  4  4  4  4  4  4
TYPE ASSIGNMENTS      2  3  4  2  3  4  2  3  4  5  5  5  5  5  5  5  6  6  6  6
TYPE ASSIGNMENTS      6  6  6  7  7  7  7  7  7  7  8  8  8  8  8  8  8  9  9  9
TYPE ASSIGNMENTS      9  9  9  9 10 10 10 10 10 10 10  5  6  7  8  9 10  5  6  7
TYPE ASSIGNMENTS      8  9 10  5  6  7  8  9 10 11 12 13 17 14 15 18 19 16 20 11
TYPE ASSIGNMENTS     12 13 17 14 15 18 19 16 20  1  1  1  1  1  1  1  1  1  1  1
TYPE ASSIGNMENTS      1  1  1  1  1  1  1  1  1  1  1  1  1  1  1  1  1  1  1  1
TYPE ASSIGNMENTS      1  1  1  1  1  1  1  1  1  1  1  1  1  1  1  1  1  1  1  2
TYPE ASSIGNMENTS      2  2  2  2  2  2  2  2  3  3  3  3  3  3  3  3  3  4  4  4
TYPE ASSIGNMENTS      4  4  4  4  4  4  2  2  2  2  2  2  2  2  2  3  3  3  3  3
TYPE ASSIGNMENTS      3  3  3  3  4  4  4  4  4  4  4  4  4  2  2  2  2  2  2  2
TYPE ASSIGNMENTS      2  3  3  3  3  3  3  3  3  4  4  4  4  4  4  4  4  2  3  4
TYPE ASSIGNMENTS      2  3  4  2  3  4  5  5  5  5  5  5  5  6  6  6  6  6  6  6
TYPE ASSIGNMENTS      7  7  7  7  7  7  7  8  8  8  8  8  8  8  9  9  9  9  9  9
TYPE ASSIGNMENTS      9 10 10 10 10 10 10 10  5  6  7  8  9 10  5  6  7  8  9 10
TYPE ASSIGNMENTS      5  6  7  8  9 10 11 12 13 17 14 15 18 19 16 20 11 12 13 17
TYPE ASSIGNMENTS     14 15 18 19 16 20  1  1  1  1  1  1  1  1  1  1  1  1  1  1
TYPE ASSIGNMENTS      1  1  2  2  2  3  3  3  4  4  4  2  3  4  2  3  4  2  3  4
TYPE ASSIGNMENTS      5  6  7  8  9 10  5  6  7  8  9 10  5  6  7  8  9 10 11 12
TYPE ASSIGNMENTS     13 17 14 15 18 19 16 20 11 12 13 17 14 15 18 19 16 20
EXPONENTS  0.8236000D+04 0.1235000D+04 0.2808000D+03 0.7927000D+02 0.2559000D+02
EXPONENTS  0.8997000D+01 0.3319000D+01 0.2808000D+03 0.7927000D+02 0.2559000D+02
EXPONENTS  0.8997000D+01 0.3319000D+01 0.3643000D+00 0.9059000D+00 0.1285000D+00
EXPONENTS  0.4402000D-01 0.1871000D+02 0.4133000D+01 0.1200000D+01 0.1871000D+02
EXPONENTS  0.4133000D+01 0.1200000D+01 0.1871000D+02 0.4133000D+01 0.1200000D+01
EXPONENTS  0.3827000D+00 0.3827000D+00 0.3827000D+00 0.1209000D+00 0.1209000D+00
EXPONENTS  0.1209000D+00 0.3569000D-01 0.3569000D-01 0.3569000D-01 0.1097000D+01
EXPONENTS  0.1097000D+01 0.1097000D+01 0.1097000D+01 0.1097000D+01 0.1097000D+01
EXPONENTS  0.3180000D+00 0.3180000D+00 0.3180000D+00 0.3180000D+00 0.3180000D+00
EXPONENTS  0.3180000D+00 0.1000000D+00 0.1000000D+00 0.1000000D+00 0.1000000D+00
EXPONENTS  0.1000000D+00 0.1000000D+00 0.7610000D+00 0.7610000D+00 0.7610000D+00
EXPONENTS  0.7610000D+00 0.7610000D+00 0.7610000D+00 0.7610000D+00 0.7610000D+00
EXPONENTS  0.7610000D+00 0.7610000D+00 0.2680000D+00 0.2680000D+00 0.2680000D+00
EXPONENTS  0.2680000D+00 0.2680000D+00 0.2680000D+00 0.2680000D+00 0.2680000D+00
EXPONENTS  0.2680000D+00 0.2680000D+00 0.1063900D+08 0.1593400D+07 0.3626100D+06
EXPONENTS  0.1027000D+06 0.3350100D+05 0.1209300D+05 0.4715900D+04 0.1955600D+04
EXPONENTS  0.8526100D+03 0.3876700D+03 0.1826800D+03 0.8824500D+02 0.3926300D+02
EXPONENTS  0.9405700D+01 0.1899500D+01 0.3350100D+05 0.1209300D+05 0.4715900D+04
EXPONENTS  0.1955600D+04 0.8526100D+03 0.3876700D+03 0.1826800D+03 0.8824500D+02
EXPONENTS  0.3926300D+02 0.1923400D+02 0.9405700D+01 0.1899500D+01 0.4715900D+04
EXPONENTS  0.8526100D+03 0.3876700D+03 0.1826800D+03 0.8824500D+02 0.3926300D+02
EXPONENTS  0.1923400D+02 0.9405700D+01 0.4160100D+01 0.1899500D+01 0.4715900D+04
EXPONENTS  0.8526100D+03 0.3876700D+03 0.8824500D+02 0.3926300D+02 0.1923400D+02
EXPONENTS  0.9405700D+01 0.4160100D+01 0.1899500D+01 0.3011400D+00 0.6047200D+00
EXPONENTS  0.1251500D+00 0.4559300D-01 0.8676500D+04 0.2055900D+04 0.6662300D+03
EXPONENTS  0.2531000D+03 0.1061200D+03 0.4724200D+02 0.2182500D+02 0.9968400D+01
EXPONENTS  0.1998200D+01 0.8676500D+04 0.2055900D+04 0.6662300D+03 0.2531000D+03
EXPONENTS  0.1061200D+03 0.4724200D+02 0.2182500D+02 0.9968400D+01 0.1998200D+01
EXPONENTS  0.8676500D+04 0.2055900D+04 0.6662300D+03 0.2531000D+03 0.1061200D+03
EXPONENTS  0.4724200D+02 0.2182500D+02 0.9968400D+01 0.1998200D+01 0.8676500D+04
EXPONENTS  0.6662300D+03 0.2531000D+03 0.1061200D+03 0.4724200D+02 0.2182500D+02
EXPONENTS  0.9968400D+01 0.4517100D+01 0.1998200D+01 0.8676500D+04 0.6662300D+03
EXPONENTS  0.2531000D+03 0.1061200D+03 0.4724200D+02 0.2182500D+02 0.9968400D+01
EXPONENTS  0.4517100D+01 0.1998200D+01 0.8676500D+04 0.6662300D+03 0.2531000D+03
EXPONENTS  0.1061200D+03 0.4724200D+02 0.2182500D+02 0.9968400D+01 0.4517100D+01
EXPONENTS  0.1998200D+01 0.6662300D+03 0.1061200D+03 0.4724200D+02 0.2182500D+02
EXPONENTS  0.9968400D+01 0.4517100D+01 0.1998200D+01 0.2814500D+00 0.6662300D+03
EXPONENTS  0.1061200D+03 0.4724200D+02 0.2182500D+02 0.9968400D+01 0.4517100D+01
EXPONENTS  0.1998200D+01 0.2814500D+00 0.6662300D+03 0.1061200D+03 0.4724200D+02
EXPONENTS  0.2182500D+02 0.9968400D+01 0.4517100D+01 0.1998200D+01 0.2814500D+00
EXPONENTS  0.7098800D+00 0.7098800D+00 0.7098800D+00 0.1020400D+00 0.1020400D+00
EXPONENTS  0.1020400D+00 0.3514200D-01 0.3514200D-01 0.3514200D-01 0.4038300D+03
EXPONENTS  0.1211700D+03 0.4634500D+02 0.1972100D+02 0.8862400D+01 0.3996200D+01
EXPONENTS  0.1763600D+01 0.4038300D+03 0.1211700D+03 0.4634500D+02 0.1972100D+02
EXPONENTS  0.8862400D+01 0.3996200D+01 0.1763600D+01 0.4038300D+03 0.1211700D+03
EXPONENTS  0.4634500D+02 0.1972100D+02 0.8862400D+01 0.3996200D+01 0.1763600D+01
EXPONENTS  0.4038300D+03 0.1211700D+03 0.4634500D+02 0.1972100D+02 0.8862400D+01
EXPONENTS  0.3996200D+01 0.1763600D+01 0.4038300D+03 0.1211700D+03 0.4634500D+02
EXPONENTS  0.1972100D+02 0.8862400D+01 0.3996200D+01 0.1763600D+01 0.4038300D+03
EXPONENTS  0.1211700D+03 0.4634500D+02 0.1972100D+02 0.8862400D+01 0.3996200D+01
EXPONENTS  0.1763600D+01 0.7061900D+00 0.7061900D+00 0.7061900D+00 0.7061900D+00
EXPONENTS  0.7061900D+00 0.7061900D+00 0.2639000D+00 0.2639000D+00 0.2639000D+00
EXPONENTS  0.2639000D+00 0.2639000D+00 0.2639000D+00 0.1047000D+00 0.1047000D+00
EXPONENTS  0.1047000D+00 0.1047000D+00 0.1047000D+00 0.1047000D+00 0.5515000D+00
EXPONENTS  0.5515000D+00 0.5515000D+00 0.5515000D+00 0.5515000D+00 0.5515000D+00
EXPONENTS  0.5515000D+00 0.5515000D+00 0.5515000D+00 0.5515000D+00 0.2580000D+00
EXPONENTS  0.2580000D+00 0.2580000D+00 0.2580000D+00 0.2580000D+00 0.2580000D+00
EXPONENTS  0.2580000D+00 0.2580000D+00 0.2580000D+00 0.2580000D+00 0.1063900D+08
EXPONENTS  0.1593400D+07 0.3626100D+06 0.1027000D+06 0.3350100D+05 0.1209300D+05
EXPONENTS  0.4715900D+04 0.1955600D+04 0.8526100D+03 0.3876700D+03 0.1826800D+03
EXPONENTS  0.8824500D+02 0.3926300D+02 0.9405700D+01 0.1899500D+01 0.3350100D+05
EXPONENTS  0.1209300D+05 0.4715900D+04 0.1955600D+04 0.8526100D+03 0.3876700D+03
EXPONENTS  0.1826800D+03 0.8824500D+02 0.3926300D+02 0.1923400D+02 0.9405700D+01
EXPONENTS  0.1899500D+01 0.4715900D+04 0.8526100D+03 0.3876700D+03 0.1826800D+03
EXPONENTS  0.8824500D+02 0.3926300D+02 0.1923400D+02 0.9405700D+01 0.4160100D+01
EXPONENTS  0.1899500D+01 0.4715900D+04 0.8526100D+03 0.3876700D+03 0.8824500D+02
EXPONENTS  0.3926300D+02 0.1923400D+02 0.9405700D+01 0.4160100D+01 0.1899500D+01
EXPONENTS  0.3011400D+00 0.6047200D+00 0.1251500D+00 0.4559300D-01 0.8676500D+04
EXPONENTS  0.2055900D+04 0.6662300D+03 0.2531000D+03 0.1061200D+03 0.4724200D+02
EXPONENTS  0.2182500D+02 0.9968400D+01 0.1998200D+01 0.8676500D+04 0.2055900D+04
EXPONENTS  0.6662300D+03 0.2531000D+03 0.1061200D+03 0.4724200D+02 0.2182500D+02
EXPONENTS  0.9968400D+01 0.1998200D+01 0.8676500D+04 0.2055900D+04 0.6662300D+03
EXPONENTS  0.2531000D+03 0.1061200D+03 0.4724200D+02 0.2182500D+02 0.9968400D+01
EXPONENTS  0.1998200D+01 0.8676500D+04 0.6662300D+03 0.2531000D+03 0.1061200D+03
EXPONENTS  0.4724200D+02 0.2182500D+02 0.9968400D+01 0.4517100D+01 0.1998200D+01
EXPONENTS  0.8676500D+04 0.6662300D+03 0.2531000D+03 0.1061200D+03 0.4724200D+02
EXPONENTS  0.2182500D+02 0.9968400D+01 0.4517100D+01 0.1998200D+01 0.8676500D+04
EXPONENTS  0.6662300D+03 0.2531000D+03 0.1061200D+03 0.4724200D+02 0.2182500D+02
EXPONENTS  0.9968400D+01 0.4517100D+01 0.1998200D+01 0.6662300D+03 0.1061200D+03
EXPONENTS  0.4724200D+02 0.2182500D+02 0.9968400D+01 0.4517100D+01 0.1998200D+01
EXPONENTS  0.2814500D+00 0.6662300D+03 0.1061200D+03 0.4724200D+02 0.2182500D+02
EXPONENTS  0.9968400D+01 0.4517100D+01 0.1998200D+01 0.2814500D+00 0.6662300D+03
EXPONENTS  0.1061200D+03 0.4724200D+02 0.2182500D+02 0.9968400D+01 0.4517100D+01
EXPONENTS  0.1998200D+01 0.2814500D+00 0.7098800D+00 0.7098800D+00 0.7098800D+00
EXPONENTS  0.1020400D+00 0.1020400D+00 0.1020400D+00 0.3514200D-01 0.3514200D-01
EXPONENTS  0.3514200D-01 0.4038300D+03 0.1211700D+03 0.4634500D+02 0.1972100D+02
EXPONENTS  0.8862400D+01 0.3996200D+01 0.1763600D+01 0.4038300D+03 0.1211700D+03
EXPONENTS  0.4634500D+02 0.1972100D+02 0.8862400D+01 0.3996200D+01 0.1763600D+01
EXPONENTS  0.4038300D+03 0.1211700D+03 0.4634500D+02 0.1972100D+02 0.8862400D+01
EXPONENTS  0.3996200D+01 0.1763600D+01 0.4038300D+03 0.1211700D+03 0.4634500D+02
EXPONENTS  0.1972100D+02 0.8862400D+01 0.3996200D+01 0.1763600D+01 0.4038300D+03
EXPONENTS  0.1211700D+03 0.4634500D+02 0.1972100D+02 0.8862400D+01 0.3996200D+01
EXPONENTS  0.1763600D+01 0.4038300D+03 0.1211700D+03 0.4634500D+02 0.1972100D+02
EXPONENTS  0.8862400D+01 0.3996200D+01 0.1763600D+01 0.7061900D+00 0.7061900D+00
EXPONENTS  0.7061900D+00 0.7061900D+00 0.7061900D+00 0.7061900D+00 0.2639000D+00
EXPONENTS  0.2639000D+00 0.2639000D+00 0.2639000D+00 0.2639000D+00 0.2639000D+00
EXPONENTS  0.1047000D+00 0.1047000D+00 0.1047000D+00 0.1047000D+00 0.1047000D+00
EXPONENTS  0.1047000D+00 0.5515000D+00 0.5515000D+00 0.5515000D+00 0.5515000D+00
EXPONENTS  0.5515000D+00 0.5515000D+00 0.5515000D+00 0.5515000D+00 0.5515000D+00
EXPONENTS  0.5515000D+00 0.2580000D+00 0.2580000D+00 0.2580000D+00 0.2580000D+00
EXPONENTS  0.2580000D+00 0.2580000D+00 0.2580000D+00 0.2580000D+00 0.2580000D+00
EXPONENTS  0.2580000D+00 0.1533000D+05 0.2299000D+04 0.5224000D+03 0.1473000D+03
EXPONENTS  0.4755000D+02 0.1676000D+02 0.6207000D+01 0.5224000D+03 0.1473000D+03
EXPONENTS  0.4755000D+02 0.1676000D+02 0.6207000D+01 0.6882000D+00 0.1752000D+01
EXPONENTS  0.2384000D+00 0.7376000D-01 0.3446000D+02 0.7749000D+01 0.2280000D+01
EXPONENTS  0.3446000D+02 0.7749000D+01 0.2280000D+01 0.3446000D+02 0.7749000D+01
EXPONENTS  0.2280000D+01 0.7156000D+00 0.7156000D+00 0.7156000D+00 0.2140000D+00
EXPONENTS  0.2140000D+00 0.2140000D+00 0.5974000D-01 0.5974000D-01 0.5974000D-01
EXPONENTS  0.2314000D+01 0.2314000D+01 0.2314000D+01 0.2314000D+01 0.2314000D+01
EXPONENTS  0.2314000D+01 0.6450000D+00 0.6450000D+00 0.6450000D+00 0.6450000D+00
EXPONENTS  0.6450000D+00 0.6450000D+00 0.2140000D+00 0.2140000D+00 0.2140000D+00
EXPONENTS  0.2140000D+00 0.2140000D+00 0.2140000D+00 0.1428000D+01 0.1428000D+01
EXPONENTS  0.1428000D+01 0.1428000D+01 0.1428000D+01 0.1428000D+01 0.1428000D+01
EXPONENTS  0.1428000D+01 0.1428000D+01 0.1428000D+01 0.5000000D+00 0.5000000D+00
EXPONENTS  0.5000000D+00 0.5000000D+00 0.5000000D+00 0.5000000D+00 0.5000000D+00
EXPONENTS  0.5000000D+00 0.5000000D+00 0.5000000D+00
MO    1     MO 0.0        OCC NO =    2.0000167  ORB. ENERGY =    0.000000
  0.11476985D+00  0.21395413D+00  0.36161163D+00  0.54356972D+00  0.66767804D+00
  0.56349671D+00  0.21188948D+00  0.27500406D-04  0.20554850D-03  0.76818167D-03
  0.21431073D-02  0.28711729D-02 -0.33903198D-02  0.87889308D-02 -0.18671543D-02
 -0.28804729D-03  0.19508917D-13  0.18290849D-13  0.13024174D-13  0.21376143D-02
  0.20041493D-02  0.14270737D-02  0.34651284D-02  0.32487781D-02  0.23133236D-02
  0.11005441D-13  0.73091497D-03  0.18670173D-02  0.70172038D-14  0.15670026D-03
  0.35997433D-03 -0.25441634D-15 -0.60613231D-05  0.45303697D-05 -0.89010118D-04
 -0.46660513D-03  0.55561525D-03 -0.65443843D-13  0.26132829D-14 -0.50164231D-03
  0.31411264D-03 -0.30290750D-03 -0.11205142D-04 -0.47703428D-13 -0.15585164D-14
 -0.23255752D-03  0.28935062D-04 -0.17823975D-04 -0.11111086D-04  0.13998862D-14
 -0.13311251D-14 -0.47662228D-04  0.40457241D-15 -0.22025879D-04  0.11630623D-03
 -0.36849297D-14  0.51233934D-04 -0.15386885D-03  0.24712125D-14  0.14843704D-04
 -0.19504986D-03 -0.40706635D-14 -0.97224517D-15  0.16784056D-04 -0.12992099D-04
  0.12773908D-14 -0.91802995D-06  0.30797610D-05  0.16393447D-14 -0.49434138D-04
  0.35896537D-04  0.80608466D-14 -0.42916678D-01 -0.80732735D-01 -0.13975249D+00
 -0.22908116D+00 -0.35885913D+00 -0.53939447D+00 -0.77092151D+00 -0.10233966D+01
 -0.11918193D+01 -0.10945481D+01 -0.63983526D+00 -0.16788904D+00 -0.95454245D-02
 -0.16655739D-03 -0.16765896D-04 -0.20359395D-02 -0.58813599D-02 -0.26955654D-01
 -0.79794607D-01 -0.23140669D+00 -0.48100016D+00 -0.68807644D+00 -0.19729349D+00
  0.78841123D+00  0.76231738D+00  0.16638742D+00 -0.24084076D-02 -0.12428496D-02
 -0.57981504D-02 -0.11766916D-01 -0.46116590D-01 -0.32361103D-01  0.21074775D+00
  0.65303493D+00  0.79880796D-01 -0.57085164D+00 -0.26790065D+00 -0.13707339D-05
 -0.18791674D-05  0.36028184D-05  0.76571737D-05 -0.28946259D-04 -0.93604849D-04
 -0.32554343D-04  0.31841693D-03  0.71023481D-03 -0.47129021D-03 -0.11164804D-01
  0.67162392D-03  0.13422140D-03 -0.40512262D-08 -0.58129049D-08 -0.76968232D-08
 -0.88884911D-08 -0.82413075D-08 -0.53369601D-08 -0.18831955D-08 -0.21698905D-09
  0.35449345D-12  0.13476994D+02  0.19337475D+02  0.25604604D+02  0.29568861D+02
  0.27415911D+02  0.17754176D+02  0.62647243D+01  0.72184572D+00 -0.11792741D-02
  0.83721954D+01  0.12012851D+02  0.15906124D+02  0.18368805D+02  0.17031346D+02
  0.11029271D+02  0.38917799D+01  0.44842590D+00 -0.73259016D-03  0.18028332D-10
 -0.51401986D-10 -0.25089971D-09 -0.51991190D-09 -0.65243812D-09 -0.10346495D-09
  0.83751382D-09  0.73043348D-09  0.18776879D-09 -0.80423593D-01  0.22930199D+00
  0.11192525D+01  0.23193040D+01  0.29104976D+01  0.46155258D+00 -0.37361122D+01
 -0.32584315D+01 -0.83762830D+00 -0.50021860D-01  0.14262124D+00  0.69615259D+00
  0.14425605D+01  0.18102711D+01  0.28707644D+00 -0.23237868D+01 -0.20266790D+01
 -0.52098799D+00 -0.27515412D-13 -0.38872093D-13  0.18086982D-13 -0.36246482D-13
 -0.39790524D-13 -0.10740710D-12 -0.33846814D-13  0.72669829D-13 -0.26958693D-03
 -0.38085595D-03  0.17721028D-03 -0.35513108D-03 -0.38985443D-03 -0.10523393D-02
 -0.33161992D-03  0.71199502D-03 -0.17124699D-03 -0.24192728D-03  0.11256750D-03
 -0.22558633D-03 -0.24764330D-03 -0.66846688D-03 -0.21065158D-03  0.45227341D-03
  0.62684940D-11 -0.29684542D-01 -0.18602602D-01  0.61753926D-13  0.85538693D-04
  0.50701697D-04 -0.12912849D-14  0.88233377D-05  0.61928286D-05  0.14201639D+01
  0.14860485D+01  0.12661929D+01  0.83388373D+00  0.38431218D+00  0.11508291D+00
  0.19580381D-01 -0.16992980D+01 -0.17781323D+01 -0.15150639D+01 -0.99778411D+00
 -0.45984899D+00 -0.13770252D+00 -0.23428917D-01  0.27913413D+00  0.29208379D+00
  0.24887102D+00  0.16390038D+00  0.75536807D-01  0.22619619D-01  0.38485364D-02
  0.32312004D-09  0.33811031D-09  0.28808808D-09  0.18972778D-09  0.87439886D-10
  0.26184015D-10  0.44549882D-11 -0.39902546D-09 -0.41753715D-09 -0.35576400D-09
 -0.23429749D-09 -0.10798074D-09 -0.32335006D-10 -0.55015272D-11 -0.51704351D+01
 -0.54103033D+01 -0.46098679D+01 -0.30359465D+01 -0.13991774D+01 -0.41898593D+00
 -0.71286904D-01  0.15336913D-02 -0.18045843D-02  0.27089301D-03  0.29110848D-12
 -0.29211494D-12 -0.51662695D-02 -0.13393704D-03  0.11517143D-03  0.18765614D-04
 -0.90632170D-14 -0.55838496D-14  0.35134506D-03 -0.11597912D-04  0.13343537D-04
 -0.17456242D-05  0.96767408D-15  0.41886137D-15  0.34202571D-04 -0.13213338D-13
 -0.50821349D-04  0.12852205D-03  0.37865550D-13  0.28560848D-03  0.19315501D-03
  0.17744638D-14 -0.13314443D-03 -0.57872117D-03  0.70049691D-13  0.19287155D-14
  0.76425525D-05 -0.27095584D-04 -0.52784759D-14 -0.80072643D-04 -0.63533434D-04
 -0.50767055D-15  0.57144985D-04  0.14482019D-03 -0.10272477D-13 -0.21824496D-01
 -0.41055163D-01 -0.71068584D-01 -0.11649506D+00 -0.18249128D+00 -0.27429924D+00
 -0.39203810D+00 -0.52042973D+00 -0.60607802D+00 -0.55661254D+00 -0.32537658D+00
 -0.85376917D-01 -0.48541519D-02 -0.84699732D-04 -0.85259916D-05 -0.10357227D-02
 -0.29919640D-02 -0.13712874D-01 -0.40593094D-01 -0.11772116D+00 -0.24469429D+00
 -0.35003809D+00 -0.10036710D+00  0.40108038D+00  0.38780592D+00  0.84644570D-01
 -0.12252045D-02 -0.63535602D-03 -0.29640672D-02 -0.60153545D-02 -0.23575220D-01
 -0.16543290D-01  0.10773617D+00  0.33383740D+00  0.40835790D-01 -0.29182455D+00
 -0.13695325D+00 -0.69957208D-06 -0.95905780D-06  0.18387458D-05  0.39079394D-05
 -0.14773104D-04 -0.47772467D-04 -0.16614537D-04  0.16250827D-03  0.36247768D-03
 -0.24052916D-03 -0.56611003D-02  0.34840424D-03  0.15304140D-03  0.40963653D-08
  0.58776728D-08  0.77825819D-08  0.89875275D-08  0.83331329D-08  0.53964250D-08
  0.19041782D-08  0.21940677D-09 -0.35844325D-12 -0.53015593D+01 -0.76069462D+01
 -0.10072300D+02 -0.11631753D+02 -0.10784829D+02 -0.69841103D+01 -0.24644076D+01
 -0.28395855D+00  0.46390104D-03  0.33472499D+01  0.48028040D+01  0.63593562D+01
  0.73439496D+01  0.68092262D+01  0.44095635D+01  0.15559551D+01  0.17928315D+00
 -0.29289359D-03 -0.15741098D-10  0.44880674D-10  0.21906834D-09  0.45395126D-09
  0.56966403D-09  0.90338469D-10 -0.73125938D-09 -0.63776421D-09 -0.16394678D-09
  0.31487559D-01 -0.89776641D-01 -0.43821133D+00 -0.90805720D+00 -0.11395222D+01
 -0.18070772D+00  0.14627679D+01  0.12757457D+01  0.32794942D+00 -0.19967582D-01
  0.56931134D-01  0.27788818D+00  0.57583716D+00  0.72261880D+00  0.11459434D+00
 -0.92760250D+00 -0.80900387D+00 -0.20796648D+00  0.25443358D-13  0.35944821D-13
 -0.16724938D-13  0.33516933D-13  0.36794090D-13  0.99318782D-13  0.31297972D-13
 -0.67197412D-13  0.21235316D-03  0.29999957D-03 -0.13958823D-03  0.27973613D-03
  0.30708766D-03  0.82892584D-03  0.26121643D-03 -0.56083724D-03 -0.96675454D-04
 -0.13657717D-03  0.63548645D-04 -0.12735208D-03 -0.13980408D-03 -0.37737504D-03
 -0.11892085D-03  0.25532558D-03 -0.54900261D-11  0.11598755D-01 -0.74406682D-02
 -0.60201120D-13 -0.14863232D-03  0.62876505D-04  0.13692635D-14 -0.75689688D-05
  0.62477383D-05  0.52497308D+00  0.54932776D+00  0.46805666D+00  0.30825069D+00
  0.14206357D+00  0.42541165D-01  0.72380186D-02 -0.65043087D+00 -0.68060583D+00
 -0.57991259D+00 -0.38191628D+00 -0.17601384D+00 -0.52707630D-01 -0.89677565D-02
  0.12545779D+00  0.13127806D+00  0.11185594D+00  0.73665590D-01  0.33950277D-01
  0.10166465D-01  0.17297379D-02  0.70532547D-11  0.73804710D-11  0.62885563D-11
  0.41414898D-11  0.19086893D-11  0.57156011D-12  0.97246107D-13 -0.11946788D-09
 -0.12501027D-09 -0.10651544D-09 -0.70148470D-10 -0.32329341D-10 -0.96810735D-11
 -0.16471526D-11  0.19536553D+01  0.20442898D+01  0.17418443D+01  0.11471362D+01
  0.52868091D+00  0.15831435D+00  0.26935845D-01  0.62477466D-03 -0.78661472D-03
  0.16184006D-03  0.29291079D-13 -0.11498772D-12  0.20589535D-02 -0.83491313D-04
  0.90510358D-04 -0.70190451D-05 -0.48959957D-14  0.30694852D-14 -0.21860380D-03
 -0.13836967D-04  0.14907770D-04 -0.10708034D-05  0.24066960D-14 -0.13786883D-14
 -0.20018382D-04  0.10218372D-13  0.23979078D-04  0.45193095D-04 -0.27813486D-13
 -0.11053043D-03  0.82388323D-04 -0.28416310D-14  0.38593194D-04 -0.21796761D-03
  0.57260314D-13 -0.10200485D-14 -0.10371858D-04 -0.12055477D-04  0.23228438D-14
  0.49461457D-04 -0.39111615D-04  0.73730167D-15 -0.18345881D-04  0.75278046D-04
 -0.61745353D-14 -0.32598262D-01 -0.60757800D-01 -0.10302339D+00 -0.15591494D+00
 -0.19449160D+00 -0.16690273D+00 -0.63914879D-01 -0.31343425D-05 -0.33629438D-04
 -0.12396444D-03 -0.36246475D-03 -0.43678765D-03  0.52615701D-03 -0.28965995D-02
  0.27244203D-03  0.62667572D-04 -0.24251013D-13 -0.23515325D-13 -0.15863299D-13
 -0.10390423D-02 -0.10075215D-02 -0.67966808D-03  0.25465151D-02  0.24692631D-02
  0.16657503D-02 -0.10812389D-13 -0.22204517D-03  0.57639273D-03 -0.47903654D-14
  0.30262362D-04  0.72353717D-04  0.43632442D-15  0.10951181D-04  0.70775076D-05
  0.26546880D-03 -0.49265470D-04 -0.21620333D-03 -0.34894547D-13 -0.92493388D-14
 -0.12863495D-03  0.29802743D-04  0.14401027D-03 -0.17381301D-03  0.85280113D-14
  0.42599240D-14 -0.88336016D-04  0.22531967D-05  0.42602945D-04 -0.44856141D-04
 -0.26002559D-15  0.15915298D-14 -0.24839035D-04  0.10468370D-14 -0.16715466D-04
 -0.27253026D-03 -0.96946465D-15  0.40109141D-04  0.40129995D-03 -0.21710464D-14
  0.10037258D-04  0.41629083D-03  0.65024117D-14  0.79711937D-15 -0.93206025D-06
  0.74024506D-04 -0.34837041D-15 -0.17080120D-04 -0.36029005D-04 -0.20429877D-14
  0.19876301D-04 -0.18604451D-03 -0.94876079D-14
MO    2     MO 0.0        OCC NO =    2.0000157  ORB. ENERGY =    0.000000
  0.44598205D-01  0.83140039D-01  0.14051799D+00  0.21122475D+00  0.25945178D+00
  0.21896815D+00  0.82337741D-01  0.10163962D-04  0.75969316D-04  0.28391468D-03
  0.79207775D-03  0.10611658D-02 -0.12530390D-02  0.34543537D-02 -0.69877100D-03
 -0.11285558D-03 -0.19554673D-12 -0.18333749D-12 -0.13054721D-12 -0.54412570D-02
 -0.51015243D-02 -0.36325892D-02  0.12191768D-02  0.11430558D-02  0.81392379D-03
 -0.46316098D-13 -0.18344825D-02  0.67882562D-03 -0.17312680D-13 -0.42427821D-03
  0.13520615D-03  0.64174270D-15  0.14953549D-04  0.18637927D-05 -0.39221896D-04
 -0.17767056D-03  0.21689246D-03 -0.14079238D-12  0.45980349D-13  0.13657810D-02
  0.12195086D-03 -0.11201320D-03 -0.99376572D-05 -0.12618177D-12  0.54008341D-13
  0.58226898D-03  0.10907069D-04 -0.59672435D-05 -0.49398259D-05  0.34647154D-14
  0.73846221D-14  0.12428702D-03 -0.87488089D-14  0.50836171D-04  0.42632392D-04
 -0.11944427D-14 -0.13661964D-03 -0.62890002D-04  0.27440869D-13 -0.15888876D-04
 -0.65007174D-04 -0.13444015D-13  0.38084321D-14 -0.42726768D-04 -0.55278424D-05
 -0.99137484D-14  0.97587816D-05 -0.95555907D-06 -0.15115480D-14  0.11842152D-03
  0.17539086D-04  0.33756373D-13  0.16259572D-01  0.30586704D-01  0.52947146D-01
  0.86790539D-01  0.13595870D+00  0.20435699D+00  0.29207418D+00  0.38772784D+00
  0.45153708D+00  0.41468457D+00  0.24241036D+00  0.63607065D-01  0.36164150D-02
  0.63102552D-04  0.63519898D-05  0.77103668D-03  0.22273472D-02  0.10208456D-01
  0.30219252D-01  0.87636713D-01  0.18216100D+00  0.26058347D+00  0.74717604D-01
 -0.29858155D+00 -0.28869948D+00 -0.63013073D-01  0.91209518D-03  0.46666818D-03
  0.21771036D-02  0.44182701D-02  0.17315969D-01  0.12151026D-01 -0.79132078D-01
 -0.24520314D+00 -0.29993835D-01  0.21434476D+00  0.10059199D+00  0.52228221D-06
  0.71600746D-06 -0.13727595D-05 -0.29175653D-05  0.11029213D-04  0.35665674D-04
  0.12403979D-04 -0.12132442D-03 -0.27061636D-03  0.17957278D-03  0.42188311D-02
 -0.19614045D-03  0.82762419D-04 -0.50372546D-08 -0.72277084D-08 -0.95701538D-08
 -0.11051862D-07 -0.10247160D-07 -0.66359234D-08 -0.23415467D-08 -0.26980204D-09
  0.44077365D-12 -0.72914573D+01 -0.10462153D+02 -0.13852857D+02 -0.15997639D+02
 -0.14832828D+02 -0.96055404D+01 -0.33894034D+01 -0.39054014D+00  0.63802260D-03
 -0.42754273D+01 -0.61346000D+01 -0.81227773D+01 -0.93803940D+01 -0.86973942D+01
 -0.56323158D+01 -0.19874145D+01 -0.22899756D+00  0.37411167D-03  0.29846095D-10
 -0.85096533D-10 -0.41536712D-09 -0.86071966D-09 -0.10801182D-08 -0.17128732D-09
  0.13865130D-08  0.12092404D-08  0.31085323D-09  0.43783279D-01 -0.12483393D+00
 -0.60933045D+00 -0.12626486D+01 -0.15844993D+01 -0.25127309D+00  0.20339708D+01
  0.17739174D+01  0.45601187D+00  0.25581354D-01 -0.72936999D-01 -0.35601487D+00
 -0.73773051D+00 -0.92577898D+00 -0.14681190D+00  0.11883927D+01  0.10364507D+01
  0.26643508D+00 -0.54874911D-13 -0.77523920D-13  0.36071475D-13 -0.72287577D-13
 -0.79355579D-13 -0.21420558D-12 -0.67501838D-13  0.14492788D-12 -0.19696145D-04
 -0.27825510D-04  0.12947064D-04 -0.25946039D-04 -0.28482944D-04 -0.76884393D-04
 -0.24228304D-04  0.52018683D-04  0.47779128D-04  0.67499431D-04 -0.31407133D-04
  0.62940191D-04  0.69094241D-04  0.18650701D-03  0.58773288D-04 -0.12618750D-03
  0.10410191D-10  0.16147027D-01  0.94581242D-02  0.12288741D-12  0.13820670D-03
  0.36342445D-04 -0.27840422D-14  0.15754904D-05  0.25495428D-05 -0.75414903D+00
 -0.78913570D+00 -0.67238586D+00 -0.44281692D+00 -0.20408113D+00 -0.61112426D-01
 -0.10397761D-01  0.90416851D+00  0.94611493D+00  0.80614056D+00  0.53090450D+00
  0.24467808D+00  0.73269246D-01  0.12466141D-01 -0.15001948D+00 -0.15697922D+00
 -0.13375470D+00 -0.88087581D-01 -0.40596944D-01 -0.12156820D-01 -0.20683799D-02
  0.14717898D-09  0.15400695D-09  0.13122216D-09  0.86419714D-10  0.39828273D-10
  0.11926641D-10  0.20292168D-11  0.12320552D-09  0.12892130D-09  0.10984785D-09
  0.72343114D-10  0.33340787D-10  0.99839527D-11  0.16986849D-11  0.27125982D+01
  0.28384417D+01  0.24185043D+01  0.15927679D+01  0.73405930D+00  0.21981525D+00
  0.37399701D-01 -0.73652772D-03  0.81786854D-03 -0.81340824D-04  0.16024233D-12
  0.13877894D-12  0.25613080D-02  0.22730352D-04  0.72898035D-05 -0.30020156D-04
 -0.16172315D-13 -0.72290776D-14 -0.55196966D-04 -0.84626294D-05  0.83630162D-05
  0.99613247D-07  0.67477871D-14  0.34935203D-14 -0.78515159D-05 -0.17423501D-13
  0.23302673D-04 -0.75130125D-04  0.47449161D-13 -0.15069965D-03 -0.85757468D-04
  0.48213411D-14  0.80791629D-04  0.31114784D-03  0.10817214D-12  0.14991394D-14
  0.64063751D-05  0.12002966D-04 -0.42870762D-14  0.14520459D-04  0.10390852D-04
 -0.21034207D-15 -0.33739584D-04 -0.46399750D-04 -0.11809475D-13 -0.42519800D-01
 -0.79986148D-01 -0.13846011D+00 -0.22696270D+00 -0.35554053D+00 -0.53440635D+00
 -0.76379231D+00 -0.10139326D+01 -0.11807978D+01 -0.10844262D+01 -0.63391830D+00
 -0.16633646D+00 -0.94571519D-02 -0.16501713D-03 -0.16610852D-04 -0.20176649D-02
 -0.58285687D-02 -0.26713700D-01 -0.79078370D-01 -0.22932958D+00 -0.47668270D+00
 -0.68190026D+00 -0.19552259D+00  0.78133444D+00  0.75547481D+00  0.16489392D+00
 -0.23867897D-02 -0.12307660D-02 -0.57417777D-02 -0.11652512D-01 -0.45668220D-01
 -0.32046472D-01  0.20869875D+00  0.64668579D+00  0.79104154D-01 -0.56530152D+00
 -0.26529598D+00 -0.13253987D-05 -0.18170164D-05  0.34836600D-05  0.74039229D-05
 -0.27988901D-04 -0.90508994D-04 -0.31477651D-04  0.30788571D-03  0.68674475D-03
 -0.45570292D-03 -0.10994814D-01  0.53580155D-03  0.29267871D-04  0.16304857D-07
  0.23395036D-07  0.30977189D-07  0.35773262D-07  0.33168560D-07  0.21479514D-07
  0.75792444D-08  0.87330979D-09 -0.14267199D-11 -0.14225093D+02 -0.20410885D+02
 -0.27025898D+02 -0.31210208D+02 -0.28937748D+02 -0.18739697D+02 -0.66124747D+01
 -0.76191486D+00  0.12447348D-02  0.84904126D+01  0.12182475D+02  0.16130722D+02
  0.18628177D+02  0.17271833D+02  0.11185007D+02  0.39467327D+01  0.45475777D+00
 -0.74293449D-03 -0.55687464D-10  0.15877488D-09  0.77500062D-09  0.16059486D-08