 br2co-wavefunction
GAUSSIAN            210 MOL ORBITALS    578 PRIMITIVES        4 NUCLEI
  C    1    (CENTRE  1)   0.00000000  0.00000000 -0.92928983  CHARGE =  6.0
  Br   2    (CENTRE  2)   0.00000000 -3.03146276 -2.92306618  CHARGE = 35.0
  Br   3    (CENTRE  3)   0.00000000  3.01256550 -2.92306618  CHARGE = 35.0
  O    4    (CENTRE  4)   0.00000000  0.00000000  1.29351754  CHARGE =  8.0
CENTRE ASSIGNMENTS    1  1  1  1  1  1  1  1  1  1  1  1  1  1  1  1  1  1  1  1
CENTRE ASSIGNMENTS    1  1  1  1  1  1  1  1  1  1  1  1  1  1  1  1  1  1  1  1
CENTRE ASSIGNMENTS    1  1  1  1  1  1  1  1  1  1  1  1  1  1  1  1  1  1  1  1
CENTRE ASSIGNMENTS    1  1  1  1  1  1  1  1  1  1  1  1  2  2  2  2  2  2  2  2
CENTRE ASSIGNMENTS    2  2  2  2  2  2  2  2  2  2  2  2  2  2  2  2  2  2  2  2
CENTRE ASSIGNMENTS    2  2  2  2  2  2  2  2  2  2  2  2  2  2  2  2  2  2  2  2
CENTRE ASSIGNMENTS    2  2  2  2  2  2  2  2  2  2  2  2  2  2  2  2  2  2  2  2
CENTRE ASSIGNMENTS    2  2  2  2  2  2  2  2  2  2  2  2  2  2  2  2  2  2  2  2
CENTRE ASSIGNMENTS    2  2  2  2  2  2  2  2  2  2  2  2  2  2  2  2  2  2  2  2
CENTRE ASSIGNMENTS    2  2  2  2  2  2  2  2  2  2  2  2  2  2  2  2  2  2  2  2
CENTRE ASSIGNMENTS    2  2  2  2  2  2  2  2  2  2  2  2  2  2  2  2  2  2  2  2
CENTRE ASSIGNMENTS    2  2  2  2  2  2  2  2  2  2  2  2  2  2  2  2  2  2  2  2
CENTRE ASSIGNMENTS    2  2  2  2  2  2  2  2  2  2  2  2  2  2  2  2  2  2  2  2
CENTRE ASSIGNMENTS    2  2  2  2  2  2  2  2  2  2  2  2  2  2  2  2  2  2  2  2
CENTRE ASSIGNMENTS    2  2  2  2  2  2  2  2  2  3  3  3  3  3  3  3  3  3  3  3
CENTRE ASSIGNMENTS    3  3  3  3  3  3  3  3  3  3  3  3  3  3  3  3  3  3  3  3
CENTRE ASSIGNMENTS    3  3  3  3  3  3  3  3  3  3  3  3  3  3  3  3  3  3  3  3
CENTRE ASSIGNMENTS    3  3  3  3  3  3  3  3  3  3  3  3  3  3  3  3  3  3  3  3
CENTRE ASSIGNMENTS    3  3  3  3  3  3  3  3  3  3  3  3  3  3  3  3  3  3  3  3
CENTRE ASSIGNMENTS    3  3  3  3  3  3  3  3  3  3  3  3  3  3  3  3  3  3  3  3
CENTRE ASSIGNMENTS    3  3  3  3  3  3  3  3  3  3  3  3  3  3  3  3  3  3  3  3
CENTRE ASSIGNMENTS    3  3  3  3  3  3  3  3  3  3  3  3  3  3  3  3  3  3  3  3
CENTRE ASSIGNMENTS    3  3  3  3  3  3  3  3  3  3  3  3  3  3  3  3  3  3  3  3
CENTRE ASSIGNMENTS    3  3  3  3  3  3  3  3  3  3  3  3  3  3  3  3  3  3  3  3
CENTRE ASSIGNMENTS    3  3  3  3  3  3  3  3  3  3  3  3  3  3  3  3  3  3  3  3
CENTRE ASSIGNMENTS    3  3  3  3  3  3  4  4  4  4  4  4  4  4  4  4  4  4  4  4
CENTRE ASSIGNMENTS    4  4  4  4  4  4  4  4  4  4  4  4  4  4  4  4  4  4  4  4
CENTRE ASSIGNMENTS    4  4  4  4  4  4  4  4  4  4  4  4  4  4  4  4  4  4  4  4
CENTRE ASSIGNMENTS    4  4  4  4  4  4  4  4  4  4  4  4  4  4  4  4  4  4
TYPE ASSIGNMENTS      1  1  1  1  1  1  1  1  1  1  1  1  1  1  1  1  2  2  2  3
TYPE ASSIGNMENTS      3  3  4  4  4  2  3  4  2  3  4  2  3  4  5  6  7  8  9 10
TYPE ASSIGNMENTS      5  6  7  8  9 10  5  6  7  8  9 10 11 12 13 17 14 15 18 19
TYPE ASSIGNMENTS     16 20 11 12 13 17 14 15 18 19 16 20  1  1  1  1  1  1  1  1
TYPE ASSIGNMENTS      1  1  1  1  1  1  1  1  1  1  1  1  1  1  1  1  1  1  1  1
TYPE ASSIGNMENTS      1  1  1  1  1  1  1  1  1  1  1  1  1  1  1  1  1  1  1  1
TYPE ASSIGNMENTS      1  1  2  2  2  2  2  2  2  2  2  3  3  3  3  3  3  3  3  3
TYPE ASSIGNMENTS      4  4  4  4  4  4  4  4  4  2  2  2  2  2  2  2  2  2  3  3
TYPE ASSIGNMENTS      3  3  3  3  3  3  3  4  4  4  4  4  4  4  4  4  2  2  2  2
TYPE ASSIGNMENTS      2  2  2  2  3  3  3  3  3  3  3  3  4  4  4  4  4  4  4  4
TYPE ASSIGNMENTS      2  3  4  2  3  4  2  3  4  5  5  5  5  5  5  5  6  6  6  6
TYPE ASSIGNMENTS      6  6  6  7  7  7  7  7  7  7  8  8  8  8  8  8  8  9  9  9
TYPE ASSIGNMENTS      9  9  9  9 10 10 10 10 10 10 10  5  6  7  8  9 10  5  6  7
TYPE ASSIGNMENTS      8  9 10  5  6  7  8  9 10 11 12 13 17 14 15 18 19 16 20 11
TYPE ASSIGNMENTS     12 13 17 14 15 18 19 16 20  1  1  1  1  1  1  1  1  1  1  1
TYPE ASSIGNMENTS      1  1  1  1  1  1  1  1  1  1  1  1  1  1  1  1  1  1  1  1
TYPE ASSIGNMENTS      1  1  1  1  1  1  1  1  1  1  1  1  1  1  1  1  1  1  1  2
TYPE ASSIGNMENTS      2  2  2  2  2  2  2  2  3  3  3  3  3  3  3  3  3  4  4  4
TYPE ASSIGNMENTS      4  4  4  4  4  4  2  2  2  2  2  2  2  2  2  3  3  3  3  3
TYPE ASSIGNMENTS      3  3  3  3  4  4  4  4  4  4  4  4  4  2  2  2  2  2  2  2
TYPE ASSIGNMENTS      2  3  3  3  3  3  3  3  3  4  4  4  4  4  4  4  4  2  3  4
TYPE ASSIGNMENTS      2  3  4  2  3  4  5  5  5  5  5  5  5  6  6  6  6  6  6  6
TYPE ASSIGNMENTS      7  7  7  7  7  7  7  8  8  8  8  8  8  8  9  9  9  9  9  9
TYPE ASSIGNMENTS      9 10 10 10 10 10 10 10  5  6  7  8  9 10  5  6  7  8  9 10
TYPE ASSIGNMENTS      5  6  7  8  9 10 11 12 13 17 14 15 18 19 16 20 11 12 13 17
TYPE ASSIGNMENTS     14 15 18 19 16 20  1  1  1  1  1  1  1  1  1  1  1  1  1  1
TYPE ASSIGNMENTS      1  1  2  2  2  3  3  3  4  4  4  2  3  4  2  3  4  2  3  4
TYPE ASSIGNMENTS      5  6  7  8  9 10  5  6  7  8  9 10  5  6  7  8  9 10 11 12
TYPE ASSIGNMENTS     13 17 14 15 18 19 16 20 11 12 13 17 14 15 18 19 16 20
EXPONENTS  0.8236000D+04 0.1235000D+04 0.2808000D+03 0.7927000D+02 0.2559000D+02
EXPONENTS  0.8997000D+01 0.3319000D+01 0.2808000D+03 0.7927000D+02 0.2559000D+02
EXPONENTS  0.8997000D+01 0.3319000D+01 0.3643000D+00 0.9059000D+00 0.1285000D+00
EXPONENTS  0.4402000D-01 0.1871000D+02 0.4133000D+01 0.1200000D+01 0.1871000D+02
EXPONENTS  0.4133000D+01 0.1200000D+01 0.1871000D+02 0.4133000D+01 0.1200000D+01
EXPONENTS  0.3827000D+00 0.3827000D+00 0.3827000D+00 0.1209000D+00 0.1209000D+00
EXPONENTS  0.1209000D+00 0.3569000D-01 0.3569000D-01 0.3569000D-01 0.1097000D+01
EXPONENTS  0.1097000D+01 0.1097000D+01 0.1097000D+01 0.1097000D+01 0.1097000D+01
EXPONENTS  0.3180000D+00 0.3180000D+00 0.3180000D+00 0.3180000D+00 0.3180000D+00
EXPONENTS  0.3180000D+00 0.1000000D+00 0.1000000D+00 0.1000000D+00 0.1000000D+00
EXPONENTS  0.1000000D+00 0.1000000D+00 0.7610000D+00 0.7610000D+00 0.7610000D+00
EXPONENTS  0.7610000D+00 0.7610000D+00 0.7610000D+00 0.7610000D+00 0.7610000D+00
EXPONENTS  0.7610000D+00 0.7610000D+00 0.2680000D+00 0.2680000D+00 0.2680000D+00
EXPONENTS  0.2680000D+00 0.2680000D+00 0.2680000D+00 0.2680000D+00 0.2680000D+00
EXPONENTS  0.2680000D+00 0.2680000D+00 0.1063900D+08 0.1593400D+07 0.3626100D+06
EXPONENTS  0.1027000D+06 0.3350100D+05 0.1209300D+05 0.4715900D+04 0.1955600D+04
EXPONENTS  0.8526100D+03 0.3876700D+03 0.1826800D+03 0.8824500D+02 0.3926300D+02
EXPONENTS  0.9405700D+01 0.1899500D+01 0.3350100D+05 0.1209300D+05 0.4715900D+04
EXPONENTS  0.1955600D+04 0.8526100D+03 0.3876700D+03 0.1826800D+03 0.8824500D+02
EXPONENTS  0.3926300D+02 0.1923400D+02 0.9405700D+01 0.1899500D+01 0.4715900D+04
EXPONENTS  0.8526100D+03 0.3876700D+03 0.1826800D+03 0.8824500D+02 0.3926300D+02
EXPONENTS  0.1923400D+02 0.9405700D+01 0.4160100D+01 0.1899500D+01 0.4715900D+04
EXPONENTS  0.8526100D+03 0.3876700D+03 0.8824500D+02 0.3926300D+02 0.1923400D+02
EXPONENTS  0.9405700D+01 0.4160100D+01 0.1899500D+01 0.3011400D+00 0.6047200D+00
EXPONENTS  0.1251500D+00 0.4559300D-01 0.8676500D+04 0.2055900D+04 0.6662300D+03
EXPONENTS  0.2531000D+03 0.1061200D+03 0.4724200D+02 0.2182500D+02 0.9968400D+01
EXPONENTS  0.1998200D+01 0.8676500D+04 0.2055900D+04 0.6662300D+03 0.2531000D+03
EXPONENTS  0.1061200D+03 0.4724200D+02 0.2182500D+02 0.9968400D+01 0.1998200D+01
EXPONENTS  0.8676500D+04 0.2055900D+04 0.6662300D+03 0.2531000D+03 0.1061200D+03
EXPONENTS  0.4724200D+02 0.2182500D+02 0.9968400D+01 0.1998200D+01 0.8676500D+04
EXPONENTS  0.6662300D+03 0.2531000D+03 0.1061200D+03 0.4724200D+02 0.2182500D+02
EXPONENTS  0.9968400D+01 0.4517100D+01 0.1998200D+01 0.8676500D+04 0.6662300D+03
EXPONENTS  0.2531000D+03 0.1061200D+03 0.4724200D+02 0.2182500D+02 0.9968400D+01
EXPONENTS  0.4517100D+01 0.1998200D+01 0.8676500D+04 0.6662300D+03 0.2531000D+03
EXPONENTS  0.1061200D+03 0.4724200D+02 0.2182500D+02 0.9968400D+01 0.4517100D+01
EXPONENTS  0.1998200D+01 0.6662300D+03 0.1061200D+03 0.4724200D+02 0.2182500D+02
EXPONENTS  0.9968400D+01 0.4517100D+01 0.1998200D+01 0.2814500D+00 0.6662300D+03
EXPONENTS  0.1061200D+03 0.4724200D+02 0.2182500D+02 0.9968400D+01 0.4517100D+01
EXPONENTS  0.1998200D+01 0.2814500D+00 0.6662300D+03 0.1061200D+03 0.4724200D+02
EXPONENTS  0.2182500D+02 0.9968400D+01 0.4517100D+01 0.1998200D+01 0.2814500D+00
EXPONENTS  0.7098800D+00 0.7098800D+00 0.7098800D+00 0.1020400D+00 0.1020400D+00
EXPONENTS  0.1020400D+00 0.3514200D-01 0.3514200D-01 0.3514200D-01 0.4038300D+03
EXPONENTS  0.1211700D+03 0.4634500D+02 0.1972100D+02 0.8862400D+01 0.3996200D+01
EXPONENTS  0.1763600D+01 0.4038300D+03 0.1211700D+03 0.4634500D+02 0.1972100D+02
EXPONENTS  0.8862400D+01 0.3996200D+01 0.1763600D+01 0.4038300D+03 0.1211700D+03
EXPONENTS  0.4634500D+02 0.1972100D+02 0.8862400D+01 0.3996200D+01 0.1763600D+01
EXPONENTS  0.4038300D+03 0.1211700D+03 0.4634500D+02 0.1972100D+02 0.8862400D+01
EXPONENTS  0.3996200D+01 0.1763600D+01 0.4038300D+03 0.1211700D+03 0.4634500D+02
EXPONENTS  0.1972100D+02 0.8862400D+01 0.3996200D+01 0.1763600D+01 0.4038300D+03
EXPONENTS  0.1211700D+03 0.4634500D+02 0.1972100D+02 0.8862400D+01 0.3996200D+01
EXPONENTS  0.1763600D+01 0.7061900D+00 0.7061900D+00 0.7061900D+00 0.7061900D+00
EXPONENTS  0.7061900D+00 0.7061900D+00 0.2639000D+00 0.2639000D+00 0.2639000D+00
EXPONENTS  0.2639000D+00 0.2639000D+00 0.2639000D+00 0.1047000D+00 0.1047000D+00
EXPONENTS  0.1047000D+00 0.1047000D+00 0.1047000D+00 0.1047000D+00 0.5515000D+00
EXPONENTS  0.5515000D+00 0.5515000D+00 0.5515000D+00 0.5515000D+00 0.5515000D+00
EXPONENTS  0.5515000D+00 0.5515000D+00 0.5515000D+00 0.5515000D+00 0.2580000D+00
EXPONENTS  0.2580000D+00 0.2580000D+00 0.2580000D+00 0.2580000D+00 0.2580000D+00
EXPONENTS  0.2580000D+00 0.2580000D+00 0.2580000D+00 0.2580000D+00 0.1063900D+08
EXPONENTS  0.1593400D+07 0.3626100D+06 0.1027000D+06 0.3350100D+05 0.1209300D+05
EXPONENTS  0.4715900D+04 0.1955600D+04 0.8526100D+03 0.3876700D+03 0.1826800D+03
EXPONENTS  0.8824500D+02 0.3926300D+02 0.9405700D+01 0.1899500D+01 0.3350100D+05
EXPONENTS  0.1209300D+05 0.4715900D+04 0.1955600D+04 0.8526100D+03 0.3876700D+03
EXPONENTS  0.1826800D+03 0.8824500D+02 0.3926300D+02 0.1923400D+02 0.9405700D+01
EXPONENTS  0.1899500D+01 0.4715900D+04 0.8526100D+03 0.3876700D+03 0.1826800D+03
EXPONENTS  0.8824500D+02 0.3926300D+02 0.1923400D+02 0.9405700D+01 0.4160100D+01
EXPONENTS  0.1899500D+01 0.4715900D+04 0.8526100D+03 0.3876700D+03 0.8824500D+02
EXPONENTS  0.3926300D+02 0.1923400D+02 0.9405700D+01 0.4160100D+01 0.1899500D+01
EXPONENTS  0.3011400D+00 0.6047200D+00 0.1251500D+00 0.4559300D-01 0.8676500D+04
EXPONENTS  0.2055900D+04 0.6662300D+03 0.2531000D+03 0.1061200D+03 0.4724200D+02
EXPONENTS  0.2182500D+02 0.9968400D+01 0.1998200D+01 0.8676500D+04 0.2055900D+04
EXPONENTS  0.6662300D+03 0.2531000D+03 0.1061200D+03 0.4724200D+02 0.2182500D+02
EXPONENTS  0.9968400D+01 0.1998200D+01 0.8676500D+04 0.2055900D+04 0.6662300D+03
EXPONENTS  0.2531000D+03 0.1061200D+03 0.4724200D+02 0.2182500D+02 0.9968400D+01
EXPONENTS  0.1998200D+01 0.8676500D+04 0.6662300D+03 0.2531000D+03 0.1061200D+03
EXPONENTS  0.4724200D+02 0.2182500D+02 0.9968400D+01 0.4517100D+01 0.1998200D+01
EXPONENTS  0.8676500D+04 0.6662300D+03 0.2531000D+03 0.1061200D+03 0.4724200D+02
EXPONENTS  0.2182500D+02 0.9968400D+01 0.4517100D+01 0.1998200D+01 0.8676500D+04
EXPONENTS  0.6662300D+03 0.2531000D+03 0.1061200D+03 0.4724200D+02 0.2182500D+02
EXPONENTS  0.9968400D+01 0.4517100D+01 0.1998200D+01 0.6662300D+03 0.1061200D+03
EXPONENTS  0.4724200D+02 0.2182500D+02 0.9968400D+01 0.4517100D+01 0.1998200D+01
EXPONENTS  0.2814500D+00 0.6662300D+03 0.1061200D+03 0.4724200D+02 0.2182500D+02
EXPONENTS  0.9968400D+01 0.4517100D+01 0.1998200D+01 0.2814500D+00 0.6662300D+03
EXPONENTS  0.1061200D+03 0.4724200D+02 0.2182500D+02 0.9968400D+01 0.4517100D+01
EXPONENTS  0.1998200D+01 0.2814500D+00 0.7098800D+00 0.7098800D+00 0.7098800D+00
EXPONENTS  0.1020400D+00 0.1020400D+00 0.1020400D+00 0.3514200D-01 0.3514200D-01
EXPONENTS  0.3514200D-01 0.4038300D+03 0.1211700D+03 0.4634500D+02 0.1972100D+02
EXPONENTS  0.8862400D+01 0.3996200D+01 0.1763600D+01 0.4038300D+03 0.1211700D+03
EXPONENTS  0.4634500D+02 0.1972100D+02 0.8862400D+01 0.3996200D+01 0.1763600D+01
EXPONENTS  0.4038300D+03 0.1211700D+03 0.4634500D+02 0.1972100D+02 0.8862400D+01
EXPONENTS  0.3996200D+01 0.1763600D+01 0.4038300D+03 0.1211700D+03 0.4634500D+02
EXPONENTS  0.1972100D+02 0.8862400D+01 0.3996200D+01 0.1763600D+01 0.4038300D+03
EXPONENTS  0.1211700D+03 0.4634500D+02 0.1972100D+02 0.8862400D+01 0.3996200D+01
EXPONENTS  0.1763600D+01 0.4038300D+03 0.1211700D+03 0.4634500D+02 0.1972100D+02
EXPONENTS  0.8862400D+01 0.3996200D+01 0.1763600D+01 0.7061900D+00 0.7061900D+00
EXPONENTS  0.7061900D+00 0.7061900D+00 0.7061900D+00 0.7061900D+00 0.2639000D+00
EXPONENTS  0.2639000D+00 0.2639000D+00 0.2639000D+00 0.2639000D+00 0.2639000D+00
EXPONENTS  0.1047000D+00 0.1047000D+00 0.1047000D+00 0.1047000D+00 0.1047000D+00
EXPONENTS  0.1047000D+00 0.5515000D+00 0.5515000D+00 0.5515000D+00 0.5515000D+00
EXPONENTS  0.5515000D+00 0.5515000D+00 0.5515000D+00 0.5515000D+00 0.5515000D+00
EXPONENTS  0.5515000D+00 0.2580000D+00 0.2580000D+00 0.2580000D+00 0.2580000D+00
EXPONENTS  0.2580000D+00 0.2580000D+00 0.2580000D+00 0.2580000D+00 0.2580000D+00
EXPONENTS  0.2580000D+00 0.1533000D+05 0.2299000D+04 0.5224000D+03 0.1473000D+03
EXPONENTS  0.4755000D+02 0.1676000D+02 0.6207000D+01 0.5224000D+03 0.1473000D+03
EXPONENTS  0.4755000D+02 0.1676000D+02 0.6207000D+01 0.6882000D+00 0.1752000D+01
EXPONENTS  0.2384000D+00 0.7376000D-01 0.3446000D+02 0.7749000D+01 0.2280000D+01
EXPONENTS  0.3446000D+02 0.7749000D+01 0.2280000D+01 0.3446000D+02 0.7749000D+01
EXPONENTS  0.2280000D+01 0.7156000D+00 0.7156000D+00 0.7156000D+00 0.2140000D+00
EXPONENTS  0.2140000D+00 0.2140000D+00 0.5974000D-01 0.5974000D-01 0.5974000D-01
EXPONENTS  0.2314000D+01 0.2314000D+01 0.2314000D+01 0.2314000D+01 0.2314000D+01
EXPONENTS  0.2314000D+01 0.6450000D+00 0.6450000D+00 0.6450000D+00 0.6450000D+00
EXPONENTS  0.6450000D+00 0.6450000D+00 0.2140000D+00 0.2140000D+00 0.2140000D+00
EXPONENTS  0.2140000D+00 0.2140000D+00 0.2140000D+00 0.1428000D+01 0.1428000D+01
EXPONENTS  0.1428000D+01 0.1428000D+01 0.1428000D+01 0.1428000D+01 0.1428000D+01
EXPONENTS  0.1428000D+01 0.1428000D+01 0.1428000D+01 0.5000000D+00 0.5000000D+00
EXPONENTS  0.5000000D+00 0.5000000D+00 0.5000000D+00 0.5000000D+00 0.5000000D+00
EXPONENTS  0.5000000D+00 0.5000000D+00 0.5000000D+00
MO    1     MO 0.0        OCC NO =    2.0000165  ORB. ENERGY =    0.000000
  0.12189742D+00  0.22724134D+00  0.38406883D+00  0.57732708D+00  0.70914292D+00
  0.59849160D+00  0.22504847D+00  0.28782388D-04  0.21513052D-03  0.80399187D-03
  0.22430121D-02  0.30050179D-02 -0.35483658D-02  0.93583778D-02 -0.19449245D-02
 -0.30154857D-03 -0.43559047D-13 -0.40839375D-13 -0.29080068D-13 -0.11675470D-02
 -0.10946495D-02 -0.77945564D-03  0.35759138D-02  0.33526465D-02  0.23872840D-02
 -0.50564504D-14 -0.39679219D-03  0.19388057D-02 -0.63270527D-14 -0.87784584D-04
  0.37618856D-03  0.11656203D-14  0.32378824D-05  0.47719579D-05 -0.98711080D-04
 -0.48976777D-03  0.58847885D-03  0.41383763D-13  0.13346654D-13  0.28540779D-03
  0.33098871D-03 -0.31853353D-03 -0.12455177D-04  0.40407586D-13  0.13225162D-13
  0.12648176D-03  0.30306774D-04 -0.18979315D-04 -0.11327459D-04  0.10683475D-14
  0.26551839D-14  0.26239795D-04 -0.29858997D-14  0.11513172D-04  0.12179339D-03
  0.12205942D-14 -0.29496708D-04 -0.16489127D-03  0.77371049D-14 -0.50428083D-05
 -0.20048890D-03  0.52750477D-14  0.13930731D-14 -0.89555619D-05 -0.14090763D-04
 -0.35095150D-14  0.10885924D-05  0.21673630D-05 -0.66970418D-15  0.25778093D-04
  0.40104926D-04 -0.83113018D-14 -0.28375555D-01 -0.53378693D-01 -0.92401244D-01
 -0.15146338D+00 -0.23726969D+00 -0.35663566D+00 -0.50971619D+00 -0.67664714D+00
 -0.78800448D+00 -0.72369095D+00 -0.42304488D+00 -0.11100451D+00 -0.63112229D-02
 -0.11012405D-03 -0.11085239D-04 -0.13465702D-02 -0.38899310D-02 -0.17828467D-01
 -0.52776147D-01 -0.15305236D+00 -0.31813347D+00 -0.45509371D+00 -0.13048990D+00
  0.52145512D+00  0.50419665D+00  0.11004863D+00 -0.15929206D-02 -0.82488977D-03
 -0.38482814D-02 -0.78098015D-02 -0.30607970D-01 -0.21478338D-01  0.13987506D+00
  0.43342480D+00  0.53017560D-01 -0.37887906D+00 -0.17780793D+00 -0.90196888D-06
 -0.12365277D-05  0.23707228D-05  0.50385655D-05 -0.19047187D-04 -0.61593765D-04
 -0.21421375D-04  0.20952437D-03  0.46734797D-03 -0.31011789D-03 -0.73589692D-02
  0.43543958D-03  0.15522462D-03  0.76247390D-08  0.10940362D-07  0.14486051D-07
  0.16728867D-07  0.15510815D-07  0.10044595D-07  0.35443279D-08  0.40839114D-09
 -0.66718566D-12  0.75286226D+01  0.10802450D+02  0.14303442D+02  0.16517985D+02
  0.15315288D+02  0.99179747D+01  0.34996487D+01  0.40324302D+00 -0.65877522D-03
  0.47027194D+01  0.67477004D+01  0.89345788D+01  0.10317883D+02  0.95666237D+01
  0.61952171D+01  0.21860394D+01  0.25188389D+00 -0.41150090D-03 -0.15148863D-10
  0.43192106D-10  0.21082622D-09  0.43687203D-09  0.54823127D-09  0.86939620D-10
 -0.70374685D-09 -0.61376928D-09 -0.15777853D-09 -0.44807333D-01  0.12775369D+00
  0.62358219D+00  0.12921809D+01  0.16215595D+01  0.25715017D+00 -0.20815437D+01
 -0.18154079D+01 -0.46667762D+00 -0.28079636D-01  0.80060046D-01  0.39078338D+00
  0.80977747D+00  0.10161908D+01  0.16114958D+00 -0.13044514D+01 -0.11376708D+01
 -0.29245520D+00  0.20360084D-13  0.28763483D-13 -0.13383498D-13  0.26820657D-13
  0.29443078D-13  0.79476095D-13  0.25045017D-13 -0.53772185D-13 -0.23754752D-03
 -0.33559261D-03  0.15614949D-03 -0.31292505D-03 -0.34352166D-03 -0.92727264D-03
 -0.29220811D-03  0.62737702D-03 -0.11907860D-03 -0.16822697D-03  0.78275131D-04
 -0.15686410D-03 -0.17220167D-03 -0.46482629D-03 -0.14647904D-03  0.31449362D-03
 -0.53258932D-11 -0.16520365D-01 -0.10454602D-01 -0.48398973D-13  0.13967294D-03
  0.62160321D-04  0.82401943D-15  0.82376621D-05  0.65180009D-05  0.74640459D+00
  0.78103198D+00  0.66548105D+00  0.43826958D+00  0.20198540D+00  0.60484855D-01
  0.10290985D-01 -0.92149615D+00 -0.96424643D+00 -0.82158957D+00 -0.54107884D+00
 -0.24936713D+00 -0.74673390D-01 -0.12705044D-01  0.17509156D+00  0.18321445D+00
  0.15610852D+00  0.10280926D+00  0.47381728D-01  0.14188535D-01  0.24140589D-02
 -0.86328185D-10 -0.90333144D-10 -0.76968673D-10 -0.50689690D-10 -0.23361369D-10
 -0.69955998D-11 -0.11902420D-11 -0.98974004D-10 -0.10356563D-09 -0.88243461D-10
 -0.58114990D-10 -0.26783469D-10 -0.80203530D-11 -0.13645951D-11 -0.27534183D+01
 -0.28811556D+01 -0.24548988D+01 -0.16167364D+01 -0.74510568D+00 -0.22312310D+00
 -0.37962504D-01  0.85642172D-03 -0.10590007D-02  0.20257899D-03 -0.10254568D-12
 -0.10306367D-12 -0.28444597D-02 -0.10034713D-03  0.10221051D-03 -0.18633843D-05
  0.10795146D-13  0.70804762D-14  0.26270298D-03 -0.13900623D-04  0.15189036D-04
 -0.12884131D-05  0.24177882D-15  0.68408303D-16  0.24245048D-04  0.11057221D-13
 -0.32060807D-04  0.66332441D-04 -0.30043202D-13  0.15525594D-03  0.11077117D-03
 -0.31284599D-14 -0.59073522D-04 -0.30976850D-03 -0.61598858D-13 -0.21410915D-14
  0.10485137D-04 -0.16326987D-04  0.53181588D-14 -0.59441403D-04 -0.46754155D-04
  0.11051157D-14  0.27985990D-04  0.95735117D-04  0.11059946D-13 -0.40207236D-01
 -0.75635867D-01 -0.13092955D+00 -0.21461867D+00 -0.33620342D+00 -0.50534110D+00
 -0.72225123D+00 -0.95878693D+00 -0.11165766D+01 -0.10254465D+01 -0.59944080D+00
 -0.15728977D+00 -0.89427970D-02 -0.15604219D-03 -0.15707422D-04 -0.19077165D-02
 -0.55109533D-02 -0.25257994D-01 -0.74769162D-01 -0.21683275D+00 -0.45070689D+00
 -0.64474156D+00 -0.18486800D+00  0.73875728D+00  0.71430681D+00  0.15590838D+00
 -0.22567266D-02 -0.11659049D-02 -0.54391873D-02 -0.11038427D-01 -0.43261515D-01
 -0.30357629D-01  0.19770037D+00  0.61260558D+00  0.74935382D-01 -0.53551025D+00
 -0.25131494D+00 -0.12735683D-05 -0.17459610D-05  0.33474296D-05  0.71143885D-05
 -0.26894379D-04 -0.86969591D-04 -0.30246701D-04  0.29584568D-03  0.65988922D-03
 -0.43788241D-03 -0.10440186D-01  0.60885612D-03  0.14540742D-03  0.11775551D-08
  0.16896159D-08  0.22372075D-08  0.25835853D-08  0.23954708D-08  0.15512747D-08
  0.54738157D-09  0.63071417D-10 -0.10303932D-12 -0.12062165D+02 -0.17307407D+02
 -0.22916606D+02 -0.26464691D+02 -0.24537759D+02 -0.15890323D+02 -0.56070469D+01
 -0.64606558D+00  0.10554727D-02  0.74468948D+01  0.10685183D+02  0.14148169D+02
  0.16338673D+02  0.15149031D+02  0.98103090D+01  0.34616578D+01  0.39886558D+00
 -0.65162381D-03  0.10404968D-10 -0.29666419D-10 -0.14480560D-09 -0.30006475D-09
 -0.37655164D-09 -0.59714318D-10  0.48336723D-09  0.42156630D-09  0.10836989D-09
  0.71949576D-01 -0.20514106D+00 -0.10013199D+01 -0.20749252D+01 -0.26038264D+01
 -0.41292003D+00  0.33424481D+01  0.29150994D+01  0.74936967D+00 -0.44492742D-01
  0.12685674D+00  0.61920404D+00  0.12831085D+01  0.16101745D+01  0.25534472D+00
 -0.20669292D+01 -0.18026620D+01 -0.46340109D+00 -0.19603820D-13 -0.27695078D-13
  0.12886375D-13 -0.25824418D-13 -0.28349430D-13 -0.76523998D-13 -0.24114734D-13
  0.51774846D-13  0.26937309D-03  0.38055384D-03 -0.17706971D-03  0.35484937D-03
  0.38954519D-03  0.10515046D-02  0.33135687D-03 -0.71143024D-03 -0.16018131D-03
 -0.22629436D-03  0.10529358D-03 -0.21100933D-03 -0.23164102D-03 -0.62527171D-03
 -0.19703964D-03  0.42304829D-03  0.35815393D-11  0.26545816D-01 -0.16545730D-01
  0.39604134D-13 -0.10386017D-03  0.55640100D-04 -0.13673137D-14 -0.89426053D-05
  0.65013295D-05  0.12303138D+01  0.12873908D+01  0.10969259D+01  0.72240862D+00
  0.33293663D+00  0.99698411D-01  0.16962839D-01 -0.15034263D+01 -0.15731736D+01
 -0.13404281D+01 -0.88277325D+00 -0.40684391D+00 -0.12183007D+00 -0.20728353D-01
  0.27311249D+00  0.28578279D+00  0.24350223D+00  0.16036463D+00  0.73907283D-01
  0.22131655D-01  0.37655136D-02 -0.10340357D-10 -0.10820069D-10 -0.92192783D-11
 -0.60715917D-11 -0.27982159D-11 -0.83793027D-12 -0.14256673D-12  0.52863855D-10
  0.55316328D-10  0.47132472D-10  0.31040296D-10  0.14305548D-10  0.42838196D-11
  0.72885559D-12  0.44935331D+01  0.47019982D+01  0.40063541D+01  0.26384871D+01
  0.12160001D+01  0.36413321D+00  0.61954179D-01  0.13484668D-02 -0.16218926D-02
  0.27342578D-03 -0.18987210D-13  0.54615975D-13  0.45268837D-02 -0.12789227D-03
  0.11594169D-03  0.11950578D-04  0.30763867D-14 -0.90921621D-15 -0.33447716D-03
 -0.12591255D-04  0.14263134D-04 -0.16718789D-05 -0.14289257D-14  0.20535974D-15
 -0.31971562D-04 -0.65885495D-14  0.47490931D-04  0.11235802D-03  0.16789472D-13
 -0.25096053D-03  0.17027685D-03  0.29761765D-14  0.10848774D-03 -0.50735091D-03
 -0.40271046D-13  0.62471174D-15 -0.90780629D-05 -0.24617193D-04 -0.11284497D-14
  0.75948576D-04 -0.59773832D-04 -0.74568547D-15 -0.48714387D-04  0.13362541D-03
  0.47207613D-14 -0.35317722D-01 -0.65826427D-01 -0.11161796D+00 -0.16892191D+00
 -0.21071677D+00 -0.18082634D+00 -0.69246881D-01 -0.34554185D-05 -0.37074372D-04
 -0.13666312D-03 -0.39959494D-03 -0.48153133D-03  0.58005552D-03 -0.31365156D-02
  0.29020301D-03  0.65565408D-04  0.61012949D-13  0.59162037D-13  0.39910360D-13
  0.58252849D-03  0.56485668D-03  0.38104898D-03  0.27551743D-02  0.26715922D-02
  0.18022403D-02  0.92609486D-14  0.12985133D-03  0.61574089D-03 -0.18019390D-14
 -0.14256374D-04  0.75730308D-04 -0.18017828D-14 -0.59680106D-05  0.73444216D-05
  0.28264294D-03 -0.48003590D-04 -0.23463935D-03  0.19917849D-13 -0.57870808D-14
  0.72495473D-04  0.31763002D-04  0.15078495D-03 -0.18254796D-03 -0.19316688D-14
  0.88337596D-14  0.42618610D-04  0.21997067D-05  0.44753658D-04 -0.46953365D-04
 -0.15374393D-14  0.27659343D-14  0.13024118D-04 -0.87738228D-16  0.10752424D-04
 -0.28856655D-03 -0.42876033D-14 -0.23821220D-04  0.42563412D-03  0.45508180D-14
 -0.84360517D-05  0.44006553D-03 -0.18500756D-13  0.88531074D-15 -0.29090165D-06
  0.78021874D-04  0.32324434D-14  0.10325559D-04 -0.38749365D-04 -0.58883756D-14
 -0.94528545D-05 -0.19531626D-03  0.10030327D-13
MO    2     MO 0.0        OCC NO =    2.0000156  ORB. ENERGY =    0.000000
 -0.24984578D-01 -0.46576287D-01 -0.78720270D-01 -0.11833125D+00 -0.14534874D+00
 -0.12266921D+00 -0.46126827D-01 -0.56597170D-05 -0.42302878D-04 -0.15809551D-03
 -0.44106187D-03 -0.59090130D-03  0.69774426D-03 -0.19358109D-02  0.38383391D-03
  0.61040715D-04  0.15001102D-12  0.14064487D-12  0.10014753D-12 -0.56765286D-02
 -0.53221064D-02 -0.37896568D-02 -0.66061926D-03 -0.61937255D-03 -0.44103015D-03
  0.39156230D-13 -0.19220018D-02 -0.37285987D-03  0.82482966D-14 -0.45040071D-03
 -0.74294214D-04 -0.94413890D-16  0.15724091D-04 -0.98541879D-06  0.22303601D-04
  0.99194518D-04 -0.12149812D-03 -0.28316879D-13 -0.35359914D-13  0.14198649D-02
 -0.67778261D-04  0.64150184D-04  0.36280771D-05 -0.24713164D-13 -0.38019052D-13
  0.61291978D-03 -0.61066842D-05  0.38777710D-05  0.22289133D-05  0.29290438D-14
 -0.34427148D-14  0.13159838D-03  0.38362129D-14  0.54408267D-04 -0.23993511D-04
  0.79939337D-15 -0.14292520D-03  0.35393622D-04 -0.12308032D-13 -0.20299600D-04
  0.36586911D-04 -0.14287871D-14 -0.17036572D-14 -0.44620990D-04  0.29176014D-05
  0.54966603D-14  0.11076139D-04  0.14655160D-06 -0.38568876D-15  0.12278683D-03
 -0.88993557D-05  0.63560148D-14  0.38058310D-01  0.71593413D-01  0.12393185D+00
  0.20314810D+00  0.31823460D+00  0.47833250D+00  0.68364960D+00  0.90754335D+00
  0.10568998D+01  0.97064019D+00  0.56740292D+00  0.14888322D+00  0.84648379D-02
  0.14770232D-03  0.14867919D-04  0.18058634D-02  0.52167232D-02  0.23909468D-01
  0.70777233D-01  0.20525604D+00  0.42664363D+00  0.61031878D+00  0.17499789D+00
 -0.69931500D+00 -0.67616994D+00 -0.14758443D+00  0.21362399D-02  0.11006792D-02
  0.51348963D-02  0.10420891D-01  0.40841284D-01  0.28659296D-01 -0.18664018D+00
 -0.57833385D+00 -0.70743182D-01  0.50555156D+00  0.23725533D+00  0.11787267D-05
  0.16159407D-05 -0.30981492D-05 -0.65845858D-05  0.24891577D-04  0.80493036D-04
  0.27994254D-04 -0.27381429D-03 -0.61074781D-03  0.40527366D-03  0.98449694D-02
 -0.48462644D-03 -0.32595535D-05 -0.79853323D-08 -0.11457760D-07 -0.15171133D-07
 -0.17520018D-07 -0.16244361D-07 -0.10519630D-07 -0.37119482D-08 -0.42770500D-09
  0.69873857D-12 -0.13204757D+02 -0.18946855D+02 -0.25087387D+02 -0.28971566D+02
 -0.26862105D+02 -0.17395539D+02 -0.61381759D+01 -0.70726432D+00  0.11554526D-02
 -0.78501231D+01 -0.11263755D+02 -0.14914252D+02 -0.17223365D+02 -0.15969308D+02
 -0.10341509D+02 -0.36490968D+01 -0.42046302D+00  0.68690739D-03  0.18540868D-10
 -0.52863317D-10 -0.25803265D-09 -0.53469271D-09 -0.67098657D-09 -0.10640640D-09
  0.86132387D-09  0.75119930D-09  0.19310696D-09  0.79050638D-01 -0.22538745D+00
 -0.11001451D+01 -0.22797099D+01 -0.28608109D+01 -0.45367316D+00  0.36723310D+01
  0.32028050D+01  0.82332870D+00  0.46946782D-01 -0.13385364D+00 -0.65335683D+00
 -0.13538796D+01 -0.16989852D+01 -0.26942850D+00  0.21809327D+01  0.19020895D+01
  0.48896041D+00 -0.20665652D-13 -0.29195170D-13  0.13584360D-13 -0.27223186D-13
 -0.29884965D-13 -0.80668887D-13 -0.25420898D-13  0.54579207D-13  0.13036870D-03
  0.18417693D-03 -0.85696565D-04  0.17173673D-03  0.18852848D-03  0.50889747D-03
  0.16036704D-03 -0.34431144D-03  0.13015873D-03  0.18388030D-03 -0.85558541D-04
  0.17146012D-03  0.18822484D-03  0.50807783D-03  0.16010875D-03 -0.34375689D-03
  0.64731444D-11  0.29150236D-01  0.17403436D-01  0.61225415D-13  0.72134700D-04
  0.62686565D-05 -0.12669707D-14 -0.34032941D-05 -0.11723562D-05 -0.12900271D+01
 -0.13498744D+01 -0.11501652D+01 -0.75747077D+00 -0.34909573D+00 -0.10453728D+00
 -0.17786132D-01  0.15956045D+01  0.16696281D+01  0.14226125D+01  0.93689791D+00
  0.43178835D+00  0.12929972D+00  0.21999251D-01 -0.30557732D+00 -0.31975374D+00
 -0.27244730D+00 -0.17942714D+00 -0.82692628D-01 -0.24762441D-01 -0.42131195D-02
  0.14745175D-10  0.15429237D-10  0.13146536D-10  0.86579876D-11  0.39902087D-11
  0.11948745D-11  0.20329776D-12  0.60150942D-10  0.62941480D-10  0.53629510D-10
  0.35319087D-10  0.16277515D-10  0.48743284D-11  0.82932565D-12  0.47016960D+01
  0.49198182D+01  0.41919485D+01  0.27607150D+01  0.12723313D+01  0.38100168D+00
  0.64824206D-01 -0.13418090D-02  0.15828115D-02 -0.24100257D-03  0.56006690D-13
  0.74527895D-13  0.45979797D-02  0.89896299D-04 -0.57487315D-04 -0.32408984D-04
 -0.92369657D-14 -0.64469930D-14 -0.23150459D-03 -0.12692308D-05 -0.48944170D-07
  0.13181750D-05  0.88564104D-15  0.10622902D-14 -0.23815296D-04 -0.12733375D-13
  0.47309826D-04 -0.12674265D-03  0.37501650D-13 -0.26357465D-03 -0.16283488D-03
  0.69847585D-15  0.12164517D-03  0.54306283D-03  0.69170519D-13  0.18650214D-14
  0.10019201D-05  0.24212730D-04 -0.54057368D-14  0.52361065D-04  0.40523798D-04
 -0.18932751D-15 -0.55366825D-04 -0.11316199D-03 -0.98662729D-14 -0.23574987D-01
 -0.44348100D-01 -0.76768827D-01 -0.12583885D+00 -0.19712847D+00 -0.29630013D+00
 -0.42348255D+00 -0.56217216D+00 -0.65469010D+00 -0.60125711D+00 -0.35147426D+00
 -0.92224796D-01 -0.52434919D-02 -0.91493296D-04 -0.92098411D-05 -0.11183115D-02
 -0.32305442D-02 -0.14806343D-01 -0.43830000D-01 -0.12710828D+00 -0.26420629D+00
 -0.37795024D+00 -0.10837040D+00  0.43306265D+00  0.41872969D+00  0.91394154D-01
 -0.13229027D-02 -0.67927889D-03 -0.31689765D-02 -0.64312027D-02 -0.25205002D-01
 -0.17686947D-01  0.11518409D+00  0.35691595D+00  0.43658814D-01 -0.31199871D+00
 -0.14642098D+00 -0.73528140D-06 -0.10080124D-05  0.19326037D-05  0.41074183D-05
 -0.15527190D-04 -0.50210989D-04 -0.17462618D-04  0.17080343D-03  0.38098018D-03
 -0.25280686D-03 -0.61070855D-02  0.29532895D-03 -0.57177071D-04  0.33512064D-08
  0.48084810D-08  0.63668732D-08  0.73526303D-08  0.68172749D-08  0.44147757D-08
  0.15577943D-08  0.17949507D-09 -0.29323979D-12 -0.93737634D+01 -0.13449951D+02
 -0.17808978D+02 -0.20566270D+02 -0.19068811D+02 -0.12348706D+02 -0.43573546D+01
 -0.50207122D+00  0.82023012D-03  0.55135627D+01  0.79111395D+01  0.10475080D+02
  0.12096894D+02  0.11216102D+02  0.72633970D+01  0.25629565D+01  0.29531374D+00
 -0.48245192D-03  0.13696231D-11 -0.39050396D-11 -0.19061000D-10 -0.39498017D-10