 br2co-wavefunction
GAUSSIAN            210 MOL ORBITALS    578 PRIMITIVES        4 NUCLEI
  C    1    (CENTRE  1)   0.00000000  0.00000000 -0.92928983  CHARGE =  6.0
  Br   2    (CENTRE  2)   0.01889726 -3.01256550 -2.92306618  CHARGE = 35.0
  Br   3    (CENTRE  3)   0.00000000  3.01256550 -2.92306618  CHARGE = 35.0
  O    4    (CENTRE  4)   0.00000000  0.00000000  1.29351754  CHARGE =  8.0
CENTRE ASSIGNMENTS    1  1  1  1  1  1  1  1  1  1  1  1  1  1  1  1  1  1  1  1
CENTRE ASSIGNMENTS    1  1  1  1  1  1  1  1  1  1  1  1  1  1  1  1  1  1  1  1
CENTRE ASSIGNMENTS    1  1  1  1  1  1  1  1  1  1  1  1  1  1  1  1  1  1  1  1
CENTRE ASSIGNMENTS    1  1  1  1  1  1  1  1  1  1  1  1  2  2  2  2  2  2  2  2
CENTRE ASSIGNMENTS    2  2  2  2  2  2  2  2  2  2  2  2  2  2  2  2  2  2  2  2
CENTRE ASSIGNMENTS    2  2  2  2  2  2  2  2  2  2  2  2  2  2  2  2  2  2  2  2
CENTRE ASSIGNMENTS    2  2  2  2  2  2  2  2  2  2  2  2  2  2  2  2  2  2  2  2
CENTRE ASSIGNMENTS    2  2  2  2  2  2  2  2  2  2  2  2  2  2  2  2  2  2  2  2
CENTRE ASSIGNMENTS    2  2  2  2  2  2  2  2  2  2  2  2  2  2  2  2  2  2  2  2
CENTRE ASSIGNMENTS    2  2  2  2  2  2  2  2  2  2  2  2  2  2  2  2  2  2  2  2
CENTRE ASSIGNMENTS    2  2  2  2  2  2  2  2  2  2  2  2  2  2  2  2  2  2  2  2
CENTRE ASSIGNMENTS    2  2  2  2  2  2  2  2  2  2  2  2  2  2  2  2  2  2  2  2
CENTRE ASSIGNMENTS    2  2  2  2  2  2  2  2  2  2  2  2  2  2  2  2  2  2  2  2
CENTRE ASSIGNMENTS    2  2  2  2  2  2  2  2  2  2  2  2  2  2  2  2  2  2  2  2
CENTRE ASSIGNMENTS    2  2  2  2  2  2  2  2  2  3  3  3  3  3  3  3  3  3  3  3
CENTRE ASSIGNMENTS    3  3  3  3  3  3  3  3  3  3  3  3  3  3  3  3  3  3  3  3
CENTRE ASSIGNMENTS    3  3  3  3  3  3  3  3  3  3  3  3  3  3  3  3  3  3  3  3
CENTRE ASSIGNMENTS    3  3  3  3  3  3  3  3  3  3  3  3  3  3  3  3  3  3  3  3
CENTRE ASSIGNMENTS    3  3  3  3  3  3  3  3  3  3  3  3  3  3  3  3  3  3  3  3
CENTRE ASSIGNMENTS    3  3  3  3  3  3  3  3  3  3  3  3  3  3  3  3  3  3  3  3
CENTRE ASSIGNMENTS    3  3  3  3  3  3  3  3  3  3  3  3  3  3  3  3  3  3  3  3
CENTRE ASSIGNMENTS    3  3  3  3  3  3  3  3  3  3  3  3  3  3  3  3  3  3  3  3
CENTRE ASSIGNMENTS    3  3  3  3  3  3  3  3  3  3  3  3  3  3  3  3  3  3  3  3
CENTRE ASSIGNMENTS    3  3  3  3  3  3  3  3  3  3  3  3  3  3  3  3  3  3  3  3
CENTRE ASSIGNMENTS    3  3  3  3  3  3  3  3  3  3  3  3  3  3  3  3  3  3  3  3
CENTRE ASSIGNMENTS    3  3  3  3  3  3  4  4  4  4  4  4  4  4  4  4  4  4  4  4
CENTRE ASSIGNMENTS    4  4  4  4  4  4  4  4  4  4  4  4  4  4  4  4  4  4  4  4
CENTRE ASSIGNMENTS    4  4  4  4  4  4  4  4  4  4  4  4  4  4  4  4  4  4  4  4
CENTRE ASSIGNMENTS    4  4  4  4  4  4  4  4  4  4  4  4  4  4  4  4  4  4
TYPE ASSIGNMENTS      1  1  1  1  1  1  1  1  1  1  1  1  1  1  1  1  2  2  2  3
TYPE ASSIGNMENTS      3  3  4  4  4  2  3  4  2  3  4  2  3  4  5  6  7  8  9 10
TYPE ASSIGNMENTS      5  6  7  8  9 10  5  6  7  8  9 10 11 12 13 17 14 15 18 19
TYPE ASSIGNMENTS     16 20 11 12 13 17 14 15 18 19 16 20  1  1  1  1  1  1  1  1
TYPE ASSIGNMENTS      1  1  1  1  1  1  1  1  1  1  1  1  1  1  1  1  1  1  1  1
TYPE ASSIGNMENTS      1  1  1  1  1  1  1  1  1  1  1  1  1  1  1  1  1  1  1  1
TYPE ASSIGNMENTS      1  1  2  2  2  2  2  2  2  2  2  3  3  3  3  3  3  3  3  3
TYPE ASSIGNMENTS      4  4  4  4  4  4  4  4  4  2  2  2  2  2  2  2  2  2  3  3
TYPE ASSIGNMENTS      3  3  3  3  3  3  3  4  4  4  4  4  4  4  4  4  2  2  2  2
TYPE ASSIGNMENTS      2  2  2  2  3  3  3  3  3  3  3  3  4  4  4  4  4  4  4  4
TYPE ASSIGNMENTS      2  3  4  2  3  4  2  3  4  5  5  5  5  5  5  5  6  6  6  6
TYPE ASSIGNMENTS      6  6  6  7  7  7  7  7  7  7  8  8  8  8  8  8  8  9  9  9
TYPE ASSIGNMENTS      9  9  9  9 10 10 10 10 10 10 10  5  6  7  8  9 10  5  6  7
TYPE ASSIGNMENTS      8  9 10  5  6  7  8  9 10 11 12 13 17 14 15 18 19 16 20 11
TYPE ASSIGNMENTS     12 13 17 14 15 18 19 16 20  1  1  1  1  1  1  1  1  1  1  1
TYPE ASSIGNMENTS      1  1  1  1  1  1  1  1  1  1  1  1  1  1  1  1  1  1  1  1
TYPE ASSIGNMENTS      1  1  1  1  1  1  1  1  1  1  1  1  1  1  1  1  1  1  1  2
TYPE ASSIGNMENTS      2  2  2  2  2  2  2  2  3  3  3  3  3  3  3  3  3  4  4  4
TYPE ASSIGNMENTS      4  4  4  4  4  4  2  2  2  2  2  2  2  2  2  3  3  3  3  3
TYPE ASSIGNMENTS      3  3  3  3  4  4  4  4  4  4  4  4  4  2  2  2  2  2  2  2
TYPE ASSIGNMENTS      2  3  3  3  3  3  3  3  3  4  4  4  4  4  4  4  4  2  3  4
TYPE ASSIGNMENTS      2  3  4  2  3  4  5  5  5  5  5  5  5  6  6  6  6  6  6  6
TYPE ASSIGNMENTS      7  7  7  7  7  7  7  8  8  8  8  8  8  8  9  9  9  9  9  9
TYPE ASSIGNMENTS      9 10 10 10 10 10 10 10  5  6  7  8  9 10  5  6  7  8  9 10
TYPE ASSIGNMENTS      5  6  7  8  9 10 11 12 13 17 14 15 18 19 16 20 11 12 13 17
TYPE ASSIGNMENTS     14 15 18 19 16 20  1  1  1  1  1  1  1  1  1  1  1  1  1  1
TYPE ASSIGNMENTS      1  1  2  2  2  3  3  3  4  4  4  2  3  4  2  3  4  2  3  4
TYPE ASSIGNMENTS      5  6  7  8  9 10  5  6  7  8  9 10  5  6  7  8  9 10 11 12
TYPE ASSIGNMENTS     13 17 14 15 18 19 16 20 11 12 13 17 14 15 18 19 16 20
EXPONENTS  0.8236000D+04 0.1235000D+04 0.2808000D+03 0.7927000D+02 0.2559000D+02
EXPONENTS  0.8997000D+01 0.3319000D+01 0.2808000D+03 0.7927000D+02 0.2559000D+02
EXPONENTS  0.8997000D+01 0.3319000D+01 0.3643000D+00 0.9059000D+00 0.1285000D+00
EXPONENTS  0.4402000D-01 0.1871000D+02 0.4133000D+01 0.1200000D+01 0.1871000D+02
EXPONENTS  0.4133000D+01 0.1200000D+01 0.1871000D+02 0.4133000D+01 0.1200000D+01
EXPONENTS  0.3827000D+00 0.3827000D+00 0.3827000D+00 0.1209000D+00 0.1209000D+00
EXPONENTS  0.1209000D+00 0.3569000D-01 0.3569000D-01 0.3569000D-01 0.1097000D+01
EXPONENTS  0.1097000D+01 0.1097000D+01 0.1097000D+01 0.1097000D+01 0.1097000D+01
EXPONENTS  0.3180000D+00 0.3180000D+00 0.3180000D+00 0.3180000D+00 0.3180000D+00
EXPONENTS  0.3180000D+00 0.1000000D+00 0.1000000D+00 0.1000000D+00 0.1000000D+00
EXPONENTS  0.1000000D+00 0.1000000D+00 0.7610000D+00 0.7610000D+00 0.7610000D+00
EXPONENTS  0.7610000D+00 0.7610000D+00 0.7610000D+00 0.7610000D+00 0.7610000D+00
EXPONENTS  0.7610000D+00 0.7610000D+00 0.2680000D+00 0.2680000D+00 0.2680000D+00
EXPONENTS  0.2680000D+00 0.2680000D+00 0.2680000D+00 0.2680000D+00 0.2680000D+00
EXPONENTS  0.2680000D+00 0.2680000D+00 0.1063900D+08 0.1593400D+07 0.3626100D+06
EXPONENTS  0.1027000D+06 0.3350100D+05 0.1209300D+05 0.4715900D+04 0.1955600D+04
EXPONENTS  0.8526100D+03 0.3876700D+03 0.1826800D+03 0.8824500D+02 0.3926300D+02
EXPONENTS  0.9405700D+01 0.1899500D+01 0.3350100D+05 0.1209300D+05 0.4715900D+04
EXPONENTS  0.1955600D+04 0.8526100D+03 0.3876700D+03 0.1826800D+03 0.8824500D+02
EXPONENTS  0.3926300D+02 0.1923400D+02 0.9405700D+01 0.1899500D+01 0.4715900D+04
EXPONENTS  0.8526100D+03 0.3876700D+03 0.1826800D+03 0.8824500D+02 0.3926300D+02
EXPONENTS  0.1923400D+02 0.9405700D+01 0.4160100D+01 0.1899500D+01 0.4715900D+04
EXPONENTS  0.8526100D+03 0.3876700D+03 0.8824500D+02 0.3926300D+02 0.1923400D+02
EXPONENTS  0.9405700D+01 0.4160100D+01 0.1899500D+01 0.3011400D+00 0.6047200D+00
EXPONENTS  0.1251500D+00 0.4559300D-01 0.8676500D+04 0.2055900D+04 0.6662300D+03
EXPONENTS  0.2531000D+03 0.1061200D+03 0.4724200D+02 0.2182500D+02 0.9968400D+01
EXPONENTS  0.1998200D+01 0.8676500D+04 0.2055900D+04 0.6662300D+03 0.2531000D+03
EXPONENTS  0.1061200D+03 0.4724200D+02 0.2182500D+02 0.9968400D+01 0.1998200D+01
EXPONENTS  0.8676500D+04 0.2055900D+04 0.6662300D+03 0.2531000D+03 0.1061200D+03
EXPONENTS  0.4724200D+02 0.2182500D+02 0.9968400D+01 0.1998200D+01 0.8676500D+04
EXPONENTS  0.6662300D+03 0.2531000D+03 0.1061200D+03 0.4724200D+02 0.2182500D+02
EXPONENTS  0.9968400D+01 0.4517100D+01 0.1998200D+01 0.8676500D+04 0.6662300D+03
EXPONENTS  0.2531000D+03 0.1061200D+03 0.4724200D+02 0.2182500D+02 0.9968400D+01
EXPONENTS  0.4517100D+01 0.1998200D+01 0.8676500D+04 0.6662300D+03 0.2531000D+03
EXPONENTS  0.1061200D+03 0.4724200D+02 0.2182500D+02 0.9968400D+01 0.4517100D+01
EXPONENTS  0.1998200D+01 0.6662300D+03 0.1061200D+03 0.4724200D+02 0.2182500D+02
EXPONENTS  0.9968400D+01 0.4517100D+01 0.1998200D+01 0.2814500D+00 0.6662300D+03
EXPONENTS  0.1061200D+03 0.4724200D+02 0.2182500D+02 0.9968400D+01 0.4517100D+01
EXPONENTS  0.1998200D+01 0.2814500D+00 0.6662300D+03 0.1061200D+03 0.4724200D+02
EXPONENTS  0.2182500D+02 0.9968400D+01 0.4517100D+01 0.1998200D+01 0.2814500D+00
EXPONENTS  0.7098800D+00 0.7098800D+00 0.7098800D+00 0.1020400D+00 0.1020400D+00
EXPONENTS  0.1020400D+00 0.3514200D-01 0.3514200D-01 0.3514200D-01 0.4038300D+03
EXPONENTS  0.1211700D+03 0.4634500D+02 0.1972100D+02 0.8862400D+01 0.3996200D+01
EXPONENTS  0.1763600D+01 0.4038300D+03 0.1211700D+03 0.4634500D+02 0.1972100D+02
EXPONENTS  0.8862400D+01 0.3996200D+01 0.1763600D+01 0.4038300D+03 0.1211700D+03
EXPONENTS  0.4634500D+02 0.1972100D+02 0.8862400D+01 0.3996200D+01 0.1763600D+01
EXPONENTS  0.4038300D+03 0.1211700D+03 0.4634500D+02 0.1972100D+02 0.8862400D+01
EXPONENTS  0.3996200D+01 0.1763600D+01 0.4038300D+03 0.1211700D+03 0.4634500D+02
EXPONENTS  0.1972100D+02 0.8862400D+01 0.3996200D+01 0.1763600D+01 0.4038300D+03
EXPONENTS  0.1211700D+03 0.4634500D+02 0.1972100D+02 0.8862400D+01 0.3996200D+01
EXPONENTS  0.1763600D+01 0.7061900D+00 0.7061900D+00 0.7061900D+00 0.7061900D+00
EXPONENTS  0.7061900D+00 0.7061900D+00 0.2639000D+00 0.2639000D+00 0.2639000D+00
EXPONENTS  0.2639000D+00 0.2639000D+00 0.2639000D+00 0.1047000D+00 0.1047000D+00
EXPONENTS  0.1047000D+00 0.1047000D+00 0.1047000D+00 0.1047000D+00 0.5515000D+00
EXPONENTS  0.5515000D+00 0.5515000D+00 0.5515000D+00 0.5515000D+00 0.5515000D+00
EXPONENTS  0.5515000D+00 0.5515000D+00 0.5515000D+00 0.5515000D+00 0.2580000D+00
EXPONENTS  0.2580000D+00 0.2580000D+00 0.2580000D+00 0.2580000D+00 0.2580000D+00
EXPONENTS  0.2580000D+00 0.2580000D+00 0.2580000D+00 0.2580000D+00 0.1063900D+08
EXPONENTS  0.1593400D+07 0.3626100D+06 0.1027000D+06 0.3350100D+05 0.1209300D+05
EXPONENTS  0.4715900D+04 0.1955600D+04 0.8526100D+03 0.3876700D+03 0.1826800D+03
EXPONENTS  0.8824500D+02 0.3926300D+02 0.9405700D+01 0.1899500D+01 0.3350100D+05
EXPONENTS  0.1209300D+05 0.4715900D+04 0.1955600D+04 0.8526100D+03 0.3876700D+03
EXPONENTS  0.1826800D+03 0.8824500D+02 0.3926300D+02 0.1923400D+02 0.9405700D+01
EXPONENTS  0.1899500D+01 0.4715900D+04 0.8526100D+03 0.3876700D+03 0.1826800D+03
EXPONENTS  0.8824500D+02 0.3926300D+02 0.1923400D+02 0.9405700D+01 0.4160100D+01
EXPONENTS  0.1899500D+01 0.4715900D+04 0.8526100D+03 0.3876700D+03 0.8824500D+02
EXPONENTS  0.3926300D+02 0.1923400D+02 0.9405700D+01 0.4160100D+01 0.1899500D+01
EXPONENTS  0.3011400D+00 0.6047200D+00 0.1251500D+00 0.4559300D-01 0.8676500D+04
EXPONENTS  0.2055900D+04 0.6662300D+03 0.2531000D+03 0.1061200D+03 0.4724200D+02
EXPONENTS  0.2182500D+02 0.9968400D+01 0.1998200D+01 0.8676500D+04 0.2055900D+04
EXPONENTS  0.6662300D+03 0.2531000D+03 0.1061200D+03 0.4724200D+02 0.2182500D+02
EXPONENTS  0.9968400D+01 0.1998200D+01 0.8676500D+04 0.2055900D+04 0.6662300D+03
EXPONENTS  0.2531000D+03 0.1061200D+03 0.4724200D+02 0.2182500D+02 0.9968400D+01
EXPONENTS  0.1998200D+01 0.8676500D+04 0.6662300D+03 0.2531000D+03 0.1061200D+03
EXPONENTS  0.4724200D+02 0.2182500D+02 0.9968400D+01 0.4517100D+01 0.1998200D+01
EXPONENTS  0.8676500D+04 0.6662300D+03 0.2531000D+03 0.1061200D+03 0.4724200D+02
EXPONENTS  0.2182500D+02 0.9968400D+01 0.4517100D+01 0.1998200D+01 0.8676500D+04
EXPONENTS  0.6662300D+03 0.2531000D+03 0.1061200D+03 0.4724200D+02 0.2182500D+02
EXPONENTS  0.9968400D+01 0.4517100D+01 0.1998200D+01 0.6662300D+03 0.1061200D+03
EXPONENTS  0.4724200D+02 0.2182500D+02 0.9968400D+01 0.4517100D+01 0.1998200D+01
EXPONENTS  0.2814500D+00 0.6662300D+03 0.1061200D+03 0.4724200D+02 0.2182500D+02
EXPONENTS  0.9968400D+01 0.4517100D+01 0.1998200D+01 0.2814500D+00 0.6662300D+03
EXPONENTS  0.1061200D+03 0.4724200D+02 0.2182500D+02 0.9968400D+01 0.4517100D+01
EXPONENTS  0.1998200D+01 0.2814500D+00 0.7098800D+00 0.7098800D+00 0.7098800D+00
EXPONENTS  0.1020400D+00 0.1020400D+00 0.1020400D+00 0.3514200D-01 0.3514200D-01
EXPONENTS  0.3514200D-01 0.4038300D+03 0.1211700D+03 0.4634500D+02 0.1972100D+02
EXPONENTS  0.8862400D+01 0.3996200D+01 0.1763600D+01 0.4038300D+03 0.1211700D+03
EXPONENTS  0.4634500D+02 0.1972100D+02 0.8862400D+01 0.3996200D+01 0.1763600D+01
EXPONENTS  0.4038300D+03 0.1211700D+03 0.4634500D+02 0.1972100D+02 0.8862400D+01
EXPONENTS  0.3996200D+01 0.1763600D+01 0.4038300D+03 0.1211700D+03 0.4634500D+02
EXPONENTS  0.1972100D+02 0.8862400D+01 0.3996200D+01 0.1763600D+01 0.4038300D+03
EXPONENTS  0.1211700D+03 0.4634500D+02 0.1972100D+02 0.8862400D+01 0.3996200D+01
EXPONENTS  0.1763600D+01 0.4038300D+03 0.1211700D+03 0.4634500D+02 0.1972100D+02
EXPONENTS  0.8862400D+01 0.3996200D+01 0.1763600D+01 0.7061900D+00 0.7061900D+00
EXPONENTS  0.7061900D+00 0.7061900D+00 0.7061900D+00 0.7061900D+00 0.2639000D+00
EXPONENTS  0.2639000D+00 0.2639000D+00 0.2639000D+00 0.2639000D+00 0.2639000D+00
EXPONENTS  0.1047000D+00 0.1047000D+00 0.1047000D+00 0.1047000D+00 0.1047000D+00
EXPONENTS  0.1047000D+00 0.5515000D+00 0.5515000D+00 0.5515000D+00 0.5515000D+00
EXPONENTS  0.5515000D+00 0.5515000D+00 0.5515000D+00 0.5515000D+00 0.5515000D+00
EXPONENTS  0.5515000D+00 0.2580000D+00 0.2580000D+00 0.2580000D+00 0.2580000D+00
EXPONENTS  0.2580000D+00 0.2580000D+00 0.2580000D+00 0.2580000D+00 0.2580000D+00
EXPONENTS  0.2580000D+00 0.1533000D+05 0.2299000D+04 0.5224000D+03 0.1473000D+03
EXPONENTS  0.4755000D+02 0.1676000D+02 0.6207000D+01 0.5224000D+03 0.1473000D+03
EXPONENTS  0.4755000D+02 0.1676000D+02 0.6207000D+01 0.6882000D+00 0.1752000D+01
EXPONENTS  0.2384000D+00 0.7376000D-01 0.3446000D+02 0.7749000D+01 0.2280000D+01
EXPONENTS  0.3446000D+02 0.7749000D+01 0.2280000D+01 0.3446000D+02 0.7749000D+01
EXPONENTS  0.2280000D+01 0.7156000D+00 0.7156000D+00 0.7156000D+00 0.2140000D+00
EXPONENTS  0.2140000D+00 0.2140000D+00 0.5974000D-01 0.5974000D-01 0.5974000D-01
EXPONENTS  0.2314000D+01 0.2314000D+01 0.2314000D+01 0.2314000D+01 0.2314000D+01
EXPONENTS  0.2314000D+01 0.6450000D+00 0.6450000D+00 0.6450000D+00 0.6450000D+00
EXPONENTS  0.6450000D+00 0.6450000D+00 0.2140000D+00 0.2140000D+00 0.2140000D+00
EXPONENTS  0.2140000D+00 0.2140000D+00 0.2140000D+00 0.1428000D+01 0.1428000D+01
EXPONENTS  0.1428000D+01 0.1428000D+01 0.1428000D+01 0.1428000D+01 0.1428000D+01
EXPONENTS  0.1428000D+01 0.1428000D+01 0.1428000D+01 0.5000000D+00 0.5000000D+00
EXPONENTS  0.5000000D+00 0.5000000D+00 0.5000000D+00 0.5000000D+00 0.5000000D+00
EXPONENTS  0.5000000D+00 0.5000000D+00 0.5000000D+00
MO    1     MO 0.0        OCC NO =    2.0000166  ORB. ENERGY =    0.000000
  0.12315066D+00  0.22957764D+00  0.38801749D+00  0.58326266D+00  0.71643371D+00
  0.60464478D+00  0.22736223D+00  0.29320088D-04  0.21914950D-03  0.81901170D-03
  0.22849151D-02  0.30611563D-02 -0.36146548D-02  0.94447544D-02 -0.19936274D-02
 -0.30927238D-03 -0.10690134D-04 -0.10022681D-04 -0.71367456D-05 -0.40214653D-05
 -0.37703794D-05 -0.26847347D-05  0.36722388D-02  0.34429573D-02  0.24515907D-02
 -0.43592560D-05 -0.13650853D-05  0.19863748D-02 -0.16863118D-05 -0.29908396D-06
  0.38478747D-03  0.57469735D-07  0.11189032D-07  0.48957333D-05 -0.97184796D-04
 -0.49939651D-03  0.59658130D-03  0.25193391D-05  0.15421133D-05  0.97679396D-06
  0.33694915D-03 -0.32304497D-03 -0.13904180D-04  0.41383906D-05  0.38611549D-05
  0.44089544D-06  0.30925568D-04 -0.18826176D-04 -0.12099392D-04  0.31175201D-06
  0.51834265D-06  0.89921345D-07 -0.36023708D-06  0.38566546D-07  0.12402829D-03
 -0.68991396D-07 -0.10269037D-06 -0.16603033D-03  0.11497026D-05 -0.13009271D-07
 -0.20605454D-03  0.25016580D-06  0.16103839D-06 -0.31766539D-07 -0.14095893D-04
 -0.35982647D-06  0.65959271D-08  0.25094683D-05 -0.12328869D-06  0.88703690D-07
  0.39778209D-04 -0.23514143D-06 -0.34869974D-01 -0.65595673D-01 -0.11354946D+00
 -0.18612937D+00 -0.29157449D+00 -0.43826018D+00 -0.62637683D+00 -0.83151389D+00
 -0.96835799D+00 -0.88932479D+00 -0.51986873D+00 -0.13641052D+00 -0.77556959D-02
 -0.13532855D-03 -0.13622359D-04 -0.16545286D-02 -0.47795517D-02 -0.21905809D-01
 -0.64845964D-01 -0.18805519D+00 -0.39089007D+00 -0.55917289D+00 -0.16033273D+00
  0.64071105D+00  0.61950560D+00  0.13521657D+00 -0.19572189D-02 -0.10119812D-02
 -0.47211015D-02 -0.95811252D-02 -0.37550096D-01 -0.26349791D-01  0.17159982D+00
  0.53172891D+00  0.65042354D-01 -0.46481177D+00 -0.21813615D+00 -0.11086825D-05
 -0.15199158D-05  0.29140462D-05  0.61933062D-05 -0.23412431D-04 -0.75709853D-04
 -0.26330735D-04  0.25754327D-03  0.57445500D-03 -0.38119086D-03 -0.90542678D-02
  0.53740919D-03  0.15415572D-03 -0.66973625D-01 -0.96097156D-01 -0.12724151D+00
 -0.14694180D+00 -0.13624276D+00 -0.88228983D-01 -0.31132409D-01 -0.35871963D-02
  0.58603767D-05  0.10004771D+02  0.14355353D+02  0.19007814D+02  0.21950716D+02
  0.20352454D+02  0.13179976D+02  0.46506758D+01  0.53586881D+00 -0.87544501D-03
  0.62232873D+01  0.89294883D+01  0.11823468D+02  0.13654047D+02  0.12659877D+02
  0.81983663D+01  0.28928690D+01  0.33332753D+00 -0.54455478D-03  0.39812281D-03
 -0.11351190D-02 -0.55406620D-02 -0.11481305D-01 -0.14407905D-01 -0.22848346D-02
  0.18494964D-01  0.16130290D-01  0.41465311D-02 -0.59626341D-01  0.17000532D+00
  0.82981783D+00  0.17195403D+01  0.21578534D+01  0.34219674D+00 -0.27699670D+01
 -0.24158128D+01 -0.62102063D+00 -0.37169577D-01  0.10597709D+00  0.51728779D+00
  0.10719187D+01  0.13451521D+01  0.21331693D+00 -0.17267285D+01 -0.15059576D+01
 -0.38712881D+00  0.16232220D-05  0.22931888D-05 -0.10670088D-05  0.21382956D-05
  0.23473700D-05  0.63362873D-05  0.19967315D-05 -0.42870251D-05 -0.25814959D-03
 -0.36469796D-03  0.16969206D-03 -0.34006448D-03 -0.37331468D-03 -0.10076933D-02
 -0.31755080D-03  0.68178831D-03 -0.14266320D-03 -0.20154584D-03  0.93778228D-04
 -0.18793245D-03 -0.20630777D-03 -0.55688933D-03 -0.17549054D-03  0.37678192D-03
  0.14692551D-03 -0.21993820D-01 -0.13829821D-01 -0.52484679D-06  0.12532443D-03
  0.60012993D-04 -0.88354142D-07  0.87743825D-05  0.66719634D-05  0.10205415D+01
  0.10678867D+01  0.90989666D+00  0.59923574D+00  0.27616991D+00  0.82699527D-01
  0.14070623D-01 -0.12432044D+01 -0.13008795D+01 -0.11084190D+01 -0.72997768D+00
 -0.33642498D+00 -0.10074300D+00 -0.17140568D-01  0.22266292D+00  0.23299276D+00
  0.19852230D+00  0.13074194D+00  0.60255068D-01  0.18043478D-01  0.30699448D-02
  0.34433524D-01  0.36030973D-01  0.30700318D-01  0.20218480D-01  0.93180955D-02
  0.27903188D-02  0.47474908D-03  0.22570080D-01  0.23617157D-01  0.20123082D-01
  0.13252571D-01  0.61077153D-02  0.18289652D-02  0.31118293D-03 -0.37466915D+01
 -0.39205089D+01 -0.33404835D+01 -0.21999609D+01 -0.10138965D+01 -0.30361294D+00
 -0.51657168D-01  0.11359892D-02 -0.13734012D-02  0.23741208D-03  0.35812265D-04
  0.23103583D-04 -0.38055513D-02 -0.11618694D-03  0.11047027D-03  0.57166635D-05
 -0.26377640D-05 -0.19497313D-05  0.30445541D-03 -0.13578500D-04  0.15150905D-04
 -0.15724049D-05 -0.29085948D-06 -0.20844453D-06  0.28787653D-04 -0.15061529D-05
 -0.40084140D-04  0.91866270D-04  0.38180705D-05  0.20877416D-03  0.14513020D-03
  0.70038815D-06 -0.88521740D-04 -0.42072901D-03  0.72298413D-05  0.47691665D-06
  0.97209837D-05 -0.20856918D-04 -0.10279149D-05 -0.68852611D-04 -0.54577198D-04
 -0.40283506D-06  0.39689660D-04  0.11714795D-03 -0.21657901D-05 -0.34910004D-01
 -0.65670976D-01 -0.11367981D+00 -0.18634304D+00 -0.29190922D+00 -0.43876330D+00
 -0.62709591D+00 -0.83246845D+00 -0.96946966D+00 -0.89034572D+00 -0.52046553D+00
 -0.13656712D+00 -0.77645994D-02 -0.13548391D-03 -0.13637997D-04 -0.16564270D-02
 -0.47850359D-02 -0.21930944D-01 -0.64920370D-01 -0.18827097D+00 -0.39133858D+00
 -0.55981450D+00 -0.16051670D+00  0.64144622D+00  0.62021643D+00  0.13537172D+00
 -0.19594646D-02 -0.10131347D-02 -0.47264831D-02 -0.95920466D-02 -0.37592899D-01
 -0.26379827D-01  0.17179542D+00  0.53233503D+00  0.65116495D-01 -0.46534160D+00
 -0.21838480D+00 -0.11099564D-05 -0.15216621D-05  0.29173943D-05  0.62004222D-05
 -0.23439331D-04 -0.75796842D-04 -0.26360989D-04  0.25783918D-03  0.57511503D-03
 -0.38162883D-03 -0.90646971D-02  0.53799427D-03  0.15412116D-03 -0.42225884D-02
 -0.60587841D-02 -0.80223901D-02 -0.92644642D-02 -0.85899054D-02 -0.55627075D-02
 -0.19628525D-02 -0.22616744D-03  0.36948812D-06 -0.10020359D+02 -0.14377719D+02
 -0.19037429D+02 -0.21984917D+02 -0.20384164D+02 -0.13200511D+02 -0.46579217D+01
 -0.53670372D+00  0.87680899D-03  0.62326314D+01  0.89428958D+01  0.11841220D+02
  0.13674548D+02  0.12678885D+02  0.82106759D+01  0.28972126D+01  0.33382801D+00
 -0.54537242D-03  0.24138899D-04 -0.68824301D-04 -0.33594027D-03 -0.69613211D-03
 -0.87357709D-03 -0.13853361D-03  0.11213828D-02  0.97800839D-03  0.25141161D-03
  0.59719647D-01 -0.17027135D+00 -0.83111637D+00 -0.17222312D+01 -0.21612301D+01
 -0.34273223D+00  0.27743016D+01  0.24195932D+01  0.62199244D+00 -0.37225464D-01
  0.10613643D+00  0.51806557D+00  0.10735304D+01  0.13471746D+01  0.21363767D+00
 -0.17293247D+01 -0.15082219D+01 -0.38771089D+00  0.44352866D-08  0.62659018D-08
 -0.29154914D-08  0.58426722D-08  0.64139463D-08  0.17313252D-07  0.54558630D-08
 -0.11713854D-07  0.25825952D-03  0.36485327D-03 -0.16976432D-03  0.34020930D-03
  0.37347366D-03  0.10081225D-02  0.31768603D-03 -0.68207865D-03 -0.14280166D-03
 -0.20174146D-03  0.93869246D-04 -0.18811485D-03 -0.20650800D-03 -0.55742983D-03
 -0.17566087D-03  0.37714762D-03  0.89784826D-05  0.22028290D-01 -0.13850564D-01
  0.26120142D-06 -0.12520242D-03  0.59990447D-04 -0.33293007D-07 -0.87770840D-05
  0.66718922D-05  0.10223260D+01  0.10697540D+01  0.91148766D+00  0.60028354D+00
  0.27665281D+00  0.82844132D-01  0.14095227D-01 -0.12453113D+01 -0.13030841D+01
 -0.11102974D+01 -0.73121478D+00 -0.33699512D+00 -0.10091374D+00 -0.17169617D-01
  0.22298533D+00  0.23333012D+00  0.19880975D+00  0.13093125D+00  0.60342315D-01
  0.18069604D-01  0.30743899D-02 -0.60404449D-02 -0.63206747D-02 -0.53855532D-02
 -0.35467939D-02 -0.16346117D-02 -0.48948712D-03 -0.83282084D-04 -0.93372926D-03
 -0.97704706D-03 -0.83249639D-03 -0.54826181D-03 -0.25267754D-03 -0.75664700D-04
 -0.12873707D-04  0.37527283D+01  0.39268258D+01  0.33458658D+01  0.22035056D+01
  0.10155301D+01  0.30410213D+00  0.51740400D-01  0.11378012D-02 -0.13754453D-02
  0.23764408D-03 -0.43362457D-05 -0.76862010D-06  0.38113914D-02 -0.11628819D-03
  0.11052404D-03  0.57641504D-05 -0.20522567D-06 -0.40574157D-07 -0.30470490D-03
 -0.13574783D-04  0.15148383D-04 -0.15736000D-05 -0.69418929D-07 -0.27677093D-07
 -0.28814722D-04 -0.19642351D-06  0.40149672D-04  0.92023081D-04  0.44491738D-06
 -0.20914459D-03  0.14535786D-03  0.14435315D-06  0.88695578D-04 -0.42142710D-03
 -0.13036109D-06  0.45014913D-07 -0.97194609D-05 -0.20885041D-04  0.18497860D-07
  0.68920757D-04 -0.54628760D-04 -0.15354260D-06 -0.39762375D-04  0.11728388D-03
  0.11512171D-07 -0.35431916D-01 -0.66039266D-01 -0.11197886D+00 -0.16946809D+00
 -0.21139809D+00 -0.18141101D+00 -0.69470778D-01 -0.34372162D-05 -0.36879074D-04
 -0.13594321D-03 -0.39748998D-03 -0.47899475D-03  0.57699994D-03 -0.31477179D-02
  0.29524537D-03  0.68435145D-04 -0.67605453D-05 -0.65554548D-05 -0.44222711D-05
  0.19608561D-05  0.19013708D-05  0.12826535D-05  0.27616721D-02  0.26778930D-02
  0.18064908D-02 -0.15929860D-05  0.43575450D-06  0.61969302D-03 -0.16568833D-05
 -0.55799796D-07  0.77191453D-04 -0.24167179D-06 -0.20858194D-07  0.74408750D-05
  0.28558468D-03 -0.50259749D-04 -0.23532493D-03  0.21051605D-05 -0.18420270D-08
  0.24615364D-06  0.32283178D-04  0.15425315D-03 -0.18653633D-03 -0.76428332D-06
  0.17301229D-05  0.15128462D-06  0.24669974D-05  0.45657989D-04 -0.48124987D-04
 -0.27010266D-06  0.78722894D-06  0.47758594D-07 -0.75011058D-06  0.40360919D-07
 -0.29156410D-03  0.11365883D-05 -0.94819650D-07  0.43150223D-03  0.11137435D-05
 -0.26263109D-07  0.44319005D-03 -0.70175321D-07  0.39165034D-06 -0.12184596D-08
  0.79501681D-04 -0.59052849D-07  0.39314478D-07 -0.39823295D-04 -0.11158982D-05
 -0.35659099D-07 -0.19868175D-03  0.99440872D-06
MO    2     MO 0.0        OCC NO =    2.0000158  ORB. ENERGY =    0.000000
 -0.83774529D-04 -0.15617260D-03 -0.26395297D-03 -0.39677055D-03 -0.48736155D-03
 -0.41131595D-03 -0.15466554D-03 -0.19205739D-07 -0.14355100D-06 -0.53648287D-06
 -0.14967037D-05 -0.20051703D-05  0.23677322D-05 -0.64795445D-05  0.13103057D-05
  0.20790228D-06  0.18341439D-04  0.17196265D-04  0.12244765D-04 -0.58458525D-02
 -0.54808583D-02 -0.39026976D-02 -0.22748294D-05 -0.21327971D-05 -0.15186786D-05
  0.61959086D-05 -0.19746049D-02 -0.12758217D-05  0.14206949D-05 -0.45260795D-03
 -0.25337072D-06 -0.50699927D-07  0.16152357D-04 -0.33524263D-08  0.89679083D-07
  0.31905354D-06 -0.40873262D-06 -0.54980583D-05 -0.45651965D-05  0.14552556D-02
 -0.22122986D-06  0.20858761D-06  0.12642249D-07 -0.24745722D-05 -0.19698015D-05
  0.62720236D-03 -0.19086212D-07  0.11175331D-07  0.79108802D-08 -0.51994920D-06
 -0.41819871D-06  0.13322447D-03  0.45897009D-06  0.55436254D-04 -0.81637246D-07
 -0.14390102D-05 -0.14626186D-03  0.12166643D-06  0.62099889D-07 -0.20046901D-04
  0.12324531D-06 -0.12825605D-05 -0.29971702D-07 -0.45930956D-04  0.96334737D-08
  0.49213153D-06  0.95162305D-05  0.65058859D-08 -0.40221642D-06  0.12827664D-03
 -0.35406307D-07 -0.20278768D-05  0.31222583D-01  0.58734381D-01  0.10167221D+00
  0.16666028D+00  0.26107587D+00  0.39241827D+00  0.56085797D+00  0.74453773D+00
  0.86706798D+00  0.79630163D+00  0.46549059D+00  0.12214201D+00  0.69444520D-02
  0.12117322D-03  0.12197463D-04  0.14812197D-02  0.42789022D-02  0.19611214D-01
  0.58053466D-01  0.16835674D+00  0.34994503D+00  0.50060053D+00  0.14353816D+00
 -0.57359771D+00 -0.55461349D+00 -0.12105287D+00  0.17522037D-02  0.90134071D-03
  0.42049408D-02  0.85336154D-02  0.33444723D-01  0.23468954D-01 -0.15283871D+00
 -0.47359469D+00 -0.57931237D-01  0.41399364D+00  0.19428720D+00  0.98272453D-06
  0.13472373D-05 -0.25829799D-05 -0.54896815D-05  0.20752532D-04  0.67108418D-04
  0.23339287D-04 -0.22828364D-03 -0.50919087D-03  0.33788357D-03  0.80893744D-02
 -0.40049514D-03  0.28300550D-04  0.77543589D-01  0.11126348D+00  0.14732312D+00
  0.17013256D+00  0.15774497D+00  0.10215353D+00  0.36045812D-01  0.41533376D-02
 -0.67852776D-05 -0.11518508D+02 -0.16527340D+02 -0.21883726D+02 -0.25271894D+02
 -0.23431812D+02 -0.15174127D+02 -0.53543304D+01 -0.61694661D+00  0.10079012D-02
 -0.68646564D+01 -0.98497573D+01 -0.13041989D+02 -0.15061227D+02 -0.13964598D+02
 -0.90432861D+01 -0.31910067D+01 -0.36768011D+00  0.60067634D-03 -0.46361742D-03
  0.13218559D-02  0.64521485D-02  0.13370079D-01  0.16778129D-01  0.26607095D-02
 -0.21537544D-01 -0.18783861D-01 -0.48286711D-02  0.68997758D-01 -0.19672490D+00
 -0.96023954D+00 -0.19897989D+01 -0.24970012D+01 -0.39597949D+00  0.32053201D+01
  0.27955039D+01  0.71862588D+00  0.41058779D-01 -0.11706589D+00 -0.57141368D+00
 -0.11840778D+01 -0.14859008D+01 -0.23563714D+00  0.19074030D+01  0.16635320D+01
  0.42763564D+00 -0.92242199D-06 -0.13031414D-05  0.60634489D-06 -0.12151209D-05
 -0.13339307D-05 -0.36006972D-05 -0.11346748D-05  0.24361709D-05  0.78511816D-04
  0.11091670D-03 -0.51608959D-04  0.10342484D-03  0.11353733D-03  0.30647283D-03
  0.96577686D-04 -0.20735434D-03  0.10406127D-03  0.14701140D-03 -0.68403636D-04
  0.13708153D-03  0.15048484D-03  0.40620575D-03  0.12800616D-03 -0.27483195D-03
 -0.17171945D-03  0.25451035D-01  0.15215304D-01 -0.54659389D-06  0.98593604D-04
  0.18027771D-04 -0.49494264D-08 -0.16899564D-05  0.13603944D-06 -0.11594829D+01
 -0.12132740D+01 -0.10337744D+01 -0.68081857D+00 -0.31376901D+00 -0.93958637D-01
 -0.15986266D-01  0.14152132D+01  0.14808681D+01  0.12617789D+01  0.83097681D+00
  0.38297247D+00  0.11468173D+00  0.19512123D-01 -0.25573028D+00 -0.26759418D+00
 -0.22800456D+00 -0.15015824D+00 -0.69203463D-01 -0.20723089D-01 -0.35258579D-02
 -0.38783157D-01 -0.40582395D-01 -0.34578373D-01 -0.22772472D-01 -0.10495155D-01
 -0.31427910D-02 -0.53471925D-03 -0.25277455D-01 -0.26450133D-01 -0.22536929D-01
 -0.14842272D-01 -0.68403610D-02 -0.20483572D-02 -0.34851061D-03  0.42127563D+01
  0.44081956D+01  0.37560186D+01  0.24736222D+01  0.11400188D+01  0.34138048D+00
  0.58082995D-01 -0.11871902D-02  0.13749320D-02 -0.18774179D-03 -0.37746836D-04
 -0.25091438D-04  0.40828465D-02  0.68759440D-04 -0.35411854D-04 -0.33347587D-04
  0.18223471D-05  0.15889634D-05 -0.17595576D-03 -0.38642447D-05  0.29500688D-05
  0.91417590D-06  0.36987673D-07 -0.25660876D-07 -0.18973130D-04  0.14839641D-05
  0.40048791D-04 -0.11333222D-03 -0.42990598D-05 -0.23467076D-03 -0.14325072D-03
 -0.15283246D-06  0.11452439D-03  0.48324738D-03 -0.77612351D-05 -0.28570247D-06
  0.30646221D-05  0.20669458D-04  0.79008667D-06  0.40987497D-04  0.31516955D-04
  0.67020723D-07 -0.50181363D-04 -0.93525328D-04  0.17279485D-05 -0.31173861D-01
 -0.58642727D-01 -0.10151356D+00 -0.16640021D+00 -0.26066847D+00 -0.39180591D+00
 -0.55998276D+00 -0.74337590D+00 -0.86571493D+00 -0.79505901D+00 -0.46476420D+00
 -0.12195141D+00 -0.69336153D-02 -0.12098413D-03 -0.12178429D-04 -0.14789069D-02
 -0.42722213D-02 -0.19580594D-01 -0.57962823D-01 -0.16809388D+00 -0.34939864D+00
 -0.49981890D+00 -0.14331404D+00  0.57270211D+00  0.55374754D+00  0.12086386D+00
 -0.17494679D-02 -0.89992376D-03 -0.41983305D-02 -0.85202002D-02 -0.33392146D-01
 -0.23432060D-01  0.15259844D+00  0.47285018D+00  0.57840167D-01 -0.41334282D+00
 -0.19398177D+00 -0.98122495D-06 -0.13451815D-05  0.25790384D-05  0.54813046D-05
 -0.20720865D-04 -0.67006014D-04 -0.23303673D-04  0.22793530D-03  0.50841387D-03
 -0.33736798D-03 -0.80767875D-02  0.39983904D-03 -0.28506486D-04 -0.52843403D-02
 -0.75822395D-02 -0.10039586D-01 -0.11593974D-01 -0.10749800D-01 -0.69614265D-02
 -0.24564034D-02 -0.28303628D-03  0.46239433D-06 -0.11505706D+02 -0.16508970D+02
 -0.21859402D+02 -0.25243805D+02 -0.23405768D+02 -0.15157261D+02 -0.53483791D+01
 -0.61626088D+00  0.10067810D-02  0.68566539D+01  0.98382749D+01  0.13026785D+02
  0.15043669D+02  0.13948318D+02  0.90327439D+01  0.31872868D+01  0.36725149D+00
 -0.59997610D-03  0.30774335D-04 -0.87743112D-04 -0.42828541D-03 -0.88748882D-03