 Entering Gaussian System, Link 0=/home/bruns/programas/chemistry/gaussian/g09/g09
 Input=GAUSSIAN.com
 Output=GAUSSIAN.log
 Initial command:
 /home/bruns/programas/chemistry/gaussian/g09/l1.exe /home/bruns/programas/chemistry/gaussian/work/Gau-78222.inp -scrdir=/home/bruns/programas/chemistry/gaussian/work/
 Entering Link 1 = /home/bruns/programas/chemistry/gaussian/g09/l1.exe PID=     78224.
  
 Copyright (c) 1988,1990,1992,1993,1995,1998,2003,2009,2010,
            Gaussian, Inc.  All Rights Reserved.
  
 This is part of the Gaussian(R) 09 program.  It is based on
 the Gaussian(R) 03 system (copyright 2003, Gaussian, Inc.),
 the Gaussian(R) 98 system (copyright 1998, Gaussian, Inc.),
 the Gaussian(R) 94 system (copyright 1995, Gaussian, Inc.),
 the Gaussian 92(TM) system (copyright 1992, Gaussian, Inc.),
 the Gaussian 90(TM) system (copyright 1990, Gaussian, Inc.),
 the Gaussian 88(TM) system (copyright 1988, Gaussian, Inc.),
 the Gaussian 86(TM) system (copyright 1986, Carnegie Mellon
 University), and the Gaussian 82(TM) system (copyright 1983,
 Carnegie Mellon University). Gaussian is a federally registered
 trademark of Gaussian, Inc.
  
 This software contains proprietary and confidential information,
 including trade secrets, belonging to Gaussian, Inc.
  
 This software is provided under written license and may be
 used, copied, transmitted, or stored only in accord with that
 written license.
  
 The following legend is applicable only to US Government
 contracts under FAR:
  
                    RESTRICTED RIGHTS LEGEND
  
 Use, reproduction and disclosure by the US Government is
 subject to restrictions as set forth in subparagraphs (a)
 and (c) of the Commercial Computer Software - Restricted
 Rights clause in FAR 52.227-19.
  
 Gaussian, Inc.
 340 Quinnipiac St., Bldg. 40, Wallingford CT 06492
  
  
 ---------------------------------------------------------------
 Warning -- This program may not be used in any manner that
 competes with the business of Gaussian, Inc. or will provide
 assistance to any competitor of Gaussian, Inc.  The licensee
 of this program is prohibited from giving any competitor of
 Gaussian, Inc. access to this program.  By using this program,
 the user acknowledges that Gaussian, Inc. is engaged in the
 business of creating and licensing software in the field of
 computational chemistry and represents and warrants to the
 licensee that it is not a competitor of Gaussian, Inc. and that
 it will not use this program in any manner prohibited above.
 ---------------------------------------------------------------
  

 Cite this work as:
 Gaussian 09, Revision B.01,
 M. J. Frisch, G. W. Trucks, H. B. Schlegel, G. E. Scuseria, 
 M. A. Robb, J. R. Cheeseman, G. Scalmani, V. Barone, B. Mennucci, 
 G. A. Petersson, H. Nakatsuji, M. Caricato, X. Li, H. P. Hratchian, 
 A. F. Izmaylov, J. Bloino, G. Zheng, J. L. Sonnenberg, M. Hada, 
 M. Ehara, K. Toyota, R. Fukuda, J. Hasegawa, M. Ishida, T. Nakajima, 
 Y. Honda, O. Kitao, H. Nakai, T. Vreven, J. A. Montgomery, Jr., 
 J. E. Peralta, F. Ogliaro, M. Bearpark, J. J. Heyd, E. Brothers, 
 K. N. Kudin, V. N. Staroverov, T. Keith, R. Kobayashi, J. Normand, 
 K. Raghavachari, A. Rendell, J. C. Burant, S. S. Iyengar, J. Tomasi, 
 M. Cossi, N. Rega, J. M. Millam, M. Klene, J. E. Knox, J. B. Cross, 
 V. Bakken, C. Adamo, J. Jaramillo, R. Gomperts, R. E. Stratmann, 
 O. Yazyev, A. J. Austin, R. Cammi, C. Pomelli, J. W. Ochterski, 
 R. L. Martin, K. Morokuma, V. G. Zakrzewski, G. A. Voth, 
 P. Salvador, J. J. Dannenberg, S. Dapprich, A. D. Daniels, 
 O. Farkas, J. B. Foresman, J. V. Ortiz, J. Cioslowski, 
 and D. J. Fox, Gaussian, Inc., Wallingford CT, 2010.
 
 ******************************************
 Gaussian 09:  EM64L-G09RevB.01 12-Aug-2010
                28-Nov-2021 
 ******************************************
 %nproc=8
 Will use up to    8 processors via shared memory.
 %mem=8GB
 -----------------------------------------------------
 # qcisd/aug-cc-pvtz nosymm density=current output=wfn
 -----------------------------------------------------
 1/30=1,38=1/1;
 2/12=2,15=1,17=6,18=5,40=1/2;
 3/5=16,6=1,7=10,11=9,16=1,25=1,30=1,71=1/1,2,3;
 4//1;
 5/5=2,38=5/2;
 8/6=4,9=120000,10=1/1,4;
 9/5=8,15=1/13;
 11/28=-7,31=1,32=3,42=3/11;
 10/5=6,13=10,31=1/2;
 6/7=2,8=2,9=2,10=2,22=-1,31=1/1;
 99/5=1,6=1100,9=1/99;
 ------------------
 br2co-wavefunction
 ------------------
 Symbolic Z-matrix:
 Charge =  0 Multiplicity = 1
 C                     0.        0.       -0.49176 
 Br                    0.       -1.59418  -1.54682 
 Br                    0.        1.58418  -1.54682 
 O                     0.        0.        0.6845 
 
                          Input orientation:                          
 ---------------------------------------------------------------------
 Center     Atomic      Atomic             Coordinates (Angstroms)
 Number     Number       Type             X           Y           Z
 ---------------------------------------------------------------------
      1          6           0        0.000000    0.000000   -0.491759
      2         35           0        0.000000   -1.594181   -1.546820
      3         35           0        0.000000    1.584181   -1.546820
      4          8           0        0.000000    0.000000    0.684500
 ---------------------------------------------------------------------
                    Distance matrix (angstroms):
                    1          2          3          4
     1  C    0.000000
     2  Br   1.911692   0.000000
     3  Br   1.903361   3.178362   0.000000
     4  O    1.176259   2.742299   2.736497   0.000000
 Symmetry turned off by external request.
 Stoichiometry    CBr2O
 Framework group  CS[SG(CBr2O)]
 Deg. of freedom     5
 Full point group                 CS      NOp   2
 Rotational constants (GHZ):      6.2847952      1.2678321      1.0550058
 Standard basis: Aug-CC-pVTZ (5D, 7F)
 Integral buffers will be    131072 words long.
 Raffenetti 1 integral format.
 Two-electron integral symmetry is turned off.
   210 basis functions,   578 primitive gaussians,   248 cartesian basis functions
    42 alpha electrons       42 beta electrons
       nuclear repulsion energy       450.2409879964 Hartrees.
 NAtoms=    4 NActive=    4 NUniq=    4 SFac= 1.00D+00 NAtFMM=   50 NAOKFM=F Big=F
 One-electron integrals computed using PRISM.
 NBasis=   210 RedAO= T  NBF=   210
 NBsUse=   210 1.00D-06 NBFU=   210
 Harris functional with IExCor=  205 diagonalized for initial guess.
 ExpMin= 3.51D-02 ExpMax= 1.06D+07 ExpMxC= 1.21D+04 IAcc=3 IRadAn=         0 AccDes= 0.00D+00
 HarFok:  IExCor=  205 AccDes= 0.00D+00 IRadAn=         0 IDoV= 1
 ScaDFX=  1.000000  1.000000  1.000000  1.000000
 FoFCou: FMM=F IPFlag=           0 FMFlag=      100000 FMFlg1=           0
         NFxFlg=           0 DoJE=T BraDBF=F KetDBF=T FulRan=T
         Omega=  0.000000  0.000000  1.000000  0.000000  0.000000 ICntrl=     500 IOpCl=  0
         NMat0=    1 NMatS0=    1 NMatT0=    0 NMatD0=    1 NMtDS0=    0 NMtDT0=    0
         I1Cent=           4 NGrid=           0.
 Symmetry not used in FoFCou.
 Requested convergence on RMS density matrix=1.00D-08 within 128 cycles.
 Requested convergence on MAX density matrix=1.00D-06.
 Requested convergence on             energy=1.00D-06.
 No special actions if energy rises.
 Keep R1 ints in memory in canonical form, NReq=484604278.
 SCF Done:  E(RHF) =  -5257.68454918     A.U. after   12 cycles
             Convg  =    0.9200D-08             -V/T =  2.0000
 ExpMin= 3.51D-02 ExpMax= 1.06D+07 ExpMxC= 1.21D+04 IAcc=3 IRadAn=         5 AccDes= 0.00D+00
 HarFok:  IExCor=  205 AccDes= 0.00D+00 IRadAn=         5 IDoV=-2
 ScaDFX=  1.000000  1.000000  1.000000  1.000000
 Range of M.O.s used for correlation:    21   210
 NBasis=   210 NAE=    42 NBE=    42 NFC=    20 NFV=     0
 NROrb=    190 NOA=    22 NOB=    22 NVA=   168 NVB=   168

 **** Warning!!: The largest alpha MO coefficient is  0.28148411D+02

 Semi-Direct transformation.
 ModeAB=           2 MOrb=            22 LenV=    1072497137
 LASXX=     69628944 LTotXX=    69628944 LenRXX=    69628944
 LTotAB=    70719517 MaxLAS=   129061680 LenRXY=   129061680
 NonZer=   139257888 LenScr=   209707008 LnRSAI=           0
 LnScr1=           0 LExtra=           0 Total=    408397632
 MaxDsk=          -1 SrtSym=           F ITran=            4
 JobTyp=0 Pass  1:  I=   1 to  22.
 (rs|ai) integrals will be sorted in core.
 Spin components of T(2) and E(2):
     alpha-alpha T2 =       0.3830345873D-01 E2=     -0.1233118783D+00
     alpha-beta  T2 =       0.1922854977D+00 E2=     -0.6174576798D+00
     beta-beta   T2 =       0.3830345873D-01 E2=     -0.1233118783D+00
 ANorm=    0.1126451248D+01
 E2 =    -0.8640814363D+00 EUMP2 =    -0.52585486306126D+04
 R2 and R3 integrals will be kept in memory, NReq=   961077252.
 Iterations=  50 Convergence= 0.100D-07
 Iteration Nr.   1
 **********************
 DD1Dir will call FoFMem   1 times, MxPair=       506
 NAB=   253 NAA=     0 NBB=     0.
 MP4(R+Q)=  0.21449132D-01
 E3=        0.16481060D-03        EUMP3=      -0.52585484658D+04
 E4(DQ)=    0.27147947D-03        UMP4(DQ)=   -0.52585481943D+04
 E4(SDQ)=  -0.11673711D-01        UMP4(SDQ)=  -0.52585601395D+04
 DE(Corr)= -0.84246749     E(Corr)=     -5258.5270167    
 NORM(A)=   0.11247248D+01
 Iteration Nr.   2
 **********************
 DD1Dir will call FoFMem   1 times, MxPair=       506
 NAB=   253 NAA=     0 NBB=     0.
 DE(Corr)= -0.87231862     E(CORR)=     -5258.5568678     Delta=-2.99D-02
 NORM(A)=   0.11350969D+01
 Iteration Nr.   3
 **********************
 DD1Dir will call FoFMem   1 times, MxPair=       506
 NAB=   253 NAA=     0 NBB=     0.
 DE(Corr)= -0.87022299     E(CORR)=     -5258.5547722     Delta= 2.10D-03
 NORM(A)=   0.11378453D+01
 Iteration Nr.   4
 **********************
 DD1Dir will call FoFMem   1 times, MxPair=       506
 NAB=   253 NAA=     0 NBB=     0.
 DE(Corr)= -0.87274412     E(CORR)=     -5258.5572933     Delta=-2.52D-03
 NORM(A)=   0.11391512D+01
 Iteration Nr.   5
 **********************
 DD1Dir will call FoFMem   1 times, MxPair=       506
 NAB=   253 NAA=     0 NBB=     0.
 DE(Corr)= -0.87311686     E(CORR)=     -5258.5576660     Delta=-3.73D-04
 NORM(A)=   0.11396626D+01
 Iteration Nr.   6
 **********************
 DD1Dir will call FoFMem   1 times, MxPair=       506
 NAB=   253 NAA=     0 NBB=     0.
 DE(Corr)= -0.87318072     E(CORR)=     -5258.5577299     Delta=-6.39D-05
 NORM(A)=   0.11397659D+01
 Iteration Nr.   7
 **********************
 DD1Dir will call FoFMem   1 times, MxPair=       506
 NAB=   253 NAA=     0 NBB=     0.
 DE(Corr)= -0.87319490     E(CORR)=     -5258.5577441     Delta=-1.42D-05
 NORM(A)=   0.11397744D+01
 Iteration Nr.   8
 **********************
 DD1Dir will call FoFMem   1 times, MxPair=       506
 NAB=   253 NAA=     0 NBB=     0.
 DE(Corr)= -0.87319525     E(CORR)=     -5258.5577444     Delta=-3.49D-07
 NORM(A)=   0.11397893D+01
 Iteration Nr.   9
 **********************
 DD1Dir will call FoFMem   1 times, MxPair=       506
 NAB=   253 NAA=     0 NBB=     0.
 DE(Corr)= -0.87319332     E(CORR)=     -5258.5577425     Delta= 1.94D-06
 NORM(A)=   0.11397892D+01
 Iteration Nr.  10
 **********************
 DD1Dir will call FoFMem   1 times, MxPair=       506
 NAB=   253 NAA=     0 NBB=     0.
 DE(Corr)= -0.87319473     E(CORR)=     -5258.5577439     Delta=-1.42D-06
 NORM(A)=   0.11397919D+01
 Iteration Nr.  11
 **********************
 DD1Dir will call FoFMem   1 times, MxPair=       506
 NAB=   253 NAA=     0 NBB=     0.
 DE(Corr)= -0.87319584     E(CORR)=     -5258.5577450     Delta=-1.11D-06
 NORM(A)=   0.11397937D+01
 Iteration Nr.  12
 **********************
 DD1Dir will call FoFMem   1 times, MxPair=       506
 NAB=   253 NAA=     0 NBB=     0.
 DE(Corr)= -0.87319616     E(CORR)=     -5258.5577453     Delta=-3.21D-07
 NORM(A)=   0.11397947D+01
 Iteration Nr.  13
 **********************
 DD1Dir will call FoFMem   1 times, MxPair=       506
 NAB=   253 NAA=     0 NBB=     0.
 DE(Corr)= -0.87319662     E(CORR)=     -5258.5577458     Delta=-4.59D-07
 NORM(A)=   0.11397954D+01
 Iteration Nr.  14
 **********************
 DD1Dir will call FoFMem   1 times, MxPair=       506
 NAB=   253 NAA=     0 NBB=     0.
 DE(Corr)= -0.87319673     E(CORR)=     -5258.5577459     Delta=-1.11D-07
 NORM(A)=   0.11397958D+01
 Iteration Nr.  15
 **********************
 DD1Dir will call FoFMem   1 times, MxPair=       506
 NAB=   253 NAA=     0 NBB=     0.
 DE(Corr)= -0.87319680     E(CORR)=     -5258.5577460     Delta=-6.78D-08
 NORM(A)=   0.11397959D+01
 Iteration Nr.  16
 **********************
 DD1Dir will call FoFMem   1 times, MxPair=       506
 NAB=   253 NAA=     0 NBB=     0.
 DE(Corr)= -0.87319683     E(CORR)=     -5258.5577460     Delta=-2.99D-08
 NORM(A)=   0.11397960D+01
 Iteration Nr.  17
 **********************
 DD1Dir will call FoFMem   1 times, MxPair=       506
 NAB=   253 NAA=     0 NBB=     0.
 DE(Corr)= -0.87319683     E(CORR)=     -5258.5577460     Delta= 3.05D-09
 NORM(A)=   0.11397960D+01
 Iteration Nr.  18
 **********************
 DD1Dir will call FoFMem   1 times, MxPair=       506
 NAB=   253 NAA=     0 NBB=     0.
 DE(Corr)= -0.87319683     E(CORR)=     -5258.5577460     Delta=-3.64D-09
 NORM(A)=   0.11397960D+01
 Iteration Nr.  19
 **********************
 DD1Dir will call FoFMem   1 times, MxPair=       506
 NAB=   253 NAA=     0 NBB=     0.
 DE(Corr)= -0.87319683     E(CORR)=     -5258.5577460     Delta= 3.81D-10
 NORM(A)=   0.11397960D+01
 Iteration Nr.  20
 **********************
 DD1Dir will call FoFMem   1 times, MxPair=       506
 NAB=   253 NAA=     0 NBB=     0.
 DE(Corr)= -0.87319683     E(CORR)=     -5258.5577460     Delta=-2.26D-09
 NORM(A)=   0.11397960D+01
 Iteration Nr.  21
 **********************
 DD1Dir will call FoFMem   1 times, MxPair=       506
 NAB=   253 NAA=     0 NBB=     0.
 DE(Corr)= -0.87319684     E(CORR)=     -5258.5577460     Delta=-3.11D-09
 NORM(A)=   0.11397960D+01
 Iteration Nr.  22
 **********************
 DD1Dir will call FoFMem   1 times, MxPair=       506
 NAB=   253 NAA=     0 NBB=     0.
 DE(Corr)= -0.87319684     E(CORR)=     -5258.5577460     Delta=-4.51D-09
 NORM(A)=   0.11397960D+01
 Iteration Nr.  23
 **********************
 DD1Dir will call FoFMem   1 times, MxPair=       506
 NAB=   253 NAA=     0 NBB=     0.
 DE(Corr)= -0.87319685     E(CORR)=     -5258.5577460     Delta=-3.53D-09
 NORM(A)=   0.11397960D+01
 Iteration Nr.  24
 **********************
 DD1Dir will call FoFMem   1 times, MxPair=       506
 NAB=   253 NAA=     0 NBB=     0.
 DE(Corr)= -0.87319684     E(CORR)=     -5258.5577460     Delta= 2.94D-09
 NORM(A)=   0.11397960D+01
 Iteration Nr.  25
 **********************
 DD1Dir will call FoFMem   1 times, MxPair=       506
 NAB=   253 NAA=     0 NBB=     0.
 DE(Corr)= -0.87319684     E(CORR)=     -5258.5577460     Delta= 2.15D-09
 NORM(A)=   0.11397960D+01
 Iteration Nr.  26
 **********************
 DD1Dir will call FoFMem   1 times, MxPair=       506
 NAB=   253 NAA=     0 NBB=     0.
 DE(Corr)= -0.87319684     E(CORR)=     -5258.5577460     Delta= 2.24D-09
 NORM(A)=   0.11397960D+01
 Iteration Nr.  27
 **********************
 DD1Dir will call FoFMem   1 times, MxPair=       506
 NAB=   253 NAA=     0 NBB=     0.
 DE(Corr)= -0.87319684     E(CORR)=     -5258.5577460     Delta= 1.39D-09
 NORM(A)=   0.11397960D+01
 Largest amplitude= 4.18D-02

 Z-AMPLITUDE ITERATIONS

 Iteration Nr.   1
 **********************
 DD1Dir will call FoFMem   1 times, MxPair=       506
 NAB=   253 NAA=     0 NBB=     0.
 DE(Z)  -0.84607438D+00          E(Z)=    -0.52585306236D+04
 NORM(A)=   0.11395417D+01
 Iteration Nr.   2
 **********************
 DD1Dir will call FoFMem   1 times, MxPair=       506
 NAB=   253 NAA=     0 NBB=     0.
 DE(Z)  -0.84607390D+00          E(Z)=    -0.52585306231D+04
 NORM(A)=   0.11379365D+01
 Iteration Nr.   3
 **********************
 DD1Dir will call FoFMem   1 times, MxPair=       506
 NAB=   253 NAA=     0 NBB=     0.
 DE(Z)  -0.84607152D+00          E(Z)=    -0.52585306207D+04
 NORM(A)=   0.11389046D+01
 Iteration Nr.   4
 **********************
 DD1Dir will call FoFMem   1 times, MxPair=       506
 NAB=   253 NAA=     0 NBB=     0.
 DE(Z)  -0.84607324D+00          E(Z)=    -0.52585306224D+04
 NORM(A)=   0.11355869D+01
 Iteration Nr.   5
 **********************
 DD1Dir will call FoFMem   1 times, MxPair=       506
 NAB=   253 NAA=     0 NBB=     0.
 DE(Z)  -0.84605677D+00          E(Z)=    -0.52585306059D+04
 NORM(A)=   0.11299752D+01
 Iteration Nr.   6
 **********************
 DD1Dir will call FoFMem   1 times, MxPair=       506
 NAB=   253 NAA=     0 NBB=     0.
 DE(Z)  -0.84604256D+00          E(Z)=    -0.52585305917D+04
 NORM(A)=   0.11299766D+01
 Iteration Nr.   7
 **********************
 DD1Dir will call FoFMem   1 times, MxPair=       506
 NAB=   253 NAA=     0 NBB=     0.
 DE(Z)  -0.84603930D+00          E(Z)=    -0.52585305885D+04
 NORM(A)=   0.11299763D+01
 Iteration Nr.   8
 **********************
 DD1Dir will call FoFMem   1 times, MxPair=       506
 NAB=   253 NAA=     0 NBB=     0.
 DE(Z)  -0.84604049D+00          E(Z)=    -0.52585305897D+04
 NORM(A)=   0.11299764D+01
 Iteration Nr.   9
 **********************
 DD1Dir will call FoFMem   1 times, MxPair=       506
 NAB=   253 NAA=     0 NBB=     0.
 DE(Z)  -0.84604048D+00          E(Z)=    -0.52585305897D+04
 NORM(A)=   0.11299766D+01
 Iteration Nr.  10
 **********************
 DD1Dir will call FoFMem   1 times, MxPair=       506
 NAB=   253 NAA=     0 NBB=     0.
 DE(Z)  -0.84604041D+00          E(Z)=    -0.52585305896D+04
 NORM(A)=   0.11299768D+01
 Iteration Nr.  11
 **********************
 DD1Dir will call FoFMem   1 times, MxPair=       506
 NAB=   253 NAA=     0 NBB=     0.
 DE(Z)  -0.84604048D+00          E(Z)=    -0.52585305897D+04
 NORM(A)=   0.11299769D+01
 Iteration Nr.  12
 **********************
 DD1Dir will call FoFMem   1 times, MxPair=       506
 NAB=   253 NAA=     0 NBB=     0.
 DE(Z)  -0.84604049D+00          E(Z)=    -0.52585305897D+04
 NORM(A)=   0.11299769D+01
 Iteration Nr.  13
 **********************
 DD1Dir will call FoFMem   1 times, MxPair=       506
 NAB=   253 NAA=     0 NBB=     0.
 DE(Z)  -0.84604049D+00          E(Z)=    -0.52585305897D+04
 NORM(A)=   0.11299769D+01
 Iteration Nr.  14
 **********************
 DD1Dir will call FoFMem   1 times, MxPair=       506
 NAB=   253 NAA=     0 NBB=     0.
 DE(Z)  -0.84604049D+00          E(Z)=    -0.52585305897D+04
 NORM(A)=   0.11299769D+01
 Discarding MO integrals.
          Differentiating once with respect to electric field.
                with respect to dipole field.
          Electric field/nuclear overlap derivatives assumed to be zero.
          Keep R1 ints in memory in canonical form, NReq=478620341.
          There are     1 degrees of freedom in the 1st order CPHF.  IDoFFX=0.
 LinEq1:  Iter=  0 NonCon=     1 RMS=1.95D-03 Max=5.60D-02
 AX will form     1 AO Fock derivatives at one time.
 LinEq1:  Iter=  1 NonCon=     1 RMS=7.39D-04 Max=2.61D-02
 LinEq1:  Iter=  2 NonCon=     1 RMS=3.08D-04 Max=9.28D-03
 LinEq1:  Iter=  3 NonCon=     1 RMS=1.02D-04 Max=2.95D-03
 LinEq1:  Iter=  4 NonCon=     1 RMS=5.30D-05 Max=1.63D-03
 LinEq1:  Iter=  5 NonCon=     1 RMS=1.64D-05 Max=4.59D-04
 LinEq1:  Iter=  6 NonCon=     1 RMS=6.28D-06 Max=1.30D-04
 LinEq1:  Iter=  7 NonCon=     1 RMS=1.34D-06 Max=2.11D-05
 LinEq1:  Iter=  8 NonCon=     1 RMS=2.69D-07 Max=4.31D-06
 LinEq1:  Iter=  9 NonCon=     1 RMS=6.52D-08 Max=1.22D-06
 LinEq1:  Iter= 10 NonCon=     1 RMS=1.39D-08 Max=2.04D-07
 LinEq1:  Iter= 11 NonCon=     1 RMS=3.89D-09 Max=9.25D-08
 LinEq1:  Iter= 12 NonCon=     1 RMS=7.15D-10 Max=1.66D-08
 LinEq1:  Iter= 13 NonCon=     1 RMS=1.22D-10 Max=2.57D-09
 LinEq1:  Iter= 14 NonCon=     0 RMS=2.66D-11 Max=5.28D-10
 Linear equations converged to 1.000D-10 1.000D-09 after    14 iterations.
 End of Minotr Frequency-dependent properties file   721 does not exist.
 End of Minotr Frequency-dependent properties file   722 does not exist.

 **********************************************************************

            Population analysis using the QCI/CC density.

 **********************************************************************

     Natural Orbital Coefficients:
                           1         2         3         4         5
     Eigenvalues --     2.00002   2.00002   2.00001   2.00001   2.00001
   1 1   C  1S          0.35702  -0.07550  -0.00981  -0.22346  -0.00555
   2        2S         -0.00987   0.00201   0.00007   0.00237   0.00006
   3        3S          0.01379  -0.00294  -0.00042  -0.00933  -0.00024
   4        4S         -0.01284   0.00262   0.00021   0.00318  -0.00022
   5        5S         -0.00444   0.00093  -0.00015  -0.00265  -0.00011
   6        6PX         0.00000   0.00000   0.00000   0.00000   0.00000
   7        6PY        -0.00056  -0.00264  -0.00003  -0.00002  -0.00021
   8        6PZ         0.00167  -0.00032   0.00001   0.00013   0.00002
   9        7PX         0.00000   0.00000   0.00000   0.00000   0.00000
  10        7PY        -0.00096  -0.00453  -0.00026   0.00000  -0.00040
  11        7PZ         0.00457  -0.00091  -0.00003  -0.00083  -0.00001
  12        8PX         0.00000   0.00000   0.00000   0.00000   0.00000
  13        8PY        -0.00086  -0.00431   0.00125  -0.00009  -0.00551
  14        8PZ         0.00372  -0.00076  -0.00006  -0.00073   0.00036
  15        9PX         0.00000   0.00000   0.00000   0.00000   0.00000
  16        9PY         0.00015   0.00072  -0.00165   0.00010  -0.00172
  17        9PZ         0.00022  -0.00005   0.00003   0.00049   0.00001
  18       10D 0        0.00030  -0.00006  -0.00001  -0.00019  -0.00001
  19       10D+1        0.00000   0.00000   0.00000   0.00000   0.00000
  20       10D-1        0.00009   0.00043   0.00008   0.00000  -0.00005
  21       10D+2        0.00012  -0.00002   0.00001   0.00016   0.00000
  22       10D-2        0.00000   0.00000   0.00000   0.00000   0.00000
  23       11D 0       -0.00007   0.00002   0.00001   0.00010  -0.00002
  24       11D+1        0.00000   0.00000   0.00000   0.00000   0.00000
  25       11D-1        0.00034   0.00160  -0.00028   0.00002  -0.00034
  26       11D+2        0.00168  -0.00035  -0.00003  -0.00053  -0.00001
  27       11D-2        0.00000   0.00000   0.00000   0.00000   0.00000
  28       12D 0       -0.00042   0.00009   0.00001   0.00016  -0.00001
  29       12D+1        0.00000   0.00000   0.00000   0.00000   0.00000
  30       12D-1        0.00052   0.00255  -0.00133   0.00009   0.00131
  31       12D+2        0.00095  -0.00020  -0.00001  -0.00010   0.00002
  32       12D-2        0.00000   0.00000   0.00000   0.00000   0.00000
  33       13F 0        0.00015  -0.00003  -0.00001  -0.00015  -0.00001
  34       13F+1        0.00000   0.00000   0.00000   0.00000   0.00000
  35       13F-1        0.00000  -0.00001  -0.00006   0.00000  -0.00001
  36       13F+2        0.00001   0.00000   0.00000  -0.00003   0.00000
  37       13F-2        0.00000   0.00000   0.00000   0.00000   0.00000
  38       13F+3        0.00000   0.00000   0.00000   0.00000   0.00000
  39       13F-3       -0.00002  -0.00008   0.00003   0.00000  -0.00004
  40       14F 0       -0.00018   0.00004   0.00003   0.00053   0.00003
  41       14F+1        0.00000   0.00000   0.00000   0.00000   0.00000
  42       14F-1        0.00015   0.00069  -0.00002   0.00000  -0.00006
  43       14F+2       -0.00012   0.00003   0.00002   0.00040  -0.00002
  44       14F-2        0.00000   0.00000   0.00000   0.00000   0.00000
  45       14F+3        0.00000   0.00000   0.00000   0.00000   0.00000
  46       14F-3        0.00004   0.00022  -0.00012   0.00001   0.00028
  47 2   Br 1S         -0.03565   0.04830   0.07845  -0.08537  -0.00133
  48        2S          0.13198  -0.17881  -0.29215   0.31801   0.00502
  49        3S         -0.27841   0.37527   0.62990  -0.68611  -0.01084
  50        4S         -0.00089   0.00120   0.00187  -0.00236   0.00014
  51        5S         -0.01483   0.02005   0.03050  -0.03304  -0.00048
  52        6S          0.00297  -0.00328   0.00703  -0.00729  -0.00327
  53        7S          0.00223  -0.00004  -0.00257   0.00152  -0.00301
  54        8PX         0.00000   0.00000   0.00000   0.00000   0.00000
  55        8PY         0.14393  -0.25416   0.09282  -0.08841   0.14172
  56        8PZ         0.09048  -0.15285   0.04809  -0.07616  -0.23960
  57        9PX         0.00000   0.00000   0.00000   0.00000   0.00000
  58        9PY        -0.37401   0.66423  -0.26056   0.24730  -0.40082
  59        9PZ        -0.23581   0.39909  -0.13438   0.21367   0.67500
  60       10PX         0.00000   0.00000   0.00000   0.00000   0.00000
  61       10PY         0.00210  -0.00113   0.00005  -0.00078  -0.00122
  62       10PZ         0.00106  -0.00115   0.00016  -0.00030   0.00107
  63       11PX         0.00000   0.00000   0.00000   0.00000   0.00000
  64       11PY        -0.01774   0.03152  -0.01193   0.01125  -0.01783
  65       11PZ        -0.01130   0.01904  -0.00612   0.00975   0.03009
  66       12PX         0.00000   0.00000   0.00000   0.00000   0.00000
  67       12PY         0.00173   0.00088  -0.00134   0.00043  -0.00405
  68       12PZ         0.00076   0.00008  -0.00059   0.00064   0.00207
  69       13PX         0.00000   0.00000   0.00000   0.00000   0.00000
  70       13PY         0.00038  -0.00015  -0.00024   0.00022  -0.00019
  71       13PZ         0.00030  -0.00006  -0.00031   0.00008  -0.00064
  72       14D 0        0.00180  -0.00319   0.00096  -0.00196  -0.00839
  73       14D+1        0.00000   0.00000   0.00000   0.00000   0.00000
  74       14D-1       -0.01800   0.03099  -0.00516   0.00515  -0.00443
  75       14D+2        0.01079  -0.01882   0.00349  -0.00433  -0.00479
  76       14D-2        0.00000   0.00000   0.00000   0.00000   0.00000
  77       15D 0        0.00021  -0.00025   0.00005  -0.00014  -0.00051
  78       15D+1        0.00000   0.00000   0.00000   0.00000   0.00000
  79       15D-1       -0.00188   0.00307  -0.00027   0.00030  -0.00027
  80       15D+2        0.00125  -0.00194   0.00019  -0.00025  -0.00029
  81       15D-2        0.00000   0.00000   0.00000   0.00000   0.00000
  82       16D 0       -0.00001  -0.00021   0.00003  -0.00002  -0.00031
  83       16D+1        0.00000   0.00000   0.00000   0.00000   0.00000
  84       16D-1        0.00094  -0.00084  -0.00013  -0.00026  -0.00026
  85       16D+2       -0.00072   0.00053   0.00005   0.00007  -0.00013
  86       16D-2        0.00000   0.00000   0.00000   0.00000   0.00000
  87       17D 0       -0.00004   0.00004  -0.00005  -0.00003   0.00003
  88       17D+1        0.00000   0.00000   0.00000   0.00000   0.00000
  89       17D-1        0.00044  -0.00044  -0.00004  -0.00004  -0.00043
  90       17D+2       -0.00054  -0.00002   0.00021   0.00007   0.00029
  91       17D-2        0.00000   0.00000   0.00000   0.00000   0.00000
  92       18F 0        0.00017  -0.00033   0.00008  -0.00006   0.00005
  93       18F+1        0.00000   0.00000   0.00000   0.00000   0.00000
  94       18F-1       -0.00007   0.00014  -0.00002   0.00003   0.00035
  95       18F+2        0.00029  -0.00049   0.00009  -0.00009  -0.00002
  96       18F-2        0.00000   0.00000   0.00000   0.00000   0.00000
  97       18F+3        0.00000   0.00000   0.00000   0.00000   0.00000
  98       18F-3        0.00015  -0.00026   0.00003  -0.00004   0.00014
  99       19F 0       -0.00023   0.00035  -0.00006   0.00015  -0.00006
 100       19F+1        0.00000   0.00000   0.00000   0.00000   0.00000
 101       19F-1        0.00017  -0.00033   0.00001  -0.00010  -0.00034
 102       19F+2       -0.00053   0.00058  -0.00003   0.00019   0.00002
 103       19F-2        0.00000   0.00000   0.00000   0.00000   0.00000
 104       19F+3        0.00000   0.00000   0.00000   0.00000   0.00000
 105       19F-3       -0.00031   0.00024   0.00004   0.00005  -0.00018
 106 3   Br 1S         -0.05111  -0.02946  -0.08833  -0.07595   0.00214
 107        2S          0.18918   0.10901   0.32896   0.28290  -0.00806
 108        3S         -0.39811  -0.22798  -0.70928  -0.61032   0.01751
 109        4S         -0.00128  -0.00074  -0.00216  -0.00215  -0.00014
 110        5S         -0.02129  -0.01224  -0.03433  -0.02938   0.00080
 111        6S          0.00416   0.00193  -0.00788  -0.00642   0.00369
 112        7S          0.00208  -0.00086   0.00273   0.00121   0.00316
 113        8PX         0.00000   0.00000   0.00000   0.00000   0.00000
 114        8PY        -0.23338  -0.17782   0.10190   0.07422   0.12292
 115        8PZ         0.14523   0.10593  -0.05583  -0.06882   0.21382
 116        9PX         0.00000   0.00000   0.00000   0.00000   0.00000
 117        9PY         0.60780   0.46552  -0.28616  -0.20798  -0.34846
 118        9PZ        -0.37880  -0.27670   0.15625   0.19351  -0.60214
 119       10PX         0.00000   0.00000   0.00000   0.00000   0.00000
 120       10PY        -0.00238  -0.00019   0.00014   0.00076  -0.00124
 121       10PZ         0.00143   0.00064  -0.00020  -0.00027  -0.00090
 122       11PX         0.00000   0.00000   0.00000   0.00000   0.00000
 123       11PY         0.02885   0.02210  -0.01309  -0.00944  -0.01550
 124       11PZ        -0.01813  -0.01318   0.00711   0.00882  -0.02685
 125       12PX         0.00000   0.00000   0.00000   0.00000   0.00000
 126       12PY        -0.00128   0.00149  -0.00137  -0.00024  -0.00403
 127       12PZ         0.00067  -0.00036   0.00065   0.00056  -0.00166
 128       13PX         0.00000   0.00000   0.00000   0.00000   0.00000
 129       13PY        -0.00041   0.00001  -0.00026  -0.00019  -0.00022
 130       13PZ         0.00030  -0.00007   0.00032   0.00004   0.00064
 131       14D 0        0.00284   0.00216  -0.00113  -0.00179   0.00740
 132       14D+1        0.00000   0.00000   0.00000   0.00000   0.00000
 133       14D-1        0.02972   0.02209  -0.00580  -0.00437  -0.00350
 134       14D+2        0.01789   0.01346  -0.00402  -0.00382   0.00444
 135       14D-2        0.00000   0.00000   0.00000   0.00000   0.00000
 136       15D 0        0.00029   0.00014  -0.00007  -0.00013   0.00045
 137       15D+1        0.00000   0.00000   0.00000   0.00000   0.00000
 138       15D-1        0.00303   0.00215  -0.00030  -0.00025  -0.00021
 139       15D+2        0.00197   0.00132  -0.00022  -0.00021   0.00028
 140       15D-2        0.00000   0.00000   0.00000   0.00000   0.00000
 141       16D 0        0.00009   0.00020  -0.00003  -0.00002   0.00027
 142       16D+1        0.00000   0.00000   0.00000   0.00000   0.00000
 143       16D-1       -0.00121  -0.00040  -0.00011   0.00027  -0.00024
 144       16D+2       -0.00087  -0.00020  -0.00004   0.00007   0.00010
 145       16D-2        0.00000   0.00000   0.00000   0.00000   0.00000
 146       17D 0       -0.00006  -0.00001   0.00005  -0.00003  -0.00005
 147       17D+1        0.00000   0.00000   0.00000   0.00000   0.00000
 148       17D-1       -0.00059  -0.00024  -0.00003   0.00004  -0.00045
 149       17D+2       -0.00050   0.00023  -0.00020   0.00010  -0.00032
 150       17D-2        0.00000   0.00000   0.00000   0.00000   0.00000
 151       18F 0        0.00030   0.00024  -0.00009  -0.00005  -0.00004
 152       18F+1        0.00000   0.00000   0.00000   0.00000   0.00000
 153       18F-1        0.00013   0.00011  -0.00002  -0.00003   0.00032
 154       18F+2        0.00047   0.00034  -0.00010  -0.00008   0.00002
 155       18F-2        0.00000   0.00000   0.00000   0.00000   0.00000
 156       18F+3        0.00000   0.00000   0.00000   0.00000   0.00000
 157       18F-3       -0.00025  -0.00018   0.00003   0.00004   0.00013
 158       19F 0       -0.00035  -0.00023   0.00007   0.00014   0.00006
 159       19F+1        0.00000   0.00000   0.00000   0.00000   0.00000
 160       19F-1       -0.00030  -0.00025   0.00002   0.00010  -0.00030
 161       19F+2       -0.00072  -0.00033   0.00005   0.00018  -0.00001
 162       19F-2        0.00000   0.00000   0.00000   0.00000   0.00000
 163       19F+3        0.00000   0.00000   0.00000   0.00000   0.00000
 164       19F-3        0.00038   0.00010   0.00004  -0.00005  -0.00016
 165 4   O  1S         -0.06636   0.01508   0.00233   0.06799   0.01026
 166        2S          0.00094  -0.00022  -0.00006  -0.00153  -0.00020
 167        3S         -0.00277   0.00063   0.00010   0.00281   0.00043
 168        4S          0.00118  -0.00026  -0.00004  -0.00065  -0.00010
 169        5S          0.00068  -0.00015   0.00006   0.00102  -0.00012
 170        6PX         0.00000   0.00000   0.00000   0.00000   0.00000
 171        6PY         0.00012   0.00062  -0.00030   0.00002   0.00016
 172        6PZ         0.00054  -0.00012  -0.00002  -0.00048  -0.00004
 173        7PX         0.00000   0.00000   0.00000   0.00000   0.00000
 174        7PY         0.00014   0.00072  -0.00032   0.00003   0.00032
 175        7PZ         0.00063  -0.00014  -0.00002  -0.00045  -0.00001
 176        8PX         0.00000   0.00000   0.00000   0.00000   0.00000
 177        8PY        -0.00008  -0.00026   0.00010   0.00000   0.00111
 178        8PZ         0.00037  -0.00007  -0.00003  -0.00085  -0.00009
 179        9PX         0.00000   0.00000   0.00000   0.00000   0.00000
 180        9PY        -0.00014  -0.00068   0.00064  -0.00004   0.00016
 181        9PZ         0.00017  -0.00003  -0.00002  -0.00039   0.00004
 182       10D 0       -0.00003   0.00001   0.00000   0.00002   0.00000
 183       10D+1        0.00000   0.00000   0.00000   0.00000   0.00000
 184       10D-1        0.00001   0.00003   0.00002   0.00000   0.00002
 185       10D+2        0.00003  -0.00001   0.00000   0.00000   0.00000
 186       10D-2        0.00000   0.00000   0.00000   0.00000   0.00000
 187       11D 0       -0.00024   0.00005   0.00001   0.00016   0.00000
 188       11D+1        0.00000   0.00000   0.00000   0.00000   0.00000
 189       11D-1        0.00003   0.00016  -0.00010   0.00001  -0.00008
 190       11D+2       -0.00009   0.00002   0.00000  -0.00003   0.00000
 191       11D-2        0.00000   0.00000   0.00000   0.00000   0.00000
 192       12D 0       -0.00043   0.00009   0.00001   0.00029   0.00005
 193       12D+1        0.00000   0.00000   0.00000   0.00000   0.00000
 194       12D-1        0.00007   0.00032  -0.00009   0.00000  -0.00035
 195       12D+2       -0.00022   0.00005  -0.00001  -0.00012   0.00000
 196       12D-2        0.00000   0.00000   0.00000   0.00000   0.00000
 197       13F 0       -0.00009   0.00002   0.00000   0.00003   0.00000
 198       13F+1        0.00000   0.00000   0.00000   0.00000   0.00000
 199       13F-1        0.00000  -0.00001   0.00000   0.00000   0.00003
 200       13F+2        0.00000   0.00000   0.00000  -0.00001   0.00000
 201       13F-2        0.00000   0.00000   0.00000   0.00000   0.00000
 202       13F+3        0.00000   0.00000   0.00000   0.00000   0.00000
 203       13F-3        0.00000  -0.00002  -0.00001   0.00000  -0.00001
 204       14F 0        0.00025  -0.00005   0.00000  -0.00008  -0.00001
 205       14F+1        0.00000   0.00000   0.00000   0.00000   0.00000
 206       14F-1       -0.00001  -0.00006   0.00005   0.00000  -0.00002
 207       14F+2        0.00013  -0.00003   0.00000   0.00003   0.00000
 208       14F-2        0.00000   0.00000   0.00000   0.00000   0.00000
 209       14F+3        0.00000   0.00000   0.00000   0.00000   0.00000
 210       14F-3        0.00001   0.00005   0.00003   0.00000   0.00001
                           6         7         8         9        10
     Eigenvalues --     2.00001   2.00001   2.00001   2.00001   2.00000
   1 1   C  1S         -0.07530   0.00000   0.45018   0.00000   0.75538
   2        2S          0.00080   0.00000  -0.00535   0.00000  -0.00715
   3        3S         -0.00321   0.00000   0.01880   0.00000   0.03175
   4        4S         -0.00337   0.00000   0.00142   0.00000   0.00261
   5        5S         -0.00157   0.00000   0.00073   0.00000   0.00263
   6        6PX         0.00000   0.00000   0.00000   0.00063   0.00000
   7        6PY         0.00002   0.00000  -0.00001   0.00000   0.00000
   8        6PZ         0.00031   0.00000  -0.00086   0.00000  -0.00115
   9        7PX         0.00000   0.00001   0.00000   0.00105   0.00000
  10        7PY         0.00004   0.00000  -0.00002   0.00000  -0.00002
  11        7PZ        -0.00004   0.00000  -0.00076   0.00000   0.00326
  12        8PX         0.00000   0.00000   0.00000   0.00132   0.00000
  13        8PY         0.00035   0.00000  -0.00001   0.00000   0.00000
  14        8PZ         0.00573   0.00000  -0.00020   0.00000  -0.00150
  15        9PX         0.00000   0.00000   0.00000   0.00004   0.00000
  16        9PY         0.00010   0.00000   0.00001   0.00000   0.00001
  17        9PZ         0.00016   0.00000  -0.00020   0.00000  -0.00014
  18       10D 0       -0.00017   0.00000   0.00010   0.00000   0.00067
  19       10D+1        0.00000   0.00000   0.00000  -0.00010   0.00000
  20       10D-1        0.00000   0.00000   0.00000   0.00000   0.00000
  21       10D+2       -0.00007   0.00000  -0.00015   0.00000  -0.00020
  22       10D-2        0.00000   0.00009   0.00000   0.00000   0.00000
  23       11D 0       -0.00036   0.00000  -0.00086   0.00000   0.00096
  24       11D+1        0.00000   0.00000   0.00000  -0.00075   0.00000
  25       11D-1        0.00002   0.00000   0.00001   0.00000   0.00002
  26       11D+2       -0.00020   0.00000   0.00032   0.00000   0.00108
  27       11D-2        0.00000   0.00069   0.00000   0.00001   0.00000
  28       12D 0       -0.00022   0.00000   0.00002   0.00000  -0.00114
  29       12D+1        0.00000   0.00000   0.00000  -0.00064   0.00000
  30       12D-1       -0.00008   0.00000   0.00001   0.00000   0.00001
  31       12D+2        0.00040   0.00000  -0.00022   0.00000  -0.00100
  32       12D-2        0.00000  -0.00012   0.00000   0.00001   0.00000
  33       13F 0       -0.00011   0.00000   0.00026   0.00000   0.00036
  34       13F+1        0.00000   0.00000   0.00000  -0.00006   0.00000
  35       13F-1        0.00000   0.00000   0.00000   0.00000   0.00000
  36       13F+2        0.00003   0.00000   0.00000   0.00000  -0.00009
  37       13F-2        0.00000   0.00001   0.00000   0.00000   0.00000
  38       13F+3        0.00000   0.00000   0.00000   0.00002   0.00000
  39       13F-3        0.00000   0.00000   0.00000   0.00000   0.00000
  40       14F 0        0.00051   0.00000  -0.00119   0.00000  -0.00066
  41       14F+1        0.00000   0.00000   0.00000   0.00008   0.00000
  42       14F-1        0.00001   0.00000   0.00000   0.00000   0.00001
  43       14F+2       -0.00028   0.00000  -0.00068   0.00000  -0.00062
  44       14F-2        0.00000  -0.00021   0.00000   0.00000   0.00000
  45       14F+3        0.00000   0.00000   0.00000  -0.00036   0.00000
  46       14F-3       -0.00002   0.00000   0.00000   0.00000   0.00000
  47 2   Br 1S          0.00637   0.00000  -0.00204   0.00000   0.00027
  48        2S         -0.02393   0.00000   0.00800   0.00000  -0.00019
  49        3S          0.05262   0.00000  -0.02119   0.00000  -0.00841
  50        4S          0.00000   0.00000   0.00051   0.00000   0.00094
  51        5S          0.00247   0.00000  -0.00085   0.00000  -0.00058
  52        6S          0.00349   0.00000  -0.00060   0.00000  -0.00087
  53        7S          0.00127   0.00000  -0.00018   0.00000  -0.00108
  54        8PX         0.00000   0.26303   0.00000  -0.26217   0.00000
  55        8PY         0.15000   0.00000  -0.04600   0.00000  -0.08531
  56        8PZ        -0.18948   0.00000  -0.09314   0.00000  -0.05081
  57        9PX         0.00000  -0.74392   0.00000   0.74027   0.00000
  58        9PY        -0.41782   0.00000   0.10955   0.00000   0.20258
  59        9PZ         0.53684   0.00000   0.25063   0.00000   0.12164
  60       10PX         0.00000  -0.00131   0.00000   0.00071   0.00000
  61       10PY         0.00029   0.00000  -0.00052   0.00000  -0.00041
  62       10PZ         0.00126   0.00000   0.00005   0.00000   0.00018
  63       11PX         0.00000  -0.03325   0.00000   0.03274   0.00000
  64       11PY        -0.01856   0.00000   0.00484   0.00000   0.00855
  65       11PZ         0.02383   0.00000   0.01103   0.00000   0.00506
  66       12PX         0.00000  -0.00391   0.00000   0.00270   0.00000
  67       12PY         0.00011   0.00000  -0.00019   0.00000  -0.00007
  68       12PZ         0.00304   0.00000   0.00077   0.00000  -0.00054
  69       13PX         0.00000   0.00032   0.00000  -0.00025   0.00000
  70       13PY         0.00030   0.00000  -0.00005   0.00000  -0.00024
  71       13PZ         0.00005   0.00000  -0.00003   0.00000  -0.00019
  72       14D 0       -0.00705   0.00000  -0.00266   0.00000  -0.00113
  73       14D+1        0.00000  -0.00113   0.00000   0.00121   0.00000
  74       14D-1       -0.00670   0.00000   0.00770   0.00000   0.00962
  75       14D+2       -0.00255   0.00000  -0.00634   0.00000  -0.00606
  76       14D-2        0.00000  -0.00223   0.00000   0.00215   0.00000
  77       15D 0       -0.00038   0.00000  -0.00020   0.00000  -0.00010
  78       15D+1        0.00000  -0.00017   0.00000   0.00019   0.00000
  79       15D-1       -0.00041   0.00000   0.00071   0.00000   0.00086
  80       15D+2       -0.00010   0.00000  -0.00061   0.00000  -0.00060
  81       15D-2        0.00000  -0.00028   0.00000   0.00033   0.00000
  82       16D 0       -0.00035   0.00000  -0.00008   0.00000   0.00012
  83       16D+1        0.00000   0.00010   0.00000  -0.00015   0.00000
  84       16D-1       -0.00009   0.00000   0.00026   0.00000   0.00073
  85       16D+2       -0.00031   0.00000   0.00000   0.00000  -0.00021
  86       16D-2        0.00000   0.00017   0.00000  -0.00017   0.00000
  87       17D 0       -0.00023   0.00000   0.00002   0.00000  -0.00011
  88       17D+1        0.00000  -0.00009   0.00000  -0.00009   0.00000
  89       17D-1        0.00022   0.00000  -0.00003   0.00000  -0.00022
  90       17D+2       -0.00033   0.00000   0.00005   0.00000   0.00001
  91       17D-2        0.00000  -0.00016   0.00000  -0.00023   0.00000
  92       18F 0        0.00008   0.00000  -0.00008   0.00000  -0.00012
  93       18F+1        0.00000  -0.00001   0.00000   0.00001   0.00000
  94       18F-1        0.00029   0.00000   0.00008   0.00000   0.00008
  95       18F+2        0.00001   0.00000  -0.00014   0.00000  -0.00022
  96       18F-2        0.00000  -0.00022   0.00000   0.00025   0.00000
  97       18F+3        0.00000   0.00018   0.00000  -0.00022   0.00000
  98       18F-3        0.00007   0.00000  -0.00006   0.00000  -0.00010
  99       19F 0       -0.00008   0.00000  -0.00009   0.00000  -0.00011
 100       19F+1        0.00000   0.00001   0.00000  -0.00003   0.00000
 101       19F-1       -0.00036   0.00000   0.00000   0.00000   0.00017
 102       19F+2        0.00003   0.00000   0.00000   0.00000  -0.00011
 103       19F-2        0.00000   0.00017   0.00000  -0.00025   0.00000
 104       19F+3        0.00000  -0.00014   0.00000   0.00024   0.00000
 105       19F-3       -0.00009   0.00000   0.00010   0.00000   0.00000
 106 3   Br 1S          0.00593   0.00000  -0.00190   0.00000   0.00034
 107        2S         -0.02230   0.00000   0.00751   0.00000  -0.00047
 108        3S          0.04908   0.00000  -0.02010   0.00000  -0.00789
 109        4S          0.00001   0.00000   0.00053   0.00000   0.00096
 110        5S          0.00231   0.00000  -0.00080   0.00000  -0.00056
 111        6S          0.00306   0.00000  -0.00056   0.00000  -0.00085
 112        7S          0.00091   0.00000  -0.00021   0.00000  -0.00111
 113        8PX         0.00000  -0.26161   0.00000  -0.26359   0.00000
 114        8PY        -0.16608   0.00000   0.04405   0.00000   0.08457
 115        8PZ        -0.21763   0.00000  -0.09214   0.00000  -0.05028
 116        9PX         0.00000   0.73992   0.00000   0.74427   0.00000
 117        9PY         0.46348   0.00000  -0.10406   0.00000  -0.19983
 118        9PZ         0.61623   0.00000   0.24778   0.00000   0.11970
 119       10PX         0.00000   0.00130   0.00000   0.00071   0.00000
 120       10PY        -0.00014   0.00000   0.00053   0.00000   0.00041
 121       10PZ         0.00138   0.00000   0.00006   0.00000   0.00020
 122       11PX         0.00000   0.03308   0.00000   0.03292   0.00000
 123       11PY         0.02059   0.00000  -0.00459   0.00000  -0.00842
 124       11PZ         0.02737   0.00000   0.01090   0.00000   0.00497
 125       12PX         0.00000   0.00388   0.00000   0.00269   0.00000
 126       12PY         0.00038   0.00000   0.00023   0.00000   0.00009
 127       12PZ         0.00326   0.00000   0.00076   0.00000  -0.00056
 128       13PX         0.00000  -0.00032   0.00000  -0.00025   0.00000
 129       13PY        -0.00028   0.00000   0.00005   0.00000   0.00024
 130       13PZ        -0.00003   0.00000  -0.00004   0.00000  -0.00019
 131       14D 0       -0.00799   0.00000  -0.00259   0.00000  -0.00108
 132       14D+1        0.00000   0.00125   0.00000   0.00135   0.00000
 133       14D-1        0.00709   0.00000  -0.00777   0.00000  -0.00978
 134       14D+2       -0.00315   0.00000  -0.00635   0.00000  -0.00613
 135       14D-2        0.00000  -0.00240   0.00000  -0.00235   0.00000
 136       15D 0       -0.00044   0.00000  -0.00019   0.00000  -0.00009
 137       15D+1        0.00000   0.00018   0.00000   0.00020   0.00000
 138       15D-1        0.00043   0.00000  -0.00071   0.00000  -0.00087
 139       15D+2       -0.00013   0.00000  -0.00061   0.00000  -0.00061
 140       15D-2        0.00000  -0.00030   0.00000  -0.00035   0.00000
 141       16D 0       -0.00039   0.00000  -0.00008   0.00000   0.00013
 142       16D+1        0.00000  -0.00010   0.00000  -0.00016   0.00000
 143       16D-1        0.00013   0.00000  -0.00027   0.00000  -0.00074
 144       16D+2       -0.00032   0.00000   0.00001   0.00000  -0.00021
 145       16D-2        0.00000   0.00017   0.00000   0.00017   0.00000
 146       17D 0       -0.00023   0.00000   0.00002   0.00000  -0.00011
 147       17D+1        0.00000   0.00009   0.00000  -0.00010   0.00000
 148       17D-1       -0.00016   0.00000   0.00003   0.00000   0.00022
 149       17D+2       -0.00030   0.00000   0.00006   0.00000   0.00001
 150       17D-2        0.00000  -0.00016   0.00000   0.00023   0.00000
 151       18F 0        0.00009   0.00000  -0.00007   0.00000  -0.00012
 152       18F+1        0.00000   0.00001   0.00000   0.00001   0.00000
 153       18F-1       -0.00034   0.00000  -0.00008   0.00000  -0.00008
 154       18F+2        0.00000   0.00000  -0.00014   0.00000  -0.00022
 155       18F-2        0.00000  -0.00022   0.00000  -0.00025   0.00000
 156       18F+3        0.00000  -0.00018   0.00000  -0.00022   0.00000
 157       18F-3       -0.00009   0.00000   0.00006   0.00000   0.00010
 158       19F 0       -0.00008   0.00000  -0.00009   0.00000  -0.00011
 159       19F+1        0.00000  -0.00001   0.00000  -0.00003   0.00000
 160       19F-1        0.00040   0.00000  -0.00001   0.00000  -0.00018
 161       19F+2        0.00003   0.00000   0.00000   0.00000  -0.00011
 162       19F-2        0.00000   0.00017   0.00000   0.00026   0.00000
 163       19F+3        0.00000   0.00014   0.00000   0.00024   0.00000
 164       19F-3        0.00011   0.00000  -0.00010   0.00000  -0.00001
 165 4   O  1S          0.16736   0.00000  -0.79274   0.00000   0.54183
 166        2S         -0.00322   0.00000   0.01527   0.00000  -0.00893
 167        3S          0.00707   0.00000  -0.03353   0.00000   0.02348
 168        4S         -0.00157   0.00000   0.00255   0.00000  -0.00139
 169        5S         -0.00189   0.00000  -0.00046   0.00000  -0.00136
 170        6PX         0.00000   0.00000   0.00000  -0.00048   0.00000
 171        6PY        -0.00001   0.00000   0.00001   0.00000   0.00001
 172        6PZ        -0.00067   0.00000   0.00395   0.00000  -0.00042
 173        7PX         0.00000   0.00000   0.00000  -0.00056   0.00000
 174        7PY        -0.00003   0.00000   0.00001   0.00000   0.00001
 175        7PZ        -0.00013   0.00000   0.00162   0.00000   0.00261
 176        8PX         0.00000   0.00000   0.00000  -0.00036   0.00000
 177        8PY        -0.00008   0.00000   0.00000   0.00000  -0.00001
 178        8PZ        -0.00138   0.00000   0.00334   0.00000   0.00227
 179        9PX         0.00000   0.00000   0.00000   0.00004   0.00000
 180        9PY        -0.00001   0.00000  -0.00001   0.00000  -0.00001
 181        9PZ         0.00065   0.00000   0.00053   0.00000   0.00042
 182       10D 0        0.00004   0.00000  -0.00021   0.00000   0.00008
 183       10D+1        0.00000   0.00000   0.00000   0.00000   0.00000
 184       10D-1        0.00000   0.00000   0.00000   0.00000   0.00000
 185       10D+2       -0.00003   0.00000   0.00005   0.00000  -0.00002
 186       10D-2        0.00000   0.00001   0.00000   0.00000   0.00000
 187       11D 0        0.00003   0.00000   0.00015   0.00000  -0.00102
 188       11D+1        0.00000   0.00000   0.00000  -0.00009   0.00000
 189       11D-1        0.00001   0.00000   0.00000   0.00000   0.00000
 190       11D+2        0.00005   0.00000   0.00014   0.00000  -0.00006
 191       11D-2        0.00000  -0.00002   0.00000   0.00000   0.00000
 192       12D 0        0.00078   0.00000  -0.00051   0.00000  -0.00057
 193       12D+1        0.00000   0.00000   0.00000  -0.00010   0.00000
 194       12D-1        0.00002   0.00000   0.00000   0.00000   0.00001
 195       12D+2       -0.00001   0.00000   0.00029   0.00000   0.00040
 196       12D-2        0.00000   0.00003   0.00000   0.00000   0.00000
 197       13F 0        0.00001   0.00000  -0.00010   0.00000  -0.00010
 198       13F+1        0.00000   0.00000   0.00000   0.00000   0.00000
 199       13F-1        0.00000   0.00000   0.00000   0.00000   0.00000
 200       13F+2       -0.00001   0.00000   0.00002   0.00000  -0.00001
 201       13F-2        0.00000   0.00000   0.00000   0.00000   0.00000
 202       13F+3        0.00000   0.00000   0.00000  -0.00001   0.00000
 203       13F-3        0.00000   0.00000   0.00000   0.00000   0.00000
 204       14F 0       -0.00008   0.00000   0.00001   0.00000   0.00037
 205       14F+1        0.00000   0.00000   0.00000   0.00007   0.00000
 206       14F-1        0.00000   0.00000   0.00000   0.00000   0.00000
 207       14F+2        0.00002   0.00000  -0.00009   0.00000  -0.00003
 208       14F-2        0.00000   0.00003   0.00000   0.00000   0.00000
 209       14F+3        0.00000   0.00000   0.00000   0.00004   0.00000
 210       14F-3        0.00000   0.00000   0.00000   0.00000   0.00000
                          11        12        13        14        15
     Eigenvalues --     2.00000   2.00000   2.00000   2.00000   2.00000
   1 1   C  1S         -0.00029  -0.00131  -0.00011   0.01361   0.00000
   2        2S          0.00000   0.00005   0.00000  -0.00011   0.00000
   3        3S         -0.00001  -0.00005   0.00000   0.00062   0.00000
   4        4S          0.00000   0.00037   0.00001  -0.00105   0.00000
   5        5S          0.00000   0.00019   0.00000  -0.00038   0.00000
   6        6PX         0.00000   0.00000   0.00000   0.00000   0.00001
   7        6PY        -0.00003   0.00000  -0.00001   0.00000   0.00000
   8        6PZ         0.00000   0.00001   0.00000  -0.00004   0.00000
   9        7PX         0.00000   0.00000   0.00000   0.00000   0.00000
  10        7PY         0.00006   0.00000   0.00003   0.00000   0.00000
  11        7PZ         0.00000   0.00007   0.00000   0.00010   0.00000
  12        8PX         0.00000   0.00000   0.00000   0.00000  -0.00007
  13        8PY         0.00038  -0.00001   0.00061   0.00000   0.00000
  14        8PZ         0.00000  -0.00054  -0.00001   0.00038   0.00000
  15        9PX         0.00000   0.00000   0.00000   0.00000   0.00000
  16        9PY        -0.00010   0.00000   0.00010   0.00000   0.00000
  17        9PZ         0.00000  -0.00001   0.00000   0.00005   0.00000
  18       10D 0        0.00000   0.00000   0.00000   0.00001   0.00000
  19       10D+1        0.00000   0.00000   0.00000   0.00000   0.00000
  20       10D-1        0.00000   0.00000   0.00000   0.00000   0.00000
  21       10D+2        0.00000   0.00000   0.00000   0.00000   0.00000
  22       10D-2        0.00000   0.00000   0.00000   0.00000   0.00000
  23       11D 0        0.00000   0.00005   0.00000   0.00001   0.00000
  24       11D+1        0.00000   0.00000   0.00000   0.00000   0.00005
  25       11D-1       -0.00008   0.00000  -0.00002   0.00000   0.00000
  26       11D+2        0.00000   0.00001   0.00000   0.00014   0.00000
  27       11D-2        0.00000   0.00000   0.00000   0.00000  -0.00001
  28       12D 0        0.00000  -0.00001   0.00000   0.00008   0.00000
  29       12D+1        0.00000   0.00000   0.00000   0.00000   0.00004
  30       12D-1       -0.00018   0.00000  -0.00020   0.00000   0.00000
  31       12D+2        0.00000  -0.00005   0.00000   0.00017   0.00000
  32       12D-2        0.00000   0.00000   0.00000   0.00000   0.00001
  33       13F 0        0.00000   0.00001   0.00000   0.00000   0.00000
  34       13F+1        0.00000   0.00000   0.00000   0.00000   0.00001
  35       13F-1        0.00000   0.00000   0.00001   0.00000   0.00000
  36       13F+2        0.00000   0.00000   0.00000   0.00000   0.00000
  37       13F-2        0.00000   0.00000   0.00000   0.00000   0.00000
  38       13F+3        0.00000   0.00000   0.00000   0.00000  -0.00001
  39       13F-3        0.00001   0.00000   0.00001   0.00000   0.00000
  40       14F 0        0.00000  -0.00003   0.00000   0.00002   0.00000
  41       14F+1        0.00000   0.00000   0.00000   0.00000  -0.00001
  42       14F-1       -0.00002   0.00000  -0.00008   0.00000   0.00000
  43       14F+2        0.00000   0.00005   0.00000   0.00001   0.00000
  44       14F-2        0.00000   0.00000   0.00000   0.00000   0.00001
  45       14F+3        0.00000   0.00000   0.00000   0.00000   0.00004
  46       14F-3       -0.00002   0.00000  -0.00006   0.00000   0.00000
  47 2   Br 1S         -0.05450   0.00232  -0.01235  -0.03896   0.00000
  48        2S          0.16845  -0.00692   0.04085   0.12485   0.00000
  49        3S          0.01488  -0.00073   0.00380   0.01308   0.00000
  50        4S         -0.00012   0.00003  -0.00007  -0.00015   0.00000
  51        5S          0.00044  -0.00002   0.00011   0.00038   0.00000
  52        6S          0.00048  -0.00030   0.00049   0.00066   0.00000
  53        7S         -0.00014  -0.00013   0.00024   0.00018   0.00000
  54        8PX         0.00000   0.00000   0.00000   0.00000   0.58410
  55        8PY         0.66066  -0.40314  -0.19819   0.57278   0.00000
  56        8PZ         0.16895   0.57568   0.69287   0.39897   0.00000
  57        9PX         0.00000   0.00000   0.00000   0.00000  -0.01314
  58        9PY        -0.00009   0.00737   0.00867   0.00714   0.00000
  59        9PZ         0.00561  -0.01348  -0.01261   0.00325   0.00000
  60       10PX         0.00000   0.00000   0.00000   0.00000   0.00023
  61       10PY         0.00033  -0.00023  -0.00005   0.00032   0.00000
  62       10PZ         0.00012   0.00022   0.00036   0.00022   0.00000
  63       11PX         0.00000   0.00000   0.00000   0.00000  -0.00100
  64       11PY        -0.00057   0.00063   0.00048  -0.00023   0.00000
  65       11PZ         0.00006  -0.00099  -0.00108  -0.00022   0.00000
  66       12PX         0.00000   0.00000   0.00000   0.00000  -0.00003
  67       12PY         0.00005  -0.00012   0.00028   0.00020   0.00000
  68       12PZ         0.00008  -0.00013   0.00006   0.00020   0.00000
  69       13PX         0.00000   0.00000   0.00000   0.00000   0.00002
  70       13PY        -0.00001  -0.00003   0.00002   0.00002   0.00000
  71       13PZ        -0.00003   0.00000   0.00005   0.00002   0.00000
  72       14D 0       -0.00008   0.00032   0.00033   0.00002   0.00000
  73       14D+1        0.00000   0.00000   0.00000   0.00000  -0.00003
  74       14D-1       -0.00033   0.00018   0.00010  -0.00007   0.00000
  75       14D+2        0.00015   0.00017   0.00022   0.00009   0.00000
  76       14D-2        0.00000   0.00000   0.00000   0.00000  -0.00008
  77       15D 0        0.00000   0.00000   0.00001   0.00000   0.00000
  78       15D+1        0.00000   0.00000   0.00000   0.00000  -0.00001
  79       15D-1       -0.00005   0.00000  -0.00001  -0.00004   0.00000
  80       15D+2        0.00003   0.00000   0.00001   0.00003   0.00000
  81       15D-2        0.00000   0.00000   0.00000   0.00000  -0.00002
  82       16D 0        0.00000   0.00006   0.00007   0.00000   0.00000
  83       16D+1        0.00000   0.00000   0.00000   0.00000   0.00002
  84       16D-1        0.00008   0.00002   0.00007   0.00012   0.00000
  85       16D+2       -0.00005   0.00005   0.00001  -0.00010   0.00000
  86       16D-2        0.00000   0.00000   0.00000   0.00000   0.00003
  87       17D 0        0.00000   0.00001  -0.00002   0.00002   0.00000
  88       17D+1        0.00000   0.00000   0.00000   0.00000   0.00001
  89       17D-1        0.00002  -0.00003   0.00004   0.00006   0.00000
  90       17D+2        0.00001   0.00003  -0.00004  -0.00003   0.00000
  91       17D-2        0.00000   0.00000   0.00000   0.00000   0.00002
  92       18F 0        0.00000   0.00000   0.00000   0.00000   0.00000
  93       18F+1        0.00000   0.00000   0.00000   0.00000   0.00000
  94       18F-1        0.00000  -0.00001   0.00000   0.00000   0.00000
  95       18F+2       -0.00001   0.00000   0.00000  -0.00001   0.00000
  96       18F-2        0.00000   0.00000   0.00000   0.00000   0.00000
  97       18F+3        0.00000   0.00000   0.00000   0.00000   0.00000
  98       18F-3        0.00000   0.00000   0.00000  -0.00001   0.00000
  99       19F 0       -0.00002   0.00000   0.00000  -0.00001   0.00000
 100       19F+1        0.00000   0.00000   0.00000   0.00000   0.00000
 101       19F-1        0.00001   0.00003   0.00004   0.00001   0.00000
 102       19F+2       -0.00002   0.00000  -0.00001  -0.00004   0.00000
 103       19F-2        0.00000   0.00000   0.00000   0.00000   0.00002
 104       19F+3        0.00000   0.00000   0.00000   0.00000  -0.00002
 105       19F-3       -0.00001   0.00001   0.00001  -0.00002   0.00000
 106 3   Br 1S          0.05398   0.00170   0.01250  -0.03727   0.00000
 107        2S         -0.16686  -0.00492  -0.04137   0.11968   0.00000
 108        3S         -0.01498  -0.00055  -0.00391   0.01283   0.00000
 109        4S          0.00012   0.00002   0.00007  -0.00015   0.00000
 110        5S         -0.00045  -0.00001  -0.00011   0.00037   0.00000
 111        6S         -0.00049  -0.00029  -0.00050   0.00066   0.00000
 112        7S          0.00014  -0.00013  -0.00024   0.00018   0.00000
 113        8PX         0.00000   0.00000   0.00000   0.00000   0.82197
 114        8PY         0.66914   0.40871  -0.18426  -0.56476   0.00000
 115        8PZ        -0.17446   0.59594  -0.67690   0.39451   0.00000
 116        9PX         0.00000   0.00000   0.00000   0.00000  -0.01867
 117        9PY         0.00014  -0.00770   0.00858  -0.00712   0.00000
 118        9PZ        -0.00582  -0.01387   0.01217   0.00327   0.00000
 119       10PX         0.00000   0.00000   0.00000   0.00000   0.00033
 120       10PY         0.00033   0.00023  -0.00005  -0.00032   0.00000
 121       10PZ        -0.00013   0.00024  -0.00035   0.00021   0.00000
 122       11PX         0.00000   0.00000   0.00000   0.00000  -0.00141
 123       11PY        -0.00056  -0.00064   0.00047   0.00023   0.00000
 124       11PZ        -0.00006  -0.00103   0.00105  -0.00022   0.00000
 125       12PX         0.00000   0.00000   0.00000   0.00000  -0.00008
 126       12PY         0.00005   0.00012   0.00028  -0.00020   0.00000
 127       12PZ        -0.00008  -0.00013  -0.00007   0.00020   0.00000
 128       13PX         0.00000   0.00000   0.00000   0.00000   0.00003
 129       13PY        -0.00001   0.00003   0.00002  -0.00002   0.00000
 130       13PZ         0.00003   0.00000  -0.00005   0.00002   0.00000
 131       14D 0        0.00008   0.00033  -0.00031   0.00002   0.00000
 132       14D+1        0.00000   0.00000   0.00000   0.00000  -0.00005
 133       14D-1       -0.00033  -0.00017   0.00009   0.00007   0.00000
 134       14D+2       -0.00015   0.00018  -0.00022   0.00009   0.00000
 135       14D-2        0.00000   0.00000   0.00000   0.00000   0.00012
 136       15D 0        0.00000   0.00000  -0.00001   0.00000   0.00000
 137       15D+1        0.00000   0.00000   0.00000   0.00000  -0.00002
 138       15D-1       -0.00005   0.00000  -0.00001   0.00004   0.00000
 139       15D+2       -0.00003   0.00000  -0.00001   0.00003   0.00000
 140       15D-2        0.00000   0.00000   0.00000   0.00000   0.00003
 141       16D 0        0.00000   0.00006  -0.00007   0.00000   0.00000
 142       16D+1        0.00000   0.00000   0.00000   0.00000   0.00003
 143       16D-1        0.00008  -0.00002   0.00007  -0.00012   0.00000
 144       16D+2        0.00006   0.00005  -0.00001  -0.00010   0.00000
 145       16D-2        0.00000   0.00000   0.00000   0.00000  -0.00004
 146       17D 0        0.00000   0.00001   0.00002   0.00002   0.00000
 147       17D+1        0.00000   0.00000   0.00000   0.00000   0.00000
 148       17D-1        0.00002   0.00003   0.00004  -0.00006   0.00000
 149       17D+2       -0.00001   0.00003   0.00004  -0.00003   0.00000
 150       17D-2        0.00000   0.00000   0.00000   0.00000  -0.00001
 151       18F 0        0.00000   0.00000   0.00000   0.00000   0.00000
 152       18F+1        0.00000   0.00000   0.00000   0.00000   0.00000
 153       18F-1        0.00001   0.00001   0.00000   0.00000   0.00000
 154       18F+2        0.00001   0.00000   0.00000  -0.00001   0.00000
 155       18F-2        0.00000   0.00000   0.00000   0.00000   0.00001
 156       18F+3        0.00000   0.00000   0.00000   0.00000   0.00000
 157       18F-3        0.00000   0.00000   0.00000   0.00001   0.00000
 158       19F 0        0.00002   0.00000   0.00000  -0.00001   0.00000
 159       19F+1        0.00000   0.00000   0.00000   0.00000   0.00000
 160       19F-1        0.00001  -0.00003   0.00003  -0.00001   0.00000
 161       19F+2        0.00002   0.00000   0.00001  -0.00004   0.00000
 162       19F-2        0.00000   0.00000   0.00000   0.00000  -0.00002
 163       19F+3        0.00000   0.00000   0.00000   0.00000  -0.00002
 164       19F-3       -0.00001  -0.00001   0.00001   0.00002   0.00000
 165 4   O  1S         -0.00009  -0.00048  -0.00003   0.00407   0.00000
 166        2S          0.00000   0.00000   0.00000  -0.00010   0.00000
 167        3S          0.00000  -0.00002   0.00000   0.00018   0.00000
 168        4S          0.00000   0.00006   0.00000   0.00004   0.00000
 169        5S          0.00000   0.00018   0.00000  -0.00005   0.00000
 170        6PX         0.00000   0.00000   0.00000   0.00000   0.00000
 171        6PY         0.00000   0.00000   0.00000   0.00000   0.00000
 172        6PZ         0.00000   0.00000   0.00000   0.00002   0.00000
 173        7PX         0.00000   0.00000   0.00000   0.00000  -0.00001
 174        7PY         0.00001   0.00000   0.00001   0.00000   0.00000
 175        7PZ         0.00000   0.00001   0.00000   0.00006   0.00000
 176        8PX         0.00000   0.00000   0.00000   0.00000  -0.00002
 177        8PY         0.00003   0.00000   0.00000   0.00000   0.00000
 178        8PZ         0.00000   0.00011   0.00000  -0.00005   0.00000
 179        9PX         0.00000   0.00000   0.00000   0.00000  -0.00001
 180        9PY         0.00008   0.00000   0.00002   0.00000   0.00000
 181        9PZ         0.00000  -0.00006   0.00000   0.00002   0.00000
 182       10D 0        0.00000   0.00000   0.00000   0.00000   0.00000
 183       10D+1        0.00000   0.00000   0.00000   0.00000   0.00000
 184       10D-1        0.00000   0.00000   0.00000   0.00000   0.00000
 185       10D+2        0.00000   0.00000   0.00000   0.00000   0.00000
 186       10D-2        0.00000   0.00000   0.00000   0.00000   0.00000
 187       11D 0        0.00000  -0.00001   0.00000  -0.00002   0.00000
 188       11D+1        0.00000   0.00000   0.00000   0.00000   0.00001
 189       11D-1        0.00000   0.00000   0.00001   0.00000   0.00000
 190       11D+2        0.00000  -0.00001   0.00000  -0.00001   0.00000
 191       11D-2        0.00000   0.00000   0.00000   0.00000   0.00000
 192       12D 0        0.00000  -0.00007   0.00000   0.00000   0.00000
 193       12D+1        0.00000   0.00000   0.00000   0.00000   0.00001
 194       12D-1        0.00000   0.00000   0.00002   0.00000   0.00000
 195       12D+2        0.00000  -0.00001   0.00000  -0.00004   0.00000
 196       12D-2        0.00000   0.00000   0.00000   0.00000   0.00000
 197       13F 0        0.00000   0.00000   0.00000   0.00000   0.00000
 198       13F+1        0.00000   0.00000   0.00000   0.00000   0.00000
 199       13F-1        0.00000   0.00000   0.00000   0.00000   0.00000
 200       13F+2        0.00000   0.00000   0.00000   0.00000   0.00000
 201       13F-2        0.00000   0.00000   0.00000   0.00000   0.00000
 202       13F+3        0.00000   0.00000   0.00000   0.00000   0.00000
 203       13F-3        0.00000   0.00000   0.00000   0.00000   0.00000
 204       14F 0        0.00000   0.00001   0.00000   0.00002   0.00000
 205       14F+1        0.00000   0.00000   0.00000   0.00000  -0.00001
 206       14F-1        0.00000   0.00000  -0.00001   0.00000   0.00000
 207       14F+2        0.00000   0.00001   0.00000   0.00002   0.00000
 208       14F-2        0.00000   0.00000   0.00000   0.00000   0.00000
 209       14F+3        0.00000   0.00000   0.00000   0.00000  -0.00001
 210       14F-3        0.00000   0.00000   0.00000   0.00000   0.00000
                          16        17        18        19        20
     Eigenvalues --     2.00000   2.00000   2.00000   2.00000   2.00000
   1 1   C  1S          0.00000  -0.00018   0.00152   0.00000   0.00005
   2        2S          0.00000   0.00000  -0.00001   0.00000   0.00000
   3        3S          0.00000  -0.00001   0.00006   0.00000   0.00000
   4        4S          0.00000  -0.00001   0.00006   0.00000   0.00001
   5        5S          0.00000  -0.00001   0.00007   0.00000   0.00000
   6        6PX         0.00000   0.00000   0.00000   0.00000   0.00000
   7        6PY         0.00000   0.00000   0.00000   0.00000   0.00000
   8        6PZ         0.00000   0.00000   0.00000   0.00000   0.00000
   9        7PX         0.00000   0.00000   0.00000   0.00000   0.00000
  10        7PY         0.00000   0.00002   0.00000   0.00000   0.00000
  11        7PZ         0.00000   0.00000  -0.00001   0.00000   0.00000
  12        8PX         0.00001   0.00000   0.00000   0.00000   0.00000
  13        8PY         0.00000  -0.00001   0.00000  -0.00001   0.00000
  14        8PZ         0.00000   0.00000  -0.00001   0.00000  -0.00001
  15        9PX         0.00000   0.00000   0.00000   0.00000   0.00000
  16        9PY         0.00000  -0.00002   0.00000   0.00000   0.00000
  17        9PZ         0.00000   0.00000   0.00000   0.00000   0.00000
  18       10D 0        0.00000   0.00000   0.00000   0.00000   0.00000
  19       10D+1        0.00000   0.00000   0.00000   0.00000   0.00000
  20       10D-1        0.00000   0.00000   0.00000   0.00000   0.00000
  21       10D+2        0.00000   0.00000   0.00000   0.00000   0.00000
  22       10D-2        0.00000   0.00000   0.00000   0.00000   0.00000
  23       11D 0        0.00000   0.00000   0.00000   0.00000   0.00000
  24       11D+1       -0.00001   0.00000   0.00000   0.00000   0.00000
  25       11D-1        0.00000  -0.00002   0.00000   0.00000   0.00000
  26       11D+2        0.00000   0.00000  -0.00001   0.00000   0.00000
  27       11D-2       -0.00004   0.00000   0.00000   0.00000   0.00000
  28       12D 0        0.00000   0.00000   0.00002   0.00000   0.00000
  29       12D+1       -0.00001   0.00000   0.00000   0.00000   0.00000
  30       12D-1        0.00000  -0.00004   0.00000   0.00000   0.00000
  31       12D+2        0.00000   0.00000  -0.00001   0.00000   0.00000
  32       12D-2        0.00004   0.00000   0.00000   0.00000   0.00000
  33       13F 0        0.00000   0.00000   0.00000   0.00000   0.00000
  34       13F+1        0.00000   0.00000   0.00000   0.00000   0.00000
  35       13F-1        0.00000   0.00000   0.00000   0.00000   0.00000
  36       13F+2        0.00000   0.00000   0.00000   0.00000   0.00000
  37       13F-2        0.00000   0.00000   0.00000   0.00000   0.00000
  38       13F+3        0.00000   0.00000   0.00000   0.00000   0.00000
  39       13F-3        0.00000   0.00000   0.00000   0.00000   0.00000
  40       14F 0        0.00000   0.00000  -0.00001   0.00000   0.00000
  41       14F+1        0.00000   0.00000   0.00000   0.00000   0.00000
  42       14F-1        0.00000  -0.00002   0.00000   0.00000   0.00000
  43       14F+2        0.00000   0.00000   0.00000   0.00000   0.00000
  44       14F-2        0.00003   0.00000   0.00000   0.00000   0.00000
  45       14F+3       -0.00001   0.00000   0.00000   0.00000   0.00000
  46       14F-3        0.00000  -0.00001   0.00000   0.00000   0.00000
  47 2   Br 1S          0.00000   0.24372  -0.19223   0.71997   0.69182
  48        2S          0.00000  -0.78932   0.62458   0.00415   0.00276
  49        3S          0.00000  -0.03374   0.02710   0.00057   0.00047
  50        4S          0.00000   0.00022  -0.00016   0.00001   0.00001
  51        5S          0.00000  -0.00080   0.00064   0.00000   0.00000
  52        6S          0.00000  -0.00005   0.00002  -0.00002  -0.00001
  53        7S          0.00000  -0.00004  -0.00003   0.00000   0.00000
  54        8PX        -0.82211   0.00000   0.00000   0.00000   0.00000
  55        8PY         0.00000   0.16404  -0.08684   0.00232   0.00040
  56        8PZ         0.00000   0.09103  -0.05521   0.00030   0.00007
  57        9PX         0.01906   0.00000   0.00000   0.00000   0.00000
  58        9PY         0.00000  -0.00287   0.00272  -0.00010  -0.00014
  59        9PZ         0.00000  -0.00148   0.00164  -0.00005  -0.00006
  60       10PX        -0.00033   0.00000   0.00000   0.00000   0.00000
  61       10PY         0.00000   0.00008  -0.00005   0.00000   0.00000
  62       10PZ         0.00000   0.00005  -0.00003   0.00000   0.00000
  63       11PX         0.00143   0.00000   0.00000   0.00000   0.00000
  64       11PY         0.00000  -0.00027   0.00019  -0.00001  -0.00001
  65       11PZ         0.00000  -0.00015   0.00012   0.00000   0.00000
  66       12PX         0.00014   0.00000   0.00000   0.00000   0.00000
  67       12PY         0.00000  -0.00006   0.00000  -0.00001   0.00000
  68       12PZ         0.00000  -0.00003   0.00001   0.00000   0.00000
  69       13PX        -0.00004   0.00000   0.00000   0.00000   0.00000
  70       13PY         0.00000   0.00000  -0.00001   0.00000   0.00000
  71       13PZ         0.00000   0.00000   0.00000   0.00000   0.00000
  72       14D 0        0.00000   0.00004  -0.00003   0.00000   0.00000
  73       14D+1        0.00005   0.00000   0.00000   0.00000   0.00000
  74       14D-1        0.00000  -0.00001   0.00000   0.00000   0.00000
  75       14D+2        0.00000  -0.00008   0.00006   0.00000   0.00000
  76       14D-2        0.00012   0.00000   0.00000   0.00000   0.00000
  77       15D 0        0.00000   0.00000   0.00000   0.00000   0.00000
  78       15D+1        0.00002   0.00000   0.00000   0.00000   0.00000
  79       15D-1        0.00000   0.00000   0.00000   0.00000   0.00000
  80       15D+2        0.00000   0.00000   0.00000   0.00000   0.00000
  81       15D-2        0.00003   0.00000   0.00000   0.00000   0.00000
  82       16D 0        0.00000   0.00001   0.00000   0.00000   0.00000
  83       16D+1       -0.00002   0.00000   0.00000   0.00000   0.00000
  84       16D-1        0.00000   0.00002  -0.00001   0.00000   0.00000
  85       16D+2        0.00000  -0.00001   0.00001   0.00000   0.00000
  86       16D-2       -0.00004   0.00000   0.00000   0.00000   0.00000
  87       17D 0        0.00000   0.00000   0.00000   0.00000   0.00000
  88       17D+1        0.00002   0.00000   0.00000   0.00000   0.00000
  89       17D-1        0.00000  -0.00001   0.00001   0.00000   0.00000
  90       17D+2        0.00000   0.00002   0.00000   0.00000   0.00000
  91       17D-2        0.00002   0.00000   0.00000   0.00000   0.00000
  92       18F 0        0.00000   0.00000   0.00000   0.00000   0.00000
  93       18F+1        0.00000   0.00000   0.00000   0.00000   0.00000
  94       18F-1        0.00000   0.00000   0.00000   0.00000   0.00000
  95       18F+2        0.00000   0.00000   0.00000   0.00000   0.00000
  96       18F-2        0.00000   0.00000   0.00000   0.00000   0.00000
  97       18F+3        0.00000   0.00000   0.00000   0.00000   0.00000
  98       18F-3        0.00000   0.00000   0.00000   0.00000   0.00000
  99       19F 0        0.00000   0.00000   0.00000   0.00000   0.00000
 100       19F+1        0.00000   0.00000   0.00000   0.00000   0.00000
 101       19F-1        0.00000   0.00000   0.00000   0.00000   0.00000
 102       19F+2        0.00000   0.00000   0.00000   0.00000   0.00000
 103       19F-2       -0.00001   0.00000   0.00000   0.00000   0.00000
 104       19F+3        0.00001   0.00000   0.00000   0.00000   0.00000
 105       19F-3        0.00000   0.00000   0.00000   0.00000   0.00000
 106 3   Br 1S          0.00000  -0.18954  -0.24608  -0.69145   0.72037
 107        2S          0.00000   0.61343   0.79912  -0.00395   0.00289
 108        3S          0.00000   0.02614   0.03458  -0.00055   0.00049
 109        4S          0.00000  -0.00018  -0.00021  -0.00001   0.00001
 110        5S          0.00000   0.00062   0.00082   0.00000   0.00000
 111        6S          0.00000   0.00004   0.00004   0.00002  -0.00001
 112        7S          0.00000   0.00005  -0.00002   0.00000   0.00000
 113        8PX         0.58429   0.00000   0.00000   0.00000   0.00000
 114        8PY         0.00000   0.13572   0.12094   0.00227  -0.00047
 115        8PZ         0.00000  -0.07404  -0.07481  -0.00027   0.00006
 116        9PX        -0.01367   0.00000   0.00000   0.00000   0.00000
 117        9PY         0.00000  -0.00212  -0.00333  -0.00010   0.00015
 118        9PZ         0.00000   0.00105   0.00198   0.00005  -0.00006
 119       10PX         0.00024   0.00000   0.00000   0.00000   0.00000
 120       10PY         0.00000   0.00007   0.00007   0.00000   0.00000
 121       10PZ         0.00000  -0.00004  -0.00004   0.00000   0.00000
 122       11PX        -0.00102   0.00000   0.00000   0.00000   0.00000
 123       11PY         0.00000  -0.00021  -0.00025  -0.00001   0.00001
 124       11PZ         0.00000   0.00011   0.00015   0.00000   0.00000
 125       12PX        -0.00012   0.00000   0.00000   0.00000   0.00000
 126       12PY         0.00000  -0.00006  -0.00002  -0.00001   0.00000
 127       12PZ         0.00000   0.00002   0.00002   0.00000   0.00000
 128       13PX         0.00003   0.00000   0.00000   0.00000   0.00000
 129       13PY         0.00000   0.00000   0.00000   0.00000   0.00000
 130       13PZ         0.00000   0.00000   0.00000   0.00000   0.00000
 131       14D 0        0.00000  -0.00003  -0.00004   0.00000   0.00000
 132       14D+1       -0.00004   0.00000   0.00000   0.00000   0.00000
 133       14D-1        0.00000  -0.00001  -0.00001   0.00000   0.00000
 134       14D+2        0.00000   0.00006   0.00007   0.00000   0.00000
 135       14D-2        0.00009   0.00000   0.00000   0.00000   0.00000
 136       15D 0        0.00000   0.00000   0.00000   0.00000   0.00000
 137       15D+1       -0.00001   0.00000   0.00000   0.00000   0.00000
 138       15D-1        0.00000   0.00000   0.00000   0.00000   0.00000
 139       15D+2        0.00000   0.00000   0.00000   0.00000   0.00000
 140       15D-2        0.00002   0.00000   0.00000   0.00000   0.00000
 141       16D 0        0.00000  -0.00001   0.00000   0.00000   0.00000
 142       16D+1        0.00002   0.00000   0.00000   0.00000   0.00000
 143       16D-1        0.00000   0.00001   0.00001   0.00000   0.00000
 144       16D+2        0.00000   0.00000   0.00001   0.00000   0.00000
 145       16D-2       -0.00003   0.00000   0.00000   0.00000   0.00000
 146       17D 0        0.00000   0.00000   0.00000   0.00000   0.00000
 147       17D+1       -0.00002   0.00000   0.00000   0.00000   0.00000
 148       17D-1        0.00000  -0.00001  -0.00001   0.00000   0.00000
 149       17D+2        0.00000  -0.00002   0.00000   0.00000   0.00000
 150       17D-2        0.00003   0.00000   0.00000   0.00000   0.00000
 151       18F 0        0.00000   0.00000   0.00000   0.00000   0.00000
 152       18F+1        0.00000   0.00000   0.00000   0.00000   0.00000
 153       18F-1        0.00000   0.00000   0.00000   0.00000   0.00000
 154       18F+2        0.00000   0.00000   0.00000   0.00000   0.00000
 155       18F-2        0.00000   0.00000   0.00000   0.00000   0.00000
 156       18F+3        0.00000   0.00000   0.00000   0.00000   0.00000
 157       18F-3        0.00000   0.00000   0.00000   0.00000   0.00000
 158       19F 0        0.00000   0.00000   0.00000   0.00000   0.00000
 159       19F+1        0.00000   0.00000   0.00000   0.00000   0.00000
 160       19F-1        0.00000   0.00000   0.00000   0.00000   0.00000
 161       19F+2        0.00000   0.00000   0.00000   0.00000   0.00000
 162       19F-2       -0.00001   0.00000   0.00000   0.00000   0.00000
 163       19F+3        0.00000   0.00000   0.00000   0.00000   0.00000
 164       19F-3        0.00000   0.00000   0.00000   0.00000   0.00000
 165 4   O  1S          0.00000  -0.00007   0.00061   0.00000   0.00000
 166        2S          0.00000   0.00000   0.00000   0.00000   0.00000
 167        3S          0.00000   0.00000   0.00003   0.00000   0.00000
 168        4S          0.00000   0.00000  -0.00002   0.00000   0.00000
 169        5S          0.00000   0.00001  -0.00005   0.00000   0.00001
 170        6PX         0.00000   0.00000   0.00000   0.00000   0.00000
 171        6PY         0.00000   0.00000   0.00000   0.00000   0.00000
 172        6PZ         0.00000   0.00000   0.00000   0.00000   0.00000
 173        7PX         0.00000   0.00000   0.00000   0.00000   0.00000
 174        7PY         0.00000   0.00000   0.00000   0.00000   0.00000
 175        7PZ         0.00000   0.00000   0.00001   0.00000   0.00000
 176        8PX         0.00000   0.00000   0.00000   0.00000   0.00000
 177        8PY         0.00000   0.00003   0.00000   0.00000   0.00000
 178        8PZ         0.00000   0.00000   0.00001   0.00000   0.00000
 179        9PX         0.00000   0.00000   0.00000   0.00000   0.00000
 180        9PY         0.00000   0.00001   0.00000   0.00000   0.00000
 181        9PZ         0.00000   0.00000   0.00001   0.00000   0.00000
 182       10D 0        0.00000   0.00000   0.00000   0.00000   0.00000
 183       10D+1        0.00000   0.00000   0.00000   0.00000   0.00000
 184       10D-1        0.00000   0.00000   0.00000   0.00000   0.00000
 185       10D+2        0.00000   0.00000   0.00000   0.00000   0.00000
 186       10D-2        0.00000   0.00000   0.00000   0.00000   0.00000
 187       11D 0        0.00000   0.00000   0.00000   0.00000   0.00000
 188       11D+1        0.00000   0.00000   0.00000   0.00000   0.00000
 189       11D-1        0.00000   0.00000   0.00000   0.00000   0.00000
 190       11D+2        0.00000   0.00000   0.00000   0.00000   0.00000
 191       11D-2        0.00000   0.00000   0.00000   0.00000   0.00000
[...]
 189       11D-1       -0.00424   0.00000   0.15134   0.03302   0.00071
 190       11D+2       -0.00270   0.00000   0.02107  -0.09443  -0.03921
 191       11D-2        0.00000   0.00031   0.00000   0.00000   0.00000
 192       12D 0        4.64761   0.00000   0.26613  -1.27439   0.74837
 193       12D+1        0.00000   2.06108   0.00000   0.00000   0.00000
 194       12D-1       -0.01749   0.00000  -0.24120  -0.05097  -0.00097
 195       12D+2       -0.57202   0.00000  -0.12083   0.54001   0.05831
 196       12D-2        0.00000  -0.00122   0.00000   0.00000   0.00000
 197       13F 0        0.02193   0.00000  -0.00322   0.01644  -0.04620
 198       13F+1        0.00000   0.01824   0.00000   0.00000   0.00000
 199       13F-1       -0.00073   0.00000   0.04676   0.00963   0.00055
 200       13F+2       -0.05456   0.00000  -0.00515   0.02408  -0.01348
 201       13F-2        0.00000   0.00011   0.00000   0.00000   0.00000
 202       13F+3        0.00000   0.00499   0.00000   0.00000   0.00000
 203       13F-3       -0.00025   0.00000  -0.02804  -0.00583  -0.00025
 204       14F 0       -1.28800   0.00000  -0.03640   0.16451   0.01505
 205       14F+1        0.00000  -0.15057   0.00000   0.00000   0.00000
 206       14F-1        0.00399   0.00000  -0.12189  -0.02527  -0.00108
 207       14F+2        0.19635   0.00000   0.02118  -0.09759   0.04578
 208       14F-2        0.00000  -0.00019   0.00000   0.00000   0.00000
 209       14F+3        0.00000   0.00164   0.00000   0.00000   0.00000
 210       14F-3        0.00060   0.00000   0.05852   0.01209   0.00051
                         206       207       208       209       210
     Eigenvalues --     0.00000   0.00000   0.00000   0.00000   0.00000
   1 1   C  1S          0.00000  -0.00537  -0.00045   0.21835   0.00034
   2        2S          0.00000  -0.02898  -0.00283   1.25240   0.04040
   3        3S          0.00000   0.00074  -0.00130   0.00640   0.11140
   4        4S          0.00000   0.04953   0.07227   9.33294   3.58555
   5        5S          0.00000   0.31908  -0.02716   3.63405  31.54478
   6        6PX         0.00418   0.00000   0.00000   0.00000   0.00000
   7        6PY         0.00000  -0.00122   0.00539   0.00000   0.00014
   8        6PZ         0.00000  -0.00002  -0.00008   0.01345   0.01068
   9        7PX        -0.32236   0.00000   0.00000   0.00000   0.00000
  10        7PY         0.00000  -0.24533  -0.12409  -0.00121  -0.00019
  11        7PZ         0.00000  -0.00381  -0.00530   1.35123   0.07178
  12        8PX        -0.32855   0.00000   0.00000   0.00000   0.00000
  13        8PY         0.00000  -5.48496   6.94793   0.02432   0.02448
  14        8PZ         0.00000  -0.07228  -0.03724   5.42136  -0.02357
  15        9PX         6.35649   0.00000   0.00000   0.00000   0.00000
  16        9PY         0.00000  -0.29003  14.01418   0.05781   0.07799
  17        9PZ         0.00000  -0.05676  -0.03704   5.90867  -3.85137
  18       10D 0        0.00000  -0.00039  -0.00041   0.08520   0.02108
  19       10D+1       -0.00676   0.00000   0.00000   0.00000   0.00000
  20       10D-1        0.00000   0.00829   0.02143   0.00025  -0.00002
  21       10D+2        0.00000   0.00073   0.00026  -0.00525  -0.04818
  22       10D-2       -0.00028   0.00000   0.00000   0.00000   0.00000
  23       11D 0        0.00000  -0.00305   0.00129   0.59595  -0.21136
  24       11D+1       -0.44675   0.00000   0.00000   0.00000   0.00000
  25       11D-1        0.00000  -0.14400  -0.69816  -0.00679   0.00056
  26       11D+2        0.00000  -0.00718  -0.00321   0.01711   0.18869
  27       11D-2        0.00028   0.00000   0.00000   0.00000   0.00000
  28       12D 0        0.00000  -0.03222  -0.01303   3.51565   0.26001
  29       12D+1        0.91248   0.00000   0.00000   0.00000   0.00000
  30       12D-1        0.00000  -0.20219  -0.40574  -0.01324   0.01135
  31       12D+2        0.00000  -0.07048  -0.00017   1.39011  -1.01341
  32       12D-2       -0.00540   0.00000   0.00000   0.00000   0.00000
  33       13F 0        0.00000  -0.00110   0.00041   0.05179  -0.04535
  34       13F+1       -0.12057   0.00000   0.00000   0.00000   0.00000
  35       13F-1        0.00000  -0.01539  -0.06179  -0.00041   0.00016
  36       13F+2        0.00000   0.00032   0.00023  -0.00241   0.00533
  37       13F-2       -0.00002   0.00000   0.00000   0.00000   0.00000
  38       13F+3        0.05195   0.00000   0.00000   0.00000   0.00000
  39       13F-3        0.00000   0.04578  -0.00113   0.00024  -0.00015
  40       14F 0        0.00000   0.00449   0.00026  -0.01556  -0.09270
  41       14F+1       -0.05092   0.00000   0.00000   0.00000   0.00000
  42       14F-1        0.00000  -0.01093  -0.01968   0.00091  -0.00186
  43       14F+2        0.00000   0.00411   0.00019   0.12809  -0.17024
  44       14F-2       -0.00076   0.00000   0.00000   0.00000   0.00000
  45       14F+3       -0.03062   0.00000   0.00000   0.00000   0.00000
  46       14F-3        0.00000  -0.06856  -0.10971  -0.00131  -0.00019
  47 2   Br 1S          0.00000   0.00222  -0.00006  -0.00002   0.00010
  48        2S          0.00000   0.01694  -0.00358  -0.00119   0.00071
  49        3S          0.00000   0.07913  -0.00914  -0.00294   0.00340
  50        4S          0.00000   0.23218  -0.05813  -0.01454   0.01081
  51        5S          0.00000   0.09189  -0.15614  -0.00329  -0.00255
  52        6S          0.00000  -0.80820   1.91965   0.85446   0.03848
  53        7S          0.00000 -10.08976  14.99722   2.14836 -13.41925
  54        8PX         0.00162   0.00000   0.00000   0.00000   0.00000
  55        8PY         0.00000   0.00092   0.00059   0.00065  -0.00039
  56        8PZ         0.00000   0.00057  -0.00003   0.00044   0.00004
  57        9PX        -0.02002   0.00000   0.00000   0.00000   0.00000
  58        9PY         0.00000   0.01679   0.00307  -0.00854   0.02540
  59        9PZ         0.00000   0.00145   0.01310  -0.00963   0.01485
  60       10PX        -0.15298   0.00000   0.00000   0.00000   0.00000
  61       10PY         0.00000   0.24517   0.06664  -0.06678   0.27853
  62       10PZ         0.00000   0.04928   0.15073  -0.09054   0.17664
  63       11PX         0.04494   0.00000   0.00000   0.00000   0.00000
  64       11PY         0.00000   0.00015  -0.00391   0.01889  -0.03504
  65       11PZ         0.00000   0.01520  -0.02372   0.01452  -0.01614
  66       12PX         0.65862   0.00000   0.00000   0.00000   0.00000
  67       12PY         0.00000  -3.73133   3.74664  -0.33388  -1.66962
  68       12PZ         0.00000  -2.39324   2.55536   1.58728  -1.29715
  69       13PX        -2.44976   0.00000   0.00000   0.00000   0.00000
  70       13PY         0.00000  -3.84553   0.42327   0.83235  -3.65403
  71       13PZ         0.00000  -0.92764   2.87866  -0.91127  -2.15755
  72       14D 0        0.00000  -0.00092  -0.00060   0.00117  -0.00096
  73       14D+1        0.00233   0.00000   0.00000   0.00000   0.00000
  74       14D-1        0.00000   0.00087  -0.00021  -0.00129   0.00114
  75       14D+2        0.00000  -0.00343  -0.00107   0.00223   0.00021
  76       14D-2        0.00099   0.00000   0.00000   0.00000   0.00000
  77       15D 0        0.00000   0.01493   0.00433  -0.01447   0.01311
  78       15D+1       -0.02809   0.00000   0.00000   0.00000   0.00000
  79       15D-1        0.00000   0.00212  -0.01489   0.00890  -0.01746
  80       15D+2        0.00000   0.03629   0.02443  -0.02364  -0.00143
  81       15D-2       -0.02133   0.00000   0.00000   0.00000   0.00000
  82       16D 0        0.00000  -0.09735  -0.00299   0.08786  -0.07324
  83       16D+1        0.11214   0.00000   0.00000   0.00000   0.00000
  84       16D-1        0.00000  -0.03207   0.29972  -0.04947   0.16962
  85       16D+2        0.00000  -0.19202  -0.27039   0.14312  -0.05738
  86       16D-2        0.10064   0.00000   0.00000   0.00000   0.00000
  87       17D 0        0.00000   0.16414   0.16421   0.32656   0.04440
  88       17D+1       -0.22117   0.00000   0.00000   0.00000   0.00000
  89       17D-1        0.00000  -1.41609   1.11242   0.29502  -0.74441
  90       17D+2        0.00000   1.76553  -0.52666   0.24696   0.34729
  91       17D-2       -0.02785   0.00000   0.00000   0.00000   0.00000
  92       18F 0        0.00000   0.00560   0.01906  -0.01484  -0.00455
  93       18F+1       -0.00926   0.00000   0.00000   0.00000   0.00000
  94       18F-1        0.00000   0.02746  -0.02455   0.00097   0.00667
  95       18F+2        0.00000  -0.04152   0.01334  -0.01485  -0.00819
  96       18F-2       -0.01324   0.00000   0.00000   0.00000   0.00000
  97       18F+3        0.04990   0.00000   0.00000   0.00000   0.00000
  98       18F-3        0.00000  -0.03951   0.01459  -0.01955  -0.01195
  99       19F 0        0.00000   0.02040  -0.10586   0.03083  -0.00947
 100       19F+1        0.00586   0.00000   0.00000   0.00000   0.00000
 101       19F-1        0.00000  -0.10808   0.13250   0.02664  -0.02808
 102       19F+2        0.00000   0.17690  -0.16470   0.05222   0.01672
 103       19F-2        0.02106   0.00000   0.00000   0.00000   0.00000
 104       19F+3       -0.11100   0.00000   0.00000   0.00000   0.00000
 105       19F-3        0.00000   0.16905  -0.10771   0.09842   0.02267
 106 3   Br 1S          0.00000  -0.00211   0.00010   0.00001   0.00012
 107        2S          0.00000  -0.01621   0.00382  -0.00101   0.00089
 108        3S          0.00000  -0.07555   0.01042  -0.00209   0.00420
 109        4S          0.00000  -0.22219   0.06139  -0.01204   0.01333
 110        5S          0.00000  -0.08676   0.15762  -0.00137  -0.00123
 111        6S          0.00000   0.64846  -2.00381   0.80611   0.04192
 112        7S          0.00000   9.79022 -15.02487   2.05171 -13.68546
 113        8PX         0.00161   0.00000   0.00000   0.00000   0.00000
 114        8PY         0.00000   0.00101   0.00060  -0.00067   0.00038
 115        8PZ         0.00000  -0.00060   0.00001   0.00044   0.00007
 116        9PX        -0.01999   0.00000   0.00000   0.00000   0.00000
 117        9PY         0.00000   0.01694   0.00374   0.00914  -0.02576
 118        9PZ         0.00000  -0.00165  -0.01349  -0.00995   0.01487
 119       10PX        -0.15322   0.00000   0.00000   0.00000   0.00000
 120       10PY         0.00000   0.25193   0.07528   0.07321  -0.28329
 121       10PZ         0.00000  -0.05335  -0.15666  -0.09405   0.17814
 122       11PX         0.04473   0.00000   0.00000   0.00000   0.00000
 123       11PY         0.00000   0.00143  -0.00413  -0.01968   0.03501
 124       11PZ         0.00000  -0.01553   0.02368   0.01492  -0.01557
 125       12PX         0.66793   0.00000   0.00000   0.00000   0.00000
 126       12PY         0.00000  -3.62992   3.77060   0.39259   1.69998
 127       12PZ         0.00000   2.28423  -2.60703   1.57408  -1.32962
 128       13PX        -2.45993   0.00000   0.00000   0.00000   0.00000
 129       13PY         0.00000  -3.82090   0.38274  -0.84290   3.66781
 130       13PZ         0.00000   0.91154  -2.85325  -0.93691  -2.20948
 131       14D 0        0.00000   0.00090   0.00059   0.00117  -0.00095
 132       14D+1        0.00232   0.00000   0.00000   0.00000   0.00000
 133       14D-1        0.00000   0.00088  -0.00017   0.00131  -0.00111
 134       14D+2        0.00000   0.00346   0.00106   0.00225   0.00025
 135       14D-2       -0.00097   0.00000   0.00000   0.00000   0.00000
 136       15D 0        0.00000  -0.01489  -0.00397  -0.01445   0.01299
 137       15D+1       -0.02808   0.00000   0.00000   0.00000   0.00000
 138       15D-1        0.00000   0.00165  -0.01535  -0.00933   0.01683
 139       15D+2        0.00000  -0.03718  -0.02420  -0.02397  -0.00209
 140       15D-2        0.02124   0.00000   0.00000   0.00000   0.00000
 141       16D 0        0.00000   0.09802   0.00023   0.08898  -0.07350
 142       16D+1        0.11163   0.00000   0.00000   0.00000   0.00000
 143       16D-1        0.00000  -0.01962   0.30769   0.05474  -0.16774
 144       16D+2        0.00000   0.20374   0.27247   0.14856  -0.05542
 145       16D-2       -0.09944   0.00000   0.00000   0.00000   0.00000
 146       17D 0        0.00000  -0.18039  -0.17248   0.33053   0.03581
 147       17D+1       -0.21748   0.00000   0.00000   0.00000   0.00000
 148       17D-1        0.00000  -1.39674   1.11778  -0.28385   0.75628
 149       17D+2        0.00000  -1.76682   0.52385   0.25408   0.35088
 150       17D-2        0.02240   0.00000   0.00000   0.00000   0.00000
 151       18F 0        0.00000  -0.00477  -0.01871  -0.01487  -0.00457
 152       18F+1       -0.00944   0.00000   0.00000   0.00000   0.00000
 153       18F-1        0.00000   0.02764  -0.02496  -0.00159  -0.00699
 154       18F+2        0.00000   0.04176  -0.01312  -0.01476  -0.00890
 155       18F-2        0.01338   0.00000   0.00000   0.00000   0.00000
 156       18F+3        0.04984   0.00000   0.00000   0.00000   0.00000
 157       18F-3        0.00000  -0.03929   0.01433   0.01915   0.01273
 158       19F 0        0.00000  -0.02057   0.10528   0.03204  -0.00965
 159       19F+1        0.00642   0.00000   0.00000   0.00000   0.00000
 160       19F-1        0.00000  -0.10645   0.13513  -0.02495   0.03006
 161       19F+2        0.00000  -0.17438   0.16498   0.05409   0.01919
 162       19F-2       -0.02141   0.00000   0.00000   0.00000   0.00000
 163       19F+3       -0.11077   0.00000   0.00000   0.00000   0.00000
 164       19F-3        0.00000   0.16755  -0.10683  -0.09900  -0.02470
 165 4   O  1S          0.00000  -0.00110  -0.00027   0.09923   0.02985
 166        2S          0.00000  -0.00502  -0.00157   0.52211   0.15597
 167        3S          0.00000   0.00073  -0.00014   0.00506  -0.00611
 168        4S          0.00000   0.02831   0.00872  -6.19827   0.01102
 169        5S          0.00000   0.01381   0.06754 -15.13374  -8.08206
 170        6PX         0.01946   0.00000   0.00000   0.00000   0.00000
 171        6PY         0.00000   0.01527   0.00264   0.00012  -0.00003
 172        6PZ         0.00000   0.00045  -0.00007  -0.00528   0.01155
 173        7PX        -0.03516   0.00000   0.00000   0.00000   0.00000
 174        7PY         0.00000  -0.07962   0.03732  -0.00045   0.00033
 175        7PZ         0.00000  -0.00288   0.00078   0.14151  -0.13525
 176        8PX         0.80588   0.00000   0.00000   0.00000   0.00000
 177        8PY         0.00000   1.01589   0.12212   0.00708  -0.00185
 178        8PZ         0.00000  -0.00586  -0.00779   3.75867   0.67413
 179        9PX        -3.48240   0.00000   0.00000   0.00000   0.00000
 180        9PY         0.00000  -0.79646  -3.68549  -0.00772  -0.02211
 181        9PZ         0.00000  -0.01699   0.00394   0.26400   1.67911
 182       10D 0        0.00000   0.00034  -0.00029   0.05478   0.01259
 183       10D+1        0.03605   0.00000   0.00000   0.00000   0.00000
 184       10D-1        0.00000   0.00151   0.03693   0.00002  -0.00002
 185       10D+2        0.00000   0.00043   0.00013  -0.02705  -0.01079
 186       10D-2        0.00012   0.00000   0.00000   0.00000   0.00000
 187       11D 0        0.00000   0.00066   0.00131  -0.40251  -0.02901
 188       11D+1       -0.24021   0.00000   0.00000   0.00000   0.00000
 189       11D-1        0.00000  -0.03604  -0.20714  -0.00076  -0.00004
 190       11D+2        0.00000  -0.00166  -0.00029   0.07738   0.03438
 191       11D-2       -0.00034   0.00000   0.00000   0.00000   0.00000
 192       12D 0        0.00000   0.00517   0.00063  -0.49538  -0.18855
 193       12D+1       -0.09670   0.00000   0.00000   0.00000   0.00000
 194       12D-1        0.00000  -0.30693   0.15797  -0.00304   0.00068
 195       12D+2        0.00000   0.00688   0.00066  -0.37701   0.05499
 196       12D-2        0.00168   0.00000   0.00000   0.00000   0.00000
 197       13F 0        0.00000  -0.00055   0.00019   0.01830  -0.01342
 198       13F+1       -0.00571   0.00000   0.00000   0.00000   0.00000
 199       13F-1        0.00000  -0.01484  -0.00256  -0.00017  -0.00005
 200       13F+2        0.00000   0.00003   0.00000  -0.01324   0.01471
 201       13F-2       -0.00004   0.00000   0.00000   0.00000   0.00000
 202       13F+3        0.01406   0.00000   0.00000   0.00000   0.00000
 203       13F-3        0.00000  -0.00952   0.01617  -0.00001  -0.00002
 204       14F 0        0.00000   0.00006  -0.00114   0.14293   0.06409
 205       14F+1        0.17144   0.00000   0.00000   0.00000   0.00000
 206       14F-1        0.00000   0.07298   0.09637   0.00129   0.00003
 207       14F+2        0.00000  -0.00019  -0.00007   0.05886  -0.03771
 208       14F-2       -0.00010   0.00000   0.00000   0.00000   0.00000
 209       14F+3       -0.02564   0.00000   0.00000   0.00000   0.00000
 210       14F-3        0.00000   0.02437  -0.02819   0.00010   0.00004
          Condensed to atoms (all electrons):
              1          2          3          4
     1  C    5.564946   0.027485   0.021094   0.240595
     2  Br   0.027485  35.048716  -0.120258  -0.056763
     3  Br   0.021094  -0.120258  35.045386  -0.057448
     4  O    0.240595  -0.056763  -0.057448   8.231540
 Mulliken atomic charges:
              1
     1  C    0.145880
     2  Br   0.100819
     3  Br   0.111226
     4  O   -0.357925
 Sum of Mulliken atomic charges =   0.00000
 Mulliken charges with hydrogens summed into heavy atoms:
              1
     1  C    0.145880
     2  Br   0.100819
     3  Br   0.111226
     4  O   -0.357925
 Sum of Mulliken charges with hydrogens summed into heavy atoms =   0.00000
 Electronic spatial extent (au):  <R**2>=           1351.6165
 Charge=              0.0000 electrons
 Dipole moment (field-independent basis, Debye):
    X=              0.0000    Y=              0.0368    Z=             -1.2539  Tot=              1.2545
 Quadrupole moment (field-independent basis, Debye-Ang):
   XX=            -46.9469   YY=            -44.9419   ZZ=            -47.4990
   XY=              0.0000   XZ=              0.0000   YZ=             -0.0600
 Traceless Quadrupole moment (field-independent basis, Debye-Ang):
   XX=             -0.4843   YY=              1.5207   ZZ=             -1.0364
   XY=              0.0000   XZ=              0.0000   YZ=             -0.0600
 Octapole moment (field-independent basis, Debye-Ang**2):
  XXX=              0.0000  YYY=              0.6691  ZZZ=            164.7055  XYY=              0.0000
  XXY=              0.2294  XXZ=             56.2865  XZZ=              0.0000  YZZ=              0.3222
  YYZ=             45.7357  XYZ=              0.0000
 Hexadecapole moment (field-independent basis, Debye-Ang**3):
 XXXX=            -53.6502 YYYY=           -567.8619 ZZZZ=           -596.7873 XXXY=              0.0000
 XXXZ=              0.0000 YYYX=              0.0000 YYYZ=             -0.9722 ZZZX=              0.0000
 ZZZY=             -1.2103 XXYY=           -110.7393 XXZZ=           -110.3671 YYZZ=           -174.5356
 XXYZ=             -0.3543 YYXZ=              0.0000 ZZXY=              0.0000
 N-N= 4.502409879964D+02 E-N=-1.347225033169D+04  KE= 5.257244190253D+03
 1\1\GINC-TRAPISTA\SP\RQCISD-FC\Aug-CC-pVTZ\C1Br2O1\BRUNS\28-Nov-2021\0
 \\# qcisd/aug-cc-pvtz nosymm density=current output=wfn\\br2co-wavefun
 ction\\0,1\C,0,0.,0.,-0.491759\Br,0,0.,-1.594181,-1.54682\Br,0,0.,1.58
 4181,-1.54682\O,0,0.,0.,0.6845\\Version=EM64L-G09RevB.01\HF=-5257.6845
 492\MP2=-5258.5486306\MP3=-5258.5484658\MP4D=-5258.5696435\MP4DQ=-5258
 .5481943\MP4SDQ=-5258.5601395\QCISD=-5258.557746\RMSD=9.200e-09\Dipole
 =0.,0.0144827,-0.4933409\Quadrupole=-0.3600921,1.130617,-0.7705249,0.,
 0.,-0.0446002\PG=CS [SG(C1Br2O1)]\\@

 Writing a WFN file to GAUSSIAN.wfn.


 I take a simple view of life: keep your eyes open and get on with it.
 -- Laurence Olivier
 Job cpu time:  0 days  5 hours 42 minutes 49.2 seconds.
 File lengths (MBytes):  RWF=  23799 Int=      0 D2E=      0 Chk=      4 Scr=      1
 Normal termination of Gaussian 09 at Sun Nov 28 17:13:51 2021.
