 Entering Gaussian System, Link 0=/home/bruns/programas/chemistry/gaussian/g09/g09
 Input=GAUSSIAN.com
 Output=GAUSSIAN.log
 Initial command:
 /home/bruns/programas/chemistry/gaussian/g09/l1.exe /home/bruns/programas/chemistry/gaussian/work/Gau-72405.inp -scrdir=/home/bruns/programas/chemistry/gaussian/work/
 Entering Link 1 = /home/bruns/programas/chemistry/gaussian/g09/l1.exe PID=     72407.
  
 Copyright (c) 1988,1990,1992,1993,1995,1998,2003,2009,2010,
            Gaussian, Inc.  All Rights Reserved.
  
 This is part of the Gaussian(R) 09 program.  It is based on
 the Gaussian(R) 03 system (copyright 2003, Gaussian, Inc.),
 the Gaussian(R) 98 system (copyright 1998, Gaussian, Inc.),
 the Gaussian(R) 94 system (copyright 1995, Gaussian, Inc.),
 the Gaussian 92(TM) system (copyright 1992, Gaussian, Inc.),
 the Gaussian 90(TM) system (copyright 1990, Gaussian, Inc.),
 the Gaussian 88(TM) system (copyright 1988, Gaussian, Inc.),
 the Gaussian 86(TM) system (copyright 1986, Carnegie Mellon
 University), and the Gaussian 82(TM) system (copyright 1983,
 Carnegie Mellon University). Gaussian is a federally registered
 trademark of Gaussian, Inc.
  
 This software contains proprietary and confidential information,
 including trade secrets, belonging to Gaussian, Inc.
  
 This software is provided under written license and may be
 used, copied, transmitted, or stored only in accord with that
 written license.
  
 The following legend is applicable only to US Government
 contracts under FAR:
  
                    RESTRICTED RIGHTS LEGEND
  
 Use, reproduction and disclosure by the US Government is
 subject to restrictions as set forth in subparagraphs (a)
 and (c) of the Commercial Computer Software - Restricted
 Rights clause in FAR 52.227-19.
  
 Gaussian, Inc.
 340 Quinnipiac St., Bldg. 40, Wallingford CT 06492
  
  
 ---------------------------------------------------------------
 Warning -- This program may not be used in any manner that
 competes with the business of Gaussian, Inc. or will provide
 assistance to any competitor of Gaussian, Inc.  The licensee
 of this program is prohibited from giving any competitor of
 Gaussian, Inc. access to this program.  By using this program,
 the user acknowledges that Gaussian, Inc. is engaged in the
 business of creating and licensing software in the field of
 computational chemistry and represents and warrants to the
 licensee that it is not a competitor of Gaussian, Inc. and that
 it will not use this program in any manner prohibited above.
 ---------------------------------------------------------------
  

 Cite this work as:
 Gaussian 09, Revision B.01,
 M. J. Frisch, G. W. Trucks, H. B. Schlegel, G. E. Scuseria, 
 M. A. Robb, J. R. Cheeseman, G. Scalmani, V. Barone, B. Mennucci, 
 G. A. Petersson, H. Nakatsuji, M. Caricato, X. Li, H. P. Hratchian, 
 A. F. Izmaylov, J. Bloino, G. Zheng, J. L. Sonnenberg, M. Hada, 
 M. Ehara, K. Toyota, R. Fukuda, J. Hasegawa, M. Ishida, T. Nakajima, 
 Y. Honda, O. Kitao, H. Nakai, T. Vreven, J. A. Montgomery, Jr., 
 J. E. Peralta, F. Ogliaro, M. Bearpark, J. J. Heyd, E. Brothers, 
 K. N. Kudin, V. N. Staroverov, T. Keith, R. Kobayashi, J. Normand, 
 K. Raghavachari, A. Rendell, J. C. Burant, S. S. Iyengar, J. Tomasi, 
 M. Cossi, N. Rega, J. M. Millam, M. Klene, J. E. Knox, J. B. Cross, 
 V. Bakken, C. Adamo, J. Jaramillo, R. Gomperts, R. E. Stratmann, 
 O. Yazyev, A. J. Austin, R. Cammi, C. Pomelli, J. W. Ochterski, 
 R. L. Martin, K. Morokuma, V. G. Zakrzewski, G. A. Voth, 
 P. Salvador, J. J. Dannenberg, S. Dapprich, A. D. Daniels, 
 O. Farkas, J. B. Foresman, J. V. Ortiz, J. Cioslowski, 
 and D. J. Fox, Gaussian, Inc., Wallingford CT, 2010.
 
 ******************************************
 Gaussian 09:  EM64L-G09RevB.01 12-Aug-2010
                28-Nov-2021 
 ******************************************
 %nproc=8
 Will use up to    8 processors via shared memory.
 %mem=8GB
 -----------------------------------------------------
 # qcisd/aug-cc-pvtz nosymm density=current output=wfn
 -----------------------------------------------------
 1/30=1,38=1/1;
 2/12=2,15=1,17=6,18=5,40=1/2;
 3/5=16,6=1,7=10,11=9,16=1,25=1,30=1,71=1/1,2,3;
 4//1;
 5/5=2,38=5/2;
 8/6=4,9=120000,10=1/1,4;
 9/5=8,15=1/13;
 11/28=-7,31=1,32=3,42=3/11;
 10/5=6,13=10,31=1/2;
 6/7=2,8=2,9=2,10=2,22=-1,31=1/1;
 99/5=1,6=1100,9=1/99;
 ------------------
 br2co-wavefunction
 ------------------
 Symbolic Z-matrix:
 Charge =  0 Multiplicity = 1
 C                     0.        0.       -0.49176 
 Br                    0.01     -1.59418  -1.54682 
 Br                    0.        1.59418  -1.54682 
 O                     0.        0.        0.6845 
 
                          Input orientation:                          
 ---------------------------------------------------------------------
 Center     Atomic      Atomic             Coordinates (Angstroms)
 Number     Number       Type             X           Y           Z
 ---------------------------------------------------------------------
      1          6           0        0.000000    0.000000   -0.491759
      2         35           0        0.010000   -1.594181   -1.546820
      3         35           0        0.000000    1.594181   -1.546820
      4          8           0        0.000000    0.000000    0.684500
 ---------------------------------------------------------------------
                    Distance matrix (angstroms):
                    1          2          3          4
     1  C    0.000000
     2  Br   1.911718   0.000000
     3  Br   1.911692   3.188378   0.000000
     4  O    1.176259   2.742317   2.742299   0.000000
 Symmetry turned off by external request.
 Stoichiometry    CBr2O
 Framework group  C1[X(CBr2O)]
 Deg. of freedom     6
 Full point group                 C1      NOp   1
 Rotational constants (GHZ):      6.2847384      1.2598814      1.0494932
 Standard basis: Aug-CC-pVTZ (5D, 7F)
 Integral buffers will be    131072 words long.
 Raffenetti 1 integral format.
 Two-electron integral symmetry is turned off.
   210 basis functions,   578 primitive gaussians,   248 cartesian basis functions
    42 alpha electrons       42 beta electrons
       nuclear repulsion energy       449.2301663892 Hartrees.
 NAtoms=    4 NActive=    4 NUniq=    4 SFac= 1.00D+00 NAtFMM=   50 NAOKFM=F Big=F
 One-electron integrals computed using PRISM.
 NBasis=   210 RedAO= T  NBF=   210
 NBsUse=   210 1.00D-06 NBFU=   210
 Harris functional with IExCor=  205 diagonalized for initial guess.
 ExpMin= 3.51D-02 ExpMax= 1.06D+07 ExpMxC= 1.21D+04 IAcc=3 IRadAn=         0 AccDes= 0.00D+00
 HarFok:  IExCor=  205 AccDes= 0.00D+00 IRadAn=         0 IDoV= 1
 ScaDFX=  1.000000  1.000000  1.000000  1.000000
 FoFCou: FMM=F IPFlag=           0 FMFlag=      100000 FMFlg1=           0
         NFxFlg=           0 DoJE=T BraDBF=F KetDBF=T FulRan=T
         Omega=  0.000000  0.000000  1.000000  0.000000  0.000000 ICntrl=     500 IOpCl=  0
         NMat0=    1 NMatS0=    1 NMatT0=    0 NMatD0=    1 NMtDS0=    0 NMtDT0=    0
         I1Cent=           4 NGrid=           0.
 Symmetry not used in FoFCou.
 Requested convergence on RMS density matrix=1.00D-08 within 128 cycles.
 Requested convergence on MAX density matrix=1.00D-06.
 Requested convergence on             energy=1.00D-06.
 No special actions if energy rises.
 Keep R1 ints in memory in canonical form, NReq=484604278.
 SCF Done:  E(RHF) =  -5257.68454768     A.U. after   12 cycles
             Convg  =    0.9214D-08             -V/T =  2.0000
 ExpMin= 3.51D-02 ExpMax= 1.06D+07 ExpMxC= 1.21D+04 IAcc=3 IRadAn=         5 AccDes= 0.00D+00
 HarFok:  IExCor=  205 AccDes= 0.00D+00 IRadAn=         5 IDoV=-2
 ScaDFX=  1.000000  1.000000  1.000000  1.000000
 DSYEVD returned Info=          93 IAlg= 4 N=    46 NDim=    46 NE2=    18196533 trying DSYEV.
 Range of M.O.s used for correlation:    21   210
 NBasis=   210 NAE=    42 NBE=    42 NFC=    20 NFV=     0
 NROrb=    190 NOA=    22 NOB=    22 NVA=   168 NVB=   168

 **** Warning!!: The largest alpha MO coefficient is  0.28108431D+02

 Semi-Direct transformation.
 ModeAB=           2 MOrb=            22 LenV=    1072497277
 LASXX=     69628944 LTotXX=    69628944 LenRXX=    69628944
 LTotAB=    70719517 MaxLAS=   129061680 LenRXY=   129061680
 NonZer=   139257888 LenScr=   209707008 LnRSAI=           0
 LnScr1=           0 LExtra=           0 Total=    408397632
 MaxDsk=          -1 SrtSym=           F ITran=            4
 JobTyp=0 Pass  1:  I=   1 to  22.
 (rs|ai) integrals will be sorted in core.
 Spin components of T(2) and E(2):
     alpha-alpha T2 =       0.3832204037D-01 E2=     -0.1232778407D+00
     alpha-beta  T2 =       0.1924931253D+00 E2=     -0.6175056630D+00
     beta-beta   T2 =       0.3832204037D-01 E2=     -0.1232778407D+00
 ANorm=    0.1126559899D+01
 E2 =    -0.8640613443D+00 EUMP2 =    -0.52585486090240D+04
 R2 and R3 integrals will be kept in memory, NReq=   961077252.
 Iterations=  50 Convergence= 0.100D-07
 Iteration Nr.   1
 **********************
 DD1Dir will call FoFMem   1 times, MxPair=       506
 NAB=   253 NAA=     0 NBB=     0.
 MP4(R+Q)=  0.21479242D-01
 E3=        0.13939893D-03        EUMP3=      -0.52585484696D+04
 E4(DQ)=    0.26938495D-03        UMP4(DQ)=   -0.52585482002D+04
 E4(SDQ)=  -0.11697459D-01        UMP4(SDQ)=  -0.52585601671D+04
 DE(Corr)= -0.84244270     E(Corr)=     -5258.5269904    
 NORM(A)=   0.11248485D+01
 Iteration Nr.   2
 **********************
 DD1Dir will call FoFMem   1 times, MxPair=       506
 NAB=   253 NAA=     0 NBB=     0.
 DE(Corr)= -0.87233870     E(CORR)=     -5258.5568864     Delta=-2.99D-02
 NORM(A)=   0.11352481D+01
 Iteration Nr.   3
 **********************
 DD1Dir will call FoFMem   1 times, MxPair=       506
 NAB=   253 NAA=     0 NBB=     0.
 DE(Corr)= -0.87023467     E(CORR)=     -5258.5547824     Delta= 2.10D-03
 NORM(A)=   0.11380101D+01
 Iteration Nr.   4
 **********************
 DD1Dir will call FoFMem   1 times, MxPair=       506
 NAB=   253 NAA=     0 NBB=     0.
 DE(Corr)= -0.87276502     E(CORR)=     -5258.5573127     Delta=-2.53D-03
 NORM(A)=   0.11393228D+01
 Iteration Nr.   5
 **********************
 DD1Dir will call FoFMem   1 times, MxPair=       506
 NAB=   253 NAA=     0 NBB=     0.
 DE(Corr)= -0.87313945     E(CORR)=     -5258.5576871     Delta=-3.74D-04
 NORM(A)=   0.11398377D+01
 Iteration Nr.   6
 **********************
 DD1Dir will call FoFMem   1 times, MxPair=       506
 NAB=   253 NAA=     0 NBB=     0.
 DE(Corr)= -0.87320372     E(CORR)=     -5258.5577514     Delta=-6.43D-05
 NORM(A)=   0.11399417D+01
 Iteration Nr.   7
 **********************
 DD1Dir will call FoFMem   1 times, MxPair=       506
 NAB=   253 NAA=     0 NBB=     0.
 DE(Corr)= -0.87321802     E(CORR)=     -5258.5577657     Delta=-1.43D-05
 NORM(A)=   0.11399505D+01
 Iteration Nr.   8
 **********************
 DD1Dir will call FoFMem   1 times, MxPair=       506
 NAB=   253 NAA=     0 NBB=     0.
 DE(Corr)= -0.87321836     E(CORR)=     -5258.5577660     Delta=-3.34D-07
 NORM(A)=   0.11399656D+01
 Iteration Nr.   9
 **********************
 DD1Dir will call FoFMem   1 times, MxPair=       506
 NAB=   253 NAA=     0 NBB=     0.
 DE(Corr)= -0.87321643     E(CORR)=     -5258.5577641     Delta= 1.92D-06
 NORM(A)=   0.11399655D+01
 Iteration Nr.  10
 **********************
 DD1Dir will call FoFMem   1 times, MxPair=       506
 NAB=   253 NAA=     0 NBB=     0.
 DE(Corr)= -0.87321784     E(CORR)=     -5258.5577655     Delta=-1.41D-06
 NORM(A)=   0.11399682D+01
 Iteration Nr.  11
 **********************
 DD1Dir will call FoFMem   1 times, MxPair=       506
 NAB=   253 NAA=     0 NBB=     0.
 DE(Corr)= -0.87321897     E(CORR)=     -5258.5577667     Delta=-1.13D-06
 NORM(A)=   0.11399700D+01
 Iteration Nr.  12
 **********************
 DD1Dir will call FoFMem   1 times, MxPair=       506
 NAB=   253 NAA=     0 NBB=     0.
 DE(Corr)= -0.87321929     E(CORR)=     -5258.5577670     Delta=-3.16D-07
 NORM(A)=   0.11399711D+01
 Iteration Nr.  13
 **********************
 DD1Dir will call FoFMem   1 times, MxPair=       506
 NAB=   253 NAA=     0 NBB=     0.
 DE(Corr)= -0.87321976     E(CORR)=     -5258.5577674     Delta=-4.67D-07
 NORM(A)=   0.11399718D+01
 Iteration Nr.  14
 **********************
 DD1Dir will call FoFMem   1 times, MxPair=       506
 NAB=   253 NAA=     0 NBB=     0.
 DE(Corr)= -0.87321987     E(CORR)=     -5258.5577675     Delta=-1.09D-07
 NORM(A)=   0.11399721D+01
 Iteration Nr.  15
 **********************
 DD1Dir will call FoFMem   1 times, MxPair=       506
 NAB=   253 NAA=     0 NBB=     0.
 DE(Corr)= -0.87321994     E(CORR)=     -5258.5577676     Delta=-7.00D-08
 NORM(A)=   0.11399722D+01
 Iteration Nr.  16
 **********************
 DD1Dir will call FoFMem   1 times, MxPair=       506
 NAB=   253 NAA=     0 NBB=     0.
 DE(Corr)= -0.87321996     E(CORR)=     -5258.5577676     Delta=-2.77D-08
 NORM(A)=   0.11399723D+01
 Iteration Nr.  17
 **********************
 DD1Dir will call FoFMem   1 times, MxPair=       506
 NAB=   253 NAA=     0 NBB=     0.
 DE(Corr)= -0.87321997     E(CORR)=     -5258.5577676     Delta=-1.27D-09
 NORM(A)=   0.11399723D+01
 Iteration Nr.  18
 **********************
 DD1Dir will call FoFMem   1 times, MxPair=       506
 NAB=   253 NAA=     0 NBB=     0.
 DE(Corr)= -0.87321997     E(CORR)=     -5258.5577676     Delta=-2.41D-09
 NORM(A)=   0.11399721D+01
 Iteration Nr.  19
 **********************
 DD1Dir will call FoFMem   1 times, MxPair=       506
 NAB=   253 NAA=     0 NBB=     0.
 DE(Corr)= -0.87321994     E(CORR)=     -5258.5577676     Delta= 2.45D-08
 NORM(A)=   0.11399726D+01
 Iteration Nr.  20
 **********************
 DD1Dir will call FoFMem   1 times, MxPair=       506
 NAB=   253 NAA=     0 NBB=     0.
 DE(Corr)= -0.87322002     E(CORR)=     -5258.5577677     Delta=-7.27D-08
 NORM(A)=   0.11399724D+01
 Iteration Nr.  21
 **********************
 DD1Dir will call FoFMem   1 times, MxPair=       506
 NAB=   253 NAA=     0 NBB=     0.
 DE(Corr)= -0.87321998     E(CORR)=     -5258.5577677     Delta= 3.86D-08
 NORM(A)=   0.11399723D+01
 Iteration Nr.  22
 **********************
 DD1Dir will call FoFMem   1 times, MxPair=       506
 NAB=   253 NAA=     0 NBB=     0.
 DE(Corr)= -0.87321997     E(CORR)=     -5258.5577677     Delta= 4.47D-09
 NORM(A)=   0.11399723D+01
 Largest amplitude= 4.23D-02

 Z-AMPLITUDE ITERATIONS

 Iteration Nr.   1
 **********************
 DD1Dir will call FoFMem   1 times, MxPair=       506
 NAB=   253 NAA=     0 NBB=     0.
 DE(Z)  -0.84604542D+00          E(Z)=    -0.52585305931D+04
 NORM(A)=   0.11399574D+01
 Iteration Nr.   2
 **********************
 DD1Dir will call FoFMem   1 times, MxPair=       506
 NAB=   253 NAA=     0 NBB=     0.
 DE(Z)  -0.84604539D+00          E(Z)=    -0.52585305931D+04
 NORM(A)=   0.11399633D+01
 Iteration Nr.   3
 **********************
 DD1Dir will call FoFMem   1 times, MxPair=       506
 NAB=   253 NAA=     0 NBB=     0.
 DE(Z)  -0.84604541D+00          E(Z)=    -0.52585305931D+04
 NORM(A)=   0.11399770D+01
 Iteration Nr.   4
 **********************
 DD1Dir will call FoFMem   1 times, MxPair=       506
 NAB=   253 NAA=     0 NBB=     0.
 DE(Z)  -0.84604542D+00          E(Z)=    -0.52585305931D+04
 NORM(A)=   0.11400254D+01
 Iteration Nr.   5
 **********************
 DD1Dir will call FoFMem   1 times, MxPair=       506
 NAB=   253 NAA=     0 NBB=     0.
 DE(Z)  -0.84604561D+00          E(Z)=    -0.52585305933D+04
 NORM(A)=   0.11301138D+01
 Iteration Nr.   6
 **********************
 DD1Dir will call FoFMem   1 times, MxPair=       506
 NAB=   253 NAA=     0 NBB=     0.
 DE(Z)  -0.84600711D+00          E(Z)=    -0.52585305548D+04
 NORM(A)=   0.11301187D+01
 Iteration Nr.   7
 **********************
 DD1Dir will call FoFMem   1 times, MxPair=       506
 NAB=   253 NAA=     0 NBB=     0.
 DE(Z)  -0.84601359D+00          E(Z)=    -0.52585305613D+04
 NORM(A)=   0.11301197D+01
 Iteration Nr.   8
 **********************
 DD1Dir will call FoFMem   1 times, MxPair=       506
 NAB=   253 NAA=     0 NBB=     0.
 DE(Z)  -0.84601257D+00          E(Z)=    -0.52585305603D+04
 NORM(A)=   0.11301201D+01
 Iteration Nr.   9
 **********************
 DD1Dir will call FoFMem   1 times, MxPair=       506
 NAB=   253 NAA=     0 NBB=     0.
 DE(Z)  -0.84601376D+00          E(Z)=    -0.52585305614D+04
 NORM(A)=   0.11301198D+01
 Iteration Nr.  10
 **********************
 DD1Dir will call FoFMem   1 times, MxPair=       506
 NAB=   253 NAA=     0 NBB=     0.
 DE(Z)  -0.84601327D+00          E(Z)=    -0.52585305610D+04
 NORM(A)=   0.11301198D+01
 Iteration Nr.  11
 **********************
 DD1Dir will call FoFMem   1 times, MxPair=       506
 NAB=   253 NAA=     0 NBB=     0.
 DE(Z)  -0.84601326D+00          E(Z)=    -0.52585305609D+04
 NORM(A)=   0.11301198D+01
 Iteration Nr.  12
 **********************
 DD1Dir will call FoFMem   1 times, MxPair=       506
 NAB=   253 NAA=     0 NBB=     0.
 DE(Z)  -0.84601326D+00          E(Z)=    -0.52585305609D+04
 NORM(A)=   0.11301199D+01
 Iteration Nr.  13
 **********************
 DD1Dir will call FoFMem   1 times, MxPair=       506
 NAB=   253 NAA=     0 NBB=     0.
 DE(Z)  -0.84601327D+00          E(Z)=    -0.52585305609D+04
 NORM(A)=   0.11301199D+01
 Iteration Nr.  14
 **********************
 DD1Dir will call FoFMem   1 times, MxPair=       506
 NAB=   253 NAA=     0 NBB=     0.
 DE(Z)  -0.84601327D+00          E(Z)=    -0.52585305609D+04
 NORM(A)=   0.11301199D+01
 Iteration Nr.  15
 **********************
 DD1Dir will call FoFMem   1 times, MxPair=       506
 NAB=   253 NAA=     0 NBB=     0.
 DE(Z)  -0.84601327D+00          E(Z)=    -0.52585305609D+04
 NORM(A)=   0.11301199D+01
 Iteration Nr.  16
 **********************
 DD1Dir will call FoFMem   1 times, MxPair=       506
 NAB=   253 NAA=     0 NBB=     0.
 DE(Z)  -0.84601327D+00          E(Z)=    -0.52585305609D+04
 NORM(A)=   0.11301199D+01
 Iteration Nr.  17
 **********************
 DD1Dir will call FoFMem   1 times, MxPair=       506
 NAB=   253 NAA=     0 NBB=     0.
 DE(Z)  -0.84601326D+00          E(Z)=    -0.52585305609D+04
 NORM(A)=   0.11301199D+01
 Iteration Nr.  18
 **********************
 DD1Dir will call FoFMem   1 times, MxPair=       506
 NAB=   253 NAA=     0 NBB=     0.
 DE(Z)  -0.84601327D+00          E(Z)=    -0.52585305609D+04
 NORM(A)=   0.11301199D+01
 Iteration Nr.  19
 **********************
 DD1Dir will call FoFMem   1 times, MxPair=       506
 NAB=   253 NAA=     0 NBB=     0.
 DE(Z)  -0.84601327D+00          E(Z)=    -0.52585305609D+04
 NORM(A)=   0.11301199D+01
 Iteration Nr.  20
 **********************
 DD1Dir will call FoFMem   1 times, MxPair=       506
 NAB=   253 NAA=     0 NBB=     0.
 DE(Z)  -0.84601327D+00          E(Z)=    -0.52585305609D+04
 NORM(A)=   0.11301199D+01
 Iteration Nr.  21
 **********************
 DD1Dir will call FoFMem   1 times, MxPair=       506
 NAB=   253 NAA=     0 NBB=     0.
 DE(Z)  -0.84601327D+00          E(Z)=    -0.52585305609D+04
 NORM(A)=   0.11301199D+01
 Iteration Nr.  22
 **********************
 DD1Dir will call FoFMem   1 times, MxPair=       506
 NAB=   253 NAA=     0 NBB=     0.
 DE(Z)  -0.84601327D+00          E(Z)=    -0.52585305609D+04
 NORM(A)=   0.11301199D+01
 Iteration Nr.  23
 **********************
 DD1Dir will call FoFMem   1 times, MxPair=       506
 NAB=   253 NAA=     0 NBB=     0.
 DE(Z)  -0.84601327D+00          E(Z)=    -0.52585305610D+04
 NORM(A)=   0.11301199D+01
 Discarding MO integrals.
          Differentiating once with respect to electric field.
                with respect to dipole field.
          Electric field/nuclear overlap derivatives assumed to be zero.
          Keep R1 ints in memory in canonical form, NReq=478620341.
          There are     1 degrees of freedom in the 1st order CPHF.  IDoFFX=0.
 LinEq1:  Iter=  0 NonCon=     1 RMS=1.95D-03 Max=5.61D-02
 AX will form     1 AO Fock derivatives at one time.
 LinEq1:  Iter=  1 NonCon=     1 RMS=7.40D-04 Max=2.61D-02
 LinEq1:  Iter=  2 NonCon=     1 RMS=3.09D-04 Max=9.34D-03
 LinEq1:  Iter=  3 NonCon=     1 RMS=1.03D-04 Max=2.97D-03
 LinEq1:  Iter=  4 NonCon=     1 RMS=5.33D-05 Max=1.64D-03
 LinEq1:  Iter=  5 NonCon=     1 RMS=1.64D-05 Max=4.65D-04
 LinEq1:  Iter=  6 NonCon=     1 RMS=6.29D-06 Max=1.31D-04
 LinEq1:  Iter=  7 NonCon=     1 RMS=1.35D-06 Max=2.12D-05
 LinEq1:  Iter=  8 NonCon=     1 RMS=2.69D-07 Max=4.30D-06
 LinEq1:  Iter=  9 NonCon=     1 RMS=6.50D-08 Max=1.21D-06
 LinEq1:  Iter= 10 NonCon=     1 RMS=1.39D-08 Max=2.08D-07
 LinEq1:  Iter= 11 NonCon=     1 RMS=3.90D-09 Max=9.55D-08
 LinEq1:  Iter= 12 NonCon=     1 RMS=7.18D-10 Max=1.62D-08
 LinEq1:  Iter= 13 NonCon=     1 RMS=1.20D-10 Max=2.63D-09
 LinEq1:  Iter= 14 NonCon=     0 RMS=1.87D-11 Max=4.30D-10
 Linear equations converged to 1.000D-10 1.000D-09 after    14 iterations.
 End of Minotr Frequency-dependent properties file   721 does not exist.
 End of Minotr Frequency-dependent properties file   722 does not exist.

 **********************************************************************

            Population analysis using the QCI/CC density.

 **********************************************************************

     Natural Orbital Coefficients:
                           1         2         3         4         5
     Eigenvalues --     2.00002   2.00002   2.00001   2.00001   2.00001
   1 1   C  1S          0.36877  -0.00025  -0.00003  -0.22664   0.00002
   2        2S         -0.01008   0.00001   0.00000   0.00242   0.00000
   3        3S          0.01427  -0.00001   0.00000  -0.00945   0.00000
   4        4S         -0.01303   0.00001   0.00000   0.00312   0.00000
   5        5S         -0.00452   0.00000   0.00000  -0.00268   0.00000
   6        6PX         0.00000   0.00001   0.00000   0.00000   0.00000
   7        6PY         0.00000  -0.00267  -0.00002   0.00000   0.00022
   8        6PZ         0.00168   0.00000   0.00000   0.00013   0.00000
   9        7PX        -0.00001   0.00001   0.00000   0.00000   0.00000
  10        7PY         0.00000  -0.00460  -0.00025   0.00000   0.00041
  11        7PZ         0.00463   0.00000   0.00000  -0.00083   0.00000
  12        8PX        -0.00002   0.00001   0.00000   0.00000  -0.00002
  13        8PY         0.00000  -0.00445   0.00124   0.00000   0.00550
  14        8PZ         0.00379   0.00000   0.00000  -0.00073   0.00000
  15        9PX         0.00000   0.00000   0.00001   0.00000  -0.00001
  16        9PY         0.00000   0.00073  -0.00166   0.00000   0.00172
  17        9PZ         0.00022   0.00000   0.00000   0.00050   0.00000
  18       10D 0        0.00031   0.00000   0.00000  -0.00019   0.00000
  19       10D+1        0.00000   0.00000   0.00000   0.00000   0.00000
  20       10D-1        0.00000   0.00043   0.00008   0.00000   0.00005
  21       10D+2        0.00012   0.00000   0.00000   0.00016   0.00000
  22       10D-2        0.00000   0.00000   0.00000   0.00000   0.00000
  23       11D 0       -0.00006   0.00000   0.00000   0.00010   0.00000
  24       11D+1        0.00001  -0.00001   0.00000   0.00000   0.00000
  25       11D-1        0.00000   0.00163  -0.00028   0.00000   0.00033
  26       11D+2        0.00172   0.00000   0.00000  -0.00053   0.00000
  27       11D-2        0.00001  -0.00001   0.00000   0.00000   0.00000
  28       12D 0       -0.00041   0.00000   0.00000   0.00015   0.00000
  29       12D+1        0.00001  -0.00001   0.00000   0.00000   0.00000
  30       12D-1        0.00000   0.00263  -0.00133   0.00000  -0.00130
  31       12D+2        0.00098   0.00000   0.00000  -0.00010   0.00000
  32       12D-2        0.00001  -0.00001   0.00000   0.00000   0.00001
  33       13F 0        0.00016   0.00000   0.00000  -0.00015   0.00000
  34       13F+1        0.00000   0.00000   0.00000   0.00000   0.00000
  35       13F-1        0.00000  -0.00001  -0.00006   0.00000   0.00000
  36       13F+2        0.00001   0.00000   0.00000  -0.00003   0.00000
  37       13F-2        0.00000   0.00000   0.00000   0.00000   0.00000
  38       13F+3        0.00000   0.00000   0.00000   0.00000   0.00000
  39       13F-3        0.00000  -0.00008   0.00003   0.00000   0.00004
  40       14F 0       -0.00019   0.00000   0.00000   0.00053   0.00000
  41       14F+1        0.00000   0.00000   0.00000   0.00000   0.00000
  42       14F-1        0.00000   0.00069  -0.00003   0.00000   0.00006
  43       14F+2       -0.00013   0.00000   0.00000   0.00040   0.00000
  44       14F-2        0.00000  -0.00001   0.00000   0.00000   0.00000
  45       14F+3        0.00000   0.00000   0.00000   0.00000   0.00000
  46       14F-3        0.00000   0.00023  -0.00012   0.00000  -0.00028
  47 2   Br 1S         -0.04454   0.03988   0.08340  -0.08072   0.00166
  48        2S          0.16490  -0.14762  -0.31061   0.30066  -0.00626
  49        3S         -0.34746   0.30947   0.66977  -0.64870   0.01356
  50        4S         -0.00111   0.00099   0.00200  -0.00224  -0.00015
  51        5S         -0.01853   0.01655   0.03241  -0.03122   0.00061
  52        6S          0.00358  -0.00267   0.00745  -0.00683   0.00346
  53        7S          0.00219   0.00040  -0.00265   0.00138   0.00308
  54        8PX        -0.00128   0.00149  -0.00065   0.00057  -0.00039
  55        8PY         0.19177  -0.22078   0.09818  -0.08148  -0.13206
  56        8PZ         0.11929  -0.13158   0.05239  -0.07281   0.22750
  57        9PX         0.00333  -0.00388   0.00182  -0.00159   0.00108
  58        9PY        -0.49902   0.57745  -0.27550   0.22806   0.37394
  59        9PZ        -0.31108   0.34363  -0.14641   0.20446  -0.64080
  60       10PX        -0.00001   0.00001   0.00000   0.00001   0.00000
  61       10PY         0.00229  -0.00070   0.00010  -0.00077   0.00123
  62       10PZ         0.00127  -0.00092   0.00018  -0.00028  -0.00099
  63       11PX         0.00016  -0.00018   0.00008  -0.00007   0.00005
  64       11PY        -0.02368   0.02740  -0.01261   0.01036   0.01663
  65       11PZ        -0.01489   0.01638  -0.00666   0.00932  -0.02857
  66       12PX        -0.00001  -0.00001   0.00001   0.00000  -0.00001
  67       12PY         0.00152   0.00120  -0.00136   0.00034   0.00405
  68       12PZ         0.00073   0.00022  -0.00062   0.00061  -0.00188
  69       13PX         0.00000   0.00000   0.00000   0.00000   0.00000
  70       13PY         0.00040  -0.00008  -0.00025   0.00021   0.00021
  71       13PZ         0.00031   0.00001  -0.00032   0.00006   0.00064
  72       14D 0        0.00245  -0.00281   0.00111  -0.00194   0.00790
  73       14D+1        0.00014  -0.00016   0.00003  -0.00003  -0.00003
  74       14D-1       -0.02381   0.02677  -0.00549   0.00471   0.00399
  75       14D+2        0.01438  -0.01636   0.00382  -0.00410   0.00460
  76       14D-2        0.00022  -0.00025   0.00005  -0.00005   0.00003
  77       15D 0        0.00027  -0.00021   0.00006  -0.00014   0.00048
  78       15D+1        0.00001  -0.00002   0.00000   0.00000   0.00000
  79       15D-1       -0.00245   0.00263  -0.00029   0.00028   0.00024
  80       15D+2        0.00162  -0.00165   0.00021  -0.00023   0.00029
  81       15D-2        0.00002  -0.00002   0.00000   0.00000   0.00000
  82       16D 0        0.00004  -0.00021   0.00003  -0.00002   0.00028
  83       16D+1       -0.00001   0.00001   0.00000   0.00000   0.00000
  84       16D-1        0.00110  -0.00064  -0.00012  -0.00027   0.00025
  85       16D+2       -0.00082   0.00038   0.00005   0.00007   0.00011
  86       16D-2       -0.00001   0.00001   0.00000   0.00000   0.00000
  87       17D 0       -0.00005   0.00003  -0.00005  -0.00003  -0.00004
  88       17D+1        0.00000   0.00000   0.00000   0.00000   0.00000
  89       17D-1        0.00052  -0.00035  -0.00003  -0.00004   0.00044
  90       17D+2       -0.00052  -0.00012   0.00021   0.00009  -0.00031
  91       17D-2       -0.00001   0.00000   0.00000   0.00000   0.00000
  92       18F 0        0.00024  -0.00029   0.00008  -0.00006  -0.00004
  93       18F+1        0.00000   0.00000   0.00000   0.00000   0.00000
  94       18F-1       -0.00009   0.00012  -0.00002   0.00003  -0.00034
  95       18F+2        0.00038  -0.00042   0.00010  -0.00009   0.00002
  96       18F-2        0.00000  -0.00001   0.00000   0.00000   0.00000
  97       18F+3        0.00000   0.00000   0.00000   0.00000   0.00000
  98       18F-3        0.00020  -0.00023   0.00003  -0.00004  -0.00014
  99       19F 0       -0.00030   0.00030  -0.00006   0.00014   0.00006
 100       19F+1        0.00000   0.00000   0.00000   0.00000   0.00000
 101       19F-1        0.00023  -0.00029   0.00001  -0.00010   0.00032
 102       19F+2       -0.00063   0.00046  -0.00004   0.00018  -0.00002
 103       19F-2       -0.00001   0.00001   0.00000   0.00000   0.00000
 104       19F+3        0.00001   0.00000   0.00000   0.00000   0.00000
 105       19F-3       -0.00036   0.00017   0.00004   0.00005   0.00017
 106 3   Br 1S         -0.04459  -0.03982  -0.08343  -0.08069  -0.00166
 107        2S          0.16509   0.14739   0.31073   0.30055   0.00627
 108        3S         -0.34785  -0.30898  -0.67002  -0.64847  -0.01358
 109        4S         -0.00111  -0.00098  -0.00200  -0.00224   0.00015
 110        5S         -0.01855  -0.01653  -0.03243  -0.03121  -0.00061
 111        6S          0.00359   0.00267  -0.00746  -0.00683  -0.00346
 112        7S          0.00219  -0.00041   0.00265   0.00138  -0.00308
 113        8PX        -0.00008  -0.00010   0.00004   0.00006   0.00121
 114        8PY        -0.19207  -0.22054   0.09821   0.08144  -0.13200
 115        8PZ         0.11946   0.13143  -0.05242  -0.07279  -0.22742
 116        9PX         0.00020   0.00026  -0.00009  -0.00016  -0.00342
 117        9PY         0.49980   0.57681  -0.27559  -0.22794   0.37376
 118        9PZ        -0.31154  -0.34322   0.14648   0.20439   0.64057
 119       10PX         0.00000   0.00000   0.00000   0.00000  -0.00001
 120       10PY        -0.00229  -0.00069   0.00010   0.00077   0.00123
 121       10PZ         0.00127   0.00092  -0.00018  -0.00028   0.00099
 122       11PX         0.00001   0.00001   0.00000  -0.00001  -0.00015
 123       11PY         0.02372   0.02737  -0.01262  -0.01036   0.01662
 124       11PZ        -0.01491  -0.01636   0.00667   0.00932   0.02856
 125       12PX         0.00000   0.00000   0.00000   0.00000  -0.00002
 126       12PY        -0.00152   0.00120  -0.00136  -0.00034   0.00405
 127       12PZ         0.00073  -0.00022   0.00062   0.00061   0.00188
 128       13PX         0.00000   0.00000   0.00000   0.00000   0.00000
 129       13PY        -0.00040  -0.00008  -0.00025  -0.00021   0.00021
 130       13PZ         0.00031  -0.00001   0.00032   0.00006  -0.00064
 131       14D 0        0.00245   0.00281  -0.00111  -0.00193  -0.00790
 132       14D+1       -0.00001  -0.00001   0.00000   0.00000   0.00000
 133       14D-1        0.02385   0.02674  -0.00549  -0.00471   0.00399
 134       14D+2        0.01441   0.01634  -0.00382  -0.00410  -0.00460
 135       14D-2       -0.00004  -0.00004   0.00000   0.00000  -0.00003
 136       15D 0        0.00027   0.00021  -0.00006  -0.00014  -0.00048
 137       15D+1        0.00000   0.00000   0.00000   0.00000   0.00000
 138       15D-1        0.00246   0.00263  -0.00029  -0.00028   0.00024
 139       15D+2        0.00162   0.00165  -0.00021  -0.00023  -0.00029
 140       15D-2        0.00000   0.00000   0.00000   0.00000   0.00000
 141       16D 0        0.00004   0.00021  -0.00003  -0.00002  -0.00028
 142       16D+1        0.00000   0.00000   0.00000   0.00000   0.00000
 143       16D-1       -0.00110  -0.00063  -0.00012   0.00027   0.00025
 144       16D+2       -0.00082  -0.00038  -0.00005   0.00007  -0.00011
 145       16D-2        0.00000   0.00000   0.00000   0.00000   0.00000
 146       17D 0       -0.00005  -0.00003   0.00005  -0.00003   0.00004
 147       17D+1        0.00000   0.00000   0.00000   0.00000   0.00000
 148       17D-1       -0.00052  -0.00034  -0.00003   0.00004   0.00044
 149       17D+2       -0.00052   0.00012  -0.00021   0.00009   0.00031
 150       17D-2        0.00000   0.00000   0.00000   0.00000   0.00000
 151       18F 0        0.00024   0.00029  -0.00008  -0.00006   0.00004
 152       18F+1        0.00000   0.00000   0.00000   0.00000   0.00000
 153       18F-1        0.00009   0.00012  -0.00002  -0.00003  -0.00034
 154       18F+2        0.00038   0.00042  -0.00010  -0.00009  -0.00002
 155       18F-2        0.00000   0.00000   0.00000   0.00000   0.00000
 156       18F+3        0.00000   0.00000   0.00000   0.00000   0.00000
 157       18F-3       -0.00020  -0.00022   0.00003   0.00004  -0.00014
 158       19F 0       -0.00030  -0.00030   0.00006   0.00014  -0.00006
 159       19F+1        0.00000   0.00000   0.00000   0.00000   0.00000
 160       19F-1       -0.00023  -0.00029   0.00001   0.00010   0.00032
 161       19F+2       -0.00064  -0.00046   0.00004   0.00018   0.00002
 162       19F-2        0.00000   0.00000   0.00000   0.00000   0.00000
 163       19F+3        0.00000   0.00000   0.00000   0.00000   0.00000
 164       19F-3        0.00036   0.00017   0.00004  -0.00005   0.00017
 165 4   O  1S         -0.06942   0.00005   0.00001   0.06980  -0.00003
 166        2S          0.00100   0.00000   0.00000  -0.00156   0.00000
 167        3S         -0.00290   0.00000   0.00000   0.00289   0.00000
 168        4S          0.00121   0.00000   0.00000  -0.00065   0.00000
 169        5S          0.00068   0.00000   0.00000   0.00103   0.00000
 170        6PX         0.00000   0.00000   0.00000   0.00000   0.00000
 171        6PY         0.00000   0.00064  -0.00030   0.00000  -0.00016
 172        6PZ         0.00056   0.00000   0.00000  -0.00049   0.00000
 173        7PX         0.00000   0.00000   0.00000   0.00000   0.00000
 174        7PY         0.00000   0.00074  -0.00032   0.00000  -0.00032
 175        7PZ         0.00066   0.00000   0.00000  -0.00046   0.00000
 176        8PX        -0.00001   0.00000   0.00000   0.00001   0.00000
 177        8PY         0.00000  -0.00025   0.00010   0.00000  -0.00111
 178        8PZ         0.00037   0.00000   0.00000  -0.00086   0.00000
 179        9PX        -0.00001   0.00000   0.00000   0.00000   0.00000
 180        9PY         0.00000  -0.00070   0.00065   0.00000  -0.00016
 181        9PZ         0.00018   0.00000   0.00000  -0.00039   0.00000
 182       10D 0       -0.00003   0.00000   0.00000   0.00002   0.00000
 183       10D+1        0.00000   0.00000   0.00000   0.00000   0.00000
 184       10D-1        0.00000   0.00003   0.00002   0.00000  -0.00002
 185       10D+2        0.00003   0.00000   0.00000   0.00000   0.00000
 186       10D-2        0.00000   0.00000   0.00000   0.00000   0.00000
 187       11D 0       -0.00024   0.00000   0.00000   0.00016   0.00000
 188       11D+1        0.00000   0.00000   0.00000   0.00000   0.00000
 189       11D-1        0.00000   0.00016  -0.00010   0.00000   0.00008
 190       11D+2       -0.00009   0.00000   0.00000  -0.00003   0.00000
 191       11D-2        0.00000   0.00000   0.00000   0.00000   0.00000
 192       12D 0       -0.00043   0.00000   0.00000   0.00029   0.00000
 193       12D+1        0.00000   0.00000   0.00000   0.00000   0.00000
 194       12D-1        0.00000   0.00031  -0.00009   0.00000   0.00035
 195       12D+2       -0.00023   0.00000   0.00000  -0.00012   0.00000
 196       12D-2        0.00000   0.00001   0.00000   0.00000   0.00000
 197       13F 0       -0.00009   0.00000   0.00000   0.00004   0.00000
 198       13F+1        0.00000   0.00000   0.00000   0.00000   0.00000
 199       13F-1        0.00000  -0.00001   0.00000   0.00000  -0.00003
 200       13F+2        0.00000   0.00000   0.00000  -0.00001   0.00000
 201       13F-2        0.00000   0.00000   0.00000   0.00000   0.00000
 202       13F+3        0.00000   0.00000   0.00000   0.00000   0.00000
 203       13F-3        0.00000  -0.00002  -0.00001   0.00000   0.00001
 204       14F 0        0.00026   0.00000   0.00000  -0.00008   0.00000
 205       14F+1        0.00000   0.00000   0.00000   0.00000   0.00000
 206       14F-1        0.00000  -0.00006   0.00005   0.00000   0.00003
 207       14F+2        0.00013   0.00000   0.00000   0.00003   0.00000
 208       14F-2        0.00000   0.00000   0.00000   0.00000   0.00000
 209       14F+3        0.00000   0.00000   0.00000   0.00000   0.00000
 210       14F-3        0.00000   0.00005   0.00003   0.00000  -0.00001
                           6         7         8         9        10
     Eigenvalues --     2.00001   2.00001   2.00001   2.00001   2.00000
   1 1   C  1S         -0.07119   0.00000   0.44614  -0.00120   0.75546
   2        2S          0.00074   0.00000  -0.00530   0.00001  -0.00716
   3        3S         -0.00304   0.00000   0.01862  -0.00005   0.03174
   4        4S         -0.00336   0.00000   0.00150   0.00001   0.00272
   5        5S         -0.00155   0.00000   0.00075   0.00002   0.00266
   6        6PX         0.00000   0.00000   0.00000   0.00062   0.00000
   7        6PY         0.00000   0.00000   0.00000   0.00000   0.00000
   8        6PZ         0.00030   0.00000  -0.00086   0.00000  -0.00115
   9        7PX         0.00000   0.00000   0.00001   0.00104   0.00000
  10        7PY         0.00000   0.00000   0.00000   0.00000   0.00000
  11        7PZ        -0.00002   0.00000  -0.00079   0.00001   0.00322
  12        8PX        -0.00002   0.00000   0.00001   0.00130   0.00001
  13        8PY         0.00000  -0.00003   0.00000   0.00000   0.00000
  14        8PZ         0.00572   0.00000  -0.00022   0.00001  -0.00151
  15        9PX         0.00000   0.00000   0.00000   0.00004   0.00000
  16        9PY         0.00000   0.00000   0.00000   0.00000   0.00000
  17        9PZ         0.00016   0.00000  -0.00020  -0.00001  -0.00014
  18       10D 0       -0.00016   0.00000   0.00010   0.00000   0.00067
  19       10D+1        0.00000   0.00000   0.00000  -0.00010   0.00000
  20       10D-1        0.00000   0.00000   0.00000   0.00000   0.00000
  21       10D+2       -0.00008   0.00000  -0.00015   0.00000  -0.00020
  22       10D-2        0.00000   0.00009   0.00000   0.00000   0.00000
  23       11D 0       -0.00036   0.00000  -0.00087   0.00000   0.00096
  24       11D+1        0.00000   0.00000   0.00000  -0.00075   0.00001
  25       11D-1        0.00000   0.00000   0.00000   0.00000   0.00000
  26       11D+2       -0.00019   0.00000   0.00031   0.00000   0.00106
  27       11D-2        0.00000   0.00069   0.00000   0.00000   0.00001
  28       12D 0       -0.00021   0.00000   0.00003   0.00000  -0.00114
  29       12D+1        0.00001   0.00000   0.00000  -0.00064   0.00000
  30       12D-1        0.00000   0.00001   0.00000   0.00000   0.00000
  31       12D+2        0.00040   0.00000  -0.00022   0.00001  -0.00102
  32       12D-2        0.00000  -0.00012   0.00000   0.00000  -0.00001
  33       13F 0       -0.00011   0.00000   0.00026   0.00000   0.00036
  34       13F+1        0.00000   0.00000   0.00000  -0.00006   0.00000
  35       13F-1        0.00000   0.00000   0.00000   0.00000   0.00000
  36       13F+2        0.00003   0.00000   0.00000   0.00000  -0.00009
  37       13F-2        0.00000   0.00001   0.00000   0.00000   0.00000
  38       13F+3        0.00000   0.00000   0.00000   0.00002   0.00000
  39       13F-3        0.00000   0.00000   0.00000   0.00000   0.00000
  40       14F 0        0.00050   0.00000  -0.00118   0.00001  -0.00065
  41       14F+1        0.00000   0.00000   0.00000   0.00008   0.00001
  42       14F-1        0.00000   0.00000   0.00000   0.00000   0.00000
  43       14F+2       -0.00029   0.00000  -0.00068   0.00000  -0.00061
  44       14F-2        0.00000  -0.00021   0.00000   0.00000   0.00000
  45       14F+3        0.00000   0.00000   0.00000  -0.00036   0.00000
  46       14F-3        0.00000   0.00000   0.00000   0.00000   0.00000
  47 2   Br 1S          0.00626   0.00000  -0.00203   0.00002   0.00033
  48        2S         -0.02352  -0.00002   0.00799  -0.00008  -0.00042
  49        3S          0.05171   0.00004  -0.02117   0.00017  -0.00800
  50        4S          0.00001   0.00000   0.00051   0.00000   0.00094
  51        5S          0.00243   0.00000  -0.00085   0.00001  -0.00056
  52        6S          0.00328  -0.00002  -0.00062   0.00000  -0.00091
  53        7S          0.00108  -0.00001  -0.00020  -0.00001  -0.00111
  54        8PX        -0.00018   0.26230  -0.00045  -0.26285   0.00069
  55        8PY         0.15793   0.00112  -0.04662  -0.00113  -0.08613
  56        8PZ        -0.20445   0.00109  -0.09207  -0.00044  -0.05077
  57        9PX         0.00047  -0.74192   0.00141   0.74226  -0.00171
  58        9PY        -0.44043  -0.00317   0.11128   0.00328   0.20449
  59        9PZ         0.57902  -0.00309   0.24764   0.00129   0.12135
  60       10PX         0.00000  -0.00130   0.00000   0.00072   0.00000
  61       10PY         0.00022  -0.00001  -0.00054   0.00001  -0.00043
  62       10PZ         0.00133  -0.00001   0.00004   0.00000   0.00017
  63       11PX         0.00002  -0.03316   0.00006   0.03282  -0.00007
  64       11PY        -0.01956  -0.00014   0.00492   0.00014   0.00863
  65       11PZ         0.02571  -0.00014   0.01090   0.00006   0.00505
  66       12PX        -0.00001  -0.00389   0.00001   0.00271   0.00000
  67       12PY        -0.00013  -0.00002  -0.00021   0.00001  -0.00010
  68       12PZ         0.00316  -0.00002   0.00075   0.00001  -0.00056
  69       13PX         0.00000   0.00032   0.00000  -0.00025   0.00000
  70       13PY         0.00029   0.00000  -0.00006   0.00000  -0.00025
  71       13PZ         0.00001   0.00000  -0.00004   0.00000  -0.00019
  72       14D 0       -0.00751   0.00001  -0.00263   0.00001  -0.00114
  73       14D+1        0.00005  -0.00113  -0.00004   0.00122  -0.00006
  74       14D-1       -0.00689  -0.00001   0.00771  -0.00001   0.00968
  75       14D+2       -0.00284   0.00003  -0.00633   0.00000  -0.00611
  76       14D-2        0.00000  -0.00224  -0.00008   0.00218  -0.00009
  77       15D 0       -0.00041   0.00000  -0.00020   0.00000  -0.00010
  78       15D+1        0.00000  -0.00017   0.00000   0.00019  -0.00001
  79       15D-1       -0.00042   0.00000   0.00071   0.00000   0.00086
  80       15D+2       -0.00011   0.00000  -0.00061   0.00000  -0.00060
  81       15D-2        0.00000  -0.00028  -0.00001   0.00034  -0.00001
  82       16D 0       -0.00037   0.00000  -0.00008   0.00000   0.00012
  83       16D+1        0.00000   0.00010   0.00000  -0.00015   0.00000
  84       16D-1       -0.00010   0.00000   0.00025   0.00000   0.00073
  85       16D+2       -0.00032   0.00000   0.00001   0.00000  -0.00021
  86       16D-2        0.00000   0.00017   0.00000  -0.00017   0.00000
  87       17D 0       -0.00023   0.00000   0.00002   0.00000  -0.00011
  88       17D+1        0.00000  -0.00009   0.00000  -0.00009   0.00000
  89       17D-1        0.00019   0.00000  -0.00004   0.00000  -0.00022
  90       17D+2       -0.00032   0.00000   0.00006   0.00000   0.00002
  91       17D-2        0.00000  -0.00016   0.00000  -0.00023   0.00000
  92       18F 0        0.00008   0.00000  -0.00008   0.00000  -0.00012
  93       18F+1        0.00000  -0.00001   0.00000   0.00001   0.00000
  94       18F-1        0.00031   0.00000   0.00008   0.00000   0.00008
  95       18F+2        0.00000   0.00000  -0.00014   0.00000  -0.00022
  96       18F-2        0.00000  -0.00022   0.00000   0.00025   0.00000
  97       18F+3        0.00000   0.00018   0.00000  -0.00022   0.00000
  98       18F-3        0.00008   0.00000  -0.00006   0.00000  -0.00010
  99       19F 0       -0.00008   0.00000  -0.00009   0.00000  -0.00011
 100       19F+1        0.00000   0.00001   0.00000  -0.00003   0.00000
 101       19F-1       -0.00038   0.00000   0.00000   0.00000   0.00017
 102       19F+2        0.00003   0.00000   0.00000   0.00000  -0.00011
 103       19F-2        0.00000   0.00017   0.00000  -0.00025   0.00000
 104       19F+3        0.00000  -0.00014   0.00000   0.00024   0.00000
 105       19F-3       -0.00010   0.00000   0.00010   0.00000   0.00001
 106 3   Br 1S          0.00626   0.00000  -0.00203   0.00002   0.00033
 107        2S         -0.02351   0.00002   0.00799  -0.00007  -0.00042
 108        3S          0.05170  -0.00004  -0.02117   0.00017  -0.00800
 109        4S          0.00001   0.00000   0.00051   0.00000   0.00094
 110        5S          0.00243   0.00000  -0.00085   0.00001  -0.00056
 111        6S          0.00328   0.00002  -0.00062   0.00000  -0.00091
 112        7S          0.00108   0.00001  -0.00020  -0.00001  -0.00111
 113        8PX         0.00082  -0.26230  -0.00074  -0.26286   0.00015
 114        8PY        -0.15798  -0.00053   0.04661  -0.00051   0.08613
 115        8PZ        -0.20453  -0.00109  -0.09207  -0.00044  -0.05077
 116        9PX        -0.00229   0.74191   0.00210   0.74228  -0.00043
 117        9PY         0.44056   0.00149  -0.11125   0.00137  -0.20449
 118        9PZ         0.57926   0.00309   0.24763   0.00129   0.12135
 119       10PX         0.00000   0.00130   0.00000   0.00072   0.00000
 120       10PY        -0.00022   0.00000   0.00054   0.00000   0.00043
 121       10PZ         0.00133   0.00001   0.00004   0.00000   0.00017
 122       11PX        -0.00010   0.03316   0.00009   0.03283  -0.00002
 123       11PY         0.01957   0.00007  -0.00491   0.00006  -0.00863
 124       11PZ         0.02572   0.00014   0.01090   0.00006   0.00505
 125       12PX        -0.00001   0.00389   0.00001   0.00271   0.00000
 126       12PY         0.00013   0.00000   0.00021   0.00001   0.00010
 127       12PZ         0.00316   0.00002   0.00075   0.00001  -0.00056
 128       13PX         0.00000  -0.00032   0.00000  -0.00025   0.00000
 129       13PY        -0.00029   0.00000   0.00006   0.00000   0.00025
 130       13PZ         0.00001   0.00000  -0.00004   0.00000  -0.00019
 131       14D 0       -0.00752  -0.00001  -0.00263   0.00001  -0.00114
 132       14D+1        0.00000   0.00113   0.00001   0.00122   0.00000
 133       14D-1        0.00689  -0.00001  -0.00771   0.00001  -0.00968
 134       14D+2       -0.00284  -0.00001  -0.00633   0.00002  -0.00611
 135       14D-2       -0.00004  -0.00224   0.00000  -0.00218   0.00001
 136       15D 0       -0.00041   0.00000  -0.00020   0.00000  -0.00010
 137       15D+1        0.00000   0.00017   0.00000   0.00019   0.00000
 138       15D-1        0.00042   0.00000  -0.00071   0.00000  -0.00086
 139       15D+2       -0.00011   0.00000  -0.00061   0.00000  -0.00060
 140       15D-2        0.00000  -0.00028   0.00000  -0.00034   0.00000
 141       16D 0       -0.00037   0.00000  -0.00008   0.00000   0.00012
 142       16D+1        0.00000  -0.00010   0.00000  -0.00015   0.00000
 143       16D-1        0.00010   0.00000  -0.00025   0.00000  -0.00073
 144       16D+2       -0.00032   0.00000   0.00001   0.00000  -0.00021
 145       16D-2        0.00000   0.00017   0.00000   0.00017   0.00000
 146       17D 0       -0.00023   0.00000   0.00002   0.00000  -0.00011
 147       17D+1        0.00000   0.00009   0.00000  -0.00009   0.00000
 148       17D-1       -0.00019   0.00000   0.00004   0.00000   0.00022
 149       17D+2       -0.00032   0.00000   0.00006   0.00000   0.00002
 150       17D-2        0.00000  -0.00016   0.00000   0.00023   0.00000
 151       18F 0        0.00008   0.00000  -0.00008   0.00000  -0.00012
 152       18F+1        0.00000   0.00001   0.00000   0.00001   0.00000
 153       18F-1       -0.00031   0.00000  -0.00008   0.00000  -0.00008
 154       18F+2        0.00000   0.00000  -0.00014   0.00000  -0.00022
 155       18F-2        0.00000  -0.00022   0.00000  -0.00025   0.00000
 156       18F+3        0.00000  -0.00018   0.00000  -0.00022   0.00000
 157       18F-3       -0.00008   0.00000   0.00006   0.00000   0.00010
 158       19F 0       -0.00008   0.00000  -0.00009   0.00000  -0.00011
 159       19F+1        0.00000  -0.00001   0.00000  -0.00003   0.00000
 160       19F-1        0.00038   0.00000   0.00000   0.00000  -0.00017
 161       19F+2        0.00003   0.00000   0.00000   0.00000  -0.00011
 162       19F-2        0.00000   0.00017   0.00000   0.00025   0.00000
 163       19F+3        0.00000   0.00014   0.00000   0.00024   0.00000
 164       19F-3        0.00010   0.00000  -0.00010   0.00000  -0.00001
 165 4   O  1S          0.16465   0.00000  -0.79479   0.00311   0.53933
 166        2S         -0.00316   0.00000   0.01531  -0.00006  -0.00889
 167        3S          0.00696   0.00000  -0.03362   0.00013   0.02337
 168        4S         -0.00156   0.00000   0.00255  -0.00002  -0.00139
 169        5S         -0.00191   0.00000  -0.00046  -0.00001  -0.00136
 170        6PX         0.00000   0.00000   0.00000  -0.00048   0.00000
 171        6PY         0.00000   0.00000   0.00000   0.00000   0.00000
 172        6PZ        -0.00065   0.00000   0.00395  -0.00001  -0.00040
 173        7PX         0.00000   0.00000   0.00000  -0.00056   0.00000
 174        7PY         0.00000   0.00000   0.00000   0.00000   0.00000
 175        7PZ        -0.00011   0.00000   0.00161   0.00000   0.00261
 176        8PX         0.00000   0.00000   0.00000  -0.00036  -0.00001
 177        8PY         0.00000   0.00001   0.00000   0.00000   0.00000
 178        8PZ        -0.00135   0.00000   0.00333  -0.00001   0.00227
 179        9PX        -0.00001   0.00000   0.00000   0.00004   0.00000
 180        9PY         0.00000   0.00000   0.00000   0.00000   0.00000
 181        9PZ         0.00065   0.00000   0.00053   0.00000   0.00042
 182       10D 0        0.00004   0.00000  -0.00021   0.00000   0.00008
 183       10D+1        0.00000   0.00000   0.00000   0.00000   0.00000
 184       10D-1        0.00000   0.00000   0.00000   0.00000   0.00000
 185       10D+2       -0.00003   0.00000   0.00005   0.00000  -0.00002
 186       10D-2        0.00000   0.00001   0.00000   0.00000   0.00000
 187       11D 0        0.00003   0.00000   0.00016   0.00000  -0.00102
 188       11D+1        0.00000   0.00000   0.00000  -0.00009   0.00000
 189       11D-1        0.00000   0.00000   0.00000   0.00000   0.00000
 190       11D+2        0.00005   0.00000   0.00014   0.00000  -0.00006
 191       11D-2        0.00000  -0.00002   0.00000   0.00000   0.00000
 192       12D 0        0.00078   0.00000  -0.00050   0.00000  -0.00057
 193       12D+1        0.00000   0.00000   0.00000  -0.00010   0.00000
 194       12D-1        0.00000   0.00000   0.00000   0.00000   0.00000
 195       12D+2       -0.00001   0.00000   0.00029   0.00000   0.00040
 196       12D-2        0.00000   0.00003   0.00000   0.00000   0.00000
 197       13F 0        0.00001   0.00000  -0.00010   0.00000  -0.00010
 198       13F+1        0.00000   0.00000   0.00000   0.00000   0.00000
 199       13F-1        0.00000   0.00000   0.00000   0.00000   0.00000
 200       13F+2       -0.00001   0.00000   0.00002   0.00000  -0.00001
 201       13F-2        0.00000   0.00000   0.00000   0.00000   0.00000
 202       13F+3        0.00000   0.00000   0.00000  -0.00001   0.00000
 203       13F-3        0.00000   0.00000   0.00000   0.00000   0.00000
 204       14F 0       -0.00008   0.00000   0.00001   0.00000   0.00037
 205       14F+1        0.00000   0.00000   0.00000   0.00007   0.00000
 206       14F-1        0.00000   0.00000   0.00000   0.00000   0.00000
 207       14F+2        0.00002   0.00000  -0.00009   0.00000  -0.00003
 208       14F-2        0.00000   0.00003   0.00000   0.00000   0.00000
 209       14F+3        0.00000   0.00000   0.00000   0.00004   0.00000
 210       14F-3        0.00000   0.00000   0.00000   0.00000   0.00000
                          11        12        13        14        15
     Eigenvalues --     2.00000   2.00000   2.00000   2.00000   2.00000
   1 1   C  1S          0.00000  -0.00127   0.00000   0.01352  -0.00004
   2        2S          0.00000   0.00005   0.00000  -0.00011   0.00000
   3        3S          0.00000  -0.00005   0.00000   0.00062   0.00000
   4        4S          0.00000   0.00036   0.00000  -0.00105   0.00000
   5        5S          0.00000   0.00019   0.00000  -0.00038   0.00000
   6        6PX         0.00000   0.00000   0.00000   0.00000   0.00001
   7        6PY        -0.00003   0.00000  -0.00001   0.00000   0.00000
   8        6PZ         0.00000   0.00001   0.00000  -0.00004   0.00000
   9        7PX         0.00000   0.00000   0.00000   0.00000   0.00000
  10        7PY         0.00006   0.00000   0.00003   0.00000   0.00000
  11        7PZ         0.00000   0.00007   0.00000   0.00010   0.00000
  12        8PX         0.00000   0.00000   0.00000   0.00000  -0.00007
  13        8PY         0.00039   0.00000   0.00061   0.00000   0.00000
  14        8PZ         0.00000  -0.00053   0.00000   0.00038   0.00000
  15        9PX         0.00000   0.00000   0.00000   0.00000   0.00000
  16        9PY        -0.00010   0.00000   0.00010   0.00000   0.00000
  17        9PZ         0.00000  -0.00001   0.00000   0.00005   0.00000
  18       10D 0        0.00000   0.00000   0.00000   0.00001   0.00000
  19       10D+1        0.00000   0.00000   0.00000   0.00000   0.00000
  20       10D-1        0.00000   0.00000   0.00000   0.00000   0.00000
  21       10D+2        0.00000   0.00000   0.00000   0.00000   0.00000
  22       10D-2        0.00000   0.00000   0.00000   0.00000   0.00000
  23       11D 0        0.00000   0.00005   0.00000   0.00001   0.00000
  24       11D+1        0.00000   0.00000   0.00000   0.00000   0.00005
  25       11D-1       -0.00008   0.00000  -0.00002   0.00000   0.00000
  26       11D+2        0.00000   0.00001   0.00000   0.00014   0.00000
  27       11D-2        0.00000   0.00000   0.00000   0.00000   0.00000
  28       12D 0        0.00000  -0.00001   0.00000   0.00008   0.00000
  29       12D+1        0.00000   0.00000   0.00000   0.00000   0.00004
  30       12D-1       -0.00019   0.00000  -0.00020   0.00000   0.00000
  31       12D+2        0.00000  -0.00005   0.00000   0.00017   0.00000
  32       12D-2        0.00000   0.00000   0.00000   0.00000   0.00000
  33       13F 0        0.00000   0.00001   0.00000   0.00000   0.00000
  34       13F+1        0.00000   0.00000   0.00000   0.00000   0.00001
  35       13F-1        0.00000   0.00000   0.00001   0.00000   0.00000
  36       13F+2        0.00000   0.00000   0.00000   0.00000   0.00000
  37       13F-2        0.00000   0.00000   0.00000   0.00000   0.00000
  38       13F+3        0.00000   0.00000   0.00000   0.00000  -0.00001
  39       13F-3        0.00001   0.00000   0.00001   0.00000   0.00000
  40       14F 0        0.00000  -0.00003   0.00000   0.00002   0.00000
  41       14F+1        0.00000   0.00000   0.00000   0.00000  -0.00001
  42       14F-1       -0.00001   0.00000  -0.00008   0.00000   0.00000
  43       14F+2        0.00000   0.00005   0.00000   0.00001   0.00000
  44       14F-2        0.00000   0.00000   0.00000   0.00000   0.00000
  45       14F+3        0.00000   0.00000   0.00000   0.00000   0.00004
  46       14F-3       -0.00002   0.00000  -0.00006   0.00000   0.00000
  47 2   Br 1S         -0.05481   0.00214  -0.01243  -0.03843   0.00009
  48        2S          0.16951  -0.00627   0.04117   0.12332  -0.00029
  49        3S          0.01497  -0.00064   0.00386   0.01297  -0.00004
  50        4S         -0.00012   0.00002  -0.00007  -0.00015   0.00000
  51        5S          0.00045  -0.00002   0.00011   0.00038   0.00000
  52        6S          0.00049  -0.00029   0.00049   0.00066   0.00000
  53        7S         -0.00014  -0.00013   0.00024   0.00018   0.00000
  54        8PX        -0.00321   0.00035  -0.00085  -0.00172   0.71281
  55        8PY         0.66524  -0.40303  -0.18842   0.57061   0.00176
  56        8PZ         0.16868   0.58780   0.68582   0.39382   0.00077
  57        9PX        -0.00004   0.00000  -0.00002  -0.00011  -0.01615
  58        9PY         0.00000   0.00753   0.00860   0.00712  -0.00010
  59        9PZ         0.00573  -0.01369  -0.01241   0.00327  -0.00006
  60       10PX         0.00000   0.00000   0.00000   0.00000   0.00028
  61       10PY         0.00033  -0.00022  -0.00005   0.00032   0.00000
  62       10PZ         0.00012   0.00023   0.00036   0.00021   0.00000
  63       11PX         0.00000   0.00000   0.00000   0.00000  -0.00122
  64       11PY        -0.00057   0.00063   0.00047  -0.00023  -0.00001
  65       11PZ         0.00006  -0.00101  -0.00106  -0.00022   0.00000
  66       12PX         0.00000   0.00000   0.00000   0.00000  -0.00006
  67       12PY         0.00005  -0.00012   0.00028   0.00020   0.00000
  68       12PZ         0.00008  -0.00013   0.00006   0.00020   0.00000
  69       13PX         0.00000   0.00000   0.00000   0.00000   0.00002
  70       13PY        -0.00001  -0.00003   0.00002   0.00002   0.00000
  71       13PZ        -0.00003   0.00000   0.00005   0.00002   0.00000
  72       14D 0       -0.00008   0.00033   0.00032   0.00002   0.00000
  73       14D+1        0.00000   0.00000   0.00000   0.00000  -0.00004
  74       14D-1       -0.00032   0.00018   0.00009  -0.00007   0.00000
  75       14D+2        0.00015   0.00017   0.00022   0.00009   0.00000
  76       14D-2        0.00000   0.00000   0.00000   0.00000  -0.00010
  77       15D 0        0.00000   0.00000   0.00001   0.00000   0.00000
  78       15D+1        0.00000   0.00000   0.00000   0.00000  -0.00002
  79       15D-1       -0.00005   0.00000  -0.00001  -0.00004   0.00000
  80       15D+2        0.00003   0.00000   0.00001   0.00003   0.00000
  81       15D-2        0.00000   0.00000   0.00000   0.00000  -0.00002
  82       16D 0        0.00000   0.00006   0.00007   0.00000   0.00000
  83       16D+1        0.00000   0.00000   0.00000   0.00000   0.00003
  84       16D-1        0.00008   0.00002   0.00007   0.00012   0.00000
  85       16D+2       -0.00006   0.00005   0.00001  -0.00010   0.00000
  86       16D-2        0.00000   0.00000   0.00000   0.00000   0.00004
  87       17D 0        0.00000   0.00001  -0.00002   0.00002   0.00000
  88       17D+1        0.00000   0.00000   0.00000   0.00000   0.00000
  89       17D-1        0.00002  -0.00003   0.00004   0.00006   0.00000
  90       17D+2        0.00001   0.00003  -0.00004  -0.00003   0.00000
  91       17D-2        0.00000   0.00000   0.00000   0.00000   0.00001
  92       18F 0        0.00000   0.00000   0.00000   0.00000   0.00000
  93       18F+1        0.00000   0.00000   0.00000   0.00000   0.00000
  94       18F-1        0.00000  -0.00001   0.00000   0.00000   0.00000
  95       18F+2       -0.00001   0.00000   0.00000  -0.00001   0.00000
  96       18F-2        0.00000   0.00000   0.00000   0.00000   0.00000
  97       18F+3        0.00000   0.00000   0.00000   0.00000   0.00000
  98       18F-3        0.00000   0.00000   0.00000  -0.00001   0.00000
  99       19F 0       -0.00002   0.00000   0.00000  -0.00001   0.00000
 100       19F+1        0.00000   0.00000   0.00000   0.00000   0.00000
 101       19F-1        0.00001   0.00003   0.00003   0.00001   0.00000
 102       19F+2       -0.00002   0.00000  -0.00001  -0.00004   0.00000
 103       19F-2        0.00000   0.00000   0.00000   0.00000   0.00002
 104       19F+3        0.00000   0.00000   0.00000   0.00000  -0.00002
 105       19F-3       -0.00001   0.00001   0.00001  -0.00002   0.00000
 106 3   Br 1S          0.05481   0.00214   0.01243  -0.03843   0.00009
 107        2S         -0.16950  -0.00625  -0.04117   0.12330  -0.00028
 108        3S         -0.01497  -0.00064  -0.00386   0.01297  -0.00004
 109        4S          0.00012   0.00002   0.00007  -0.00015   0.00000
 110        5S         -0.00045  -0.00002  -0.00011   0.00038   0.00000
 111        6S         -0.00049  -0.00029  -0.00049   0.00066   0.00000
 112        7S          0.00014  -0.00013  -0.00024   0.00018   0.00000
 113        8PX        -0.00095  -0.00218   0.00203   0.00185   0.71324
 114        8PY         0.66528   0.40306  -0.18829  -0.57059   0.00271
 115        8PZ        -0.16868   0.58798  -0.68567   0.39380   0.00078
 116        9PX         0.00003   0.00005  -0.00004  -0.00006  -0.01616
 117        9PY         0.00000  -0.00753   0.00860  -0.00712   0.00000
 118        9PZ        -0.00573  -0.01370   0.01241   0.00327  -0.00006
 119       10PX         0.00000   0.00000   0.00000   0.00000   0.00028
 120       10PY         0.00033   0.00022  -0.00005  -0.00032   0.00000
 121       10PZ        -0.00012   0.00023  -0.00036   0.00021   0.00000
 122       11PX         0.00000   0.00000   0.00000   0.00000  -0.00122
 123       11PY        -0.00057  -0.00063   0.00047   0.00023   0.00000
 124       11PZ        -0.00006  -0.00101   0.00106  -0.00022   0.00000
 125       12PX         0.00000   0.00000   0.00000   0.00000  -0.00006
 126       12PY         0.00005   0.00012   0.00028  -0.00020   0.00000
 127       12PZ        -0.00008  -0.00013  -0.00006   0.00020   0.00000
 128       13PX         0.00000   0.00000   0.00000   0.00000   0.00002
 129       13PY        -0.00001   0.00003   0.00002  -0.00002   0.00000
 130       13PZ         0.00003   0.00000  -0.00005   0.00002   0.00000
 131       14D 0        0.00008   0.00033  -0.00032   0.00002   0.00000
 132       14D+1        0.00000   0.00000   0.00000   0.00000  -0.00004
 133       14D-1       -0.00032  -0.00018   0.00009   0.00007   0.00000
 134       14D+2       -0.00015   0.00017  -0.00022   0.00009   0.00000
 135       14D-2        0.00000   0.00000   0.00000   0.00000   0.00010
 136       15D 0        0.00000   0.00000  -0.00001   0.00000   0.00000
 137       15D+1        0.00000   0.00000   0.00000   0.00000  -0.00002
 138       15D-1       -0.00005   0.00000  -0.00001   0.00004   0.00000
 139       15D+2       -0.00003   0.00000  -0.00001   0.00003   0.00000
 140       15D-2        0.00000   0.00000   0.00000   0.00000   0.00002
 141       16D 0        0.00000   0.00006  -0.00007   0.00000   0.00000
 142       16D+1        0.00000   0.00000   0.00000   0.00000   0.00003
 143       16D-1        0.00008  -0.00002   0.00007  -0.00012   0.00000
 144       16D+2        0.00006   0.00005  -0.00001  -0.00010   0.00000
 145       16D-2        0.00000   0.00000   0.00000   0.00000  -0.00004
 146       17D 0        0.00000   0.00001   0.00002   0.00002   0.00000
 147       17D+1        0.00000   0.00000   0.00000   0.00000   0.00000
 148       17D-1        0.00002   0.00003   0.00004  -0.00006   0.00000
 149       17D+2       -0.00001   0.00003   0.00004  -0.00003   0.00000
 150       17D-2        0.00000   0.00000   0.00000   0.00000  -0.00001
 151       18F 0        0.00000   0.00000   0.00000   0.00000   0.00000
 152       18F+1        0.00000   0.00000   0.00000   0.00000   0.00000
 153       18F-1        0.00000   0.00001   0.00000   0.00000   0.00000
 154       18F+2        0.00001   0.00000   0.00000  -0.00001   0.00000
 155       18F-2        0.00000   0.00000   0.00000   0.00000   0.00000
 156       18F+3        0.00000   0.00000   0.00000   0.00000   0.00000
 157       18F-3        0.00000   0.00000   0.00000   0.00001   0.00000
 158       19F 0        0.00002   0.00000   0.00000  -0.00001   0.00000
 159       19F+1        0.00000   0.00000   0.00000   0.00000   0.00000
 160       19F-1        0.00001  -0.00003   0.00003  -0.00001   0.00000
 161       19F+2        0.00002   0.00000   0.00001  -0.00004   0.00000
 162       19F-2        0.00000   0.00000   0.00000   0.00000  -0.00002
 163       19F+3        0.00000   0.00000   0.00000   0.00000  -0.00002
 164       19F-3       -0.00001  -0.00001   0.00001   0.00002   0.00000
 165 4   O  1S          0.00000  -0.00046   0.00000   0.00404  -0.00001
 166        2S          0.00000   0.00000   0.00000  -0.00010   0.00000
 167        3S          0.00000  -0.00002   0.00000   0.00018   0.00000
 168        4S          0.00000   0.00006   0.00000   0.00004   0.00000
 169        5S          0.00000   0.00018   0.00000  -0.00005   0.00000
 170        6PX         0.00000   0.00000   0.00000   0.00000   0.00000
 171        6PY         0.00000   0.00000   0.00000   0.00000   0.00000
 172        6PZ         0.00000   0.00000   0.00000   0.00002   0.00000
 173        7PX         0.00000   0.00000   0.00000   0.00000  -0.00001
 174        7PY         0.00001   0.00000   0.00001   0.00000   0.00000
 175        7PZ         0.00000   0.00001   0.00000   0.00006   0.00000
 176        8PX         0.00000   0.00000   0.00000   0.00000  -0.00002
 177        8PY         0.00003   0.00000   0.00000   0.00000   0.00000
 178        8PZ         0.00000   0.00011   0.00000  -0.00005   0.00000
 179        9PX         0.00000   0.00000   0.00000   0.00000  -0.00001
 180        9PY         0.00008   0.00000   0.00002   0.00000   0.00000
 181        9PZ         0.00000  -0.00006   0.00000   0.00002   0.00000
 182       10D 0        0.00000   0.00000   0.00000   0.00000   0.00000
 183       10D+1        0.00000   0.00000   0.00000   0.00000   0.00000
 184       10D-1        0.00000   0.00000   0.00000   0.00000   0.00000
 185       10D+2        0.00000   0.00000   0.00000   0.00000   0.00000
 186       10D-2        0.00000   0.00000   0.00000   0.00000   0.00000
 187       11D 0        0.00000  -0.00001   0.00000  -0.00002   0.00000
 188       11D+1        0.00000   0.00000   0.00000   0.00000   0.00001
 189       11D-1        0.00000   0.00000   0.00000   0.00000   0.00000
 190       11D+2        0.00000  -0.00001   0.00000  -0.00001   0.00000
 191       11D-2        0.00000   0.00000   0.00000   0.00000   0.00000
 192       12D 0        0.00000  -0.00007   0.00000   0.00000   0.00000
 193       12D+1        0.00000   0.00000   0.00000   0.00000   0.00001
 194       12D-1        0.00000   0.00000   0.00002   0.00000   0.00000
 195       12D+2        0.00000  -0.00001   0.00000  -0.00004   0.00000
 196       12D-2        0.00000   0.00000   0.00000   0.00000   0.00000
 197       13F 0        0.00000   0.00000   0.00000   0.00000   0.00000
 198       13F+1        0.00000   0.00000   0.00000   0.00000   0.00000
 199       13F-1        0.00000   0.00000   0.00000   0.00000   0.00000
 200       13F+2        0.00000   0.00000   0.00000   0.00000   0.00000
 201       13F-2        0.00000   0.00000   0.00000   0.00000   0.00000
 202       13F+3        0.00000   0.00000   0.00000   0.00000   0.00000
 203       13F-3        0.00000   0.00000   0.00000   0.00000   0.00000
 204       14F 0        0.00000   0.00001   0.00000   0.00002   0.00000
 205       14F+1        0.00000   0.00000   0.00000   0.00000  -0.00001
 206       14F-1        0.00000   0.00000  -0.00001   0.00000   0.00000
 207       14F+2        0.00000   0.00001   0.00000   0.00002   0.00000
 208       14F-2        0.00000   0.00000   0.00000   0.00000   0.00000
 209       14F+3        0.00000   0.00000   0.00000   0.00000  -0.00001
 210       14F-3        0.00000   0.00000   0.00000   0.00000   0.00000
                          16        17        18        19        20
     Eigenvalues --     2.00000   2.00000   2.00000   2.00000   2.00000
   1 1   C  1S          0.00000   0.00000   0.00153  -0.00001   0.00005
   2        2S          0.00000   0.00000  -0.00001   0.00000   0.00000
   3        3S          0.00000   0.00000   0.00006   0.00000   0.00000
   4        4S          0.00000   0.00000   0.00007   0.00000   0.00001
   5        5S          0.00000   0.00000   0.00007   0.00000   0.00000
   6        6PX         0.00000   0.00000   0.00000   0.00000   0.00000
   7        6PY         0.00000   0.00000   0.00000   0.00000   0.00000
   8        6PZ         0.00000   0.00000   0.00000   0.00000   0.00000
   9        7PX         0.00000   0.00000   0.00000   0.00000   0.00000
  10        7PY         0.00000   0.00002   0.00000   0.00000   0.00000
  11        7PZ         0.00000   0.00000  -0.00001   0.00000   0.00000
  12        8PX         0.00000   0.00000   0.00000   0.00000   0.00000
  13        8PY         0.00000  -0.00001   0.00000  -0.00001   0.00000
  14        8PZ         0.00000   0.00000  -0.00001   0.00000  -0.00001
  15        9PX         0.00000   0.00000   0.00000   0.00000   0.00000
  16        9PY         0.00000  -0.00002   0.00000   0.00000   0.00000
  17        9PZ         0.00000   0.00000   0.00000   0.00000   0.00000
  18       10D 0        0.00000   0.00000   0.00000   0.00000   0.00000
  19       10D+1        0.00000   0.00000   0.00000   0.00000   0.00000
  20       10D-1        0.00000   0.00000   0.00000   0.00000   0.00000
  21       10D+2        0.00000   0.00000   0.00000   0.00000   0.00000
  22       10D-2        0.00001   0.00000   0.00000   0.00000   0.00000
  23       11D 0        0.00000   0.00000   0.00000   0.00000   0.00000
  24       11D+1        0.00000   0.00000   0.00000   0.00000   0.00000
  25       11D-1        0.00000  -0.00002   0.00000   0.00000   0.00000
  26       11D+2        0.00000   0.00000  -0.00001   0.00000   0.00000
  27       11D-2       -0.00004   0.00000   0.00000   0.00000   0.00000
  28       12D 0        0.00000   0.00000   0.00002   0.00000   0.00000
  29       12D+1        0.00000   0.00000   0.00000   0.00000   0.00000
  30       12D-1        0.00000  -0.00004   0.00000   0.00000   0.00000
  31       12D+2        0.00000   0.00000  -0.00001   0.00000   0.00000
  32       12D-2        0.00004   0.00000   0.00000   0.00000   0.00000
  33       13F 0        0.00000   0.00000   0.00000   0.00000   0.00000
  34       13F+1        0.00000   0.00000   0.00000   0.00000   0.00000
  35       13F-1        0.00000   0.00000   0.00000   0.00000   0.00000
  36       13F+2        0.00000   0.00000   0.00000   0.00000   0.00000
  37       13F-2        0.00000   0.00000   0.00000   0.00000   0.00000
  38       13F+3        0.00000   0.00000   0.00000   0.00000   0.00000
  39       13F-3        0.00000   0.00000   0.00000   0.00000   0.00000
  40       14F 0        0.00000   0.00000  -0.00001   0.00000   0.00000
  41       14F+1        0.00000   0.00000   0.00000   0.00000   0.00000
  42       14F-1        0.00000  -0.00002   0.00000   0.00000   0.00000
  43       14F+2        0.00000   0.00000   0.00000   0.00000   0.00000
  44       14F-2        0.00003   0.00000   0.00000   0.00000   0.00000
  45       14F+3        0.00000   0.00000   0.00000   0.00000   0.00000
  46       14F-3        0.00000  -0.00001   0.00000   0.00000   0.00000
  47 2   Br 1S         -0.00001   0.21817  -0.22071   0.54212   0.83853
  48        2S          0.00001  -0.70646   0.71699   0.00335   0.00357
  49        3S          0.00001  -0.03012   0.03104   0.00044   0.00059
  50        4S          0.00000   0.00020  -0.00019   0.00001   0.00001
  51        5S          0.00000  -0.00071   0.00074   0.00000   0.00000
  52        6S          0.00000  -0.00004   0.00003  -0.00001  -0.00001
  53        7S          0.00000  -0.00004  -0.00002   0.00000   0.00000
  54        8PX        -0.71340  -0.00086   0.00061  -0.00001  -0.00001
  55        8PY        -0.00303   0.15291  -0.10617   0.00216   0.00092
  56        8PZ        -0.00172   0.08296  -0.06533   0.00025   0.00010
  57        9PX         0.01662   0.00001  -0.00002   0.00000   0.00000
  58        9PY         0.00009  -0.00252   0.00306  -0.00007  -0.00016
  59        9PZ         0.00005  -0.00125   0.00180  -0.00003  -0.00007
  60       10PX        -0.00029   0.00000   0.00000   0.00000   0.00000
  61       10PY         0.00000   0.00008  -0.00006   0.00000   0.00000
  62       10PZ         0.00000   0.00005  -0.00004   0.00000   0.00000
  63       11PX         0.00124   0.00000   0.00000   0.00000   0.00000
  64       11PY         0.00001  -0.00024   0.00023   0.00000  -0.00001
  65       11PZ         0.00000  -0.00013   0.00013   0.00000   0.00000
  66       12PX         0.00013   0.00000   0.00000   0.00000   0.00000
  67       12PY         0.00000  -0.00006   0.00001  -0.00001   0.00000
  68       12PZ         0.00000  -0.00003   0.00002   0.00000   0.00000
  69       13PX        -0.00003   0.00000   0.00000   0.00000   0.00000
  70       13PY         0.00000   0.00000  -0.00001   0.00000   0.00000
  71       13PZ         0.00000   0.00000   0.00000   0.00000   0.00000
  72       14D 0        0.00000   0.00003  -0.00004   0.00000   0.00000
  73       14D+1        0.00004   0.00000   0.00000   0.00000   0.00000
  74       14D-1        0.00000  -0.00001   0.00000   0.00000   0.00000
  75       14D+2        0.00000  -0.00007   0.00007   0.00000   0.00000
  76       14D-2        0.00011   0.00000   0.00000   0.00000   0.00000
  77       15D 0        0.00000   0.00000   0.00000   0.00000   0.00000
  78       15D+1        0.00001   0.00000   0.00000   0.00000   0.00000
  79       15D-1        0.00000   0.00000   0.00000   0.00000   0.00000
  80       15D+2        0.00000   0.00000   0.00000   0.00000   0.00000
  81       15D-2        0.00002   0.00000   0.00000   0.00000   0.00000
  82       16D 0        0.00000   0.00001   0.00000   0.00000   0.00000
  83       16D+1       -0.00002   0.00000   0.00000   0.00000   0.00000
  84       16D-1        0.00000   0.00001  -0.00001   0.00000   0.00000
  85       16D+2        0.00000  -0.00001   0.00001   0.00000   0.00000
  86       16D-2       -0.00003   0.00000   0.00000   0.00000   0.00000
  87       17D 0        0.00000   0.00000   0.00000   0.00000   0.00000
  88       17D+1        0.00002   0.00000   0.00000   0.00000   0.00000
  89       17D-1        0.00000  -0.00001   0.00001   0.00000   0.00000
  90       17D+2        0.00000   0.00002   0.00000   0.00000   0.00000
  91       17D-2        0.00002   0.00000   0.00000   0.00000   0.00000
  92       18F 0        0.00000   0.00000   0.00000   0.00000   0.00000
  93       18F+1        0.00000   0.00000   0.00000   0.00000   0.00000
  94       18F-1        0.00000   0.00000   0.00000   0.00000   0.00000
  95       18F+2        0.00000   0.00000   0.00000   0.00000   0.00000
  96       18F-2        0.00000   0.00000   0.00000   0.00000   0.00000
  97       18F+3        0.00000   0.00000   0.00000   0.00000   0.00000
  98       18F-3        0.00000   0.00000   0.00000   0.00000   0.00000
  99       19F 0        0.00000   0.00000   0.00000   0.00000   0.00000
 100       19F+1        0.00000   0.00000   0.00000   0.00000   0.00000
 101       19F-1        0.00000   0.00000   0.00000   0.00000   0.00000
 102       19F+2        0.00000   0.00000   0.00000   0.00000   0.00000
 103       19F-2       -0.00001   0.00000   0.00000   0.00000   0.00000
 104       19F+3        0.00001   0.00000   0.00000   0.00000   0.00000
 105       19F-3        0.00000   0.00000   0.00000   0.00000   0.00000
 106 3   Br 1S          0.00001  -0.21810  -0.22076  -0.83824   0.54257
 107        2S         -0.00001   0.70626   0.71720  -0.00451   0.00188
 108        3S         -0.00001   0.03012   0.03104  -0.00065   0.00035
 109        4S          0.00000  -0.00020  -0.00019  -0.00002   0.00001
 110        5S          0.00000   0.00071   0.00074   0.00000   0.00000
 111        6S          0.00000   0.00004   0.00003   0.00002  -0.00001
 112        7S          0.00000   0.00004  -0.00002   0.00000   0.00000
 113        8PX         0.71297  -0.00010  -0.00005   0.00000   0.00000
 114        8PY         0.00144   0.15287   0.10620   0.00235   0.00005
 115        8PZ         0.00172  -0.08294  -0.06535  -0.00027  -0.00002
 116        9PX        -0.01661   0.00001   0.00000   0.00000   0.00000
 117        9PY        -0.00002  -0.00252  -0.00307  -0.00013   0.00012
 118        9PZ        -0.00005   0.00125   0.00180   0.00006  -0.00005
 119       10PX         0.00029   0.00000   0.00000   0.00000   0.00000
 120       10PY         0.00000   0.00008   0.00006   0.00000   0.00000
 121       10PZ         0.00000  -0.00005  -0.00004   0.00000   0.00000
 122       11PX        -0.00124   0.00000   0.00000   0.00000   0.00000
 123       11PY         0.00000  -0.00024  -0.00023  -0.00001   0.00000
 124       11PZ         0.00000   0.00013   0.00013   0.00000   0.00000
 125       12PX        -0.00013   0.00000   0.00000   0.00000   0.00000
 126       12PY         0.00000  -0.00006  -0.00001  -0.00001   0.00000
 127       12PZ         0.00000   0.00003   0.00002   0.00000   0.00000
 128       13PX         0.00003   0.00000   0.00000   0.00000   0.00000
 129       13PY         0.00000   0.00000   0.00001   0.00000   0.00000
 130       13PZ         0.00000   0.00000   0.00000   0.00000   0.00000
 131       14D 0        0.00000  -0.00003  -0.00004   0.00000   0.00000
 132       14D+1       -0.00004   0.00000   0.00000   0.00000   0.00000
 133       14D-1        0.00000  -0.00001   0.00000   0.00000   0.00000
 134       14D+2        0.00000   0.00007   0.00007   0.00000   0.00000
 135       14D-2        0.00011   0.00000   0.00000   0.00000   0.00000
 136       15D 0        0.00000   0.00000   0.00000   0.00000   0.00000
 137       15D+1       -0.00001   0.00000   0.00000   0.00000   0.00000
 138       15D-1        0.00000   0.00000   0.00000   0.00000   0.00000
 139       15D+2        0.00000   0.00000   0.00000   0.00000   0.00000
 140       15D-2        0.00002   0.00000   0.00000   0.00000   0.00000
 141       16D 0        0.00000  -0.00001   0.00000   0.00000   0.00000
 142       16D+1        0.00002   0.00000   0.00000   0.00000   0.00000
 143       16D-1        0.00000   0.00001   0.00001   0.00000   0.00000
 144       16D+2        0.00000   0.00001   0.00001   0.00000   0.00000
 145       16D-2       -0.00003   0.00000   0.00000   0.00000   0.00000
 146       17D 0        0.00000   0.00000   0.00000   0.00000   0.00000
 147       17D+1       -0.00002   0.00000   0.00000   0.00000   0.00000
 148       17D-1        0.00000  -0.00001  -0.00001   0.00000   0.00000
 149       17D+2        0.00000  -0.00002   0.00000   0.00000   0.00000
 150       17D-2        0.00002   0.00000   0.00000   0.00000   0.00000
 151       18F 0        0.00000   0.00000   0.00000   0.00000   0.00000
 152       18F+1        0.00000   0.00000   0.00000   0.00000   0.00000
 153       18F-1        0.00000   0.00000   0.00000   0.00000   0.00000
 154       18F+2        0.00000   0.00000   0.00000   0.00000   0.00000
 155       18F-2        0.00000   0.00000   0.00000   0.00000   0.00000
 156       18F+3        0.00000   0.00000   0.00000   0.00000   0.00000
 157       18F-3        0.00000   0.00000   0.00000   0.00000   0.00000
 158       19F 0        0.00000   0.00000   0.00000   0.00000   0.00000
 159       19F+1        0.00000   0.00000   0.00000   0.00000   0.00000
 160       19F-1        0.00000   0.00000   0.00000   0.00000   0.00000
 161       19F+2        0.00000   0.00000   0.00000   0.00000   0.00000
 162       19F-2       -0.00001   0.00000   0.00000   0.00000   0.00000
 163       19F+3       -0.00001   0.00000   0.00000   0.00000   0.00000
 164       19F-3        0.00000   0.00000   0.00000   0.00000   0.00000
 165 4   O  1S          0.00000   0.00000   0.00061   0.00000   0.00000
 166        2S          0.00000   0.00000   0.00000   0.00000   0.00000
 167        3S          0.00000   0.00000   0.00003   0.00000   0.00000
 168        4S          0.00000   0.00000  -0.00002   0.00000   0.00000
 169        5S          0.00000   0.00000  -0.00005   0.00000   0.00001
 170        6PX         0.00000   0.00000   0.00000   0.00000   0.00000
 171        6PY         0.00000   0.00000   0.00000   0.00000   0.00000
 172        6PZ         0.00000   0.00000   0.00000   0.00000   0.00000
 173        7PX         0.00000   0.00000   0.00000   0.00000   0.00000
 174        7PY         0.00000   0.00000   0.00000   0.00000   0.00000
 175        7PZ         0.00000   0.00000   0.00001   0.00000   0.00000
 176        8PX         0.00000   0.00000   0.00000   0.00000   0.00000
 177        8PY         0.00000   0.00003   0.00000   0.00000   0.00000
 178        8PZ         0.00000   0.00000   0.00001   0.00000   0.00000
 179        9PX         0.00000   0.00000   0.00000   0.00000   0.00000
[...]
 193       12D+1       -0.00001   2.06581   0.00076  -0.00623  -0.00495
 194       12D-1       -0.00005   0.00648  -0.24062  -0.00019  -0.00002
 195       12D+2       -0.55181   0.00990  -0.00039   0.56076   0.05046
 196       12D-2       -0.00346   0.00006  -0.00263   0.00352   0.00032
 197       13F 0        0.02112   0.00008  -0.00001   0.01590  -0.04632
 198       13F+1        0.00032   0.01869  -0.00015  -0.00006  -0.00033
 199       13F-1        0.00000   0.00006   0.04812   0.00003   0.00000
 200       13F+2       -0.05392   0.00029  -0.00002   0.02455  -0.01352
 201       13F-2       -0.00034   0.00000  -0.00009   0.00015  -0.00008
 202       13F+3       -0.00034   0.00450   0.00027   0.00012   0.00104
 203       13F-3        0.00000   0.00004  -0.02861  -0.00002   0.00001
 204       14F 0       -1.28746   0.00039  -0.00012   0.17080   0.01152
 205       14F+1       -0.00015  -0.15208   0.00040   0.00171   0.01086
 206       14F-1        0.00001  -0.00048  -0.12701  -0.00008   0.00003
 207       14F+2        0.19363  -0.00152   0.00007  -0.09997   0.04627
 208       14F-2        0.00121  -0.00001   0.00042  -0.00063   0.00029
 209       14F+3        0.00105   0.00263  -0.00056  -0.00022  -0.00180
 210       14F-3        0.00001   0.00002   0.05957   0.00004  -0.00002
                         206       207       208       209       210
     Eigenvalues --     0.00000   0.00000   0.00000   0.00000   0.00000
   1 1   C  1S          0.02174  -0.00002   0.00000   0.21899   0.00112
   2        2S          0.11563  -0.00009  -0.00001   1.25590   0.04435
   3        3S         -0.00613   0.00000   0.00000   0.00698   0.11078
   4        4S         -0.08274   0.00014   0.00022   9.31858   3.54704
   5        5S         -0.56001   0.00099  -0.00008   3.63696  31.40662
   6        6PX         0.00380   0.00000  -0.00002  -0.00007   0.00023
   7        6PY         0.00001  -0.00115   0.00559   0.00000   0.00000
   8        6PZ         0.00002   0.00000   0.00000   0.01347   0.01074
   9        7PX        -0.31742   0.00077   0.00041   0.00019   0.00009
  10        7PY        -0.00100  -0.24503  -0.12910   0.00000   0.00000
  11        7PZ         0.03004  -0.00001  -0.00002   1.35318   0.07139
  12        8PX        -0.31346   0.01741  -0.02153  -0.00560   0.00645
  13        8PY        -0.00103  -5.55032   6.86463   0.00006   0.00010
  14        8PZ         0.32562  -0.00022  -0.00012   5.43493  -0.01765
  15        9PX         6.33100   0.00115  -0.04391  -0.01515   0.02831
  16        9PY         0.01986  -0.36807  13.99850   0.00014   0.00033
  17        9PZ        -0.05011  -0.00017  -0.00012   5.90212  -3.83403
  18       10D 0        0.00100   0.00000   0.00000   0.08534   0.02117
  19       10D+1       -0.00687  -0.00003  -0.00007   0.00013  -0.00013
  20       10D-1       -0.00002   0.00799   0.02142   0.00000   0.00000
  21       10D+2       -0.00097   0.00000   0.00000  -0.00539  -0.04829
  22       10D-2       -0.00001   0.00003  -0.00011  -0.00003  -0.00030
  23       11D 0        0.01180  -0.00001   0.00000   0.59429  -0.21155
  24       11D+1       -0.44141   0.00043   0.00219  -0.00100   0.00256
  25       11D-1       -0.00138  -0.13764  -0.69664  -0.00002   0.00001
  26       11D+2        0.00774  -0.00002  -0.00003   0.01833   0.18846
  27       11D-2        0.00005  -0.00099   0.00262   0.00012   0.00118
  28       12D 0        0.00573  -0.00010  -0.00004   3.51344   0.24180
  29       12D+1        0.91181   0.00059   0.00124  -0.00821  -0.00242
  30       12D-1        0.00287  -0.18870  -0.39550  -0.00007   0.00003
  31       12D+2        0.15208  -0.00021  -0.00012   1.39448  -1.02272
  32       12D-2        0.00094  -0.00216   0.01915   0.00875  -0.00642
  33       13F 0        0.00448   0.00000   0.00000   0.05148  -0.04527
  34       13F+1       -0.12046   0.00005   0.00020  -0.00012   0.00063
  35       13F-1       -0.00038  -0.01566  -0.06217   0.00000   0.00000
  36       13F+2        0.00055   0.00000   0.00000  -0.00237   0.00537
  37       13F-2        0.00000   0.00006  -0.00008  -0.00001   0.00003
  38       13F+3        0.05222  -0.00044   0.00001  -0.00018  -0.00006
  39       13F-3        0.00049   0.04627  -0.00097   0.00000   0.00000
  40       14F 0       -0.01496   0.00001   0.00000  -0.01529  -0.09263
  41       14F+1       -0.04771   0.00003   0.00006   0.00053  -0.00054
  42       14F-1       -0.00015  -0.01046  -0.01987   0.00000  -0.00001
  43       14F+2       -0.01366   0.00002   0.00001   0.12736  -0.17140
  44       14F-2       -0.00009  -0.00046  -0.00135   0.00080  -0.00108
  45       14F+3       -0.03138   0.00064   0.00103   0.00011   0.00088
  46       14F-3       -0.00030  -0.06790  -0.10919   0.00000   0.00001
  47 2   Br 1S         -0.00022   0.00217  -0.00003  -0.00001   0.00009
  48        2S         -0.00147   0.01659  -0.00341  -0.00116   0.00068
  49        3S         -0.00739   0.07736  -0.00827  -0.00280   0.00321
  50        4S         -0.01995   0.22742  -0.05577  -0.01411   0.01048
  51        5S         -0.00724   0.09013  -0.15557  -0.00281  -0.00238
  52        6S          0.26793  -0.73906   1.90286   0.84504   0.04798
  53        7S          0.32449  -9.98450  14.90547   2.10009 -13.48945
  54        8PX         0.00163  -0.00001   0.00000   0.00000   0.00000
  55        8PY         0.00025   0.00098   0.00059   0.00064  -0.00039
  56        8PZ         0.00006   0.00059  -0.00003   0.00044   0.00005
  57        9PX        -0.02011  -0.00006  -0.00013   0.00008  -0.00016
  58        9PY        -0.00088   0.01662   0.00331  -0.00845   0.02557
  59        9PZ        -0.00006   0.00146   0.01303  -0.00974   0.01480
  60       10PX        -0.15394  -0.00103  -0.00153   0.00078  -0.00187
  61       10PY         0.00247   0.24639   0.06926  -0.06632   0.28080
  62       10PZ         0.00241   0.05043   0.15030  -0.09190   0.17663
  63       11PX         0.04511  -0.00005   0.00022  -0.00014   0.00018
  64       11PY         0.00445   0.00126  -0.00424   0.01862  -0.03516
  65       11PZ         0.00118   0.01553  -0.02350   0.01463  -0.01587
  66       12PX         0.65745   0.02084  -0.01339  -0.00427   0.01296
  67       12PY         0.20122  -3.69547   3.70892  -0.34972  -1.67399
  68       12PZ         0.15665  -2.35399   2.54052   1.58587  -1.31245
  69       13PX        -2.44533   0.01493  -0.01807  -0.00251   0.01984
  70       13PY        -0.02135  -3.82780   0.39349   0.83616  -3.66170
  71       13PZ         0.07261  -0.93414   2.85281  -0.92394  -2.17399
  72       14D 0       -0.00007  -0.00091  -0.00060   0.00118  -0.00097
  73       14D+1        0.00232  -0.00001   0.00001   0.00001   0.00000
  74       14D-1       -0.00004   0.00087  -0.00020  -0.00129   0.00114
  75       14D+2       -0.00002  -0.00345  -0.00108   0.00224   0.00021
  76       14D-2        0.00098  -0.00003  -0.00001   0.00002  -0.00001
  77       15D 0        0.00141   0.01490   0.00434  -0.01454   0.01322
  78       15D+1       -0.02795   0.00002  -0.00001  -0.00005  -0.00002
  79       15D-1        0.00020   0.00207  -0.01502   0.00884  -0.01737
  80       15D+2        0.00121   0.03674   0.02470  -0.02375  -0.00134
  81       15D-2       -0.02122   0.00023   0.00021  -0.00023   0.00009
  82       16D 0       -0.00930  -0.09788  -0.00357   0.08816  -0.07458
  83       16D+1        0.11120   0.00002  -0.00142   0.00038  -0.00047
  84       16D-1        0.01141  -0.02874   0.30061  -0.05033   0.16951
  85       16D+2       -0.01622  -0.19692  -0.27204   0.14439  -0.05871
  86       16D-2        0.09942  -0.00122  -0.00283   0.00161  -0.00130
  87       17D 0        0.03292   0.17259   0.16585   0.32919   0.03883
  88       17D+1       -0.21996   0.01009  -0.00475  -0.00407   0.00445
  89       17D-1        0.03573  -1.41660   1.10168   0.29431  -0.75144
  90       17D+2       -0.01454   1.77092  -0.51230   0.24919   0.34897
  91       17D-2       -0.02791   0.01685  -0.00425   0.00103   0.00673
  92       18F 0       -0.00183   0.00480   0.01923  -0.01480  -0.00453
  93       18F+1       -0.00926  -0.00042  -0.00007   0.00015  -0.00011
  94       18F-1        0.00126   0.02795  -0.02451   0.00084   0.00693
  95       18F+2       -0.00078  -0.04203   0.01315  -0.01464  -0.00846
  96       18F-2       -0.01303  -0.00070  -0.00002   0.00002  -0.00024
  97       18F+3        0.05003   0.00061  -0.00007   0.00040   0.00024
  98       18F-3        0.00214  -0.03986   0.01438  -0.01972  -0.01203
  99       19F 0        0.00250   0.02252  -0.10651   0.03109  -0.00988
 100       19F+1        0.00599   0.00130  -0.00024  -0.00054   0.00046
 101       19F-1       -0.00135  -0.10902   0.13208   0.02714  -0.02975
 102       19F+2       -0.00116   0.17816  -0.16408   0.05211   0.01749
 103       19F-2        0.02040   0.00271  -0.00137   0.00006   0.00055
 104       19F+3       -0.11087  -0.00249   0.00128  -0.00186  -0.00053
 105       19F-3       -0.00593   0.16982  -0.10689   0.09921   0.02260
 106 3   Br 1S         -0.00022  -0.00217   0.00003  -0.00001   0.00009
 107        2S         -0.00147  -0.01659   0.00341  -0.00116   0.00068
 108        3S         -0.00739  -0.07735   0.00828  -0.00279   0.00321
 109        4S         -0.01996  -0.22738   0.05578  -0.01410   0.01048
 110        5S         -0.00724  -0.09012   0.15557  -0.00281  -0.00237
 111        6S          0.26799   0.73857  -1.90313   0.84489   0.04799
 112        7S          0.32459   9.98357 -14.90557   2.09978 -13.49028
 113        8PX         0.00163   0.00000   0.00000   0.00000   0.00000
 114        8PY        -0.00024   0.00098   0.00059  -0.00064   0.00039
 115        8PZ         0.00006  -0.00059   0.00003   0.00044   0.00005
 116        9PX        -0.02012  -0.00004   0.00011   0.00003   0.00000
 117        9PY         0.00076   0.01662   0.00331   0.00845  -0.02557
 118        9PZ        -0.00006  -0.00146  -0.01303  -0.00974   0.01480
 119       10PX        -0.15392  -0.00052   0.00109   0.00036  -0.00011
 120       10PY        -0.00343   0.24641   0.06930   0.06634  -0.28083
 121       10PZ         0.00241  -0.05044  -0.15032  -0.09191   0.17664
 122       11PX         0.04514   0.00004  -0.00019  -0.00002  -0.00004
 123       11PY        -0.00417   0.00127  -0.00424  -0.01863   0.03516
 124       11PZ         0.00118  -0.01553   0.02350   0.01463  -0.01587
 125       12PX         0.65873   0.00234  -0.00987  -0.00647   0.00246
 126       12PY        -0.19715  -3.69521   3.70901   0.34987   1.67413
 127       12PZ         0.15668   2.35366  -2.54068   1.58582  -1.31256
 128       13PX        -2.44545   0.00909   0.01560   0.00274  -0.00313
 129       13PY         0.00598  -3.82774   0.39347  -0.83619   3.66180
 130       13PZ         0.07262   0.93409  -2.85273  -0.92402  -2.17415
 131       14D 0       -0.00007   0.00091   0.00060   0.00118  -0.00097
 132       14D+1        0.00232   0.00001  -0.00001   0.00000   0.00001
 133       14D-1        0.00006   0.00087  -0.00020   0.00129  -0.00114
 134       14D+2       -0.00001   0.00345   0.00108   0.00224   0.00021
 135       14D-2       -0.00098   0.00002   0.00000   0.00000   0.00001
 136       15D 0        0.00141  -0.01490  -0.00434  -0.01454   0.01322
 137       15D+1       -0.02794  -0.00004   0.00010   0.00001  -0.00013
 138       15D-1       -0.00037   0.00207  -0.01502  -0.00885   0.01737
 139       15D+2        0.00095  -0.03674  -0.02470  -0.02376  -0.00134
 140       15D-2        0.02123  -0.00023  -0.00010  -0.00006  -0.00011
 141       16D 0       -0.00930   0.09788   0.00356   0.08816  -0.07458
 142       16D+1        0.11126   0.00016  -0.00047   0.00007   0.00059
 143       16D-1       -0.01071  -0.02870   0.30064   0.05034  -0.16950
 144       16D+2       -0.01497   0.19695   0.27206   0.14441  -0.05872
 145       16D-2       -0.09961   0.00125   0.00059   0.00021   0.00056
 146       17D 0        0.03292  -0.17264  -0.16588   0.32920   0.03880
 147       17D+1       -0.21972  -0.00120  -0.00216  -0.00222  -0.00026
 148       17D-1       -0.03713  -1.41657   1.10170  -0.29429   0.75149
 149       17D+2       -0.01491  -1.77100   0.51231   0.24921   0.34904
 150       17D-2        0.02771  -0.00537   0.00218   0.00210  -0.00235
 151       18F 0       -0.00183  -0.00480  -0.01923  -0.01480  -0.00453
 152       18F+1       -0.00925   0.00025   0.00022   0.00016  -0.00006
 153       18F-1       -0.00132   0.02795  -0.02451  -0.00084  -0.00693
 154       18F+2       -0.00094   0.04204  -0.01315  -0.01464  -0.00847
 155       18F-2        0.01302  -0.00017  -0.00018  -0.00020   0.00014
 156       18F+3        0.05006   0.00014  -0.00020   0.00003   0.00001
 157       18F-3       -0.00120  -0.03986   0.01438   0.01972   0.01204
 158       19F 0        0.00250  -0.02252   0.10651   0.03110  -0.00988
 159       19F+1        0.00599  -0.00061  -0.00059  -0.00037   0.00027
 160       19F-1        0.00139  -0.10902   0.13209  -0.02714   0.02976
 161       19F+2       -0.00090  -0.17818   0.16408   0.05212   0.01750
 162       19F-2       -0.02041   0.00048   0.00069   0.00060  -0.00033
 163       19F+3       -0.11096  -0.00071   0.00073   0.00001  -0.00011
 164       19F-3        0.00384   0.16983  -0.10690  -0.09923  -0.02262
 165 4   O  1S          0.00452   0.00000   0.00000   0.09945   0.02960
 166        2S          0.02133  -0.00002  -0.00001   0.52313   0.15487
 167        3S         -0.00218   0.00000   0.00000   0.00491  -0.00584
 168        4S         -0.12131   0.00009   0.00003  -6.19818   0.01775
 169        5S         -0.32273   0.00005   0.00022 -15.14728  -8.04521
 170        6PX         0.01941  -0.00005  -0.00001   0.00001   0.00007
 171        6PY         0.00006   0.01526   0.00272   0.00000   0.00000
 172        6PZ        -0.00096   0.00000   0.00000  -0.00527   0.01151
 173        7PX        -0.03516   0.00025  -0.00012  -0.00021  -0.00044
 174        7PY        -0.00011  -0.07988   0.03681   0.00000   0.00000
 175        7PZ         0.00587  -0.00001   0.00000   0.14093  -0.13511
 176        8PX         0.79232  -0.00319  -0.00041   0.00292  -0.00105
 177        8PY         0.00249   1.01615   0.12987   0.00003  -0.00001
 178        8PZ         0.10369  -0.00002  -0.00003   3.76211   0.67428
 179        9PX        -3.47458   0.00246   0.01159   0.01552  -0.00118
 180        9PY        -0.01091  -0.78408  -3.69441   0.00002  -0.00007
 181        9PZ         0.25604  -0.00006   0.00001   0.27482   1.67584
 182       10D 0       -0.00235   0.00000   0.00000   0.05475   0.01251
 183       10D+1        0.03571   0.00000  -0.00012  -0.00021  -0.00016
 184       10D-1        0.00011   0.00145   0.03697   0.00000   0.00000
 185       10D+2       -0.00064   0.00000   0.00000  -0.02696  -0.01071
 186       10D-2        0.00000  -0.00018  -0.00007  -0.00017  -0.00007
 187       11D 0        0.00009   0.00000   0.00000  -0.40241  -0.02891
 188       11D+1       -0.23851   0.00011   0.00065   0.00066   0.00098
 189       11D-1       -0.00075  -0.03552  -0.20755   0.00000   0.00000
 190       11D+2        0.00300  -0.00001   0.00000   0.07719   0.03414
 191       11D-2        0.00002   0.00058   0.00033   0.00048   0.00021
 192       12D 0       -0.05148   0.00002   0.00000  -0.49836  -0.18919
 193       12D+1       -0.09135   0.00096  -0.00049  -0.00295   0.00044
 194       12D-1       -0.00029  -0.30741   0.15521  -0.00002   0.00000
 195       12D+2       -0.00720   0.00003   0.00001  -0.37663   0.05729
 196       12D-2       -0.00004  -0.00124  -0.00156  -0.00236   0.00036
 197       13F 0        0.00267   0.00000   0.00000   0.01822  -0.01332
 198       13F+1       -0.00541   0.00005   0.00001   0.00004   0.00005
 199       13F-1       -0.00002  -0.01476  -0.00259   0.00000   0.00000
 200       13F+2        0.00073   0.00000   0.00000  -0.01313   0.01479
 201       13F-2        0.00000   0.00000  -0.00008  -0.00008   0.00009
 202       13F+3        0.01406   0.00009  -0.00015  -0.00017   0.00013
 203       13F-3        0.00013  -0.00984   0.01627   0.00000   0.00000
 204       14F 0        0.00023   0.00000   0.00000   0.14357   0.06400
 205       14F+1        0.16979  -0.00023  -0.00030   0.00009  -0.00069
 206       14F-1        0.00053   0.07267   0.09695   0.00000   0.00000
 207       14F+2       -0.00223   0.00000   0.00000   0.05863  -0.03815
 208       14F-2       -0.00001  -0.00001   0.00018   0.00037  -0.00024
 209       14F+3       -0.02560  -0.00024   0.00027   0.00031  -0.00034
 210       14F-3       -0.00024   0.02498  -0.02838   0.00000   0.00000
          Condensed to atoms (all electrons):
              1          2          3          4
     1  C    5.559192   0.025748   0.025729   0.239657
     2  Br   0.025748  35.045296  -0.118493  -0.056254
     3  Br   0.025729  -0.118493  35.045286  -0.056256
     4  O    0.239657  -0.056254  -0.056256   8.229963
 Mulliken atomic charges:
              1
     1  C    0.149674
     2  Br   0.103702
     3  Br   0.103734
     4  O   -0.357110
 Sum of Mulliken atomic charges =   0.00000
 Mulliken charges with hydrogens summed into heavy atoms:
              1
     1  C    0.149674
     2  Br   0.103702
     3  Br   0.103734
     4  O   -0.357110
 Sum of Mulliken charges with hydrogens summed into heavy atoms =   0.00000
 Electronic spatial extent (au):  <R**2>=           1355.6288
 Charge=              0.0000 electrons
 Dipole moment (field-independent basis, Debye):
    X=              0.0012    Y=              0.0001    Z=             -1.2403  Tot=              1.2403
 Quadrupole moment (field-independent basis, Debye-Ang):
   XX=            -46.9633   YY=            -44.9358   ZZ=            -47.5253
   XY=             -0.0064   XZ=             -0.0071   YZ=             -0.0002
 Traceless Quadrupole moment (field-independent basis, Debye-Ang):
   XX=             -0.4885   YY=              1.5390   ZZ=             -1.0505
   XY=             -0.0064   XZ=             -0.0071   YZ=             -0.0002
 Octapole moment (field-independent basis, Debye-Ang**2):
  XXX=             -0.5522  YYY=              0.0009  ZZZ=            164.8165  XYY=             -0.1288
  XXY=             -0.0002  XXZ=             56.3133  XZZ=             -0.1538  YZZ=              0.0005
  YYZ=             45.7172  XYZ=              0.0332
 Hexadecapole moment (field-independent basis, Debye-Ang**3):
 XXXX=            -53.7085 YYYY=           -570.9359 ZZZZ=           -597.1031 XXXY=              0.8794
 XXXZ=              0.8501 YYYX=              0.7429 YYYZ=             -0.0017 ZZZX=              0.7703
 ZZZY=             -0.0014 XXYY=           -111.3613 XXZZ=           -110.4176 YYZZ=           -175.0977
 XXYZ=              0.0007 YYXZ=              0.1441 ZZXY=              0.2029
 N-N= 4.492301663892D+02 E-N=-1.347021784061D+04  KE= 5.257230170718D+03
 1\1\GINC-TRAPISTA\SP\RQCISD-FC\Aug-CC-pVTZ\C1Br2O1\BRUNS\28-Nov-2021\0
 \\# qcisd/aug-cc-pvtz nosymm density=current output=wfn\\br2co-wavefun
 ction\\0,1\C,0,0.,0.,-0.491759\Br,0,0.01,-1.594181,-1.54682\Br,0,0.,1.
 594181,-1.54682\O,0,0.,0.,0.6845\\Version=EM64L-G09RevB.01\HF=-5257.68
 45477\MP2=-5258.548609\MP3=-5258.5484696\MP4D=-5258.5696795\MP4DQ=-525
 8.5482002\MP4SDQ=-5258.5601671\QCISD=-5258.5577677\RMSD=9.214e-09\Dipo
 le=0.000477,0.000047,-0.4879908\Quadrupole=-0.3631808,1.1442178,-0.781
 037,-0.0047275,-0.0052654,-0.0001568\PG=C01 [X(C1Br2O1)]\\@

 Writing a WFN file to GAUSSIAN.wfn.


 THEREFORE SHALL EVIL COME UPON THEE...
 THOU SHALT NOT KNOW FROM WHENCE IT RISETH...
 AND MISCHIEF SHALL FALL UPON THEE...
 THOU SHALT NOT BE ABLE TO PUT IT OFF...
 AND DESOLATION SHALL COME UPON THEE SUDDENLY...
 WHICH THOU SHALT NOT KNOW...

                                         ISAIAH 47.11
 Job cpu time:  0 days  5 hours 59 minutes 43.5 seconds.
 File lengths (MBytes):  RWF=  23799 Int=      0 D2E=      0 Chk=      4 Scr=      1
 Normal termination of Gaussian 09 at Sun Nov 28 10:33:01 2021.
