 Entering Gaussian System, Link 0=/home/bruns/programas/chemistry/gaussian/g09/g09
 Input=GAUSSIAN.com
 Output=GAUSSIAN.log
 Initial command:
 /home/bruns/programas/chemistry/gaussian/g09/l1.exe /home/bruns/programas/chemistry/gaussian/work/Gau-1241.inp -scrdir=/home/bruns/programas/chemistry/gaussian/work/
 Entering Link 1 = /home/bruns/programas/chemistry/gaussian/g09/l1.exe PID=      1243.
  
 Copyright (c) 1988,1990,1992,1993,1995,1998,2003,2009,2010,
            Gaussian, Inc.  All Rights Reserved.
  
 This is part of the Gaussian(R) 09 program.  It is based on
 the Gaussian(R) 03 system (copyright 2003, Gaussian, Inc.),
 the Gaussian(R) 98 system (copyright 1998, Gaussian, Inc.),
 the Gaussian(R) 94 system (copyright 1995, Gaussian, Inc.),
 the Gaussian 92(TM) system (copyright 1992, Gaussian, Inc.),
 the Gaussian 90(TM) system (copyright 1990, Gaussian, Inc.),
 the Gaussian 88(TM) system (copyright 1988, Gaussian, Inc.),
 the Gaussian 86(TM) system (copyright 1986, Carnegie Mellon
 University), and the Gaussian 82(TM) system (copyright 1983,
 Carnegie Mellon University). Gaussian is a federally registered
 trademark of Gaussian, Inc.
  
 This software contains proprietary and confidential information,
 including trade secrets, belonging to Gaussian, Inc.
  
 This software is provided under written license and may be
 used, copied, transmitted, or stored only in accord with that
 written license.
  
 The following legend is applicable only to US Government
 contracts under FAR:
  
                    RESTRICTED RIGHTS LEGEND
  
 Use, reproduction and disclosure by the US Government is
 subject to restrictions as set forth in subparagraphs (a)
 and (c) of the Commercial Computer Software - Restricted
 Rights clause in FAR 52.227-19.
  
 Gaussian, Inc.
 340 Quinnipiac St., Bldg. 40, Wallingford CT 06492
  
  
 ---------------------------------------------------------------
 Warning -- This program may not be used in any manner that
 competes with the business of Gaussian, Inc. or will provide
 assistance to any competitor of Gaussian, Inc.  The licensee
 of this program is prohibited from giving any competitor of
 Gaussian, Inc. access to this program.  By using this program,
 the user acknowledges that Gaussian, Inc. is engaged in the
 business of creating and licensing software in the field of
 computational chemistry and represents and warrants to the
 licensee that it is not a competitor of Gaussian, Inc. and that
 it will not use this program in any manner prohibited above.
 ---------------------------------------------------------------
  

 Cite this work as:
 Gaussian 09, Revision B.01,
 M. J. Frisch, G. W. Trucks, H. B. Schlegel, G. E. Scuseria, 
 M. A. Robb, J. R. Cheeseman, G. Scalmani, V. Barone, B. Mennucci, 
 G. A. Petersson, H. Nakatsuji, M. Caricato, X. Li, H. P. Hratchian, 
 A. F. Izmaylov, J. Bloino, G. Zheng, J. L. Sonnenberg, M. Hada, 
 M. Ehara, K. Toyota, R. Fukuda, J. Hasegawa, M. Ishida, T. Nakajima, 
 Y. Honda, O. Kitao, H. Nakai, T. Vreven, J. A. Montgomery, Jr., 
 J. E. Peralta, F. Ogliaro, M. Bearpark, J. J. Heyd, E. Brothers, 
 K. N. Kudin, V. N. Staroverov, T. Keith, R. Kobayashi, J. Normand, 
 K. Raghavachari, A. Rendell, J. C. Burant, S. S. Iyengar, J. Tomasi, 
 M. Cossi, N. Rega, J. M. Millam, M. Klene, J. E. Knox, J. B. Cross, 
 V. Bakken, C. Adamo, J. Jaramillo, R. Gomperts, R. E. Stratmann, 
 O. Yazyev, A. J. Austin, R. Cammi, C. Pomelli, J. W. Ochterski, 
 R. L. Martin, K. Morokuma, V. G. Zakrzewski, G. A. Voth, 
 P. Salvador, J. J. Dannenberg, S. Dapprich, A. D. Daniels, 
 O. Farkas, J. B. Foresman, J. V. Ortiz, J. Cioslowski, 
 and D. J. Fox, Gaussian, Inc., Wallingford CT, 2010.
 
 ******************************************
 Gaussian 09:  EM64L-G09RevB.01 12-Aug-2010
                28-Nov-2021 
 ******************************************
 %nproc=8
 Will use up to    8 processors via shared memory.
 %mem=8GB
 -----------------------------------------------------
 # qcisd/aug-cc-pvtz nosymm density=current output=wfn
 -----------------------------------------------------
 1/30=1,38=1/1;
 2/12=2,15=1,17=6,18=5,40=1/2;
 3/5=16,6=1,7=10,11=9,16=1,25=1,30=1,71=1/1,2,3;
 4//1;
 5/5=2,38=5/2;
 8/6=4,9=120000,10=1/1,4;
 9/5=8,15=1/13;
 11/28=-7,31=1,32=3,42=3/11;
 10/5=6,13=10,31=1/2;
 6/7=2,8=2,9=2,10=2,22=-1,31=1/1;
 99/5=1,6=1100,9=1/99;
 ------------------
 br2co-wavefunction
 ------------------
 Symbolic Z-matrix:
 Charge =  0 Multiplicity = 1
 C                     0.        0.       -0.49176 
 Br                    0.       -1.59418  -1.54682 
 Br                    0.        1.59418  -1.54682 
 O                     0.       -0.01      0.6845 
 
                          Input orientation:                          
 ---------------------------------------------------------------------
 Center     Atomic      Atomic             Coordinates (Angstroms)
 Number     Number       Type             X           Y           Z
 ---------------------------------------------------------------------
      1          6           0        0.000000    0.000000   -0.491759
      2         35           0        0.000000   -1.594181   -1.546820
      3         35           0        0.000000    1.594181   -1.546820
      4          8           0        0.000000   -0.010000    0.684500
 ---------------------------------------------------------------------
                    Distance matrix (angstroms):
                    1          2          3          4
     1  C    0.000000
     2  Br   1.911692   0.000000
     3  Br   1.911692   3.188362   0.000000
     4  O    1.176302   2.736497   2.748124   0.000000
 Symmetry turned off by external request.
 Stoichiometry    CBr2O
 Framework group  CS[SG(CBr2O)]
 Deg. of freedom     5
 Full point group                 CS      NOp   2
 Rotational constants (GHZ):      6.2848091      1.2598885      1.0494998
 Standard basis: Aug-CC-pVTZ (5D, 7F)
 Integral buffers will be    131072 words long.
 Raffenetti 1 integral format.
 Two-electron integral symmetry is turned off.
   210 basis functions,   578 primitive gaussians,   248 cartesian basis functions
    42 alpha electrons       42 beta electrons
       nuclear repulsion energy       449.2315505216 Hartrees.
 NAtoms=    4 NActive=    4 NUniq=    4 SFac= 1.00D+00 NAtFMM=   50 NAOKFM=F Big=F
 One-electron integrals computed using PRISM.
 NBasis=   210 RedAO= T  NBF=   210
 NBsUse=   210 1.00D-06 NBFU=   210
 Harris functional with IExCor=  205 diagonalized for initial guess.
 ExpMin= 3.51D-02 ExpMax= 1.06D+07 ExpMxC= 1.21D+04 IAcc=3 IRadAn=         0 AccDes= 0.00D+00
 HarFok:  IExCor=  205 AccDes= 0.00D+00 IRadAn=         0 IDoV= 1
 ScaDFX=  1.000000  1.000000  1.000000  1.000000
 FoFCou: FMM=F IPFlag=           0 FMFlag=      100000 FMFlg1=           0
         NFxFlg=           0 DoJE=T BraDBF=F KetDBF=T FulRan=T
         Omega=  0.000000  0.000000  1.000000  0.000000  0.000000 ICntrl=     500 IOpCl=  0
         NMat0=    1 NMatS0=    1 NMatT0=    0 NMatD0=    1 NMtDS0=    0 NMtDT0=    0
         I1Cent=           4 NGrid=           0.
 Symmetry not used in FoFCou.
 Requested convergence on RMS density matrix=1.00D-08 within 128 cycles.
 Requested convergence on MAX density matrix=1.00D-06.
 Requested convergence on             energy=1.00D-06.
 No special actions if energy rises.
 Keep R1 ints in memory in canonical form, NReq=484604278.
 SCF Done:  E(RHF) =  -5257.68452861     A.U. after   12 cycles
             Convg  =    0.9217D-08             -V/T =  2.0000
 ExpMin= 3.51D-02 ExpMax= 1.06D+07 ExpMxC= 1.21D+04 IAcc=3 IRadAn=         5 AccDes= 0.00D+00
 HarFok:  IExCor=  205 AccDes= 0.00D+00 IRadAn=         5 IDoV=-2
 ScaDFX=  1.000000  1.000000  1.000000  1.000000
 DSYEVD returned Info=          89 IAlg= 4 N=    59 NDim=    59 NE2=    18196533 trying DSYEV.
 DSYEVD returned Info=         119 IAlg= 4 N=    59 NDim=    59 NE2=    18196533 trying DSYEV.
 Range of M.O.s used for correlation:    21   210
 NBasis=   210 NAE=    42 NBE=    42 NFC=    20 NFV=     0
 NROrb=    190 NOA=    22 NOB=    22 NVA=   168 NVB=   168

 **** Warning!!: The largest alpha MO coefficient is  0.28099332D+02

 Semi-Direct transformation.
 ModeAB=           2 MOrb=            22 LenV=    1072497305
 LASXX=     69628944 LTotXX=    69628944 LenRXX=    69628944
 LTotAB=    70719517 MaxLAS=   129061680 LenRXY=   129061680
 NonZer=   139257888 LenScr=   209707008 LnRSAI=           0
 LnScr1=           0 LExtra=           0 Total=    408397632
 MaxDsk=          -1 SrtSym=           F ITran=            4
 JobTyp=0 Pass  1:  I=   1 to  22.
 (rs|ai) integrals will be sorted in core.
 Spin components of T(2) and E(2):
     alpha-alpha T2 =       0.3832281371D-01 E2=     -0.1232788640D+00
     alpha-beta  T2 =       0.1924967468D+00 E2=     -0.6175103230D+00
     beta-beta   T2 =       0.3832281371D-01 E2=     -0.1232788640D+00
 ANorm=    0.1126562193D+01
 E2 =    -0.8640680510D+00 EUMP2 =    -0.52585485966571D+04
 R2 and R3 integrals will be kept in memory, NReq=   961077252.
 Iterations=  50 Convergence= 0.100D-07
 Iteration Nr.   1
 **********************
 DD1Dir will call FoFMem   1 times, MxPair=       506
 NAB=   253 NAA=     0 NBB=     0.
 MP4(R+Q)=  0.21479686D-01
 E3=        0.14215041D-03        EUMP3=      -0.52585484545D+04
 E4(DQ)=    0.26865544D-03        UMP4(DQ)=   -0.52585481859D+04
 E4(SDQ)=  -0.11699222D-01        UMP4(SDQ)=  -0.52585601537D+04
 DE(Corr)= -0.84244621     E(Corr)=     -5258.5269748    
 NORM(A)=   0.11248501D+01
 Iteration Nr.   2
 **********************
 DD1Dir will call FoFMem   1 times, MxPair=       506
 NAB=   253 NAA=     0 NBB=     0.
 DE(Corr)= -0.87234434     E(CORR)=     -5258.5568729     Delta=-2.99D-02
 NORM(A)=   0.11352503D+01
 Iteration Nr.   3
 **********************
 DD1Dir will call FoFMem   1 times, MxPair=       506
 NAB=   253 NAA=     0 NBB=     0.
 DE(Corr)= -0.87023970     E(CORR)=     -5258.5547683     Delta= 2.10D-03
 NORM(A)=   0.11380127D+01
 Iteration Nr.   4
 **********************
 DD1Dir will call FoFMem   1 times, MxPair=       506
 NAB=   253 NAA=     0 NBB=     0.
 DE(Corr)= -0.87277039     E(CORR)=     -5258.5572990     Delta=-2.53D-03
 NORM(A)=   0.11393258D+01
 Iteration Nr.   5
 **********************
 DD1Dir will call FoFMem   1 times, MxPair=       506
 NAB=   253 NAA=     0 NBB=     0.
 DE(Corr)= -0.87314492     E(CORR)=     -5258.5576735     Delta=-3.75D-04
 NORM(A)=   0.11398408D+01
 Iteration Nr.   6
 **********************
 DD1Dir will call FoFMem   1 times, MxPair=       506
 NAB=   253 NAA=     0 NBB=     0.
 DE(Corr)= -0.87320921     E(CORR)=     -5258.5577378     Delta=-6.43D-05
 NORM(A)=   0.11399449D+01
 Iteration Nr.   7
 **********************
 DD1Dir will call FoFMem   1 times, MxPair=       506
 NAB=   253 NAA=     0 NBB=     0.
 DE(Corr)= -0.87322352     E(CORR)=     -5258.5577521     Delta=-1.43D-05
 NORM(A)=   0.11399537D+01
 Iteration Nr.   8
 **********************
 DD1Dir will call FoFMem   1 times, MxPair=       506
 NAB=   253 NAA=     0 NBB=     0.
 DE(Corr)= -0.87322386     E(CORR)=     -5258.5577525     Delta=-3.41D-07
 NORM(A)=   0.11399688D+01
 Iteration Nr.   9
 **********************
 DD1Dir will call FoFMem   1 times, MxPair=       506
 NAB=   253 NAA=     0 NBB=     0.
 DE(Corr)= -0.87322193     E(CORR)=     -5258.5577505     Delta= 1.93D-06
 NORM(A)=   0.11399687D+01
 Iteration Nr.  10
 **********************
 DD1Dir will call FoFMem   1 times, MxPair=       506
 NAB=   253 NAA=     0 NBB=     0.
 DE(Corr)= -0.87322334     E(CORR)=     -5258.5577520     Delta=-1.41D-06
 NORM(A)=   0.11399714D+01
 Iteration Nr.  11
 **********************
 DD1Dir will call FoFMem   1 times, MxPair=       506
 NAB=   253 NAA=     0 NBB=     0.
 DE(Corr)= -0.87322448     E(CORR)=     -5258.5577531     Delta=-1.13D-06
 NORM(A)=   0.11399733D+01
 Iteration Nr.  12
 **********************
 DD1Dir will call FoFMem   1 times, MxPair=       506
 NAB=   253 NAA=     0 NBB=     0.
 DE(Corr)= -0.87322479     E(CORR)=     -5258.5577534     Delta=-3.18D-07
 NORM(A)=   0.11399743D+01
 Iteration Nr.  13
 **********************
 DD1Dir will call FoFMem   1 times, MxPair=       506
 NAB=   253 NAA=     0 NBB=     0.
 DE(Corr)= -0.87322526     E(CORR)=     -5258.5577539     Delta=-4.66D-07
 NORM(A)=   0.11399750D+01
 Iteration Nr.  14
 **********************
 DD1Dir will call FoFMem   1 times, MxPair=       506
 NAB=   253 NAA=     0 NBB=     0.
 DE(Corr)= -0.87322537     E(CORR)=     -5258.5577540     Delta=-1.10D-07
 NORM(A)=   0.11399753D+01
 Iteration Nr.  15
 **********************
 DD1Dir will call FoFMem   1 times, MxPair=       506
 NAB=   253 NAA=     0 NBB=     0.
 DE(Corr)= -0.87322544     E(CORR)=     -5258.5577540     Delta=-6.92D-08
 NORM(A)=   0.11399755D+01
 Iteration Nr.  16
 **********************
 DD1Dir will call FoFMem   1 times, MxPair=       506
 NAB=   253 NAA=     0 NBB=     0.
 DE(Corr)= -0.87322547     E(CORR)=     -5258.5577541     Delta=-3.04D-08
 NORM(A)=   0.11399755D+01
 Iteration Nr.  17
 **********************
 DD1Dir will call FoFMem   1 times, MxPair=       506
 NAB=   253 NAA=     0 NBB=     0.
 DE(Corr)= -0.87322547     E(CORR)=     -5258.5577541     Delta= 3.26D-09
 NORM(A)=   0.11399755D+01
 Iteration Nr.  18
 **********************
 DD1Dir will call FoFMem   1 times, MxPair=       506
 NAB=   253 NAA=     0 NBB=     0.
 DE(Corr)= -0.87322547     E(CORR)=     -5258.5577541     Delta=-4.22D-09
 NORM(A)=   0.11399755D+01
 Iteration Nr.  19
 **********************
 DD1Dir will call FoFMem   1 times, MxPair=       506
 NAB=   253 NAA=     0 NBB=     0.
 DE(Corr)= -0.87322547     E(CORR)=     -5258.5577541     Delta= 2.11D-09
 NORM(A)=   0.11399755D+01
 Iteration Nr.  20
 **********************
 DD1Dir will call FoFMem   1 times, MxPair=       506
 NAB=   253 NAA=     0 NBB=     0.
 DE(Corr)= -0.87322547     E(CORR)=     -5258.5577541     Delta=-3.14D-09
 NORM(A)=   0.11399755D+01
 Iteration Nr.  21
 **********************
 DD1Dir will call FoFMem   1 times, MxPair=       506
 NAB=   253 NAA=     0 NBB=     0.
 DE(Corr)= -0.87322546     E(CORR)=     -5258.5577541     Delta= 6.92D-09
 NORM(A)=   0.11399755D+01
 Iteration Nr.  22
 **********************
 DD1Dir will call FoFMem   1 times, MxPair=       506
 NAB=   253 NAA=     0 NBB=     0.
 DE(Corr)= -0.87322547     E(CORR)=     -5258.5577541     Delta=-4.64D-09
 NORM(A)=   0.11399755D+01
 Iteration Nr.  23
 **********************
 DD1Dir will call FoFMem   1 times, MxPair=       506
 NAB=   253 NAA=     0 NBB=     0.
 DE(Corr)= -0.87322547     E(CORR)=     -5258.5577541     Delta=-3.17D-10
 NORM(A)=   0.11399755D+01
 Iteration Nr.  24
 **********************
 DD1Dir will call FoFMem   1 times, MxPair=       506
 NAB=   253 NAA=     0 NBB=     0.
 DE(Corr)= -0.87322547     E(CORR)=     -5258.5577541     Delta=-6.87D-10
 NORM(A)=   0.11399755D+01
 Largest amplitude= 4.23D-02

 Z-AMPLITUDE ITERATIONS

 Iteration Nr.   1
 **********************
 DD1Dir will call FoFMem   1 times, MxPair=       506
 NAB=   253 NAA=     0 NBB=     0.
 DE(Z)  -0.84605000D+00          E(Z)=    -0.52585305786D+04
 NORM(A)=   0.11396267D+01
 Iteration Nr.   2
 **********************
 DD1Dir will call FoFMem   1 times, MxPair=       506
 NAB=   253 NAA=     0 NBB=     0.
 DE(Z)  -0.84604941D+00          E(Z)=    -0.52585305780D+04
 NORM(A)=   0.11395209D+01
 Iteration Nr.   3
 **********************
 DD1Dir will call FoFMem   1 times, MxPair=       506
 NAB=   253 NAA=     0 NBB=     0.
 DE(Z)  -0.84604939D+00          E(Z)=    -0.52585305780D+04
 NORM(A)=   0.11381099D+01
 Iteration Nr.   4
 **********************
 DD1Dir will call FoFMem   1 times, MxPair=       506
 NAB=   253 NAA=     0 NBB=     0.
 DE(Z)  -0.84604796D+00          E(Z)=    -0.52585305766D+04
 NORM(A)=   0.11385528D+01
 Iteration Nr.   5
 **********************
 DD1Dir will call FoFMem   1 times, MxPair=       506
 NAB=   253 NAA=     0 NBB=     0.
 DE(Z)  -0.84604435D+00          E(Z)=    -0.52585305730D+04
 NORM(A)=   0.11301211D+01
 Iteration Nr.   6
 **********************
 DD1Dir will call FoFMem   1 times, MxPair=       506
 NAB=   253 NAA=     0 NBB=     0.
 DE(Z)  -0.84601999D+00          E(Z)=    -0.52585305486D+04
 NORM(A)=   0.11301216D+01
 Iteration Nr.   7
 **********************
 DD1Dir will call FoFMem   1 times, MxPair=       506
 NAB=   253 NAA=     0 NBB=     0.
 DE(Z)  -0.84601762D+00          E(Z)=    -0.52585305462D+04
 NORM(A)=   0.11301222D+01
 Iteration Nr.   8
 **********************
 DD1Dir will call FoFMem   1 times, MxPair=       506
 NAB=   253 NAA=     0 NBB=     0.
 DE(Z)  -0.84601824D+00          E(Z)=    -0.52585305468D+04
 NORM(A)=   0.11301224D+01
 Iteration Nr.   9
 **********************
 DD1Dir will call FoFMem   1 times, MxPair=       506
 NAB=   253 NAA=     0 NBB=     0.
 DE(Z)  -0.84601783D+00          E(Z)=    -0.52585305464D+04
 NORM(A)=   0.11301226D+01
 Iteration Nr.  10
 **********************
 DD1Dir will call FoFMem   1 times, MxPair=       506
 NAB=   253 NAA=     0 NBB=     0.
 DE(Z)  -0.84601789D+00          E(Z)=    -0.52585305465D+04
 NORM(A)=   0.11301227D+01
 Iteration Nr.  11
 **********************
 DD1Dir will call FoFMem   1 times, MxPair=       506
 NAB=   253 NAA=     0 NBB=     0.
 DE(Z)  -0.84601791D+00          E(Z)=    -0.52585305465D+04
 NORM(A)=   0.11301227D+01
 Iteration Nr.  12
 **********************
 DD1Dir will call FoFMem   1 times, MxPair=       506
 NAB=   253 NAA=     0 NBB=     0.
 DE(Z)  -0.84601791D+00          E(Z)=    -0.52585305465D+04
 NORM(A)=   0.11301228D+01
 Iteration Nr.  13
 **********************
 DD1Dir will call FoFMem   1 times, MxPair=       506
 NAB=   253 NAA=     0 NBB=     0.
 DE(Z)  -0.84601792D+00          E(Z)=    -0.52585305465D+04
 NORM(A)=   0.11301228D+01
 Iteration Nr.  14
 **********************
 DD1Dir will call FoFMem   1 times, MxPair=       506
 NAB=   253 NAA=     0 NBB=     0.
 DE(Z)  -0.84601793D+00          E(Z)=    -0.52585305465D+04
 NORM(A)=   0.11301227D+01
 Iteration Nr.  15
 **********************
 DD1Dir will call FoFMem   1 times, MxPair=       506
 NAB=   253 NAA=     0 NBB=     0.
 DE(Z)  -0.84601792D+00          E(Z)=    -0.52585305465D+04
 NORM(A)=   0.11301227D+01
 Iteration Nr.  16
 **********************
 DD1Dir will call FoFMem   1 times, MxPair=       506
 NAB=   253 NAA=     0 NBB=     0.
 DE(Z)  -0.84601792D+00          E(Z)=    -0.52585305465D+04
 NORM(A)=   0.11301227D+01
 Iteration Nr.  17
 **********************
 DD1Dir will call FoFMem   1 times, MxPair=       506
 NAB=   253 NAA=     0 NBB=     0.
 DE(Z)  -0.84601792D+00          E(Z)=    -0.52585305465D+04
 NORM(A)=   0.11301227D+01
 Discarding MO integrals.
          Differentiating once with respect to electric field.
                with respect to dipole field.
          Electric field/nuclear overlap derivatives assumed to be zero.
          Keep R1 ints in memory in canonical form, NReq=478620341.
          There are     1 degrees of freedom in the 1st order CPHF.  IDoFFX=0.
 LinEq1:  Iter=  0 NonCon=     1 RMS=1.95D-03 Max=5.61D-02
 AX will form     1 AO Fock derivatives at one time.
 LinEq1:  Iter=  1 NonCon=     1 RMS=7.40D-04 Max=2.60D-02
 LinEq1:  Iter=  2 NonCon=     1 RMS=3.09D-04 Max=9.34D-03
 LinEq1:  Iter=  3 NonCon=     1 RMS=1.03D-04 Max=2.97D-03
 LinEq1:  Iter=  4 NonCon=     1 RMS=5.33D-05 Max=1.64D-03
 LinEq1:  Iter=  5 NonCon=     1 RMS=1.64D-05 Max=4.65D-04
 LinEq1:  Iter=  6 NonCon=     1 RMS=6.29D-06 Max=1.31D-04
 LinEq1:  Iter=  7 NonCon=     1 RMS=1.35D-06 Max=2.12D-05
 LinEq1:  Iter=  8 NonCon=     1 RMS=2.69D-07 Max=4.30D-06
 LinEq1:  Iter=  9 NonCon=     1 RMS=6.50D-08 Max=1.21D-06
 LinEq1:  Iter= 10 NonCon=     1 RMS=1.39D-08 Max=2.08D-07
 LinEq1:  Iter= 11 NonCon=     1 RMS=3.90D-09 Max=9.56D-08
 LinEq1:  Iter= 12 NonCon=     1 RMS=7.22D-10 Max=1.62D-08
 LinEq1:  Iter= 13 NonCon=     1 RMS=1.29D-10 Max=2.64D-09
 LinEq1:  Iter= 14 NonCon=     0 RMS=3.61D-11 Max=6.70D-10
 Linear equations converged to 1.000D-10 1.000D-09 after    14 iterations.
 End of Minotr Frequency-dependent properties file   721 does not exist.
 End of Minotr Frequency-dependent properties file   722 does not exist.

 **********************************************************************

            Population analysis using the QCI/CC density.

 **********************************************************************

     Natural Orbital Coefficients:
                           1         2         3         4         5
     Eigenvalues --     2.00002   2.00002   2.00001   2.00001   2.00001
   1 1   C  1S          0.36871  -0.00622  -0.00220  -0.22662  -0.00385
   2        2S         -0.01008   0.00016   0.00003   0.00242   0.00004
   3        3S          0.01427  -0.00024  -0.00009  -0.00945  -0.00016
   4        4S         -0.01303   0.00025   0.00003   0.00312  -0.00023
   5        5S         -0.00451   0.00011   0.00002  -0.00268  -0.00010
   6        6PX         0.00000   0.00000   0.00000   0.00000   0.00000
   7        6PY        -0.00005  -0.00267   0.00002   0.00000  -0.00022
   8        6PZ         0.00168  -0.00004   0.00000   0.00013   0.00002
   9        7PX         0.00000   0.00000   0.00000   0.00000   0.00000
  10        7PY        -0.00010  -0.00460   0.00025   0.00000  -0.00040
  11        7PZ         0.00463  -0.00009  -0.00001  -0.00083   0.00000
  12        8PX         0.00000   0.00000   0.00000   0.00000   0.00000
  13        8PY        -0.00009  -0.00445  -0.00124   0.00003  -0.00548
  14        8PZ         0.00379  -0.00007   0.00001  -0.00073   0.00042
  15        9PX         0.00000   0.00000   0.00000   0.00000   0.00000
  16        9PY         0.00002   0.00073   0.00166  -0.00002  -0.00171
  17        9PZ         0.00022  -0.00001  -0.00001   0.00050   0.00001
  18       10D 0        0.00031   0.00000   0.00000  -0.00019  -0.00001
  19       10D+1        0.00000   0.00000   0.00000   0.00000   0.00000
  20       10D-1        0.00000   0.00043  -0.00008   0.00000  -0.00005
  21       10D+2        0.00012   0.00000   0.00000   0.00016  -0.00001
  22       10D-2        0.00000   0.00000   0.00000   0.00000   0.00000
  23       11D 0       -0.00006   0.00002   0.00000   0.00010  -0.00002
  24       11D+1        0.00000   0.00000   0.00000   0.00000   0.00000
  25       11D-1        0.00004   0.00163   0.00028   0.00000  -0.00033
  26       11D+2        0.00172  -0.00002  -0.00001  -0.00053  -0.00001
  27       11D-2        0.00000   0.00000   0.00000   0.00000   0.00000
  28       12D 0       -0.00041   0.00003   0.00000   0.00015   0.00000
  29       12D+1        0.00000   0.00000   0.00000   0.00000   0.00000
  30       12D-1        0.00006   0.00263   0.00133  -0.00002   0.00130
  31       12D+2        0.00098   0.00000   0.00000  -0.00010   0.00004
  32       12D-2        0.00000   0.00000   0.00000   0.00000   0.00000
  33       13F 0        0.00016   0.00000   0.00000  -0.00015  -0.00001
  34       13F+1        0.00000   0.00000   0.00000   0.00000   0.00000
  35       13F-1        0.00000  -0.00001   0.00006   0.00000   0.00000
  36       13F+2        0.00001   0.00000   0.00000  -0.00003   0.00000
  37       13F-2        0.00000   0.00000   0.00000   0.00000   0.00000
  38       13F+3        0.00000   0.00000   0.00000   0.00000   0.00000
  39       13F-3        0.00000  -0.00008  -0.00003   0.00000  -0.00004
  40       14F 0       -0.00019   0.00001   0.00000   0.00053   0.00003
  41       14F+1        0.00000   0.00000   0.00000   0.00000   0.00000
  42       14F-1        0.00002   0.00069   0.00003   0.00000  -0.00006
  43       14F+2       -0.00013   0.00001   0.00000   0.00040  -0.00002
  44       14F-2        0.00000   0.00000   0.00000   0.00000   0.00000
  45       14F+3        0.00000   0.00000   0.00000   0.00000   0.00000
  46       14F-3        0.00000   0.00023   0.00012   0.00000   0.00028
  47 2   Br 1S         -0.04394   0.04074  -0.08373  -0.08027  -0.00115
  48        2S          0.16268  -0.15081   0.31182   0.29901   0.00434
  49        3S         -0.34284   0.31622  -0.67237  -0.64512  -0.00936
  50        4S         -0.00110   0.00101  -0.00201  -0.00223   0.00015
  51        5S         -0.01827   0.01691  -0.03254  -0.03105  -0.00041
  52        6S          0.00351  -0.00271  -0.00748  -0.00678  -0.00320
  53        7S          0.00220   0.00035   0.00264   0.00136  -0.00300
  54        8PX         0.00000   0.00000   0.00000   0.00000   0.00000
  55        8PY         0.18801  -0.22403  -0.09853  -0.08125   0.14206
  56        8PZ         0.11664  -0.13334  -0.05304  -0.07282  -0.24108
  57        9PX         0.00000   0.00000   0.00000   0.00000   0.00000
  58        9PY        -0.48921   0.58591   0.27647   0.22736  -0.40181
  59        9PZ        -0.30416   0.34825   0.14820   0.20442   0.67918
  60       10PX         0.00000   0.00000   0.00000   0.00000   0.00000
  61       10PY         0.00227  -0.00074  -0.00010  -0.00077  -0.00120
  62       10PZ         0.00125  -0.00094  -0.00018  -0.00028   0.00108
  63       11PX         0.00000   0.00000   0.00000   0.00000   0.00000
  64       11PY        -0.02321   0.02780   0.01266   0.01033  -0.01787
  65       11PZ        -0.01456   0.01660   0.00675   0.00932   0.03027
  66       12PX         0.00000   0.00000   0.00000   0.00000   0.00000
  67       12PY         0.00153   0.00116   0.00135   0.00035  -0.00404
  68       12PZ         0.00074   0.00022   0.00063   0.00061   0.00211
  69       13PX         0.00000   0.00000   0.00000   0.00000   0.00000
  70       13PY         0.00040  -0.00009   0.00024   0.00021  -0.00019
  71       13PZ         0.00031   0.00000   0.00031   0.00006  -0.00063
  72       14D 0        0.00250  -0.00297  -0.00113  -0.00195  -0.00848
  73       14D+1        0.00000   0.00000   0.00000   0.00000   0.00000
  74       14D-1       -0.02330   0.02711   0.00548   0.00467  -0.00444
  75       14D+2        0.01412  -0.01663  -0.00384  -0.00410  -0.00479
  76       14D-2        0.00000   0.00000   0.00000   0.00000   0.00000
  77       15D 0        0.00027  -0.00022  -0.00007  -0.00014  -0.00052
  78       15D+1        0.00000   0.00000   0.00000   0.00000   0.00000
  79       15D-1       -0.00240   0.00267   0.00029   0.00028  -0.00027
  80       15D+2        0.00159  -0.00168  -0.00021  -0.00023  -0.00029
  81       15D-2        0.00000   0.00000   0.00000   0.00000   0.00000
  82       16D 0        0.00003  -0.00021  -0.00003  -0.00002  -0.00031
  83       16D+1        0.00000   0.00000   0.00000   0.00000   0.00000
  84       16D-1        0.00108  -0.00065   0.00011  -0.00027  -0.00025
  85       16D+2       -0.00081   0.00039  -0.00005   0.00007  -0.00013
  86       16D-2        0.00000   0.00000   0.00000   0.00000   0.00000
  87       17D 0       -0.00005   0.00003   0.00005  -0.00003   0.00003
  88       17D+1        0.00000   0.00000   0.00000   0.00000   0.00000
  89       17D-1        0.00052  -0.00035   0.00003  -0.00004  -0.00042
  90       17D+2       -0.00052  -0.00011  -0.00021   0.00008   0.00029
  91       17D-2        0.00000   0.00000   0.00000   0.00000   0.00000
  92       18F 0        0.00023  -0.00030  -0.00009  -0.00006   0.00005
  93       18F+1        0.00000   0.00000   0.00000   0.00000   0.00000
  94       18F-1       -0.00009   0.00012   0.00002   0.00003   0.00036
  95       18F+2        0.00037  -0.00043  -0.00010  -0.00009  -0.00002
  96       18F-2        0.00000   0.00000   0.00000   0.00000   0.00000
  97       18F+3        0.00000   0.00000   0.00000   0.00000   0.00000
  98       18F-3        0.00020  -0.00023  -0.00003  -0.00004   0.00014
  99       19F 0       -0.00029   0.00030   0.00007   0.00014  -0.00006
 100       19F+1        0.00000   0.00000   0.00000   0.00000   0.00000
 101       19F-1        0.00022  -0.00030  -0.00001  -0.00010  -0.00034
 102       19F+2       -0.00063   0.00047   0.00004   0.00019   0.00002
 103       19F-2        0.00000   0.00000   0.00000   0.00000   0.00000
 104       19F+3        0.00000   0.00000   0.00000   0.00000   0.00000
 105       19F-3       -0.00035   0.00018  -0.00004   0.00005  -0.00017
 106 3   Br 1S         -0.04517  -0.03895   0.08310  -0.08113   0.00215
 107        2S          0.16723   0.14417  -0.30951   0.30221  -0.00808
 108        3S         -0.35231  -0.30216   0.66741  -0.65205   0.01757
 109        4S         -0.00113  -0.00096   0.00199  -0.00225  -0.00015
 110        5S         -0.01879  -0.01617   0.03230  -0.03139   0.00080
 111        6S          0.00366   0.00262   0.00743  -0.00688   0.00370
 112        7S          0.00218  -0.00046  -0.00266   0.00139   0.00315
 113        8PX         0.00000   0.00000   0.00000   0.00000   0.00000
 114        8PY        -0.19577  -0.21722  -0.09786   0.08167   0.12141
 115        8PZ         0.12209   0.12962   0.05177  -0.07279   0.21279
 116        9PX         0.00000   0.00000   0.00000   0.00000   0.00000
 117        9PY         0.50946   0.56816   0.27461  -0.22861  -0.34422
 118        9PZ        -0.31842  -0.33849  -0.14471   0.20444  -0.59927
 119       10PX         0.00000   0.00000   0.00000   0.00000   0.00000
 120       10PY        -0.00231  -0.00065  -0.00010   0.00078  -0.00124
 121       10PZ         0.00129   0.00091   0.00018  -0.00029  -0.00089
 122       11PX         0.00000   0.00000   0.00000   0.00000   0.00000
 123       11PY         0.02418   0.02696   0.01257  -0.01039  -0.01531
 124       11PZ        -0.01524  -0.01614  -0.00659   0.00932  -0.02672
 125       12PX         0.00000   0.00000   0.00000   0.00000   0.00000
 126       12PY        -0.00151   0.00124   0.00136  -0.00034  -0.00403
 127       12PZ         0.00072  -0.00022  -0.00062   0.00061  -0.00164
 128       13PX         0.00000   0.00000   0.00000   0.00000   0.00000
 129       13PY        -0.00041  -0.00007   0.00025  -0.00021  -0.00023
 130       13PZ         0.00031  -0.00001  -0.00032   0.00007   0.00064
 131       14D 0        0.00240   0.00266   0.00109  -0.00192   0.00729
 132       14D+1        0.00000   0.00000   0.00000   0.00000   0.00000
 133       14D-1        0.02435   0.02639   0.00550  -0.00474  -0.00353
 134       14D+2        0.01467   0.01607   0.00379  -0.00410   0.00438
 135       14D-2        0.00000   0.00000   0.00000   0.00000   0.00000
 136       15D 0        0.00026   0.00020   0.00006  -0.00014   0.00045
 137       15D+1        0.00000   0.00000   0.00000   0.00000   0.00000
 138       15D-1        0.00251   0.00259   0.00029  -0.00028  -0.00022
 139       15D+2        0.00165   0.00162   0.00020  -0.00023   0.00027
 140       15D-2        0.00000   0.00000   0.00000   0.00000   0.00000
 141       16D 0        0.00004   0.00021   0.00003  -0.00002   0.00026
 142       16D+1        0.00000   0.00000   0.00000   0.00000   0.00000
 143       16D-1       -0.00112  -0.00062   0.00012   0.00027  -0.00024
 144       16D+2       -0.00083  -0.00036   0.00005   0.00007   0.00008
 145       16D-2        0.00000   0.00000   0.00000   0.00000   0.00000
 146       17D 0       -0.00005  -0.00002  -0.00005  -0.00003  -0.00006
 147       17D+1        0.00000   0.00000   0.00000   0.00000   0.00000
 148       17D-1       -0.00053  -0.00034   0.00004   0.00004  -0.00045
 149       17D+2       -0.00052   0.00014   0.00021   0.00009  -0.00033
 150       17D-2        0.00000   0.00000   0.00000   0.00000   0.00000
 151       18F 0        0.00024   0.00029   0.00008  -0.00006  -0.00004
 152       18F+1        0.00000   0.00000   0.00000   0.00000   0.00000
 153       18F-1        0.00010   0.00012   0.00002  -0.00003   0.00031
 154       18F+2        0.00039   0.00041   0.00010  -0.00009   0.00002
 155       18F-2        0.00000   0.00000   0.00000   0.00000   0.00000
 156       18F+3        0.00000   0.00000   0.00000   0.00000   0.00000
 157       18F-3       -0.00021  -0.00022  -0.00003   0.00004   0.00013
 158       19F 0       -0.00030  -0.00029  -0.00006   0.00014   0.00005
 159       19F+1        0.00000   0.00000   0.00000   0.00000   0.00000
 160       19F-1       -0.00024  -0.00029  -0.00001   0.00010  -0.00029
 161       19F+2       -0.00065  -0.00045  -0.00004   0.00018  -0.00001
 162       19F-2        0.00000   0.00000   0.00000   0.00000   0.00000
 163       19F+3        0.00000   0.00000   0.00000   0.00000   0.00000
 164       19F-3        0.00036   0.00016  -0.00004  -0.00005  -0.00016
 165 4   O  1S         -0.06939   0.00160   0.00089   0.06979   0.01009
 166        2S          0.00100  -0.00003  -0.00002  -0.00156  -0.00020
 167        3S         -0.00290   0.00007   0.00004   0.00289   0.00043
 168        4S          0.00121  -0.00003   0.00000  -0.00065  -0.00013
 169        5S          0.00068  -0.00003  -0.00001   0.00103  -0.00016
 170        6PX         0.00000   0.00000   0.00000   0.00000   0.00000
 171        6PY         0.00001   0.00064   0.00030   0.00000   0.00016
 172        6PZ         0.00056  -0.00001   0.00000  -0.00049  -0.00004
 173        7PX         0.00000   0.00000   0.00000   0.00000   0.00000
 174        7PY         0.00000   0.00074   0.00032   0.00000   0.00032
 175        7PZ         0.00066   0.00000  -0.00001  -0.00046   0.00000
 176        8PX         0.00000   0.00000   0.00000   0.00000   0.00000
 177        8PY        -0.00002  -0.00025  -0.00010  -0.00001   0.00110
 178        8PZ         0.00037  -0.00001  -0.00001  -0.00086  -0.00008
 179        9PX         0.00000   0.00000   0.00000   0.00000   0.00000
 180        9PY        -0.00002  -0.00070  -0.00065   0.00001   0.00016
 181        9PZ         0.00018   0.00000   0.00001  -0.00039   0.00005
 182       10D 0       -0.00003   0.00000   0.00000   0.00002   0.00000
 183       10D+1        0.00000   0.00000   0.00000   0.00000   0.00000
 184       10D-1        0.00000   0.00003  -0.00002   0.00000   0.00001
 185       10D+2        0.00003   0.00000   0.00000   0.00000   0.00000
 186       10D-2        0.00000   0.00000   0.00000   0.00000   0.00000
 187       11D 0       -0.00024   0.00001   0.00000   0.00016   0.00000
 188       11D+1        0.00000   0.00000   0.00000   0.00000   0.00000
 189       11D-1        0.00001   0.00016   0.00010   0.00000  -0.00008
 190       11D+2       -0.00009   0.00000   0.00000  -0.00003   0.00000
 191       11D-2        0.00000   0.00000   0.00000   0.00000   0.00000
 192       12D 0       -0.00043   0.00002   0.00001   0.00029   0.00005
 193       12D+1        0.00000   0.00000   0.00000   0.00000   0.00000
 194       12D-1        0.00001   0.00031   0.00009   0.00000  -0.00035
 195       12D+2       -0.00022   0.00000   0.00000  -0.00012  -0.00001
 196       12D-2        0.00000   0.00000   0.00000   0.00000   0.00000
 197       13F 0       -0.00009   0.00000   0.00000   0.00004   0.00000
 198       13F+1        0.00000   0.00000   0.00000   0.00000   0.00000
 199       13F-1        0.00000  -0.00001   0.00000   0.00000   0.00003
 200       13F+2        0.00000   0.00000   0.00000  -0.00001   0.00000
 201       13F-2        0.00000   0.00000   0.00000   0.00000   0.00000
 202       13F+3        0.00000   0.00000   0.00000   0.00000   0.00000
 203       13F-3        0.00000  -0.00002   0.00001   0.00000  -0.00001
 204       14F 0        0.00026  -0.00001   0.00000  -0.00008   0.00000
 205       14F+1        0.00000   0.00000   0.00000   0.00000   0.00000
 206       14F-1        0.00000  -0.00006  -0.00005   0.00000  -0.00003
 207       14F+2        0.00013   0.00000   0.00000   0.00003   0.00001
 208       14F-2        0.00000   0.00000   0.00000   0.00000   0.00000
 209       14F+3        0.00000   0.00000   0.00000   0.00000   0.00000
 210       14F-3        0.00000   0.00005  -0.00003   0.00000   0.00001
                           6         7         8         9        10
     Eigenvalues --     2.00001   2.00001   2.00001   2.00001   2.00000
   1 1   C  1S         -0.07107   0.00000   0.44610   0.00000   0.75548
   2        2S          0.00074   0.00000  -0.00530   0.00000  -0.00716
   3        3S         -0.00303   0.00000   0.01862   0.00000   0.03174
   4        4S         -0.00336   0.00000   0.00150   0.00000   0.00272
   5        5S         -0.00154   0.00000   0.00075   0.00000   0.00266
   6        6PX         0.00000   0.00000   0.00000   0.00062   0.00000
   7        6PY         0.00002   0.00000   0.00000   0.00000   0.00001
   8        6PZ         0.00030   0.00000  -0.00086   0.00000  -0.00115
   9        7PX         0.00000   0.00000   0.00000   0.00104   0.00000
  10        7PY         0.00005   0.00000   0.00000   0.00000  -0.00003
  11        7PZ        -0.00002   0.00000  -0.00079   0.00000   0.00322
  12        8PX         0.00000   0.00000   0.00000   0.00130   0.00000
  13        8PY         0.00042   0.00000  -0.00001   0.00000  -0.00002
  14        8PZ         0.00570   0.00000  -0.00022   0.00000  -0.00151
  15        9PX         0.00000   0.00000   0.00000   0.00004   0.00000
  16        9PY         0.00012   0.00000   0.00000   0.00000  -0.00001
  17        9PZ         0.00016   0.00000  -0.00020   0.00000  -0.00014
  18       10D 0       -0.00016   0.00000   0.00010   0.00000   0.00067
  19       10D+1        0.00000   0.00000   0.00000  -0.00010   0.00000
  20       10D-1        0.00001   0.00000   0.00000   0.00000  -0.00001
  21       10D+2       -0.00008   0.00000  -0.00015   0.00000  -0.00020
  22       10D-2        0.00000   0.00009   0.00000   0.00000   0.00000
  23       11D 0       -0.00036   0.00000  -0.00087   0.00000   0.00096
  24       11D+1        0.00000   0.00000   0.00000  -0.00075   0.00000
  25       11D-1        0.00003   0.00000   0.00001   0.00000  -0.00001
  26       11D+2       -0.00019   0.00000   0.00031   0.00000   0.00106
  27       11D-2        0.00000   0.00069   0.00000   0.00001   0.00000
  28       12D 0       -0.00021   0.00000   0.00003   0.00000  -0.00114
  29       12D+1        0.00000   0.00000   0.00000  -0.00064   0.00000
  30       12D-1       -0.00011   0.00000  -0.00001   0.00000  -0.00001
  31       12D+2        0.00040   0.00000  -0.00022   0.00000  -0.00102
  32       12D-2        0.00000  -0.00012   0.00000   0.00000   0.00000
  33       13F 0       -0.00011   0.00000   0.00026   0.00000   0.00036
  34       13F+1        0.00000   0.00000   0.00000  -0.00006   0.00000
  35       13F-1        0.00000   0.00000  -0.00001   0.00000  -0.00001
  36       13F+2        0.00003   0.00000   0.00000   0.00000  -0.00009
  37       13F-2        0.00000   0.00001   0.00000   0.00000   0.00000
  38       13F+3        0.00000   0.00000   0.00000   0.00002   0.00000
  39       13F-3        0.00000   0.00000   0.00000   0.00000   0.00000
  40       14F 0        0.00050   0.00000  -0.00118   0.00000  -0.00065
  41       14F+1        0.00000   0.00000   0.00000   0.00008   0.00000
  42       14F-1        0.00000   0.00000   0.00002   0.00000  -0.00001
  43       14F+2       -0.00029   0.00000  -0.00068   0.00000  -0.00061
  44       14F-2        0.00000  -0.00021   0.00000   0.00000   0.00000
  45       14F+3        0.00000   0.00000   0.00000  -0.00036   0.00000
  46       14F-3       -0.00002   0.00000   0.00000   0.00000   0.00000
  47 2   Br 1S          0.00647   0.00000  -0.00207   0.00000   0.00028
  48        2S         -0.02430   0.00000   0.00813   0.00000  -0.00022
  49        3S          0.05343   0.00000  -0.02145   0.00000  -0.00840
  50        4S          0.00000   0.00000   0.00051   0.00000   0.00094
  51        5S          0.00251   0.00000  -0.00086   0.00000  -0.00057
  52        6S          0.00354   0.00000  -0.00061   0.00000  -0.00092
  53        7S          0.00130   0.00000  -0.00019   0.00000  -0.00112
  54        8PX         0.00000   0.26329   0.00000  -0.26187   0.00000
  55        8PY         0.14874   0.00000  -0.04701   0.00000  -0.08619
  56        8PZ        -0.18868   0.00000  -0.09174   0.00000  -0.05058
  57        9PX         0.00000  -0.74471   0.00000   0.73948   0.00000
  58        9PY        -0.41433   0.00000   0.11239   0.00000   0.20472
  59        9PZ         0.53455   0.00000   0.24670   0.00000   0.12086
  60       10PX         0.00000  -0.00131   0.00000   0.00071   0.00000
  61       10PY         0.00030   0.00000  -0.00053   0.00000  -0.00044
  62       10PZ         0.00127   0.00000   0.00003   0.00000   0.00017
  63       11PX         0.00000  -0.03328   0.00000   0.03270   0.00000
  64       11PY        -0.01841   0.00000   0.00497   0.00000   0.00865
  65       11PZ         0.02373   0.00000   0.01086   0.00000   0.00503
  66       12PX         0.00000  -0.00390   0.00000   0.00270   0.00000
  67       12PY         0.00015   0.00000  -0.00020   0.00000  -0.00010
  68       12PZ         0.00304   0.00000   0.00075   0.00000  -0.00057
  69       13PX         0.00000   0.00032   0.00000  -0.00025   0.00000
  70       13PY         0.00030   0.00000  -0.00006   0.00000  -0.00025
  71       13PZ         0.00006   0.00000  -0.00003   0.00000  -0.00019
  72       14D 0       -0.00703   0.00000  -0.00267   0.00000  -0.00118
  73       14D+1        0.00000  -0.00109   0.00000   0.00117   0.00000
  74       14D-1       -0.00663   0.00000   0.00771   0.00000   0.00966
  75       14D+2       -0.00250   0.00000  -0.00634   0.00000  -0.00612
  76       14D-2        0.00000  -0.00224   0.00000   0.00216   0.00000
  77       15D 0       -0.00038   0.00000  -0.00020   0.00000  -0.00010
  78       15D+1        0.00000  -0.00017   0.00000   0.00018   0.00000
  79       15D-1       -0.00040   0.00000   0.00070   0.00000   0.00086
  80       15D+2       -0.00009   0.00000  -0.00061   0.00000  -0.00060
  81       15D-2        0.00000  -0.00028   0.00000   0.00033   0.00000
  82       16D 0       -0.00035   0.00000  -0.00008   0.00000   0.00012
  83       16D+1        0.00000   0.00010   0.00000  -0.00015   0.00000
  84       16D-1       -0.00009   0.00000   0.00025   0.00000   0.00072
  85       16D+2       -0.00031   0.00000   0.00001   0.00000  -0.00020
  86       16D-2        0.00000   0.00017   0.00000  -0.00017   0.00000
  87       17D 0       -0.00023   0.00000   0.00002   0.00000  -0.00011
  88       17D+1        0.00000  -0.00009   0.00000  -0.00009   0.00000
  89       17D-1        0.00022   0.00000  -0.00004   0.00000  -0.00022
  90       17D+2       -0.00034   0.00000   0.00006   0.00000   0.00002
  91       17D-2        0.00000  -0.00016   0.00000  -0.00023   0.00000
  92       18F 0        0.00008   0.00000  -0.00008   0.00000  -0.00012
  93       18F+1        0.00000  -0.00001   0.00000   0.00001   0.00000
  94       18F-1        0.00029   0.00000   0.00008   0.00000   0.00008
  95       18F+2        0.00000   0.00000  -0.00014   0.00000  -0.00022
  96       18F-2        0.00000  -0.00022   0.00000   0.00025   0.00000
  97       18F+3        0.00000   0.00018   0.00000  -0.00022   0.00000
  98       18F-3        0.00007   0.00000  -0.00006   0.00000  -0.00010
  99       19F 0       -0.00008   0.00000  -0.00009   0.00000  -0.00011
 100       19F+1        0.00000   0.00001   0.00000  -0.00003   0.00000
 101       19F-1       -0.00036   0.00000   0.00000   0.00000   0.00018
 102       19F+2        0.00003   0.00000   0.00000   0.00000  -0.00011
 103       19F-2        0.00000   0.00017   0.00000  -0.00025   0.00000
 104       19F+3        0.00000  -0.00014   0.00000   0.00024   0.00000
 105       19F-3       -0.00009   0.00000   0.00010   0.00000   0.00001
 106 3   Br 1S          0.00601   0.00000  -0.00200   0.00000   0.00038
 107        2S         -0.02258   0.00000   0.00785   0.00000  -0.00062
 108        3S          0.04968   0.00000  -0.02088   0.00000  -0.00760
 109        4S          0.00001   0.00000   0.00051   0.00000   0.00094
 110        5S          0.00234   0.00000  -0.00083   0.00000  -0.00054
 111        6S          0.00300   0.00000  -0.00062   0.00000  -0.00090
 112        7S          0.00086   0.00000  -0.00021   0.00000  -0.00110
 113        8PX         0.00000  -0.26131   0.00000  -0.26384   0.00000
 114        8PY        -0.16651   0.00000   0.04620   0.00000   0.08609
 115        8PZ        -0.21932   0.00000  -0.09239   0.00000  -0.05096
 116        9PX         0.00000   0.73913   0.00000   0.74506   0.00000
 117        9PY         0.46480   0.00000  -0.11007   0.00000  -0.20430
 118        9PZ         0.62096   0.00000   0.24854   0.00000   0.12184
 119       10PX         0.00000   0.00130   0.00000   0.00072   0.00000
 120       10PY        -0.00013   0.00000   0.00054   0.00000   0.00043
 121       10PZ         0.00139   0.00000   0.00004   0.00000   0.00017
 122       11PX         0.00000   0.03303   0.00000   0.03295   0.00000
 123       11PY         0.02065   0.00000  -0.00486   0.00000  -0.00862
 124       11PZ         0.02758   0.00000   0.01094   0.00000   0.00507
 125       12PX         0.00000   0.00388   0.00000   0.00272   0.00000
 126       12PY         0.00041   0.00000   0.00022   0.00000   0.00009
 127       12PZ         0.00327   0.00000   0.00076   0.00000  -0.00056
 128       13PX         0.00000  -0.00032   0.00000  -0.00025   0.00000
 129       13PY        -0.00027   0.00000   0.00006   0.00000   0.00025
 130       13PZ        -0.00003   0.00000  -0.00004   0.00000  -0.00019
 131       14D 0       -0.00796   0.00000  -0.00260   0.00000  -0.00111
 132       14D+1        0.00000   0.00116   0.00000   0.00127   0.00000
 133       14D-1        0.00712   0.00000  -0.00772   0.00000  -0.00971
 134       14D+2       -0.00316   0.00000  -0.00632   0.00000  -0.00611
 135       14D-2        0.00000  -0.00225   0.00000  -0.00220   0.00000
 136       15D 0       -0.00044   0.00000  -0.00019   0.00000  -0.00010
 137       15D+1        0.00000   0.00017   0.00000   0.00019   0.00000
 138       15D-1        0.00043   0.00000  -0.00071   0.00000  -0.00086
 139       15D+2       -0.00013   0.00000  -0.00061   0.00000  -0.00060
 140       15D-2        0.00000  -0.00028   0.00000  -0.00034   0.00000
 141       16D 0       -0.00039   0.00000  -0.00008   0.00000   0.00012
 142       16D+1        0.00000  -0.00010   0.00000  -0.00015   0.00000
 143       16D-1        0.00012   0.00000  -0.00025   0.00000  -0.00073
 144       16D+2       -0.00033   0.00000   0.00001   0.00000  -0.00021
 145       16D-2        0.00000   0.00017   0.00000   0.00017   0.00000
 146       17D 0       -0.00023   0.00000   0.00002   0.00000  -0.00011
 147       17D+1        0.00000   0.00009   0.00000  -0.00009   0.00000
 148       17D-1       -0.00016   0.00000   0.00003   0.00000   0.00022
 149       17D+2       -0.00030   0.00000   0.00006   0.00000   0.00002
 150       17D-2        0.00000  -0.00016   0.00000   0.00023   0.00000
 151       18F 0        0.00008   0.00000  -0.00008   0.00000  -0.00012
 152       18F+1        0.00000   0.00001   0.00000   0.00001   0.00000
 153       18F-1       -0.00033   0.00000  -0.00008   0.00000  -0.00008
 154       18F+2        0.00000   0.00000  -0.00014   0.00000  -0.00022
 155       18F-2        0.00000  -0.00022   0.00000  -0.00025   0.00000
 156       18F+3        0.00000  -0.00018   0.00000  -0.00022   0.00000
 157       18F-3       -0.00009   0.00000   0.00006   0.00000   0.00011
 158       19F 0       -0.00008   0.00000  -0.00009   0.00000  -0.00011
 159       19F+1        0.00000  -0.00001   0.00000  -0.00003   0.00000
 160       19F-1        0.00040   0.00000   0.00000   0.00000  -0.00017
 161       19F+2        0.00003   0.00000   0.00000   0.00000  -0.00011
 162       19F-2        0.00000   0.00017   0.00000   0.00025   0.00000
 163       19F+3        0.00000   0.00014   0.00000   0.00024   0.00000
 164       19F-3        0.00011   0.00000  -0.00010   0.00000  -0.00001
 165 4   O  1S          0.16436   0.00000  -0.79483   0.00000   0.53928
 166        2S         -0.00316   0.00000   0.01531   0.00000  -0.00889
 167        3S          0.00695   0.00000  -0.03362   0.00000   0.02337
 168        4S         -0.00156   0.00000   0.00255   0.00000  -0.00139
 169        5S         -0.00190   0.00000  -0.00046   0.00000  -0.00136
 170        6PX         0.00000   0.00000   0.00000  -0.00048   0.00000
 171        6PY        -0.00001   0.00000  -0.00004   0.00000   0.00000
 172        6PZ        -0.00065   0.00000   0.00395   0.00000  -0.00040
 173        7PX         0.00000   0.00000   0.00000  -0.00056   0.00000
 174        7PY        -0.00002   0.00000  -0.00001   0.00000  -0.00002
 175        7PZ        -0.00011   0.00000   0.00161   0.00000   0.00261
 176        8PX         0.00000   0.00000   0.00000  -0.00036   0.00000
 177        8PY        -0.00009   0.00000  -0.00002   0.00000   0.00002
 178        8PZ        -0.00135   0.00000   0.00333   0.00000   0.00227
 179        9PX         0.00000   0.00000   0.00000   0.00004   0.00000
 180        9PY        -0.00001   0.00000   0.00000   0.00000   0.00001
 181        9PZ         0.00065   0.00000   0.00053   0.00000   0.00042
 182       10D 0        0.00004   0.00000  -0.00021   0.00000   0.00008
 183       10D+1        0.00000   0.00000   0.00000   0.00000   0.00000
 184       10D-1        0.00000   0.00000   0.00000   0.00000   0.00000
 185       10D+2       -0.00003   0.00000   0.00005   0.00000  -0.00002
 186       10D-2        0.00000   0.00001   0.00000   0.00000   0.00000
 187       11D 0        0.00003   0.00000   0.00016   0.00000  -0.00102
 188       11D+1        0.00000   0.00000   0.00000  -0.00009   0.00000
 189       11D-1        0.00001   0.00000   0.00000   0.00000   0.00001
 190       11D+2        0.00005   0.00000   0.00014   0.00000  -0.00006
 191       11D-2        0.00000  -0.00002   0.00000   0.00000   0.00000
 192       12D 0        0.00077   0.00000  -0.00050   0.00000  -0.00057
 193       12D+1        0.00000   0.00000   0.00000  -0.00010   0.00000
 194       12D-1        0.00003   0.00000   0.00001   0.00000   0.00000
 195       12D+2       -0.00001   0.00000   0.00029   0.00000   0.00040
 196       12D-2        0.00000   0.00003   0.00000   0.00000   0.00000
 197       13F 0        0.00001   0.00000  -0.00010   0.00000  -0.00010
 198       13F+1        0.00000   0.00000   0.00000   0.00000   0.00000
 199       13F-1        0.00000   0.00000   0.00000   0.00000   0.00000
 200       13F+2       -0.00001   0.00000   0.00002   0.00000  -0.00001
 201       13F-2        0.00000   0.00000   0.00000   0.00000   0.00000
 202       13F+3        0.00000   0.00000   0.00000  -0.00001   0.00000
 203       13F-3        0.00000   0.00000   0.00000   0.00000   0.00000
 204       14F 0       -0.00008   0.00000   0.00001   0.00000   0.00036
 205       14F+1        0.00000   0.00000   0.00000   0.00007   0.00000
 206       14F-1        0.00000   0.00000   0.00000   0.00000  -0.00001
 207       14F+2        0.00002   0.00000  -0.00009   0.00000  -0.00003
 208       14F-2        0.00000   0.00003   0.00000   0.00000   0.00000
 209       14F+3        0.00000   0.00000   0.00000   0.00004   0.00000
 210       14F-3        0.00000   0.00000   0.00000   0.00000   0.00000
                          11        12        13        14        15
     Eigenvalues --     2.00000   2.00000   2.00000   2.00000   2.00000
   1 1   C  1S         -0.00002  -0.00123   0.00028   0.01352   0.00000
   2        2S          0.00000   0.00005  -0.00001  -0.00011   0.00000
   3        3S          0.00000  -0.00005   0.00001   0.00062   0.00000
   4        4S          0.00000   0.00036  -0.00007  -0.00105   0.00000
   5        5S          0.00000   0.00019  -0.00004  -0.00038   0.00000
   6        6PX         0.00000   0.00000   0.00000   0.00000   0.00001
   7        6PY        -0.00003   0.00000  -0.00001   0.00000   0.00000
   8        6PZ         0.00000   0.00001   0.00000  -0.00004   0.00000
   9        7PX         0.00000   0.00000   0.00000   0.00000   0.00000
  10        7PY         0.00006   0.00001   0.00003   0.00000   0.00000
  11        7PZ         0.00000   0.00007  -0.00001   0.00010   0.00000
  12        8PX         0.00000   0.00000   0.00000   0.00000  -0.00007
  13        8PY         0.00039   0.00012   0.00060   0.00000   0.00000
  14        8PZ         0.00000  -0.00053   0.00010   0.00038   0.00000
  15        9PX         0.00000   0.00000   0.00000   0.00000   0.00000
  16        9PY        -0.00010   0.00002   0.00010   0.00000   0.00000
  17        9PZ         0.00000  -0.00001   0.00000   0.00005   0.00000
  18       10D 0        0.00000   0.00000   0.00000   0.00001   0.00000
  19       10D+1        0.00000   0.00000   0.00000   0.00000   0.00000
  20       10D-1        0.00000   0.00000   0.00000   0.00000   0.00000
  21       10D+2        0.00000   0.00000   0.00000   0.00000   0.00000
  22       10D-2        0.00000   0.00000   0.00000   0.00000   0.00000
  23       11D 0        0.00000   0.00004  -0.00001   0.00001   0.00000
  24       11D+1        0.00000   0.00000   0.00000   0.00000   0.00005
  25       11D-1       -0.00008  -0.00001  -0.00002   0.00000   0.00000
  26       11D+2        0.00000   0.00001   0.00000   0.00014   0.00000
  27       11D-2        0.00000   0.00000   0.00000   0.00000   0.00000
  28       12D 0        0.00000  -0.00001   0.00000   0.00008   0.00000
  29       12D+1        0.00000   0.00000   0.00000   0.00000   0.00004
  30       12D-1       -0.00019  -0.00004  -0.00020   0.00000   0.00000
  31       12D+2        0.00000  -0.00005   0.00001   0.00017   0.00000
  32       12D-2        0.00000   0.00000   0.00000   0.00000   0.00000
  33       13F 0        0.00000   0.00001   0.00000   0.00000   0.00000
  34       13F+1        0.00000   0.00000   0.00000   0.00000   0.00001
  35       13F-1        0.00000   0.00000   0.00001   0.00000   0.00000
  36       13F+2        0.00000   0.00000   0.00000   0.00000   0.00000
  37       13F-2        0.00000   0.00000   0.00000   0.00000   0.00000
  38       13F+3        0.00000   0.00000   0.00000   0.00000  -0.00001
  39       13F-3        0.00001   0.00000   0.00001   0.00000   0.00000
  40       14F 0        0.00000  -0.00003   0.00001   0.00002   0.00000
  41       14F+1        0.00000   0.00000   0.00000   0.00000  -0.00001
  42       14F-1       -0.00001  -0.00002  -0.00008   0.00000   0.00000
  43       14F+2        0.00000   0.00005  -0.00001   0.00001   0.00000
  44       14F-2        0.00000   0.00000   0.00000   0.00000   0.00000
  45       14F+3        0.00000   0.00000   0.00000   0.00000   0.00004
  46       14F-3       -0.00002  -0.00001  -0.00006   0.00000   0.00000
  47 2   Br 1S         -0.05481  -0.00048  -0.01240  -0.03835   0.00000
  48        2S          0.16947   0.00227   0.04092   0.12301   0.00000
  49        3S          0.01498   0.00018   0.00387   0.01294   0.00000
  50        4S         -0.00012   0.00001  -0.00008  -0.00015   0.00000
  51        5S          0.00045   0.00001   0.00011   0.00037   0.00000
  52        6S          0.00049  -0.00019   0.00054   0.00066   0.00000
  53        7S         -0.00014  -0.00008   0.00026   0.00018   0.00000
  54        8PX         0.00000   0.00000   0.00000   0.00000   0.71730
  55        8PY         0.66880  -0.42476  -0.10803   0.57145   0.00000
  56        8PZ         0.16333   0.70875   0.56339   0.39147   0.00000
  57        9PX         0.00000   0.00000   0.00000   0.00000  -0.01625
  58        9PY        -0.00007   0.00898   0.00702   0.00709   0.00000
  59        9PZ         0.00581  -0.01572  -0.00960   0.00329   0.00000
  60       10PX         0.00000   0.00000   0.00000   0.00000   0.00028
  61       10PY         0.00033  -0.00023   0.00000   0.00032   0.00000
  62       10PZ         0.00012   0.00030   0.00031   0.00021   0.00000
  63       11PX         0.00000   0.00000   0.00000   0.00000  -0.00123
  64       11PY        -0.00057   0.00070   0.00034  -0.00023   0.00000
  65       11PZ         0.00007  -0.00119  -0.00085  -0.00022   0.00000
  66       12PX         0.00000   0.00000   0.00000   0.00000  -0.00006
  67       12PY         0.00005  -0.00006   0.00030   0.00020   0.00000
  68       12PZ         0.00008  -0.00012   0.00009   0.00020   0.00000
  69       13PX         0.00000   0.00000   0.00000   0.00000   0.00002
  70       13PY        -0.00001  -0.00003   0.00002   0.00002   0.00000
  71       13PZ        -0.00003   0.00001   0.00005   0.00002   0.00000
  72       14D 0       -0.00008   0.00039   0.00025   0.00002   0.00000
  73       14D+1        0.00000   0.00000   0.00000   0.00000  -0.00004
  74       14D-1       -0.00033   0.00019   0.00006  -0.00007   0.00000
  75       14D+2        0.00015   0.00021   0.00018   0.00009   0.00000
  76       14D-2        0.00000   0.00000   0.00000   0.00000  -0.00010
  77       15D 0        0.00000   0.00001   0.00001   0.00000   0.00000
  78       15D+1        0.00000   0.00000   0.00000   0.00000  -0.00002
  79       15D-1       -0.00005   0.00000  -0.00001  -0.00004   0.00000
  80       15D+2        0.00003   0.00000   0.00001   0.00003   0.00000
  81       15D-2        0.00000   0.00000   0.00000   0.00000  -0.00002
  82       16D 0        0.00000   0.00007   0.00006   0.00000   0.00000
  83       16D+1        0.00000   0.00000   0.00000   0.00000   0.00003
  84       16D-1        0.00008   0.00003   0.00007   0.00012   0.00000
  85       16D+2       -0.00006   0.00005   0.00000  -0.00010   0.00000
  86       16D-2        0.00000   0.00000   0.00000   0.00000   0.00004
  87       17D 0        0.00000   0.00000  -0.00003   0.00002   0.00000
  88       17D+1        0.00000   0.00000   0.00000   0.00000   0.00000
  89       17D-1        0.00002  -0.00002   0.00004   0.00006   0.00000
  90       17D+2        0.00001   0.00002  -0.00005  -0.00003   0.00000
  91       17D-2        0.00000   0.00000   0.00000   0.00000   0.00001
  92       18F 0        0.00000   0.00000   0.00000   0.00000   0.00000
  93       18F+1        0.00000   0.00000   0.00000   0.00000   0.00000
  94       18F-1        0.00000  -0.00001   0.00000   0.00000   0.00000
  95       18F+2       -0.00001   0.00000   0.00000  -0.00001   0.00000
  96       18F-2        0.00000   0.00000   0.00000   0.00000   0.00000
  97       18F+3        0.00000   0.00000   0.00000   0.00000   0.00000
  98       18F-3        0.00000   0.00000  -0.00001  -0.00001   0.00000
  99       19F 0       -0.00002   0.00001   0.00000  -0.00001   0.00000
 100       19F+1        0.00000   0.00000   0.00000   0.00000   0.00000
 101       19F-1        0.00001   0.00004   0.00003   0.00001   0.00000
 102       19F+2       -0.00002  -0.00001  -0.00001  -0.00004   0.00000
 103       19F-2        0.00000   0.00000   0.00000   0.00000   0.00002
 104       19F+3        0.00000   0.00000   0.00000   0.00000  -0.00002
 105       19F-3       -0.00001   0.00001   0.00001  -0.00002   0.00000
 106 3   Br 1S          0.05480   0.00473   0.01190  -0.03851   0.00000
 107        2S         -0.16955  -0.01475  -0.03960   0.12361   0.00000
 108        3S         -0.01497  -0.00144  -0.00367   0.01301   0.00000
 109        4S          0.00012   0.00004   0.00007  -0.00015   0.00000
 110        5S         -0.00045  -0.00004  -0.00010   0.00038   0.00000
 111        6S         -0.00049  -0.00038  -0.00043   0.00066   0.00000
 112        7S          0.00014  -0.00017  -0.00021   0.00018   0.00000
 113        8PX         0.00000   0.00000   0.00000   0.00000   0.70874
 114        8PY         0.66161   0.36589  -0.26446  -0.56982   0.00000
 115        8PZ        -0.17422   0.44641  -0.78273   0.39604   0.00000
 116        9PX         0.00000   0.00000   0.00000   0.00000  -0.01606
 117        9PY         0.00007  -0.00580   0.00988  -0.00716   0.00000
 118        9PZ        -0.00564  -0.01117   0.01480   0.00327   0.00000
 119       10PX         0.00000   0.00000   0.00000   0.00000   0.00028
 120       10PY         0.00033   0.00021  -0.00009  -0.00032   0.00000
 121       10PZ        -0.00013   0.00016  -0.00039   0.00021   0.00000
 122       11PX         0.00000   0.00000   0.00000   0.00000  -0.00121
 123       11PY        -0.00056  -0.00054   0.00059   0.00023   0.00000
 124       11PZ        -0.00005  -0.00080   0.00123  -0.00022   0.00000
 125       12PX         0.00000   0.00000   0.00000   0.00000  -0.00006
 126       12PY         0.00005   0.00017   0.00025  -0.00020   0.00000
 127       12PZ        -0.00008  -0.00014  -0.00004   0.00020   0.00000
 128       13PX         0.00000   0.00000   0.00000   0.00000   0.00002
 129       13PY        -0.00001   0.00003   0.00001  -0.00002   0.00000
 130       13PZ         0.00003  -0.00001  -0.00005   0.00002   0.00000
 131       14D 0        0.00007   0.00026  -0.00037   0.00002   0.00000
 132       14D+1        0.00000   0.00000   0.00000   0.00000  -0.00004
 133       14D-1       -0.00032  -0.00016   0.00012   0.00007   0.00000
 134       14D+2       -0.00015   0.00013  -0.00025   0.00009   0.00000
 135       14D-2        0.00000   0.00000   0.00000   0.00000   0.00010
 136       15D 0        0.00000   0.00000  -0.00001   0.00000   0.00000
 137       15D+1        0.00000   0.00000   0.00000   0.00000  -0.00002
 138       15D-1       -0.00005   0.00000  -0.00001   0.00004   0.00000
 139       15D+2       -0.00003   0.00000  -0.00001   0.00003   0.00000
 140       15D-2        0.00000   0.00000   0.00000   0.00000   0.00002
 141       16D 0        0.00000   0.00004  -0.00008   0.00000   0.00000
 142       16D+1        0.00000   0.00000   0.00000   0.00000   0.00003
 143       16D-1        0.00008   0.00000   0.00007  -0.00012   0.00000
 144       16D+2        0.00005   0.00005  -0.00001  -0.00010   0.00000
 145       16D-2        0.00000   0.00000   0.00000   0.00000  -0.00004
 146       17D 0        0.00000   0.00001   0.00002   0.00002   0.00000
 147       17D+1        0.00000   0.00000   0.00000   0.00000   0.00000
 148       17D-1        0.00002   0.00003   0.00003  -0.00006   0.00000
 149       17D+2       -0.00001   0.00003   0.00004  -0.00003   0.00000
 150       17D-2        0.00000   0.00000   0.00000   0.00000  -0.00001
 151       18F 0        0.00000   0.00000   0.00000   0.00000   0.00000
 152       18F+1        0.00000   0.00000   0.00000   0.00000   0.00000
 153       18F-1        0.00000   0.00001   0.00000   0.00000   0.00000
 154       18F+2        0.00001   0.00000   0.00000  -0.00001   0.00000
 155       18F-2        0.00000   0.00000   0.00000   0.00000   0.00000
 156       18F+3        0.00000   0.00000   0.00000   0.00000   0.00000
 157       18F-3        0.00000   0.00000   0.00000   0.00001   0.00000
 158       19F 0        0.00002   0.00000   0.00000  -0.00001   0.00000
 159       19F+1        0.00000   0.00000   0.00000   0.00000   0.00000
 160       19F-1        0.00001  -0.00002   0.00004  -0.00001   0.00000
 161       19F+2        0.00002   0.00000   0.00001  -0.00004   0.00000
 162       19F-2        0.00000   0.00000   0.00000   0.00000  -0.00002
 163       19F+3        0.00000   0.00000   0.00000   0.00000  -0.00002
 164       19F-3       -0.00001  -0.00001   0.00001   0.00002   0.00000
 165 4   O  1S         -0.00001  -0.00045   0.00010   0.00404   0.00000
 166        2S          0.00000   0.00000   0.00000  -0.00010   0.00000
 167        3S          0.00000  -0.00002   0.00000   0.00018   0.00000
 168        4S          0.00000   0.00006  -0.00001   0.00004   0.00000
 169        5S          0.00000   0.00018  -0.00003  -0.00005   0.00000
 170        6PX         0.00000   0.00000   0.00000   0.00000   0.00000
 171        6PY         0.00000   0.00000   0.00000   0.00000   0.00000
 172        6PZ         0.00000   0.00000   0.00000   0.00002   0.00000
 173        7PX         0.00000   0.00000   0.00000   0.00000  -0.00001
 174        7PY         0.00001   0.00000   0.00001   0.00000   0.00000
 175        7PZ         0.00000   0.00001   0.00000   0.00006   0.00000
 176        8PX         0.00000   0.00000   0.00000   0.00000  -0.00002
 177        8PY         0.00003   0.00000   0.00000   0.00000   0.00000
 178        8PZ         0.00000   0.00010  -0.00002  -0.00005   0.00000
 179        9PX         0.00000   0.00000   0.00000   0.00000  -0.00001
 180        9PY         0.00008   0.00001   0.00002   0.00000   0.00000
 181        9PZ         0.00000  -0.00006   0.00001   0.00002   0.00000
 182       10D 0        0.00000   0.00000   0.00000   0.00000   0.00000
 183       10D+1        0.00000   0.00000   0.00000   0.00000   0.00000
 184       10D-1        0.00000   0.00000   0.00000   0.00000   0.00000
 185       10D+2        0.00000   0.00000   0.00000   0.00000   0.00000
 186       10D-2        0.00000   0.00000   0.00000   0.00000   0.00000
 187       11D 0        0.00000  -0.00001   0.00000  -0.00002   0.00000
 188       11D+1        0.00000   0.00000   0.00000   0.00000   0.00001
 189       11D-1        0.00000   0.00000   0.00000   0.00000   0.00000
 190       11D+2        0.00000  -0.00001   0.00000  -0.00001   0.00000
 191       11D-2        0.00000   0.00000   0.00000   0.00000   0.00000
 192       12D 0        0.00000  -0.00007   0.00001   0.00000   0.00000
 193       12D+1        0.00000   0.00000   0.00000   0.00000   0.00001
 194       12D-1        0.00000   0.00000   0.00002   0.00000   0.00000
 195       12D+2        0.00000  -0.00001   0.00000  -0.00004   0.00000
 196       12D-2        0.00000   0.00000   0.00000   0.00000   0.00000
 197       13F 0        0.00000   0.00000   0.00000   0.00000   0.00000
 198       13F+1        0.00000   0.00000   0.00000   0.00000   0.00000
 199       13F-1        0.00000   0.00000   0.00000   0.00000   0.00000
 200       13F+2        0.00000   0.00000   0.00000   0.00000   0.00000
 201       13F-2        0.00000   0.00000   0.00000   0.00000   0.00000
 202       13F+3        0.00000   0.00000   0.00000   0.00000   0.00000
 203       13F-3        0.00000   0.00000   0.00000   0.00000   0.00000
 204       14F 0        0.00000   0.00001   0.00000   0.00002   0.00000
 205       14F+1        0.00000   0.00000   0.00000   0.00000  -0.00001
 206       14F-1        0.00000   0.00000  -0.00001   0.00000   0.00000
 207       14F+2        0.00000   0.00001   0.00000   0.00002   0.00000
 208       14F-2        0.00000   0.00000   0.00000   0.00000   0.00000
 209       14F+3        0.00000   0.00000   0.00000   0.00000  -0.00001
 210       14F-3        0.00000   0.00000   0.00000   0.00000   0.00000
                          16        17        18        19        20
     Eigenvalues --     2.00000   2.00000   2.00000   2.00000   2.00000
   1 1   C  1S          0.00000  -0.00003   0.00153  -0.00001   0.00005
   2        2S          0.00000   0.00000  -0.00001   0.00000   0.00000
   3        3S          0.00000   0.00000   0.00006   0.00000   0.00000
   4        4S          0.00000   0.00000   0.00007   0.00000   0.00001
   5        5S          0.00000   0.00000   0.00007   0.00000   0.00000
   6        6PX         0.00000   0.00000   0.00000   0.00000   0.00000
   7        6PY         0.00000   0.00000   0.00000   0.00000   0.00000
   8        6PZ         0.00000   0.00000   0.00000   0.00000   0.00000
   9        7PX         0.00000   0.00000   0.00000   0.00000   0.00000
  10        7PY         0.00000  -0.00002   0.00000   0.00000   0.00000
  11        7PZ         0.00000   0.00000  -0.00001   0.00000   0.00000
  12        8PX         0.00000   0.00000   0.00000   0.00000   0.00000
  13        8PY         0.00000   0.00001   0.00000  -0.00001   0.00000
  14        8PZ         0.00000   0.00000  -0.00001   0.00000  -0.00001
  15        9PX         0.00000   0.00000   0.00000   0.00000   0.00000
  16        9PY         0.00000   0.00002   0.00000   0.00000   0.00000
  17        9PZ         0.00000   0.00000   0.00000   0.00000   0.00000
  18       10D 0        0.00000   0.00000   0.00000   0.00000   0.00000
  19       10D+1        0.00000   0.00000   0.00000   0.00000   0.00000
  20       10D-1        0.00000   0.00000   0.00000   0.00000   0.00000
  21       10D+2        0.00000   0.00000   0.00000   0.00000   0.00000
  22       10D-2        0.00001   0.00000   0.00000   0.00000   0.00000
  23       11D 0        0.00000   0.00000   0.00000   0.00000   0.00000
  24       11D+1        0.00000   0.00000   0.00000   0.00000   0.00000
  25       11D-1        0.00000   0.00002   0.00000   0.00000   0.00000
  26       11D+2        0.00000   0.00000  -0.00001   0.00000   0.00000
  27       11D-2       -0.00004   0.00000   0.00000   0.00000   0.00000
  28       12D 0        0.00000   0.00000   0.00002   0.00000   0.00000
  29       12D+1        0.00000   0.00000   0.00000   0.00000   0.00000
  30       12D-1        0.00000   0.00004   0.00000   0.00000   0.00000
  31       12D+2        0.00000   0.00000  -0.00001   0.00000   0.00000
  32       12D-2        0.00004   0.00000   0.00000   0.00000   0.00000
  33       13F 0        0.00000   0.00000   0.00000   0.00000   0.00000
  34       13F+1        0.00000   0.00000   0.00000   0.00000   0.00000
  35       13F-1        0.00000   0.00000   0.00000   0.00000   0.00000
  36       13F+2        0.00000   0.00000   0.00000   0.00000   0.00000
  37       13F-2        0.00000   0.00000   0.00000   0.00000   0.00000
  38       13F+3        0.00000   0.00000   0.00000   0.00000   0.00000
  39       13F-3        0.00000   0.00000   0.00000   0.00000   0.00000
  40       14F 0        0.00000   0.00000  -0.00001   0.00000   0.00000
  41       14F+1        0.00000   0.00000   0.00000   0.00000   0.00000
  42       14F-1        0.00000   0.00002   0.00000   0.00000   0.00000
  43       14F+2        0.00000   0.00000   0.00000   0.00000   0.00000
  44       14F-2        0.00003   0.00000   0.00000   0.00000   0.00000
  45       14F+3        0.00000   0.00000   0.00000   0.00000   0.00000
  46       14F-3        0.00000   0.00001   0.00000   0.00000   0.00000
  47 2   Br 1S          0.00000  -0.21452  -0.22433   0.58821   0.80685
  48        2S          0.00000   0.69457   0.72861   0.00352   0.00345
  49        3S          0.00000   0.02962   0.03154   0.00048   0.00056
  50        4S          0.00000  -0.00020  -0.00019   0.00001   0.00001
  51        5S          0.00000   0.00070   0.00075   0.00000   0.00000
  52        6S          0.00000   0.00004   0.00003  -0.00001  -0.00001
  53        7S          0.00000   0.00004  -0.00002   0.00000   0.00000
  54        8PX        -0.70890   0.00000   0.00000   0.00000   0.00000
  55        8PY         0.00000  -0.15144  -0.10886   0.00221   0.00079
  56        8PZ         0.00000  -0.08110  -0.06573   0.00027   0.00009
  57        9PX         0.01651   0.00000   0.00000   0.00000   0.00000
  58        9PY         0.00000   0.00248   0.00312  -0.00008  -0.00016
  59        9PZ         0.00000   0.00119   0.00179  -0.00004  -0.00006
  60       10PX        -0.00029   0.00000   0.00000   0.00000   0.00000
  61       10PY         0.00000  -0.00007  -0.00006   0.00000   0.00000
  62       10PZ         0.00000  -0.00005  -0.00004   0.00000   0.00000
  63       11PX         0.00124   0.00000   0.00000   0.00000   0.00000
  64       11PY         0.00000   0.00024   0.00023   0.00000  -0.00001
  65       11PZ         0.00000   0.00012   0.00014   0.00000   0.00000
  66       12PX         0.00013   0.00000   0.00000   0.00000   0.00000
  67       12PY         0.00000   0.00006   0.00001  -0.00001   0.00000
  68       12PZ         0.00000   0.00002   0.00002   0.00000   0.00000
  69       13PX        -0.00003   0.00000   0.00000   0.00000   0.00000
  70       13PY         0.00000   0.00000  -0.00001   0.00000   0.00000
  71       13PZ         0.00000   0.00000   0.00000   0.00000   0.00000
  72       14D 0        0.00000  -0.00003  -0.00004   0.00000   0.00000
  73       14D+1        0.00004   0.00000   0.00000   0.00000   0.00000
  74       14D-1        0.00000   0.00001   0.00000   0.00000   0.00000
  75       14D+2        0.00000   0.00007   0.00007   0.00000   0.00000
  76       14D-2        0.00010   0.00000   0.00000   0.00000   0.00000
  77       15D 0        0.00000   0.00000   0.00000   0.00000   0.00000
  78       15D+1        0.00001   0.00000   0.00000   0.00000   0.00000
  79       15D-1        0.00000   0.00000   0.00000   0.00000   0.00000
  80       15D+2        0.00000   0.00000   0.00000   0.00000   0.00000
  81       15D-2        0.00002   0.00000   0.00000   0.00000   0.00000
  82       16D 0        0.00000  -0.00001   0.00000   0.00000   0.00000
  83       16D+1       -0.00002   0.00000   0.00000   0.00000   0.00000
  84       16D-1        0.00000  -0.00001  -0.00001   0.00000   0.00000
  85       16D+2        0.00000   0.00001   0.00001   0.00000   0.00000
  86       16D-2       -0.00003   0.00000   0.00000   0.00000   0.00000
  87       17D 0        0.00000   0.00000   0.00000   0.00000   0.00000
  88       17D+1        0.00002   0.00000   0.00000   0.00000   0.00000
  89       17D-1        0.00000   0.00001   0.00001   0.00000   0.00000
  90       17D+2        0.00000  -0.00002   0.00000   0.00000   0.00000
  91       17D-2        0.00002   0.00000   0.00000   0.00000   0.00000
  92       18F 0        0.00000   0.00000   0.00000   0.00000   0.00000
  93       18F+1        0.00000   0.00000   0.00000   0.00000   0.00000
  94       18F-1        0.00000   0.00000   0.00000   0.00000   0.00000
  95       18F+2        0.00000   0.00000   0.00000   0.00000   0.00000
  96       18F-2        0.00000   0.00000   0.00000   0.00000   0.00000
  97       18F+3        0.00000   0.00000   0.00000   0.00000   0.00000
  98       18F-3        0.00000   0.00000   0.00000   0.00000   0.00000
  99       19F 0        0.00000   0.00000   0.00000   0.00000   0.00000
 100       19F+1        0.00000   0.00000   0.00000   0.00000   0.00000
 101       19F-1        0.00000   0.00000   0.00000   0.00000   0.00000
 102       19F+2        0.00000   0.00000   0.00000   0.00000   0.00000
 103       19F-2       -0.00001   0.00000   0.00000   0.00000   0.00000
 104       19F+3        0.00001   0.00000   0.00000   0.00000   0.00000
 105       19F-3        0.00000   0.00000   0.00000   0.00000   0.00000
 106 3   Br 1S          0.00000   0.22162  -0.21712  -0.80658   0.58865
 107        2S          0.00000  -0.71795   0.70539  -0.00434   0.00211
 108        3S          0.00000  -0.03061   0.03053  -0.00062   0.00039
 109        4S          0.00000   0.00020  -0.00018  -0.00001   0.00001
 110        5S          0.00000  -0.00072   0.00072   0.00000   0.00000
 111        6S          0.00000  -0.00004   0.00003   0.00002  -0.00001
 112        7S          0.00000  -0.00004  -0.00002   0.00000   0.00000
 113        8PX         0.71746   0.00000   0.00000   0.00000   0.00000
 114        8PY         0.00000  -0.15430   0.10349   0.00235  -0.00008
 115        8PZ         0.00000   0.08481  -0.06490  -0.00026  -0.00001
 116        9PX        -0.01672   0.00000   0.00000   0.00000   0.00000
 117        9PY         0.00000   0.00256  -0.00301  -0.00012   0.00013
 118        9PZ         0.00000  -0.00130   0.00181   0.00006  -0.00005
 119       10PX         0.00029   0.00000   0.00000   0.00000   0.00000
 120       10PY         0.00000  -0.00008   0.00006   0.00000   0.00000
 121       10PZ         0.00000   0.00005  -0.00004   0.00000   0.00000
 122       11PX        -0.00125   0.00000   0.00000   0.00000   0.00000
 123       11PY         0.00000   0.00024  -0.00022  -0.00001   0.00000
 124       11PZ         0.00000  -0.00013   0.00013   0.00000   0.00000
 125       12PX        -0.00013   0.00000   0.00000   0.00000   0.00000
 126       12PY         0.00000   0.00006  -0.00001  -0.00001   0.00000
 127       12PZ         0.00000  -0.00003   0.00002   0.00000   0.00000
 128       13PX         0.00003   0.00000   0.00000   0.00000   0.00000
 129       13PY         0.00000   0.00000   0.00001   0.00000   0.00000
 130       13PZ         0.00000   0.00000   0.00000   0.00000   0.00000
 131       14D 0        0.00000   0.00003  -0.00004   0.00000   0.00000
 132       14D+1       -0.00005   0.00000   0.00000   0.00000   0.00000
 133       14D-1        0.00000   0.00001   0.00000   0.00000   0.00000
 134       14D+2        0.00000  -0.00007   0.00007   0.00000   0.00000
 135       14D-2        0.00011   0.00000   0.00000   0.00000   0.00000
 136       15D 0        0.00000   0.00000   0.00000   0.00000   0.00000
 137       15D+1       -0.00001   0.00000   0.00000   0.00000   0.00000
 138       15D-1        0.00000   0.00000   0.00000   0.00000   0.00000
 139       15D+2        0.00000   0.00000   0.00000   0.00000   0.00000
 140       15D-2        0.00002   0.00000   0.00000   0.00000   0.00000
 141       16D 0        0.00000   0.00001   0.00000   0.00000   0.00000
 142       16D+1        0.00002   0.00000   0.00000   0.00000   0.00000
 143       16D-1        0.00000  -0.00001   0.00001   0.00000   0.00000
 144       16D+2        0.00000  -0.00001   0.00001   0.00000   0.00000
 145       16D-2       -0.00003   0.00000   0.00000   0.00000   0.00000
 146       17D 0        0.00000   0.00000   0.00000   0.00000   0.00000
 147       17D+1       -0.00002   0.00000   0.00000   0.00000   0.00000
 148       17D-1        0.00000   0.00001  -0.00001   0.00000   0.00000
 149       17D+2        0.00000   0.00002   0.00000   0.00000   0.00000
 150       17D-2        0.00002   0.00000   0.00000   0.00000   0.00000
 151       18F 0        0.00000   0.00000   0.00000   0.00000   0.00000
 152       18F+1        0.00000   0.00000   0.00000   0.00000   0.00000
 153       18F-1        0.00000   0.00000   0.00000   0.00000   0.00000
 154       18F+2        0.00000   0.00000   0.00000   0.00000   0.00000
 155       18F-2        0.00000   0.00000   0.00000   0.00000   0.00000
 156       18F+3        0.00000   0.00000   0.00000   0.00000   0.00000
 157       18F-3        0.00000   0.00000   0.00000   0.00000   0.00000
 158       19F 0        0.00000   0.00000   0.00000   0.00000   0.00000
 159       19F+1        0.00000   0.00000   0.00000   0.00000   0.00000
 160       19F-1        0.00000   0.00000   0.00000   0.00000   0.00000
 161       19F+2        0.00000   0.00000   0.00000   0.00000   0.00000
 162       19F-2       -0.00001   0.00000   0.00000   0.00000   0.00000
 163       19F+3       -0.00001   0.00000   0.00000   0.00000   0.00000
 164       19F-3        0.00000   0.00000   0.00000   0.00000   0.00000
 165 4   O  1S          0.00000  -0.00001   0.00061   0.00000   0.00000
 166        2S          0.00000   0.00000   0.00000   0.00000   0.00000
 167        3S          0.00000   0.00000   0.00003   0.00000   0.00000
 168        4S          0.00000   0.00000  -0.00002   0.00000   0.00000
 169        5S          0.00000   0.00000  -0.00005   0.00000   0.00001
 170        6PX         0.00000   0.00000   0.00000   0.00000   0.00000
 171        6PY         0.00000   0.00000   0.00000   0.00000   0.00000
 172        6PZ         0.00000   0.00000   0.00000   0.00000   0.00000
 173        7PX         0.00000   0.00000   0.00000   0.00000   0.00000
 174        7PY         0.00000   0.00000   0.00000   0.00000   0.00000
 175        7PZ         0.00000   0.00000   0.00001   0.00000   0.00000
 176        8PX         0.00000   0.00000   0.00000   0.00000   0.00000
 177        8PY         0.00000  -0.00003   0.00000   0.00000   0.00000
 178        8PZ         0.00000   0.00000   0.00001   0.00000   0.00000
 179        9PX         0.00000   0.00000   0.00000   0.00000   0.00000
 180        9PY         0.00000  -0.00001   0.00000   0.00000   0.00000
 181        9PZ         0.00000   0.00000   0.00001   0.00000   0.00000
 182       10D 0        0.00000   0.00000   0.00000   0.00000   0.00000
 183       10D+1        0.00000   0.00000   0.00000   0.00000   0.00000
 184       10D-1        0.00000   0.00000   0.00000   0.00000   0.00000
 185       10D+2        0.00000   0.00000   0.00000   0.00000   0.00000
 186       10D-2        0.00000   0.00000   0.00000   0.00000   0.00000
 187       11D 0        0.00000   0.00000   0.00000   0.00000   0.00000
 188       11D+1        0.00000   0.00000   0.00000   0.00000   0.00000
 189       11D-1        0.00000   0.00000   0.00000   0.00000   0.00000
[...]
 191       11D-2        0.00000   0.00444   0.00000   0.00000   0.00000
 192       12D 0        4.61467   0.00000  -0.02340  -1.29192   0.77919
 193       12D+1        0.00000   2.06569   0.00000   0.00000   0.00000
 194       12D-1       -0.05042   0.00000  -0.24088   0.01827  -0.00058
 195       12D+2       -0.55242   0.00000  -0.00797   0.56077   0.05047
 196       12D-2        0.00000  -0.01747   0.00000   0.00000   0.00000
 197       13F 0        0.02117   0.00000   0.00084   0.01586  -0.04638
 198       13F+1        0.00000   0.01868   0.00000   0.00000   0.00000
 199       13F-1        0.00042   0.00000   0.04807  -0.00126   0.00227
 200       13F+2       -0.05394   0.00000   0.00057   0.02452  -0.01354
 201       13F-2        0.00000  -0.00022   0.00000   0.00000   0.00000
 202       13F+3        0.00000   0.00450   0.00000   0.00000   0.00000
 203       13F-3        0.00047   0.00000  -0.02859  -0.00062  -0.00093
 204       14F 0       -1.28732   0.00000  -0.00054   0.17077   0.01139
 205       14F+1        0.00000  -0.15204   0.00000   0.00000   0.00000
 206       14F-1        0.02218   0.00000  -0.12686  -0.00186  -0.00517
 207       14F+2        0.19386   0.00000  -0.00102  -0.09994   0.04633
 208       14F-2        0.00000   0.00128   0.00000   0.00000   0.00000
 209       14F+3        0.00000   0.00261   0.00000   0.00000   0.00000
 210       14F-3       -0.00180   0.00000   0.05951   0.00147   0.00183
                         206       207       208       209       210
     Eigenvalues --     0.00000   0.00000   0.00000   0.00000   0.00000
   1 1   C  1S          0.00000  -0.00136   0.00554   0.21890   0.00108
   2        2S          0.00000  -0.00851   0.03146   1.25542   0.04414
   3        3S          0.00000   0.00023  -0.00216   0.00698   0.11076
   4        4S          0.00000  -0.14454   0.22819   9.31778   3.54603
   5        5S          0.00000  -0.16559   0.20020   3.64239  31.40694
   6        6PX         0.00381   0.00000   0.00000   0.00000   0.00000
   7        6PY         0.00000  -0.00115   0.00559  -0.00015  -0.00024
   8        6PZ         0.00000   0.00008  -0.00048   0.01347   0.01073
   9        7PX        -0.31806   0.00000   0.00000   0.00000   0.00000
  10        7PY         0.00000  -0.24488  -0.12910  -0.01213   0.00011
  11        7PZ         0.00000  -0.02095   0.03275   1.35284   0.07123
  12        8PX        -0.31337   0.00000   0.00000   0.00000   0.00000
  13        8PY         0.00000  -5.54940   6.86473  -0.09004  -0.01164
  14        8PZ         0.00000  -0.01677   0.14289   5.43277  -0.01835
  15        9PX         6.34570   0.00000   0.00000   0.00000   0.00000
  16        9PY         0.00000  -0.36597  13.99661  -0.24765   0.03142
  17        9PZ         0.00000  -0.00251   0.06748   5.90063  -3.83531
  18       10D 0        0.00000  -0.00159   0.00222   0.08530   0.02116
  19       10D+1       -0.00687   0.00000   0.00000   0.00000   0.00000
  20       10D-1        0.00000   0.00802   0.02137  -0.00148  -0.00012
  21       10D+2        0.00000  -0.00020  -0.00035  -0.00540  -0.04829
  22       10D-2       -0.00009   0.00000   0.00000   0.00000   0.00000
  23       11D 0        0.00000  -0.01099   0.01461   0.59410  -0.21159
  24       11D+1       -0.44235   0.00000   0.00000   0.00000   0.00000
  25       11D-1        0.00000  -0.13759  -0.69636   0.00012   0.00125
  26       11D+2        0.00000   0.00098  -0.00320   0.01832   0.18846
  27       11D-2        0.00477   0.00000   0.00000   0.00000   0.00000
  28       12D 0        0.00000  -0.02749   0.02052   3.51326   0.24115
  29       12D+1        0.91349   0.00000   0.00000   0.00000   0.00000
  30       12D-1        0.00000  -0.18848  -0.39599  -0.04334   0.00856
  31       12D+2        0.00000   0.00920   0.00410   1.39394  -1.02297
  32       12D-2       -0.00435   0.00000   0.00000   0.00000   0.00000
  33       13F 0        0.00000  -0.00148   0.00198   0.05143  -0.04527
  34       13F+1       -0.12069   0.00000   0.00000   0.00000   0.00000
  35       13F-1        0.00000  -0.01564  -0.06217  -0.00097   0.00039
  36       13F+2        0.00000   0.00030   0.00029  -0.00238   0.00538
  37       13F-2        0.00101   0.00000   0.00000   0.00000   0.00000
  38       13F+3        0.05236   0.00000   0.00000   0.00000   0.00000
  39       13F-3        0.00000   0.04627  -0.00097   0.00097   0.00015
  40       14F 0        0.00000  -0.00291  -0.00222  -0.01521  -0.09261
  41       14F+1       -0.04779   0.00000   0.00000   0.00000   0.00000
  42       14F-1        0.00000  -0.01050  -0.01969   0.00782   0.00004
  43       14F+2        0.00000  -0.00474  -0.00541   0.12749  -0.17143
  44       14F-2        0.00182   0.00000   0.00000   0.00000   0.00000
  45       14F+3       -0.03152   0.00000   0.00000   0.00000   0.00000
  46       14F-3        0.00000  -0.06789  -0.10915  -0.00203   0.00084
  47 2   Br 1S          0.00000   0.00212  -0.00002  -0.00004   0.00009
  48        2S          0.00000   0.01633  -0.00330  -0.00127   0.00068
  49        3S          0.00000   0.07598  -0.00777  -0.00362   0.00319
  50        4S          0.00000   0.22382  -0.05429  -0.01549   0.01045
  51        5S          0.00000   0.08900  -0.15500  -0.00098  -0.00216
  52        6S          0.00000  -0.70392   1.92043   0.87276   0.03621
  53        7S          0.00000  -9.93214  14.86679   1.82931 -13.46133
  54        8PX         0.00162   0.00000   0.00000   0.00000   0.00000
  55        8PY         0.00000   0.00099   0.00061   0.00064  -0.00039
  56        8PZ         0.00000   0.00059  -0.00002   0.00046   0.00006
  57        9PX        -0.02008   0.00000   0.00000   0.00000   0.00000
  58        9PY         0.00000   0.01682   0.00338  -0.00795   0.02546
  59        9PZ         0.00000   0.00161   0.01311  -0.00987   0.01464
  60       10PX        -0.15377   0.00000   0.00000   0.00000   0.00000
  61       10PY         0.00000   0.24933   0.07133  -0.06067   0.27947
  62       10PZ         0.00000   0.05232   0.15168  -0.09213   0.17491
  63       11PX         0.04500   0.00000   0.00000   0.00000   0.00000
  64       11PY         0.00000   0.00123  -0.00376   0.01832  -0.03506
  65       11PZ         0.00000   0.01546  -0.02323   0.01540  -0.01565
  66       12PX         0.65826   0.00000   0.00000   0.00000   0.00000
  67       12PY         0.00000  -3.66328   3.71057  -0.38732  -1.67700
  68       12PZ         0.00000  -2.34297   2.53279   1.54891  -1.30977
  69       13PX        -2.44181   0.00000   0.00000   0.00000   0.00000
  70       13PY         0.00000  -3.82636   0.39449   0.81968  -3.65897
  71       13PZ         0.00000  -0.93146   2.82776  -0.98195  -2.16889
  72       14D 0        0.00000  -0.00090  -0.00055   0.00121  -0.00096
  73       14D+1        0.00231   0.00000   0.00000   0.00000   0.00000
  74       14D-1        0.00000   0.00089  -0.00024  -0.00125   0.00114
  75       14D+2        0.00000  -0.00349  -0.00105   0.00225   0.00020
  76       14D-2        0.00098   0.00000   0.00000   0.00000   0.00000
  77       15D 0        0.00000   0.01478   0.00408  -0.01466   0.01316
  78       15D+1       -0.02778   0.00000   0.00000   0.00000   0.00000
  79       15D-1        0.00000   0.00184  -0.01437   0.00906  -0.01740
  80       15D+2        0.00000   0.03721   0.02427  -0.02407  -0.00125
  81       15D-2       -0.02121   0.00000   0.00000   0.00000   0.00000
  82       16D 0        0.00000  -0.09797  -0.00319   0.08639  -0.07444
  83       16D+1        0.11044   0.00000   0.00000   0.00000   0.00000
  84       16D-1        0.00000  -0.02533   0.29850  -0.05322   0.16894
  85       16D+2        0.00000  -0.20125  -0.27099   0.14513  -0.05869
  86       16D-2        0.09940   0.00000   0.00000   0.00000   0.00000
  87       17D 0        0.00000   0.17032   0.15634   0.32072   0.04051
  88       17D+1       -0.21698   0.00000   0.00000   0.00000   0.00000
  89       17D-1        0.00000  -1.41367   1.09932   0.27456  -0.75042
  90       17D+2        0.00000   1.76694  -0.51309   0.25699   0.34984
  91       17D-2       -0.02707   0.00000   0.00000   0.00000   0.00000
  92       18F 0        0.00000   0.00466   0.01895  -0.01488  -0.00457
  93       18F+1       -0.00946   0.00000   0.00000   0.00000   0.00000
  94       18F-1        0.00000   0.02771  -0.02394   0.00108   0.00676
  95       18F+2        0.00000  -0.04190   0.01269  -0.01513  -0.00841
  96       18F-2       -0.01283   0.00000   0.00000   0.00000   0.00000
  97       18F+3        0.05014   0.00000   0.00000   0.00000   0.00000
  98       18F-3        0.00000  -0.03969   0.01408  -0.02034  -0.01198
  99       19F 0        0.00000   0.02265  -0.10673   0.03161  -0.00969
 100       19F+1        0.00660   0.00000   0.00000   0.00000   0.00000
 101       19F-1        0.00000  -0.10847   0.12964   0.02318  -0.02934
 102       19F+2        0.00000   0.17701  -0.16251   0.05513   0.01741
 103       19F-2        0.02024   0.00000   0.00000   0.00000   0.00000
 104       19F+3       -0.11114   0.00000   0.00000   0.00000   0.00000
 105       19F-3        0.00000   0.16848  -0.10562   0.10076   0.02251
 106 3   Br 1S          0.00000  -0.00221   0.00005   0.00002   0.00009
 107        2S          0.00000  -0.01685   0.00353  -0.00104   0.00069
 108        3S          0.00000  -0.07874   0.00887  -0.00196   0.00323
 109        4S          0.00000  -0.23100   0.05749  -0.01271   0.01052
 110        5S          0.00000  -0.09120   0.15609  -0.00461  -0.00258
 111        6S          0.00000   0.77395  -1.88652   0.81546   0.05953
 112        7S          0.00000  10.03135 -14.94369   2.36495 -13.52027
 113        8PX         0.00164   0.00000   0.00000   0.00000   0.00000
 114        8PY         0.00000   0.00097   0.00056  -0.00064   0.00038
 115        8PZ         0.00000  -0.00059   0.00003   0.00041   0.00005
 116        9PX        -0.02024   0.00000   0.00000   0.00000   0.00000
 117        9PY         0.00000   0.01641   0.00324   0.00895  -0.02568
 118        9PZ         0.00000  -0.00132  -0.01293  -0.00962   0.01497
 119       10PX        -0.15477   0.00000   0.00000   0.00000   0.00000
 120       10PY         0.00000   0.24337   0.06711   0.07213  -0.28220
 121       10PZ         0.00000  -0.04858  -0.14874  -0.09175   0.17843
 122       11PX         0.04548   0.00000   0.00000   0.00000   0.00000
 123       11PY         0.00000   0.00131  -0.00469  -0.01891   0.03526
 124       11PZ         0.00000  -0.01559   0.02374   0.01386  -0.01609
 125       12PX         0.66269   0.00000   0.00000   0.00000   0.00000
 126       12PY         0.00000  -3.72662   3.70816   0.31377   1.67115
 127       12PZ         0.00000   2.36407  -2.54885   1.62186  -1.31607
 128       13PX        -2.46015   0.00000   0.00000   0.00000   0.00000
 129       13PY         0.00000  -3.82891   0.39346  -0.85122   3.66503
 130       13PZ         0.00000   0.93586  -2.87732  -0.86640  -2.17909
 131       14D 0        0.00000   0.00092   0.00064   0.00114  -0.00097
 132       14D+1        0.00235   0.00000   0.00000   0.00000   0.00000
 133       14D-1        0.00000   0.00085  -0.00016   0.00132  -0.00113
 134       14D+2        0.00000   0.00341   0.00112   0.00224   0.00021
 135       14D-2       -0.00099   0.00000   0.00000   0.00000   0.00000
 136       15D 0        0.00000  -0.01502  -0.00460  -0.01440   0.01328
 137       15D+1       -0.02824   0.00000   0.00000   0.00000   0.00000
 138       15D-1        0.00000   0.00230  -0.01567  -0.00861   0.01734
 139       15D+2        0.00000  -0.03627  -0.02512  -0.02343  -0.00141
 140       15D-2        0.02134   0.00000   0.00000   0.00000   0.00000
 141       16D 0        0.00000   0.09772   0.00398   0.08989  -0.07474
 142       16D+1        0.11261   0.00000   0.00000   0.00000   0.00000
 143       16D-1        0.00000  -0.03205   0.30259   0.04748  -0.17007
 144       16D+2        0.00000   0.19264   0.27303   0.14374  -0.05878
 145       16D-2       -0.10026   0.00000   0.00000   0.00000   0.00000
 146       17D 0        0.00000  -0.17492  -0.17531   0.33788   0.03688
 147       17D+1       -0.22318   0.00000   0.00000   0.00000   0.00000
 148       17D-1        0.00000  -1.41917   1.10431  -0.31366   0.75272
 149       17D+2        0.00000  -1.77489   0.51190   0.24163   0.34812
 150       17D-2        0.02829   0.00000   0.00000   0.00000   0.00000
 151       18F 0        0.00000  -0.00495  -0.01950  -0.01471  -0.00449
 152       18F+1       -0.00911   0.00000   0.00000   0.00000   0.00000
 153       18F-1        0.00000   0.02818  -0.02509  -0.00059  -0.00711
 154       18F+2        0.00000   0.04216  -0.01361  -0.01414  -0.00852
 155       18F-2        0.01327   0.00000   0.00000   0.00000   0.00000
 156       18F+3        0.05021   0.00000   0.00000   0.00000   0.00000
 157       18F-3        0.00000  -0.04003   0.01469   0.01911   0.01208
 158       19F 0        0.00000  -0.02234   0.10626   0.03058  -0.01009
 159       19F+1        0.00546   0.00000   0.00000   0.00000   0.00000
 160       19F-1        0.00000  -0.10952   0.13450  -0.03112   0.03021
 161       19F+2        0.00000  -0.17930   0.16563   0.04910   0.01759
 162       19F-2       -0.02071   0.00000   0.00000   0.00000   0.00000
 163       19F+3       -0.11129   0.00000   0.00000   0.00000   0.00000
 164       19F-3        0.00000   0.17115  -0.10817  -0.09768  -0.02269
 165 4   O  1S          0.00000  -0.00048   0.00038   0.09948   0.02957
 166        2S          0.00000  -0.00261   0.00297   0.52324   0.15471
 167        3S          0.00000  -0.00037   0.00166   0.00488  -0.00583
 168        4S          0.00000   0.05614  -0.12162  -6.19672   0.01866
 169        5S          0.00000   0.13367  -0.28717 -15.14608  -8.04268
 170        6PX         0.01946   0.00000   0.00000   0.00000   0.00000
 171        6PY         0.00000   0.01525   0.00274   0.00014  -0.00025
 172        6PZ         0.00000   0.00044  -0.00062  -0.00526   0.01151
 173        7PX        -0.03528   0.00000   0.00000   0.00000   0.00000
 174        7PY         0.00000  -0.07982   0.03668  -0.00216   0.00230
 175        7PZ         0.00000  -0.00450   0.00891   0.14074  -0.13510
 176        8PX         0.79401   0.00000   0.00000   0.00000   0.00000
 177        8PY         0.00000   1.01657   0.12834  -0.05275  -0.00331
 178        8PZ         0.00000  -0.03317   0.08590   3.76132   0.67369
 179        9PX        -3.48195   0.00000   0.00000   0.00000   0.00000
 180        9PY         0.00000  -0.78425  -3.69442   0.02303  -0.04553
 181        9PZ         0.00000  -0.00349   0.03713   0.27459   1.67594
 182       10D 0        0.00000  -0.00085   0.00145   0.05474   0.01251
 183       10D+1        0.03577   0.00000   0.00000   0.00000   0.00000
 184       10D-1        0.00000   0.00146   0.03695  -0.00085   0.00026
 185       10D+2        0.00000  -0.00003   0.00072  -0.02698  -0.01070
 186       10D-2       -0.00089   0.00000   0.00000   0.00000   0.00000
 187       11D 0        0.00000   0.00586  -0.01252  -0.40225  -0.02886
 188       11D+1       -0.23897   0.00000   0.00000   0.00000   0.00000
 189       11D-1        0.00000  -0.03562  -0.20728   0.00732  -0.00159
 190       11D+2        0.00000   0.00015  -0.00282   0.07726   0.03410
 191       11D-2        0.00341   0.00000   0.00000   0.00000   0.00000
 192       12D 0        0.00000  -0.00163  -0.00826  -0.49824  -0.18908
 193       12D+1       -0.09158   0.00000   0.00000   0.00000   0.00000
 194       12D-1        0.00000  -0.30752   0.15584   0.01570   0.00484
 195       12D+2        0.00000  -0.00438   0.00605  -0.37659   0.05738
 196       12D-2       -0.00256   0.00000   0.00000   0.00000   0.00000
 197       13F 0        0.00000  -0.00063   0.00099   0.01820  -0.01332
 198       13F+1       -0.00542   0.00000   0.00000   0.00000   0.00000
 199       13F-1        0.00000  -0.01474  -0.00260  -0.00024   0.00004
 200       13F+2        0.00000  -0.00038   0.00007  -0.01313   0.01479
 201       13F-2        0.00003   0.00000   0.00000   0.00000   0.00000
 202       13F+3        0.01410   0.00000   0.00000   0.00000   0.00000
 203       13F-3        0.00000  -0.00983   0.01626   0.00006  -0.00010
 204       14F 0        0.00000  -0.00012   0.00315   0.14354   0.06397
 205       14F+1        0.17014   0.00000   0.00000   0.00000   0.00000
 206       14F-1        0.00000   0.07269   0.09677  -0.00433  -0.00057
 207       14F+2        0.00000   0.00129   0.00105   0.05859  -0.03816
 208       14F-2       -0.00197   0.00000   0.00000   0.00000   0.00000
 209       14F+3       -0.02568   0.00000   0.00000   0.00000   0.00000
 210       14F-3        0.00000   0.02496  -0.02837  -0.00054   0.00039
          Condensed to atoms (all electrons):
              1          2          3          4
     1  C    5.559304   0.027072   0.024342   0.239665
     2  Br   0.027072  35.045866  -0.118481  -0.056593
     3  Br   0.024342  -0.118481  35.044735  -0.055943
     4  O    0.239665  -0.056593  -0.055943   8.229970
 Mulliken atomic charges:
              1
     1  C    0.149617
     2  Br   0.102135
     3  Br   0.105347
     4  O   -0.357099
 Sum of Mulliken atomic charges =   0.00000
 Mulliken charges with hydrogens summed into heavy atoms:
              1
     1  C    0.149617
     2  Br   0.102135
     3  Br   0.105347
     4  O   -0.357099
 Sum of Mulliken charges with hydrogens summed into heavy atoms =   0.00000
 Electronic spatial extent (au):  <R**2>=           1355.6190
 Charge=              0.0000 electrons
 Dipole moment (field-independent basis, Debye):
    X=              0.0000    Y=              0.0312    Z=             -1.2405  Tot=              1.2409
 Quadrupole moment (field-independent basis, Debye-Ang):
   XX=            -46.9634   YY=            -44.9355   ZZ=            -47.5253
   XY=              0.0000   XZ=              0.0000   YZ=             -0.0443
 Traceless Quadrupole moment (field-independent basis, Debye-Ang):
   XX=             -0.4887   YY=              1.5392   ZZ=             -1.0506
   XY=              0.0000   XZ=              0.0000   YZ=             -0.0443
 Octapole moment (field-independent basis, Debye-Ang**2):
  XXX=              0.0000  YYY=              0.2335  ZZZ=            164.8159  XYY=              0.0000
  XXY=              0.0680  XXZ=             56.3134  XZZ=              0.0000  YZZ=              0.1820
  YYZ=             45.7166  XYZ=              0.0000
 Hexadecapole moment (field-independent basis, Debye-Ang**3):
 XXXX=            -53.6975 YYYY=           -570.9361 ZZZZ=           -597.1030 XXXY=              0.0000
 XXXZ=              0.0000 YYYX=              0.0000 YYYZ=             -0.0829 ZZZX=              0.0000
 ZZZY=             -0.2662 XXYY=           -111.3607 XXZZ=           -110.4164 YYZZ=           -175.0970
 XXYZ=             -0.0052 YYXZ=              0.0000 ZZXY=              0.0000
 N-N= 4.492315505216D+02 E-N=-1.347022044579D+04  KE= 5.257230055451D+03
 1\1\GINC-TRAPISTA\SP\RQCISD-FC\Aug-CC-pVTZ\C1Br2O1\BRUNS\28-Nov-2021\0
 \\# qcisd/aug-cc-pvtz nosymm density=current output=wfn\\br2co-wavefun
 ction\\0,1\C,0,0.,0.,-0.491759\Br,0,0.,-1.594181,-1.54682\Br,0,0.,1.59
 4181,-1.54682\O,0,0.,-0.01,0.6845\\Version=EM64L-G09RevB.01\HF=-5257.6
 845286\MP2=-5258.5485967\MP3=-5258.5484545\MP4D=-5258.5696655\MP4DQ=-5
 258.5481859\MP4SDQ=-5258.5601537\QCISD=-5258.5577541\RMSD=9.217e-09\Di
 pole=0.,0.012257,-0.488056\Quadrupole=-0.3633031,1.1443701,-0.7810671,
 0.,0.,-0.0329696\PG=CS [SG(C1Br2O1)]\\@

 Writing a WFN file to GAUSSIAN.wfn.


 IT IS A CAPITAL MISTAKE TO THEORIZE BEFORE ONE HAS
 DATA.  INSENSIBLY ONE BEGINS TO TWIST FACTS TO SUIT
 THEORIES RATHER THAN THEORIES TO SUIT FACTS.

                                         -- SHERLOCK HOLMES
 Job cpu time:  0 days  5 hours 41 minutes 54.7 seconds.
 File lengths (MBytes):  RWF=  23799 Int=      0 D2E=      0 Chk=      4 Scr=      1
 Normal termination of Gaussian 09 at Sun Nov 28 21:47:49 2021.
