 br2co-wavefunction
GAUSSIAN            210 MOL ORBITALS    578 PRIMITIVES        4 NUCLEI
  C    1    (CENTRE  1)   0.00000000  0.00000000 -0.92928983  CHARGE =  6.0
  Br   2    (CENTRE  2)   0.00000000 -3.01256550 -2.92306618  CHARGE = 35.0
  Br   3    (CENTRE  3)   0.00000000  3.01256550 -2.90416892  CHARGE = 35.0
  O    4    (CENTRE  4)   0.00000000  0.00000000  1.29351754  CHARGE =  8.0
CENTRE ASSIGNMENTS    1  1  1  1  1  1  1  1  1  1  1  1  1  1  1  1  1  1  1  1
CENTRE ASSIGNMENTS    1  1  1  1  1  1  1  1  1  1  1  1  1  1  1  1  1  1  1  1
CENTRE ASSIGNMENTS    1  1  1  1  1  1  1  1  1  1  1  1  1  1  1  1  1  1  1  1
CENTRE ASSIGNMENTS    1  1  1  1  1  1  1  1  1  1  1  1  2  2  2  2  2  2  2  2
CENTRE ASSIGNMENTS    2  2  2  2  2  2  2  2  2  2  2  2  2  2  2  2  2  2  2  2
CENTRE ASSIGNMENTS    2  2  2  2  2  2  2  2  2  2  2  2  2  2  2  2  2  2  2  2
CENTRE ASSIGNMENTS    2  2  2  2  2  2  2  2  2  2  2  2  2  2  2  2  2  2  2  2
CENTRE ASSIGNMENTS    2  2  2  2  2  2  2  2  2  2  2  2  2  2  2  2  2  2  2  2
CENTRE ASSIGNMENTS    2  2  2  2  2  2  2  2  2  2  2  2  2  2  2  2  2  2  2  2
CENTRE ASSIGNMENTS    2  2  2  2  2  2  2  2  2  2  2  2  2  2  2  2  2  2  2  2
CENTRE ASSIGNMENTS    2  2  2  2  2  2  2  2  2  2  2  2  2  2  2  2  2  2  2  2
CENTRE ASSIGNMENTS    2  2  2  2  2  2  2  2  2  2  2  2  2  2  2  2  2  2  2  2
CENTRE ASSIGNMENTS    2  2  2  2  2  2  2  2  2  2  2  2  2  2  2  2  2  2  2  2
CENTRE ASSIGNMENTS    2  2  2  2  2  2  2  2  2  2  2  2  2  2  2  2  2  2  2  2
CENTRE ASSIGNMENTS    2  2  2  2  2  2  2  2  2  3  3  3  3  3  3  3  3  3  3  3
CENTRE ASSIGNMENTS    3  3  3  3  3  3  3  3  3  3  3  3  3  3  3  3  3  3  3  3
CENTRE ASSIGNMENTS    3  3  3  3  3  3  3  3  3  3  3  3  3  3  3  3  3  3  3  3
CENTRE ASSIGNMENTS    3  3  3  3  3  3  3  3  3  3  3  3  3  3  3  3  3  3  3  3
CENTRE ASSIGNMENTS    3  3  3  3  3  3  3  3  3  3  3  3  3  3  3  3  3  3  3  3
CENTRE ASSIGNMENTS    3  3  3  3  3  3  3  3  3  3  3  3  3  3  3  3  3  3  3  3
CENTRE ASSIGNMENTS    3  3  3  3  3  3  3  3  3  3  3  3  3  3  3  3  3  3  3  3
CENTRE ASSIGNMENTS    3  3  3  3  3  3  3  3  3  3  3  3  3  3  3  3  3  3  3  3
CENTRE ASSIGNMENTS    3  3  3  3  3  3  3  3  3  3  3  3  3  3  3  3  3  3  3  3
CENTRE ASSIGNMENTS    3  3  3  3  3  3  3  3  3  3  3  3  3  3  3  3  3  3  3  3
CENTRE ASSIGNMENTS    3  3  3  3  3  3  3  3  3  3  3  3  3  3  3  3  3  3  3  3
CENTRE ASSIGNMENTS    3  3  3  3  3  3  4  4  4  4  4  4  4  4  4  4  4  4  4  4
CENTRE ASSIGNMENTS    4  4  4  4  4  4  4  4  4  4  4  4  4  4  4  4  4  4  4  4
CENTRE ASSIGNMENTS    4  4  4  4  4  4  4  4  4  4  4  4  4  4  4  4  4  4  4  4
CENTRE ASSIGNMENTS    4  4  4  4  4  4  4  4  4  4  4  4  4  4  4  4  4  4
TYPE ASSIGNMENTS      1  1  1  1  1  1  1  1  1  1  1  1  1  1  1  1  2  2  2  3
TYPE ASSIGNMENTS      3  3  4  4  4  2  3  4  2  3  4  2  3  4  5  6  7  8  9 10
TYPE ASSIGNMENTS      5  6  7  8  9 10  5  6  7  8  9 10 11 12 13 17 14 15 18 19
TYPE ASSIGNMENTS     16 20 11 12 13 17 14 15 18 19 16 20  1  1  1  1  1  1  1  1
TYPE ASSIGNMENTS      1  1  1  1  1  1  1  1  1  1  1  1  1  1  1  1  1  1  1  1
TYPE ASSIGNMENTS      1  1  1  1  1  1  1  1  1  1  1  1  1  1  1  1  1  1  1  1
TYPE ASSIGNMENTS      1  1  2  2  2  2  2  2  2  2  2  3  3  3  3  3  3  3  3  3
TYPE ASSIGNMENTS      4  4  4  4  4  4  4  4  4  2  2  2  2  2  2  2  2  2  3  3
TYPE ASSIGNMENTS      3  3  3  3  3  3  3  4  4  4  4  4  4  4  4  4  2  2  2  2
TYPE ASSIGNMENTS      2  2  2  2  3  3  3  3  3  3  3  3  4  4  4  4  4  4  4  4
TYPE ASSIGNMENTS      2  3  4  2  3  4  2  3  4  5  5  5  5  5  5  5  6  6  6  6
TYPE ASSIGNMENTS      6  6  6  7  7  7  7  7  7  7  8  8  8  8  8  8  8  9  9  9
TYPE ASSIGNMENTS      9  9  9  9 10 10 10 10 10 10 10  5  6  7  8  9 10  5  6  7
TYPE ASSIGNMENTS      8  9 10  5  6  7  8  9 10 11 12 13 17 14 15 18 19 16 20 11
TYPE ASSIGNMENTS     12 13 17 14 15 18 19 16 20  1  1  1  1  1  1  1  1  1  1  1
TYPE ASSIGNMENTS      1  1  1  1  1  1  1  1  1  1  1  1  1  1  1  1  1  1  1  1
TYPE ASSIGNMENTS      1  1  1  1  1  1  1  1  1  1  1  1  1  1  1  1  1  1  1  2
TYPE ASSIGNMENTS      2  2  2  2  2  2  2  2  3  3  3  3  3  3  3  3  3  4  4  4
TYPE ASSIGNMENTS      4  4  4  4  4  4  2  2  2  2  2  2  2  2  2  3  3  3  3  3
TYPE ASSIGNMENTS      3  3  3  3  4  4  4  4  4  4  4  4  4  2  2  2  2  2  2  2
TYPE ASSIGNMENTS      2  3  3  3  3  3  3  3  3  4  4  4  4  4  4  4  4  2  3  4
TYPE ASSIGNMENTS      2  3  4  2  3  4  5  5  5  5  5  5  5  6  6  6  6  6  6  6
TYPE ASSIGNMENTS      7  7  7  7  7  7  7  8  8  8  8  8  8  8  9  9  9  9  9  9
TYPE ASSIGNMENTS      9 10 10 10 10 10 10 10  5  6  7  8  9 10  5  6  7  8  9 10
TYPE ASSIGNMENTS      5  6  7  8  9 10 11 12 13 17 14 15 18 19 16 20 11 12 13 17
TYPE ASSIGNMENTS     14 15 18 19 16 20  1  1  1  1  1  1  1  1  1  1  1  1  1  1
TYPE ASSIGNMENTS      1  1  2  2  2  3  3  3  4  4  4  2  3  4  2  3  4  2  3  4
TYPE ASSIGNMENTS      5  6  7  8  9 10  5  6  7  8  9 10  5  6  7  8  9 10 11 12
TYPE ASSIGNMENTS     13 17 14 15 18 19 16 20 11 12 13 17 14 15 18 19 16 20
EXPONENTS  0.8236000D+04 0.1235000D+04 0.2808000D+03 0.7927000D+02 0.2559000D+02
EXPONENTS  0.8997000D+01 0.3319000D+01 0.2808000D+03 0.7927000D+02 0.2559000D+02
EXPONENTS  0.8997000D+01 0.3319000D+01 0.3643000D+00 0.9059000D+00 0.1285000D+00
EXPONENTS  0.4402000D-01 0.1871000D+02 0.4133000D+01 0.1200000D+01 0.1871000D+02
EXPONENTS  0.4133000D+01 0.1200000D+01 0.1871000D+02 0.4133000D+01 0.1200000D+01
EXPONENTS  0.3827000D+00 0.3827000D+00 0.3827000D+00 0.1209000D+00 0.1209000D+00
EXPONENTS  0.1209000D+00 0.3569000D-01 0.3569000D-01 0.3569000D-01 0.1097000D+01
EXPONENTS  0.1097000D+01 0.1097000D+01 0.1097000D+01 0.1097000D+01 0.1097000D+01
EXPONENTS  0.3180000D+00 0.3180000D+00 0.3180000D+00 0.3180000D+00 0.3180000D+00
EXPONENTS  0.3180000D+00 0.1000000D+00 0.1000000D+00 0.1000000D+00 0.1000000D+00
EXPONENTS  0.1000000D+00 0.1000000D+00 0.7610000D+00 0.7610000D+00 0.7610000D+00
EXPONENTS  0.7610000D+00 0.7610000D+00 0.7610000D+00 0.7610000D+00 0.7610000D+00
EXPONENTS  0.7610000D+00 0.7610000D+00 0.2680000D+00 0.2680000D+00 0.2680000D+00
EXPONENTS  0.2680000D+00 0.2680000D+00 0.2680000D+00 0.2680000D+00 0.2680000D+00
EXPONENTS  0.2680000D+00 0.2680000D+00 0.1063900D+08 0.1593400D+07 0.3626100D+06
EXPONENTS  0.1027000D+06 0.3350100D+05 0.1209300D+05 0.4715900D+04 0.1955600D+04
EXPONENTS  0.8526100D+03 0.3876700D+03 0.1826800D+03 0.8824500D+02 0.3926300D+02
EXPONENTS  0.9405700D+01 0.1899500D+01 0.3350100D+05 0.1209300D+05 0.4715900D+04
EXPONENTS  0.1955600D+04 0.8526100D+03 0.3876700D+03 0.1826800D+03 0.8824500D+02
EXPONENTS  0.3926300D+02 0.1923400D+02 0.9405700D+01 0.1899500D+01 0.4715900D+04
EXPONENTS  0.8526100D+03 0.3876700D+03 0.1826800D+03 0.8824500D+02 0.3926300D+02
EXPONENTS  0.1923400D+02 0.9405700D+01 0.4160100D+01 0.1899500D+01 0.4715900D+04
EXPONENTS  0.8526100D+03 0.3876700D+03 0.8824500D+02 0.3926300D+02 0.1923400D+02
EXPONENTS  0.9405700D+01 0.4160100D+01 0.1899500D+01 0.3011400D+00 0.6047200D+00
EXPONENTS  0.1251500D+00 0.4559300D-01 0.8676500D+04 0.2055900D+04 0.6662300D+03
EXPONENTS  0.2531000D+03 0.1061200D+03 0.4724200D+02 0.2182500D+02 0.9968400D+01
EXPONENTS  0.1998200D+01 0.8676500D+04 0.2055900D+04 0.6662300D+03 0.2531000D+03
EXPONENTS  0.1061200D+03 0.4724200D+02 0.2182500D+02 0.9968400D+01 0.1998200D+01
EXPONENTS  0.8676500D+04 0.2055900D+04 0.6662300D+03 0.2531000D+03 0.1061200D+03
EXPONENTS  0.4724200D+02 0.2182500D+02 0.9968400D+01 0.1998200D+01 0.8676500D+04
EXPONENTS  0.6662300D+03 0.2531000D+03 0.1061200D+03 0.4724200D+02 0.2182500D+02
EXPONENTS  0.9968400D+01 0.4517100D+01 0.1998200D+01 0.8676500D+04 0.6662300D+03
EXPONENTS  0.2531000D+03 0.1061200D+03 0.4724200D+02 0.2182500D+02 0.9968400D+01
EXPONENTS  0.4517100D+01 0.1998200D+01 0.8676500D+04 0.6662300D+03 0.2531000D+03
EXPONENTS  0.1061200D+03 0.4724200D+02 0.2182500D+02 0.9968400D+01 0.4517100D+01
EXPONENTS  0.1998200D+01 0.6662300D+03 0.1061200D+03 0.4724200D+02 0.2182500D+02
EXPONENTS  0.9968400D+01 0.4517100D+01 0.1998200D+01 0.2814500D+00 0.6662300D+03
EXPONENTS  0.1061200D+03 0.4724200D+02 0.2182500D+02 0.9968400D+01 0.4517100D+01
EXPONENTS  0.1998200D+01 0.2814500D+00 0.6662300D+03 0.1061200D+03 0.4724200D+02
EXPONENTS  0.2182500D+02 0.9968400D+01 0.4517100D+01 0.1998200D+01 0.2814500D+00
EXPONENTS  0.7098800D+00 0.7098800D+00 0.7098800D+00 0.1020400D+00 0.1020400D+00
EXPONENTS  0.1020400D+00 0.3514200D-01 0.3514200D-01 0.3514200D-01 0.4038300D+03
EXPONENTS  0.1211700D+03 0.4634500D+02 0.1972100D+02 0.8862400D+01 0.3996200D+01
EXPONENTS  0.1763600D+01 0.4038300D+03 0.1211700D+03 0.4634500D+02 0.1972100D+02
EXPONENTS  0.8862400D+01 0.3996200D+01 0.1763600D+01 0.4038300D+03 0.1211700D+03
EXPONENTS  0.4634500D+02 0.1972100D+02 0.8862400D+01 0.3996200D+01 0.1763600D+01
EXPONENTS  0.4038300D+03 0.1211700D+03 0.4634500D+02 0.1972100D+02 0.8862400D+01
EXPONENTS  0.3996200D+01 0.1763600D+01 0.4038300D+03 0.1211700D+03 0.4634500D+02
EXPONENTS  0.1972100D+02 0.8862400D+01 0.3996200D+01 0.1763600D+01 0.4038300D+03
EXPONENTS  0.1211700D+03 0.4634500D+02 0.1972100D+02 0.8862400D+01 0.3996200D+01
EXPONENTS  0.1763600D+01 0.7061900D+00 0.7061900D+00 0.7061900D+00 0.7061900D+00
EXPONENTS  0.7061900D+00 0.7061900D+00 0.2639000D+00 0.2639000D+00 0.2639000D+00
EXPONENTS  0.2639000D+00 0.2639000D+00 0.2639000D+00 0.1047000D+00 0.1047000D+00
EXPONENTS  0.1047000D+00 0.1047000D+00 0.1047000D+00 0.1047000D+00 0.5515000D+00
EXPONENTS  0.5515000D+00 0.5515000D+00 0.5515000D+00 0.5515000D+00 0.5515000D+00
EXPONENTS  0.5515000D+00 0.5515000D+00 0.5515000D+00 0.5515000D+00 0.2580000D+00
EXPONENTS  0.2580000D+00 0.2580000D+00 0.2580000D+00 0.2580000D+00 0.2580000D+00
EXPONENTS  0.2580000D+00 0.2580000D+00 0.2580000D+00 0.2580000D+00 0.1063900D+08
EXPONENTS  0.1593400D+07 0.3626100D+06 0.1027000D+06 0.3350100D+05 0.1209300D+05
EXPONENTS  0.4715900D+04 0.1955600D+04 0.8526100D+03 0.3876700D+03 0.1826800D+03
EXPONENTS  0.8824500D+02 0.3926300D+02 0.9405700D+01 0.1899500D+01 0.3350100D+05
EXPONENTS  0.1209300D+05 0.4715900D+04 0.1955600D+04 0.8526100D+03 0.3876700D+03
EXPONENTS  0.1826800D+03 0.8824500D+02 0.3926300D+02 0.1923400D+02 0.9405700D+01
EXPONENTS  0.1899500D+01 0.4715900D+04 0.8526100D+03 0.3876700D+03 0.1826800D+03
EXPONENTS  0.8824500D+02 0.3926300D+02 0.1923400D+02 0.9405700D+01 0.4160100D+01
EXPONENTS  0.1899500D+01 0.4715900D+04 0.8526100D+03 0.3876700D+03 0.8824500D+02
EXPONENTS  0.3926300D+02 0.1923400D+02 0.9405700D+01 0.4160100D+01 0.1899500D+01
EXPONENTS  0.3011400D+00 0.6047200D+00 0.1251500D+00 0.4559300D-01 0.8676500D+04
EXPONENTS  0.2055900D+04 0.6662300D+03 0.2531000D+03 0.1061200D+03 0.4724200D+02
EXPONENTS  0.2182500D+02 0.9968400D+01 0.1998200D+01 0.8676500D+04 0.2055900D+04
EXPONENTS  0.6662300D+03 0.2531000D+03 0.1061200D+03 0.4724200D+02 0.2182500D+02
EXPONENTS  0.9968400D+01 0.1998200D+01 0.8676500D+04 0.2055900D+04 0.6662300D+03
EXPONENTS  0.2531000D+03 0.1061200D+03 0.4724200D+02 0.2182500D+02 0.9968400D+01
EXPONENTS  0.1998200D+01 0.8676500D+04 0.6662300D+03 0.2531000D+03 0.1061200D+03
EXPONENTS  0.4724200D+02 0.2182500D+02 0.9968400D+01 0.4517100D+01 0.1998200D+01
EXPONENTS  0.8676500D+04 0.6662300D+03 0.2531000D+03 0.1061200D+03 0.4724200D+02
EXPONENTS  0.2182500D+02 0.9968400D+01 0.4517100D+01 0.1998200D+01 0.8676500D+04
EXPONENTS  0.6662300D+03 0.2531000D+03 0.1061200D+03 0.4724200D+02 0.2182500D+02
EXPONENTS  0.9968400D+01 0.4517100D+01 0.1998200D+01 0.6662300D+03 0.1061200D+03
EXPONENTS  0.4724200D+02 0.2182500D+02 0.9968400D+01 0.4517100D+01 0.1998200D+01
EXPONENTS  0.2814500D+00 0.6662300D+03 0.1061200D+03 0.4724200D+02 0.2182500D+02
EXPONENTS  0.9968400D+01 0.4517100D+01 0.1998200D+01 0.2814500D+00 0.6662300D+03
EXPONENTS  0.1061200D+03 0.4724200D+02 0.2182500D+02 0.9968400D+01 0.4517100D+01
EXPONENTS  0.1998200D+01 0.2814500D+00 0.7098800D+00 0.7098800D+00 0.7098800D+00
EXPONENTS  0.1020400D+00 0.1020400D+00 0.1020400D+00 0.3514200D-01 0.3514200D-01
EXPONENTS  0.3514200D-01 0.4038300D+03 0.1211700D+03 0.4634500D+02 0.1972100D+02
EXPONENTS  0.8862400D+01 0.3996200D+01 0.1763600D+01 0.4038300D+03 0.1211700D+03
EXPONENTS  0.4634500D+02 0.1972100D+02 0.8862400D+01 0.3996200D+01 0.1763600D+01
EXPONENTS  0.4038300D+03 0.1211700D+03 0.4634500D+02 0.1972100D+02 0.8862400D+01
EXPONENTS  0.3996200D+01 0.1763600D+01 0.4038300D+03 0.1211700D+03 0.4634500D+02
EXPONENTS  0.1972100D+02 0.8862400D+01 0.3996200D+01 0.1763600D+01 0.4038300D+03
EXPONENTS  0.1211700D+03 0.4634500D+02 0.1972100D+02 0.8862400D+01 0.3996200D+01
EXPONENTS  0.1763600D+01 0.4038300D+03 0.1211700D+03 0.4634500D+02 0.1972100D+02
EXPONENTS  0.8862400D+01 0.3996200D+01 0.1763600D+01 0.7061900D+00 0.7061900D+00
EXPONENTS  0.7061900D+00 0.7061900D+00 0.7061900D+00 0.7061900D+00 0.2639000D+00
EXPONENTS  0.2639000D+00 0.2639000D+00 0.2639000D+00 0.2639000D+00 0.2639000D+00
EXPONENTS  0.1047000D+00 0.1047000D+00 0.1047000D+00 0.1047000D+00 0.1047000D+00
EXPONENTS  0.1047000D+00 0.5515000D+00 0.5515000D+00 0.5515000D+00 0.5515000D+00
EXPONENTS  0.5515000D+00 0.5515000D+00 0.5515000D+00 0.5515000D+00 0.5515000D+00
EXPONENTS  0.5515000D+00 0.2580000D+00 0.2580000D+00 0.2580000D+00 0.2580000D+00
EXPONENTS  0.2580000D+00 0.2580000D+00 0.2580000D+00 0.2580000D+00 0.2580000D+00
EXPONENTS  0.2580000D+00 0.1533000D+05 0.2299000D+04 0.5224000D+03 0.1473000D+03
EXPONENTS  0.4755000D+02 0.1676000D+02 0.6207000D+01 0.5224000D+03 0.1473000D+03
EXPONENTS  0.4755000D+02 0.1676000D+02 0.6207000D+01 0.6882000D+00 0.1752000D+01
EXPONENTS  0.2384000D+00 0.7376000D-01 0.3446000D+02 0.7749000D+01 0.2280000D+01
EXPONENTS  0.3446000D+02 0.7749000D+01 0.2280000D+01 0.3446000D+02 0.7749000D+01
EXPONENTS  0.2280000D+01 0.7156000D+00 0.7156000D+00 0.7156000D+00 0.2140000D+00
EXPONENTS  0.2140000D+00 0.2140000D+00 0.5974000D-01 0.5974000D-01 0.5974000D-01
EXPONENTS  0.2314000D+01 0.2314000D+01 0.2314000D+01 0.2314000D+01 0.2314000D+01
EXPONENTS  0.2314000D+01 0.6450000D+00 0.6450000D+00 0.6450000D+00 0.6450000D+00
EXPONENTS  0.6450000D+00 0.6450000D+00 0.2140000D+00 0.2140000D+00 0.2140000D+00
EXPONENTS  0.2140000D+00 0.2140000D+00 0.2140000D+00 0.1428000D+01 0.1428000D+01
EXPONENTS  0.1428000D+01 0.1428000D+01 0.1428000D+01 0.1428000D+01 0.1428000D+01
EXPONENTS  0.1428000D+01 0.1428000D+01 0.1428000D+01 0.5000000D+00 0.5000000D+00
EXPONENTS  0.5000000D+00 0.5000000D+00 0.5000000D+00 0.5000000D+00 0.5000000D+00
EXPONENTS  0.5000000D+00 0.5000000D+00 0.5000000D+00
MO    1     MO 0.0        OCC NO =    2.0000167  ORB. ENERGY =    0.000000
  0.12122179D+00  0.22598183D+00  0.38194008D+00  0.57412718D+00  0.70521241D+00
  0.59517439D+00  0.22380111D+00  0.29066116D-04  0.21725121D-03  0.81191736D-03
  0.22651230D-02  0.30346404D-02 -0.35833444D-02  0.92866652D-02 -0.19835927D-02
 -0.30769026D-03 -0.93493061D-14 -0.87655688D-14 -0.62416071D-14 -0.80799237D-03
 -0.75754421D-03 -0.53941661D-03  0.36602746D-02  0.34317401D-02  0.24436034D-02
 -0.66214470D-14 -0.27324023D-03  0.19762068D-02  0.17331212D-14 -0.59317712D-04
  0.38056126D-03 -0.66488747D-15  0.20985475D-05  0.48594572D-05 -0.93746505D-04
 -0.49709748D-03  0.59084398D-03  0.14928770D-13  0.73909035D-14  0.19311620D-03
  0.33303031D-03 -0.32142888D-03 -0.11601437D-04  0.17268793D-13  0.93864990D-15
  0.81652745D-04  0.30657836D-04 -0.18762914D-04 -0.11894922D-04 -0.23500776D-14
 -0.95141047D-15  0.17230120D-04 -0.12249272D-14  0.78624099D-05  0.12273238D-03
  0.35021536D-14 -0.20138617D-04 -0.16357260D-03  0.17262793D-15 -0.34486124D-05
 -0.20462454D-03  0.71795467D-14 -0.11405091D-15 -0.59505633D-05 -0.13728292D-04
  0.87821295D-16  0.56200651D-06  0.28549699D-05  0.25433144D-15  0.17289683D-04
  0.38329905D-04 -0.45915249D-14 -0.30405129D-01 -0.57196628D-01 -0.99010284D-01
 -0.16229687D+00 -0.25424052D+00 -0.38214418D+00 -0.54617387D+00 -0.72504463D+00
 -0.84436685D+00 -0.77545327D+00 -0.45330335D+00 -0.11894416D+00 -0.67626359D-02
 -0.11800073D-03 -0.11878115D-04 -0.14426836D-02 -0.41675803D-02 -0.19101000D-01
 -0.56543120D-01 -0.16397670D+00 -0.34084070D+00 -0.48757667D+00 -0.13980380D+00
  0.55867473D+00  0.54018441D+00  0.11790350D+00 -0.17066176D-02 -0.88292870D-03
 -0.41190450D-02 -0.83592961D-02 -0.32761535D-01 -0.22989545D-01  0.14971662D+00
  0.46392040D+00  0.56747855D-01 -0.40553684D+00 -0.19031842D+00 -0.97031468D-06
 -0.13302244D-05  0.25503620D-05  0.54203578D-05 -0.20490469D-04 -0.66260972D-04
 -0.23044558D-04  0.22540088D-03  0.50276080D-03 -0.33361677D-03 -0.78979791D-02
  0.48274595D-03  0.15674453D-03  0.90861458D-08  0.13037263D-07  0.17262541D-07
  0.19935230D-07  0.18483718D-07  0.11969808D-07  0.42236568D-08  0.48666604D-09
 -0.79506279D-12  0.84219549D+01  0.12084248D+02  0.16000661D+02  0.18477979D+02
  0.17132571D+02  0.11094823D+02  0.39149105D+01  0.45109109D+00 -0.73694426D-03
  0.52815494D+01  0.75782351D+01  0.10034283D+02  0.11587851D+02  0.10744123D+02
  0.69577499D+01  0.24551061D+01  0.28288680D+00 -0.46215012D-03 -0.71500484D-11
  0.20386062D-10  0.99506989D-10  0.20619740D-09  0.25875739D-09  0.41034268D-10
 -0.33215853D-09 -0.28969040D-09 -0.74469228D-10 -0.50149856D-01  0.14298617D+00
  0.69793391D+00  0.14462518D+01  0.18149032D+01  0.28781101D+00 -0.23297329D+01
 -0.20318648D+01 -0.52232109D+00 -0.31538242D-01  0.89921146D-01  0.43891668D+00
  0.90951882D+00  0.11413563D+01  0.18099859D+00 -0.14651224D+01 -0.12777992D+01
 -0.32847729D+00  0.19106707D-14  0.26992788D-14 -0.12559603D-14  0.25169563D-14
  0.27630547D-14  0.74583506D-14  0.23503233D-14 -0.50461941D-14 -0.24587987D-03
 -0.34736406D-03  0.16162668D-03 -0.32390140D-03 -0.35557123D-03 -0.95979821D-03
 -0.30245777D-03  0.64938327D-03 -0.12804609D-03 -0.18089569D-03  0.84169819D-04
 -0.16867711D-03 -0.18516971D-03 -0.49983110D-03 -0.15750998D-03  0.33817728D-03
 -0.25719398D-11 -0.18494757D-01 -0.11739993D-01 -0.28512047D-13  0.13727952D-03
  0.62177054D-04  0.85479937D-15  0.84956511D-05  0.66344212D-05  0.86268912D+00
  0.90271121D+00  0.76915827D+00  0.50654887D+00  0.23345329D+00  0.69907966D-01
  0.11894248D-01 -0.10528786D+01 -0.11017241D+01 -0.93872787D+00 -0.61822327D+00
 -0.28492070D+00 -0.85319964D-01 -0.14516469D-01  0.19018953D+00  0.19901285D+00
  0.16956960D+00  0.11167440D+00  0.51467406D-01  0.15411998D-01  0.26222208D-02
 -0.11479223D-10 -0.12011770D-10 -0.10234671D-10 -0.67403045D-11 -0.31064056D-11
 -0.93021820D-12 -0.15826874D-12  0.18024755D-11  0.18860964D-11  0.16070551D-11
  0.10583673D-11  0.48776997D-12  0.14606351D-12  0.24851467D-13 -0.31666006D+01
 -0.33135063D+01 -0.28232847D+01 -0.18593464D+01 -0.85691742D+00 -0.25660531D+00
 -0.43659218D-01  0.97304434D-03 -0.11859975D-02  0.21295316D-03 -0.24241589D-13
 -0.10331864D-13 -0.32410931D-02 -0.10622036D-03  0.10457351D-03  0.16468541D-05
  0.35593104D-14  0.21090323D-14  0.27872169D-03 -0.13977702D-04  0.15394927D-04
 -0.14172249D-05 -0.18640472D-14 -0.11417314D-14  0.26146165D-04  0.41874536D-14
 -0.34762397D-04  0.76308572D-04 -0.11682799D-13  0.17673550D-03  0.12505265D-03
 -0.87956231D-15 -0.72448306D-04 -0.35397837D-03 -0.23145161D-13 -0.18758743D-15
  0.10038621D-04 -0.17911351D-04  0.61038750D-15 -0.62976736D-04 -0.49996918D-04
 -0.47625217D-16  0.32860873D-04  0.10373097D-03  0.21460161D-14 -0.38372568D-01
 -0.72184579D-01 -0.12495519D+00 -0.20482555D+00 -0.32086235D+00 -0.48228222D+00
 -0.68929468D+00 -0.91503718D+00 -0.10656269D+01 -0.97865503D+00 -0.57208812D+00
 -0.15011259D+00 -0.85347344D-02 -0.14892194D-03 -0.14990687D-04 -0.18205330D-02
 -0.52591003D-02 -0.24103692D-01 -0.71352179D-01 -0.20692340D+00 -0.43010939D+00
 -0.61527659D+00 -0.17641945D+00  0.70499575D+00  0.68166268D+00  0.14878330D+00
 -0.21535933D-02 -0.11125208D-02 -0.51901395D-02 -0.10533003D-01 -0.41280670D-01
 -0.28967624D-01  0.18864813D+00  0.58455579D+00  0.71504264D-01 -0.51099048D+00
 -0.23980781D+00 -0.12256338D-05 -0.16802467D-05  0.32214394D-05  0.68466179D-05
 -0.25882131D-04 -0.83696238D-04 -0.29108279D-04  0.28471067D-03  0.63505238D-03
 -0.42140143D-03 -0.99737844D-02  0.59743184D-03  0.15033501D-03 -0.66919742D-08
 -0.96019842D-08 -0.12713914D-07 -0.14682358D-07 -0.13613315D-07 -0.88158000D-08
 -0.31107362D-08 -0.35843103D-09  0.58556618D-12 -0.11528787D+02 -0.16542088D+02
 -0.21903253D+02 -0.25294445D+02 -0.23452721D+02 -0.15187667D+02 -0.53591082D+01
 -0.61749713D+00  0.10088006D-02  0.70630903D+01  0.10134480D+02  0.13418988D+02
  0.15496596D+02  0.14368267D+02  0.93046968D+01  0.32832479D+01  0.37830850D+00
 -0.61803986D-03  0.43873737D-11 -0.12509184D-10 -0.61058935D-10 -0.12652572D-09
 -0.15877730D-09 -0.25179223D-10  0.20381731D-09  0.17775824D-09  0.45695401D-10
  0.68748596D-01 -0.19601449D+00 -0.95677195D+00 -0.19826134D+01 -0.24879841D+01
 -0.39454954D+00  0.31937452D+01  0.27854089D+01  0.71603080D+00 -0.42194335D-01
  0.12030357D+00  0.58721718D+00  0.12168257D+01  0.15269961D+01  0.24215412D+00
 -0.19601558D+01 -0.17095400D+01 -0.43946270D+00 -0.15910435D-14 -0.22477290D-14
  0.10458566D-14 -0.20959064D-14 -0.23008361D-14 -0.62106778D-14 -0.19571487D-14
  0.42020398D-14  0.26696497D-03  0.37715179D-03 -0.17548676D-03  0.35167712D-03
  0.38606276D-03  0.10421044D-02  0.32839463D-03 -0.70507024D-03 -0.15343352D-03
 -0.21676150D-03  0.10085800D-03 -0.20212038D-03 -0.22188293D-03 -0.59893158D-03
 -0.18873916D-03  0.40522700D-03  0.16047883D-11  0.25366575D-01 -0.15694026D-01
  0.17846294D-13 -0.11286935D-03  0.57012406D-04 -0.20548491D-15 -0.90066397D-05
  0.65814323D-05  0.11956009D+01  0.12510676D+01  0.10659765D+01  0.70202612D+00
  0.32354294D+00  0.96885457D-01  0.16484239D-01 -0.14847457D+01 -0.15536264D+01
 -0.13237729D+01 -0.87180452D+00 -0.40178875D+00 -0.12031629D+00 -0.20470797D-01
  0.28914480D+00  0.30255888D+00  0.25779636D+00  0.16977839D+00  0.78245806D-01
  0.23430833D-01  0.39865577D-02 -0.88605997D-11 -0.92716629D-11 -0.78999530D-11
 -0.52027163D-11 -0.23977770D-11 -0.71801821D-12 -0.12216471D-12  0.12481287D-09
  0.13060322D-09  0.11128094D-09  0.73286909D-10  0.33775755D-10  0.10114204D-10
  0.17208461D-11  0.43409577D+01  0.45423445D+01  0.38703206D+01  0.25488987D+01
  0.11747115D+01  0.35176927D+00  0.59850559D-01  0.13116835D-02 -0.16041274D-02
  0.29244387D-03 -0.20752931D-13  0.10758497D-12  0.43743948D-02 -0.12464324D-03
  0.11576023D-03  0.88830111D-05  0.55162075D-14 -0.24400554D-14 -0.32480611D-03
 -0.13107684D-04  0.14952038D-04 -0.18443532D-05 -0.99123057D-15  0.99954619D-15
 -0.31148113D-04 -0.22809355D-14  0.48493527D-04  0.10857134D-03  0.77317771D-14
 -0.24386025D-03  0.16449455D-03 -0.88897049D-15  0.98379670D-04 -0.49020857D-03
 -0.16277321D-13  0.39201802D-15 -0.99994853D-05 -0.23814675D-04 -0.14998842D-14
  0.74694313D-04 -0.58327374D-04  0.32383013D-15 -0.44695857D-04  0.12977140D-03
  0.26642591D-14 -0.34631723D-01 -0.64547838D-01 -0.10944993D+00 -0.16564083D+00
 -0.20662388D+00 -0.17731403D+00 -0.67901853D-01 -0.33335469D-05 -0.35766770D-04
 -0.13184305D-03 -0.38550135D-03 -0.46454787D-03  0.55959713D-03 -0.30781804D-02
  0.28900248D-03  0.67510277D-04  0.56703941D-13  0.54983749D-13  0.37091712D-13
  0.38836871D-03  0.37658701D-03  0.25404337D-03  0.26947958D-02  0.26130454D-02
  0.17627450D-02  0.12696462D-13  0.90561187D-04  0.60779053D-03  0.31513641D-14
 -0.94876228D-05  0.77604812D-04  0.10622987D-14 -0.39257636D-05  0.73615763D-05
  0.28049871D-03 -0.50580983D-04 -0.22991773D-03  0.85348250D-14  0.97587561D-14
  0.51019755D-04  0.32128044D-04  0.15336073D-03 -0.18548877D-03 -0.55787249D-14
 -0.31960066D-15  0.27106836D-04  0.28069189D-05  0.45355297D-04 -0.48162216D-04
  0.22211139D-14 -0.84886505D-15  0.95523339D-05 -0.65433162D-15  0.70596324D-05
 -0.28642585D-03 -0.46937656D-14 -0.18960759D-04  0.42716189D-03  0.66567604D-14
 -0.22181383D-05  0.43211567D-03  0.26489195D-14 -0.16519416D-15 -0.18022097D-06
  0.78586964D-04 -0.12787905D-15  0.80611271D-05 -0.40347778D-04  0.62346153D-15
 -0.75204642D-05 -0.19541311D-03  0.19687657D-14
MO    2     MO 0.0        OCC NO =    2.0000159  ORB. ENERGY =    0.000000
 -0.16634704D-01 -0.31010440D-01 -0.52411868D-01 -0.78784814D-01 -0.96773032D-01
 -0.81673025D-01 -0.30711190D-01 -0.38366272D-05 -0.28676411D-04 -0.10717030D-03
 -0.29898844D-03 -0.40056208D-03  0.47298913D-03 -0.12854475D-02  0.26081135D-03
  0.40755435D-04 -0.71591193D-13 -0.67121294D-13 -0.47794360D-13 -0.58260891D-02
 -0.54623289D-02 -0.38895035D-02 -0.46461486D-03 -0.43560596D-03 -0.31017740D-03
 -0.57088704D-13 -0.19648948D-02 -0.25978727D-03 -0.25501491D-13 -0.44973528D-03
 -0.51538947D-04 -0.11949557D-15  0.15979832D-04 -0.58960795D-06  0.14111744D-04
  0.63312741D-04 -0.77424484D-04 -0.19327629D-13  0.24508156D-13  0.14439639D-02
 -0.45638524D-04  0.42608809D-04  0.30297152D-05 -0.16704321D-13 -0.12620185D-13
  0.61859263D-03 -0.41802128D-05  0.24927004D-05  0.16875124D-05  0.16063858D-14
  0.15298666D-14  0.13205672D-03 -0.49842327D-15  0.54806168D-04 -0.16599038D-04
  0.83211218D-14 -0.14553065D-03  0.22976180D-04 -0.68258520D-14 -0.18887855D-04
  0.26820934D-04 -0.24852009D-14  0.36216872D-14 -0.44922457D-04  0.21371459D-05
 -0.34170054D-14  0.89389720D-05 -0.27806873D-06 -0.74480562D-14  0.12582840D-03
 -0.61333689D-05  0.57590963D-14  0.35551503D-01  0.66877732D-01  0.11576877D+00
  0.18976724D+00  0.29727328D+00  0.44682593D+00  0.63861930D+00  0.84776573D+00
  0.98728443D+00  0.90670653D+00  0.53002950D+00  0.13907665D+00  0.79072801D-02
  0.13797353D-03  0.13888606D-04  0.16866195D-02  0.48722551D-02  0.22330690D-01
  0.66103705D-01  0.19170267D+00  0.39847170D+00  0.57001850D+00  0.16344251D+00
 -0.65313816D+00 -0.63152141D+00 -0.13783920D+00  0.19951807D-02  0.10270211D-02
  0.47912660D-02  0.97235188D-02  0.38108161D-01  0.26741399D-01 -0.17415011D+00
 -0.53963141D+00 -0.66009007D-01  0.47171975D+00  0.22137806D+00  0.11203955D-05
  0.15359733D-05 -0.29448324D-05 -0.62587371D-05  0.23659777D-04  0.76509710D-04
  0.26608913D-04 -0.26026415D-03 -0.58052398D-03  0.38521805D-03  0.92130574D-02
 -0.46854802D-03  0.74297879D-05 -0.62675004D-08 -0.89929275D-08 -0.11907467D-07
 -0.13751052D-07 -0.12749818D-07 -0.82566112D-08 -0.29134213D-08 -0.33569564D-09
  0.54842355D-12 -0.12720413D+02 -0.18251894D+02 -0.24167194D+02 -0.27908902D+02
 -0.25876816D+02 -0.16757478D+02 -0.59130305D+01 -0.68132220D+00  0.11130712D-02
 -0.76275658D+01 -0.10944418D+02 -0.14491421D+02 -0.16735069D+02 -0.15516565D+02
 -0.10048319D+02 -0.35456420D+01 -0.40854255D+00  0.66743302D-03  0.10730470D-12
 -0.30594482D-12 -0.14933560D-11 -0.30945177D-11 -0.38833142D-11 -0.61582379D-12
  0.49848855D-11  0.43475429D-11  0.11176006D-11  0.76156518D-01 -0.21713580D+00
 -0.10598678D+01 -0.21962476D+01 -0.27560739D+01 -0.43706375D+00  0.35378834D+01
  0.30855473D+01  0.79318584D+00  0.45615962D-01 -0.13005923D+00 -0.63483584D+00
 -0.13155006D+01 -0.16508234D+01 -0.26179090D+00  0.21191089D+01  0.18481702D+01
  0.47509965D+00  0.18537453D-14  0.26188580D-14 -0.12185409D-14  0.24419676D-14
  0.26807338D-14  0.72361407D-14  0.22802991D-14 -0.48958507D-14  0.11163692D-03
  0.15771381D-03 -0.73383413D-04  0.14706105D-03  0.16144012D-03  0.43577748D-03
  0.13732500D-03 -0.29483969D-03  0.12152185D-03  0.17167864D-03 -0.79881175D-04
  0.16008263D-03  0.17573489D-03  0.47436356D-03  0.14948449D-03 -0.32094638D-03
  0.13554705D-12  0.28094958D-01  0.16909353D-01  0.10800440D-13  0.80619441D-04
  0.10407148D-04 -0.13931742D-15 -0.28411082D-05 -0.74574296D-06 -0.12853909D+01
 -0.13450230D+01 -0.11460316D+01 -0.75474847D+00 -0.34784110D+00 -0.10416158D+00
 -0.17722210D-01  0.15717649D+01  0.16446826D+01  0.14013576D+01  0.92289992D+00
  0.42533709D+00  0.12736788D+00  0.21670565D-01 -0.28637400D+00 -0.29965954D+00
 -0.25532597D+00 -0.16815145D+00 -0.77495998D-01 -0.23206302D-01 -0.39483555D-02
  0.62596471D-10  0.65500463D-10  0.55809900D-10  0.36755038D-10  0.16939303D-10
  0.50725017D-11  0.86304315D-12  0.90260855D-11  0.94448259D-11  0.80474972D-11
  0.52998853D-11  0.24425593D-11  0.73142835D-12  0.12444633D-12  0.46657648D+01
  0.48822201D+01  0.41599129D+01  0.27396171D+01  0.12626080D+01  0.37809000D+00
  0.64328808D-01 -0.13273596D-02  0.15477216D-02 -0.22036205D-03  0.48476111D-13
  0.76024358D-14  0.45450345D-02  0.83308702D-04 -0.50050033D-04 -0.33258669D-04
 -0.15694272D-14  0.33704130D-15 -0.21433074D-03 -0.20108707D-05  0.86061361D-06
  0.11502571D-05  0.30856870D-14  0.18392018D-14 -0.22458208D-04  0.19904469D-14
  0.44806195D-04 -0.12423486D-03 -0.49512209D-14 -0.25981216D-03 -0.16091717D-03
 -0.10201197D-14  0.12539358D-03  0.53362176D-03 -0.87694875D-14 -0.81222676D-15
  0.16929888D-05  0.23264499D-04  0.20531469D-14  0.49602001D-04  0.38251319D-04
  0.38353336D-15 -0.54680967D-04 -0.10804482D-03  0.34165107D-14 -0.25942153D-01
 -0.48801097D-01 -0.84477191D-01 -0.13847434D+00 -0.21692216D+00 -0.32605165D+00
 -0.46600446D+00 -0.61861991D+00 -0.72042758D+00 -0.66162939D+00 -0.38676582D+00
 -0.10148510D+00 -0.57699914D-02 -0.10068014D-03 -0.10134602D-04 -0.12305200D-02
 -0.35546888D-02 -0.16291974D-01 -0.48227791D-01 -0.13986200D+00 -0.29071608D+00
 -0.41587280D+00 -0.11924402D+00  0.47651506D+00  0.46074396D+00  0.10056441D+00
 -0.14556394D-02 -0.74768399D-03 -0.34881004D-02 -0.70788410D-02 -0.27743209D-01
 -0.19468067D-01  0.12678342D+00  0.39285829D+00  0.48055367D-01 -0.34341777D+00
 -0.16116595D+00 -0.82324113D-06 -0.11285983D-05  0.21637959D-05  0.45987777D-05
 -0.17384667D-04 -0.56217595D-04 -0.19551625D-04  0.19123618D-03  0.42655582D-03
 -0.28304946D-03 -0.67280085D-02  0.33444890D-03 -0.47702946D-04 -0.71999902D-09
 -0.10330911D-08 -0.13679081D-08 -0.15796958D-08 -0.14646759D-08 -0.94850445D-09
 -0.33468853D-09 -0.38564104D-10  0.63001898D-13 -0.10151164D+02 -0.14565405D+02
 -0.19285942D+02 -0.22271906D+02 -0.20650257D+02 -0.13372829D+02 -0.47187259D+01
 -0.54370981D+00  0.88825479D-03  0.59540040D+01  0.85431071D+01  0.11311863D+02
  0.13063233D+02  0.12112081D+02  0.78436208D+01  0.27676938D+01  0.31890436D+00
 -0.52099176D-03 -0.11535104D-10  0.32888635D-10  0.16053366D-09  0.33265627D-09