 Entering Gaussian System, Link 0=/home/bruns/programas/chemistry/gaussian/g09/g09
 Input=GAUSSIAN.com
 Output=GAUSSIAN.log
 Initial command:
 /home/bruns/programas/chemistry/gaussian/g09/l1.exe /home/bruns/programas/chemistry/gaussian/work/Gau-1917.inp -scrdir=/home/bruns/programas/chemistry/gaussian/work/
 Entering Link 1 = /home/bruns/programas/chemistry/gaussian/g09/l1.exe PID=      1920.
  
 Copyright (c) 1988,1990,1992,1993,1995,1998,2003,2009,2010,
            Gaussian, Inc.  All Rights Reserved.
  
 This is part of the Gaussian(R) 09 program.  It is based on
 the Gaussian(R) 03 system (copyright 2003, Gaussian, Inc.),
 the Gaussian(R) 98 system (copyright 1998, Gaussian, Inc.),
 the Gaussian(R) 94 system (copyright 1995, Gaussian, Inc.),
 the Gaussian 92(TM) system (copyright 1992, Gaussian, Inc.),
 the Gaussian 90(TM) system (copyright 1990, Gaussian, Inc.),
 the Gaussian 88(TM) system (copyright 1988, Gaussian, Inc.),
 the Gaussian 86(TM) system (copyright 1986, Carnegie Mellon
 University), and the Gaussian 82(TM) system (copyright 1983,
 Carnegie Mellon University). Gaussian is a federally registered
 trademark of Gaussian, Inc.
  
 This software contains proprietary and confidential information,
 including trade secrets, belonging to Gaussian, Inc.
  
 This software is provided under written license and may be
 used, copied, transmitted, or stored only in accord with that
 written license.
  
 The following legend is applicable only to US Government
 contracts under FAR:
  
                    RESTRICTED RIGHTS LEGEND
  
 Use, reproduction and disclosure by the US Government is
 subject to restrictions as set forth in subparagraphs (a)
 and (c) of the Commercial Computer Software - Restricted
 Rights clause in FAR 52.227-19.
  
 Gaussian, Inc.
 340 Quinnipiac St., Bldg. 40, Wallingford CT 06492
  
  
 ---------------------------------------------------------------
 Warning -- This program may not be used in any manner that
 competes with the business of Gaussian, Inc. or will provide
 assistance to any competitor of Gaussian, Inc.  The licensee
 of this program is prohibited from giving any competitor of
 Gaussian, Inc. access to this program.  By using this program,
 the user acknowledges that Gaussian, Inc. is engaged in the
 business of creating and licensing software in the field of
 computational chemistry and represents and warrants to the
 licensee that it is not a competitor of Gaussian, Inc. and that
 it will not use this program in any manner prohibited above.
 ---------------------------------------------------------------
  

 Cite this work as:
 Gaussian 09, Revision B.01,
 M. J. Frisch, G. W. Trucks, H. B. Schlegel, G. E. Scuseria, 
 M. A. Robb, J. R. Cheeseman, G. Scalmani, V. Barone, B. Mennucci, 
 G. A. Petersson, H. Nakatsuji, M. Caricato, X. Li, H. P. Hratchian, 
 A. F. Izmaylov, J. Bloino, G. Zheng, J. L. Sonnenberg, M. Hada, 
 M. Ehara, K. Toyota, R. Fukuda, J. Hasegawa, M. Ishida, T. Nakajima, 
 Y. Honda, O. Kitao, H. Nakai, T. Vreven, J. A. Montgomery, Jr., 
 J. E. Peralta, F. Ogliaro, M. Bearpark, J. J. Heyd, E. Brothers, 
 K. N. Kudin, V. N. Staroverov, T. Keith, R. Kobayashi, J. Normand, 
 K. Raghavachari, A. Rendell, J. C. Burant, S. S. Iyengar, J. Tomasi, 
 M. Cossi, N. Rega, J. M. Millam, M. Klene, J. E. Knox, J. B. Cross, 
 V. Bakken, C. Adamo, J. Jaramillo, R. Gomperts, R. E. Stratmann, 
 O. Yazyev, A. J. Austin, R. Cammi, C. Pomelli, J. W. Ochterski, 
 R. L. Martin, K. Morokuma, V. G. Zakrzewski, G. A. Voth, 
 P. Salvador, J. J. Dannenberg, S. Dapprich, A. D. Daniels, 
 O. Farkas, J. B. Foresman, J. V. Ortiz, J. Cioslowski, 
 and D. J. Fox, Gaussian, Inc., Wallingford CT, 2010.
 
 ******************************************
 Gaussian 09:  EM64L-G09RevB.01 12-Aug-2010
                28-Nov-2021 
 ******************************************
 %nproc=8
 Will use up to    8 processors via shared memory.
 %mem=8GB
 -----------------------------------------------------
 # qcisd/aug-cc-pvtz nosymm density=current output=wfn
 -----------------------------------------------------
 1/30=1,38=1/1;
 2/12=2,15=1,17=6,18=5,40=1/2;
 3/5=16,6=1,7=10,11=9,16=1,25=1,30=1,71=1/1,2,3;
 4//1;
 5/5=2,38=5/2;
 8/6=4,9=120000,10=1/1,4;
 9/5=8,15=1/13;
 11/28=-7,31=1,32=3,42=3/11;
 10/5=6,13=10,31=1/2;
 6/7=2,8=2,9=2,10=2,22=-1,31=1/1;
 99/5=1,6=1100,9=1/99;
 ------------------
 br2co-wavefunction
 ------------------
 Symbolic Z-matrix:
 Charge =  0 Multiplicity = 1
 C                     0.        0.       -0.49176 
 Br                    0.       -1.59418  -1.54682 
 Br                    0.        1.59418  -1.54682 
 O                     0.        0.        0.6945 
 
                          Input orientation:                          
 ---------------------------------------------------------------------
 Center     Atomic      Atomic             Coordinates (Angstroms)
 Number     Number       Type             X           Y           Z
 ---------------------------------------------------------------------
      1          6           0        0.000000    0.000000   -0.491759
      2         35           0        0.000000   -1.594181   -1.546820
      3         35           0        0.000000    1.594181   -1.546820
      4          8           0        0.000000    0.000000    0.694500
 ---------------------------------------------------------------------
                    Distance matrix (angstroms):
                    1          2          3          4
     1  C    0.000000
     2  Br   1.911692   0.000000
     3  Br   1.911692   3.188362   0.000000
     4  O    1.186259   2.750441   2.750441   0.000000
 Symmetry turned off by external request.
 Stoichiometry    CBr2O
 Framework group  C2V[C2(CO),SGV(Br2)]
 Deg. of freedom     3
 Full point group                 C2V     NOp   4
 Rotational constants (GHZ):      6.2357734      1.2598940      1.0481273
 Standard basis: Aug-CC-pVTZ (5D, 7F)
 Integral buffers will be    131072 words long.
 Raffenetti 1 integral format.
 Two-electron integral symmetry is turned off.
   210 basis functions,   578 primitive gaussians,   248 cartesian basis functions
    42 alpha electrons       42 beta electrons
       nuclear repulsion energy       448.7303597855 Hartrees.
 NAtoms=    4 NActive=    4 NUniq=    4 SFac= 1.00D+00 NAtFMM=   50 NAOKFM=F Big=F
 One-electron integrals computed using PRISM.
 NBasis=   210 RedAO= T  NBF=   210
 NBsUse=   210 1.00D-06 NBFU=   210
 Harris functional with IExCor=  205 diagonalized for initial guess.
 ExpMin= 3.51D-02 ExpMax= 1.06D+07 ExpMxC= 1.21D+04 IAcc=3 IRadAn=         0 AccDes= 0.00D+00
 HarFok:  IExCor=  205 AccDes= 0.00D+00 IRadAn=         0 IDoV= 1
 ScaDFX=  1.000000  1.000000  1.000000  1.000000
 FoFCou: FMM=F IPFlag=           0 FMFlag=      100000 FMFlg1=           0
         NFxFlg=           0 DoJE=T BraDBF=F KetDBF=T FulRan=T
         Omega=  0.000000  0.000000  1.000000  0.000000  0.000000 ICntrl=     500 IOpCl=  0
         NMat0=    1 NMatS0=    1 NMatT0=    0 NMatD0=    1 NMtDS0=    0 NMtDT0=    0
         I1Cent=           4 NGrid=           0.
 Symmetry not used in FoFCou.
 Requested convergence on RMS density matrix=1.00D-08 within 128 cycles.
 Requested convergence on MAX density matrix=1.00D-06.
 Requested convergence on             energy=1.00D-06.
 No special actions if energy rises.
 Keep R1 ints in memory in canonical form, NReq=484604278.
 SCF Done:  E(RHF) =  -5257.68335528     A.U. after   12 cycles
             Convg  =    0.9654D-08             -V/T =  2.0001
 ExpMin= 3.51D-02 ExpMax= 1.06D+07 ExpMxC= 1.21D+04 IAcc=3 IRadAn=         5 AccDes= 0.00D+00
 HarFok:  IExCor=  205 AccDes= 0.00D+00 IRadAn=         5 IDoV=-2
 ScaDFX=  1.000000  1.000000  1.000000  1.000000
 DSYEVD returned Info=          89 IAlg= 4 N=    59 NDim=    59 NE2=    18196533 trying DSYEV.
 DSYEVD returned Info=          93 IAlg= 4 N=    46 NDim=    46 NE2=    18196533 trying DSYEV.
 Range of M.O.s used for correlation:    21   210
 NBasis=   210 NAE=    42 NBE=    42 NFC=    20 NFV=     0
 NROrb=    190 NOA=    22 NOB=    22 NVA=   168 NVB=   168

 **** Warning!!: The largest alpha MO coefficient is  0.27969017D+02

 Semi-Direct transformation.
 ModeAB=           2 MOrb=            22 LenV=    1072497347
 LASXX=     69628944 LTotXX=    69628944 LenRXX=    69628944
 LTotAB=    70719517 MaxLAS=   129061680 LenRXY=   129061680
 NonZer=   139257888 LenScr=   209707008 LnRSAI=           0
 LnScr1=           0 LExtra=           0 Total=    408397632
 MaxDsk=          -1 SrtSym=           F ITran=            4
 JobTyp=0 Pass  1:  I=   1 to  22.
 (rs|ai) integrals will be sorted in core.
 Spin components of T(2) and E(2):
     alpha-alpha T2 =       0.3849169244D-01 E2=     -0.1234427516D+00
     alpha-beta  T2 =       0.1933701260D+00 E2=     -0.6184454047D+00
     beta-beta   T2 =       0.3849169244D-01 E2=     -0.1234427516D+00
 ANorm=    0.1127099601D+01
 E2 =    -0.8653309079D+00 EUMP2 =    -0.52585486861888D+04
 R2 and R3 integrals will be kept in memory, NReq=   961077252.
 Iterations=  50 Convergence= 0.100D-07
 Iteration Nr.   1
 **********************
 DD1Dir will call FoFMem   1 times, MxPair=       506
 NAB=   253 NAA=     0 NBB=     0.
 MP4(R+Q)=  0.21581852D-01
 E3=        0.69565537D-03        EUMP3=      -0.52585479905D+04
 E4(DQ)=    0.10425553D-03        UMP4(DQ)=   -0.52585478863D+04
 E4(SDQ)=  -0.12078481D-01        UMP4(SDQ)=  -0.52585600690D+04
 DE(Corr)= -0.84305340     E(Corr)=     -5258.5264087    
 NORM(A)=   0.11252386D+01
 Iteration Nr.   2
 **********************
 DD1Dir will call FoFMem   1 times, MxPair=       506
 NAB=   253 NAA=     0 NBB=     0.
 DE(Corr)= -0.87340843     E(CORR)=     -5258.5567637     Delta=-3.04D-02
 NORM(A)=   0.11357678D+01
 Iteration Nr.   3
 **********************
 DD1Dir will call FoFMem   1 times, MxPair=       506
 NAB=   253 NAA=     0 NBB=     0.
 DE(Corr)= -0.87117535     E(CORR)=     -5258.5545306     Delta= 2.23D-03
 NORM(A)=   0.11386188D+01
 Iteration Nr.   4
 **********************
 DD1Dir will call FoFMem   1 times, MxPair=       506
 NAB=   253 NAA=     0 NBB=     0.
 DE(Corr)= -0.87377509     E(CORR)=     -5258.5571304     Delta=-2.60D-03
 NORM(A)=   0.11399829D+01
 Iteration Nr.   5
 **********************
 DD1Dir will call FoFMem   1 times, MxPair=       506
 NAB=   253 NAA=     0 NBB=     0.
 DE(Corr)= -0.87416595     E(CORR)=     -5258.5575212     Delta=-3.91D-04
 NORM(A)=   0.11405195D+01
 Iteration Nr.   6
 **********************
 DD1Dir will call FoFMem   1 times, MxPair=       506
 NAB=   253 NAA=     0 NBB=     0.
 DE(Corr)= -0.87423281     E(CORR)=     -5258.5575881     Delta=-6.69D-05
 NORM(A)=   0.11406295D+01
 Iteration Nr.   7
 **********************
 DD1Dir will call FoFMem   1 times, MxPair=       506
 NAB=   253 NAA=     0 NBB=     0.
 DE(Corr)= -0.87424779     E(CORR)=     -5258.5576031     Delta=-1.50D-05
 NORM(A)=   0.11406378D+01
 Iteration Nr.   8
 **********************
 DD1Dir will call FoFMem   1 times, MxPair=       506
 NAB=   253 NAA=     0 NBB=     0.
 DE(Corr)= -0.87424867     E(CORR)=     -5258.5576040     Delta=-8.83D-07
 NORM(A)=   0.11406536D+01
 Iteration Nr.   9
 **********************
 DD1Dir will call FoFMem   1 times, MxPair=       506
 NAB=   253 NAA=     0 NBB=     0.
 DE(Corr)= -0.87424627     E(CORR)=     -5258.5576016     Delta= 2.40D-06
 NORM(A)=   0.11406532D+01
 Iteration Nr.  10
 **********************
 DD1Dir will call FoFMem   1 times, MxPair=       506
 NAB=   253 NAA=     0 NBB=     0.
 DE(Corr)= -0.87424791     E(CORR)=     -5258.5576032     Delta=-1.64D-06
 NORM(A)=   0.11406561D+01
 Iteration Nr.  11
 **********************
 DD1Dir will call FoFMem   1 times, MxPair=       506
 NAB=   253 NAA=     0 NBB=     0.
 DE(Corr)= -0.87424899     E(CORR)=     -5258.5576043     Delta=-1.08D-06
 NORM(A)=   0.11406580D+01
 Iteration Nr.  12
 **********************
 DD1Dir will call FoFMem   1 times, MxPair=       506
 NAB=   253 NAA=     0 NBB=     0.
 DE(Corr)= -0.87424937     E(CORR)=     -5258.5576046     Delta=-3.76D-07
 NORM(A)=   0.11406592D+01
 Iteration Nr.  13
 **********************
 DD1Dir will call FoFMem   1 times, MxPair=       506
 NAB=   253 NAA=     0 NBB=     0.
 DE(Corr)= -0.87424986     E(CORR)=     -5258.5576051     Delta=-4.88D-07
 NORM(A)=   0.11406599D+01
 Iteration Nr.  14
 **********************
 DD1Dir will call FoFMem   1 times, MxPair=       506
 NAB=   253 NAA=     0 NBB=     0.
 DE(Corr)= -0.87424998     E(CORR)=     -5258.5576053     Delta=-1.22D-07
 NORM(A)=   0.11406603D+01
 Iteration Nr.  15
 **********************
 DD1Dir will call FoFMem   1 times, MxPair=       506
 NAB=   253 NAA=     0 NBB=     0.
 DE(Corr)= -0.87425005     E(CORR)=     -5258.5576053     Delta=-7.61D-08
 NORM(A)=   0.11406604D+01
 Iteration Nr.  16
 **********************
 DD1Dir will call FoFMem   1 times, MxPair=       506
 NAB=   253 NAA=     0 NBB=     0.
 DE(Corr)= -0.87425009     E(CORR)=     -5258.5576054     Delta=-3.17D-08
 NORM(A)=   0.11406605D+01
 Iteration Nr.  17
 **********************
 DD1Dir will call FoFMem   1 times, MxPair=       506
 NAB=   253 NAA=     0 NBB=     0.
 DE(Corr)= -0.87425008     E(CORR)=     -5258.5576054     Delta= 1.53D-09
 NORM(A)=   0.11406605D+01
 Iteration Nr.  18
 **********************
 DD1Dir will call FoFMem   1 times, MxPair=       506
 NAB=   253 NAA=     0 NBB=     0.
 DE(Corr)= -0.87425009     E(CORR)=     -5258.5576054     Delta=-1.38D-09
 NORM(A)=   0.11406605D+01
 Iteration Nr.  19
 **********************
 DD1Dir will call FoFMem   1 times, MxPair=       506
 NAB=   253 NAA=     0 NBB=     0.
 DE(Corr)= -0.87425009     E(CORR)=     -5258.5576054     Delta=-9.64D-10
 NORM(A)=   0.11406605D+01
 Iteration Nr.  20
 **********************
 DD1Dir will call FoFMem   1 times, MxPair=       506
 NAB=   253 NAA=     0 NBB=     0.
 DE(Corr)= -0.87425009     E(CORR)=     -5258.5576054     Delta= 3.42D-10
 NORM(A)=   0.11406605D+01
 Largest amplitude= 4.65D-02

 Z-AMPLITUDE ITERATIONS

 Iteration Nr.   1
 **********************
 DD1Dir will call FoFMem   1 times, MxPair=       506
 NAB=   253 NAA=     0 NBB=     0.
 DE(Z)  -0.84687904D+00          E(Z)=    -0.52585302343D+04
 NORM(A)=   0.11429261D+01
 Iteration Nr.   2
 **********************
 DD1Dir will call FoFMem   1 times, MxPair=       506
 NAB=   253 NAA=     0 NBB=     0.
 DE(Z)  -0.84687945D+00          E(Z)=    -0.52585302347D+04
 NORM(A)=   0.11416226D+01
 Iteration Nr.   3
 **********************
 DD1Dir will call FoFMem   1 times, MxPair=       506
 NAB=   253 NAA=     0 NBB=     0.
 DE(Z)  -0.84687901D+00          E(Z)=    -0.52585302343D+04
 NORM(A)=   0.11378438D+01
 Iteration Nr.   4
 **********************
 DD1Dir will call FoFMem   1 times, MxPair=       506
 NAB=   253 NAA=     0 NBB=     0.
 DE(Z)  -0.84688022D+00          E(Z)=    -0.52585302355D+04
 NORM(A)=   0.11671674D+01
 Iteration Nr.   5
 **********************
 DD1Dir will call FoFMem   1 times, MxPair=       506
 NAB=   253 NAA=     0 NBB=     0.
 DE(Z)  -0.84694397D+00          E(Z)=    -0.52585302992D+04
 NORM(A)=   0.11307137D+01
 Iteration Nr.   6
 **********************
 DD1Dir will call FoFMem   1 times, MxPair=       506
 NAB=   253 NAA=     0 NBB=     0.
 DE(Z)  -0.84686336D+00          E(Z)=    -0.52585302186D+04
 NORM(A)=   0.11307142D+01
 Iteration Nr.   7
 **********************
 DD1Dir will call FoFMem   1 times, MxPair=       506
 NAB=   253 NAA=     0 NBB=     0.
 DE(Z)  -0.84685931D+00          E(Z)=    -0.52585302146D+04
 NORM(A)=   0.11307152D+01
 Iteration Nr.   8
 **********************
 DD1Dir will call FoFMem   1 times, MxPair=       506
 NAB=   253 NAA=     0 NBB=     0.
 DE(Z)  -0.84686122D+00          E(Z)=    -0.52585302165D+04
 NORM(A)=   0.11307156D+01
 Iteration Nr.   9
 **********************
 DD1Dir will call FoFMem   1 times, MxPair=       506
 NAB=   253 NAA=     0 NBB=     0.
 DE(Z)  -0.84686112D+00          E(Z)=    -0.52585302164D+04
 NORM(A)=   0.11307159D+01
 Iteration Nr.  10
 **********************
 DD1Dir will call FoFMem   1 times, MxPair=       506
 NAB=   253 NAA=     0 NBB=     0.
 DE(Z)  -0.84686112D+00          E(Z)=    -0.52585302164D+04
 NORM(A)=   0.11307160D+01
 Iteration Nr.  11
 **********************
 DD1Dir will call FoFMem   1 times, MxPair=       506
 NAB=   253 NAA=     0 NBB=     0.
 DE(Z)  -0.84686117D+00          E(Z)=    -0.52585302164D+04
 NORM(A)=   0.11307161D+01
 Iteration Nr.  12
 **********************
 DD1Dir will call FoFMem   1 times, MxPair=       506
 NAB=   253 NAA=     0 NBB=     0.
 DE(Z)  -0.84686115D+00          E(Z)=    -0.52585302164D+04
 NORM(A)=   0.11307161D+01
 Iteration Nr.  13
 **********************
 DD1Dir will call FoFMem   1 times, MxPair=       506
 NAB=   253 NAA=     0 NBB=     0.
 DE(Z)  -0.84686115D+00          E(Z)=    -0.52585302164D+04
 NORM(A)=   0.11307161D+01
 Iteration Nr.  14
 **********************
 DD1Dir will call FoFMem   1 times, MxPair=       506
 NAB=   253 NAA=     0 NBB=     0.
 DE(Z)  -0.84686115D+00          E(Z)=    -0.52585302164D+04
 NORM(A)=   0.11307179D+01
 Iteration Nr.  15
 **********************
 DD1Dir will call FoFMem   1 times, MxPair=       506
 NAB=   253 NAA=     0 NBB=     0.
 DE(Z)  -0.84686170D+00          E(Z)=    -0.52585302170D+04
 NORM(A)=   0.11307161D+01
 Iteration Nr.  16
 **********************
 DD1Dir will call FoFMem   1 times, MxPair=       506
 NAB=   253 NAA=     0 NBB=     0.
 DE(Z)  -0.84686115D+00          E(Z)=    -0.52585302164D+04
 NORM(A)=   0.11307161D+01
 Iteration Nr.  17
 **********************
 DD1Dir will call FoFMem   1 times, MxPair=       506
 NAB=   253 NAA=     0 NBB=     0.
 DE(Z)  -0.84686116D+00          E(Z)=    -0.52585302164D+04
 NORM(A)=   0.11307161D+01
 Discarding MO integrals.
          Differentiating once with respect to electric field.
                with respect to dipole field.
          Electric field/nuclear overlap derivatives assumed to be zero.
          Keep R1 ints in memory in canonical form, NReq=478620341.
          There are     1 degrees of freedom in the 1st order CPHF.  IDoFFX=0.
 LinEq1:  Iter=  0 NonCon=     1 RMS=1.97D-03 Max=5.97D-02
 AX will form     1 AO Fock derivatives at one time.
 LinEq1:  Iter=  1 NonCon=     1 RMS=7.46D-04 Max=2.59D-02
 LinEq1:  Iter=  2 NonCon=     1 RMS=3.13D-04 Max=9.88D-03
 LinEq1:  Iter=  3 NonCon=     1 RMS=1.05D-04 Max=3.26D-03
 LinEq1:  Iter=  4 NonCon=     1 RMS=5.46D-05 Max=1.67D-03
 LinEq1:  Iter=  5 NonCon=     1 RMS=1.67D-05 Max=4.80D-04
 LinEq1:  Iter=  6 NonCon=     1 RMS=6.44D-06 Max=1.38D-04
 LinEq1:  Iter=  7 NonCon=     1 RMS=1.39D-06 Max=2.21D-05
 LinEq1:  Iter=  8 NonCon=     1 RMS=2.79D-07 Max=4.53D-06
 LinEq1:  Iter=  9 NonCon=     1 RMS=6.80D-08 Max=1.23D-06
 LinEq1:  Iter= 10 NonCon=     1 RMS=1.45D-08 Max=2.31D-07
 LinEq1:  Iter= 11 NonCon=     1 RMS=4.11D-09 Max=1.02D-07
 LinEq1:  Iter= 12 NonCon=     1 RMS=7.59D-10 Max=1.67D-08
 LinEq1:  Iter= 13 NonCon=     1 RMS=1.26D-10 Max=2.84D-09
 LinEq1:  Iter= 14 NonCon=     0 RMS=1.90D-11 Max=4.32D-10
 Linear equations converged to 1.000D-10 1.000D-09 after    14 iterations.
 End of Minotr Frequency-dependent properties file   721 does not exist.
 End of Minotr Frequency-dependent properties file   722 does not exist.

 **********************************************************************

            Population analysis using the QCI/CC density.

 **********************************************************************

     Natural Orbital Coefficients:
                           1         2         3         4         5
     Eigenvalues --     2.00002   2.00002   2.00001   2.00001   2.00001
   1 1   C  1S          0.36972   0.00000   0.00000  -0.22404   0.00000
   2        2S         -0.01009   0.00000   0.00000   0.00238   0.00000
   3        3S          0.01428   0.00000   0.00000  -0.00933   0.00000
   4        4S         -0.01310   0.00000   0.00000   0.00313   0.00000
   5        5S         -0.00456   0.00000   0.00000  -0.00265   0.00000
   6        6PX         0.00000   0.00000   0.00000   0.00000   0.00000
   7        6PY         0.00000  -0.00268   0.00002   0.00000  -0.00022
   8        6PZ         0.00168   0.00000   0.00000   0.00013   0.00000
   9        7PX         0.00000   0.00000   0.00000   0.00000   0.00000
  10        7PY         0.00000  -0.00463   0.00025   0.00000  -0.00041
  11        7PZ         0.00463   0.00000   0.00000  -0.00081   0.00000
  12        8PX         0.00000   0.00000   0.00000   0.00000   0.00000
  13        8PY         0.00000  -0.00453  -0.00124   0.00000  -0.00553
  14        8PZ         0.00384   0.00000   0.00000  -0.00071   0.00000
  15        9PX         0.00000   0.00000   0.00000   0.00000   0.00000
  16        9PY         0.00000   0.00073   0.00165   0.00000  -0.00172
  17        9PZ         0.00023   0.00000   0.00000   0.00049   0.00000
  18       10D 0        0.00030   0.00000   0.00000  -0.00018   0.00000
  19       10D+1        0.00000   0.00000   0.00000   0.00000   0.00000
  20       10D-1        0.00000   0.00043  -0.00008   0.00000  -0.00005
  21       10D+2        0.00012   0.00000   0.00000   0.00016   0.00000
  22       10D-2        0.00000   0.00000   0.00000   0.00000   0.00000
  23       11D 0       -0.00006   0.00000   0.00000   0.00010   0.00000
  24       11D+1        0.00000   0.00000   0.00000   0.00000   0.00000
  25       11D-1        0.00000   0.00162   0.00027   0.00000  -0.00033
  26       11D+2        0.00172   0.00000   0.00000  -0.00052   0.00000
  27       11D-2        0.00000   0.00000   0.00000   0.00000   0.00000
  28       12D 0       -0.00041   0.00000   0.00000   0.00014   0.00000
  29       12D+1        0.00000   0.00000   0.00000   0.00000   0.00000
  30       12D-1        0.00000   0.00264   0.00132   0.00000   0.00131
  31       12D+2        0.00099   0.00000   0.00000  -0.00010   0.00000
  32       12D-2        0.00000   0.00000   0.00000   0.00000   0.00000
  33       13F 0        0.00015   0.00000   0.00000  -0.00015   0.00000
  34       13F+1        0.00000   0.00000   0.00000   0.00000   0.00000
  35       13F-1        0.00000  -0.00001   0.00006   0.00000   0.00000
  36       13F+2        0.00001   0.00000   0.00000  -0.00003   0.00000
  37       13F-2        0.00000   0.00000   0.00000   0.00000   0.00000
  38       13F+3        0.00000   0.00000   0.00000   0.00000   0.00000
  39       13F-3        0.00000  -0.00008  -0.00003   0.00000  -0.00004
  40       14F 0       -0.00019   0.00000   0.00000   0.00053   0.00000
  41       14F+1        0.00000   0.00000   0.00000   0.00000   0.00000
  42       14F-1        0.00000   0.00069   0.00002   0.00000  -0.00006
  43       14F+2       -0.00013   0.00000   0.00000   0.00040   0.00000
  44       14F-2        0.00000   0.00000   0.00000   0.00000   0.00000
  45       14F+3        0.00000   0.00000   0.00000   0.00000   0.00000
  46       14F-3        0.00000   0.00024   0.00012   0.00000   0.00028
  47 2   Br 1S         -0.04432   0.03966  -0.08350  -0.08083  -0.00155
  48        2S          0.16406  -0.14680   0.31100   0.30107   0.00584
  49        3S         -0.34566   0.30769  -0.67063  -0.64961  -0.01266
  50        4S         -0.00110   0.00097  -0.00200  -0.00224   0.00015
  51        5S         -0.01844   0.01647  -0.03245  -0.03127  -0.00056
  52        6S          0.00364  -0.00272  -0.00744  -0.00682  -0.00347
  53        7S          0.00221   0.00040   0.00265   0.00137  -0.00309
  54        8PX         0.00000   0.00000   0.00000   0.00000   0.00000
  55        8PY         0.19212  -0.22083  -0.09747  -0.08073   0.13228
  56        8PZ         0.11973  -0.13181  -0.05249  -0.07305  -0.22729
  57        9PX         0.00000   0.00000   0.00000   0.00000   0.00000
  58        9PY        -0.49992   0.57753   0.27362   0.22605  -0.37465
  59        9PZ        -0.31223   0.34415   0.14671   0.20513   0.64024
  60       10PX         0.00000   0.00000   0.00000   0.00000   0.00000
  61       10PY         0.00230  -0.00071  -0.00010  -0.00077  -0.00123
  62       10PZ         0.00127  -0.00094  -0.00018  -0.00027   0.00098
  63       11PX         0.00000   0.00000   0.00000   0.00000   0.00000
  64       11PY        -0.02372   0.02740   0.01252   0.01027  -0.01666
  65       11PZ        -0.01495   0.01640   0.00667   0.00935   0.02854
  66       12PX         0.00000   0.00000   0.00000   0.00000   0.00000
  67       12PY         0.00154   0.00118   0.00135   0.00034  -0.00406
  68       12PZ         0.00074   0.00021   0.00063   0.00061   0.00187
  69       13PX         0.00000   0.00000   0.00000   0.00000   0.00000
  70       13PY         0.00041  -0.00008   0.00025   0.00021  -0.00021
  71       13PZ         0.00031   0.00001   0.00031   0.00006  -0.00064
  72       14D 0        0.00243  -0.00278  -0.00113  -0.00197  -0.00791
  73       14D+1        0.00000   0.00000   0.00000   0.00000   0.00000
  74       14D-1       -0.02391   0.02684   0.00547   0.00470  -0.00397
  75       14D+2        0.01446  -0.01642  -0.00382  -0.00411  -0.00460
  76       14D-2        0.00000   0.00000   0.00000   0.00000   0.00000
  77       15D 0        0.00026  -0.00021  -0.00007  -0.00015  -0.00049
  78       15D+1        0.00000   0.00000   0.00000   0.00000   0.00000
  79       15D-1       -0.00246   0.00264   0.00029   0.00027  -0.00024
  80       15D+2        0.00162  -0.00166  -0.00021  -0.00023  -0.00029
  81       15D-2        0.00000   0.00000   0.00000   0.00000   0.00000
  82       16D 0        0.00003  -0.00021  -0.00003  -0.00002  -0.00028
  83       16D+1        0.00000   0.00000   0.00000   0.00000   0.00000
  84       16D-1        0.00110  -0.00064   0.00012  -0.00026  -0.00025
  85       16D+2       -0.00082   0.00038  -0.00005   0.00007  -0.00011
  86       16D-2        0.00000   0.00000   0.00000   0.00000   0.00000
  87       17D 0       -0.00005   0.00003   0.00005  -0.00003   0.00004
  88       17D+1        0.00000   0.00000   0.00000   0.00000   0.00000
  89       17D-1        0.00053  -0.00035   0.00003  -0.00004  -0.00044
  90       17D+2       -0.00053  -0.00012  -0.00021   0.00008   0.00031
  91       17D-2        0.00000   0.00000   0.00000   0.00000   0.00000
  92       18F 0        0.00024  -0.00029  -0.00008  -0.00006   0.00004
  93       18F+1        0.00000   0.00000   0.00000   0.00000   0.00000
  94       18F-1       -0.00009   0.00012   0.00002   0.00003   0.00034
  95       18F+2        0.00038  -0.00042  -0.00010  -0.00009  -0.00002
  96       18F-2        0.00000   0.00000   0.00000   0.00000   0.00000
  97       18F+3        0.00000   0.00000   0.00000   0.00000   0.00000
  98       18F-3        0.00020  -0.00022  -0.00003  -0.00004   0.00014
  99       19F 0       -0.00030   0.00030   0.00006   0.00014  -0.00006
 100       19F+1        0.00000   0.00000   0.00000   0.00000   0.00000
 101       19F-1        0.00023  -0.00029  -0.00001  -0.00010  -0.00032
 102       19F+2       -0.00064   0.00046   0.00004   0.00018   0.00002
 103       19F-2        0.00000   0.00000   0.00000   0.00000   0.00000
 104       19F+3        0.00000   0.00000   0.00000   0.00000   0.00000
 105       19F-3       -0.00036   0.00017  -0.00004   0.00005  -0.00017
 106 3   Br 1S         -0.04432  -0.03966   0.08350  -0.08083   0.00155
 107        2S          0.16406   0.14680  -0.31100   0.30107  -0.00584
 108        3S         -0.34566  -0.30769   0.67063  -0.64961   0.01266
 109        4S         -0.00110  -0.00097   0.00200  -0.00224  -0.00015
 110        5S         -0.01844  -0.01647   0.03245  -0.03127   0.00056
 111        6S          0.00364   0.00272   0.00744  -0.00682   0.00347
 112        7S          0.00221  -0.00040  -0.00265   0.00137   0.00309
 113        8PX         0.00000   0.00000   0.00000   0.00000   0.00000
 114        8PY        -0.19212  -0.22083  -0.09747   0.08073   0.13228
 115        8PZ         0.11973   0.13181   0.05249  -0.07305   0.22729
 116        9PX         0.00000   0.00000   0.00000   0.00000   0.00000
 117        9PY         0.49992   0.57753   0.27362  -0.22605  -0.37465
 118        9PZ        -0.31223  -0.34415  -0.14671   0.20513  -0.64024
 119       10PX         0.00000   0.00000   0.00000   0.00000   0.00000
 120       10PY        -0.00230  -0.00071  -0.00010   0.00077  -0.00123
 121       10PZ         0.00127   0.00094   0.00018  -0.00027  -0.00098
 122       11PX         0.00000   0.00000   0.00000   0.00000   0.00000
 123       11PY         0.02372   0.02740   0.01252  -0.01027  -0.01666
 124       11PZ        -0.01495  -0.01640  -0.00667   0.00935  -0.02854
 125       12PX         0.00000   0.00000   0.00000   0.00000   0.00000
 126       12PY        -0.00154   0.00118   0.00135  -0.00034  -0.00406
 127       12PZ         0.00074  -0.00021  -0.00063   0.00061  -0.00187
 128       13PX         0.00000   0.00000   0.00000   0.00000   0.00000
 129       13PY        -0.00041  -0.00008   0.00025  -0.00021  -0.00021
 130       13PZ         0.00031  -0.00001  -0.00031   0.00006   0.00064
 131       14D 0        0.00243   0.00278   0.00113  -0.00197   0.00791
 132       14D+1        0.00000   0.00000   0.00000   0.00000   0.00000
 133       14D-1        0.02391   0.02684   0.00547  -0.00470  -0.00397
 134       14D+2        0.01446   0.01642   0.00382  -0.00411   0.00460
 135       14D-2        0.00000   0.00000   0.00000   0.00000   0.00000
 136       15D 0        0.00026   0.00021   0.00007  -0.00015   0.00049
 137       15D+1        0.00000   0.00000   0.00000   0.00000   0.00000
 138       15D-1        0.00246   0.00264   0.00029  -0.00027  -0.00024
 139       15D+2        0.00162   0.00166   0.00021  -0.00023   0.00029
 140       15D-2        0.00000   0.00000   0.00000   0.00000   0.00000
 141       16D 0        0.00003   0.00021   0.00003  -0.00002   0.00028
 142       16D+1        0.00000   0.00000   0.00000   0.00000   0.00000
 143       16D-1       -0.00110  -0.00064   0.00012   0.00026  -0.00025
 144       16D+2       -0.00082  -0.00038   0.00005   0.00007   0.00011
 145       16D-2        0.00000   0.00000   0.00000   0.00000   0.00000
 146       17D 0       -0.00005  -0.00003  -0.00005  -0.00003  -0.00004
 147       17D+1        0.00000   0.00000   0.00000   0.00000   0.00000
 148       17D-1       -0.00053  -0.00035   0.00003   0.00004  -0.00044
 149       17D+2       -0.00053   0.00012   0.00021   0.00008  -0.00031
 150       17D-2        0.00000   0.00000   0.00000   0.00000   0.00000
 151       18F 0        0.00024   0.00029   0.00008  -0.00006  -0.00004
 152       18F+1        0.00000   0.00000   0.00000   0.00000   0.00000
 153       18F-1        0.00009   0.00012   0.00002  -0.00003   0.00034
 154       18F+2        0.00038   0.00042   0.00010  -0.00009   0.00002
 155       18F-2        0.00000   0.00000   0.00000   0.00000   0.00000
 156       18F+3        0.00000   0.00000   0.00000   0.00000   0.00000
 157       18F-3       -0.00020  -0.00022  -0.00003   0.00004   0.00014
 158       19F 0       -0.00030  -0.00030  -0.00006   0.00014   0.00006
 159       19F+1        0.00000   0.00000   0.00000   0.00000   0.00000
 160       19F-1       -0.00023  -0.00029  -0.00001   0.00010  -0.00032
 161       19F+2       -0.00064  -0.00046  -0.00004   0.00018  -0.00002
 162       19F-2        0.00000   0.00000   0.00000   0.00000   0.00000
 163       19F+3        0.00000   0.00000   0.00000   0.00000   0.00000
 164       19F-3        0.00036   0.00017  -0.00004  -0.00005  -0.00017
 165 4   O  1S         -0.06834   0.00000   0.00000   0.06904   0.00000
 166        2S          0.00099   0.00000   0.00000  -0.00155   0.00000
 167        3S         -0.00285   0.00000   0.00000   0.00285   0.00000
 168        4S          0.00119   0.00000   0.00000  -0.00066   0.00000
 169        5S          0.00068   0.00000   0.00000   0.00101   0.00000
 170        6PX         0.00000   0.00000   0.00000   0.00000   0.00000
 171        6PY         0.00000   0.00064   0.00030   0.00000   0.00016
 172        6PZ         0.00054   0.00000   0.00000  -0.00047   0.00000
 173        7PX         0.00000   0.00000   0.00000   0.00000   0.00000
 174        7PY         0.00000   0.00074   0.00033   0.00000   0.00032
 175        7PZ         0.00064   0.00000   0.00000  -0.00043   0.00000
 176        8PX         0.00000   0.00000   0.00000   0.00000   0.00000
 177        8PY         0.00000  -0.00023  -0.00009   0.00000   0.00111
 178        8PZ         0.00033   0.00000   0.00000  -0.00082   0.00000
 179        9PX         0.00000   0.00000   0.00000   0.00000   0.00000
 180        9PY         0.00000  -0.00069  -0.00064   0.00000   0.00017
 181        9PZ         0.00017   0.00000   0.00000  -0.00038   0.00000
 182       10D 0       -0.00003   0.00000   0.00000   0.00002   0.00000
 183       10D+1        0.00000   0.00000   0.00000   0.00000   0.00000
 184       10D-1        0.00000   0.00003  -0.00002   0.00000   0.00002
 185       10D+2        0.00003   0.00000   0.00000   0.00000   0.00000
 186       10D-2        0.00000   0.00000   0.00000   0.00000   0.00000
 187       11D 0       -0.00025   0.00000   0.00000   0.00016   0.00000
 188       11D+1        0.00000   0.00000   0.00000   0.00000   0.00000
 189       11D-1        0.00000   0.00016   0.00010   0.00000  -0.00008
 190       11D+2       -0.00009   0.00000   0.00000  -0.00003   0.00000
 191       11D-2        0.00000   0.00000   0.00000   0.00000   0.00000
 192       12D 0       -0.00042   0.00000   0.00000   0.00029   0.00000
 193       12D+1        0.00000   0.00000   0.00000   0.00000   0.00000
 194       12D-1        0.00000   0.00030   0.00009   0.00000  -0.00036
 195       12D+2       -0.00022   0.00000   0.00000  -0.00012   0.00000
 196       12D-2        0.00000   0.00000   0.00000   0.00000   0.00000
 197       13F 0       -0.00008   0.00000   0.00000   0.00003   0.00000
 198       13F+1        0.00000   0.00000   0.00000   0.00000   0.00000
 199       13F-1        0.00000  -0.00001   0.00000   0.00000   0.00003
 200       13F+2        0.00000   0.00000   0.00000  -0.00001   0.00000
 201       13F-2        0.00000   0.00000   0.00000   0.00000   0.00000
 202       13F+3        0.00000   0.00000   0.00000   0.00000   0.00000
 203       13F-3        0.00000  -0.00002   0.00001   0.00000   0.00000
 204       14F 0        0.00025   0.00000   0.00000  -0.00008   0.00000
 205       14F+1        0.00000   0.00000   0.00000   0.00000   0.00000
 206       14F-1        0.00000  -0.00006  -0.00005   0.00000  -0.00002
 207       14F+2        0.00013   0.00000   0.00000   0.00004   0.00000
 208       14F-2        0.00000   0.00000   0.00000   0.00000   0.00000
 209       14F+3        0.00000   0.00000   0.00000   0.00000   0.00000
 210       14F-3        0.00000   0.00005  -0.00003   0.00000   0.00001
                           6         7         8         9        10
     Eigenvalues --     2.00001   2.00001   2.00001   2.00001   2.00000
   1 1   C  1S         -0.07623   0.00000   0.43391   0.00000   0.76239
   2        2S          0.00082   0.00000  -0.00519   0.00000  -0.00720
   3        3S         -0.00325   0.00000   0.01812   0.00000   0.03195
   4        4S         -0.00333   0.00000   0.00115   0.00000   0.00286
   5        5S         -0.00151   0.00000   0.00057   0.00000   0.00268
   6        6PX         0.00000   0.00000   0.00000   0.00063   0.00000
   7        6PY         0.00000   0.00000   0.00000   0.00000   0.00000
   8        6PZ         0.00031   0.00000  -0.00081   0.00000  -0.00117
   9        7PX         0.00000   0.00000   0.00000   0.00105   0.00000
  10        7PY         0.00000   0.00000   0.00000   0.00000   0.00000
  11        7PZ         0.00001   0.00000  -0.00089   0.00000   0.00325
  12        8PX         0.00000   0.00000   0.00000   0.00131   0.00000
  13        8PY         0.00000   0.00000   0.00000   0.00000   0.00000
  14        8PZ         0.00568   0.00000  -0.00011   0.00000  -0.00153
  15        9PX         0.00000   0.00000   0.00000   0.00004   0.00000
  16        9PY         0.00000   0.00000   0.00000   0.00000   0.00000
  17        9PZ         0.00016   0.00000  -0.00019   0.00000  -0.00013
  18       10D 0       -0.00016   0.00000   0.00006   0.00000   0.00067
  19       10D+1        0.00000   0.00000   0.00000  -0.00009   0.00000
  20       10D-1        0.00000   0.00000   0.00000   0.00000   0.00000
  21       10D+2       -0.00007   0.00000  -0.00015   0.00000  -0.00020
  22       10D-2        0.00000  -0.00009   0.00000   0.00000   0.00000
  23       11D 0       -0.00034   0.00000  -0.00093   0.00000   0.00098
  24       11D+1        0.00000   0.00000   0.00000  -0.00074   0.00000
  25       11D-1        0.00000   0.00000   0.00000   0.00000   0.00000
  26       11D+2       -0.00020   0.00000   0.00029   0.00000   0.00106
  27       11D-2        0.00000  -0.00069   0.00000   0.00000   0.00000
  28       12D 0       -0.00021   0.00000   0.00002   0.00000  -0.00115
  29       12D+1        0.00000   0.00000   0.00000  -0.00064   0.00000
  30       12D-1        0.00000   0.00000   0.00000   0.00000   0.00000
  31       12D+2        0.00039   0.00000  -0.00019   0.00000  -0.00103
  32       12D-2        0.00000   0.00012   0.00000   0.00000   0.00000
  33       13F 0       -0.00011   0.00000   0.00023   0.00000   0.00038
  34       13F+1        0.00000   0.00000   0.00000  -0.00005   0.00000
  35       13F-1        0.00000   0.00000   0.00000   0.00000   0.00000
  36       13F+2        0.00003   0.00000   0.00000   0.00000  -0.00009
  37       13F-2        0.00000  -0.00001   0.00000   0.00000   0.00000
  38       13F+3        0.00000   0.00000   0.00000   0.00002   0.00000
  39       13F-3        0.00000   0.00000   0.00000   0.00000   0.00000
  40       14F 0        0.00052   0.00000  -0.00117   0.00000  -0.00067
  41       14F+1        0.00000   0.00000   0.00000   0.00008   0.00000
  42       14F-1        0.00000   0.00000   0.00000   0.00000   0.00000
  43       14F+2       -0.00028   0.00000  -0.00069   0.00000  -0.00062
  44       14F-2        0.00000   0.00021   0.00000   0.00000   0.00000
  45       14F+3        0.00000   0.00000   0.00000  -0.00036   0.00000
  46       14F-3        0.00000   0.00000   0.00000   0.00000   0.00000
  47 2   Br 1S          0.00643   0.00000  -0.00184   0.00000   0.00042
  48        2S         -0.02415   0.00000   0.00724   0.00000  -0.00076
  49        3S          0.05315   0.00000  -0.01943   0.00000  -0.00739
  50        4S          0.00000   0.00000   0.00050   0.00000   0.00094
  51        5S          0.00249   0.00000  -0.00076   0.00000  -0.00052
  52        6S          0.00326   0.00000  -0.00051   0.00000  -0.00096
  53        7S          0.00106   0.00000  -0.00013   0.00000  -0.00112
  54        8PX         0.00000  -0.26230   0.00000  -0.26286   0.00000
  55        8PY         0.15867   0.00000  -0.04252   0.00000  -0.08726
  56        8PZ        -0.20296   0.00000  -0.09422   0.00000  -0.05200
  57        9PX         0.00000   0.74193   0.00000   0.74228   0.00000
  58        9PY        -0.44234   0.00000   0.10024   0.00000   0.20711
  59        9PZ         0.57500   0.00000   0.25396   0.00000   0.12438
  60       10PX         0.00000   0.00130   0.00000   0.00071   0.00000
  61       10PY         0.00022   0.00000  -0.00051   0.00000  -0.00047
  62       10PZ         0.00133   0.00000   0.00006   0.00000   0.00015
  63       11PX         0.00000   0.03316   0.00000   0.03282   0.00000
  64       11PY        -0.01965   0.00000   0.00443   0.00000   0.00875
  65       11PZ         0.02553   0.00000   0.01119   0.00000   0.00518
  66       12PX         0.00000   0.00388   0.00000   0.00270   0.00000
  67       12PY        -0.00014   0.00000  -0.00019   0.00000  -0.00011
  68       12PZ         0.00313   0.00000   0.00081   0.00000  -0.00058
  69       13PX         0.00000  -0.00032   0.00000  -0.00025   0.00000
  70       13PY         0.00028   0.00000  -0.00004   0.00000  -0.00025
  71       13PZ         0.00001   0.00000  -0.00003   0.00000  -0.00019
  72       14D 0       -0.00748   0.00000  -0.00272   0.00000  -0.00117
  73       14D+1        0.00000   0.00111   0.00000   0.00121   0.00000
  74       14D-1       -0.00697   0.00000   0.00745   0.00000   0.00986
  75       14D+2       -0.00275   0.00000  -0.00627   0.00000  -0.00623
  76       14D-2        0.00000   0.00224   0.00000   0.00218   0.00000
  77       15D 0       -0.00041   0.00000  -0.00020   0.00000  -0.00010
  78       15D+1        0.00000   0.00017   0.00000   0.00019   0.00000
  79       15D-1       -0.00043   0.00000   0.00069   0.00000   0.00088
  80       15D+2       -0.00010   0.00000  -0.00060   0.00000  -0.00061
  81       15D-2        0.00000   0.00028   0.00000   0.00034   0.00000
  82       16D 0       -0.00037   0.00000  -0.00010   0.00000   0.00012
  83       16D+1        0.00000  -0.00010   0.00000  -0.00015   0.00000
  84       16D-1       -0.00011   0.00000   0.00024   0.00000   0.00072
  85       16D+2       -0.00032   0.00000   0.00000   0.00000  -0.00020
  86       16D-2        0.00000  -0.00017   0.00000  -0.00017   0.00000
  87       17D 0       -0.00023   0.00000   0.00002   0.00000  -0.00011
  88       17D+1        0.00000   0.00009   0.00000  -0.00009   0.00000
  89       17D-1        0.00019   0.00000  -0.00003   0.00000  -0.00023
  90       17D+2       -0.00032   0.00000   0.00005   0.00000   0.00002
  91       17D-2        0.00000   0.00016   0.00000  -0.00023   0.00000
  92       18F 0        0.00008   0.00000  -0.00007   0.00000  -0.00012
  93       18F+1        0.00000   0.00001   0.00000   0.00001   0.00000
  94       18F-1        0.00031   0.00000   0.00008   0.00000   0.00008
  95       18F+2        0.00000   0.00000  -0.00014   0.00000  -0.00022
  96       18F-2        0.00000   0.00022   0.00000   0.00025   0.00000
  97       18F+3        0.00000  -0.00018   0.00000  -0.00022   0.00000
  98       18F-3        0.00008   0.00000  -0.00006   0.00000  -0.00010
  99       19F 0       -0.00008   0.00000  -0.00009   0.00000  -0.00011
 100       19F+1        0.00000  -0.00001   0.00000  -0.00003   0.00000
 101       19F-1       -0.00038   0.00000  -0.00001   0.00000   0.00018
 102       19F+2        0.00003   0.00000   0.00000   0.00000  -0.00011
 103       19F-2        0.00000  -0.00017   0.00000  -0.00025   0.00000
 104       19F+3        0.00000   0.00014   0.00000   0.00024   0.00000
 105       19F-3       -0.00010   0.00000   0.00010   0.00000   0.00001
 106 3   Br 1S          0.00643   0.00000  -0.00184   0.00000   0.00042
 107        2S         -0.02415   0.00000   0.00724   0.00000  -0.00076
 108        3S          0.05315   0.00000  -0.01943   0.00000  -0.00739
 109        4S          0.00000   0.00000   0.00050   0.00000   0.00094
 110        5S          0.00249   0.00000  -0.00076   0.00000  -0.00052
 111        6S          0.00326   0.00000  -0.00051   0.00000  -0.00096
 112        7S          0.00106   0.00000  -0.00013   0.00000  -0.00112
 113        8PX         0.00000   0.26230   0.00000  -0.26286   0.00000
 114        8PY        -0.15867   0.00000   0.04252   0.00000   0.08726
 115        8PZ        -0.20296   0.00000  -0.09422   0.00000  -0.05200
 116        9PX         0.00000  -0.74193   0.00000   0.74228   0.00000
 117        9PY         0.44234   0.00000  -0.10024   0.00000  -0.20711
 118        9PZ         0.57500   0.00000   0.25396   0.00000   0.12438
 119       10PX         0.00000  -0.00130   0.00000   0.00071   0.00000
 120       10PY        -0.00022   0.00000   0.00051   0.00000   0.00047
 121       10PZ         0.00133   0.00000   0.00006   0.00000   0.00015
 122       11PX         0.00000  -0.03316   0.00000   0.03282   0.00000
 123       11PY         0.01965   0.00000  -0.00443   0.00000  -0.00875
 124       11PZ         0.02553   0.00000   0.01119   0.00000   0.00518
 125       12PX         0.00000  -0.00388   0.00000   0.00270   0.00000
 126       12PY         0.00014   0.00000   0.00019   0.00000   0.00011
 127       12PZ         0.00313   0.00000   0.00081   0.00000  -0.00058
 128       13PX         0.00000   0.00032   0.00000  -0.00025   0.00000
 129       13PY        -0.00028   0.00000   0.00004   0.00000   0.00025
 130       13PZ         0.00001   0.00000  -0.00003   0.00000  -0.00019
 131       14D 0       -0.00748   0.00000  -0.00272   0.00000  -0.00117
 132       14D+1        0.00000  -0.00111   0.00000   0.00121   0.00000
 133       14D-1        0.00697   0.00000  -0.00745   0.00000  -0.00986
 134       14D+2       -0.00275   0.00000  -0.00627   0.00000  -0.00623
 135       14D-2        0.00000   0.00224   0.00000  -0.00218   0.00000
 136       15D 0       -0.00041   0.00000  -0.00020   0.00000  -0.00010
 137       15D+1        0.00000  -0.00017   0.00000   0.00019   0.00000
 138       15D-1        0.00043   0.00000  -0.00069   0.00000  -0.00088
 139       15D+2       -0.00010   0.00000  -0.00060   0.00000  -0.00061
 140       15D-2        0.00000   0.00028   0.00000  -0.00034   0.00000
 141       16D 0       -0.00037   0.00000  -0.00010   0.00000   0.00012
 142       16D+1        0.00000   0.00010   0.00000  -0.00015   0.00000
 143       16D-1        0.00011   0.00000  -0.00024   0.00000  -0.00072
 144       16D+2       -0.00032   0.00000   0.00000   0.00000  -0.00020
 145       16D-2        0.00000  -0.00017   0.00000   0.00017   0.00000
 146       17D 0       -0.00023   0.00000   0.00002   0.00000  -0.00011
 147       17D+1        0.00000  -0.00009   0.00000  -0.00009   0.00000
 148       17D-1       -0.00019   0.00000   0.00003   0.00000   0.00023
 149       17D+2       -0.00032   0.00000   0.00005   0.00000   0.00002
 150       17D-2        0.00000   0.00016   0.00000   0.00023   0.00000
 151       18F 0        0.00008   0.00000  -0.00007   0.00000  -0.00012
 152       18F+1        0.00000  -0.00001   0.00000   0.00001   0.00000
 153       18F-1       -0.00031   0.00000  -0.00008   0.00000  -0.00008
 154       18F+2        0.00000   0.00000  -0.00014   0.00000  -0.00022
 155       18F-2        0.00000   0.00022   0.00000  -0.00025   0.00000
 156       18F+3        0.00000   0.00018   0.00000  -0.00022   0.00000
 157       18F-3       -0.00008   0.00000   0.00006   0.00000   0.00010
 158       19F 0       -0.00008   0.00000  -0.00009   0.00000  -0.00011
 159       19F+1        0.00000   0.00001   0.00000  -0.00003   0.00000
 160       19F-1        0.00038   0.00000   0.00001   0.00000  -0.00018
 161       19F+2        0.00003   0.00000   0.00000   0.00000  -0.00011
 162       19F-2        0.00000  -0.00017   0.00000   0.00025   0.00000
 163       19F+3        0.00000  -0.00014   0.00000   0.00024   0.00000
 164       19F-3        0.00010   0.00000  -0.00010   0.00000  -0.00001
 165 4   O  1S          0.17779   0.00000  -0.80072   0.00000   0.52657
 166        2S         -0.00343   0.00000   0.01548   0.00000  -0.00867
 167        3S          0.00750   0.00000  -0.03383   0.00000   0.02282
 168        4S         -0.00163   0.00000   0.00271   0.00000  -0.00143
 169        5S         -0.00188   0.00000  -0.00037   0.00000  -0.00138
 170        6PX         0.00000   0.00000   0.00000  -0.00049   0.00000
 171        6PY         0.00000   0.00000   0.00000   0.00000   0.00000
 172        6PZ        -0.00071   0.00000   0.00392   0.00000  -0.00037
 173        7PX         0.00000   0.00000   0.00000  -0.00057   0.00000
 174        7PY         0.00000   0.00000   0.00000   0.00000   0.00000
 175        7PZ        -0.00011   0.00000   0.00149   0.00000   0.00261
 176        8PX         0.00000   0.00000   0.00000  -0.00038   0.00000
 177        8PY         0.00000   0.00000   0.00000   0.00000   0.00000
 178        8PZ        -0.00136   0.00000   0.00322   0.00000   0.00233
 179        9PX         0.00000   0.00000   0.00000   0.00004   0.00000
 180        9PY         0.00000   0.00000   0.00000   0.00000   0.00000
 181        9PZ         0.00064   0.00000   0.00052   0.00000   0.00042
 182       10D 0        0.00004   0.00000  -0.00021   0.00000   0.00006
 183       10D+1        0.00000   0.00000   0.00000   0.00000   0.00000
 184       10D-1        0.00000   0.00000   0.00000   0.00000   0.00000
 185       10D+2       -0.00003   0.00000   0.00005   0.00000  -0.00002
 186       10D-2        0.00000  -0.00001   0.00000   0.00000   0.00000
 187       11D 0        0.00002   0.00000   0.00018   0.00000  -0.00104
 188       11D+1        0.00000   0.00000   0.00000  -0.00008   0.00000
 189       11D-1        0.00000   0.00000   0.00000   0.00000   0.00000
 190       11D+2        0.00005   0.00000   0.00014   0.00000  -0.00006
 191       11D-2        0.00000   0.00002   0.00000   0.00000   0.00000
 192       12D 0        0.00078   0.00000  -0.00049   0.00000  -0.00058
 193       12D+1        0.00000   0.00000   0.00000  -0.00009   0.00000
 194       12D-1        0.00000   0.00000   0.00000   0.00000   0.00000
 195       12D+2       -0.00001   0.00000   0.00029   0.00000   0.00041
 196       12D-2        0.00000  -0.00003   0.00000   0.00000   0.00000
 197       13F 0        0.00001   0.00000  -0.00009   0.00000  -0.00008
 198       13F+1        0.00000   0.00000   0.00000   0.00000   0.00000
 199       13F-1        0.00000   0.00000   0.00000   0.00000   0.00000
 200       13F+2       -0.00001   0.00000   0.00002   0.00000  -0.00001
 201       13F-2        0.00000   0.00000   0.00000   0.00000   0.00000
 202       13F+3        0.00000   0.00000   0.00000  -0.00001   0.00000
 203       13F-3        0.00000   0.00000   0.00000   0.00000   0.00000
 204       14F 0       -0.00009   0.00000   0.00001   0.00000   0.00036
 205       14F+1        0.00000   0.00000   0.00000   0.00007   0.00000
 206       14F-1        0.00000   0.00000   0.00000   0.00000   0.00000
 207       14F+2        0.00002   0.00000  -0.00010   0.00000  -0.00004
 208       14F-2        0.00000  -0.00003   0.00000   0.00000   0.00000
 209       14F+3        0.00000   0.00000   0.00000   0.00004   0.00000
 210       14F-3        0.00000   0.00000   0.00000   0.00000   0.00000
                          11        12        13        14        15
     Eigenvalues --     2.00000   2.00000   2.00000   2.00000   2.00000
   1 1   C  1S          0.00000  -0.00121   0.00000   0.01367   0.00000
   2        2S          0.00000   0.00005   0.00000  -0.00011   0.00000
   3        3S          0.00000  -0.00005   0.00000   0.00062   0.00000
   4        4S          0.00000   0.00036   0.00000  -0.00105   0.00000
   5        5S          0.00000   0.00019   0.00000  -0.00038   0.00000
   6        6PX         0.00000   0.00000   0.00000   0.00000   0.00001
   7        6PY        -0.00003   0.00000  -0.00001   0.00000   0.00000
   8        6PZ         0.00000   0.00001   0.00000  -0.00004   0.00000
   9        7PX         0.00000   0.00000   0.00000   0.00000   0.00000
  10        7PY         0.00006   0.00000   0.00003   0.00000   0.00000
  11        7PZ         0.00000   0.00007   0.00000   0.00010   0.00000
  12        8PX         0.00000   0.00000   0.00000   0.00000  -0.00007
  13        8PY         0.00040   0.00000   0.00061   0.00000   0.00000
  14        8PZ         0.00000  -0.00053   0.00000   0.00038   0.00000
  15        9PX         0.00000   0.00000   0.00000   0.00000   0.00001
  16        9PY        -0.00010   0.00000   0.00011   0.00000   0.00000
  17        9PZ         0.00000  -0.00001   0.00000   0.00005   0.00000
  18       10D 0        0.00000   0.00000   0.00000   0.00001   0.00000
  19       10D+1        0.00000   0.00000   0.00000   0.00000   0.00000
  20       10D-1        0.00000   0.00000   0.00000   0.00000   0.00000
  21       10D+2        0.00000   0.00000   0.00000   0.00000   0.00000
  22       10D-2        0.00000   0.00000   0.00000   0.00000   0.00000
  23       11D 0        0.00000   0.00005   0.00000   0.00001   0.00000
  24       11D+1        0.00000   0.00000   0.00000   0.00000   0.00005
  25       11D-1       -0.00008   0.00000  -0.00002   0.00000   0.00000
  26       11D+2        0.00000   0.00001   0.00000   0.00014   0.00000
  27       11D-2        0.00000   0.00000   0.00000   0.00000   0.00000
  28       12D 0        0.00000  -0.00001   0.00000   0.00008   0.00000
  29       12D+1        0.00000   0.00000   0.00000   0.00000   0.00004
  30       12D-1       -0.00019   0.00000  -0.00020   0.00000   0.00000
  31       12D+2        0.00000  -0.00005   0.00000   0.00017   0.00000
  32       12D-2        0.00000   0.00000   0.00000   0.00000   0.00000
  33       13F 0        0.00000   0.00001   0.00000   0.00000   0.00000
  34       13F+1        0.00000   0.00000   0.00000   0.00000   0.00001
  35       13F-1        0.00000   0.00000   0.00001   0.00000   0.00000
  36       13F+2        0.00000   0.00000   0.00000   0.00000   0.00000
  37       13F-2        0.00000   0.00000   0.00000   0.00000   0.00000
  38       13F+3        0.00000   0.00000   0.00000   0.00000  -0.00001
  39       13F-3        0.00001   0.00000   0.00001   0.00000   0.00000
  40       14F 0        0.00000  -0.00003   0.00000   0.00002   0.00000
  41       14F+1        0.00000   0.00000   0.00000   0.00000  -0.00001
  42       14F-1       -0.00002   0.00000  -0.00008   0.00000   0.00000
  43       14F+2        0.00000   0.00005   0.00000   0.00001   0.00000
  44       14F-2        0.00000   0.00000   0.00000   0.00000   0.00000
  45       14F+3        0.00000   0.00000   0.00000   0.00000   0.00004
  46       14F-3       -0.00002   0.00000  -0.00006   0.00000   0.00000
  47 2   Br 1S         -0.05490   0.00197  -0.01162  -0.03821   0.00000
  48        2S          0.16992  -0.00570   0.03872   0.12253   0.00000
  49        3S          0.01504  -0.00060   0.00363   0.01297   0.00000
  50        4S         -0.00012   0.00002  -0.00007  -0.00015   0.00000
  51        5S          0.00045  -0.00002   0.00010   0.00038   0.00000
  52        6S          0.00050  -0.00029   0.00049   0.00066   0.00000
  53        7S         -0.00014  -0.00013   0.00024   0.00018   0.00000
  54        8PX         0.00000   0.00000   0.00000   0.00000   0.71316
  55        8PY         0.66226  -0.40170  -0.19888   0.57167  -0.00001
  56        8PZ         0.17944   0.58879   0.68301   0.39242   0.00000
  57        9PX         0.00000   0.00000   0.00000   0.00000  -0.01616
  58        9PY         0.00015   0.00758   0.00864   0.00716   0.00000
  59        9PZ         0.00558  -0.01369  -0.01249   0.00339   0.00000
  60       10PX         0.00000   0.00000   0.00000   0.00000   0.00028
  61       10PY         0.00033  -0.00022  -0.00005   0.00032   0.00000
  62       10PZ         0.00013   0.00023   0.00035   0.00021   0.00000
  63       11PX         0.00000   0.00000   0.00000   0.00000  -0.00122
  64       11PY        -0.00056   0.00063   0.00048  -0.00023   0.00000
  65       11PZ         0.00005  -0.00101  -0.00106  -0.00021   0.00000
  66       12PX         0.00000   0.00000   0.00000   0.00000  -0.00006
  67       12PY         0.00005  -0.00012   0.00028   0.00020   0.00000
  68       12PZ         0.00008  -0.00013   0.00006   0.00020   0.00000
  69       13PX         0.00000   0.00000   0.00000   0.00000   0.00002
  70       13PY        -0.00001  -0.00003   0.00002   0.00002   0.00000
  71       13PZ        -0.00003   0.00000   0.00005   0.00002   0.00000
  72       14D 0       -0.00007   0.00033   0.00032   0.00002   0.00000
  73       14D+1        0.00000   0.00000   0.00000   0.00000  -0.00004
  74       14D-1       -0.00032   0.00018   0.00010  -0.00007   0.00000
  75       14D+2        0.00015   0.00017   0.00022   0.00008   0.00000
  76       14D-2        0.00000   0.00000   0.00000   0.00000  -0.00010
  77       15D 0        0.00000   0.00000   0.00001   0.00000   0.00000
  78       15D+1        0.00000   0.00000   0.00000   0.00000  -0.00002
  79       15D-1       -0.00005   0.00000  -0.00001  -0.00004   0.00000
  80       15D+2        0.00003   0.00000   0.00001   0.00003   0.00000
  81       15D-2        0.00000   0.00000   0.00000   0.00000  -0.00002
  82       16D 0        0.00000   0.00006   0.00007   0.00000   0.00000
  83       16D+1        0.00000   0.00000   0.00000   0.00000   0.00003
  84       16D-1        0.00008   0.00002   0.00007   0.00012   0.00000
  85       16D+2       -0.00006   0.00005   0.00001  -0.00010   0.00000
  86       16D-2        0.00000   0.00000   0.00000   0.00000   0.00004
  87       17D 0        0.00000   0.00001  -0.00002   0.00002   0.00000
  88       17D+1        0.00000   0.00000   0.00000   0.00000   0.00000
  89       17D-1        0.00002  -0.00003   0.00004   0.00006   0.00000
  90       17D+2        0.00001   0.00003  -0.00004  -0.00003   0.00000
  91       17D-2        0.00000   0.00000   0.00000   0.00000   0.00001
  92       18F 0        0.00000   0.00000   0.00000   0.00000   0.00000
  93       18F+1        0.00000   0.00000   0.00000   0.00000   0.00000
  94       18F-1        0.00000  -0.00001   0.00000   0.00000   0.00000
  95       18F+2       -0.00001   0.00000   0.00000  -0.00001   0.00000
  96       18F-2        0.00000   0.00000   0.00000   0.00000   0.00000
  97       18F+3        0.00000   0.00000   0.00000   0.00000   0.00000
  98       18F-3        0.00000   0.00000   0.00000  -0.00001   0.00000
  99       19F 0       -0.00002   0.00000   0.00000  -0.00001   0.00000
 100       19F+1        0.00000   0.00000   0.00000   0.00000   0.00000
 101       19F-1        0.00001   0.00003   0.00003   0.00001   0.00000
 102       19F+2       -0.00002   0.00000  -0.00001  -0.00004   0.00000
 103       19F-2        0.00000   0.00000   0.00000   0.00000   0.00002
 104       19F+3        0.00000   0.00000   0.00000   0.00000  -0.00002
 105       19F-3       -0.00001   0.00001   0.00001  -0.00002   0.00000
 106 3   Br 1S          0.05490   0.00197   0.01162  -0.03821   0.00000
 107        2S         -0.16992  -0.00570  -0.03871   0.12253   0.00000
 108        3S         -0.01504  -0.00060  -0.00363   0.01297   0.00000
 109        4S          0.00012   0.00002   0.00007  -0.00015   0.00000
 110        5S         -0.00045  -0.00002  -0.00010   0.00038   0.00000
 111        6S         -0.00050  -0.00029  -0.00049   0.00066   0.00000
 112        7S          0.00014  -0.00013  -0.00024   0.00018   0.00000
 113        8PX         0.00000   0.00000   0.00000   0.00001   0.71290
 114        8PY         0.66226   0.40173  -0.19884  -0.57167   0.00000
 115        8PZ        -0.17945   0.58886  -0.68295   0.39242   0.00000
 116        9PX         0.00000   0.00000   0.00000   0.00000  -0.01616
 117        9PY         0.00015  -0.00758   0.00864  -0.00716   0.00000
 118        9PZ        -0.00558  -0.01369   0.01249   0.00339   0.00000
 119       10PX         0.00000   0.00000   0.00000   0.00000   0.00028
 120       10PY         0.00033   0.00022  -0.00005  -0.00032   0.00000
 121       10PZ        -0.00013   0.00023  -0.00035   0.00021   0.00000
 122       11PX         0.00000   0.00000   0.00000   0.00000  -0.00122
 123       11PY        -0.00056  -0.00063   0.00048   0.00023   0.00000
 124       11PZ        -0.00005  -0.00101   0.00106  -0.00021   0.00000
 125       12PX         0.00000   0.00000   0.00000   0.00000  -0.00006
 126       12PY         0.00005   0.00012   0.00028  -0.00020   0.00000
 127       12PZ        -0.00008  -0.00013  -0.00006   0.00020   0.00000
 128       13PX         0.00000   0.00000   0.00000   0.00000   0.00002
 129       13PY        -0.00001   0.00003   0.00002  -0.00002   0.00000
 130       13PZ         0.00003   0.00000  -0.00005   0.00002   0.00000
 131       14D 0        0.00007   0.00033  -0.00032   0.00002   0.00000
 132       14D+1        0.00000   0.00000   0.00000   0.00000  -0.00004
 133       14D-1       -0.00032  -0.00018   0.00010   0.00007   0.00000
 134       14D+2       -0.00015   0.00017  -0.00022   0.00008   0.00000
 135       14D-2        0.00000   0.00000   0.00000   0.00000   0.00010
 136       15D 0        0.00000   0.00000  -0.00001   0.00000   0.00000
 137       15D+1        0.00000   0.00000   0.00000   0.00000  -0.00002
 138       15D-1       -0.00005   0.00000  -0.00001   0.00004   0.00000
 139       15D+2       -0.00003   0.00000  -0.00001   0.00003   0.00000
 140       15D-2        0.00000   0.00000   0.00000   0.00000   0.00002
 141       16D 0        0.00000   0.00006  -0.00007   0.00000   0.00000
 142       16D+1        0.00000   0.00000   0.00000   0.00000   0.00003
 143       16D-1        0.00008  -0.00002   0.00007  -0.00012   0.00000
 144       16D+2        0.00006   0.00005  -0.00001  -0.00010   0.00000
 145       16D-2        0.00000   0.00000   0.00000   0.00000  -0.00004
 146       17D 0        0.00000   0.00001   0.00002   0.00002   0.00000
 147       17D+1        0.00000   0.00000   0.00000   0.00000   0.00000
 148       17D-1        0.00002   0.00003   0.00004  -0.00006   0.00000
 149       17D+2       -0.00001   0.00003   0.00004  -0.00003   0.00000
 150       17D-2        0.00000   0.00000   0.00000   0.00000  -0.00001
 151       18F 0        0.00000   0.00000   0.00000   0.00000   0.00000
 152       18F+1        0.00000   0.00000   0.00000   0.00000   0.00000
 153       18F-1        0.00000   0.00001   0.00000   0.00000   0.00000
 154       18F+2        0.00001   0.00000   0.00000  -0.00001   0.00000
 155       18F-2        0.00000   0.00000   0.00000   0.00000   0.00000
 156       18F+3        0.00000   0.00000   0.00000   0.00000   0.00000
 157       18F-3        0.00000   0.00000   0.00000   0.00001   0.00000
 158       19F 0        0.00002   0.00000   0.00000  -0.00001   0.00000
 159       19F+1        0.00000   0.00000   0.00000   0.00000   0.00000
 160       19F-1        0.00001  -0.00003   0.00003  -0.00001   0.00000
 161       19F+2        0.00002   0.00000   0.00001  -0.00004   0.00000
 162       19F-2        0.00000   0.00000   0.00000   0.00000  -0.00002
 163       19F+3        0.00000   0.00000   0.00000   0.00000  -0.00002
 164       19F-3       -0.00001  -0.00001   0.00001   0.00002   0.00000
 165 4   O  1S          0.00000  -0.00044   0.00000   0.00403   0.00000
 166        2S          0.00000   0.00000   0.00000  -0.00010   0.00000
 167        3S          0.00000  -0.00002   0.00000   0.00018   0.00000
 168        4S          0.00000   0.00006   0.00000   0.00004   0.00000
 169        5S          0.00000   0.00018   0.00000  -0.00005   0.00000
 170        6PX         0.00000   0.00000   0.00000   0.00000   0.00000
 171        6PY         0.00000   0.00000   0.00000   0.00000   0.00000
 172        6PZ         0.00000   0.00000   0.00000   0.00002   0.00000
 173        7PX         0.00000   0.00000   0.00000   0.00000  -0.00001
 174        7PY         0.00001   0.00000   0.00001   0.00000   0.00000
 175        7PZ         0.00000   0.00001   0.00000   0.00006   0.00000
 176        8PX         0.00000   0.00000   0.00000   0.00000  -0.00002
 177        8PY         0.00003   0.00000   0.00000   0.00000   0.00000
 178        8PZ         0.00000   0.00010   0.00000  -0.00005   0.00000
 179        9PX         0.00000   0.00000   0.00000   0.00000  -0.00001
 180        9PY         0.00008   0.00000   0.00002   0.00000   0.00000
 181        9PZ         0.00000  -0.00006   0.00000   0.00002   0.00000
 182       10D 0        0.00000   0.00000   0.00000   0.00000   0.00000
 183       10D+1        0.00000   0.00000   0.00000   0.00000   0.00000
 184       10D-1        0.00000   0.00000   0.00000   0.00000   0.00000
 185       10D+2        0.00000   0.00000   0.00000   0.00000   0.00000
 186       10D-2        0.00000   0.00000   0.00000   0.00000   0.00000
 187       11D 0        0.00000  -0.00001   0.00000  -0.00002   0.00000
 188       11D+1        0.00000   0.00000   0.00000   0.00000   0.00001
 189       11D-1        0.00000   0.00000   0.00000   0.00000   0.00000
 190       11D+2        0.00000  -0.00001   0.00000  -0.00001   0.00000
 191       11D-2        0.00000   0.00000   0.00000   0.00000   0.00000
 192       12D 0        0.00000  -0.00007   0.00000   0.00000   0.00000
 193       12D+1        0.00000   0.00000   0.00000   0.00000   0.00001
 194       12D-1        0.00000   0.00000   0.00002   0.00000   0.00000
 195       12D+2        0.00000  -0.00001   0.00000  -0.00004   0.00000
 196       12D-2        0.00000   0.00000   0.00000   0.00000   0.00000
 197       13F 0        0.00000   0.00000   0.00000   0.00000   0.00000
 198       13F+1        0.00000   0.00000   0.00000   0.00000   0.00000
 199       13F-1        0.00000   0.00000   0.00000   0.00000   0.00000
 200       13F+2        0.00000   0.00000   0.00000   0.00000   0.00000
 201       13F-2        0.00000   0.00000   0.00000   0.00000   0.00000
 202       13F+3        0.00000   0.00000   0.00000   0.00000   0.00000
 203       13F-3        0.00000   0.00000   0.00000   0.00000   0.00000
 204       14F 0        0.00000   0.00001   0.00000   0.00002   0.00000
 205       14F+1        0.00000   0.00000   0.00000   0.00000  -0.00001
 206       14F-1        0.00000   0.00000  -0.00001   0.00000   0.00000
 207       14F+2        0.00000   0.00001   0.00000   0.00002   0.00000
 208       14F-2        0.00000   0.00000   0.00000   0.00000   0.00000
 209       14F+3        0.00000   0.00000   0.00000   0.00000  -0.00001
 210       14F-3        0.00000   0.00000   0.00000   0.00000   0.00000
                          16        17        18        19        20
     Eigenvalues --     2.00000   2.00000   2.00000   2.00000   2.00000
   1 1   C  1S          0.00000   0.00000   0.00155   0.00000   0.00005
   2        2S          0.00000   0.00000  -0.00001   0.00000   0.00000
   3        3S          0.00000   0.00000   0.00006   0.00000   0.00000
   4        4S          0.00000   0.00000   0.00006   0.00000   0.00001
   5        5S          0.00000   0.00000   0.00007   0.00000   0.00000
   6        6PX         0.00000   0.00000   0.00000   0.00000   0.00000
   7        6PY         0.00000   0.00000   0.00000   0.00000   0.00000
   8        6PZ         0.00000   0.00000   0.00000   0.00000   0.00000
   9        7PX         0.00000   0.00000   0.00000   0.00000   0.00000
  10        7PY         0.00000  -0.00002   0.00000   0.00000   0.00000
  11        7PZ         0.00000   0.00000  -0.00001   0.00000   0.00000
  12        8PX         0.00000   0.00000   0.00000   0.00000   0.00000
  13        8PY         0.00000   0.00001   0.00000  -0.00001   0.00000
  14        8PZ         0.00000   0.00000  -0.00001   0.00000  -0.00001
  15        9PX         0.00000   0.00000   0.00000   0.00000   0.00000
  16        9PY         0.00000   0.00002   0.00000   0.00000   0.00000
  17        9PZ         0.00000   0.00000   0.00000   0.00000   0.00000
  18       10D 0        0.00000   0.00000   0.00000   0.00000   0.00000
  19       10D+1        0.00000   0.00000   0.00000   0.00000   0.00000
  20       10D-1        0.00000   0.00000   0.00000   0.00000   0.00000
  21       10D+2        0.00000   0.00000   0.00000   0.00000   0.00000
  22       10D-2       -0.00001   0.00000   0.00000   0.00000   0.00000
  23       11D 0        0.00000   0.00000   0.00000   0.00000   0.00000
  24       11D+1        0.00000   0.00000   0.00000   0.00000   0.00000
  25       11D-1        0.00000   0.00002   0.00000   0.00000   0.00000
  26       11D+2        0.00000   0.00000  -0.00001   0.00000   0.00000
  27       11D-2        0.00004   0.00000   0.00000   0.00000   0.00000
  28       12D 0        0.00000   0.00000   0.00002   0.00000   0.00000
  29       12D+1        0.00000   0.00000   0.00000   0.00000   0.00000
  30       12D-1        0.00000   0.00004   0.00000   0.00000   0.00000
  31       12D+2        0.00000   0.00000  -0.00001   0.00000   0.00000
  32       12D-2       -0.00004   0.00000   0.00000   0.00000   0.00000
  33       13F 0        0.00000   0.00000   0.00000   0.00000   0.00000
  34       13F+1        0.00000   0.00000   0.00000   0.00000   0.00000
  35       13F-1        0.00000   0.00000   0.00000   0.00000   0.00000
  36       13F+2        0.00000   0.00000   0.00000   0.00000   0.00000
  37       13F-2        0.00000   0.00000   0.00000   0.00000   0.00000
  38       13F+3        0.00000   0.00000   0.00000   0.00000   0.00000
  39       13F-3        0.00000   0.00000   0.00000   0.00000   0.00000
  40       14F 0        0.00000   0.00000  -0.00001   0.00000   0.00000
  41       14F+1        0.00000   0.00000   0.00000   0.00000   0.00000
  42       14F-1        0.00000   0.00002   0.00000   0.00000   0.00000
  43       14F+2        0.00000   0.00000   0.00000   0.00000   0.00000
  44       14F-2       -0.00003   0.00000   0.00000   0.00000   0.00000
  45       14F+3        0.00000   0.00000   0.00000   0.00000   0.00000
  46       14F-3        0.00000   0.00001   0.00000   0.00000   0.00000
  47 2   Br 1S          0.00000  -0.21809  -0.22069   0.68710   0.72457
  48        2S          0.00000   0.70652   0.71713   0.00386   0.00283
  49        3S          0.00000   0.03011   0.03103   0.00054   0.00049
  50        4S          0.00000  -0.00020  -0.00019   0.00001   0.00001
  51        5S          0.00000   0.00071   0.00073   0.00000   0.00000
  52        6S          0.00000   0.00004   0.00003  -0.00002  -0.00001
  53        7S          0.00000   0.00004  -0.00002   0.00000   0.00000
  54        8PX         0.71307   0.00000   0.00000   0.00000   0.00000
  55        8PY         0.00000  -0.15266  -0.10539   0.00228   0.00053
  56        8PZ         0.00000  -0.08311  -0.06511   0.00026   0.00006
  57        9PX        -0.01662   0.00000   0.00000   0.00000   0.00000
  58        9PY         0.00000   0.00252   0.00308  -0.00010  -0.00015
  59        9PZ         0.00000   0.00125   0.00181  -0.00005  -0.00006
  60       10PX         0.00029   0.00000   0.00000   0.00000   0.00000
  61       10PY         0.00000  -0.00008  -0.00006   0.00000   0.00000
  62       10PZ         0.00000  -0.00005  -0.00004   0.00000   0.00000
  63       11PX        -0.00124   0.00000   0.00000   0.00000   0.00000
  64       11PY         0.00000   0.00024   0.00023  -0.00001  -0.00001
  65       11PZ         0.00000   0.00013   0.00013   0.00000   0.00000
  66       12PX        -0.00013   0.00000   0.00000   0.00000   0.00000
  67       12PY         0.00000   0.00006   0.00001  -0.00001   0.00000
  68       12PZ         0.00000   0.00003   0.00002   0.00000   0.00000
  69       13PX         0.00003   0.00000   0.00000   0.00000   0.00000
  70       13PY         0.00000   0.00000  -0.00001   0.00000   0.00000
  71       13PZ         0.00000   0.00000   0.00000   0.00000   0.00000
  72       14D 0        0.00000  -0.00003  -0.00004   0.00000   0.00000
  73       14D+1       -0.00004   0.00000   0.00000   0.00000   0.00000
  74       14D-1        0.00000   0.00001   0.00000   0.00000   0.00000
  75       14D+2        0.00000   0.00007   0.00007   0.00000   0.00000
  76       14D-2       -0.00011   0.00000   0.00000   0.00000   0.00000
  77       15D 0        0.00000   0.00000   0.00000   0.00000   0.00000
  78       15D+1       -0.00001   0.00000   0.00000   0.00000   0.00000
  79       15D-1        0.00000   0.00000   0.00000   0.00000   0.00000
  80       15D+2        0.00000   0.00000   0.00000   0.00000   0.00000
  81       15D-2       -0.00002   0.00000   0.00000   0.00000   0.00000
  82       16D 0        0.00000  -0.00001   0.00000   0.00000   0.00000
  83       16D+1        0.00002   0.00000   0.00000   0.00000   0.00000
  84       16D-1        0.00000  -0.00001  -0.00001   0.00000   0.00000
  85       16D+2        0.00000   0.00001   0.00001   0.00000   0.00000
  86       16D-2        0.00003   0.00000   0.00000   0.00000   0.00000
  87       17D 0        0.00000   0.00000   0.00000   0.00000   0.00000
  88       17D+1       -0.00002   0.00000   0.00000   0.00000   0.00000
  89       17D-1        0.00000   0.00001   0.00001   0.00000   0.00000
  90       17D+2        0.00000  -0.00002   0.00000   0.00000   0.00000
  91       17D-2       -0.00002   0.00000   0.00000   0.00000   0.00000
  92       18F 0        0.00000   0.00000   0.00000   0.00000   0.00000
  93       18F+1        0.00000   0.00000   0.00000   0.00000   0.00000
  94       18F-1        0.00000   0.00000   0.00000   0.00000   0.00000
  95       18F+2        0.00000   0.00000   0.00000   0.00000   0.00000
  96       18F-2        0.00000   0.00000   0.00000   0.00000   0.00000
  97       18F+3        0.00000   0.00000   0.00000   0.00000   0.00000
  98       18F-3        0.00000   0.00000   0.00000   0.00000   0.00000
  99       19F 0        0.00000   0.00000   0.00000   0.00000   0.00000
 100       19F+1        0.00000   0.00000   0.00000   0.00000   0.00000
 101       19F-1        0.00000   0.00000   0.00000   0.00000   0.00000
 102       19F+2        0.00000   0.00000   0.00000   0.00000   0.00000
 103       19F-2        0.00001   0.00000   0.00000   0.00000   0.00000
 104       19F+3       -0.00001   0.00000   0.00000   0.00000   0.00000
 105       19F-3        0.00000   0.00000   0.00000   0.00000   0.00000
 106 3   Br 1S          0.00000   0.21803  -0.22075  -0.72420   0.68748
 107        2S          0.00000  -0.70629   0.71735  -0.00399   0.00263
 108        3S          0.00000  -0.03010   0.03104  -0.00057   0.00047
 109        4S          0.00000   0.00020  -0.00019  -0.00001   0.00001
 110        5S          0.00000  -0.00071   0.00074   0.00000   0.00000
 111        6S          0.00000  -0.00004   0.00003   0.00002  -0.00001
 112        7S          0.00000  -0.00004  -0.00002   0.00000   0.00000
 113        8PX        -0.71332   0.00000   0.00000   0.00000   0.00000
 114        8PY         0.00000  -0.15263   0.10544   0.00231  -0.00041
 115        8PZ         0.00000   0.08309  -0.06513  -0.00026   0.00005
 116        9PX         0.01663   0.00000   0.00000   0.00000   0.00000
 117        9PY         0.00000   0.00252  -0.00308  -0.00010   0.00014
 118        9PZ         0.00000  -0.00125   0.00181   0.00005  -0.00006
 119       10PX        -0.00029   0.00000   0.00000   0.00000   0.00000
 120       10PY         0.00000  -0.00008   0.00006   0.00000   0.00000
 121       10PZ         0.00000   0.00005  -0.00004   0.00000   0.00000
 122       11PX         0.00124   0.00000   0.00000   0.00000   0.00000
 123       11PY         0.00000   0.00024  -0.00023  -0.00001   0.00001
 124       11PZ         0.00000  -0.00013   0.00013   0.00000   0.00000
 125       12PX         0.00013   0.00000   0.00000   0.00000   0.00000
 126       12PY         0.00000   0.00006  -0.00001  -0.00001   0.00000
 127       12PZ         0.00000  -0.00003   0.00002   0.00000   0.00000
 128       13PX        -0.00003   0.00000   0.00000   0.00000   0.00000
 129       13PY         0.00000   0.00000   0.00001   0.00000   0.00000
 130       13PZ         0.00000   0.00000   0.00000   0.00000   0.00000
 131       14D 0        0.00000   0.00003  -0.00004   0.00000   0.00000
 132       14D+1        0.00004   0.00000   0.00000   0.00000   0.00000
 133       14D-1        0.00000   0.00001   0.00000   0.00000   0.00000
 134       14D+2        0.00000  -0.00007   0.00007   0.00000   0.00000
 135       14D-2       -0.00011   0.00000   0.00000   0.00000   0.00000
 136       15D 0        0.00000   0.00000   0.00000   0.00000   0.00000
 137       15D+1        0.00001   0.00000   0.00000   0.00000   0.00000
 138       15D-1        0.00000   0.00000   0.00000   0.00000   0.00000
 139       15D+2        0.00000   0.00000   0.00000   0.00000   0.00000
 140       15D-2       -0.00002   0.00000   0.00000   0.00000   0.00000
 141       16D 0        0.00000   0.00001   0.00000   0.00000   0.00000
 142       16D+1       -0.00002   0.00000   0.00000   0.00000   0.00000
 143       16D-1        0.00000  -0.00001   0.00001   0.00000   0.00000
 144       16D+2        0.00000  -0.00001   0.00001   0.00000   0.00000
 145       16D-2        0.00003   0.00000   0.00000   0.00000   0.00000
 146       17D 0        0.00000   0.00000   0.00000   0.00000   0.00000
 147       17D+1        0.00002   0.00000   0.00000   0.00000   0.00000
 148       17D-1        0.00000   0.00001  -0.00001   0.00000   0.00000
 149       17D+2        0.00000   0.00002   0.00000   0.00000   0.00000
 150       17D-2       -0.00002   0.00000   0.00000   0.00000   0.00000
 151       18F 0        0.00000   0.00000   0.00000   0.00000   0.00000
 152       18F+1        0.00000   0.00000   0.00000   0.00000   0.00000
 153       18F-1        0.00000   0.00000   0.00000   0.00000   0.00000
 154       18F+2        0.00000   0.00000   0.00000   0.00000   0.00000
 155       18F-2        0.00000   0.00000   0.00000   0.00000   0.00000
 156       18F+3        0.00000   0.00000   0.00000   0.00000   0.00000
 157       18F-3        0.00000   0.00000   0.00000   0.00000   0.00000
 158       19F 0        0.00000   0.00000   0.00000   0.00000   0.00000
 159       19F+1        0.00000   0.00000   0.00000   0.00000   0.00000
 160       19F-1        0.00000   0.00000   0.00000   0.00000   0.00000
 161       19F+2        0.00000   0.00000   0.00000   0.00000   0.00000
 162       19F-2        0.00001   0.00000   0.00000   0.00000   0.00000
 163       19F+3        0.00001   0.00000   0.00000   0.00000   0.00000
 164       19F-3        0.00000   0.00000   0.00000   0.00000   0.00000
 165 4   O  1S          0.00000   0.00000   0.00061   0.00000   0.00000
 166        2S          0.00000   0.00000   0.00000   0.00000   0.00000
 167        3S          0.00000   0.00000   0.00003   0.00000   0.00000
 168        4S          0.00000   0.00000  -0.00002   0.00000   0.00000
 169        5S          0.00000   0.00000  -0.00005   0.00000   0.00001
 170        6PX         0.00000   0.00000   0.00000   0.00000   0.00000
 171        6PY         0.00000   0.00000   0.00000   0.00000   0.00000
 172        6PZ         0.00000   0.00000   0.00000   0.00000   0.00000
 173        7PX         0.00000   0.00000   0.00000   0.00000   0.00000
 174        7PY         0.00000   0.00000   0.00000   0.00000   0.00000
 175        7PZ         0.00000   0.00000   0.00001   0.00000   0.00000
 176        8PX         0.00000   0.00000   0.00000   0.00000   0.00000
 177        8PY         0.00000  -0.00003   0.00000   0.00000   0.00000
 178        8PZ         0.00000   0.00000   0.00001   0.00000   0.00000
 179        9PX         0.00000   0.00000   0.00000   0.00000   0.00000
 180        9PY         0.00000  -0.00001   0.00000   0.00000   0.00000
 181        9PZ         0.00000   0.00000   0.00001   0.00000   0.00000
 182       10D 0        0.00000   0.00000   0.00000   0.00000   0.00000
 183       10D+1        0.00000   0.00000   0.00000   0.00000   0.00000
 184       10D-1        0.00000   0.00000   0.00000   0.00000   0.00000
 185       10D+2        0.00000   0.00000   0.00000   0.00000   0.00000
 186       10D-2        0.00000   0.00000   0.00000   0.00000   0.00000
 187       11D 0        0.00000   0.00000   0.00000   0.00000   0.00000
 188       11D+1        0.00000   0.00000   0.00000   0.00000   0.00000
 189       11D-1        0.00000   0.00000   0.00000   0.00000   0.00000
 190       11D+2        0.00000   0.00000   0.00000   0.00000   0.00000
 191       11D-2        0.00000   0.00000   0.00000   0.00000   0.00000
 192       12D 0        0.00000   0.00000   0.00001   0.00000   0.00000
 193       12D+1        0.00000   0.00000   0.00000   0.00000   0.00000
 194       12D-1        0.00000   0.00001   0.00000   0.00000   0.00000
 195       12D+2        0.00000   0.00000   0.00001   0.00000   0.00000
 196       12D-2        0.00002   0.00000   0.00000   0.00000   0.00000
 197       13F 0        0.00000   0.00000   0.00000   0.00000   0.00000
 198       13F+1        0.00000   0.00000   0.00000   0.00000   0.00000
 199       13F-1        0.00000   0.00000   0.00000   0.00000   0.00000
 200       13F+2        0.00000   0.00000   0.00000   0.00000   0.00000
 201       13F-2        0.00000   0.00000   0.00000   0.00000   0.00000
 202       13F+3        0.00000   0.00000   0.00000   0.00000   0.00000
[...]
 189       11D-1        0.00000   0.00000   0.15831   0.00000   0.00000
 190       11D+2       -0.01458   0.00000   0.00000  -0.09884  -0.03699
 191       11D-2        0.00000   0.00000   0.00000   0.00000   0.00000
 192       12D 0        4.52123   0.00000   0.00000  -1.29727   0.76944
 193       12D+1        0.00000   2.06971   0.00000   0.00000   0.00000
 194       12D-1        0.00000   0.00000  -0.23761   0.00000   0.00000
 195       12D+2       -0.50876   0.00000   0.00000   0.55098   0.05634
 196       12D-2        0.00000   0.00000   0.00000   0.00000   0.00000
 197       13F 0        0.02549   0.00000   0.00000   0.01461  -0.04592
 198       13F+1        0.00000   0.01740   0.00000   0.00000   0.00000
 199       13F-1        0.00000   0.00000   0.04959   0.00000   0.00000
 200       13F+2       -0.05418   0.00000   0.00000   0.02446  -0.01309
 201       13F-2        0.00000   0.00000   0.00000   0.00000   0.00000
 202       13F+3        0.00000   0.00509   0.00000   0.00000   0.00000
 203       13F-3        0.00000   0.00000  -0.02860   0.00000   0.00000
 204       14F 0       -1.29928   0.00000   0.00000   0.17168   0.01217
 205       14F+1        0.00000  -0.15524   0.00000   0.00000   0.00000
 206       14F-1        0.00000   0.00000  -0.13018   0.00000   0.00000
 207       14F+2        0.19337   0.00000   0.00000  -0.09898   0.04472
 208       14F-2        0.00000   0.00000   0.00000   0.00000   0.00000
 209       14F+3        0.00000   0.00058   0.00000   0.00000   0.00000
 210       14F-3        0.00000   0.00000   0.05912   0.00000   0.00000
                         206       207       208       209       210
     Eigenvalues --     0.00000   0.00000   0.00000   0.00000   0.00000
   1 1   C  1S          0.00000   0.00000   0.00000   0.21562  -0.00134
   2        2S          0.00000   0.00000   0.00000   1.23385   0.03071
   3        3S          0.00000   0.00000   0.00000  -0.00137   0.10813
   4        4S          0.00000   0.00000   0.00000   9.19604   3.47015
   5        5S          0.00000   0.00000   0.00000   3.58842  31.36372
   6        6PX         0.00249   0.00000   0.00000   0.00000   0.00000
   7        6PY         0.00000  -0.00123   0.00545   0.00000   0.00000
   8        6PZ         0.00000   0.00000   0.00000   0.01051   0.00999
   9        7PX        -0.29626   0.00000   0.00000   0.00000   0.00000
  10        7PY         0.00000  -0.23797  -0.11741   0.00000   0.00000
  11        7PZ         0.00000   0.00000   0.00000   1.34139   0.06702
  12        8PX        -0.26915   0.00000   0.00000   0.00000   0.00000
  13        8PY         0.00000  -5.40930   6.91122   0.00000   0.00000
  14        8PZ         0.00000   0.00000   0.00000   5.44372  -0.01228
  15        9PX         6.34281   0.00000   0.00000   0.00000   0.00000
  16        9PY         0.00000  -0.34286  14.05325   0.00000   0.00000
  17        9PZ         0.00000   0.00000   0.00000   5.88613  -3.85167
  18       10D 0        0.00000   0.00000   0.00000   0.08410   0.02119
  19       10D+1       -0.00532   0.00000   0.00000   0.00000   0.00000
  20       10D-1        0.00000   0.00842   0.02304   0.00000   0.00000
  21       10D+2        0.00000   0.00000   0.00000  -0.00521  -0.04840
  22       10D-2        0.00000   0.00000   0.00000   0.00000   0.00000
  23       11D 0        0.00000   0.00000   0.00000   0.59623  -0.20864
  24       11D+1       -0.42937   0.00000   0.00000   0.00000   0.00000
  25       11D-1        0.00000  -0.13301  -0.69001   0.00000   0.00000
  26       11D+2        0.00000   0.00000   0.00000   0.01633   0.19045
  27       11D-2        0.00000   0.00000   0.00000   0.00000   0.00000
  28       12D 0        0.00000   0.00000   0.00000   3.50468   0.24256
  29       12D+1        0.94951   0.00000   0.00000   0.00000   0.00000
  30       12D-1        0.00000  -0.25841  -0.36016   0.00000   0.00000
  31       12D+2        0.00000   0.00000   0.00000   1.39844  -1.01812
  32       12D-2        0.00000   0.00000   0.00000   0.00000   0.00000
  33       13F 0        0.00000   0.00000   0.00000   0.05187  -0.04477
  34       13F+1       -0.12120   0.00000   0.00000   0.00000   0.00000
  35       13F-1        0.00000  -0.01560  -0.06113   0.00000   0.00000
  36       13F+2        0.00000   0.00000   0.00000  -0.00214   0.00514
  37       13F-2        0.00000   0.00000   0.00000   0.00000   0.00000
  38       13F+3        0.05348   0.00000   0.00000   0.00000   0.00000
  39       13F-3        0.00000   0.04708  -0.00064   0.00000   0.00000
  40       14F 0        0.00000   0.00000   0.00000  -0.01589  -0.09096
  41       14F+1       -0.04296   0.00000   0.00000   0.00000   0.00000
  42       14F-1        0.00000  -0.00605  -0.02230   0.00000   0.00000
  43       14F+2        0.00000   0.00000   0.00000   0.12333  -0.17062
  44       14F-2        0.00000   0.00000   0.00000   0.00000   0.00000
  45       14F+3       -0.03611   0.00000   0.00000   0.00000   0.00000
  46       14F-3        0.00000  -0.07067  -0.11084   0.00000   0.00000
  47 2   Br 1S          0.00000   0.00207  -0.00005  -0.00006   0.00007
  48        2S          0.00000   0.01600  -0.00351  -0.00141   0.00053
  49        3S          0.00000   0.07434  -0.00876  -0.00427   0.00238
  50        4S          0.00000   0.21947  -0.05717  -0.01751   0.00838
  51        5S          0.00000   0.08831  -0.15612  -0.00265  -0.00274
  52        6S          0.00000  -0.63509   1.89523   0.86952   0.06017
  53        7S          0.00000  -9.87351  14.98353   2.12387 -13.47814
  54        8PX         0.00163   0.00000   0.00000   0.00000   0.00000
  55        8PY         0.00000   0.00100   0.00060   0.00066  -0.00039
  56        8PZ         0.00000   0.00060  -0.00001   0.00046   0.00005
  57        9PX        -0.02025   0.00000   0.00000   0.00000   0.00000
  58        9PY         0.00000   0.01672   0.00307  -0.00851   0.02561
  59        9PZ         0.00000   0.00168   0.01283  -0.00989   0.01483
  60       10PX        -0.15520   0.00000   0.00000   0.00000   0.00000
  61       10PY         0.00000   0.24841   0.06694  -0.06594   0.28122
  62       10PZ         0.00000   0.05342   0.14871  -0.09247   0.17691
  63       11PX         0.04539   0.00000   0.00000   0.00000   0.00000
  64       11PY         0.00000   0.00140  -0.00394   0.01917  -0.03531
  65       11PZ         0.00000   0.01541  -0.02324   0.01523  -0.01598
  66       12PX         0.66138   0.00000   0.00000   0.00000   0.00000
  67       12PY         0.00000  -3.61204   3.71761  -0.32544  -1.66237
  68       12PZ         0.00000  -2.31264   2.56747   1.59764  -1.30476
  69       13PX        -2.44928   0.00000   0.00000   0.00000   0.00000
  70       13PY         0.00000  -3.81298   0.40499   0.83314  -3.66458
  71       13PZ         0.00000  -0.92680   2.85934  -0.91775  -2.16779
  72       14D 0        0.00000  -0.00092  -0.00060   0.00115  -0.00098
  73       14D+1        0.00233   0.00000   0.00000   0.00000   0.00000
  74       14D-1        0.00000   0.00090  -0.00023  -0.00129   0.00115
  75       14D+2        0.00000  -0.00346  -0.00109   0.00222   0.00018
  76       14D-2        0.00099   0.00000   0.00000   0.00000   0.00000
  77       15D 0        0.00000   0.01502   0.00415  -0.01429   0.01338
  78       15D+1       -0.02796   0.00000   0.00000   0.00000   0.00000
  79       15D-1        0.00000   0.00166  -0.01503   0.00889  -0.01753
  80       15D+2        0.00000   0.03680   0.02479  -0.02354  -0.00104
  81       15D-2       -0.02122   0.00000   0.00000   0.00000   0.00000
  82       16D 0        0.00000  -0.09839  -0.00089   0.08674  -0.07529
  83       16D+1        0.11052   0.00000   0.00000   0.00000   0.00000
  84       16D-1        0.00000  -0.02504   0.30178  -0.04945   0.17057
  85       16D+2        0.00000  -0.19853  -0.27182   0.14251  -0.06027
  86       16D-2        0.09860   0.00000   0.00000   0.00000   0.00000
  87       17D 0        0.00000   0.16517   0.17135   0.32953   0.04012
  88       17D+1       -0.22485   0.00000   0.00000   0.00000   0.00000
  89       17D-1        0.00000  -1.40236   1.11033   0.29948  -0.74799
  90       17D+2        0.00000   1.75436  -0.51432   0.24519   0.34717
  91       17D-2       -0.02517   0.00000   0.00000   0.00000   0.00000
  92       18F 0        0.00000   0.00543   0.01940  -0.01474  -0.00435
  93       18F+1       -0.00880   0.00000   0.00000   0.00000   0.00000
  94       18F-1        0.00000   0.02804  -0.02472   0.00091   0.00701
  95       18F+2        0.00000  -0.04178   0.01302  -0.01440  -0.00836
  96       18F-2       -0.01251   0.00000   0.00000   0.00000   0.00000
  97       18F+3        0.05061   0.00000   0.00000   0.00000   0.00000
  98       18F-3        0.00000  -0.03981   0.01438  -0.01947  -0.01181
  99       19F 0        0.00000   0.02027  -0.10637   0.03069  -0.01042
 100       19F+1        0.00396   0.00000   0.00000   0.00000   0.00000
 101       19F-1        0.00000  -0.10963   0.13449   0.02686  -0.02972
 102       19F+2        0.00000   0.17701  -0.16452   0.05136   0.01675
 103       19F-2        0.01817   0.00000   0.00000   0.00000   0.00000
 104       19F+3       -0.11201   0.00000   0.00000   0.00000   0.00000
 105       19F-3        0.00000   0.16904  -0.10699   0.09858   0.02172
 106 3   Br 1S          0.00000  -0.00207   0.00005  -0.00006   0.00007
 107        2S          0.00000  -0.01600   0.00351  -0.00141   0.00053
 108        3S          0.00000  -0.07434   0.00876  -0.00427   0.00238
 109        4S          0.00000  -0.21947   0.05717  -0.01751   0.00838
 110        5S          0.00000  -0.08831   0.15612  -0.00265  -0.00274
 111        6S          0.00000   0.63509  -1.89523   0.86952   0.06017
 112        7S          0.00000   9.87351 -14.98353   2.12387 -13.47814
 113        8PX         0.00163   0.00000   0.00000   0.00000   0.00000
 114        8PY         0.00000   0.00100   0.00060  -0.00066   0.00039
 115        8PZ         0.00000  -0.00060   0.00001   0.00046   0.00005
 116        9PX        -0.02025   0.00000   0.00000   0.00000   0.00000
 117        9PY         0.00000   0.01672   0.00307   0.00851  -0.02561
 118        9PZ         0.00000  -0.00168  -0.01283  -0.00989   0.01483
 119       10PX        -0.15520   0.00000   0.00000   0.00000   0.00000
 120       10PY         0.00000   0.24841   0.06694   0.06594  -0.28122
 121       10PZ         0.00000  -0.05342  -0.14871  -0.09247   0.17691
 122       11PX         0.04539   0.00000   0.00000   0.00000   0.00000
 123       11PY         0.00000   0.00140  -0.00394  -0.01917   0.03531
 124       11PZ         0.00000  -0.01541   0.02324   0.01523  -0.01598
 125       12PX         0.66138   0.00000   0.00000   0.00000   0.00000
 126       12PY         0.00000  -3.61204   3.71761   0.32544   1.66237
 127       12PZ         0.00000   2.31264  -2.56747   1.59764  -1.30476
 128       13PX        -2.44928   0.00000   0.00000   0.00000   0.00000
 129       13PY         0.00000  -3.81298   0.40499  -0.83314   3.66458
 130       13PZ         0.00000   0.92680  -2.85934  -0.91775  -2.16779
 131       14D 0        0.00000   0.00092   0.00060   0.00115  -0.00098
 132       14D+1        0.00233   0.00000   0.00000   0.00000   0.00000
 133       14D-1        0.00000   0.00090  -0.00023   0.00129  -0.00115
 134       14D+2        0.00000   0.00346   0.00109   0.00222   0.00018
 135       14D-2       -0.00099   0.00000   0.00000   0.00000   0.00000
 136       15D 0        0.00000  -0.01502  -0.00415  -0.01429   0.01338
 137       15D+1       -0.02796   0.00000   0.00000   0.00000   0.00000
 138       15D-1        0.00000   0.00166  -0.01503  -0.00889   0.01753
 139       15D+2        0.00000  -0.03680  -0.02479  -0.02354  -0.00104
 140       15D-2        0.02122   0.00000   0.00000   0.00000   0.00000
 141       16D 0        0.00000   0.09839   0.00089   0.08674  -0.07529
 142       16D+1        0.11052   0.00000   0.00000   0.00000   0.00000
 143       16D-1        0.00000  -0.02504   0.30178   0.04945  -0.17057
 144       16D+2        0.00000   0.19853   0.27182   0.14251  -0.06027
 145       16D-2       -0.09860   0.00000   0.00000   0.00000   0.00000
 146       17D 0        0.00000  -0.16517  -0.17135   0.32953   0.04012
 147       17D+1       -0.22485   0.00000   0.00000   0.00000   0.00000
 148       17D-1        0.00000  -1.40236   1.11033  -0.29948   0.74799
 149       17D+2        0.00000  -1.75436   0.51432   0.24519   0.34717
 150       17D-2        0.02517   0.00000   0.00000   0.00000   0.00000
 151       18F 0        0.00000  -0.00543  -0.01940  -0.01474  -0.00435
 152       18F+1       -0.00880   0.00000   0.00000   0.00000   0.00000
 153       18F-1        0.00000   0.02804  -0.02472  -0.00091  -0.00701
 154       18F+2        0.00000   0.04178  -0.01302  -0.01440  -0.00836
 155       18F-2        0.01251   0.00000   0.00000   0.00000   0.00000
 156       18F+3        0.05061   0.00000   0.00000   0.00000   0.00000
 157       18F-3        0.00000  -0.03981   0.01438   0.01947   0.01181
 158       19F 0        0.00000  -0.02027   0.10637   0.03069  -0.01042
 159       19F+1        0.00396   0.00000   0.00000   0.00000   0.00000
 160       19F-1        0.00000  -0.10963   0.13449  -0.02686   0.02972
 161       19F+2        0.00000  -0.17701   0.16452   0.05136   0.01675
 162       19F-2       -0.01817   0.00000   0.00000   0.00000   0.00000
 163       19F+3       -0.11201   0.00000   0.00000   0.00000   0.00000
 164       19F-3        0.00000   0.16904  -0.10699  -0.09858  -0.02172
 165 4   O  1S          0.00000   0.00000   0.00000   0.10104   0.02750
 166        2S          0.00000   0.00000   0.00000   0.53102   0.14390
 167        3S          0.00000   0.00000   0.00000   0.00401  -0.00571
 168        4S          0.00000   0.00000   0.00000  -6.10437   0.05148
 169        5S          0.00000   0.00000   0.00000 -15.11860  -7.98367
 170        6PX         0.01991   0.00000   0.00000   0.00000   0.00000
 171        6PY         0.00000   0.01553   0.00312   0.00000   0.00000
 172        6PZ         0.00000   0.00000   0.00000  -0.00363   0.01205
 173        7PX        -0.03898   0.00000   0.00000   0.00000   0.00000
 174        7PY         0.00000  -0.08211   0.03408   0.00000   0.00000
 175        7PZ         0.00000   0.00000   0.00000   0.12420  -0.13568
 176        8PX         0.74816   0.00000   0.00000   0.00000   0.00000
 177        8PY         0.00000   0.99741   0.10779   0.00000   0.00000
 178        8PZ         0.00000   0.00000   0.00000   3.77829   0.64564
 179        9PX        -3.50839   0.00000   0.00000   0.00000   0.00000
 180        9PY         0.00000  -0.74537  -3.72266   0.00000   0.00000
 181        9PZ         0.00000   0.00000   0.00000   0.34519   1.70438
 182       10D 0        0.00000   0.00000   0.00000   0.05553   0.01175
 183       10D+1        0.03737   0.00000   0.00000   0.00000   0.00000
 184       10D-1        0.00000   0.00064   0.03796   0.00000   0.00000
 185       10D+2        0.00000   0.00000   0.00000  -0.02737  -0.01082
 186       10D-2        0.00000   0.00000   0.00000   0.00000   0.00000
 187       11D 0        0.00000   0.00000   0.00000  -0.39913  -0.02402
 188       11D+1       -0.23891   0.00000   0.00000   0.00000   0.00000
 189       11D-1        0.00000  -0.03170  -0.20734   0.00000   0.00000
 190       11D+2        0.00000   0.00000   0.00000   0.07840   0.03430
 191       11D-2        0.00000   0.00000   0.00000   0.00000   0.00000
 192       12D 0        0.00000   0.00000   0.00000  -0.51354  -0.18414
 193       12D+1       -0.06250   0.00000   0.00000   0.00000   0.00000
 194       12D-1        0.00000  -0.30116   0.17176   0.00000   0.00000
 195       12D+2        0.00000   0.00000   0.00000  -0.37237   0.05539
 196       12D-2        0.00000   0.00000   0.00000   0.00000   0.00000
 197       13F 0        0.00000   0.00000   0.00000   0.01730  -0.01359
 198       13F+1       -0.00605   0.00000   0.00000   0.00000   0.00000
 199       13F-1        0.00000  -0.01419  -0.00294   0.00000   0.00000
 200       13F+2        0.00000   0.00000   0.00000  -0.01324   0.01496
 201       13F-2        0.00000   0.00000   0.00000   0.00000   0.00000
 202       13F+3        0.01404   0.00000   0.00000   0.00000   0.00000
 203       13F-3        0.00000  -0.00992   0.01675   0.00000   0.00000
 204       14F 0        0.00000   0.00000   0.00000   0.14660   0.06221
 205       14F+1        0.16846   0.00000   0.00000   0.00000   0.00000
 206       14F-1        0.00000   0.07026   0.09564   0.00000   0.00000
 207       14F+2        0.00000   0.00000   0.00000   0.05789  -0.03850
 208       14F-2        0.00000   0.00000   0.00000   0.00000   0.00000
 209       14F+3       -0.02513   0.00000   0.00000   0.00000   0.00000
 210       14F-3        0.00000   0.02522  -0.02941   0.00000   0.00000
          Condensed to atoms (all electrons):
              1          2          3          4
     1  C    5.570449   0.023908   0.023908   0.233112
     2  Br   0.023908  35.040973  -0.117379  -0.054058
     3  Br   0.023908  -0.117379  35.040973  -0.054058
     4  O    0.233112  -0.054058  -0.054058   8.236737
 Mulliken atomic charges:
              1
     1  C    0.148622
     2  Br   0.106556
     3  Br   0.106556
     4  O   -0.361734
 Sum of Mulliken atomic charges =   0.00000
 Mulliken charges with hydrogens summed into heavy atoms:
              1
     1  C    0.148622
     2  Br   0.106556
     3  Br   0.106556
     4  O   -0.361734
 Sum of Mulliken charges with hydrogens summed into heavy atoms =   0.00000
 Electronic spatial extent (au):  <R**2>=           1355.9393
 Charge=              0.0000 electrons
 Dipole moment (field-independent basis, Debye):
    X=              0.0000    Y=              0.0000    Z=             -1.3020  Tot=              1.3020
 Quadrupole moment (field-independent basis, Debye-Ang):
   XX=            -46.9776   YY=            -44.8634   ZZ=            -47.4880
   XY=              0.0000   XZ=              0.0000   YZ=              0.0000
 Traceless Quadrupole moment (field-independent basis, Debye-Ang):
   XX=             -0.5346   YY=              1.5796   ZZ=             -1.0450
   XY=              0.0000   XZ=              0.0000   YZ=              0.0000
 Octapole moment (field-independent basis, Debye-Ang**2):
  XXX=              0.0000  YYY=              0.0000  ZZZ=            164.4352  XYY=              0.0000
  XXY=              0.0000  XXZ=             56.2167  XZZ=              0.0000  YZZ=              0.0000
  YYZ=             45.4764  XYZ=              0.0000
 Hexadecapole moment (field-independent basis, Debye-Ang**3):
 XXXX=            -53.6998 YYYY=           -570.3193 ZZZZ=           -597.1173 XXXY=              0.0000
 XXXZ=              0.0000 YYYX=              0.0000 YYYZ=              0.0000 ZZZX=              0.0000
 ZZZY=              0.0000 XXYY=           -111.2916 XXZZ=           -110.4459 YYZZ=           -174.8298
 XXYZ=              0.0000 YYXZ=              0.0000 ZZXY=              0.0000
 N-N= 4.487303597855D+02 E-N=-1.346915810561D+04  KE= 5.257184513628D+03
 1\1\GINC-TRAPISTA\SP\RQCISD-FC\Aug-CC-pVTZ\C1Br2O1\BRUNS\28-Nov-2021\0
 \\# qcisd/aug-cc-pvtz nosymm density=current output=wfn\\br2co-wavefun
 ction\\0,1\C,0,0.,0.,-0.491759\Br,0,0.,-1.594181,-1.54682\Br,0,0.,1.59
 4181,-1.54682\O,0,0.,0.,0.6945\\Version=EM64L-G09RevB.01\HF=-5257.6833
 553\MP2=-5258.5486862\MP3=-5258.5479905\MP4D=-5258.5694681\MP4DQ=-5258
 .5478863\MP4SDQ=-5258.560069\QCISD=-5258.5576054\RMSD=9.654e-09\Dipole
 =0.,0.,-0.5122374\Quadrupole=-0.3974807,1.1744003,-0.7769196,0.,0.,0.\
 PG=C02V [C2(C1O1),SGV(Br2)]\\@

 Writing a WFN file to GAUSSIAN.wfn.


  THE LARGE PRINT GIVETH,
  AND THE SMALL PRINT TAKETH AWAY.

                     -- TOM WAITES
 Job cpu time:  0 days  5 hours 27 minutes 11.5 seconds.
 File lengths (MBytes):  RWF=  23799 Int=      0 D2E=      0 Chk=      4 Scr=      1
 Normal termination of Gaussian 09 at Sun Nov 28 22:32:03 2021.
