 br2co-wavefunction
GAUSSIAN            210 MOL ORBITALS    578 PRIMITIVES        4 NUCLEI
  C    1    (CENTRE  1)   0.00000000  0.00000000 -0.92928983  CHARGE =  6.0
  Br   2    (CENTRE  2)   0.00000000 -3.01256550 -2.92306618  CHARGE = 35.0
  Br   3    (CENTRE  3)   0.00000000  3.01256550 -2.92306618  CHARGE = 35.0
  O    4    (CENTRE  4)   0.00000000  0.00000000  1.31241480  CHARGE =  8.0
CENTRE ASSIGNMENTS    1  1  1  1  1  1  1  1  1  1  1  1  1  1  1  1  1  1  1  1
CENTRE ASSIGNMENTS    1  1  1  1  1  1  1  1  1  1  1  1  1  1  1  1  1  1  1  1
CENTRE ASSIGNMENTS    1  1  1  1  1  1  1  1  1  1  1  1  1  1  1  1  1  1  1  1
CENTRE ASSIGNMENTS    1  1  1  1  1  1  1  1  1  1  1  1  2  2  2  2  2  2  2  2
CENTRE ASSIGNMENTS    2  2  2  2  2  2  2  2  2  2  2  2  2  2  2  2  2  2  2  2
CENTRE ASSIGNMENTS    2  2  2  2  2  2  2  2  2  2  2  2  2  2  2  2  2  2  2  2
CENTRE ASSIGNMENTS    2  2  2  2  2  2  2  2  2  2  2  2  2  2  2  2  2  2  2  2
CENTRE ASSIGNMENTS    2  2  2  2  2  2  2  2  2  2  2  2  2  2  2  2  2  2  2  2
CENTRE ASSIGNMENTS    2  2  2  2  2  2  2  2  2  2  2  2  2  2  2  2  2  2  2  2
CENTRE ASSIGNMENTS    2  2  2  2  2  2  2  2  2  2  2  2  2  2  2  2  2  2  2  2
CENTRE ASSIGNMENTS    2  2  2  2  2  2  2  2  2  2  2  2  2  2  2  2  2  2  2  2
CENTRE ASSIGNMENTS    2  2  2  2  2  2  2  2  2  2  2  2  2  2  2  2  2  2  2  2
CENTRE ASSIGNMENTS    2  2  2  2  2  2  2  2  2  2  2  2  2  2  2  2  2  2  2  2
CENTRE ASSIGNMENTS    2  2  2  2  2  2  2  2  2  2  2  2  2  2  2  2  2  2  2  2
CENTRE ASSIGNMENTS    2  2  2  2  2  2  2  2  2  3  3  3  3  3  3  3  3  3  3  3
CENTRE ASSIGNMENTS    3  3  3  3  3  3  3  3  3  3  3  3  3  3  3  3  3  3  3  3
CENTRE ASSIGNMENTS    3  3  3  3  3  3  3  3  3  3  3  3  3  3  3  3  3  3  3  3
CENTRE ASSIGNMENTS    3  3  3  3  3  3  3  3  3  3  3  3  3  3  3  3  3  3  3  3
CENTRE ASSIGNMENTS    3  3  3  3  3  3  3  3  3  3  3  3  3  3  3  3  3  3  3  3
CENTRE ASSIGNMENTS    3  3  3  3  3  3  3  3  3  3  3  3  3  3  3  3  3  3  3  3
CENTRE ASSIGNMENTS    3  3  3  3  3  3  3  3  3  3  3  3  3  3  3  3  3  3  3  3
CENTRE ASSIGNMENTS    3  3  3  3  3  3  3  3  3  3  3  3  3  3  3  3  3  3  3  3
CENTRE ASSIGNMENTS    3  3  3  3  3  3  3  3  3  3  3  3  3  3  3  3  3  3  3  3
CENTRE ASSIGNMENTS    3  3  3  3  3  3  3  3  3  3  3  3  3  3  3  3  3  3  3  3
CENTRE ASSIGNMENTS    3  3  3  3  3  3  3  3  3  3  3  3  3  3  3  3  3  3  3  3
CENTRE ASSIGNMENTS    3  3  3  3  3  3  4  4  4  4  4  4  4  4  4  4  4  4  4  4
CENTRE ASSIGNMENTS    4  4  4  4  4  4  4  4  4  4  4  4  4  4  4  4  4  4  4  4
CENTRE ASSIGNMENTS    4  4  4  4  4  4  4  4  4  4  4  4  4  4  4  4  4  4  4  4
CENTRE ASSIGNMENTS    4  4  4  4  4  4  4  4  4  4  4  4  4  4  4  4  4  4
TYPE ASSIGNMENTS      1  1  1  1  1  1  1  1  1  1  1  1  1  1  1  1  2  2  2  3
TYPE ASSIGNMENTS      3  3  4  4  4  2  3  4  2  3  4  2  3  4  5  6  7  8  9 10
TYPE ASSIGNMENTS      5  6  7  8  9 10  5  6  7  8  9 10 11 12 13 17 14 15 18 19
TYPE ASSIGNMENTS     16 20 11 12 13 17 14 15 18 19 16 20  1  1  1  1  1  1  1  1
TYPE ASSIGNMENTS      1  1  1  1  1  1  1  1  1  1  1  1  1  1  1  1  1  1  1  1
TYPE ASSIGNMENTS      1  1  1  1  1  1  1  1  1  1  1  1  1  1  1  1  1  1  1  1
TYPE ASSIGNMENTS      1  1  2  2  2  2  2  2  2  2  2  3  3  3  3  3  3  3  3  3
TYPE ASSIGNMENTS      4  4  4  4  4  4  4  4  4  2  2  2  2  2  2  2  2  2  3  3
TYPE ASSIGNMENTS      3  3  3  3  3  3  3  4  4  4  4  4  4  4  4  4  2  2  2  2
TYPE ASSIGNMENTS      2  2  2  2  3  3  3  3  3  3  3  3  4  4  4  4  4  4  4  4
TYPE ASSIGNMENTS      2  3  4  2  3  4  2  3  4  5  5  5  5  5  5  5  6  6  6  6
TYPE ASSIGNMENTS      6  6  6  7  7  7  7  7  7  7  8  8  8  8  8  8  8  9  9  9
TYPE ASSIGNMENTS      9  9  9  9 10 10 10 10 10 10 10  5  6  7  8  9 10  5  6  7
TYPE ASSIGNMENTS      8  9 10  5  6  7  8  9 10 11 12 13 17 14 15 18 19 16 20 11
TYPE ASSIGNMENTS     12 13 17 14 15 18 19 16 20  1  1  1  1  1  1  1  1  1  1  1
TYPE ASSIGNMENTS      1  1  1  1  1  1  1  1  1  1  1  1  1  1  1  1  1  1  1  1
TYPE ASSIGNMENTS      1  1  1  1  1  1  1  1  1  1  1  1  1  1  1  1  1  1  1  2
TYPE ASSIGNMENTS      2  2  2  2  2  2  2  2  3  3  3  3  3  3  3  3  3  4  4  4
TYPE ASSIGNMENTS      4  4  4  4  4  4  2  2  2  2  2  2  2  2  2  3  3  3  3  3
TYPE ASSIGNMENTS      3  3  3  3  4  4  4  4  4  4  4  4  4  2  2  2  2  2  2  2
TYPE ASSIGNMENTS      2  3  3  3  3  3  3  3  3  4  4  4  4  4  4  4  4  2  3  4
TYPE ASSIGNMENTS      2  3  4  2  3  4  5  5  5  5  5  5  5  6  6  6  6  6  6  6
TYPE ASSIGNMENTS      7  7  7  7  7  7  7  8  8  8  8  8  8  8  9  9  9  9  9  9
TYPE ASSIGNMENTS      9 10 10 10 10 10 10 10  5  6  7  8  9 10  5  6  7  8  9 10
TYPE ASSIGNMENTS      5  6  7  8  9 10 11 12 13 17 14 15 18 19 16 20 11 12 13 17
TYPE ASSIGNMENTS     14 15 18 19 16 20  1  1  1  1  1  1  1  1  1  1  1  1  1  1
TYPE ASSIGNMENTS      1  1  2  2  2  3  3  3  4  4  4  2  3  4  2  3  4  2  3  4
TYPE ASSIGNMENTS      5  6  7  8  9 10  5  6  7  8  9 10  5  6  7  8  9 10 11 12
TYPE ASSIGNMENTS     13 17 14 15 18 19 16 20 11 12 13 17 14 15 18 19 16 20
EXPONENTS  0.8236000D+04 0.1235000D+04 0.2808000D+03 0.7927000D+02 0.2559000D+02
EXPONENTS  0.8997000D+01 0.3319000D+01 0.2808000D+03 0.7927000D+02 0.2559000D+02
EXPONENTS  0.8997000D+01 0.3319000D+01 0.3643000D+00 0.9059000D+00 0.1285000D+00
EXPONENTS  0.4402000D-01 0.1871000D+02 0.4133000D+01 0.1200000D+01 0.1871000D+02
EXPONENTS  0.4133000D+01 0.1200000D+01 0.1871000D+02 0.4133000D+01 0.1200000D+01
EXPONENTS  0.3827000D+00 0.3827000D+00 0.3827000D+00 0.1209000D+00 0.1209000D+00
EXPONENTS  0.1209000D+00 0.3569000D-01 0.3569000D-01 0.3569000D-01 0.1097000D+01
EXPONENTS  0.1097000D+01 0.1097000D+01 0.1097000D+01 0.1097000D+01 0.1097000D+01
EXPONENTS  0.3180000D+00 0.3180000D+00 0.3180000D+00 0.3180000D+00 0.3180000D+00
EXPONENTS  0.3180000D+00 0.1000000D+00 0.1000000D+00 0.1000000D+00 0.1000000D+00
EXPONENTS  0.1000000D+00 0.1000000D+00 0.7610000D+00 0.7610000D+00 0.7610000D+00
EXPONENTS  0.7610000D+00 0.7610000D+00 0.7610000D+00 0.7610000D+00 0.7610000D+00
EXPONENTS  0.7610000D+00 0.7610000D+00 0.2680000D+00 0.2680000D+00 0.2680000D+00
EXPONENTS  0.2680000D+00 0.2680000D+00 0.2680000D+00 0.2680000D+00 0.2680000D+00
EXPONENTS  0.2680000D+00 0.2680000D+00 0.1063900D+08 0.1593400D+07 0.3626100D+06
EXPONENTS  0.1027000D+06 0.3350100D+05 0.1209300D+05 0.4715900D+04 0.1955600D+04
EXPONENTS  0.8526100D+03 0.3876700D+03 0.1826800D+03 0.8824500D+02 0.3926300D+02
EXPONENTS  0.9405700D+01 0.1899500D+01 0.3350100D+05 0.1209300D+05 0.4715900D+04
EXPONENTS  0.1955600D+04 0.8526100D+03 0.3876700D+03 0.1826800D+03 0.8824500D+02
EXPONENTS  0.3926300D+02 0.1923400D+02 0.9405700D+01 0.1899500D+01 0.4715900D+04
EXPONENTS  0.8526100D+03 0.3876700D+03 0.1826800D+03 0.8824500D+02 0.3926300D+02
EXPONENTS  0.1923400D+02 0.9405700D+01 0.4160100D+01 0.1899500D+01 0.4715900D+04
EXPONENTS  0.8526100D+03 0.3876700D+03 0.8824500D+02 0.3926300D+02 0.1923400D+02
EXPONENTS  0.9405700D+01 0.4160100D+01 0.1899500D+01 0.3011400D+00 0.6047200D+00
EXPONENTS  0.1251500D+00 0.4559300D-01 0.8676500D+04 0.2055900D+04 0.6662300D+03
EXPONENTS  0.2531000D+03 0.1061200D+03 0.4724200D+02 0.2182500D+02 0.9968400D+01
EXPONENTS  0.1998200D+01 0.8676500D+04 0.2055900D+04 0.6662300D+03 0.2531000D+03
EXPONENTS  0.1061200D+03 0.4724200D+02 0.2182500D+02 0.9968400D+01 0.1998200D+01
EXPONENTS  0.8676500D+04 0.2055900D+04 0.6662300D+03 0.2531000D+03 0.1061200D+03
EXPONENTS  0.4724200D+02 0.2182500D+02 0.9968400D+01 0.1998200D+01 0.8676500D+04
EXPONENTS  0.6662300D+03 0.2531000D+03 0.1061200D+03 0.4724200D+02 0.2182500D+02
EXPONENTS  0.9968400D+01 0.4517100D+01 0.1998200D+01 0.8676500D+04 0.6662300D+03
EXPONENTS  0.2531000D+03 0.1061200D+03 0.4724200D+02 0.2182500D+02 0.9968400D+01
EXPONENTS  0.4517100D+01 0.1998200D+01 0.8676500D+04 0.6662300D+03 0.2531000D+03
EXPONENTS  0.1061200D+03 0.4724200D+02 0.2182500D+02 0.9968400D+01 0.4517100D+01
EXPONENTS  0.1998200D+01 0.6662300D+03 0.1061200D+03 0.4724200D+02 0.2182500D+02
EXPONENTS  0.9968400D+01 0.4517100D+01 0.1998200D+01 0.2814500D+00 0.6662300D+03
EXPONENTS  0.1061200D+03 0.4724200D+02 0.2182500D+02 0.9968400D+01 0.4517100D+01
EXPONENTS  0.1998200D+01 0.2814500D+00 0.6662300D+03 0.1061200D+03 0.4724200D+02
EXPONENTS  0.2182500D+02 0.9968400D+01 0.4517100D+01 0.1998200D+01 0.2814500D+00
EXPONENTS  0.7098800D+00 0.7098800D+00 0.7098800D+00 0.1020400D+00 0.1020400D+00
EXPONENTS  0.1020400D+00 0.3514200D-01 0.3514200D-01 0.3514200D-01 0.4038300D+03
EXPONENTS  0.1211700D+03 0.4634500D+02 0.1972100D+02 0.8862400D+01 0.3996200D+01
EXPONENTS  0.1763600D+01 0.4038300D+03 0.1211700D+03 0.4634500D+02 0.1972100D+02
EXPONENTS  0.8862400D+01 0.3996200D+01 0.1763600D+01 0.4038300D+03 0.1211700D+03
EXPONENTS  0.4634500D+02 0.1972100D+02 0.8862400D+01 0.3996200D+01 0.1763600D+01
EXPONENTS  0.4038300D+03 0.1211700D+03 0.4634500D+02 0.1972100D+02 0.8862400D+01
EXPONENTS  0.3996200D+01 0.1763600D+01 0.4038300D+03 0.1211700D+03 0.4634500D+02
EXPONENTS  0.1972100D+02 0.8862400D+01 0.3996200D+01 0.1763600D+01 0.4038300D+03
EXPONENTS  0.1211700D+03 0.4634500D+02 0.1972100D+02 0.8862400D+01 0.3996200D+01
EXPONENTS  0.1763600D+01 0.7061900D+00 0.7061900D+00 0.7061900D+00 0.7061900D+00
EXPONENTS  0.7061900D+00 0.7061900D+00 0.2639000D+00 0.2639000D+00 0.2639000D+00
EXPONENTS  0.2639000D+00 0.2639000D+00 0.2639000D+00 0.1047000D+00 0.1047000D+00
EXPONENTS  0.1047000D+00 0.1047000D+00 0.1047000D+00 0.1047000D+00 0.5515000D+00
EXPONENTS  0.5515000D+00 0.5515000D+00 0.5515000D+00 0.5515000D+00 0.5515000D+00
EXPONENTS  0.5515000D+00 0.5515000D+00 0.5515000D+00 0.5515000D+00 0.2580000D+00
EXPONENTS  0.2580000D+00 0.2580000D+00 0.2580000D+00 0.2580000D+00 0.2580000D+00
EXPONENTS  0.2580000D+00 0.2580000D+00 0.2580000D+00 0.2580000D+00 0.1063900D+08
EXPONENTS  0.1593400D+07 0.3626100D+06 0.1027000D+06 0.3350100D+05 0.1209300D+05
EXPONENTS  0.4715900D+04 0.1955600D+04 0.8526100D+03 0.3876700D+03 0.1826800D+03
EXPONENTS  0.8824500D+02 0.3926300D+02 0.9405700D+01 0.1899500D+01 0.3350100D+05
EXPONENTS  0.1209300D+05 0.4715900D+04 0.1955600D+04 0.8526100D+03 0.3876700D+03
EXPONENTS  0.1826800D+03 0.8824500D+02 0.3926300D+02 0.1923400D+02 0.9405700D+01
EXPONENTS  0.1899500D+01 0.4715900D+04 0.8526100D+03 0.3876700D+03 0.1826800D+03
EXPONENTS  0.8824500D+02 0.3926300D+02 0.1923400D+02 0.9405700D+01 0.4160100D+01
EXPONENTS  0.1899500D+01 0.4715900D+04 0.8526100D+03 0.3876700D+03 0.8824500D+02
EXPONENTS  0.3926300D+02 0.1923400D+02 0.9405700D+01 0.4160100D+01 0.1899500D+01
EXPONENTS  0.3011400D+00 0.6047200D+00 0.1251500D+00 0.4559300D-01 0.8676500D+04
EXPONENTS  0.2055900D+04 0.6662300D+03 0.2531000D+03 0.1061200D+03 0.4724200D+02
EXPONENTS  0.2182500D+02 0.9968400D+01 0.1998200D+01 0.8676500D+04 0.2055900D+04
EXPONENTS  0.6662300D+03 0.2531000D+03 0.1061200D+03 0.4724200D+02 0.2182500D+02
EXPONENTS  0.9968400D+01 0.1998200D+01 0.8676500D+04 0.2055900D+04 0.6662300D+03
EXPONENTS  0.2531000D+03 0.1061200D+03 0.4724200D+02 0.2182500D+02 0.9968400D+01
EXPONENTS  0.1998200D+01 0.8676500D+04 0.6662300D+03 0.2531000D+03 0.1061200D+03
EXPONENTS  0.4724200D+02 0.2182500D+02 0.9968400D+01 0.4517100D+01 0.1998200D+01
EXPONENTS  0.8676500D+04 0.6662300D+03 0.2531000D+03 0.1061200D+03 0.4724200D+02
EXPONENTS  0.2182500D+02 0.9968400D+01 0.4517100D+01 0.1998200D+01 0.8676500D+04
EXPONENTS  0.6662300D+03 0.2531000D+03 0.1061200D+03 0.4724200D+02 0.2182500D+02
EXPONENTS  0.9968400D+01 0.4517100D+01 0.1998200D+01 0.6662300D+03 0.1061200D+03
EXPONENTS  0.4724200D+02 0.2182500D+02 0.9968400D+01 0.4517100D+01 0.1998200D+01
EXPONENTS  0.2814500D+00 0.6662300D+03 0.1061200D+03 0.4724200D+02 0.2182500D+02
EXPONENTS  0.9968400D+01 0.4517100D+01 0.1998200D+01 0.2814500D+00 0.6662300D+03
EXPONENTS  0.1061200D+03 0.4724200D+02 0.2182500D+02 0.9968400D+01 0.4517100D+01
EXPONENTS  0.1998200D+01 0.2814500D+00 0.7098800D+00 0.7098800D+00 0.7098800D+00
EXPONENTS  0.1020400D+00 0.1020400D+00 0.1020400D+00 0.3514200D-01 0.3514200D-01
EXPONENTS  0.3514200D-01 0.4038300D+03 0.1211700D+03 0.4634500D+02 0.1972100D+02
EXPONENTS  0.8862400D+01 0.3996200D+01 0.1763600D+01 0.4038300D+03 0.1211700D+03
EXPONENTS  0.4634500D+02 0.1972100D+02 0.8862400D+01 0.3996200D+01 0.1763600D+01
EXPONENTS  0.4038300D+03 0.1211700D+03 0.4634500D+02 0.1972100D+02 0.8862400D+01
EXPONENTS  0.3996200D+01 0.1763600D+01 0.4038300D+03 0.1211700D+03 0.4634500D+02
EXPONENTS  0.1972100D+02 0.8862400D+01 0.3996200D+01 0.1763600D+01 0.4038300D+03
EXPONENTS  0.1211700D+03 0.4634500D+02 0.1972100D+02 0.8862400D+01 0.3996200D+01
EXPONENTS  0.1763600D+01 0.4038300D+03 0.1211700D+03 0.4634500D+02 0.1972100D+02
EXPONENTS  0.8862400D+01 0.3996200D+01 0.1763600D+01 0.7061900D+00 0.7061900D+00
EXPONENTS  0.7061900D+00 0.7061900D+00 0.7061900D+00 0.7061900D+00 0.2639000D+00
EXPONENTS  0.2639000D+00 0.2639000D+00 0.2639000D+00 0.2639000D+00 0.2639000D+00
EXPONENTS  0.1047000D+00 0.1047000D+00 0.1047000D+00 0.1047000D+00 0.1047000D+00
EXPONENTS  0.1047000D+00 0.5515000D+00 0.5515000D+00 0.5515000D+00 0.5515000D+00
EXPONENTS  0.5515000D+00 0.5515000D+00 0.5515000D+00 0.5515000D+00 0.5515000D+00
EXPONENTS  0.5515000D+00 0.2580000D+00 0.2580000D+00 0.2580000D+00 0.2580000D+00
EXPONENTS  0.2580000D+00 0.2580000D+00 0.2580000D+00 0.2580000D+00 0.2580000D+00
EXPONENTS  0.2580000D+00 0.1533000D+05 0.2299000D+04 0.5224000D+03 0.1473000D+03
EXPONENTS  0.4755000D+02 0.1676000D+02 0.6207000D+01 0.5224000D+03 0.1473000D+03
EXPONENTS  0.4755000D+02 0.1676000D+02 0.6207000D+01 0.6882000D+00 0.1752000D+01
EXPONENTS  0.2384000D+00 0.7376000D-01 0.3446000D+02 0.7749000D+01 0.2280000D+01
EXPONENTS  0.3446000D+02 0.7749000D+01 0.2280000D+01 0.3446000D+02 0.7749000D+01
EXPONENTS  0.2280000D+01 0.7156000D+00 0.7156000D+00 0.7156000D+00 0.2140000D+00
EXPONENTS  0.2140000D+00 0.2140000D+00 0.5974000D-01 0.5974000D-01 0.5974000D-01
EXPONENTS  0.2314000D+01 0.2314000D+01 0.2314000D+01 0.2314000D+01 0.2314000D+01
EXPONENTS  0.2314000D+01 0.6450000D+00 0.6450000D+00 0.6450000D+00 0.6450000D+00
EXPONENTS  0.6450000D+00 0.6450000D+00 0.2140000D+00 0.2140000D+00 0.2140000D+00
EXPONENTS  0.2140000D+00 0.2140000D+00 0.2140000D+00 0.1428000D+01 0.1428000D+01
EXPONENTS  0.1428000D+01 0.1428000D+01 0.1428000D+01 0.1428000D+01 0.1428000D+01
EXPONENTS  0.1428000D+01 0.1428000D+01 0.1428000D+01 0.5000000D+00 0.5000000D+00
EXPONENTS  0.5000000D+00 0.5000000D+00 0.5000000D+00 0.5000000D+00 0.5000000D+00
EXPONENTS  0.5000000D+00 0.5000000D+00 0.5000000D+00
MO    1     MO 0.0        OCC NO =    2.0000166  ORB. ENERGY =    0.000000
  0.12346811D+00  0.23016944D+00  0.38901771D+00  0.58476618D+00  0.71828051D+00
  0.60620341D+00  0.22794831D+00  0.29349916D-04  0.21937244D-03  0.81984488D-03
  0.22872396D-02  0.30642704D-02 -0.36183320D-02  0.94503551D-02 -0.20037761D-02
 -0.31204176D-03 -0.12946791D-12 -0.12138439D-12 -0.86432920D-13 -0.69367590D-11
 -0.65036525D-11 -0.46309880D-11  0.36634198D-02  0.34346889D-02  0.24457031D-02
 -0.42520672D-13 -0.22624530D-11  0.19855800D-02 -0.12331005D-13 -0.42907931D-12
  0.38987164D-03 -0.65495932D-15  0.27725399D-13  0.51176764D-05 -0.94126403D-04
 -0.49253361D-03  0.58666002D-03  0.25545148D-14  0.32195429D-13  0.17037892D-11
  0.33710964D-03 -0.32296671D-03 -0.14142926D-04 -0.27476504D-15  0.23470409D-13
  0.83810124D-12  0.31085973D-04 -0.19229037D-04 -0.11856936D-04  0.13756501D-14
  0.23266071D-14  0.17651549D-12 -0.40498135D-14  0.48833576D-13  0.12068321D-03
  0.21138926D-15 -0.16025585D-12 -0.16291487D-03  0.11938051D-13  0.13755117D-13
 -0.19913478D-03  0.16564332D-14  0.21582002D-14 -0.56525987D-13 -0.14325055D-04
 -0.44880967D-14 -0.23968431D-14  0.18633359D-05 -0.19865039D-14  0.17197480D-12
  0.41111828D-04 -0.16425370D-14 -0.34694471D-01 -0.65265526D-01 -0.11297796D+00
 -0.18519257D+00 -0.29010698D+00 -0.43605440D+00 -0.62322425D+00 -0.82732883D+00
 -0.96348419D+00 -0.88484877D+00 -0.51725220D+00 -0.13572396D+00 -0.77166611D-02
 -0.13464744D-03 -0.13553796D-04 -0.16461665D-02 -0.47553957D-02 -0.21795096D-01
 -0.64518231D-01 -0.18710475D+00 -0.38891449D+00 -0.55634681D+00 -0.15952240D+00
  0.63747287D+00  0.61637459D+00  0.13453318D+00 -0.19473270D-02 -0.10067367D-02
 -0.46966347D-02 -0.95314717D-02 -0.37355495D-01 -0.26213235D-01  0.17071051D+00
  0.52897327D+00  0.64705277D-01 -0.46240291D+00 -0.21700567D+00 -0.10996372D-05
 -0.15075153D-05  0.28902715D-05  0.61427773D-05 -0.23221417D-04 -0.75092164D-04
 -0.26115912D-04  0.25544207D-03  0.56976823D-03 -0.37808086D-03 -0.90140055D-02
  0.54521489D-03  0.15562539D-03 -0.51768774D-08 -0.74280463D-08 -0.98354197D-08
 -0.11358198D-07 -0.10531191D-07 -0.68198582D-08 -0.24064498D-08 -0.27728043D-09
  0.45299103D-12  0.10023277D+02  0.14381907D+02  0.19042974D+02  0.21991320D+02
  0.20390101D+02  0.13204356D+02  0.46592785D+01  0.53686005D+00 -0.87706439D-03
  0.62467260D+01  0.89631194D+01  0.11867998D+02  0.13705472D+02  0.12707557D+02
  0.82292437D+01  0.29037644D+01  0.33458294D+00 -0.54660573D-03 -0.77628225D-11
  0.22133190D-10  0.10803495D-09  0.22386895D-09  0.28093344D-09  0.44550991D-10
 -0.36062522D-09 -0.31451748D-09 -0.80851397D-10 -0.59734225D-01  0.17031292D+00
  0.83131925D+00  0.17226516D+01  0.21617577D+01  0.34281589D+00 -0.27749788D+01
 -0.24201838D+01 -0.62214427D+00 -0.37307625D-01  0.10637069D+00  0.51920900D+00
  0.10758998D+01  0.13501480D+01  0.21410919D+00 -0.17331416D+01 -0.15115507D+01
 -0.38856661D+00  0.11884685D-13  0.16789957D-13 -0.78122793D-14  0.15655881D-13
  0.17186654D-13  0.46392165D-13  0.14619397D-13 -0.31388156D-13 -0.25909735D-03
 -0.36603690D-03  0.17031506D-03 -0.34131298D-03 -0.37468526D-03 -0.10113929D-02
 -0.31871664D-03  0.68429140D-03 -0.14309063D-03 -0.20214970D-03  0.94059197D-04
 -0.18849552D-03 -0.20692589D-03 -0.55855783D-03 -0.17601633D-03  0.37791080D-03
 -0.25913198D-11 -0.22035568D-01 -0.13881222D-01 -0.17991913D-13  0.12642044D-03
  0.60648412D-04  0.60186771D-15  0.88466573D-05  0.67050165D-05  0.10273449D+01
  0.10750057D+01  0.91596240D+00  0.60323049D+00  0.27801097D+00  0.83250836D-01
  0.14164424D-01 -0.12482521D+01 -0.13061614D+01 -0.11129194D+01 -0.73294156D+00
 -0.33779095D+00 -0.10115205D+00 -0.17210163D-01  0.22090728D+00  0.23115567D+00
  0.19695700D+00  0.12971107D+00  0.59779972D-01  0.17901209D-01  0.30457390D-02
 -0.30158969D-10 -0.31558111D-10 -0.26889200D-10 -0.17708571D-10 -0.81613531D-11
 -0.24439304D-11 -0.41581404D-12 -0.37104243D-10 -0.38825592D-10 -0.33081483D-10
 -0.21786657D-10 -0.10040822D-10 -0.30067403D-11 -0.51157137D-12 -0.37621391D+01
 -0.39366733D+01 -0.33542563D+01 -0.22090314D+01 -0.10180768D+01 -0.30486474D+00
 -0.51870151D-01  0.11407455D-02 -0.13772582D-02  0.23651271D-03 -0.45456684D-13
 -0.36810821D-13 -0.38156749D-02 -0.11637859D-03  0.11090164D-03  0.54769492D-05
  0.38874741D-14  0.21681916D-14  0.30498921D-03 -0.13643544D-04  0.15204131D-04
 -0.15605874D-05  0.14832238D-14  0.10378340D-14  0.28995037D-04  0.64642300D-14
 -0.39981637D-04  0.91909309D-04 -0.18128467D-13  0.20899482D-03  0.14568310D-03
 -0.12642229D-14 -0.89049906D-04 -0.42141103D-03 -0.33439704D-13 -0.13125975D-14
  0.97330434D-05 -0.20889578D-04  0.34868740D-14 -0.68838980D-04 -0.54644099D-04
  0.45091848D-15  0.39639850D-04  0.11731283D-03  0.62556370D-14 -0.34694472D-01
 -0.65265527D-01 -0.11297796D+00 -0.18519257D+00 -0.29010698D+00 -0.43605440D+00
 -0.62322425D+00 -0.82732884D+00 -0.96348420D+00 -0.88484877D+00 -0.51725221D+00
 -0.13572396D+00 -0.77166611D-02 -0.13464744D-03 -0.13553797D-04 -0.16461665D-02
 -0.47553957D-02 -0.21795096D-01 -0.64518231D-01 -0.18710475D+00 -0.38891450D+00
 -0.55634681D+00 -0.15952240D+00  0.63747287D+00  0.61637459D+00  0.13453318D+00
 -0.19473270D-02 -0.10067367D-02 -0.46966347D-02 -0.95314717D-02 -0.37355495D-01
 -0.26213236D-01  0.17071051D+00  0.52897327D+00  0.64705277D-01 -0.46240291D+00
 -0.21700567D+00 -0.10996372D-05 -0.15075153D-05  0.28902715D-05  0.61427773D-05
 -0.23221417D-04 -0.75092164D-04 -0.26115912D-04  0.25544207D-03  0.56976823D-03
 -0.37808086D-03 -0.90140055D-02  0.54521489D-03  0.15562539D-03  0.21801414D-08
  0.31281775D-08  0.41419960D-08  0.47832845D-08  0.44350068D-08  0.28720509D-08
  0.10134296D-08  0.11677127D-09 -0.19076838D-12 -0.10023278D+02 -0.14381907D+02
 -0.19042974D+02 -0.21991320D+02 -0.20390101D+02 -0.13204356D+02 -0.46592785D+01
 -0.53686006D+00  0.87706440D-03  0.62467260D+01  0.89631194D+01  0.11867998D+02
  0.13705472D+02  0.12707558D+02  0.82292437D+01  0.29037644D+01  0.33458294D+00
 -0.54660573D-03 -0.80285530D-11  0.22890835D-10  0.11173311D-09  0.23153225D-09
  0.29055012D-09  0.46076023D-10 -0.37296984D-09 -0.32528377D-09 -0.83619035D-10
  0.59734225D-01 -0.17031292D+00 -0.83131925D+00 -0.17226516D+01 -0.21617577D+01
 -0.34281589D+00  0.27749788D+01  0.24201838D+01  0.62214427D+00 -0.37307625D-01
  0.10637069D+00  0.51920900D+00  0.10758998D+01  0.13501480D+01  0.21410919D+00
 -0.17331416D+01 -0.15115507D+01 -0.38856661D+00  0.67924813D-14  0.95960024D-14
 -0.44649698D-14  0.89478416D-14  0.98227273D-14  0.26514620D-13  0.83554572D-14
 -0.17939344D-13  0.25909735D-03  0.36603690D-03 -0.17031506D-03  0.34131298D-03
  0.37468526D-03  0.10113930D-02  0.31871664D-03 -0.68429140D-03 -0.14309063D-03
 -0.20214970D-03  0.94059197D-04 -0.18849552D-03 -0.20692589D-03 -0.55855783D-03
 -0.17601633D-03  0.37791080D-03 -0.27729816D-11  0.22035568D-01 -0.13881222D-01
 -0.22502176D-13 -0.12642044D-03  0.60648411D-04  0.73030659D-15 -0.88466573D-05
  0.67050165D-05  0.10273449D+01  0.10750057D+01  0.91596241D+00  0.60323049D+00
  0.27801097D+00  0.83250836D-01  0.14164424D-01 -0.12482522D+01 -0.13061614D+01
 -0.11129194D+01 -0.73294157D+00 -0.33779095D+00 -0.10115205D+00 -0.17210163D-01
  0.22090728D+00  0.23115567D+00  0.19695700D+00  0.12971107D+00  0.59779972D-01
  0.17901209D-01  0.30457390D-02 -0.32344627D-10 -0.33845167D-10 -0.28837893D-10
 -0.18991933D-10 -0.87528165D-11 -0.26210451D-11 -0.44594860D-12  0.10466304D-09
  0.10951859D-09  0.93315700D-10  0.61455443D-10  0.28322984D-10  0.84813634D-11
  0.14430321D-11  0.37621392D+01  0.39366733D+01  0.33542563D+01  0.22090314D+01
  0.10180768D+01  0.30486474D+00  0.51870151D-01  0.11407455D-02 -0.13772582D-02
  0.23651271D-03 -0.45465278D-14  0.71341683D-13  0.38156749D-02 -0.11637859D-03
  0.11090164D-03  0.54769493D-05 -0.26434295D-14  0.28486961D-14 -0.30498921D-03
 -0.13643544D-04  0.15204131D-04 -0.15605874D-05 -0.78421493D-15  0.10977451D-15
 -0.28995037D-04  0.61017893D-14  0.39981637D-04  0.91909310D-04 -0.17586752D-13
 -0.20899482D-03  0.14568310D-03 -0.71861570D-15  0.89049906D-04 -0.42141103D-03
  0.31195173D-13 -0.10707408D-14 -0.97330434D-05 -0.20889578D-04  0.31155278D-14
  0.68838980D-04 -0.54644099D-04  0.96694578D-16 -0.39639850D-04  0.11731283D-03
 -0.50016167D-14 -0.34879941D-01 -0.65010475D-01 -0.11023440D+00 -0.16682804D+00
 -0.20810483D+00 -0.17858490D+00 -0.68388530D-01 -0.33939704D-05 -0.36415076D-04
 -0.13423283D-03 -0.39248891D-03 -0.47296822D-03  0.56974034D-03 -0.30884761D-02
  0.28973977D-03  0.68265895D-04  0.20141389D-12  0.19530372D-12  0.13175073D-12
  0.37361641D-11  0.36228224D-11  0.24439346D-11  0.26323854D-02  0.25525284D-02
  0.17219206D-02  0.45508060D-13  0.83227354D-12  0.59890448D-03  0.83557541D-14
 -0.20357865D-12  0.69200200D-04  0.61600021D-15 -0.49412488D-13  0.70025172D-05
  0.28669931D-03 -0.40989305D-04 -0.24571001D-03 -0.16400240D-13 -0.65023502D-14
  0.27270098D-12  0.36543256D-04  0.15278952D-03 -0.18933278D-03  0.23423521D-14
  0.11535232D-13  0.35097112D-12  0.17879244D-05  0.44640226D-04 -0.46428150D-04
 -0.99321379D-15  0.53180637D-15  0.11984378D-12  0.68548452D-14  0.52766690D-13
 -0.26097342D-03 -0.79474236D-14 -0.11512002D-12  0.38181743D-03 -0.12617112D-13
 -0.43180052D-13  0.40110284D-03 -0.87712110D-14  0.66503637D-16  0.10701115D-13
  0.78900468D-04  0.33567055D-14  0.63266665D-13 -0.39552697D-04 -0.35562164D-14
 -0.95370012D-13 -0.19714871D-03 -0.39028082D-15
MO    2     MO 0.0        OCC NO =    2.0000158  ORB. ENERGY =    0.000000
 -0.16293100D-09 -0.30373620D-09 -0.51335556D-09 -0.77166915D-09 -0.94785734D-09
 -0.79995815D-09 -0.30080516D-09 -0.35980102D-13 -0.26892897D-12 -0.10050490D-11
 -0.28039301D-11 -0.37564933D-11  0.44357182D-11 -0.12595272D-10  0.29322458D-11
  0.63008167D-12 -0.14358566D-12 -0.13462069D-12 -0.95857949D-13 -0.58691098D-02
 -0.55026635D-02 -0.39182242D-02 -0.42747027D-11 -0.40078055D-11 -0.28537963D-11
 -0.41696754D-13 -0.19850297D-02 -0.24503005D-11 -0.17914520D-13 -0.46031283D-03
 -0.51360026D-12  0.20271500D-15  0.16041627D-04 -0.18195117D-13  0.23052637D-12
  0.56258556D-12 -0.79311193D-12 -0.43093564D-13  0.36543676D-13  0.14501187D-02
 -0.44682456D-12  0.44276881D-12  0.40557451D-14 -0.44110986D-13  0.39868974D-13
  0.62198520D-03 -0.47451447D-13  0.44905199D-13  0.25462478D-14  0.13611570D-14
  0.59530200D-14  0.13377454D-03 -0.70402161D-14  0.56024801D-04 -0.15537839D-12
  0.53416457D-14 -0.14679575D-03  0.23016497D-12  0.15779003D-13 -0.21278654D-04
  0.23597021D-12 -0.59949129D-14  0.34983515D-14 -0.46104759D-04  0.20512924D-13
 -0.89539827D-14  0.10474252D-04  0.64841980D-14 -0.15410717D-14  0.12784003D-03
 -0.68022969D-13  0.12514346D-13  0.31049290D-01  0.58408391D-01  0.10110791D+00
  0.16573527D+00  0.25962683D+00  0.39024026D+00  0.55774507D+00  0.74040536D+00
  0.86225554D+00  0.79188195D+00  0.46290700D+00  0.12146410D+00  0.69059086D-02
  0.12050068D-03  0.12129764D-04  0.14729579D-02  0.42550358D-02  0.19501829D-01
  0.57729660D-01  0.16741770D+00  0.34799314D+00  0.49780832D+00  0.14273755D+00
 -0.57039835D+00 -0.55152002D+00 -0.12037767D+00  0.17424304D-02  0.89615051D-03
  0.41807275D-02  0.84844762D-02  0.33252138D-01  0.23333813D-01 -0.15195862D+00
 -0.47086759D+00 -0.57597651D-01  0.41160973D+00  0.19316843D+00  0.96692610D-06
  0.13255789D-05 -0.25414555D-05 -0.54014286D-05  0.20418911D-04  0.66029572D-04
  0.22964081D-04 -0.22461372D-03 -0.50100504D-03  0.33245170D-03  0.80477449D-02
 -0.40797605D-03  0.28101135D-04 -0.41735058D-08 -0.59883580D-08 -0.79291393D-08
 -0.91567758D-08 -0.84900579D-08 -0.54980476D-08 -0.19400367D-08 -0.22353852D-09
  0.36519326D-12 -0.11521213D+02 -0.16531220D+02 -0.21888863D+02 -0.25277827D+02
 -0.23437313D+02 -0.15177689D+02 -0.53555874D+01 -0.61709145D+00  0.10081378D-02
 -0.68765777D+01 -0.98668626D+01 -0.13064638D+02 -0.15087383D+02 -0.13988849D+02
 -0.90589909D+01 -0.31965483D+01 -0.36831863D+00  0.60171949D-03  0.40291308D-11
 -0.11487770D-10 -0.56073281D-10 -0.11619450D-09 -0.14581263D-09 -0.23123260D-10
  0.18717498D-09  0.16324372D-09  0.41964228D-10  0.69007796D-01 -0.19675352D+00
 -0.96037923D+00 -0.19900884D+01 -0.24973645D+01 -0.39603709D+00  0.32057865D+01
  0.27959106D+01  0.71873042D+00  0.41121691D-01 -0.11724527D+00 -0.57228922D+00
 -0.11858921D+01 -0.14881775D+01 -0.23599819D+00  0.19103256D+01  0.16660809D+01
  0.42829089D+00 -0.82555996D-14 -0.11663007D-13  0.54267360D-14 -0.10875230D-13
 -0.11938569D-13 -0.32225938D-13 -0.10155245D-13  0.21803526D-13  0.79920236D-04
  0.11290642D-03 -0.52534770D-04  0.10528017D-03  0.11557407D-03  0.31197063D-03
  0.98310188D-04 -0.21107406D-03  0.10604293D-03  0.14981097D-03 -0.69706261D-04
  0.13969201D-03  0.15335055D-03  0.41394121D-03  0.13044381D-03 -0.28006564D-03
  0.14778806D-11  0.25452974D-01  0.15236071D-01  0.28141787D-13  0.97279422D-04
  0.17095267D-04 -0.64499169D-15 -0.16957191D-05  0.12590520D-06 -0.11653662D+01
 -0.12194302D+01 -0.10390198D+01 -0.68427309D+00 -0.31536109D+00 -0.94435390D-01
 -0.16067381D-01  0.14183731D+01  0.14841746D+01  0.12645962D+01  0.83283221D+00
  0.38382757D+00  0.11493779D+00  0.19555690D-01 -0.25300686D+00 -0.26474441D+00
 -0.22557641D+00 -0.14855912D+00 -0.68466476D-01 -0.20502397D-01 -0.34883090D-02
 -0.58287053D-10 -0.60991121D-10 -0.51967699D-10 -0.34224659D-10 -0.15773126D-10
 -0.47232882D-11 -0.80362744D-12  0.62341004D-10  0.65233143D-10  0.55582130D-10
  0.36605034D-10  0.16870171D-10  0.50517999D-11  0.85952092D-12  0.42246836D+01
  0.44206761D+01  0.37666527D+01  0.24806256D+01  0.11432465D+01  0.34234700D+00
  0.58247440D-01 -0.11912156D-02  0.13765334D-02 -0.18531786D-03 -0.47934587D-13
  0.53386405D-13  0.40902429D-02  0.68739359D-04 -0.35222411D-04 -0.33516948D-04
 -0.24066762D-14  0.11537197D-14 -0.17591250D-03 -0.38975957D-05  0.29346934D-05
  0.96290231D-06  0.39223091D-14  0.18094567D-14 -0.19102840D-04 -0.59467964D-15
  0.39859896D-04 -0.11360168D-03  0.11883410D-14 -0.23444984D-03 -0.14306031D-03
  0.59569794D-15  0.11487015D-03  0.48386536D-03  0.95456463D-14 -0.64142349D-15
  0.31353404D-05  0.20702029D-04  0.16833170D-14  0.40818324D-04  0.31388447D-04
  0.24095349D-15 -0.50224345D-04 -0.93494535D-04  0.15277334D-14 -0.31049290D-01
 -0.58408391D-01 -0.10110791D+00 -0.16573527D+00 -0.25962683D+00 -0.39024025D+00
 -0.55774507D+00 -0.74040536D+00 -0.86225553D+00 -0.79188195D+00 -0.46290700D+00
 -0.12146410D+00 -0.69059086D-02 -0.12050068D-03 -0.12129764D-04 -0.14729579D-02
 -0.42550358D-02 -0.19501829D-01 -0.57729660D-01 -0.16741770D+00 -0.34799314D+00
 -0.49780832D+00 -0.14273755D+00  0.57039835D+00  0.55152002D+00  0.12037767D+00
 -0.17424304D-02 -0.89615051D-03 -0.41807275D-02 -0.84844762D-02 -0.33252138D-01
 -0.23333812D-01  0.15195862D+00  0.47086759D+00  0.57597651D-01 -0.41160973D+00
 -0.19316843D+00 -0.96692610D-06 -0.13255789D-05  0.25414555D-05  0.54014285D-05
 -0.20418911D-04 -0.66029572D-04 -0.22964081D-04  0.22461372D-03  0.50100504D-03
 -0.33245170D-03 -0.80477449D-02  0.40797605D-03 -0.28101136D-04  0.88488467D-08
  0.12696774D-07  0.16811702D-07  0.19414590D-07  0.18000986D-07  0.11657197D-07
  0.41133493D-08  0.47395598D-09 -0.77429846D-12 -0.11521213D+02 -0.16531220D+02
 -0.21888863D+02 -0.25277827D+02 -0.23437313D+02 -0.15177689D+02 -0.53555874D+01
 -0.61709144D+00  0.10081378D-02  0.68765777D+01  0.98668626D+01  0.13064638D+02
  0.15087383D+02  0.13988849D+02  0.90589908D+01  0.31965483D+01  0.36831863D+00
 -0.60171949D-03 -0.24431717D-10  0.69659178D-10  0.34001540D-09  0.70457657D-09