 Entering Gaussian System, Link 0=/home/bruns/programas/chemistry/gaussian/g09/g09
 Input=GAUSSIAN.com
 Output=GAUSSIAN.log
 Initial command:
 /home/bruns/programas/chemistry/gaussian/g09/l1.exe /home/bruns/programas/chemistry/gaussian/work/Gau-80442.inp -scrdir=/home/bruns/programas/chemistry/gaussian/work/
 Entering Link 1 = /home/bruns/programas/chemistry/gaussian/g09/l1.exe PID=     80444.
  
 Copyright (c) 1988,1990,1992,1993,1995,1998,2003,2009,2010,
            Gaussian, Inc.  All Rights Reserved.
  
 This is part of the Gaussian(R) 09 program.  It is based on
 the Gaussian(R) 03 system (copyright 2003, Gaussian, Inc.),
 the Gaussian(R) 98 system (copyright 1998, Gaussian, Inc.),
 the Gaussian(R) 94 system (copyright 1995, Gaussian, Inc.),
 the Gaussian 92(TM) system (copyright 1992, Gaussian, Inc.),
 the Gaussian 90(TM) system (copyright 1990, Gaussian, Inc.),
 the Gaussian 88(TM) system (copyright 1988, Gaussian, Inc.),
 the Gaussian 86(TM) system (copyright 1986, Carnegie Mellon
 University), and the Gaussian 82(TM) system (copyright 1983,
 Carnegie Mellon University). Gaussian is a federally registered
 trademark of Gaussian, Inc.
  
 This software contains proprietary and confidential information,
 including trade secrets, belonging to Gaussian, Inc.
  
 This software is provided under written license and may be
 used, copied, transmitted, or stored only in accord with that
 written license.
  
 The following legend is applicable only to US Government
 contracts under FAR:
  
                    RESTRICTED RIGHTS LEGEND
  
 Use, reproduction and disclosure by the US Government is
 subject to restrictions as set forth in subparagraphs (a)
 and (c) of the Commercial Computer Software - Restricted
 Rights clause in FAR 52.227-19.
  
 Gaussian, Inc.
 340 Quinnipiac St., Bldg. 40, Wallingford CT 06492
  
  
 ---------------------------------------------------------------
 Warning -- This program may not be used in any manner that
 competes with the business of Gaussian, Inc. or will provide
 assistance to any competitor of Gaussian, Inc.  The licensee
 of this program is prohibited from giving any competitor of
 Gaussian, Inc. access to this program.  By using this program,
 the user acknowledges that Gaussian, Inc. is engaged in the
 business of creating and licensing software in the field of
 computational chemistry and represents and warrants to the
 licensee that it is not a competitor of Gaussian, Inc. and that
 it will not use this program in any manner prohibited above.
 ---------------------------------------------------------------
  

 Cite this work as:
 Gaussian 09, Revision B.01,
 M. J. Frisch, G. W. Trucks, H. B. Schlegel, G. E. Scuseria, 
 M. A. Robb, J. R. Cheeseman, G. Scalmani, V. Barone, B. Mennucci, 
 G. A. Petersson, H. Nakatsuji, M. Caricato, X. Li, H. P. Hratchian, 
 A. F. Izmaylov, J. Bloino, G. Zheng, J. L. Sonnenberg, M. Hada, 
 M. Ehara, K. Toyota, R. Fukuda, J. Hasegawa, M. Ishida, T. Nakajima, 
 Y. Honda, O. Kitao, H. Nakai, T. Vreven, J. A. Montgomery, Jr., 
 J. E. Peralta, F. Ogliaro, M. Bearpark, J. J. Heyd, E. Brothers, 
 K. N. Kudin, V. N. Staroverov, T. Keith, R. Kobayashi, J. Normand, 
 K. Raghavachari, A. Rendell, J. C. Burant, S. S. Iyengar, J. Tomasi, 
 M. Cossi, N. Rega, J. M. Millam, M. Klene, J. E. Knox, J. B. Cross, 
 V. Bakken, C. Adamo, J. Jaramillo, R. Gomperts, R. E. Stratmann, 
 O. Yazyev, A. J. Austin, R. Cammi, C. Pomelli, J. W. Ochterski, 
 R. L. Martin, K. Morokuma, V. G. Zakrzewski, G. A. Voth, 
 P. Salvador, J. J. Dannenberg, S. Dapprich, A. D. Daniels, 
 O. Farkas, J. B. Foresman, J. V. Ortiz, J. Cioslowski, 
 and D. J. Fox, Gaussian, Inc., Wallingford CT, 2010.
 
 ******************************************
 Gaussian 09:  EM64L-G09RevB.01 12-Aug-2010
                28-Nov-2021 
 ******************************************
 %nproc=8
 Will use up to    8 processors via shared memory.
 %mem=8GB
 -----------------------------------------------------
 # qcisd/aug-cc-pvtz nosymm density=current output=wfn
 -----------------------------------------------------
 1/30=1,38=1/1;
 2/12=2,15=1,17=6,18=5,40=1/2;
 3/5=16,6=1,7=10,11=9,16=1,25=1,30=1,71=1/1,2,3;
 4//1;
 5/5=2,38=5/2;
 8/6=4,9=120000,10=1/1,4;
 9/5=8,15=1/13;
 11/28=-7,31=1,32=3,42=3/11;
 10/5=6,13=10,31=1/2;
 6/7=2,8=2,9=2,10=2,22=-1,31=1/1;
 99/5=1,6=1100,9=1/99;
 ------------------
 br2co-wavefunction
 ------------------
 Symbolic Z-matrix:
 Charge =  0 Multiplicity = 1
 C                     0.        0.       -0.49176 
 Br                    0.       -1.59418  -1.54682 
 Br                    0.        1.59418  -1.54682 
 O                     0.01      0.        0.6845 
 
                          Input orientation:                          
 ---------------------------------------------------------------------
 Center     Atomic      Atomic             Coordinates (Angstroms)
 Number     Number       Type             X           Y           Z
 ---------------------------------------------------------------------
      1          6           0        0.000000    0.000000   -0.491759
      2         35           0        0.000000   -1.594181   -1.546820
      3         35           0        0.000000    1.594181   -1.546820
      4          8           0        0.010000    0.000000    0.684500
 ---------------------------------------------------------------------
                    Distance matrix (angstroms):
                    1          2          3          4
     1  C    0.000000
     2  Br   1.911692   0.000000
     3  Br   1.911692   3.188362   0.000000
     4  O    1.176302   2.742317   2.742317   0.000000
 Symmetry turned off by external request.
 Stoichiometry    CBr2O
 Framework group  CS[SG(CO),X(Br2)]
 Deg. of freedom     4
 Full point group                 CS      NOp   2
 Rotational constants (GHZ):      6.2846706      1.2598933      1.0495003
 Standard basis: Aug-CC-pVTZ (5D, 7F)
 Integral buffers will be    131072 words long.
 Raffenetti 1 integral format.
 Two-electron integral symmetry is turned off.
   210 basis functions,   578 primitive gaussians,   248 cartesian basis functions
    42 alpha electrons       42 beta electrons
       nuclear repulsion energy       449.2308221162 Hartrees.
 NAtoms=    4 NActive=    4 NUniq=    4 SFac= 1.00D+00 NAtFMM=   50 NAOKFM=F Big=F
 One-electron integrals computed using PRISM.
 NBasis=   210 RedAO= T  NBF=   210
 NBsUse=   210 1.00D-06 NBFU=   210
 Harris functional with IExCor=  205 diagonalized for initial guess.
 ExpMin= 3.51D-02 ExpMax= 1.06D+07 ExpMxC= 1.21D+04 IAcc=3 IRadAn=         0 AccDes= 0.00D+00
 HarFok:  IExCor=  205 AccDes= 0.00D+00 IRadAn=         0 IDoV= 1
 ScaDFX=  1.000000  1.000000  1.000000  1.000000
 FoFCou: FMM=F IPFlag=           0 FMFlag=      100000 FMFlg1=           0
         NFxFlg=           0 DoJE=T BraDBF=F KetDBF=T FulRan=T
         Omega=  0.000000  0.000000  1.000000  0.000000  0.000000 ICntrl=     500 IOpCl=  0
         NMat0=    1 NMatS0=    1 NMatT0=    0 NMatD0=    1 NMtDS0=    0 NMtDT0=    0
         I1Cent=           4 NGrid=           0.
 Symmetry not used in FoFCou.
 Requested convergence on RMS density matrix=1.00D-08 within 128 cycles.
 Requested convergence on MAX density matrix=1.00D-06.
 Requested convergence on             energy=1.00D-06.
 No special actions if energy rises.
 Keep R1 ints in memory in canonical form, NReq=484604278.
 SCF Done:  E(RHF) =  -5257.68454019     A.U. after   12 cycles
             Convg  =    0.9215D-08             -V/T =  2.0000
 ExpMin= 3.51D-02 ExpMax= 1.06D+07 ExpMxC= 1.21D+04 IAcc=3 IRadAn=         5 AccDes= 0.00D+00
 HarFok:  IExCor=  205 AccDes= 0.00D+00 IRadAn=         5 IDoV=-2
 ScaDFX=  1.000000  1.000000  1.000000  1.000000
 DSYEVD returned Info=          89 IAlg= 4 N=    59 NDim=    59 NE2=    18196533 trying DSYEV.
 DSYEVD returned Info=          93 IAlg= 4 N=    46 NDim=    46 NE2=    18196533 trying DSYEV.
 Range of M.O.s used for correlation:    21   210
 NBasis=   210 NAE=    42 NBE=    42 NFC=    20 NFV=     0
 NROrb=    190 NOA=    22 NOB=    22 NVA=   168 NVB=   168

 **** Warning!!: The largest alpha MO coefficient is  0.28106344D+02

 Semi-Direct transformation.
 ModeAB=           2 MOrb=            22 LenV=    1072497277
 LASXX=     69628944 LTotXX=    69628944 LenRXX=    69628944
 LTotAB=    70719517 MaxLAS=   129061680 LenRXY=   129061680
 NonZer=   139257888 LenScr=   209707008 LnRSAI=           0
 LnScr1=           0 LExtra=           0 Total=    408397632
 MaxDsk=          -1 SrtSym=           F ITran=            4
 JobTyp=0 Pass  1:  I=   1 to  22.
 (rs|ai) integrals will be sorted in core.
 Spin components of T(2) and E(2):
     alpha-alpha T2 =       0.3832268820D-01 E2=     -0.1232786291D+00
     alpha-beta  T2 =       0.1924963989D+00 E2=     -0.6175096835D+00
     beta-beta   T2 =       0.3832268820D-01 E2=     -0.1232786291D+00
 ANorm=    0.1126561927D+01
 E2 =    -0.8640669417D+00 EUMP2 =    -0.52585486071344D+04
 R2 and R3 integrals will be kept in memory, NReq=   961077252.
 Iterations=  50 Convergence= 0.100D-07
 Iteration Nr.   1
 **********************
 DD1Dir will call FoFMem   1 times, MxPair=       506
 NAB=   253 NAA=     0 NBB=     0.
 MP4(R+Q)=  0.21479635D-01
 E3=        0.14172797D-03        EUMP3=      -0.52585484654D+04
 E4(DQ)=    0.26871668D-03        UMP4(DQ)=   -0.52585481967D+04
 E4(SDQ)=  -0.11698952D-01        UMP4(SDQ)=  -0.52585601644D+04
 DE(Corr)= -0.84244558     E(Corr)=     -5258.5269858    
 NORM(A)=   0.11248499D+01
 Iteration Nr.   2
 **********************
 DD1Dir will call FoFMem   1 times, MxPair=       506
 NAB=   253 NAA=     0 NBB=     0.
 DE(Corr)= -0.87234337     E(CORR)=     -5258.5568836     Delta=-2.99D-02
 NORM(A)=   0.11352500D+01
 Iteration Nr.   3
 **********************
 DD1Dir will call FoFMem   1 times, MxPair=       506
 NAB=   253 NAA=     0 NBB=     0.
 DE(Corr)= -0.87023885     E(CORR)=     -5258.5547790     Delta= 2.10D-03
 NORM(A)=   0.11380123D+01
 Iteration Nr.   4
 **********************
 DD1Dir will call FoFMem   1 times, MxPair=       506
 NAB=   253 NAA=     0 NBB=     0.
 DE(Corr)= -0.87276947     E(CORR)=     -5258.5573097     Delta=-2.53D-03
 NORM(A)=   0.11393252D+01
 Iteration Nr.   5
 **********************
 DD1Dir will call FoFMem   1 times, MxPair=       506
 NAB=   253 NAA=     0 NBB=     0.
 DE(Corr)= -0.87314396     E(CORR)=     -5258.5576842     Delta=-3.74D-04
 NORM(A)=   0.11398402D+01
 Iteration Nr.   6
 **********************
 DD1Dir will call FoFMem   1 times, MxPair=       506
 NAB=   253 NAA=     0 NBB=     0.
 DE(Corr)= -0.87320824     E(CORR)=     -5258.5577484     Delta=-6.43D-05
 NORM(A)=   0.11399442D+01
 Iteration Nr.   7
 **********************
 DD1Dir will call FoFMem   1 times, MxPair=       506
 NAB=   253 NAA=     0 NBB=     0.
 DE(Corr)= -0.87322255     E(CORR)=     -5258.5577627     Delta=-1.43D-05
 NORM(A)=   0.11399530D+01
 Iteration Nr.   8
 **********************
 DD1Dir will call FoFMem   1 times, MxPair=       506
 NAB=   253 NAA=     0 NBB=     0.
 DE(Corr)= -0.87322288     E(CORR)=     -5258.5577631     Delta=-3.37D-07
 NORM(A)=   0.11399681D+01
 Iteration Nr.   9
 **********************
 DD1Dir will call FoFMem   1 times, MxPair=       506
 NAB=   253 NAA=     0 NBB=     0.
 DE(Corr)= -0.87322096     E(CORR)=     -5258.5577612     Delta= 1.93D-06
 NORM(A)=   0.11399680D+01
 Iteration Nr.  10
 **********************
 DD1Dir will call FoFMem   1 times, MxPair=       506
 NAB=   253 NAA=     0 NBB=     0.
 DE(Corr)= -0.87322237     E(CORR)=     -5258.5577626     Delta=-1.41D-06
 NORM(A)=   0.11399708D+01
 Iteration Nr.  11
 **********************
 DD1Dir will call FoFMem   1 times, MxPair=       506
 NAB=   253 NAA=     0 NBB=     0.
 DE(Corr)= -0.87322350     E(CORR)=     -5258.5577637     Delta=-1.13D-06
 NORM(A)=   0.11399726D+01
 Iteration Nr.  12
 **********************
 DD1Dir will call FoFMem   1 times, MxPair=       506
 NAB=   253 NAA=     0 NBB=     0.
 DE(Corr)= -0.87322382     E(CORR)=     -5258.5577640     Delta=-3.16D-07
 NORM(A)=   0.11399736D+01
 Iteration Nr.  13
 **********************
 DD1Dir will call FoFMem   1 times, MxPair=       506
 NAB=   253 NAA=     0 NBB=     0.
 DE(Corr)= -0.87322428     E(CORR)=     -5258.5577645     Delta=-4.67D-07
 NORM(A)=   0.11399743D+01
 Iteration Nr.  14
 **********************
 DD1Dir will call FoFMem   1 times, MxPair=       506
 NAB=   253 NAA=     0 NBB=     0.
 DE(Corr)= -0.87322439     E(CORR)=     -5258.5577646     Delta=-1.10D-07
 NORM(A)=   0.11399746D+01
 Iteration Nr.  15
 **********************
 DD1Dir will call FoFMem   1 times, MxPair=       506
 NAB=   253 NAA=     0 NBB=     0.
 DE(Corr)= -0.87322446     E(CORR)=     -5258.5577647     Delta=-6.96D-08
 NORM(A)=   0.11399748D+01
 Iteration Nr.  16
 **********************
 DD1Dir will call FoFMem   1 times, MxPair=       506
 NAB=   253 NAA=     0 NBB=     0.
 DE(Corr)= -0.87322449     E(CORR)=     -5258.5577647     Delta=-2.87D-08
 NORM(A)=   0.11399749D+01
 Iteration Nr.  17
 **********************
 DD1Dir will call FoFMem   1 times, MxPair=       506
 NAB=   253 NAA=     0 NBB=     0.
 DE(Corr)= -0.87322449     E(CORR)=     -5258.5577647     Delta= 4.65D-09
 NORM(A)=   0.11399749D+01
 Iteration Nr.  18
 **********************
 DD1Dir will call FoFMem   1 times, MxPair=       506
 NAB=   253 NAA=     0 NBB=     0.
 DE(Corr)= -0.87322448     E(CORR)=     -5258.5577647     Delta= 2.99D-09
 NORM(A)=   0.11399749D+01
 Iteration Nr.  19
 **********************
 DD1Dir will call FoFMem   1 times, MxPair=       506
 NAB=   253 NAA=     0 NBB=     0.
 DE(Corr)= -0.87322450     E(CORR)=     -5258.5577647     Delta=-1.49D-08
 NORM(A)=   0.11399749D+01
 Iteration Nr.  20
 **********************
 DD1Dir will call FoFMem   1 times, MxPair=       506
 NAB=   253 NAA=     0 NBB=     0.
 DE(Corr)= -0.87322450     E(CORR)=     -5258.5577647     Delta=-1.96D-09
 NORM(A)=   0.11399749D+01
 Iteration Nr.  21
 **********************
 DD1Dir will call FoFMem   1 times, MxPair=       506
 NAB=   253 NAA=     0 NBB=     0.
 DE(Corr)= -0.87322450     E(CORR)=     -5258.5577647     Delta=-1.13D-09
 NORM(A)=   0.11399749D+01
 Iteration Nr.  22
 **********************
 DD1Dir will call FoFMem   1 times, MxPair=       506
 NAB=   253 NAA=     0 NBB=     0.
 DE(Corr)= -0.87322449     E(CORR)=     -5258.5577647     Delta= 9.17D-09
 NORM(A)=   0.11399749D+01
 Iteration Nr.  23
 **********************
 DD1Dir will call FoFMem   1 times, MxPair=       506
 NAB=   253 NAA=     0 NBB=     0.
 DE(Corr)= -0.87322450     E(CORR)=     -5258.5577647     Delta=-5.75D-09
 NORM(A)=   0.11399749D+01
 Iteration Nr.  24
 **********************
 DD1Dir will call FoFMem   1 times, MxPair=       506
 NAB=   253 NAA=     0 NBB=     0.
 DE(Corr)= -0.87322450     E(CORR)=     -5258.5577647     Delta= 1.38D-09
 NORM(A)=   0.11399749D+01
 Iteration Nr.  25
 **********************
 DD1Dir will call FoFMem   1 times, MxPair=       506
 NAB=   253 NAA=     0 NBB=     0.
 DE(Corr)= -0.87322450     E(CORR)=     -5258.5577647     Delta= 2.67D-10
 NORM(A)=   0.11399749D+01
 Largest amplitude= 4.23D-02

 Z-AMPLITUDE ITERATIONS

 Iteration Nr.   1
 **********************
 DD1Dir will call FoFMem   1 times, MxPair=       506
 NAB=   253 NAA=     0 NBB=     0.
 DE(Z)  -0.84604918D+00          E(Z)=    -0.52585305894D+04
 NORM(A)=   0.11398717D+01
 Iteration Nr.   2
 **********************
 DD1Dir will call FoFMem   1 times, MxPair=       506
 NAB=   253 NAA=     0 NBB=     0.
 DE(Z)  -0.84604901D+00          E(Z)=    -0.52585305892D+04
 NORM(A)=   0.11398629D+01
 Iteration Nr.   3
 **********************
 DD1Dir will call FoFMem   1 times, MxPair=       506
 NAB=   253 NAA=     0 NBB=     0.
 DE(Z)  -0.84604903D+00          E(Z)=    -0.52585305892D+04
 NORM(A)=   0.11397313D+01
 Iteration Nr.   4
 **********************
 DD1Dir will call FoFMem   1 times, MxPair=       506
 NAB=   253 NAA=     0 NBB=     0.
 DE(Z)  -0.84604892D+00          E(Z)=    -0.52585305891D+04
 NORM(A)=   0.11394640D+01
 Iteration Nr.   5
 **********************
 DD1Dir will call FoFMem   1 times, MxPair=       506
 NAB=   253 NAA=     0 NBB=     0.
 DE(Z)  -0.84604716D+00          E(Z)=    -0.52585305874D+04
 NORM(A)=   0.11301205D+01
 Iteration Nr.   6
 **********************
 DD1Dir will call FoFMem   1 times, MxPair=       506
 NAB=   253 NAA=     0 NBB=     0.
 DE(Z)  -0.84601917D+00          E(Z)=    -0.52585305594D+04
 NORM(A)=   0.11301223D+01
 Iteration Nr.   7
 **********************
 DD1Dir will call FoFMem   1 times, MxPair=       506
 NAB=   253 NAA=     0 NBB=     0.
 DE(Z)  -0.84601706D+00          E(Z)=    -0.52585305573D+04
 NORM(A)=   0.11301224D+01
 Iteration Nr.   8
 **********************
 DD1Dir will call FoFMem   1 times, MxPair=       506
 NAB=   253 NAA=     0 NBB=     0.
 DE(Z)  -0.84601771D+00          E(Z)=    -0.52585305579D+04
 NORM(A)=   0.11301221D+01
 Iteration Nr.   9
 **********************
 DD1Dir will call FoFMem   1 times, MxPair=       506
 NAB=   253 NAA=     0 NBB=     0.
 DE(Z)  -0.84601723D+00          E(Z)=    -0.52585305574D+04
 NORM(A)=   0.11301220D+01
 Iteration Nr.  10
 **********************
 DD1Dir will call FoFMem   1 times, MxPair=       506
 NAB=   253 NAA=     0 NBB=     0.
 DE(Z)  -0.84601701D+00          E(Z)=    -0.52585305572D+04
 NORM(A)=   0.11301220D+01
 Iteration Nr.  11
 **********************
 DD1Dir will call FoFMem   1 times, MxPair=       506
 NAB=   253 NAA=     0 NBB=     0.
 DE(Z)  -0.84601709D+00          E(Z)=    -0.52585305573D+04
 NORM(A)=   0.11301220D+01
 Iteration Nr.  12
 **********************
 DD1Dir will call FoFMem   1 times, MxPair=       506
 NAB=   253 NAA=     0 NBB=     0.
 DE(Z)  -0.84601708D+00          E(Z)=    -0.52585305573D+04
 NORM(A)=   0.11301221D+01
 Iteration Nr.  13
 **********************
 DD1Dir will call FoFMem   1 times, MxPair=       506
 NAB=   253 NAA=     0 NBB=     0.
 DE(Z)  -0.84601709D+00          E(Z)=    -0.52585305573D+04
 NORM(A)=   0.11301221D+01
 Iteration Nr.  14
 **********************
 DD1Dir will call FoFMem   1 times, MxPair=       506
 NAB=   253 NAA=     0 NBB=     0.
 DE(Z)  -0.84601710D+00          E(Z)=    -0.52585305573D+04
 NORM(A)=   0.11301221D+01
 Iteration Nr.  15
 **********************
 DD1Dir will call FoFMem   1 times, MxPair=       506
 NAB=   253 NAA=     0 NBB=     0.
 DE(Z)  -0.84601710D+00          E(Z)=    -0.52585305573D+04
 NORM(A)=   0.11301221D+01
 Discarding MO integrals.
          Differentiating once with respect to electric field.
                with respect to dipole field.
          Electric field/nuclear overlap derivatives assumed to be zero.
          Keep R1 ints in memory in canonical form, NReq=478620341.
          There are     1 degrees of freedom in the 1st order CPHF.  IDoFFX=0.
 LinEq1:  Iter=  0 NonCon=     1 RMS=1.95D-03 Max=5.61D-02
 AX will form     1 AO Fock derivatives at one time.
 LinEq1:  Iter=  1 NonCon=     1 RMS=7.40D-04 Max=2.60D-02
 LinEq1:  Iter=  2 NonCon=     1 RMS=3.09D-04 Max=9.34D-03
 LinEq1:  Iter=  3 NonCon=     1 RMS=1.03D-04 Max=2.97D-03
 LinEq1:  Iter=  4 NonCon=     1 RMS=5.33D-05 Max=1.64D-03
 LinEq1:  Iter=  5 NonCon=     1 RMS=1.64D-05 Max=4.65D-04
 LinEq1:  Iter=  6 NonCon=     1 RMS=6.29D-06 Max=1.31D-04
 LinEq1:  Iter=  7 NonCon=     1 RMS=1.35D-06 Max=2.12D-05
 LinEq1:  Iter=  8 NonCon=     1 RMS=2.69D-07 Max=4.30D-06
 LinEq1:  Iter=  9 NonCon=     1 RMS=6.50D-08 Max=1.21D-06
 LinEq1:  Iter= 10 NonCon=     1 RMS=1.39D-08 Max=2.08D-07
 LinEq1:  Iter= 11 NonCon=     1 RMS=3.90D-09 Max=9.56D-08
 LinEq1:  Iter= 12 NonCon=     1 RMS=7.18D-10 Max=1.62D-08
 LinEq1:  Iter= 13 NonCon=     1 RMS=1.20D-10 Max=2.63D-09
 LinEq1:  Iter= 14 NonCon=     0 RMS=1.91D-11 Max=4.35D-10
 Linear equations converged to 1.000D-10 1.000D-09 after    14 iterations.
 End of Minotr Frequency-dependent properties file   721 does not exist.
 End of Minotr Frequency-dependent properties file   722 does not exist.

 **********************************************************************

            Population analysis using the QCI/CC density.

 **********************************************************************

     Natural Orbital Coefficients:
                           1         2         3         4         5
     Eigenvalues --     2.00002   2.00002   2.00001   2.00001   2.00001
   1 1   C  1S          0.36877   0.00000   0.00000  -0.22663   0.00000
   2        2S         -0.01008   0.00000   0.00000   0.00242   0.00000
   3        3S          0.01427   0.00000   0.00000  -0.00945   0.00000
   4        4S         -0.01303   0.00000   0.00000   0.00312   0.00000
   5        5S         -0.00452   0.00000   0.00000  -0.00268   0.00000
   6        6PX         0.00001   0.00000   0.00000   0.00000   0.00000
   7        6PY         0.00000  -0.00267   0.00002   0.00000  -0.00022
   8        6PZ         0.00168   0.00000   0.00000   0.00013   0.00000
   9        7PX         0.00002   0.00000   0.00000  -0.00001   0.00000
  10        7PY         0.00000  -0.00460   0.00025   0.00000  -0.00041
  11        7PZ         0.00463   0.00000   0.00000  -0.00083   0.00000
  12        8PX         0.00000   0.00000   0.00000   0.00000   0.00000
  13        8PY         0.00000  -0.00445  -0.00124   0.00000  -0.00550
  14        8PZ         0.00379   0.00000   0.00000  -0.00073   0.00000
  15        9PX         0.00001   0.00000   0.00000   0.00000   0.00000
  16        9PY         0.00000   0.00073   0.00166   0.00000  -0.00172
  17        9PZ         0.00022   0.00000   0.00000   0.00050   0.00000
  18       10D 0        0.00031   0.00000   0.00000  -0.00019   0.00000
  19       10D+1        0.00000   0.00000   0.00000   0.00000   0.00000
  20       10D-1        0.00000   0.00043  -0.00008   0.00000  -0.00005
  21       10D+2        0.00012   0.00000   0.00000   0.00016   0.00000
  22       10D-2        0.00000   0.00000   0.00000   0.00000   0.00000
  23       11D 0       -0.00006   0.00000   0.00000   0.00010   0.00000
  24       11D+1        0.00000   0.00000   0.00000   0.00000   0.00000
  25       11D-1        0.00000   0.00163   0.00028   0.00000  -0.00033
  26       11D+2        0.00172   0.00000   0.00000  -0.00053   0.00000
  27       11D-2        0.00000   0.00000   0.00000   0.00000   0.00000
  28       12D 0       -0.00041   0.00000   0.00000   0.00015   0.00000
  29       12D+1        0.00000   0.00000   0.00000   0.00000   0.00000
  30       12D-1        0.00000   0.00263   0.00133   0.00000   0.00130
  31       12D+2        0.00098   0.00000   0.00000  -0.00010   0.00000
  32       12D-2        0.00000   0.00000   0.00001   0.00000   0.00000
  33       13F 0        0.00016   0.00000   0.00000  -0.00015   0.00000
  34       13F+1        0.00000   0.00000   0.00000   0.00000   0.00000
  35       13F-1        0.00000  -0.00001   0.00006   0.00000   0.00000
  36       13F+2        0.00001   0.00000   0.00000  -0.00003   0.00000
  37       13F-2        0.00000   0.00000   0.00000   0.00000   0.00000
  38       13F+3        0.00000   0.00000   0.00000   0.00000   0.00000
  39       13F-3        0.00000  -0.00008  -0.00003   0.00000  -0.00004
  40       14F 0       -0.00019   0.00000   0.00000   0.00053   0.00000
  41       14F+1        0.00000   0.00000   0.00000   0.00000   0.00000
  42       14F-1        0.00000   0.00069   0.00003   0.00000  -0.00006
  43       14F+2       -0.00013   0.00000   0.00000   0.00040   0.00000
  44       14F-2        0.00000  -0.00001   0.00000   0.00000  -0.00001
  45       14F+3        0.00000   0.00000   0.00000   0.00000   0.00000
  46       14F-3        0.00000   0.00023   0.00012   0.00000   0.00028
  47 2   Br 1S         -0.04456   0.03985  -0.08342  -0.08070  -0.00166
  48        2S          0.16499  -0.14751   0.31067   0.30061   0.00626
  49        3S         -0.34765   0.30922  -0.66990  -0.64859  -0.01357
  50        4S         -0.00111   0.00098  -0.00200  -0.00224   0.00015
  51        5S         -0.01854   0.01654  -0.03242  -0.03122  -0.00061
  52        6S          0.00359  -0.00267  -0.00746  -0.00683  -0.00346
  53        7S          0.00219   0.00040   0.00265   0.00138  -0.00308
  54        8PX        -0.00021   0.00031   0.00017  -0.00005  -0.00050
  55        8PY         0.19192  -0.22066  -0.09819  -0.08146   0.13203
  56        8PZ         0.11938  -0.13150  -0.05240  -0.07280  -0.22746
  57        9PX         0.00053  -0.00079  -0.00048   0.00017   0.00141
  58        9PY        -0.49942   0.57714   0.27554   0.22799  -0.37385
  59        9PZ        -0.31132   0.34343   0.14645   0.20443   0.64069
  60       10PX         0.00000   0.00000   0.00000   0.00000   0.00001
  61       10PY         0.00229  -0.00070  -0.00010  -0.00077  -0.00123
  62       10PZ         0.00127  -0.00092  -0.00018  -0.00028   0.00099
  63       11PX         0.00002  -0.00004  -0.00002   0.00001   0.00006
  64       11PY        -0.02370   0.02739   0.01261   0.01036  -0.01663
  65       11PZ        -0.01490   0.01637   0.00667   0.00932   0.02856
  66       12PX         0.00000   0.00000   0.00000   0.00000   0.00000
  67       12PY         0.00152   0.00120   0.00136   0.00034  -0.00405
  68       12PZ         0.00073   0.00022   0.00062   0.00061   0.00188
  69       13PX         0.00000   0.00000   0.00000   0.00000   0.00000
  70       13PY         0.00040  -0.00008   0.00025   0.00021  -0.00021
  71       13PZ         0.00031   0.00001   0.00032   0.00006  -0.00064
  72       14D 0        0.00245  -0.00281  -0.00111  -0.00193  -0.00790
  73       14D+1        0.00004  -0.00004  -0.00001  -0.00002  -0.00005
  74       14D-1       -0.02383   0.02676   0.00549   0.00471  -0.00399
  75       14D+2        0.01440  -0.01635  -0.00382  -0.00410  -0.00460
  76       14D-2        0.00003  -0.00003   0.00000  -0.00001  -0.00003
  77       15D 0        0.00027  -0.00021  -0.00006  -0.00014  -0.00048
  78       15D+1        0.00000   0.00000   0.00000   0.00000   0.00000
  79       15D-1       -0.00246   0.00263   0.00029   0.00028  -0.00024
  80       15D+2        0.00162  -0.00165  -0.00021  -0.00023  -0.00029
  81       15D-2        0.00000   0.00000   0.00000   0.00000   0.00000
  82       16D 0        0.00004  -0.00021  -0.00003  -0.00002  -0.00028
  83       16D+1        0.00000   0.00000   0.00000   0.00000   0.00000
  84       16D-1        0.00110  -0.00063   0.00012  -0.00027  -0.00025
  85       16D+2       -0.00082   0.00038  -0.00005   0.00007  -0.00011
  86       16D-2        0.00000   0.00000   0.00000   0.00000   0.00000
  87       17D 0       -0.00005   0.00003   0.00005  -0.00003   0.00004
  88       17D+1        0.00000   0.00000   0.00000   0.00000   0.00000
  89       17D-1        0.00052  -0.00035   0.00003  -0.00004  -0.00044
  90       17D+2       -0.00052  -0.00012  -0.00021   0.00009   0.00031
  91       17D-2        0.00000   0.00000   0.00000   0.00000   0.00000
  92       18F 0        0.00024  -0.00029  -0.00008  -0.00006   0.00004
  93       18F+1        0.00000   0.00000   0.00000   0.00000   0.00000
  94       18F-1       -0.00009   0.00012   0.00002   0.00003   0.00034
  95       18F+2        0.00038  -0.00042  -0.00010  -0.00009  -0.00002
  96       18F-2        0.00000   0.00000   0.00000   0.00000   0.00000
  97       18F+3        0.00000   0.00000   0.00000   0.00000   0.00000
  98       18F-3        0.00020  -0.00023  -0.00003  -0.00004   0.00014
  99       19F 0       -0.00030   0.00030   0.00006   0.00014  -0.00006
 100       19F+1        0.00000   0.00000   0.00000   0.00000   0.00000
 101       19F-1        0.00023  -0.00029  -0.00001  -0.00010  -0.00032
 102       19F+2       -0.00064   0.00046   0.00004   0.00018   0.00002
 103       19F-2        0.00000   0.00000   0.00000   0.00000   0.00000
 104       19F+3        0.00000   0.00000   0.00000   0.00000   0.00000
 105       19F-3       -0.00036   0.00017  -0.00004   0.00005  -0.00017
 106 3   Br 1S         -0.04456  -0.03985   0.08342  -0.08070   0.00166
 107        2S          0.16499   0.14751  -0.31067   0.30061  -0.00626
 108        3S         -0.34765  -0.30922   0.66990  -0.64859   0.01357
 109        4S         -0.00111  -0.00098   0.00200  -0.00224  -0.00015
 110        5S         -0.01854  -0.01654   0.03242  -0.03122   0.00061
 111        6S          0.00359   0.00267   0.00746  -0.00683   0.00346
 112        7S          0.00219  -0.00040  -0.00265   0.00138   0.00308
 113        8PX        -0.00021  -0.00031  -0.00017  -0.00005   0.00050
 114        8PY        -0.19192  -0.22066  -0.09819   0.08146   0.13203
 115        8PZ         0.11938   0.13150   0.05240  -0.07280   0.22746
 116        9PX         0.00053   0.00079   0.00048   0.00017  -0.00141
 117        9PY         0.49942   0.57714   0.27554  -0.22799  -0.37385
 118        9PZ        -0.31132  -0.34343  -0.14645   0.20443  -0.64069
 119       10PX         0.00000   0.00000   0.00000   0.00000  -0.00001
 120       10PY        -0.00229  -0.00070  -0.00010   0.00077  -0.00123
 121       10PZ         0.00127   0.00092   0.00018  -0.00028  -0.00099
 122       11PX         0.00002   0.00004   0.00002   0.00001  -0.00006
 123       11PY         0.02370   0.02739   0.01261  -0.01036  -0.01663
 124       11PZ        -0.01490  -0.01637  -0.00667   0.00932  -0.02856
 125       12PX         0.00000   0.00000   0.00000   0.00000   0.00000
 126       12PY        -0.00152   0.00120   0.00136  -0.00034  -0.00405
 127       12PZ         0.00073  -0.00022  -0.00062   0.00061  -0.00188
 128       13PX         0.00000   0.00000   0.00000   0.00000   0.00000
 129       13PY        -0.00040  -0.00008   0.00025  -0.00021  -0.00021
 130       13PZ         0.00031  -0.00001  -0.00032   0.00006   0.00064
 131       14D 0        0.00245   0.00281   0.00111  -0.00193   0.00790
 132       14D+1        0.00004   0.00004   0.00001  -0.00002   0.00005
 133       14D-1        0.02383   0.02676   0.00549  -0.00471  -0.00399
 134       14D+2        0.01440   0.01635   0.00382  -0.00410   0.00460
 135       14D-2       -0.00003  -0.00003   0.00000   0.00001  -0.00003
 136       15D 0        0.00027   0.00021   0.00006  -0.00014   0.00048
 137       15D+1        0.00000   0.00000   0.00000   0.00000   0.00000
 138       15D-1        0.00246   0.00263   0.00029  -0.00028  -0.00024
 139       15D+2        0.00162   0.00165   0.00021  -0.00023   0.00029
 140       15D-2        0.00000   0.00000   0.00000   0.00000   0.00000
 141       16D 0        0.00004   0.00021   0.00003  -0.00002   0.00028
 142       16D+1        0.00000   0.00000   0.00000   0.00000   0.00000
 143       16D-1       -0.00110  -0.00063   0.00012   0.00027  -0.00025
 144       16D+2       -0.00082  -0.00038   0.00005   0.00007   0.00011
 145       16D-2        0.00000   0.00000   0.00000   0.00000   0.00000
 146       17D 0       -0.00005  -0.00003  -0.00005  -0.00003  -0.00004
 147       17D+1        0.00000   0.00000   0.00000   0.00000   0.00000
 148       17D-1       -0.00052  -0.00035   0.00003   0.00004  -0.00044
 149       17D+2       -0.00052   0.00012   0.00021   0.00009  -0.00031
 150       17D-2        0.00000   0.00000   0.00000   0.00000   0.00000
 151       18F 0        0.00024   0.00029   0.00008  -0.00006  -0.00004
 152       18F+1        0.00000   0.00000   0.00000   0.00000   0.00000
 153       18F-1        0.00009   0.00012   0.00002  -0.00003   0.00034
 154       18F+2        0.00038   0.00042   0.00010  -0.00009   0.00002
 155       18F-2        0.00000   0.00000   0.00000   0.00000   0.00000
 156       18F+3        0.00000   0.00000   0.00000   0.00000   0.00000
 157       18F-3       -0.00020  -0.00023  -0.00003   0.00004   0.00014
 158       19F 0       -0.00030  -0.00030  -0.00006   0.00014   0.00006
 159       19F+1        0.00000   0.00000   0.00000   0.00000   0.00000
 160       19F-1       -0.00023  -0.00029  -0.00001   0.00010  -0.00032
 161       19F+2       -0.00064  -0.00046  -0.00004   0.00018  -0.00002
 162       19F-2        0.00000   0.00000   0.00000   0.00000   0.00000
 163       19F+3        0.00000   0.00000   0.00000   0.00000   0.00000
 164       19F-3        0.00036   0.00017  -0.00004  -0.00005  -0.00017
 165 4   O  1S         -0.06941   0.00000   0.00000   0.06980   0.00000
 166        2S          0.00100   0.00000   0.00000  -0.00156   0.00000
 167        3S         -0.00290   0.00000   0.00000   0.00289   0.00000
 168        4S          0.00121   0.00000   0.00000  -0.00065   0.00000
 169        5S          0.00068   0.00000   0.00000   0.00103   0.00000
 170        6PX         0.00000   0.00000   0.00000   0.00000   0.00000
 171        6PY         0.00000   0.00064   0.00030   0.00000   0.00016
 172        6PZ         0.00056   0.00000   0.00000  -0.00049   0.00000
 173        7PX         0.00000   0.00000   0.00000   0.00000   0.00000
 174        7PY         0.00000   0.00074   0.00032   0.00000   0.00032
 175        7PZ         0.00066   0.00000   0.00000  -0.00046   0.00000
 176        8PX        -0.00001   0.00000   0.00000   0.00000   0.00000
 177        8PY         0.00000  -0.00025  -0.00010   0.00000   0.00111
 178        8PZ         0.00037   0.00000   0.00000  -0.00086   0.00000
 179        9PX        -0.00001   0.00000   0.00000   0.00000   0.00000
 180        9PY         0.00000  -0.00070  -0.00065   0.00000   0.00016
 181        9PZ         0.00018   0.00000   0.00000  -0.00039   0.00000
 182       10D 0       -0.00003   0.00000   0.00000   0.00002   0.00000
 183       10D+1        0.00000   0.00000   0.00000   0.00000   0.00000
 184       10D-1        0.00000   0.00003  -0.00002   0.00000   0.00002
 185       10D+2        0.00003   0.00000   0.00000   0.00000   0.00000
 186       10D-2        0.00000   0.00000   0.00000   0.00000   0.00000
 187       11D 0       -0.00024   0.00000   0.00000   0.00016   0.00000
 188       11D+1        0.00000   0.00000   0.00000   0.00000   0.00000
 189       11D-1        0.00000   0.00016   0.00010   0.00000  -0.00008
 190       11D+2       -0.00009   0.00000   0.00000  -0.00003   0.00000
 191       11D-2        0.00000   0.00000   0.00000   0.00000   0.00000
 192       12D 0       -0.00043   0.00000   0.00000   0.00029   0.00000
 193       12D+1        0.00000   0.00000   0.00000   0.00000   0.00000
 194       12D-1        0.00000   0.00031   0.00009   0.00000  -0.00035
 195       12D+2       -0.00022   0.00000   0.00000  -0.00012   0.00000
 196       12D-2        0.00000   0.00001   0.00000   0.00000   0.00000
 197       13F 0       -0.00009   0.00000   0.00000   0.00004   0.00000
 198       13F+1        0.00000   0.00000   0.00000   0.00000   0.00000
 199       13F-1        0.00000  -0.00001   0.00000   0.00000   0.00003
 200       13F+2        0.00000   0.00000   0.00000  -0.00001   0.00000
 201       13F-2        0.00000   0.00000   0.00000   0.00000   0.00000
 202       13F+3        0.00000   0.00000   0.00000   0.00000   0.00000
 203       13F-3        0.00000  -0.00002   0.00001   0.00000  -0.00001
 204       14F 0        0.00026   0.00000   0.00000  -0.00008   0.00000
 205       14F+1        0.00000   0.00000   0.00000   0.00000   0.00000
 206       14F-1        0.00000  -0.00006  -0.00005   0.00000  -0.00003
 207       14F+2        0.00013   0.00000   0.00000   0.00003   0.00000
 208       14F-2        0.00000  -0.00001   0.00000   0.00000   0.00000
 209       14F+3        0.00000   0.00000   0.00000   0.00000   0.00000
 210       14F-3        0.00000   0.00005  -0.00003   0.00000   0.00001
                           6         7         8         9        10
     Eigenvalues --     2.00001   2.00001   2.00001   2.00001   2.00000
   1 1   C  1S         -0.07121   0.00000   0.44609  -0.00214   0.75548
   2        2S          0.00074   0.00000  -0.00530   0.00002  -0.00716
   3        3S         -0.00304   0.00000   0.01862  -0.00009   0.03174
   4        4S         -0.00336   0.00000   0.00150   0.00001   0.00272
   5        5S         -0.00155   0.00000   0.00075   0.00003   0.00266
   6        6PX         0.00000   0.00000   0.00000   0.00062  -0.00001
   7        6PY         0.00000   0.00000   0.00000   0.00000   0.00000
   8        6PZ         0.00030   0.00000  -0.00086   0.00000  -0.00115
   9        7PX         0.00000   0.00000   0.00000   0.00104   0.00003
  10        7PY         0.00000   0.00000   0.00000   0.00000   0.00000
  11        7PZ        -0.00002   0.00000  -0.00079   0.00001   0.00322
  12        8PX         0.00002   0.00000   0.00001   0.00130   0.00000
  13        8PY         0.00000   0.00005   0.00000   0.00000   0.00000
  14        8PZ         0.00572   0.00000  -0.00022   0.00000  -0.00151
  15        9PX         0.00001   0.00000  -0.00001   0.00004   0.00000
  16        9PY         0.00000   0.00000   0.00000   0.00000   0.00000
  17        9PZ         0.00016   0.00000  -0.00020  -0.00001  -0.00014
  18       10D 0       -0.00016   0.00000   0.00010   0.00000   0.00067
  19       10D+1        0.00000   0.00000   0.00000  -0.00010   0.00001
  20       10D-1        0.00000   0.00000   0.00000   0.00000   0.00000
  21       10D+2       -0.00008   0.00000  -0.00015   0.00000  -0.00020
  22       10D-2        0.00000  -0.00009   0.00000   0.00000   0.00000
  23       11D 0       -0.00036   0.00000  -0.00087   0.00001   0.00096
  24       11D+1        0.00000   0.00000  -0.00001  -0.00075   0.00002
  25       11D-1        0.00000   0.00000   0.00000   0.00000   0.00000
  26       11D+2       -0.00019   0.00000   0.00031   0.00000   0.00106
  27       11D-2        0.00000  -0.00069   0.00000   0.00000   0.00000
  28       12D 0       -0.00021   0.00000   0.00003   0.00001  -0.00114
  29       12D+1        0.00001   0.00000   0.00000  -0.00064  -0.00001
  30       12D-1        0.00000  -0.00001   0.00000   0.00000   0.00000
  31       12D+2        0.00040   0.00000  -0.00022   0.00001  -0.00102
  32       12D-2        0.00000   0.00012   0.00000   0.00000   0.00000
  33       13F 0       -0.00011   0.00000   0.00026   0.00000   0.00036
  34       13F+1        0.00000   0.00000   0.00001  -0.00006   0.00001
  35       13F-1        0.00000   0.00000   0.00000   0.00000   0.00000
  36       13F+2        0.00003   0.00000   0.00000   0.00000  -0.00009
  37       13F-2        0.00000  -0.00001   0.00000   0.00000   0.00000
  38       13F+3        0.00000   0.00000   0.00000   0.00002   0.00000
  39       13F-3        0.00000   0.00000   0.00000   0.00000   0.00000
  40       14F 0        0.00050   0.00000  -0.00118   0.00001  -0.00065
  41       14F+1        0.00001   0.00000  -0.00001   0.00008   0.00001
  42       14F-1        0.00000   0.00000   0.00000   0.00000   0.00000
  43       14F+2       -0.00029   0.00000  -0.00068   0.00001  -0.00061
  44       14F-2        0.00000   0.00021   0.00000   0.00000   0.00000
  45       14F+3        0.00000   0.00000  -0.00001  -0.00036   0.00000
  46       14F-3        0.00000   0.00000   0.00000   0.00000   0.00000
  47 2   Br 1S          0.00626  -0.00001  -0.00203   0.00004   0.00033
  48        2S         -0.02352   0.00003   0.00799  -0.00013  -0.00042
  49        3S          0.05171  -0.00007  -0.02116   0.00031  -0.00800
  50        4S          0.00001   0.00000   0.00051   0.00000   0.00094
  51        5S          0.00243   0.00000  -0.00085   0.00001  -0.00056
  52        6S          0.00328   0.00003  -0.00062   0.00001  -0.00091
  53        7S          0.00108   0.00001  -0.00020  -0.00001  -0.00111
  54        8PX        -0.00116  -0.26230  -0.00185  -0.26285   0.00033
  55        8PY         0.15796  -0.00053  -0.04660  -0.00056  -0.08614
  56        8PZ        -0.20448   0.00027  -0.09207   0.00145  -0.05078
  57        9PX         0.00329   0.74192   0.00524   0.74225  -0.00089
  58        9PY        -0.44050   0.00151   0.11122   0.00171   0.20450
  59        9PZ         0.57912  -0.00076   0.24763  -0.00400   0.12137
  60       10PX         0.00000   0.00130   0.00000   0.00072   0.00000
  61       10PY         0.00022   0.00001  -0.00054   0.00001  -0.00043
  62       10PZ         0.00133   0.00000   0.00004   0.00000   0.00017
  63       11PX         0.00015   0.03316   0.00023   0.03282  -0.00004
  64       11PY        -0.01957   0.00007   0.00491   0.00007   0.00863
  65       11PZ         0.02571  -0.00004   0.01090  -0.00018   0.00505
  66       12PX         0.00002   0.00389   0.00002   0.00271   0.00000
  67       12PY        -0.00013   0.00002  -0.00021   0.00001  -0.00010
  68       12PZ         0.00316   0.00000   0.00075  -0.00001  -0.00056
  69       13PX         0.00000  -0.00032   0.00000  -0.00025   0.00000
  70       13PY         0.00029   0.00000  -0.00006   0.00000  -0.00025
  71       13PZ         0.00001   0.00000  -0.00004   0.00000  -0.00019
  72       14D 0       -0.00751  -0.00003  -0.00263   0.00001  -0.00114
  73       14D+1       -0.00004   0.00113  -0.00001   0.00122  -0.00002
  74       14D-1       -0.00689   0.00000   0.00771  -0.00004   0.00968
  75       14D+2       -0.00284  -0.00003  -0.00633   0.00003  -0.00611
  76       14D-2       -0.00002   0.00224   0.00000   0.00218  -0.00001
  77       15D 0       -0.00041   0.00000  -0.00020   0.00000  -0.00010
  78       15D+1        0.00000   0.00017   0.00000   0.00019   0.00000
  79       15D-1       -0.00042   0.00000   0.00071   0.00000   0.00086
  80       15D+2       -0.00011   0.00000  -0.00061   0.00000  -0.00060
  81       15D-2        0.00000   0.00028   0.00000   0.00034   0.00000
  82       16D 0       -0.00037   0.00000  -0.00008   0.00000   0.00012
  83       16D+1        0.00000  -0.00010   0.00000  -0.00015   0.00000
  84       16D-1       -0.00010   0.00000   0.00025   0.00000   0.00073
  85       16D+2       -0.00032   0.00000   0.00001   0.00000  -0.00021
  86       16D-2        0.00000  -0.00017   0.00000  -0.00017   0.00000
  87       17D 0       -0.00023   0.00000   0.00002   0.00000  -0.00011
  88       17D+1        0.00000   0.00009   0.00000  -0.00009   0.00000
  89       17D-1        0.00019   0.00000  -0.00004   0.00000  -0.00022
  90       17D+2       -0.00032   0.00000   0.00006   0.00000   0.00002
  91       17D-2        0.00000   0.00016   0.00000  -0.00023   0.00000
  92       18F 0        0.00008   0.00000  -0.00008   0.00000  -0.00012
  93       18F+1        0.00000   0.00001   0.00000   0.00001   0.00000
  94       18F-1        0.00031   0.00000   0.00008   0.00000   0.00008
  95       18F+2        0.00000   0.00000  -0.00014   0.00000  -0.00022
  96       18F-2        0.00000   0.00022   0.00000   0.00025   0.00000
  97       18F+3        0.00000  -0.00018   0.00000  -0.00022   0.00000
  98       18F-3        0.00008   0.00000  -0.00006   0.00000  -0.00010
  99       19F 0       -0.00008   0.00000  -0.00009   0.00000  -0.00011
 100       19F+1        0.00000  -0.00001   0.00000  -0.00003   0.00000
 101       19F-1       -0.00038   0.00000   0.00000   0.00000   0.00017
 102       19F+2        0.00003   0.00000   0.00000   0.00000  -0.00011
 103       19F-2        0.00000  -0.00017   0.00000  -0.00025   0.00000
 104       19F+3        0.00000   0.00014   0.00000   0.00024   0.00000
 105       19F-3       -0.00010   0.00000   0.00010   0.00000   0.00001
 106 3   Br 1S          0.00626   0.00001  -0.00203   0.00004   0.00033
 107        2S         -0.02352  -0.00003   0.00799  -0.00013  -0.00042
 108        3S          0.05171   0.00007  -0.02116   0.00031  -0.00800
 109        4S          0.00001   0.00000   0.00051   0.00000   0.00094
 110        5S          0.00243   0.00000  -0.00085   0.00001  -0.00056
 111        6S          0.00328  -0.00003  -0.00062   0.00001  -0.00091
 112        7S          0.00108  -0.00001  -0.00020  -0.00001  -0.00111
 113        8PX        -0.00116   0.26230  -0.00185  -0.26285   0.00033
 114        8PY        -0.15796  -0.00053   0.04660   0.00056   0.08614
 115        8PZ        -0.20448  -0.00027  -0.09207   0.00145  -0.05078
 116        9PX         0.00329  -0.74192   0.00524   0.74225  -0.00089
 117        9PY         0.44050   0.00151  -0.11122  -0.00171  -0.20450
 118        9PZ         0.57912   0.00076   0.24763  -0.00400   0.12137
 119       10PX         0.00000  -0.00130   0.00000   0.00072   0.00000
 120       10PY        -0.00022   0.00001   0.00054  -0.00001   0.00043
 121       10PZ         0.00133   0.00000   0.00004   0.00000   0.00017
 122       11PX         0.00015  -0.03316   0.00023   0.03282  -0.00004
 123       11PY         0.01957   0.00007  -0.00491  -0.00007  -0.00863
 124       11PZ         0.02571   0.00004   0.01090  -0.00018   0.00505
 125       12PX         0.00002  -0.00389   0.00002   0.00271   0.00000
 126       12PY         0.00013   0.00002   0.00021  -0.00001   0.00010
 127       12PZ         0.00316   0.00000   0.00075  -0.00001  -0.00056
 128       13PX         0.00000   0.00032   0.00000  -0.00025   0.00000
 129       13PY        -0.00029   0.00000   0.00006   0.00000   0.00025
 130       13PZ         0.00001   0.00000  -0.00004   0.00000  -0.00019
 131       14D 0       -0.00751   0.00003  -0.00263   0.00001  -0.00114
 132       14D+1       -0.00004  -0.00113  -0.00001   0.00122  -0.00002
 133       14D-1        0.00689   0.00000  -0.00771   0.00004  -0.00968
 134       14D+2       -0.00284   0.00003  -0.00633   0.00003  -0.00611
 135       14D-2        0.00002   0.00224   0.00000  -0.00218   0.00001
 136       15D 0       -0.00041   0.00000  -0.00020   0.00000  -0.00010
 137       15D+1        0.00000  -0.00017   0.00000   0.00019   0.00000
 138       15D-1        0.00042   0.00000  -0.00071   0.00000  -0.00086
 139       15D+2       -0.00011   0.00000  -0.00061   0.00000  -0.00060
 140       15D-2        0.00000   0.00028   0.00000  -0.00034   0.00000
 141       16D 0       -0.00037   0.00000  -0.00008   0.00000   0.00012
 142       16D+1        0.00000   0.00010   0.00000  -0.00015   0.00000
 143       16D-1        0.00010   0.00000  -0.00025   0.00000  -0.00073
 144       16D+2       -0.00032   0.00000   0.00001   0.00000  -0.00021
 145       16D-2        0.00000  -0.00017   0.00000   0.00017   0.00000
 146       17D 0       -0.00023   0.00000   0.00002   0.00000  -0.00011
 147       17D+1        0.00000  -0.00009   0.00000  -0.00009   0.00000
 148       17D-1       -0.00019   0.00000   0.00004   0.00000   0.00022
 149       17D+2       -0.00032   0.00000   0.00006   0.00000   0.00002
 150       17D-2        0.00000   0.00016   0.00000   0.00023   0.00000
 151       18F 0        0.00008   0.00000  -0.00008   0.00000  -0.00012
 152       18F+1        0.00000  -0.00001   0.00000   0.00001   0.00000
 153       18F-1       -0.00031   0.00000  -0.00008   0.00000  -0.00008
 154       18F+2        0.00000   0.00000  -0.00014   0.00000  -0.00022
 155       18F-2        0.00000   0.00022   0.00000  -0.00025   0.00000
 156       18F+3        0.00000   0.00018   0.00000  -0.00022   0.00000
 157       18F-3       -0.00008   0.00000   0.00006   0.00000   0.00010
 158       19F 0       -0.00008   0.00000  -0.00009   0.00000  -0.00011
 159       19F+1        0.00000   0.00001   0.00000  -0.00003   0.00000
 160       19F-1        0.00038   0.00000   0.00000   0.00000  -0.00017
 161       19F+2        0.00003   0.00000   0.00000   0.00000  -0.00011
 162       19F-2        0.00000  -0.00017   0.00000   0.00025   0.00000
 163       19F+3        0.00000  -0.00014   0.00000   0.00024   0.00000
 164       19F-3        0.00010   0.00000  -0.00010   0.00000  -0.00001
 165 4   O  1S          0.16471   0.00000  -0.79481   0.00556   0.53928
 166        2S         -0.00316   0.00000   0.01531  -0.00011  -0.00889
 167        3S          0.00696   0.00000  -0.03362   0.00024   0.02337
 168        4S         -0.00156   0.00000   0.00255  -0.00003  -0.00139
 169        5S         -0.00191   0.00000  -0.00046  -0.00002  -0.00136
 170        6PX        -0.00001   0.00000   0.00003  -0.00048   0.00000
 171        6PY         0.00000   0.00000   0.00000   0.00000   0.00000
 172        6PZ        -0.00065   0.00000   0.00395  -0.00002  -0.00040
 173        7PX         0.00000   0.00000   0.00001  -0.00056   0.00003
 174        7PY         0.00000   0.00000   0.00000   0.00000   0.00000
 175        7PZ        -0.00011   0.00000   0.00161   0.00000   0.00261
 176        8PX        -0.00001   0.00000   0.00002  -0.00036   0.00000
 177        8PY         0.00000  -0.00001   0.00000   0.00000   0.00000
 178        8PZ        -0.00135   0.00000   0.00333  -0.00001   0.00227
 179        9PX         0.00000   0.00000   0.00001   0.00004   0.00001
 180        9PY         0.00000   0.00000   0.00000   0.00000   0.00000
 181        9PZ         0.00065   0.00000   0.00053   0.00001   0.00042
 182       10D 0        0.00004   0.00000  -0.00021   0.00000   0.00008
 183       10D+1        0.00000   0.00000   0.00000   0.00000   0.00000
 184       10D-1        0.00000   0.00000   0.00000   0.00000   0.00000
 185       10D+2       -0.00003   0.00000   0.00005   0.00000  -0.00002
 186       10D-2        0.00000  -0.00001   0.00000   0.00000   0.00000
 187       11D 0        0.00003   0.00000   0.00016   0.00000  -0.00102
 188       11D+1        0.00000   0.00000   0.00000  -0.00009  -0.00001
 189       11D-1        0.00000   0.00000   0.00000   0.00000   0.00000
 190       11D+2        0.00005   0.00000   0.00014   0.00000  -0.00006
 191       11D-2        0.00000   0.00002   0.00000   0.00000   0.00000
 192       12D 0        0.00078   0.00000  -0.00050   0.00000  -0.00057
 193       12D+1        0.00001   0.00000  -0.00001  -0.00010   0.00000
 194       12D-1        0.00000   0.00001   0.00000   0.00000   0.00000
 195       12D+2       -0.00001   0.00000   0.00029   0.00000   0.00040
 196       12D-2        0.00000  -0.00003   0.00000   0.00000   0.00000
 197       13F 0        0.00001   0.00000  -0.00010   0.00000  -0.00010
 198       13F+1        0.00000   0.00000   0.00000   0.00000   0.00000
 199       13F-1        0.00000   0.00000   0.00000   0.00000   0.00000
 200       13F+2       -0.00001   0.00000   0.00002   0.00000  -0.00001
 201       13F-2        0.00000   0.00000   0.00000   0.00000   0.00000
 202       13F+3        0.00000   0.00000   0.00000  -0.00001   0.00000
 203       13F-3        0.00000   0.00000   0.00000   0.00000   0.00000
 204       14F 0       -0.00008   0.00000   0.00001   0.00000   0.00037
 205       14F+1        0.00000   0.00000   0.00000   0.00007   0.00001
 206       14F-1        0.00000   0.00000   0.00000   0.00000   0.00000
 207       14F+2        0.00002   0.00000  -0.00009   0.00000  -0.00003
 208       14F-2        0.00000  -0.00003   0.00000   0.00000   0.00000
 209       14F+3        0.00000   0.00000   0.00000   0.00004   0.00000
 210       14F-3        0.00000   0.00000   0.00000   0.00000   0.00000
                          11        12        13        14        15
     Eigenvalues --     2.00000   2.00000   2.00000   2.00000   2.00000
   1 1   C  1S          0.00000  -0.00127   0.00000   0.01352  -0.00007
   2        2S          0.00000   0.00005   0.00000  -0.00011   0.00000
   3        3S          0.00000  -0.00005   0.00000   0.00062   0.00000
   4        4S          0.00000   0.00036   0.00000  -0.00105   0.00000
   5        5S          0.00000   0.00019   0.00000  -0.00038   0.00000
   6        6PX         0.00000   0.00000   0.00000   0.00000   0.00001
   7        6PY        -0.00003   0.00000  -0.00001   0.00000   0.00000
   8        6PZ         0.00000   0.00001   0.00000  -0.00004   0.00000
   9        7PX         0.00000   0.00000   0.00000   0.00000   0.00000
  10        7PY         0.00006   0.00000   0.00003   0.00000   0.00000
  11        7PZ         0.00000   0.00007   0.00000   0.00010   0.00000
  12        8PX         0.00000   0.00000   0.00000   0.00000  -0.00007
  13        8PY         0.00039   0.00000   0.00061   0.00000   0.00000
  14        8PZ         0.00000  -0.00053   0.00000   0.00038   0.00000
  15        9PX         0.00000   0.00000   0.00000   0.00000   0.00000
  16        9PY        -0.00010   0.00000   0.00010   0.00000   0.00000
  17        9PZ         0.00000  -0.00001   0.00000   0.00005   0.00000
  18       10D 0        0.00000   0.00000   0.00000   0.00001   0.00000
  19       10D+1        0.00000   0.00000   0.00000   0.00000   0.00000
  20       10D-1        0.00000   0.00000   0.00000   0.00000   0.00000
  21       10D+2        0.00000   0.00000   0.00000   0.00000   0.00000
  22       10D-2        0.00000   0.00000   0.00000   0.00000   0.00000
  23       11D 0        0.00000   0.00005   0.00000   0.00001   0.00000
  24       11D+1        0.00000   0.00000   0.00000   0.00000   0.00005
  25       11D-1       -0.00008   0.00000  -0.00002   0.00000   0.00000
  26       11D+2        0.00000   0.00001   0.00000   0.00014   0.00000
  27       11D-2        0.00000   0.00000   0.00000   0.00000   0.00000
  28       12D 0        0.00000  -0.00001   0.00000   0.00008   0.00000
  29       12D+1        0.00000   0.00000   0.00000   0.00000   0.00004
  30       12D-1       -0.00019   0.00000  -0.00020   0.00000   0.00000
  31       12D+2        0.00000  -0.00005   0.00000   0.00017   0.00000
  32       12D-2        0.00000   0.00000   0.00000   0.00000   0.00000
  33       13F 0        0.00000   0.00001   0.00000   0.00000   0.00000
  34       13F+1        0.00000   0.00000   0.00000   0.00000   0.00001
  35       13F-1        0.00000   0.00000   0.00001   0.00000   0.00000
  36       13F+2        0.00000   0.00000   0.00000   0.00000   0.00000
  37       13F-2        0.00000   0.00000   0.00000   0.00000   0.00000
  38       13F+3        0.00000   0.00000   0.00000   0.00000  -0.00001
  39       13F-3        0.00001   0.00000   0.00001   0.00000   0.00000
  40       14F 0        0.00000  -0.00003   0.00000   0.00002   0.00000
  41       14F+1        0.00000   0.00000   0.00000   0.00000  -0.00001
  42       14F-1       -0.00001   0.00000  -0.00008   0.00000   0.00000
  43       14F+2        0.00000   0.00005   0.00000   0.00001   0.00000
  44       14F-2        0.00000   0.00000   0.00000   0.00000   0.00000
  45       14F+3        0.00000   0.00000   0.00000   0.00000   0.00004
  46       14F-3       -0.00002   0.00000  -0.00006   0.00000   0.00000
  47 2   Br 1S         -0.05480   0.00214  -0.01244  -0.03843   0.00016
  48        2S          0.16950  -0.00625   0.04118   0.12330  -0.00051
  49        3S          0.01497  -0.00064   0.00386   0.01297  -0.00006
  50        4S         -0.00012   0.00002  -0.00007  -0.00015   0.00000
  51        5S          0.00045  -0.00002   0.00011   0.00038   0.00000
  52        6S          0.00049  -0.00029   0.00049   0.00066   0.00000
  53        7S         -0.00014  -0.00013   0.00024   0.00018   0.00000
  54        8PX        -0.00059   0.00336   0.00325   0.00346   0.71302
  55        8PY         0.66530  -0.40302  -0.18827   0.57062  -0.00085
  56        8PZ         0.16861   0.58795   0.68572   0.39377  -0.00467
  57        9PX        -0.00001  -0.00008  -0.00008  -0.00012  -0.01616
  58        9PY         0.00000   0.00753   0.00860   0.00712  -0.00009
  59        9PZ         0.00573  -0.01369  -0.01241   0.00328   0.00003
  60       10PX         0.00000   0.00000   0.00000   0.00000   0.00028
  61       10PY         0.00033  -0.00022  -0.00005   0.00032   0.00000
  62       10PZ         0.00012   0.00023   0.00036   0.00021   0.00000
  63       11PX         0.00000  -0.00001  -0.00001  -0.00001  -0.00122
  64       11PY        -0.00057   0.00063   0.00047  -0.00023   0.00000
  65       11PZ         0.00006  -0.00101  -0.00106  -0.00022   0.00001
  66       12PX         0.00000   0.00000   0.00000   0.00000  -0.00006
  67       12PY         0.00005  -0.00012   0.00028   0.00020   0.00000
  68       12PZ         0.00008  -0.00013   0.00006   0.00020   0.00000
  69       13PX         0.00000   0.00000   0.00000   0.00000   0.00002
  70       13PY        -0.00001  -0.00003   0.00002   0.00002   0.00000
  71       13PZ        -0.00003   0.00000   0.00005   0.00002   0.00000
  72       14D 0       -0.00008   0.00033   0.00032   0.00002   0.00000
  73       14D+1        0.00000   0.00000   0.00000   0.00000  -0.00004
  74       14D-1       -0.00032   0.00018   0.00009  -0.00007   0.00000
  75       14D+2        0.00015   0.00017   0.00022   0.00009   0.00000
  76       14D-2        0.00000   0.00000   0.00000   0.00000  -0.00010
  77       15D 0        0.00000   0.00000   0.00001   0.00000   0.00000
  78       15D+1        0.00000   0.00000   0.00000   0.00000  -0.00002
  79       15D-1       -0.00005   0.00000  -0.00001  -0.00004   0.00000
  80       15D+2        0.00003   0.00000   0.00001   0.00003   0.00000
  81       15D-2        0.00000   0.00000   0.00000   0.00000  -0.00002
  82       16D 0        0.00000   0.00006   0.00007   0.00000   0.00000
  83       16D+1        0.00000   0.00000   0.00000   0.00000   0.00003
  84       16D-1        0.00008   0.00002   0.00007   0.00012   0.00000
  85       16D+2       -0.00006   0.00005   0.00001  -0.00010   0.00000
  86       16D-2        0.00000   0.00000   0.00000   0.00000   0.00004
  87       17D 0        0.00000   0.00001  -0.00002   0.00002   0.00000
  88       17D+1        0.00000   0.00000   0.00000   0.00000   0.00000
  89       17D-1        0.00002  -0.00003   0.00004   0.00006   0.00000
  90       17D+2        0.00001   0.00003  -0.00004  -0.00003   0.00000
  91       17D-2        0.00000   0.00000   0.00000   0.00000   0.00001
  92       18F 0        0.00000   0.00000   0.00000   0.00000   0.00000
  93       18F+1        0.00000   0.00000   0.00000   0.00000   0.00000
  94       18F-1        0.00000  -0.00001   0.00000   0.00000   0.00000
  95       18F+2       -0.00001   0.00000   0.00000  -0.00001   0.00000
  96       18F-2        0.00000   0.00000   0.00000   0.00000   0.00000
  97       18F+3        0.00000   0.00000   0.00000   0.00000   0.00000
  98       18F-3        0.00000   0.00000   0.00000  -0.00001   0.00000
  99       19F 0       -0.00002   0.00000   0.00000  -0.00001   0.00000
 100       19F+1        0.00000   0.00000   0.00000   0.00000   0.00000
 101       19F-1        0.00001   0.00003   0.00003   0.00001   0.00000
 102       19F+2       -0.00002   0.00000  -0.00001  -0.00004   0.00000
 103       19F-2        0.00000   0.00000   0.00000   0.00000   0.00002
 104       19F+3        0.00000   0.00000   0.00000   0.00000  -0.00002
 105       19F-3       -0.00001   0.00001   0.00001  -0.00002   0.00000
 106 3   Br 1S          0.05480   0.00214   0.01244  -0.03843   0.00016
 107        2S         -0.16950  -0.00627  -0.04118   0.12331  -0.00051
 108        3S         -0.01497  -0.00064  -0.00386   0.01297  -0.00006
 109        4S          0.00012   0.00002   0.00007  -0.00015   0.00000
 110        5S         -0.00045  -0.00002  -0.00011   0.00038   0.00000
 111        6S         -0.00049  -0.00029  -0.00049   0.00066   0.00000
 112        7S          0.00014  -0.00013  -0.00024   0.00018   0.00000
 113        8PX         0.00059   0.00336  -0.00325   0.00346   0.71301
 114        8PY         0.66527   0.40304  -0.18833  -0.57062   0.00085
 115        8PZ        -0.16865   0.58784  -0.68579   0.39378  -0.00467
 116        9PX         0.00001  -0.00008   0.00008  -0.00012  -0.01616
 117        9PY         0.00000  -0.00753   0.00860  -0.00712   0.00009
 118        9PZ        -0.00573  -0.01369   0.01241   0.00328   0.00003
 119       10PX         0.00000   0.00000   0.00000   0.00000   0.00028
 120       10PY         0.00033   0.00022  -0.00005  -0.00032   0.00000
 121       10PZ        -0.00012   0.00023  -0.00036   0.00021   0.00000
 122       11PX         0.00000  -0.00001   0.00001  -0.00001  -0.00122
 123       11PY        -0.00057  -0.00063   0.00047   0.00023   0.00000
 124       11PZ        -0.00006  -0.00101   0.00106  -0.00022   0.00001
 125       12PX         0.00000   0.00000   0.00000   0.00000  -0.00006
 126       12PY         0.00005   0.00012   0.00028  -0.00020   0.00000
 127       12PZ        -0.00008  -0.00013  -0.00006   0.00020   0.00000
 128       13PX         0.00000   0.00000   0.00000   0.00000   0.00002
 129       13PY        -0.00001   0.00003   0.00002  -0.00002   0.00000
 130       13PZ         0.00003   0.00000  -0.00005   0.00002   0.00000
 131       14D 0        0.00008   0.00033  -0.00032   0.00002   0.00000
 132       14D+1        0.00000   0.00000   0.00000   0.00000  -0.00004
 133       14D-1       -0.00032  -0.00018   0.00009   0.00007   0.00000
 134       14D+2       -0.00015   0.00017  -0.00022   0.00009   0.00000
 135       14D-2        0.00000   0.00000   0.00000   0.00000   0.00010
 136       15D 0        0.00000   0.00000  -0.00001   0.00000   0.00000
 137       15D+1        0.00000   0.00000   0.00000   0.00000  -0.00002
 138       15D-1       -0.00005   0.00000  -0.00001   0.00004   0.00000
 139       15D+2       -0.00003   0.00000  -0.00001   0.00003   0.00000
 140       15D-2        0.00000   0.00000   0.00000   0.00000   0.00002
 141       16D 0        0.00000   0.00006  -0.00007   0.00000   0.00000
 142       16D+1        0.00000   0.00000   0.00000   0.00000   0.00003
 143       16D-1        0.00008  -0.00002   0.00007  -0.00012   0.00000
 144       16D+2        0.00006   0.00005  -0.00001  -0.00010   0.00000
 145       16D-2        0.00000   0.00000   0.00000   0.00000  -0.00004
 146       17D 0        0.00000   0.00001   0.00002   0.00002   0.00000
 147       17D+1        0.00000   0.00000   0.00000   0.00000   0.00000
 148       17D-1        0.00002   0.00003   0.00004  -0.00006   0.00000
 149       17D+2       -0.00001   0.00003   0.00004  -0.00003   0.00000
 150       17D-2        0.00000   0.00000   0.00000   0.00000  -0.00001
 151       18F 0        0.00000   0.00000   0.00000   0.00000   0.00000
 152       18F+1        0.00000   0.00000   0.00000   0.00000   0.00000
 153       18F-1        0.00000   0.00001   0.00000   0.00000   0.00000
 154       18F+2        0.00001   0.00000   0.00000  -0.00001   0.00000
 155       18F-2        0.00000   0.00000   0.00000   0.00000   0.00000
 156       18F+3        0.00000   0.00000   0.00000   0.00000   0.00000
 157       18F-3        0.00000   0.00000   0.00000   0.00001   0.00000
 158       19F 0        0.00002   0.00000   0.00000  -0.00001   0.00000
 159       19F+1        0.00000   0.00000   0.00000   0.00000   0.00000
 160       19F-1        0.00001  -0.00003   0.00003  -0.00001   0.00000
 161       19F+2        0.00002   0.00000   0.00001  -0.00004   0.00000
 162       19F-2        0.00000   0.00000   0.00000   0.00000  -0.00002
 163       19F+3        0.00000   0.00000   0.00000   0.00000  -0.00002
 164       19F-3       -0.00001  -0.00001   0.00001   0.00002   0.00000
 165 4   O  1S          0.00000  -0.00046   0.00000   0.00404  -0.00002
 166        2S          0.00000   0.00000   0.00000  -0.00010   0.00000
 167        3S          0.00000  -0.00002   0.00000   0.00018   0.00000
 168        4S          0.00000   0.00006   0.00000   0.00004   0.00000
 169        5S          0.00000   0.00018   0.00000  -0.00005   0.00000
 170        6PX         0.00000   0.00000   0.00000   0.00000   0.00000
 171        6PY         0.00000   0.00000   0.00000   0.00000   0.00000
 172        6PZ         0.00000   0.00000   0.00000   0.00002   0.00000
 173        7PX         0.00000   0.00000   0.00000   0.00000  -0.00001
 174        7PY         0.00001   0.00000   0.00001   0.00000   0.00000
 175        7PZ         0.00000   0.00001   0.00000   0.00006   0.00000
 176        8PX         0.00000   0.00000   0.00000   0.00000  -0.00002
 177        8PY         0.00003   0.00000   0.00000   0.00000   0.00000
 178        8PZ         0.00000   0.00011   0.00000  -0.00005   0.00000
 179        9PX         0.00000   0.00000   0.00000   0.00000  -0.00001
 180        9PY         0.00008   0.00000   0.00002   0.00000   0.00000
 181        9PZ         0.00000  -0.00006   0.00000   0.00002   0.00000
 182       10D 0        0.00000   0.00000   0.00000   0.00000   0.00000
 183       10D+1        0.00000   0.00000   0.00000   0.00000   0.00000
 184       10D-1        0.00000   0.00000   0.00000   0.00000   0.00000
 185       10D+2        0.00000   0.00000   0.00000   0.00000   0.00000
 186       10D-2        0.00000   0.00000   0.00000   0.00000   0.00000
 187       11D 0        0.00000  -0.00001   0.00000  -0.00002   0.00000
 188       11D+1        0.00000   0.00000   0.00000   0.00000   0.00001
 189       11D-1        0.00000   0.00000   0.00000   0.00000   0.00000
 190       11D+2        0.00000  -0.00001   0.00000  -0.00001   0.00000
 191       11D-2        0.00000   0.00000   0.00000   0.00000   0.00000
 192       12D 0        0.00000  -0.00007   0.00000   0.00000   0.00000
 193       12D+1        0.00000   0.00000   0.00000   0.00000   0.00001
 194       12D-1        0.00000   0.00000   0.00002   0.00000   0.00000
 195       12D+2        0.00000  -0.00001   0.00000  -0.00004   0.00000
 196       12D-2        0.00000   0.00000   0.00000   0.00000   0.00000
 197       13F 0        0.00000   0.00000   0.00000   0.00000   0.00000
 198       13F+1        0.00000   0.00000   0.00000   0.00000   0.00000
 199       13F-1        0.00000   0.00000   0.00000   0.00000   0.00000
 200       13F+2        0.00000   0.00000   0.00000   0.00000   0.00000
 201       13F-2        0.00000   0.00000   0.00000   0.00000   0.00000
 202       13F+3        0.00000   0.00000   0.00000   0.00000   0.00000
 203       13F-3        0.00000   0.00000   0.00000   0.00000   0.00000
 204       14F 0        0.00000   0.00001   0.00000   0.00002   0.00000
 205       14F+1        0.00000   0.00000   0.00000   0.00000  -0.00001
 206       14F-1        0.00000   0.00000  -0.00001   0.00000   0.00000
 207       14F+2        0.00000   0.00001   0.00000   0.00002   0.00000
 208       14F-2        0.00000   0.00000   0.00000   0.00000   0.00000
 209       14F+3        0.00000   0.00000   0.00000   0.00000  -0.00001
 210       14F-3        0.00000   0.00000   0.00000   0.00000   0.00000
                          16        17        18        19        20
     Eigenvalues --     2.00000   2.00000   2.00000   2.00000   2.00000
   1 1   C  1S          0.00000   0.00000   0.00153   0.00000   0.00005
   2        2S          0.00000   0.00000  -0.00001   0.00000   0.00000
   3        3S          0.00000   0.00000   0.00006   0.00000   0.00000
   4        4S          0.00000   0.00000   0.00007   0.00000   0.00001
   5        5S          0.00000   0.00000   0.00007   0.00000   0.00000
   6        6PX         0.00000   0.00000   0.00000   0.00000   0.00000
   7        6PY         0.00000   0.00000   0.00000   0.00000   0.00000
   8        6PZ         0.00000   0.00000   0.00000   0.00000   0.00000
   9        7PX         0.00000   0.00000   0.00000   0.00000   0.00000
  10        7PY         0.00000  -0.00002   0.00000   0.00000   0.00000
  11        7PZ         0.00000   0.00000  -0.00001   0.00000   0.00000
  12        8PX         0.00000   0.00000   0.00000   0.00000   0.00000
  13        8PY        -0.00001   0.00001   0.00000  -0.00001   0.00000
  14        8PZ         0.00000   0.00000  -0.00001   0.00000  -0.00001
  15        9PX         0.00000   0.00000   0.00000   0.00000   0.00000
  16        9PY         0.00000   0.00002   0.00000   0.00000   0.00000
  17        9PZ         0.00000   0.00000   0.00000   0.00000   0.00000
  18       10D 0        0.00000   0.00000   0.00000   0.00000   0.00000
  19       10D+1        0.00000   0.00000   0.00000   0.00000   0.00000
  20       10D-1        0.00000   0.00000   0.00000   0.00000   0.00000
  21       10D+2        0.00000   0.00000   0.00000   0.00000   0.00000
  22       10D-2       -0.00001   0.00000   0.00000   0.00000   0.00000
  23       11D 0        0.00000   0.00000   0.00000   0.00000   0.00000
  24       11D+1        0.00000   0.00000   0.00000   0.00000   0.00000
  25       11D-1        0.00000   0.00002   0.00000   0.00000   0.00000
  26       11D+2        0.00000   0.00000  -0.00001   0.00000   0.00000
  27       11D-2        0.00004   0.00000   0.00000   0.00000   0.00000
  28       12D 0        0.00000   0.00000   0.00002   0.00000   0.00000
  29       12D+1        0.00000   0.00000   0.00000   0.00000   0.00000
  30       12D-1        0.00000   0.00004   0.00000   0.00000   0.00000
  31       12D+2        0.00000   0.00000  -0.00001   0.00000   0.00000
  32       12D-2       -0.00004   0.00000   0.00000   0.00000   0.00000
  33       13F 0        0.00000   0.00000   0.00000   0.00000   0.00000
  34       13F+1        0.00000   0.00000   0.00000   0.00000   0.00000
  35       13F-1        0.00000   0.00000   0.00000   0.00000   0.00000
  36       13F+2        0.00000   0.00000   0.00000   0.00000   0.00000
  37       13F-2        0.00000   0.00000   0.00000   0.00000   0.00000
  38       13F+3        0.00000   0.00000   0.00000   0.00000   0.00000
  39       13F-3        0.00000   0.00000   0.00000   0.00000   0.00000
  40       14F 0        0.00000   0.00000  -0.00001   0.00000   0.00000
  41       14F+1        0.00000   0.00000   0.00000   0.00000   0.00000
  42       14F-1        0.00000   0.00002   0.00000   0.00000   0.00000
  43       14F+2        0.00000   0.00000   0.00000   0.00000   0.00000
  44       14F-2       -0.00003   0.00000   0.00000   0.00000   0.00000
  45       14F+3        0.00000   0.00000   0.00000   0.00000   0.00000
  46       14F-3        0.00000   0.00001   0.00000   0.00000   0.00000
  47 2   Br 1S          0.00001  -0.21813  -0.22075   0.66437   0.74542
  48        2S         -0.00002   0.70634   0.71711   0.00386   0.00302
  49        3S         -0.00001   0.03012   0.03104   0.00053   0.00051
  50        4S          0.00000  -0.00020  -0.00019   0.00001   0.00001
  51        5S          0.00000   0.00071   0.00074   0.00000   0.00000
  52        6S          0.00000   0.00004   0.00003  -0.00002  -0.00001
  53        7S          0.00000   0.00004  -0.00002   0.00000   0.00000
  54        8PX         0.71318  -0.00002  -0.00005  -0.00001  -0.00001
  55        8PY         0.00142  -0.15289  -0.10618   0.00227   0.00057
  56        8PZ        -0.00298  -0.08295  -0.06534   0.00026   0.00005
  57        9PX        -0.01661   0.00001   0.00000   0.00000   0.00000
  58        9PY        -0.00006   0.00252   0.00307  -0.00009  -0.00015
  59        9PZ         0.00005   0.00125   0.00180  -0.00004  -0.00006
  60       10PX         0.00029   0.00000   0.00000   0.00000   0.00000
  61       10PY         0.00000  -0.00008  -0.00006   0.00000   0.00000
  62       10PZ         0.00000  -0.00005  -0.00004   0.00000   0.00000
  63       11PX        -0.00124   0.00000   0.00000   0.00000   0.00000
  64       11PY         0.00000   0.00024   0.00023   0.00000  -0.00001
  65       11PZ         0.00000   0.00013   0.00013   0.00000   0.00000
  66       12PX        -0.00013   0.00000   0.00000   0.00000   0.00000
  67       12PY         0.00000   0.00006   0.00001  -0.00001   0.00000
  68       12PZ         0.00000   0.00003   0.00002   0.00000   0.00000
  69       13PX         0.00003   0.00000   0.00000   0.00000   0.00000
  70       13PY         0.00000   0.00000  -0.00001   0.00000   0.00000
  71       13PZ         0.00000   0.00000   0.00000   0.00000   0.00000
  72       14D 0        0.00000  -0.00003  -0.00004   0.00000   0.00000
  73       14D+1       -0.00004   0.00000   0.00000   0.00000   0.00000
  74       14D-1        0.00000   0.00001   0.00000   0.00000   0.00000
  75       14D+2        0.00000   0.00007   0.00007   0.00000   0.00000
  76       14D-2       -0.00011   0.00000   0.00000   0.00000   0.00000
  77       15D 0        0.00000   0.00000   0.00000   0.00000   0.00000
  78       15D+1       -0.00001   0.00000   0.00000   0.00000   0.00000
  79       15D-1        0.00000   0.00000   0.00000   0.00000   0.00000
  80       15D+2        0.00000   0.00000   0.00000   0.00000   0.00000
  81       15D-2       -0.00002   0.00000   0.00000   0.00000   0.00000
  82       16D 0        0.00000  -0.00001   0.00000   0.00000   0.00000
  83       16D+1        0.00002   0.00000   0.00000   0.00000   0.00000
  84       16D-1        0.00000  -0.00001  -0.00001   0.00000   0.00000
  85       16D+2        0.00000   0.00001   0.00001   0.00000   0.00000
  86       16D-2        0.00003   0.00000   0.00000   0.00000   0.00000
  87       17D 0        0.00000   0.00000   0.00000   0.00000   0.00000
  88       17D+1       -0.00002   0.00000   0.00000   0.00000   0.00000
  89       17D-1        0.00000   0.00001   0.00001   0.00000   0.00000
  90       17D+2        0.00000  -0.00002   0.00000   0.00000   0.00000
  91       17D-2       -0.00002   0.00000   0.00000   0.00000   0.00000
  92       18F 0        0.00000   0.00000   0.00000   0.00000   0.00000
  93       18F+1        0.00000   0.00000   0.00000   0.00000   0.00000
  94       18F-1        0.00000   0.00000   0.00000   0.00000   0.00000
  95       18F+2        0.00000   0.00000   0.00000   0.00000   0.00000
  96       18F-2        0.00000   0.00000   0.00000   0.00000   0.00000
  97       18F+3        0.00000   0.00000   0.00000   0.00000   0.00000
  98       18F-3        0.00000   0.00000   0.00000   0.00000   0.00000
  99       19F 0        0.00000   0.00000   0.00000   0.00000   0.00000
 100       19F+1        0.00000   0.00000   0.00000   0.00000   0.00000
 101       19F-1        0.00000   0.00000   0.00000   0.00000   0.00000
 102       19F+2        0.00000   0.00000   0.00000   0.00000   0.00000
 103       19F-2        0.00001   0.00000   0.00000   0.00000   0.00000
 104       19F+3       -0.00001   0.00000   0.00000   0.00000   0.00000
 105       19F-3        0.00000   0.00000   0.00000   0.00000   0.00000
 106 3   Br 1S         -0.00001   0.21814  -0.22073  -0.74506   0.66477
 107        2S          0.00002  -0.70638   0.71708  -0.00417   0.00256
 108        3S          0.00001  -0.03012   0.03104  -0.00058   0.00045
 109        4S          0.00000   0.00020  -0.00019  -0.00001   0.00001
 110        5S          0.00000  -0.00071   0.00074   0.00000   0.00000
 111        6S          0.00000  -0.00004   0.00003   0.00002  -0.00001
 112        7S          0.00000  -0.00004  -0.00002   0.00000   0.00000
 113        8PX        -0.71319   0.00002  -0.00005   0.00001   0.00000
 114        8PY         0.00142  -0.15289   0.10618   0.00233  -0.00031
 115        8PZ         0.00298   0.08295  -0.06534  -0.00027   0.00002
 116        9PX         0.01662  -0.00001   0.00000   0.00000   0.00000
 117        9PY        -0.00006   0.00252  -0.00307  -0.00011   0.00014
 118        9PZ        -0.00005  -0.00125   0.00180   0.00005  -0.00005
 119       10PX        -0.00029   0.00000   0.00000   0.00000   0.00000
 120       10PY         0.00000  -0.00008   0.00006   0.00000   0.00000
 121       10PZ         0.00000   0.00005  -0.00004   0.00000   0.00000
 122       11PX         0.00124   0.00000   0.00000   0.00000   0.00000
 123       11PY         0.00000   0.00024  -0.00023  -0.00001   0.00001
 124       11PZ         0.00000  -0.00013   0.00013   0.00000   0.00000
 125       12PX         0.00013   0.00000   0.00000   0.00000   0.00000
 126       12PY         0.00000   0.00006  -0.00001  -0.00001   0.00000
 127       12PZ         0.00000  -0.00003   0.00002   0.00000   0.00000
 128       13PX        -0.00003   0.00000   0.00000   0.00000   0.00000
 129       13PY         0.00000   0.00000   0.00001   0.00000   0.00000
 130       13PZ         0.00000   0.00000   0.00000   0.00000   0.00000
 131       14D 0        0.00000   0.00003  -0.00004   0.00000   0.00000
 132       14D+1        0.00004   0.00000   0.00000   0.00000   0.00000
 133       14D-1        0.00000   0.00001   0.00000   0.00000   0.00000
 134       14D+2        0.00000  -0.00007   0.00007   0.00000   0.00000
 135       14D-2       -0.00011   0.00000   0.00000   0.00000   0.00000
 136       15D 0        0.00000   0.00000   0.00000   0.00000   0.00000
 137       15D+1        0.00001   0.00000   0.00000   0.00000   0.00000
 138       15D-1        0.00000   0.00000   0.00000   0.00000   0.00000
 139       15D+2        0.00000   0.00000   0.00000   0.00000   0.00000
 140       15D-2       -0.00002   0.00000   0.00000   0.00000   0.00000
 141       16D 0        0.00000   0.00001   0.00000   0.00000   0.00000
 142       16D+1       -0.00002   0.00000   0.00000   0.00000   0.00000
 143       16D-1        0.00000  -0.00001   0.00001   0.00000   0.00000
 144       16D+2        0.00000  -0.00001   0.00001   0.00000   0.00000
 145       16D-2        0.00003   0.00000   0.00000   0.00000   0.00000
 146       17D 0        0.00000   0.00000   0.00000   0.00000   0.00000
 147       17D+1        0.00002   0.00000   0.00000   0.00000   0.00000
 148       17D-1        0.00000   0.00001  -0.00001   0.00000   0.00000
 149       17D+2        0.00000   0.00002   0.00000   0.00000   0.00000
 150       17D-2       -0.00002   0.00000   0.00000   0.00000   0.00000
 151       18F 0        0.00000   0.00000   0.00000   0.00000   0.00000
 152       18F+1        0.00000   0.00000   0.00000   0.00000   0.00000
 153       18F-1        0.00000   0.00000   0.00000   0.00000   0.00000
 154       18F+2        0.00000   0.00000   0.00000   0.00000   0.00000
 155       18F-2        0.00000   0.00000   0.00000   0.00000   0.00000
 156       18F+3        0.00000   0.00000   0.00000   0.00000   0.00000
 157       18F-3        0.00000   0.00000   0.00000   0.00000   0.00000
 158       19F 0        0.00000   0.00000   0.00000   0.00000   0.00000
 159       19F+1        0.00000   0.00000   0.00000   0.00000   0.00000
 160       19F-1        0.00000   0.00000   0.00000   0.00000   0.00000
 161       19F+2        0.00000   0.00000   0.00000   0.00000   0.00000
 162       19F-2        0.00001   0.00000   0.00000   0.00000   0.00000
 163       19F+3        0.00001   0.00000   0.00000   0.00000   0.00000
 164       19F-3        0.00000   0.00000   0.00000   0.00000   0.00000
 165 4   O  1S          0.00000   0.00000   0.00061   0.00000   0.00000
 166        2S          0.00000   0.00000   0.00000   0.00000   0.00000
 167        3S          0.00000   0.00000   0.00003   0.00000   0.00000
 168        4S          0.00000   0.00000  -0.00002   0.00000   0.00000
 169        5S          0.00000   0.00000  -0.00005   0.00000   0.00001
 170        6PX         0.00000   0.00000   0.00000   0.00000   0.00000
 171        6PY         0.00000   0.00000   0.00000   0.00000   0.00000
 172        6PZ         0.00000   0.00000   0.00000   0.00000   0.00000
 173        7PX         0.00000   0.00000   0.00000   0.00000   0.00000
 174        7PY         0.00000   0.00000   0.00000   0.00000   0.00000
 175        7PZ         0.00000   0.00000   0.00001   0.00000   0.00000
 176        8PX         0.00000   0.00000   0.00000   0.00000   0.00000
 177        8PY         0.00000  -0.00003   0.00000   0.00000   0.00000
 178        8PZ         0.00000   0.00000   0.00001   0.00000   0.00000
 179        9PX         0.00000   0.00000   0.00000   0.00000   0.00000
 180        9PY         0.00000  -0.00001   0.00000   0.00000   0.00000
 181        9PZ         0.00000   0.00000   0.00001   0.00000   0.00000
 182       10D 0        0.00000   0.00000   0.00000   0.00000   0.00000
 183       10D+1        0.00000   0.00000   0.00000   0.00000   0.00000
 184       10D-1        0.00000   0.00000   0.00000   0.00000   0.00000
 185       10D+2        0.00000   0.00000   0.00000   0.00000   0.00000
 186       10D-2        0.00000   0.00000   0.00000   0.00000   0.00000
 187       11D 0        0.00000   0.00000   0.00000   0.00000   0.00000
 188       11D+1        0.00000   0.00000   0.00000   0.00000   0.00000
 189       11D-1        0.00000   0.00000   0.00000   0.00000   0.00000
 190       11D+2        0.00000   0.00000   0.00000   0.00000   0.00000
 191       11D-2        0.00000   0.00000   0.00000   0.00000   0.00000
 192       12D 0        0.00000   0.00000   0.00001   0.00000   0.00000
[...]
 190       11D+2       -0.00555  -0.00531   0.00000  -0.09844  -0.03697
 191       11D-2        0.00000   0.00000   0.00289   0.00000   0.00000
 192       12D 0        4.61347  -0.04032   0.00000  -1.29162   0.77421
 193       12D+1        0.07261   2.06520   0.00000  -0.03497   0.00226
 194       12D-1        0.00000   0.00000  -0.24058   0.00000   0.00000
 195       12D+2       -0.55130   0.03531   0.00000   0.56044   0.04948
 196       12D-2        0.00000   0.00000  -0.00677   0.00000   0.00000
 197       13F 0        0.02111  -0.00025   0.00000   0.01587  -0.04615
 198       13F+1        0.00173   0.01867   0.00000  -0.00011  -0.00137
 199       13F-1        0.00000   0.00000   0.04812   0.00000   0.00000
 200       13F+2       -0.05390   0.00073   0.00000   0.02454  -0.01352
 201       13F-2        0.00000   0.00000   0.00079   0.00000   0.00000
 202       13F+3       -0.00117   0.00452   0.00000   0.00047   0.00170
 203       13F-3        0.00000   0.00000  -0.02861   0.00000   0.00000
 204       14F 0       -1.28720   0.00387   0.00000   0.17072   0.01117
 205       14F+1       -0.02967  -0.15200   0.00000   0.00797   0.01880
 206       14F-1        0.00000   0.00000  -0.12702   0.00000   0.00000
 207       14F+2        0.19339  -0.00479   0.00000  -0.09985   0.04648
 208       14F-2        0.00000   0.00000  -0.00157   0.00000   0.00000
 209       14F+3        0.00390   0.00256   0.00000  -0.00144  -0.00270
 210       14F-3        0.00000   0.00000   0.05956   0.00000   0.00000
                         206       207       208       209       210
     Eigenvalues --     0.00000   0.00000   0.00000   0.00000   0.00000
   1 1   C  1S          0.03845   0.00000   0.00000   0.21898   0.00112
   2        2S          0.20446   0.00000   0.00000   1.25581   0.04438
   3        3S         -0.01084   0.00000   0.00000   0.00694   0.11076
   4        4S         -0.14653   0.00000   0.00000   9.31778   3.54727
   5        5S         -0.99099   0.00000   0.00000   3.63640  31.40677
   6        6PX         0.00378   0.00000   0.00000  -0.00001   0.00050
   7        6PY         0.00000  -0.00115   0.00559   0.00000   0.00000
   8        6PZ         0.00000   0.00000   0.00000   0.01346   0.01073
   9        7PX        -0.31546   0.00000   0.00000   0.01184   0.00077
  10        7PY         0.00000  -0.24501  -0.12903   0.00000   0.00000
  11        7PZ         0.05580   0.00000   0.00000   1.35303   0.07145
  12        8PX        -0.30935   0.00000   0.00000   0.03616   0.01142
  13        8PY         0.00000  -5.55045   6.86509   0.00000   0.00000
  14        8PZ         0.57804   0.00000   0.00000   5.43477  -0.01760
  15        9PX         6.29828   0.00000   0.00000   0.02301   0.01819
  16        9PY         0.00000  -0.36872  13.99855   0.00000   0.00000
  17        9PZ        -0.14112   0.00000   0.00000   5.90211  -3.83414
  18       10D 0        0.00186   0.00000   0.00000   0.08532   0.02117
  19       10D+1       -0.00680   0.00000   0.00000   0.00154   0.00049
  20       10D-1        0.00000   0.00799   0.02142   0.00000   0.00000
  21       10D+2       -0.00177   0.00000   0.00000  -0.00539  -0.04829
  22       10D-2        0.00000   0.00012  -0.00002   0.00000   0.00000
  23       11D 0        0.02734   0.00000   0.00000   0.59423  -0.21152
  24       11D+1       -0.43912   0.00000   0.00000   0.00679  -0.00012
  25       11D-1        0.00000  -0.13758  -0.69660   0.00000   0.00000
  26       11D+2        0.00991   0.00000   0.00000   0.01835   0.18848
  27       11D-2        0.00000  -0.00295  -0.00122   0.00000   0.00000
  28       12D 0       -0.00329   0.00000   0.00000   3.51311   0.24186
  29       12D+1        0.90594   0.00000   0.00000   0.02515   0.00792
  30       12D-1        0.00000  -0.18879  -0.39586   0.00000   0.00000
  31       12D+2        0.27664   0.00000   0.00000   1.39448  -1.02261
  32       12D-2        0.00000  -0.00549   0.03100   0.00000   0.00000
  33       13F 0        0.01042   0.00000   0.00000   0.05147  -0.04527
  34       13F+1       -0.11974   0.00000   0.00000   0.00089   0.00012
  35       13F-1        0.00000  -0.01565  -0.06215   0.00000   0.00000
  36       13F+2       -0.00117   0.00000   0.00000  -0.00236   0.00538
  37       13F-2        0.00000  -0.00058  -0.00097   0.00000   0.00000
  38       13F+3        0.05191   0.00000   0.00000  -0.00035  -0.00006
  39       13F-3        0.00000   0.04627  -0.00098   0.00000   0.00000
  40       14F 0       -0.02542   0.00000   0.00000  -0.01529  -0.09261
  41       14F+1       -0.04781   0.00000   0.00000  -0.00108  -0.00059
  42       14F-1        0.00000  -0.01045  -0.01987   0.00000   0.00000
  43       14F+2       -0.02442   0.00000   0.00000   0.12730  -0.17139
  44       14F-2        0.00000  -0.00026  -0.00155   0.00000   0.00000
  45       14F+3       -0.03124   0.00000   0.00000   0.00153  -0.00021
  46       14F-3        0.00000  -0.06790  -0.10921   0.00000   0.00000
  47 2   Br 1S         -0.00039   0.00217  -0.00003  -0.00001   0.00009
  48        2S         -0.00260   0.01659  -0.00341  -0.00116   0.00068
  49        3S         -0.01307   0.07735  -0.00829  -0.00279   0.00321
  50        4S         -0.03530   0.22739  -0.05583  -0.01410   0.01047
  51        5S         -0.01280   0.09013  -0.15558  -0.00281  -0.00238
  52        6S          0.47373  -0.73880   1.90353   0.84504   0.04801
  53        7S          0.57412  -9.98465  14.90556   2.10009 -13.48993
  54        8PX         0.00162   0.00000   0.00000   0.00000   0.00000
  55        8PY         0.00044   0.00098   0.00059   0.00064  -0.00039
  56        8PZ         0.00008   0.00059  -0.00003   0.00044   0.00005
  57        9PX        -0.02001  -0.00001  -0.00011   0.00001  -0.00001
  58        9PY        -0.00145   0.01662   0.00331  -0.00845   0.02557
  59        9PZ         0.00007   0.00146   0.01303  -0.00974   0.01480
  60       10PX        -0.15312  -0.00003  -0.00107   0.00024  -0.00027
  61       10PY         0.00517   0.24639   0.06929  -0.06631   0.28080
  62       10PZ         0.00554   0.05042   0.15033  -0.09189   0.17663
  63       11PX         0.04489   0.00004   0.00017  -0.00001   0.00000
  64       11PY         0.00762   0.00127  -0.00424   0.01863  -0.03516
  65       11PZ         0.00170   0.01553  -0.02350   0.01464  -0.01587
  66       12PX         0.65541  -0.00342   0.01844   0.00385   0.00267
  67       12PY         0.35218  -3.69544   3.70925  -0.34967  -1.67409
  68       12PZ         0.27140  -2.35389   2.54071   1.58577  -1.31246
  69       13PX        -2.43219  -0.00270  -0.00595  -0.00765  -0.00349
  70       13PY        -0.02410  -3.82780   0.39338   0.83621  -3.66179
  71       13PZ         0.14876  -0.93424   2.85273  -0.92394  -2.17406
  72       14D 0       -0.00015  -0.00091  -0.00060   0.00118  -0.00097
  73       14D+1        0.00231   0.00000   0.00001   0.00001   0.00000
  74       14D-1       -0.00010   0.00087  -0.00020  -0.00129   0.00114
  75       14D+2        0.00000  -0.00345  -0.00108   0.00224   0.00021
  76       14D-2        0.00098   0.00000  -0.00001   0.00001   0.00000
  77       15D 0        0.00289   0.01490   0.00434  -0.01453   0.01322
  78       15D+1       -0.02778  -0.00004  -0.00025  -0.00005   0.00007
  79       15D-1        0.00068   0.00207  -0.01502   0.00885  -0.01737
  80       15D+2        0.00168   0.03674   0.02470  -0.02375  -0.00134
  81       15D-2       -0.02111   0.00002  -0.00004  -0.00008   0.00003
  82       16D 0       -0.01803  -0.09787  -0.00356   0.08814  -0.07458
  83       16D+1        0.11060   0.00010   0.00140   0.00048  -0.00049
  84       16D-1        0.01872  -0.02873   0.30065  -0.05034   0.16950
  85       16D+2       -0.02664  -0.19692  -0.27206   0.14439  -0.05872
  86       16D-2        0.09904  -0.00022   0.00055   0.00083  -0.00023
  87       17D 0        0.06135   0.17260   0.16583   0.32917   0.03883
  88       17D+1       -0.21819  -0.00238   0.00447  -0.00291   0.00136
  89       17D-1        0.06459  -1.41662   1.10168   0.29429  -0.75147
  90       17D+2       -0.02785   1.77101  -0.51234   0.24915   0.34904
  91       17D-2       -0.02750  -0.00174   0.00751   0.00154   0.00175
  92       18F 0       -0.00304   0.00480   0.01923  -0.01481  -0.00453
  93       18F+1       -0.00923   0.00006  -0.00003   0.00017  -0.00014
  94       18F-1        0.00245   0.02795  -0.02450   0.00084   0.00693
  95       18F+2       -0.00215  -0.04203   0.01315  -0.01464  -0.00847
  96       18F-2       -0.01297   0.00001  -0.00065   0.00041  -0.00013
  97       18F+3        0.04977  -0.00002   0.00025   0.00023   0.00014
  98       18F-3        0.00283  -0.03987   0.01438  -0.01972  -0.01204
  99       19F 0        0.00430   0.02252  -0.10651   0.03110  -0.00988
 100       19F+1        0.00600  -0.00021   0.00030  -0.00088   0.00021
 101       19F-1       -0.00268  -0.10902   0.13207   0.02713  -0.02975
 102       19F+2       -0.00060   0.17818  -0.16408   0.05212   0.01751
 103       19F-2        0.02033  -0.00037   0.00227  -0.00115   0.00016
 104       19F+3       -0.11032   0.00026  -0.00122  -0.00112  -0.00039
 105       19F-3       -0.00843   0.16984  -0.10690   0.09921   0.02261
 106 3   Br 1S         -0.00039  -0.00217   0.00003  -0.00001   0.00009
 107        2S         -0.00260  -0.01659   0.00341  -0.00116   0.00068
 108        3S         -0.01307  -0.07735   0.00829  -0.00279   0.00321
 109        4S         -0.03530  -0.22739   0.05583  -0.01410   0.01047
 110        5S         -0.01280  -0.09013   0.15558  -0.00281  -0.00238
 111        6S          0.47373   0.73880  -1.90353   0.84504   0.04801
 112        7S          0.57412   9.98465 -14.90556   2.10009 -13.48993
 113        8PX         0.00162   0.00000   0.00000   0.00000   0.00000
 114        8PY        -0.00044   0.00098   0.00059  -0.00064   0.00039
 115        8PZ         0.00008  -0.00059   0.00003   0.00044   0.00005
 116        9PX        -0.02001   0.00001   0.00011   0.00001  -0.00001
 117        9PY         0.00145   0.01662   0.00331   0.00845  -0.02557
 118        9PZ         0.00007  -0.00146  -0.01303  -0.00974   0.01480
 119       10PX        -0.15312   0.00003   0.00107   0.00024  -0.00027
 120       10PY        -0.00517   0.24639   0.06929   0.06631  -0.28080
 121       10PZ         0.00554  -0.05042  -0.15033  -0.09189   0.17663
 122       11PX         0.04489  -0.00004  -0.00017  -0.00001   0.00000
 123       11PY        -0.00762   0.00127  -0.00424  -0.01863   0.03516
 124       11PZ         0.00170  -0.01553   0.02350   0.01464  -0.01587
 125       12PX         0.65541   0.00342  -0.01844   0.00385   0.00267
 126       12PY        -0.35218  -3.69544   3.70925   0.34967   1.67409
 127       12PZ         0.27140   2.35389  -2.54071   1.58577  -1.31246
 128       13PX        -2.43219   0.00270   0.00595  -0.00765  -0.00349
 129       13PY         0.02410  -3.82780   0.39338  -0.83621   3.66179
 130       13PZ         0.14876   0.93424  -2.85273  -0.92394  -2.17406
 131       14D 0       -0.00015   0.00091   0.00060   0.00118  -0.00097
 132       14D+1        0.00231   0.00000  -0.00001   0.00001   0.00000
 133       14D-1        0.00010   0.00087  -0.00020   0.00129  -0.00114
 134       14D+2        0.00000   0.00345   0.00108   0.00224   0.00021
 135       14D-2       -0.00098   0.00000  -0.00001  -0.00001   0.00000
 136       15D 0        0.00289  -0.01490  -0.00434  -0.01453   0.01322
 137       15D+1       -0.02778   0.00004   0.00025  -0.00005   0.00007
 138       15D-1       -0.00068   0.00207  -0.01502  -0.00885   0.01737
 139       15D+2        0.00168  -0.03674  -0.02470  -0.02375  -0.00134
 140       15D-2        0.02111   0.00002  -0.00004   0.00008  -0.00003
 141       16D 0       -0.01803   0.09787   0.00356   0.08814  -0.07458
 142       16D+1        0.11060  -0.00010  -0.00140   0.00048  -0.00049
 143       16D-1       -0.01872  -0.02873   0.30065   0.05034  -0.16950
 144       16D+2       -0.02664   0.19692   0.27206   0.14439  -0.05872
 145       16D-2       -0.09904  -0.00022   0.00055  -0.00083   0.00023
 146       17D 0        0.06135  -0.17260  -0.16583   0.32917   0.03883
 147       17D+1       -0.21819   0.00238  -0.00447  -0.00291   0.00136
 148       17D-1       -0.06459  -1.41662   1.10168  -0.29429   0.75147
 149       17D+2       -0.02785  -1.77101   0.51234   0.24915   0.34904
 150       17D-2        0.02750  -0.00174   0.00751  -0.00154  -0.00175
 151       18F 0       -0.00304  -0.00480  -0.01923  -0.01481  -0.00453
 152       18F+1       -0.00923  -0.00006   0.00003   0.00017  -0.00014
 153       18F-1       -0.00245   0.02795  -0.02450  -0.00084  -0.00693
 154       18F+2       -0.00215   0.04203  -0.01315  -0.01464  -0.00847
 155       18F-2        0.01297   0.00001  -0.00065  -0.00041   0.00013
 156       18F+3        0.04977   0.00002  -0.00025   0.00023   0.00014
 157       18F-3       -0.00283  -0.03987   0.01438   0.01972   0.01204
 158       19F 0        0.00430  -0.02252   0.10651   0.03110  -0.00988
 159       19F+1        0.00600   0.00021  -0.00030  -0.00088   0.00021
 160       19F-1        0.00268  -0.10902   0.13207  -0.02713   0.02975
 161       19F+2       -0.00060  -0.17818   0.16408   0.05212   0.01751
 162       19F-2       -0.02033  -0.00037   0.00227   0.00115  -0.00016
 163       19F+3       -0.11032  -0.00026   0.00122  -0.00112  -0.00039
 164       19F-3        0.00843   0.16984  -0.10690  -0.09921  -0.02261
 165 4   O  1S          0.00797   0.00000   0.00000   0.09945   0.02960
 166        2S          0.03766   0.00000   0.00000   0.52314   0.15483
 167        3S         -0.00385   0.00000   0.00000   0.00491  -0.00584
 168        4S         -0.21428   0.00000   0.00000  -6.19756   0.01763
 169        5S         -0.57016   0.00000   0.00000 -15.14674  -8.04536
 170        6PX         0.01930   0.00000   0.00000  -0.00003   0.00022
 171        6PY         0.00000   0.01526   0.00273   0.00000   0.00000
 172        6PZ        -0.00186   0.00000   0.00000  -0.00527   0.01151
 173        7PX        -0.03489   0.00000   0.00000   0.00083  -0.00193
 174        7PY         0.00000  -0.07988   0.03679   0.00000   0.00000
 175        7PZ         0.01068   0.00000   0.00000   0.14085  -0.13509
 176        8PX         0.79040   0.00000   0.00000   0.03722   0.00386
 177        8PY         0.00000   1.01609   0.12980   0.00000   0.00000
 178        8PZ         0.17658   0.00000   0.00000   3.76192   0.67432
 179        9PX        -3.45453   0.00000   0.00000   0.03017   0.01213
 180        9PY         0.00000  -0.78382  -3.69425   0.00000   0.00000
 181        9PZ         0.48153   0.00000   0.00000   0.27482   1.67594
 182       10D 0       -0.00467   0.00000   0.00000   0.05475   0.01251
 183       10D+1        0.03550   0.00000   0.00000   0.00065  -0.00001
 184       10D-1        0.00000   0.00144   0.03697   0.00000   0.00000
 185       10D+2       -0.00083   0.00000   0.00000  -0.02697  -0.01072
 186       10D-2        0.00000  -0.00031   0.00018   0.00000   0.00000
 187       11D 0        0.00364   0.00000   0.00000  -0.40236  -0.02893
 188       11D+1       -0.23748   0.00000   0.00000  -0.00539   0.00104
 189       11D-1        0.00000  -0.03550  -0.20753   0.00000   0.00000
 190       11D+2        0.00329   0.00000   0.00000   0.07718   0.03415
 191       11D-2        0.00000   0.00074  -0.00118   0.00000   0.00000
 192       12D 0       -0.08966   0.00000   0.00000  -0.49829  -0.18921
 193       12D+1       -0.09218   0.00000   0.00000  -0.00943  -0.00249
 194       12D-1        0.00000  -0.30740   0.15528   0.00000   0.00000
 195       12D+2       -0.01356   0.00000   0.00000  -0.37666   0.05725
 196       12D-2        0.00000  -0.00483  -0.00148   0.00000   0.00000
 197       13F 0        0.00482   0.00000   0.00000   0.01821  -0.01332
 198       13F+1       -0.00531   0.00000   0.00000   0.00064  -0.00038
 199       13F-1        0.00000  -0.01476  -0.00258   0.00000   0.00000
 200       13F+2        0.00107   0.00000   0.00000  -0.01312   0.01478
 201       13F-2        0.00000  -0.00009  -0.00035   0.00000   0.00000
 202       13F+3        0.01399   0.00000   0.00000  -0.00044   0.00038
 203       13F-3        0.00000  -0.00984   0.01627   0.00000   0.00000
 204       14F 0       -0.00309   0.00000   0.00000   0.14355   0.06401
 205       14F+1        0.16905   0.00000   0.00000   0.00236   0.00061
 206       14F-1        0.00000   0.07266   0.09692   0.00000   0.00000
 207       14F+2       -0.00139   0.00000   0.00000   0.05863  -0.03814
 208       14F-2        0.00000   0.00070   0.00193   0.00000   0.00000
 209       14F+3       -0.02549   0.00000   0.00000   0.00117  -0.00100
 210       14F-3        0.00000   0.02498  -0.02837   0.00000   0.00000
          Condensed to atoms (all electrons):
              1          2          3          4
     1  C    5.559275   0.025716   0.025716   0.239627
     2  Br   0.025716  35.045278  -0.118487  -0.056241
     3  Br   0.025716  -0.118487  35.045278  -0.056241
     4  O    0.239627  -0.056241  -0.056241   8.229992
 Mulliken atomic charges:
              1
     1  C    0.149666
     2  Br   0.103735
     3  Br   0.103735
     4  O   -0.357136
 Sum of Mulliken atomic charges =   0.00000
 Mulliken charges with hydrogens summed into heavy atoms:
              1
     1  C    0.149666
     2  Br   0.103735
     3  Br   0.103735
     4  O   -0.357136
 Sum of Mulliken charges with hydrogens summed into heavy atoms =   0.00000
 Electronic spatial extent (au):  <R**2>=           1355.6188
 Charge=              0.0000 electrons
 Dipole moment (field-independent basis, Debye):
    X=             -0.0084    Y=              0.0000    Z=             -1.2406  Tot=              1.2406
 Quadrupole moment (field-independent basis, Debye-Ang):
   XX=            -46.9635   YY=            -44.9354   ZZ=            -47.5250
   XY=              0.0000   XZ=             -0.0227   YZ=              0.0000
 Traceless Quadrupole moment (field-independent basis, Debye-Ang):
   XX=             -0.4889   YY=              1.5392   ZZ=             -1.0503
   XY=              0.0000   XZ=             -0.0227   YZ=              0.0000
 Octapole moment (field-independent basis, Debye-Ang**2):
  XXX=             -0.1434  YYY=              0.0000  ZZZ=            164.8152  XYY=             -0.0302
  XXY=              0.0000  XXZ=             56.3133  XZZ=             -0.0309  YZZ=              0.0000
  YYZ=             45.7163  XYZ=              0.0000
 Hexadecapole moment (field-independent basis, Debye-Ang**3):
 XXXX=            -53.7005 YYYY=           -570.9326 ZZZZ=           -597.1000 XXXY=              0.0000
 XXXZ=             -0.1282 YYYX=              0.0000 YYYZ=              0.0000 ZZZX=             -0.1893
 ZZZY=              0.0000 XXYY=           -111.3608 XXZZ=           -110.4168 YYZZ=           -175.0956
 XXYZ=              0.0000 YYXZ=             -0.0923 ZZXY=              0.0000
 N-N= 4.492308221162D+02 E-N=-1.347021894482D+04  KE= 5.257230023608D+03
 1\1\GINC-TRAPISTA\SP\RQCISD-FC\Aug-CC-pVTZ\C1Br2O1\BRUNS\28-Nov-2021\0
 \\# qcisd/aug-cc-pvtz nosymm density=current output=wfn\\br2co-wavefun
 ction\\0,1\C,0,0.,0.,-0.491759\Br,0,0.,-1.594181,-1.54682\Br,0,0.,1.59
 4181,-1.54682\O,0,0.01,0.,0.6845\\Version=EM64L-G09RevB.01\HF=-5257.68
 45402\MP2=-5258.5486071\MP3=-5258.5484654\MP4D=-5258.5696763\MP4DQ=-52
 58.5481967\MP4SDQ=-5258.5601644\QCISD=-5258.5577647\RMSD=9.215e-09\Dip
 ole=-0.0032929,0.,-0.4880889\Quadrupole=-0.3634584,1.1443674,-0.780909
 1,0.,-0.0168537,0.\PG=CS [SG(C1O1),X(Br2)]\\@

 Writing a WFN file to GAUSSIAN.wfn.


 IN THE UNIVERSE THE DIFFICULT THINGS ARE DONE AS IF THEY WERE EASY.

                                                          -- LAO-TSU
 Job cpu time:  0 days  5 hours 46 minutes 38.2 seconds.
 File lengths (MBytes):  RWF=  23799 Int=      0 D2E=      0 Chk=      4 Scr=      1
 Normal termination of Gaussian 09 at Sun Nov 28 19:29:14 2021.
