 br2co-wavefunction
GAUSSIAN            210 MOL ORBITALS    578 PRIMITIVES        4 NUCLEI
  C    1    (CENTRE  1)   0.00000000  0.00000000 -0.92928983  CHARGE =  6.0
  Br   2    (CENTRE  2)   0.00000000 -3.01256550 -2.92306618  CHARGE = 35.0
  Br   3    (CENTRE  3)   0.00000000  3.01256550 -2.92306618  CHARGE = 35.0
  O    4    (CENTRE  4)  -0.01889726  0.00000000  1.29351754  CHARGE =  8.0
CENTRE ASSIGNMENTS    1  1  1  1  1  1  1  1  1  1  1  1  1  1  1  1  1  1  1  1
CENTRE ASSIGNMENTS    1  1  1  1  1  1  1  1  1  1  1  1  1  1  1  1  1  1  1  1
CENTRE ASSIGNMENTS    1  1  1  1  1  1  1  1  1  1  1  1  1  1  1  1  1  1  1  1
CENTRE ASSIGNMENTS    1  1  1  1  1  1  1  1  1  1  1  1  2  2  2  2  2  2  2  2
CENTRE ASSIGNMENTS    2  2  2  2  2  2  2  2  2  2  2  2  2  2  2  2  2  2  2  2
CENTRE ASSIGNMENTS    2  2  2  2  2  2  2  2  2  2  2  2  2  2  2  2  2  2  2  2
CENTRE ASSIGNMENTS    2  2  2  2  2  2  2  2  2  2  2  2  2  2  2  2  2  2  2  2
CENTRE ASSIGNMENTS    2  2  2  2  2  2  2  2  2  2  2  2  2  2  2  2  2  2  2  2
CENTRE ASSIGNMENTS    2  2  2  2  2  2  2  2  2  2  2  2  2  2  2  2  2  2  2  2
CENTRE ASSIGNMENTS    2  2  2  2  2  2  2  2  2  2  2  2  2  2  2  2  2  2  2  2
CENTRE ASSIGNMENTS    2  2  2  2  2  2  2  2  2  2  2  2  2  2  2  2  2  2  2  2
CENTRE ASSIGNMENTS    2  2  2  2  2  2  2  2  2  2  2  2  2  2  2  2  2  2  2  2
CENTRE ASSIGNMENTS    2  2  2  2  2  2  2  2  2  2  2  2  2  2  2  2  2  2  2  2
CENTRE ASSIGNMENTS    2  2  2  2  2  2  2  2  2  2  2  2  2  2  2  2  2  2  2  2
CENTRE ASSIGNMENTS    2  2  2  2  2  2  2  2  2  3  3  3  3  3  3  3  3  3  3  3
CENTRE ASSIGNMENTS    3  3  3  3  3  3  3  3  3  3  3  3  3  3  3  3  3  3  3  3
CENTRE ASSIGNMENTS    3  3  3  3  3  3  3  3  3  3  3  3  3  3  3  3  3  3  3  3
CENTRE ASSIGNMENTS    3  3  3  3  3  3  3  3  3  3  3  3  3  3  3  3  3  3  3  3
CENTRE ASSIGNMENTS    3  3  3  3  3  3  3  3  3  3  3  3  3  3  3  3  3  3  3  3
CENTRE ASSIGNMENTS    3  3  3  3  3  3  3  3  3  3  3  3  3  3  3  3  3  3  3  3
CENTRE ASSIGNMENTS    3  3  3  3  3  3  3  3  3  3  3  3  3  3  3  3  3  3  3  3
CENTRE ASSIGNMENTS    3  3  3  3  3  3  3  3  3  3  3  3  3  3  3  3  3  3  3  3
CENTRE ASSIGNMENTS    3  3  3  3  3  3  3  3  3  3  3  3  3  3  3  3  3  3  3  3
CENTRE ASSIGNMENTS    3  3  3  3  3  3  3  3  3  3  3  3  3  3  3  3  3  3  3  3
CENTRE ASSIGNMENTS    3  3  3  3  3  3  3  3  3  3  3  3  3  3  3  3  3  3  3  3
CENTRE ASSIGNMENTS    3  3  3  3  3  3  4  4  4  4  4  4  4  4  4  4  4  4  4  4
CENTRE ASSIGNMENTS    4  4  4  4  4  4  4  4  4  4  4  4  4  4  4  4  4  4  4  4
CENTRE ASSIGNMENTS    4  4  4  4  4  4  4  4  4  4  4  4  4  4  4  4  4  4  4  4
CENTRE ASSIGNMENTS    4  4  4  4  4  4  4  4  4  4  4  4  4  4  4  4  4  4
TYPE ASSIGNMENTS      1  1  1  1  1  1  1  1  1  1  1  1  1  1  1  1  2  2  2  3
TYPE ASSIGNMENTS      3  3  4  4  4  2  3  4  2  3  4  2  3  4  5  6  7  8  9 10
TYPE ASSIGNMENTS      5  6  7  8  9 10  5  6  7  8  9 10 11 12 13 17 14 15 18 19
TYPE ASSIGNMENTS     16 20 11 12 13 17 14 15 18 19 16 20  1  1  1  1  1  1  1  1
TYPE ASSIGNMENTS      1  1  1  1  1  1  1  1  1  1  1  1  1  1  1  1  1  1  1  1
TYPE ASSIGNMENTS      1  1  1  1  1  1  1  1  1  1  1  1  1  1  1  1  1  1  1  1
TYPE ASSIGNMENTS      1  1  2  2  2  2  2  2  2  2  2  3  3  3  3  3  3  3  3  3
TYPE ASSIGNMENTS      4  4  4  4  4  4  4  4  4  2  2  2  2  2  2  2  2  2  3  3
TYPE ASSIGNMENTS      3  3  3  3  3  3  3  4  4  4  4  4  4  4  4  4  2  2  2  2
TYPE ASSIGNMENTS      2  2  2  2  3  3  3  3  3  3  3  3  4  4  4  4  4  4  4  4
TYPE ASSIGNMENTS      2  3  4  2  3  4  2  3  4  5  5  5  5  5  5  5  6  6  6  6
TYPE ASSIGNMENTS      6  6  6  7  7  7  7  7  7  7  8  8  8  8  8  8  8  9  9  9
TYPE ASSIGNMENTS      9  9  9  9 10 10 10 10 10 10 10  5  6  7  8  9 10  5  6  7
TYPE ASSIGNMENTS      8  9 10  5  6  7  8  9 10 11 12 13 17 14 15 18 19 16 20 11
TYPE ASSIGNMENTS     12 13 17 14 15 18 19 16 20  1  1  1  1  1  1  1  1  1  1  1
TYPE ASSIGNMENTS      1  1  1  1  1  1  1  1  1  1  1  1  1  1  1  1  1  1  1  1
TYPE ASSIGNMENTS      1  1  1  1  1  1  1  1  1  1  1  1  1  1  1  1  1  1  1  2
TYPE ASSIGNMENTS      2  2  2  2  2  2  2  2  3  3  3  3  3  3  3  3  3  4  4  4
TYPE ASSIGNMENTS      4  4  4  4  4  4  2  2  2  2  2  2  2  2  2  3  3  3  3  3
TYPE ASSIGNMENTS      3  3  3  3  4  4  4  4  4  4  4  4  4  2  2  2  2  2  2  2
TYPE ASSIGNMENTS      2  3  3  3  3  3  3  3  3  4  4  4  4  4  4  4  4  2  3  4
TYPE ASSIGNMENTS      2  3  4  2  3  4  5  5  5  5  5  5  5  6  6  6  6  6  6  6
TYPE ASSIGNMENTS      7  7  7  7  7  7  7  8  8  8  8  8  8  8  9  9  9  9  9  9
TYPE ASSIGNMENTS      9 10 10 10 10 10 10 10  5  6  7  8  9 10  5  6  7  8  9 10
TYPE ASSIGNMENTS      5  6  7  8  9 10 11 12 13 17 14 15 18 19 16 20 11 12 13 17
TYPE ASSIGNMENTS     14 15 18 19 16 20  1  1  1  1  1  1  1  1  1  1  1  1  1  1
TYPE ASSIGNMENTS      1  1  2  2  2  3  3  3  4  4  4  2  3  4  2  3  4  2  3  4
TYPE ASSIGNMENTS      5  6  7  8  9 10  5  6  7  8  9 10  5  6  7  8  9 10 11 12
TYPE ASSIGNMENTS     13 17 14 15 18 19 16 20 11 12 13 17 14 15 18 19 16 20
EXPONENTS  0.8236000D+04 0.1235000D+04 0.2808000D+03 0.7927000D+02 0.2559000D+02
EXPONENTS  0.8997000D+01 0.3319000D+01 0.2808000D+03 0.7927000D+02 0.2559000D+02
EXPONENTS  0.8997000D+01 0.3319000D+01 0.3643000D+00 0.9059000D+00 0.1285000D+00
EXPONENTS  0.4402000D-01 0.1871000D+02 0.4133000D+01 0.1200000D+01 0.1871000D+02
EXPONENTS  0.4133000D+01 0.1200000D+01 0.1871000D+02 0.4133000D+01 0.1200000D+01
EXPONENTS  0.3827000D+00 0.3827000D+00 0.3827000D+00 0.1209000D+00 0.1209000D+00
EXPONENTS  0.1209000D+00 0.3569000D-01 0.3569000D-01 0.3569000D-01 0.1097000D+01
EXPONENTS  0.1097000D+01 0.1097000D+01 0.1097000D+01 0.1097000D+01 0.1097000D+01
EXPONENTS  0.3180000D+00 0.3180000D+00 0.3180000D+00 0.3180000D+00 0.3180000D+00
EXPONENTS  0.3180000D+00 0.1000000D+00 0.1000000D+00 0.1000000D+00 0.1000000D+00
EXPONENTS  0.1000000D+00 0.1000000D+00 0.7610000D+00 0.7610000D+00 0.7610000D+00
EXPONENTS  0.7610000D+00 0.7610000D+00 0.7610000D+00 0.7610000D+00 0.7610000D+00
EXPONENTS  0.7610000D+00 0.7610000D+00 0.2680000D+00 0.2680000D+00 0.2680000D+00
EXPONENTS  0.2680000D+00 0.2680000D+00 0.2680000D+00 0.2680000D+00 0.2680000D+00
EXPONENTS  0.2680000D+00 0.2680000D+00 0.1063900D+08 0.1593400D+07 0.3626100D+06
EXPONENTS  0.1027000D+06 0.3350100D+05 0.1209300D+05 0.4715900D+04 0.1955600D+04
EXPONENTS  0.8526100D+03 0.3876700D+03 0.1826800D+03 0.8824500D+02 0.3926300D+02
EXPONENTS  0.9405700D+01 0.1899500D+01 0.3350100D+05 0.1209300D+05 0.4715900D+04
EXPONENTS  0.1955600D+04 0.8526100D+03 0.3876700D+03 0.1826800D+03 0.8824500D+02
EXPONENTS  0.3926300D+02 0.1923400D+02 0.9405700D+01 0.1899500D+01 0.4715900D+04
EXPONENTS  0.8526100D+03 0.3876700D+03 0.1826800D+03 0.8824500D+02 0.3926300D+02
EXPONENTS  0.1923400D+02 0.9405700D+01 0.4160100D+01 0.1899500D+01 0.4715900D+04
EXPONENTS  0.8526100D+03 0.3876700D+03 0.8824500D+02 0.3926300D+02 0.1923400D+02
EXPONENTS  0.9405700D+01 0.4160100D+01 0.1899500D+01 0.3011400D+00 0.6047200D+00
EXPONENTS  0.1251500D+00 0.4559300D-01 0.8676500D+04 0.2055900D+04 0.6662300D+03
EXPONENTS  0.2531000D+03 0.1061200D+03 0.4724200D+02 0.2182500D+02 0.9968400D+01
EXPONENTS  0.1998200D+01 0.8676500D+04 0.2055900D+04 0.6662300D+03 0.2531000D+03
EXPONENTS  0.1061200D+03 0.4724200D+02 0.2182500D+02 0.9968400D+01 0.1998200D+01
EXPONENTS  0.8676500D+04 0.2055900D+04 0.6662300D+03 0.2531000D+03 0.1061200D+03
EXPONENTS  0.4724200D+02 0.2182500D+02 0.9968400D+01 0.1998200D+01 0.8676500D+04
EXPONENTS  0.6662300D+03 0.2531000D+03 0.1061200D+03 0.4724200D+02 0.2182500D+02
EXPONENTS  0.9968400D+01 0.4517100D+01 0.1998200D+01 0.8676500D+04 0.6662300D+03
EXPONENTS  0.2531000D+03 0.1061200D+03 0.4724200D+02 0.2182500D+02 0.9968400D+01
EXPONENTS  0.4517100D+01 0.1998200D+01 0.8676500D+04 0.6662300D+03 0.2531000D+03
EXPONENTS  0.1061200D+03 0.4724200D+02 0.2182500D+02 0.9968400D+01 0.4517100D+01
EXPONENTS  0.1998200D+01 0.6662300D+03 0.1061200D+03 0.4724200D+02 0.2182500D+02
EXPONENTS  0.9968400D+01 0.4517100D+01 0.1998200D+01 0.2814500D+00 0.6662300D+03
EXPONENTS  0.1061200D+03 0.4724200D+02 0.2182500D+02 0.9968400D+01 0.4517100D+01
EXPONENTS  0.1998200D+01 0.2814500D+00 0.6662300D+03 0.1061200D+03 0.4724200D+02
EXPONENTS  0.2182500D+02 0.9968400D+01 0.4517100D+01 0.1998200D+01 0.2814500D+00
EXPONENTS  0.7098800D+00 0.7098800D+00 0.7098800D+00 0.1020400D+00 0.1020400D+00
EXPONENTS  0.1020400D+00 0.3514200D-01 0.3514200D-01 0.3514200D-01 0.4038300D+03
EXPONENTS  0.1211700D+03 0.4634500D+02 0.1972100D+02 0.8862400D+01 0.3996200D+01
EXPONENTS  0.1763600D+01 0.4038300D+03 0.1211700D+03 0.4634500D+02 0.1972100D+02
EXPONENTS  0.8862400D+01 0.3996200D+01 0.1763600D+01 0.4038300D+03 0.1211700D+03
EXPONENTS  0.4634500D+02 0.1972100D+02 0.8862400D+01 0.3996200D+01 0.1763600D+01
EXPONENTS  0.4038300D+03 0.1211700D+03 0.4634500D+02 0.1972100D+02 0.8862400D+01
EXPONENTS  0.3996200D+01 0.1763600D+01 0.4038300D+03 0.1211700D+03 0.4634500D+02
EXPONENTS  0.1972100D+02 0.8862400D+01 0.3996200D+01 0.1763600D+01 0.4038300D+03
EXPONENTS  0.1211700D+03 0.4634500D+02 0.1972100D+02 0.8862400D+01 0.3996200D+01
EXPONENTS  0.1763600D+01 0.7061900D+00 0.7061900D+00 0.7061900D+00 0.7061900D+00
EXPONENTS  0.7061900D+00 0.7061900D+00 0.2639000D+00 0.2639000D+00 0.2639000D+00
EXPONENTS  0.2639000D+00 0.2639000D+00 0.2639000D+00 0.1047000D+00 0.1047000D+00
EXPONENTS  0.1047000D+00 0.1047000D+00 0.1047000D+00 0.1047000D+00 0.5515000D+00
EXPONENTS  0.5515000D+00 0.5515000D+00 0.5515000D+00 0.5515000D+00 0.5515000D+00
EXPONENTS  0.5515000D+00 0.5515000D+00 0.5515000D+00 0.5515000D+00 0.2580000D+00
EXPONENTS  0.2580000D+00 0.2580000D+00 0.2580000D+00 0.2580000D+00 0.2580000D+00
EXPONENTS  0.2580000D+00 0.2580000D+00 0.2580000D+00 0.2580000D+00 0.1063900D+08
EXPONENTS  0.1593400D+07 0.3626100D+06 0.1027000D+06 0.3350100D+05 0.1209300D+05
EXPONENTS  0.4715900D+04 0.1955600D+04 0.8526100D+03 0.3876700D+03 0.1826800D+03
EXPONENTS  0.8824500D+02 0.3926300D+02 0.9405700D+01 0.1899500D+01 0.3350100D+05
EXPONENTS  0.1209300D+05 0.4715900D+04 0.1955600D+04 0.8526100D+03 0.3876700D+03
EXPONENTS  0.1826800D+03 0.8824500D+02 0.3926300D+02 0.1923400D+02 0.9405700D+01
EXPONENTS  0.1899500D+01 0.4715900D+04 0.8526100D+03 0.3876700D+03 0.1826800D+03
EXPONENTS  0.8824500D+02 0.3926300D+02 0.1923400D+02 0.9405700D+01 0.4160100D+01
EXPONENTS  0.1899500D+01 0.4715900D+04 0.8526100D+03 0.3876700D+03 0.8824500D+02
EXPONENTS  0.3926300D+02 0.1923400D+02 0.9405700D+01 0.4160100D+01 0.1899500D+01
EXPONENTS  0.3011400D+00 0.6047200D+00 0.1251500D+00 0.4559300D-01 0.8676500D+04
EXPONENTS  0.2055900D+04 0.6662300D+03 0.2531000D+03 0.1061200D+03 0.4724200D+02
EXPONENTS  0.2182500D+02 0.9968400D+01 0.1998200D+01 0.8676500D+04 0.2055900D+04
EXPONENTS  0.6662300D+03 0.2531000D+03 0.1061200D+03 0.4724200D+02 0.2182500D+02
EXPONENTS  0.9968400D+01 0.1998200D+01 0.8676500D+04 0.2055900D+04 0.6662300D+03
EXPONENTS  0.2531000D+03 0.1061200D+03 0.4724200D+02 0.2182500D+02 0.9968400D+01
EXPONENTS  0.1998200D+01 0.8676500D+04 0.6662300D+03 0.2531000D+03 0.1061200D+03
EXPONENTS  0.4724200D+02 0.2182500D+02 0.9968400D+01 0.4517100D+01 0.1998200D+01
EXPONENTS  0.8676500D+04 0.6662300D+03 0.2531000D+03 0.1061200D+03 0.4724200D+02
EXPONENTS  0.2182500D+02 0.9968400D+01 0.4517100D+01 0.1998200D+01 0.8676500D+04
EXPONENTS  0.6662300D+03 0.2531000D+03 0.1061200D+03 0.4724200D+02 0.2182500D+02
EXPONENTS  0.9968400D+01 0.4517100D+01 0.1998200D+01 0.6662300D+03 0.1061200D+03
EXPONENTS  0.4724200D+02 0.2182500D+02 0.9968400D+01 0.4517100D+01 0.1998200D+01
EXPONENTS  0.2814500D+00 0.6662300D+03 0.1061200D+03 0.4724200D+02 0.2182500D+02
EXPONENTS  0.9968400D+01 0.4517100D+01 0.1998200D+01 0.2814500D+00 0.6662300D+03
EXPONENTS  0.1061200D+03 0.4724200D+02 0.2182500D+02 0.9968400D+01 0.4517100D+01
EXPONENTS  0.1998200D+01 0.2814500D+00 0.7098800D+00 0.7098800D+00 0.7098800D+00
EXPONENTS  0.1020400D+00 0.1020400D+00 0.1020400D+00 0.3514200D-01 0.3514200D-01
EXPONENTS  0.3514200D-01 0.4038300D+03 0.1211700D+03 0.4634500D+02 0.1972100D+02
EXPONENTS  0.8862400D+01 0.3996200D+01 0.1763600D+01 0.4038300D+03 0.1211700D+03
EXPONENTS  0.4634500D+02 0.1972100D+02 0.8862400D+01 0.3996200D+01 0.1763600D+01
EXPONENTS  0.4038300D+03 0.1211700D+03 0.4634500D+02 0.1972100D+02 0.8862400D+01
EXPONENTS  0.3996200D+01 0.1763600D+01 0.4038300D+03 0.1211700D+03 0.4634500D+02
EXPONENTS  0.1972100D+02 0.8862400D+01 0.3996200D+01 0.1763600D+01 0.4038300D+03
EXPONENTS  0.1211700D+03 0.4634500D+02 0.1972100D+02 0.8862400D+01 0.3996200D+01
EXPONENTS  0.1763600D+01 0.4038300D+03 0.1211700D+03 0.4634500D+02 0.1972100D+02
EXPONENTS  0.8862400D+01 0.3996200D+01 0.1763600D+01 0.7061900D+00 0.7061900D+00
EXPONENTS  0.7061900D+00 0.7061900D+00 0.7061900D+00 0.7061900D+00 0.2639000D+00
EXPONENTS  0.2639000D+00 0.2639000D+00 0.2639000D+00 0.2639000D+00 0.2639000D+00
EXPONENTS  0.1047000D+00 0.1047000D+00 0.1047000D+00 0.1047000D+00 0.1047000D+00
EXPONENTS  0.1047000D+00 0.5515000D+00 0.5515000D+00 0.5515000D+00 0.5515000D+00
EXPONENTS  0.5515000D+00 0.5515000D+00 0.5515000D+00 0.5515000D+00 0.5515000D+00
EXPONENTS  0.5515000D+00 0.2580000D+00 0.2580000D+00 0.2580000D+00 0.2580000D+00
EXPONENTS  0.2580000D+00 0.2580000D+00 0.2580000D+00 0.2580000D+00 0.2580000D+00
EXPONENTS  0.2580000D+00 0.1533000D+05 0.2299000D+04 0.5224000D+03 0.1473000D+03
EXPONENTS  0.4755000D+02 0.1676000D+02 0.6207000D+01 0.5224000D+03 0.1473000D+03
EXPONENTS  0.4755000D+02 0.1676000D+02 0.6207000D+01 0.6882000D+00 0.1752000D+01
EXPONENTS  0.2384000D+00 0.7376000D-01 0.3446000D+02 0.7749000D+01 0.2280000D+01
EXPONENTS  0.3446000D+02 0.7749000D+01 0.2280000D+01 0.3446000D+02 0.7749000D+01
EXPONENTS  0.2280000D+01 0.7156000D+00 0.7156000D+00 0.7156000D+00 0.2140000D+00
EXPONENTS  0.2140000D+00 0.2140000D+00 0.5974000D-01 0.5974000D-01 0.5974000D-01
EXPONENTS  0.2314000D+01 0.2314000D+01 0.2314000D+01 0.2314000D+01 0.2314000D+01
EXPONENTS  0.2314000D+01 0.6450000D+00 0.6450000D+00 0.6450000D+00 0.6450000D+00
EXPONENTS  0.6450000D+00 0.6450000D+00 0.2140000D+00 0.2140000D+00 0.2140000D+00
EXPONENTS  0.2140000D+00 0.2140000D+00 0.2140000D+00 0.1428000D+01 0.1428000D+01
EXPONENTS  0.1428000D+01 0.1428000D+01 0.1428000D+01 0.1428000D+01 0.1428000D+01
EXPONENTS  0.1428000D+01 0.1428000D+01 0.1428000D+01 0.5000000D+00 0.5000000D+00
EXPONENTS  0.5000000D+00 0.5000000D+00 0.5000000D+00 0.5000000D+00 0.5000000D+00
EXPONENTS  0.5000000D+00 0.5000000D+00 0.5000000D+00
MO    1     MO 0.0        OCC NO =    2.0000166  ORB. ENERGY =    0.000000
  0.12314962D+00  0.22957570D+00  0.38801421D+00  0.58325773D+00  0.71642766D+00
  0.60463967D+00  0.22736030D+00  0.29320263D-04  0.21915080D-03  0.81901658D-03
  0.22849287D-02  0.30611745D-02 -0.36146763D-02  0.94445542D-02 -0.19936724D-02
 -0.30926283D-03 -0.12019188D-04 -0.11268752D-04 -0.80240230D-05  0.28064212D-10
  0.26311983D-10  0.18735699D-10  0.36722758D-02  0.34429920D-02  0.24516154D-02
 -0.90584042D-05  0.94269294D-11  0.19863771D-02 -0.24442770D-06  0.20711832D-11
  0.38482175D-03 -0.14477182D-06 -0.10625151D-12  0.48955715D-05 -0.97096137D-04
 -0.49937867D-03  0.59647481D-03 -0.25472788D-13 -0.14565693D-04 -0.69471418D-11
  0.33696936D-03 -0.32304537D-03 -0.13923994D-04 -0.28742226D-13 -0.96276370D-06
 -0.29364736D-11  0.30928357D-04 -0.18822807D-04 -0.12105550D-04  0.23820133D-14
 -0.19873065D-06 -0.63912214D-12  0.20577477D-05 -0.28262335D-12  0.12397710D-03
  0.18734648D-05  0.72423238D-12 -0.16590193D-03 -0.80467079D-05  0.12363768D-12
 -0.20602938D-03  0.18257205D-14 -0.31018085D-06  0.22739616D-12 -0.14095662D-04
  0.30773746D-06 -0.47006457D-13  0.24959491D-05  0.62280510D-06 -0.63518201D-12
  0.39791036D-04 -0.24211831D-14 -0.34889081D-01 -0.65631616D-01 -0.11361168D+00
 -0.18623135D+00 -0.29173426D+00 -0.43850033D+00 -0.62672005D+00 -0.83196951D+00
 -0.96888860D+00 -0.88981209D+00 -0.52015359D+00 -0.13648527D+00 -0.77599456D-02
 -0.13540271D-03 -0.13629823D-04 -0.16554345D-02 -0.47821687D-02 -0.21917803D-01
 -0.64881469D-01 -0.18815815D+00 -0.39110409D+00 -0.55947905D+00 -0.16042051D+00
  0.64106185D+00  0.61984479D+00  0.13529060D+00 -0.19582905D-02 -0.10125306D-02
 -0.47236645D-02 -0.95863265D-02 -0.37570481D-01 -0.26364096D-01  0.17169297D+00
  0.53201757D+00  0.65077664D-01 -0.46506410D+00 -0.21825457D+00 -0.11092393D-05
 -0.15206790D-05  0.29155094D-05  0.61964162D-05 -0.23424187D-04 -0.75747871D-04
 -0.26343957D-04  0.25767259D-03  0.57474346D-03 -0.38138227D-03 -0.90592846D-02
  0.53773411D-03  0.15413660D-03  0.10956330D-01  0.15720697D-01  0.20815656D-01
  0.24038460D-01  0.22288185D-01  0.14433530D-01  0.50930038D-02  0.58683556D-03
 -0.95870902D-06  0.10012757D+02  0.14366812D+02  0.19022987D+02  0.21968239D+02
  0.20368700D+02  0.13190497D+02  0.46543882D+01  0.53629657D+00 -0.87614384D-03
  0.62281035D+01  0.89363989D+01  0.11832618D+02  0.13664614D+02  0.12669674D+02
  0.82047110D+01  0.28951078D+01  0.33358549D+00 -0.54497621D-03 -0.62775823D-04
  0.17898506D-03  0.87364908D-03  0.18103670D-02  0.22718319D-02  0.36027168D-03
 -0.29162775D-02 -0.25434168D-02 -0.65382314D-03 -0.59674137D-01  0.17014160D+00
  0.83048301D+00  0.17209187D+01  0.21595831D+01  0.34247104D+00 -0.27721874D+01
 -0.24177493D+01 -0.62151844D+00 -0.37198350D-01  0.10605912D+00  0.51768822D+00
  0.10727484D+01  0.13461934D+01  0.21348206D+00 -0.17280652D+01 -0.15071234D+01
 -0.38742849D+00 -0.24682565D-06 -0.34870019D-06  0.16224838D-06 -0.32514728D-06
 -0.35693893D-06 -0.96349006D-06 -0.30362117D-06  0.65188111D-06 -0.25821027D-03
 -0.36478368D-03  0.16973194D-03 -0.34014441D-03 -0.37340243D-03 -0.10079302D-02
 -0.31762544D-03  0.68194856D-03 -0.14273634D-03 -0.20164918D-03  0.93826308D-04
 -0.18802881D-03 -0.20641354D-03 -0.55717485D-03 -0.17558052D-03  0.37697510D-03
 -0.22273053D-04 -0.22011496D-01 -0.13840507D-01 -0.27393274D-06  0.12527193D-03
  0.59994060D-04  0.52395494D-07  0.87756312D-05  0.66720296D-05  0.10215431D+01
  0.10689348D+01  0.91078964D+00  0.59982383D+00  0.27644095D+00  0.82780688D-01
  0.14084432D-01 -0.12443432D+01 -0.13020711D+01 -0.11094343D+01 -0.73064633D+00
 -0.33673314D+00 -0.10083528D+00 -0.17156269D-01  0.22280012D+00  0.23313632D+00
  0.19864462D+00  0.13082250D+00  0.60292195D-01  0.18054595D-01  0.30718364D-02
 -0.44463873D-02 -0.46526653D-02 -0.39643198D-02 -0.26108043D-02 -0.12032420D-02
 -0.36031276D-03 -0.61304161D-04 -0.58443514D-02 -0.61154840D-02 -0.52107197D-02
 -0.34316528D-02 -0.15815466D-02 -0.47359669D-03 -0.80578463D-04 -0.37499434D+01
 -0.39239118D+01 -0.33433828D+01 -0.22018704D+01 -0.10147765D+01 -0.30387646D+00
 -0.51702004D-01  0.11369973D-02 -0.13745093D-02  0.23751202D-03 -0.36547964D-05
 -0.47572410D-05 -0.38086669D-02 -0.11624173D-03  0.11050365D-03  0.57380766D-05
 -0.40657360D-06 -0.28803926D-06  0.30458086D-03 -0.13577625D-04  0.15151746D-04
 -0.15741211D-05 -0.46261235D-07  0.77528898D-08  0.28801028D-04  0.29321782D-06
 -0.40122805D-04  0.91945485D-04 -0.24635208D-06  0.20898926D-03  0.14526892D-03
 -0.63330139D-06 -0.88620850D-04 -0.42110538D-03 -0.15469001D-05 -0.40966741D-08
  0.97222866D-05 -0.20870579D-04 -0.90767966D-07 -0.68892976D-04 -0.54608407D-04
  0.10305799D-06  0.39726117D-04  0.11722014D-03  0.10716825D-06 -0.34889080D-01
 -0.65631615D-01 -0.11361168D+00 -0.18623135D+00 -0.29173426D+00 -0.43850032D+00
 -0.62672005D+00 -0.83196950D+00 -0.96888859D+00 -0.88981208D+00 -0.52015359D+00
 -0.13648527D+00 -0.77599456D-02 -0.13540271D-03 -0.13629823D-04 -0.16554345D-02
 -0.47821686D-02 -0.21917802D-01 -0.64881469D-01 -0.18815815D+00 -0.39110409D+00
 -0.55947904D+00 -0.16042051D+00  0.64106185D+00  0.61984479D+00  0.13529060D+00
 -0.19582905D-02 -0.10125305D-02 -0.47236644D-02 -0.95863264D-02 -0.37570480D-01
 -0.26364096D-01  0.17169297D+00  0.53201757D+00  0.65077663D-01 -0.46506410D+00
 -0.21825456D+00 -0.11092392D-05 -0.15206790D-05  0.29155094D-05  0.61964162D-05
 -0.23424187D-04 -0.75747870D-04 -0.26343957D-04  0.25767259D-03  0.57474345D-03
 -0.38138227D-03 -0.90592846D-02  0.53773411D-03  0.15413660D-03  0.10956337D-01
  0.15720709D-01  0.20815671D-01  0.24038477D-01  0.22288202D-01  0.14433540D-01
  0.50930075D-02  0.58683598D-03 -0.95870971D-06 -0.10012757D+02 -0.14366812D+02
 -0.19022987D+02 -0.21968238D+02 -0.20368700D+02 -0.13190497D+02 -0.46543882D+01
 -0.53629657D+00  0.87614383D-03  0.62281034D+01  0.89363988D+01  0.11832618D+02
  0.13664614D+02  0.12669674D+02  0.82047109D+01  0.28951078D+01  0.33358549D+00
 -0.54497621D-03 -0.62775844D-04  0.17898512D-03  0.87364937D-03  0.18103676D-02
  0.22718327D-02  0.36027180D-03 -0.29162785D-02 -0.25434177D-02 -0.65382336D-03
  0.59674136D-01 -0.17014159D+00 -0.83048300D+00 -0.17209187D+01 -0.21595831D+01
 -0.34247104D+00  0.27721873D+01  0.24177493D+01  0.62151844D+00 -0.37198350D-01
  0.10605912D+00  0.51768822D+00  0.10727484D+01  0.13461934D+01  0.21348206D+00
 -0.17280651D+01 -0.15071234D+01 -0.38742849D+00 -0.24682561D-06 -0.34870014D-06
  0.16224835D-06 -0.32514723D-06 -0.35693888D-06 -0.96348991D-06 -0.30362113D-06
  0.65188101D-06  0.25821027D-03  0.36478368D-03 -0.16973194D-03  0.34014441D-03
  0.37340243D-03  0.10079302D-02  0.31762544D-03 -0.68194856D-03 -0.14273634D-03
 -0.20164918D-03  0.93826308D-04 -0.18802881D-03 -0.20641354D-03 -0.55717485D-03
 -0.17558052D-03  0.37697510D-03 -0.22273061D-04  0.22011496D-01 -0.13840507D-01
 -0.27393282D-06 -0.12527194D-03  0.59994060D-04  0.52395496D-07 -0.87756312D-05
  0.66720296D-05  0.10215431D+01  0.10689348D+01  0.91078963D+00  0.59982382D+00
  0.27644094D+00  0.82780688D-01  0.14084432D-01 -0.12443432D+01 -0.13020711D+01
 -0.11094342D+01 -0.73064632D+00 -0.33673314D+00 -0.10083528D+00 -0.17156269D-01
  0.22280012D+00  0.23313631D+00  0.19864462D+00  0.13082250D+00  0.60292195D-01
  0.18054595D-01  0.30718363D-02  0.44463874D-02  0.46526653D-02  0.39643198D-02
  0.26108043D-02  0.12032420D-02  0.36031276D-03  0.61304161D-04 -0.58443514D-02
 -0.61154841D-02 -0.52107197D-02 -0.34316529D-02 -0.15815466D-02 -0.47359670D-03
 -0.80578464D-04  0.37499434D+01  0.39239117D+01  0.33433828D+01  0.22018703D+01
  0.10147765D+01  0.30387646D+00  0.51702003D-01  0.11369973D-02 -0.13745093D-02
  0.23751202D-03  0.36547965D-05 -0.47572411D-05  0.38086668D-02 -0.11624173D-03
  0.11050365D-03  0.57380762D-05  0.40657360D-06 -0.28803925D-06 -0.30458086D-03
 -0.13577625D-04  0.15151746D-04 -0.15741211D-05  0.46261237D-07  0.77528886D-08
 -0.28801028D-04  0.29321784D-06  0.40122804D-04  0.91945484D-04 -0.24635212D-06
 -0.20898926D-03  0.14526892D-03 -0.63330139D-06  0.88620849D-04 -0.42110537D-03
  0.15469002D-05 -0.40966757D-08 -0.97222866D-05 -0.20870579D-04 -0.90767964D-07
  0.68892976D-04 -0.54608406D-04  0.10305799D-06 -0.39726116D-04  0.11722014D-03
 -0.10716826D-06 -0.35428341D-01 -0.66032602D-01 -0.11196756D+00 -0.16945099D+00
 -0.21137675D+00 -0.18139270D+00 -0.69463768D-01 -0.34369070D-05 -0.36875757D-04
 -0.13593098D-03 -0.39745422D-03 -0.47895166D-03  0.57694803D-03 -0.31473614D-02
  0.29519897D-03  0.68426051D-04 -0.11355400D-04 -0.11010918D-04 -0.74279001D-05
 -0.15178596D-10 -0.14718132D-10 -0.99287649D-11  0.27610485D-02  0.26772883D-02
  0.18060829D-02 -0.24125476D-05 -0.33786182D-11  0.61960375D-03  0.23159760D-05
  0.24921887D-12  0.77196051D-04  0.37036364D-06  0.15243390D-12  0.74415634D-05
  0.28555002D-03 -0.50215330D-04 -0.23533469D-03 -0.32629011D-13  0.88590196D-05
 -0.18503789D-11  0.32316707D-04  0.15425122D-03 -0.18656793D-03  0.25453374D-13
  0.61757651D-06 -0.96964853D-12  0.24762734D-05  0.45648843D-04 -0.48125117D-04
  0.13134737D-13 -0.55202887D-06 -0.29100061D-12 -0.23201165D-05 -0.26212514D-12
 -0.29135965D-03 -0.58059227D-05  0.53585996D-12  0.43117196D-03  0.12766272D-04
  0.25051545D-12  0.44290700D-03  0.60786655D-13 -0.36402673D-06  0.75535220D-14
  0.79499017D-04  0.17952054D-05 -0.22636896D-12 -0.39850973D-04 -0.70312524D-06
  0.20370839D-12 -0.19864608D-03 -0.42789107D-13
MO    2     MO 0.0        OCC NO =    2.0000158  ORB. ENERGY =    0.000000
  0.64365914D-09  0.11999103D-08  0.20280119D-08  0.30484801D-08  0.37445118D-08
  0.31602359D-08  0.11883312D-08  0.14497546D-12  0.10836017D-11  0.40496671D-11
  0.11297941D-10  0.15136126D-10 -0.17872942D-10  0.49672212D-10 -0.83643991D-11
 -0.10102078D-11 -0.65701885D-13 -0.61599693D-13 -0.43862651D-13 -0.58461261D-02
 -0.54811148D-02 -0.39028803D-02  0.16904667D-10  0.15849200D-10  0.11285575D-10
 -0.48654410D-13 -0.19747252D-02  0.99361846D-11 -0.39614613D-14 -0.45268859D-03
  0.16268395D-11 -0.35572242D-15  0.16144159D-04  0.16349133D-14 -0.57798439D-12
 -0.25586216D-11  0.31366060D-11 -0.25116761D-05 -0.70223815D-13  0.14552877D-02
  0.15410929D-11 -0.15658483D-11  0.24755421D-13 -0.89763141D-06 -0.68158778D-15
  0.62712109D-03  0.12734481D-12 -0.41996139D-13 -0.85348672D-13 -0.20009478D-06
  0.11674877D-14  0.13321394D-03  0.86375620D-14  0.55447053D-04  0.68443342D-12
  0.10550312D-13 -0.14627300D-03 -0.96720362D-12 -0.36462998D-13 -0.20068160D-04
 -0.10860966D-11  0.15478298D-06 -0.93116316D-15 -0.45928137D-04 -0.69961366D-13
  0.28431076D-16  0.95040254D-05  0.38497245D-13  0.27650584D-14  0.12828039D-03
  0.17138685D-12  0.16186702D-05  0.31197674D-01  0.58687523D-01  0.10159110D+00
  0.16652732D+00  0.26086758D+00  0.39210521D+00  0.56041052D+00  0.74394375D+00
  0.86637624D+00  0.79566634D+00  0.46511922D+00  0.12204457D+00  0.69389118D-02
  0.12107655D-03  0.12187732D-04  0.14800369D-02  0.42754856D-02  0.19595555D-01
  0.58007111D-01  0.16822231D+00  0.34966561D+00  0.50020080D+00  0.14342355D+00
 -0.57313970D+00 -0.55417064D+00 -0.12095621D+00  0.17508046D-02  0.90061555D-03
  0.42015578D-02  0.85267498D-02  0.33417815D-01  0.23450072D-01 -0.15271575D+00
 -0.47321367D+00 -0.57884629D-01  0.41366056D+00  0.19413089D+00  0.98200219D-06
  0.13462471D-05 -0.25810813D-05 -0.54856464D-05  0.20737278D-04  0.67059090D-04
  0.23322132D-04 -0.22811585D-03 -0.50881659D-03  0.33763521D-03  0.80829577D-02
 -0.40020819D-03  0.28374654D-04 -0.15930295D-01 -0.22857596D-01 -0.30265569D-01
 -0.34951465D-01 -0.32406599D-01 -0.20986079D-01 -0.74051310D-02 -0.85324777D-03
  0.13939447D-05 -0.11512229D+02 -0.16518330D+02 -0.21871796D+02 -0.25258117D+02
 -0.23419038D+02 -0.15165855D+02 -0.53514114D+01 -0.61661028D+00  0.10073518D-02
 -0.68607790D+01 -0.98441938D+01 -0.13034622D+02 -0.15052720D+02 -0.13956710D+02
 -0.90381782D+01 -0.31892044D+01 -0.36747243D+00  0.60033706D-03  0.94370095D-04
 -0.26906595D-03 -0.13133455D-02 -0.27215016D-02 -0.34152159D-02 -0.54159182D-03
  0.43840028D-02  0.38234861D-02  0.98288399D-03  0.68960293D-01 -0.19661808D+00
 -0.95971813D+00 -0.19887185D+01 -0.24956454D+01 -0.39576447D+00  0.32035797D+01
  0.27939860D+01  0.71823567D+00  0.41035559D-01 -0.11699969D+00 -0.57109053D+00
 -0.11834082D+01 -0.14850605D+01 -0.23550388D+00  0.19063243D+01  0.16625912D+01
  0.42739381D+00  0.32809766D-06  0.46351633D-06 -0.21567173D-06  0.43220817D-06
  0.47446783D-06  0.12807374D-05  0.40359419D-06 -0.86652531D-06  0.78339485D-04
  0.11067324D-03 -0.51495679D-04  0.10319783D-03  0.11328811D-03  0.30580013D-03
  0.96365700D-04 -0.20689921D-03  0.10397580D-03  0.14689066D-03 -0.68347455D-04
  0.13696894D-03  0.15036124D-03  0.40587212D-03  0.12790103D-03 -0.27460623D-03
  0.35481676D-04  0.25437234D-01  0.15206678D-01  0.27241458D-06  0.98661757D-04
  0.18047200D-04  0.17259793D-07 -0.16844782D-05  0.13929247D-06 -0.11590613D+01
 -0.12128328D+01 -0.10333985D+01 -0.68057101D+00 -0.31365492D+00 -0.93924472D-01
 -0.15980453D-01  0.14146037D+01  0.14802303D+01  0.12612354D+01  0.83061889D+00
  0.38280752D+00  0.11463233D+00  0.19503719D-01 -0.25554232D+00 -0.26739751D+00
 -0.22783699D+00 -0.15004788D+00 -0.69152601D-01 -0.20707858D-01 -0.35232665D-02
  0.47816496D-02  0.50034811D-02  0.42632337D-02  0.28076617D-02  0.12939677D-02
  0.38748072D-03  0.65926559D-04  0.62704128D-02  0.65613114D-02  0.55905885D-02
  0.36818251D-02  0.16968436D-02  0.50812256D-03  0.86452746D-04  0.42107729D+01
  0.44061202D+01  0.37542502D+01  0.24724576D+01  0.11394821D+01  0.34121976D+00
  0.58055649D-01 -0.11866845D-02  0.13742282D-02 -0.18754378D-03  0.41690262D-05
  0.50412245D-05  0.40808052D-02  0.68689259D-04 -0.35339621D-04 -0.33349638D-04
 -0.60111223D-06 -0.12433087D-06 -0.17576328D-03 -0.38722887D-05  0.29598012D-05
  0.91248752D-06  0.18240040D-07  0.71537944D-07 -0.18958570D-04 -0.12347610D-06
  0.40034722D-04 -0.11328002D-03  0.28652341D-06 -0.23459577D-03 -0.14319200D-03
  0.83904878D-07  0.11449161D-03  0.48303207D-03  0.93393935D-06  0.13918872D-07
  0.30694950D-05  0.20657100D-04 -0.21269535D-06  0.40952132D-04  0.31485907D-04
  0.17093873D-06 -0.50160617D-04 -0.93457205D-04 -0.14230495D-06 -0.31197674D-01
 -0.58687524D-01 -0.10159110D+00 -0.16652732D+00 -0.26086759D+00 -0.39210521D+00
 -0.56041053D+00 -0.74394375D+00 -0.86637625D+00 -0.79566635D+00 -0.46511923D+00
 -0.12204457D+00 -0.69389118D-02 -0.12107655D-03 -0.12187732D-04 -0.14800370D-02
 -0.42754857D-02 -0.19595555D-01 -0.58007111D-01 -0.16822231D+00 -0.34966561D+00
 -0.50020081D+00 -0.14342355D+00  0.57313971D+00  0.55417065D+00  0.12095621D+00
 -0.17508046D-02 -0.90061556D-03 -0.42015579D-02 -0.85267499D-02 -0.33417816D-01
 -0.23450073D-01  0.15271575D+00  0.47321367D+00  0.57884630D-01 -0.41366057D+00
 -0.19413089D+00 -0.98200220D-06 -0.13462471D-05  0.25810813D-05  0.54856465D-05
 -0.20737279D-04 -0.67059091D-04 -0.23322132D-04  0.22811585D-03  0.50881660D-03
 -0.33763521D-03 -0.80829578D-02  0.40020819D-03 -0.28374653D-04  0.15930298D-01
  0.22857600D-01  0.30265574D-01  0.34951470D-01  0.32406604D-01  0.20986082D-01
  0.74051321D-02  0.85324790D-03 -0.13939449D-05 -0.11512229D+02 -0.16518331D+02
 -0.21871796D+02 -0.25258117D+02 -0.23419038D+02 -0.15165855D+02 -0.53514115D+01
 -0.61661028D+00  0.10073518D-02  0.68607791D+01  0.98441939D+01  0.13034622D+02
  0.15052720D+02  0.13956710D+02  0.90381782D+01  0.31892044D+01  0.36747244D+00
 -0.60033707D-03 -0.94370097D-04  0.26906596D-03  0.13133455D-02  0.27215017D-02