 Entering Gaussian System, Link 0=/home/bruns/programas/chemistry/gaussian/g09/g09
 Input=GAUSSIAN.com
 Output=GAUSSIAN.log
 Initial command:
 /home/bruns/programas/chemistry/gaussian/g09/l1.exe /home/bruns/programas/chemistry/gaussian/work/Gau-71790.inp -scrdir=/home/bruns/programas/chemistry/gaussian/work/
 Entering Link 1 = /home/bruns/programas/chemistry/gaussian/g09/l1.exe PID=     71792.
  
 Copyright (c) 1988,1990,1992,1993,1995,1998,2003,2009,2010,
            Gaussian, Inc.  All Rights Reserved.
  
 This is part of the Gaussian(R) 09 program.  It is based on
 the Gaussian(R) 03 system (copyright 2003, Gaussian, Inc.),
 the Gaussian(R) 98 system (copyright 1998, Gaussian, Inc.),
 the Gaussian(R) 94 system (copyright 1995, Gaussian, Inc.),
 the Gaussian 92(TM) system (copyright 1992, Gaussian, Inc.),
 the Gaussian 90(TM) system (copyright 1990, Gaussian, Inc.),
 the Gaussian 88(TM) system (copyright 1988, Gaussian, Inc.),
 the Gaussian 86(TM) system (copyright 1986, Carnegie Mellon
 University), and the Gaussian 82(TM) system (copyright 1983,
 Carnegie Mellon University). Gaussian is a federally registered
 trademark of Gaussian, Inc.
  
 This software contains proprietary and confidential information,
 including trade secrets, belonging to Gaussian, Inc.
  
 This software is provided under written license and may be
 used, copied, transmitted, or stored only in accord with that
 written license.
  
 The following legend is applicable only to US Government
 contracts under FAR:
  
                    RESTRICTED RIGHTS LEGEND
  
 Use, reproduction and disclosure by the US Government is
 subject to restrictions as set forth in subparagraphs (a)
 and (c) of the Commercial Computer Software - Restricted
 Rights clause in FAR 52.227-19.
  
 Gaussian, Inc.
 340 Quinnipiac St., Bldg. 40, Wallingford CT 06492
  
  
 ---------------------------------------------------------------
 Warning -- This program may not be used in any manner that
 competes with the business of Gaussian, Inc. or will provide
 assistance to any competitor of Gaussian, Inc.  The licensee
 of this program is prohibited from giving any competitor of
 Gaussian, Inc. access to this program.  By using this program,
 the user acknowledges that Gaussian, Inc. is engaged in the
 business of creating and licensing software in the field of
 computational chemistry and represents and warrants to the
 licensee that it is not a competitor of Gaussian, Inc. and that
 it will not use this program in any manner prohibited above.
 ---------------------------------------------------------------
  

 Cite this work as:
 Gaussian 09, Revision B.01,
 M. J. Frisch, G. W. Trucks, H. B. Schlegel, G. E. Scuseria, 
 M. A. Robb, J. R. Cheeseman, G. Scalmani, V. Barone, B. Mennucci, 
 G. A. Petersson, H. Nakatsuji, M. Caricato, X. Li, H. P. Hratchian, 
 A. F. Izmaylov, J. Bloino, G. Zheng, J. L. Sonnenberg, M. Hada, 
 M. Ehara, K. Toyota, R. Fukuda, J. Hasegawa, M. Ishida, T. Nakajima, 
 Y. Honda, O. Kitao, H. Nakai, T. Vreven, J. A. Montgomery, Jr., 
 J. E. Peralta, F. Ogliaro, M. Bearpark, J. J. Heyd, E. Brothers, 
 K. N. Kudin, V. N. Staroverov, T. Keith, R. Kobayashi, J. Normand, 
 K. Raghavachari, A. Rendell, J. C. Burant, S. S. Iyengar, J. Tomasi, 
 M. Cossi, N. Rega, J. M. Millam, M. Klene, J. E. Knox, J. B. Cross, 
 V. Bakken, C. Adamo, J. Jaramillo, R. Gomperts, R. E. Stratmann, 
 O. Yazyev, A. J. Austin, R. Cammi, C. Pomelli, J. W. Ochterski, 
 R. L. Martin, K. Morokuma, V. G. Zakrzewski, G. A. Voth, 
 P. Salvador, J. J. Dannenberg, S. Dapprich, A. D. Daniels, 
 O. Farkas, J. B. Foresman, J. V. Ortiz, J. Cioslowski, 
 and D. J. Fox, Gaussian, Inc., Wallingford CT, 2010.
 
 ******************************************
 Gaussian 09:  EM64L-G09RevB.01 12-Aug-2010
                28-Nov-2021 
 ******************************************
 %nproc=8
 Will use up to    8 processors via shared memory.
 %mem=8GB
 -----------------------------------------------------
 # qcisd/aug-cc-pvtz nosymm density=current output=wfn
 -----------------------------------------------------
 1/30=1,38=1/1;
 2/12=2,15=1,17=6,18=5,40=1/2;
 3/5=16,6=1,7=10,11=9,16=1,25=1,30=1,71=1/1,2,3;
 4//1;
 5/5=2,38=5/2;
 8/6=4,9=120000,10=1/1,4;
 9/5=8,15=1/13;
 11/28=-7,31=1,32=3,42=3/11;
 10/5=6,13=10,31=1/2;
 6/7=2,8=2,9=2,10=2,22=-1,31=1/1;
 99/5=1,6=1100,9=1/99;
 ------------------
 br2co-wavefunction
 ------------------
 Symbolic Z-matrix:
 Charge =  0 Multiplicity = 1
 C                     0.        0.       -0.50176 
 Br                    0.       -1.59418  -1.54682 
 Br                    0.        1.59418  -1.54682 
 O                     0.        0.        0.6845 
 
                          Input orientation:                          
 ---------------------------------------------------------------------
 Center     Atomic      Atomic             Coordinates (Angstroms)
 Number     Number       Type             X           Y           Z
 ---------------------------------------------------------------------
      1          6           0        0.000000    0.000000   -0.501759
      2         35           0        0.000000   -1.594181   -1.546820
      3         35           0        0.000000    1.594181   -1.546820
      4          8           0        0.000000    0.000000    0.684500
 ---------------------------------------------------------------------
                    Distance matrix (angstroms):
                    1          2          3          4
     1  C    0.000000
     2  Br   1.906191   0.000000
     3  Br   1.906191   3.188362   0.000000
     4  O    1.186259   2.742299   2.742299   0.000000
 Symmetry turned off by external request.
 Stoichiometry    CBr2O
 Framework group  C2V[C2(CO),SGV(Br2)]
 Deg. of freedom     3
 Full point group                 C2V     NOp   4
 Rotational constants (GHZ):      6.2996421      1.2598940      1.0499165
 Standard basis: Aug-CC-pVTZ (5D, 7F)
 Integral buffers will be    131072 words long.
 Raffenetti 1 integral format.
 Two-electron integral symmetry is turned off.
   210 basis functions,   578 primitive gaussians,   248 cartesian basis functions
    42 alpha electrons       42 beta electrons
       nuclear repulsion energy       449.3857801989 Hartrees.
 NAtoms=    4 NActive=    4 NUniq=    4 SFac= 1.00D+00 NAtFMM=   50 NAOKFM=F Big=F
 One-electron integrals computed using PRISM.
 NBasis=   210 RedAO= T  NBF=   210
 NBsUse=   210 1.00D-06 NBFU=   210
 Harris functional with IExCor=  205 diagonalized for initial guess.
 ExpMin= 3.51D-02 ExpMax= 1.06D+07 ExpMxC= 1.21D+04 IAcc=3 IRadAn=         0 AccDes= 0.00D+00
 HarFok:  IExCor=  205 AccDes= 0.00D+00 IRadAn=         0 IDoV= 1
 ScaDFX=  1.000000  1.000000  1.000000  1.000000
 FoFCou: FMM=F IPFlag=           0 FMFlag=      100000 FMFlg1=           0
         NFxFlg=           0 DoJE=T BraDBF=F KetDBF=T FulRan=T
         Omega=  0.000000  0.000000  1.000000  0.000000  0.000000 ICntrl=     500 IOpCl=  0
         NMat0=    1 NMatS0=    1 NMatT0=    0 NMatD0=    1 NMtDS0=    0 NMtDT0=    0
         I1Cent=           4 NGrid=           0.
 Symmetry not used in FoFCou.
 Requested convergence on RMS density matrix=1.00D-08 within 128 cycles.
 Requested convergence on MAX density matrix=1.00D-06.
 Requested convergence on             energy=1.00D-06.
 No special actions if energy rises.
 Keep R1 ints in memory in canonical form, NReq=484604278.
 DSYEVD returned Info=       39034 IAlg= 4 N=   210 NDim=   210 NE2=     2842251 trying DSYEV.
 SCF Done:  E(RHF) =  -5257.68348053     A.U. after   12 cycles
             Convg  =    0.9655D-08             -V/T =  2.0000
 ExpMin= 3.51D-02 ExpMax= 1.06D+07 ExpMxC= 1.21D+04 IAcc=3 IRadAn=         5 AccDes= 0.00D+00
 HarFok:  IExCor=  205 AccDes= 0.00D+00 IRadAn=         5 IDoV=-2
 ScaDFX=  1.000000  1.000000  1.000000  1.000000
 DSYEVD returned Info=         119 IAlg= 4 N=    59 NDim=    59 NE2=    18196533 trying DSYEV.
 DSYEVD returned Info=          89 IAlg= 4 N=    59 NDim=    59 NE2=    18196533 trying DSYEV.
 Range of M.O.s used for correlation:    21   210
 NBasis=   210 NAE=    42 NBE=    42 NFC=    20 NFV=     0
 NROrb=    190 NOA=    22 NOB=    22 NVA=   168 NVB=   168

 **** Warning!!: The largest alpha MO coefficient is  0.28144061D+02

 Semi-Direct transformation.
 ModeAB=           2 MOrb=            22 LenV=    1072497179
 LASXX=     69628944 LTotXX=    69628944 LenRXX=    69628944
 LTotAB=    70719517 MaxLAS=   129061680 LenRXY=   129061680
 NonZer=   139257888 LenScr=   209707008 LnRSAI=           0
 LnScr1=           0 LExtra=           0 Total=    408397632
 MaxDsk=          -1 SrtSym=           F ITran=            4
 JobTyp=0 Pass  1:  I=   1 to  22.
 (rs|ai) integrals will be sorted in core.
 Spin components of T(2) and E(2):
     alpha-alpha T2 =       0.3844688734D-01 E2=     -0.1234512308D+00
     alpha-beta  T2 =       0.1930542512D+00 E2=     -0.6182994558D+00
     beta-beta   T2 =       0.3844688734D-01 E2=     -0.1234512308D+00
 ANorm=    0.1126919707D+01
 E2 =    -0.8652019173D+00 EUMP2 =    -0.52585486824435D+04
 R2 and R3 integrals will be kept in memory, NReq=   961077252.
 Iterations=  50 Convergence= 0.100D-07
 Iteration Nr.   1
 **********************
 DD1Dir will call FoFMem   1 times, MxPair=       506
 NAB=   253 NAA=     0 NBB=     0.
 MP4(R+Q)=  0.21537104D-01
 E3=        0.65146455D-03        EUMP3=      -0.52585480310D+04
 E4(DQ)=    0.11612057D-03        UMP4(DQ)=   -0.52585479149D+04
 E4(SDQ)=  -0.12020789D-01        UMP4(SDQ)=  -0.52585600518D+04
 DE(Corr)= -0.84301335     E(Corr)=     -5258.5264939    
 NORM(A)=   0.11250656D+01
 Iteration Nr.   2
 **********************
 DD1Dir will call FoFMem   1 times, MxPair=       506
 NAB=   253 NAA=     0 NBB=     0.
 DE(Corr)= -0.87327646     E(CORR)=     -5258.5567570     Delta=-3.03D-02
 NORM(A)=   0.11355565D+01
 Iteration Nr.   3
 **********************
 DD1Dir will call FoFMem   1 times, MxPair=       506
 NAB=   253 NAA=     0 NBB=     0.
 DE(Corr)= -0.87106749     E(CORR)=     -5258.5545480     Delta= 2.21D-03
 NORM(A)=   0.11383871D+01
 Iteration Nr.   4
 **********************
 DD1Dir will call FoFMem   1 times, MxPair=       506
 NAB=   253 NAA=     0 NBB=     0.
 DE(Corr)= -0.87365161     E(CORR)=     -5258.5571321     Delta=-2.58D-03
 NORM(A)=   0.11397416D+01
 Iteration Nr.   5
 **********************
 DD1Dir will call FoFMem   1 times, MxPair=       506
 NAB=   253 NAA=     0 NBB=     0.
 DE(Corr)= -0.87403984     E(CORR)=     -5258.5575204     Delta=-3.88D-04
 NORM(A)=   0.11402740D+01
 Iteration Nr.   6
 **********************
 DD1Dir will call FoFMem   1 times, MxPair=       506
 NAB=   253 NAA=     0 NBB=     0.
 DE(Corr)= -0.87410624     E(CORR)=     -5258.5575868     Delta=-6.64D-05
 NORM(A)=   0.11403831D+01
 Iteration Nr.   7
 **********************
 DD1Dir will call FoFMem   1 times, MxPair=       506
 NAB=   253 NAA=     0 NBB=     0.
 DE(Corr)= -0.87412110     E(CORR)=     -5258.5576016     Delta=-1.49D-05
 NORM(A)=   0.11403911D+01
 Iteration Nr.   8
 **********************
 DD1Dir will call FoFMem   1 times, MxPair=       506
 NAB=   253 NAA=     0 NBB=     0.
 DE(Corr)= -0.87412197     E(CORR)=     -5258.5576025     Delta=-8.72D-07
 NORM(A)=   0.11404067D+01
 Iteration Nr.   9
 **********************
 DD1Dir will call FoFMem   1 times, MxPair=       506
 NAB=   253 NAA=     0 NBB=     0.
 DE(Corr)= -0.87411958     E(CORR)=     -5258.5576001     Delta= 2.39D-06
 NORM(A)=   0.11404063D+01
 Iteration Nr.  10
 **********************
 DD1Dir will call FoFMem   1 times, MxPair=       506
 NAB=   253 NAA=     0 NBB=     0.
 DE(Corr)= -0.87412122     E(CORR)=     -5258.5576017     Delta=-1.64D-06
 NORM(A)=   0.11404091D+01
 Iteration Nr.  11
 **********************
 DD1Dir will call FoFMem   1 times, MxPair=       506
 NAB=   253 NAA=     0 NBB=     0.
 DE(Corr)= -0.87412228     E(CORR)=     -5258.5576028     Delta=-1.06D-06
 NORM(A)=   0.11404110D+01
 Iteration Nr.  12
 **********************
 DD1Dir will call FoFMem   1 times, MxPair=       506
 NAB=   253 NAA=     0 NBB=     0.
 DE(Corr)= -0.87412266     E(CORR)=     -5258.5576032     Delta=-3.82D-07
 NORM(A)=   0.11404121D+01
 Iteration Nr.  13
 **********************
 DD1Dir will call FoFMem   1 times, MxPair=       506
 NAB=   253 NAA=     0 NBB=     0.
 DE(Corr)= -0.87412314     E(CORR)=     -5258.5576037     Delta=-4.78D-07
 NORM(A)=   0.11404129D+01
 Iteration Nr.  14
 **********************
 DD1Dir will call FoFMem   1 times, MxPair=       506
 NAB=   253 NAA=     0 NBB=     0.
 DE(Corr)= -0.87412327     E(CORR)=     -5258.5576038     Delta=-1.25D-07
 NORM(A)=   0.11404132D+01
 Iteration Nr.  15
 **********************
 DD1Dir will call FoFMem   1 times, MxPair=       506
 NAB=   253 NAA=     0 NBB=     0.
 DE(Corr)= -0.87412334     E(CORR)=     -5258.5576039     Delta=-7.38D-08
 NORM(A)=   0.11404134D+01
 Iteration Nr.  16
 **********************
 DD1Dir will call FoFMem   1 times, MxPair=       506
 NAB=   253 NAA=     0 NBB=     0.
 DE(Corr)= -0.87412337     E(CORR)=     -5258.5576039     Delta=-3.17D-08
 NORM(A)=   0.11404135D+01
 Iteration Nr.  17
 **********************
 DD1Dir will call FoFMem   1 times, MxPair=       506
 NAB=   253 NAA=     0 NBB=     0.
 DE(Corr)= -0.87412337     E(CORR)=     -5258.5576039     Delta= 1.22D-09
 NORM(A)=   0.11404135D+01
 Iteration Nr.  18
 **********************
 DD1Dir will call FoFMem   1 times, MxPair=       506
 NAB=   253 NAA=     0 NBB=     0.
 DE(Corr)= -0.87412337     E(CORR)=     -5258.5576039     Delta=-2.79D-09
 NORM(A)=   0.11404135D+01
 Iteration Nr.  19
 **********************
 DD1Dir will call FoFMem   1 times, MxPair=       506
 NAB=   253 NAA=     0 NBB=     0.
 DE(Corr)= -0.87412337     E(CORR)=     -5258.5576039     Delta=-1.04D-09
 NORM(A)=   0.11404135D+01
 Iteration Nr.  20
 **********************
 DD1Dir will call FoFMem   1 times, MxPair=       506
 NAB=   253 NAA=     0 NBB=     0.
 DE(Corr)= -0.87412338     E(CORR)=     -5258.5576039     Delta=-5.44D-09
 NORM(A)=   0.11404136D+01
 Iteration Nr.  21
 **********************
 DD1Dir will call FoFMem   1 times, MxPair=       506
 NAB=   253 NAA=     0 NBB=     0.
 DE(Corr)= -0.87412342     E(CORR)=     -5258.5576039     Delta=-4.40D-08
 NORM(A)=   0.11404134D+01
 Iteration Nr.  22
 **********************
 DD1Dir will call FoFMem   1 times, MxPair=       506
 NAB=   253 NAA=     0 NBB=     0.
 DE(Corr)= -0.87412334     E(CORR)=     -5258.5576039     Delta= 7.88D-08
 NORM(A)=   0.11404135D+01
 Iteration Nr.  23
 **********************
 DD1Dir will call FoFMem   1 times, MxPair=       506
 NAB=   253 NAA=     0 NBB=     0.
 DE(Corr)= -0.87412337     E(CORR)=     -5258.5576039     Delta=-3.00D-08
 NORM(A)=   0.11404135D+01
 Iteration Nr.  24
 **********************
 DD1Dir will call FoFMem   1 times, MxPair=       506
 NAB=   253 NAA=     0 NBB=     0.
 DE(Corr)= -0.87412338     E(CORR)=     -5258.5576039     Delta=-1.99D-09
 NORM(A)=   0.11404135D+01
 Largest amplitude= 4.56D-02

 Z-AMPLITUDE ITERATIONS

 Iteration Nr.   1
 **********************
 DD1Dir will call FoFMem   1 times, MxPair=       506
 NAB=   253 NAA=     0 NBB=     0.
 DE(Z)  -0.84682399D+00          E(Z)=    -0.52585303045D+04
 NORM(A)=   0.11401812D+01
 Iteration Nr.   2
 **********************
 DD1Dir will call FoFMem   1 times, MxPair=       506
 NAB=   253 NAA=     0 NBB=     0.
 DE(Z)  -0.84682385D+00          E(Z)=    -0.52585303044D+04
 NORM(A)=   0.11401894D+01
 Iteration Nr.   3
 **********************
 DD1Dir will call FoFMem   1 times, MxPair=       506
 NAB=   253 NAA=     0 NBB=     0.
 DE(Z)  -0.84682392D+00          E(Z)=    -0.52585303044D+04
 NORM(A)=   0.11389350D+01
 Iteration Nr.   4
 **********************
 DD1Dir will call FoFMem   1 times, MxPair=       506
 NAB=   253 NAA=     0 NBB=     0.
 DE(Z)  -0.84682404D+00          E(Z)=    -0.52585303046D+04
 NORM(A)=   0.11396484D+01
 Iteration Nr.   5
 **********************
 DD1Dir will call FoFMem   1 times, MxPair=       506
 NAB=   253 NAA=     0 NBB=     0.
 DE(Z)  -0.84682174D+00          E(Z)=    -0.52585303023D+04
 NORM(A)=   0.11305109D+01
 Iteration Nr.   6
 **********************
 DD1Dir will call FoFMem   1 times, MxPair=       506
 NAB=   253 NAA=     0 NBB=     0.
 DE(Z)  -0.84680468D+00          E(Z)=    -0.52585302852D+04
 NORM(A)=   0.11305116D+01
 Iteration Nr.   7
 **********************
 DD1Dir will call FoFMem   1 times, MxPair=       506
 NAB=   253 NAA=     0 NBB=     0.
 DE(Z)  -0.84680190D+00          E(Z)=    -0.52585302824D+04
 NORM(A)=   0.11305125D+01
 Iteration Nr.   8
 **********************
 DD1Dir will call FoFMem   1 times, MxPair=       506
 NAB=   253 NAA=     0 NBB=     0.
 DE(Z)  -0.84680282D+00          E(Z)=    -0.52585302833D+04
 NORM(A)=   0.11305128D+01
 Iteration Nr.   9
 **********************
 DD1Dir will call FoFMem   1 times, MxPair=       506
 NAB=   253 NAA=     0 NBB=     0.
 DE(Z)  -0.84680237D+00          E(Z)=    -0.52585302829D+04
 NORM(A)=   0.11305131D+01
 Iteration Nr.  10
 **********************
 DD1Dir will call FoFMem   1 times, MxPair=       506
 NAB=   253 NAA=     0 NBB=     0.
 DE(Z)  -0.84680246D+00          E(Z)=    -0.52585302830D+04
 NORM(A)=   0.11305132D+01
 Iteration Nr.  11
 **********************
 DD1Dir will call FoFMem   1 times, MxPair=       506
 NAB=   253 NAA=     0 NBB=     0.
 DE(Z)  -0.84680248D+00          E(Z)=    -0.52585302830D+04
 NORM(A)=   0.11305133D+01
 Iteration Nr.  12
 **********************
 DD1Dir will call FoFMem   1 times, MxPair=       506
 NAB=   253 NAA=     0 NBB=     0.
 DE(Z)  -0.84680248D+00          E(Z)=    -0.52585302830D+04
 NORM(A)=   0.11305133D+01
 Iteration Nr.  13
 **********************
 DD1Dir will call FoFMem   1 times, MxPair=       506
 NAB=   253 NAA=     0 NBB=     0.
 DE(Z)  -0.84680248D+00          E(Z)=    -0.52585302830D+04
 NORM(A)=   0.11305133D+01
 Iteration Nr.  14
 **********************
 DD1Dir will call FoFMem   1 times, MxPair=       506
 NAB=   253 NAA=     0 NBB=     0.
 DE(Z)  -0.84680248D+00          E(Z)=    -0.52585302830D+04
 NORM(A)=   0.11305133D+01
 Iteration Nr.  15
 **********************
 DD1Dir will call FoFMem   1 times, MxPair=       506
 NAB=   253 NAA=     0 NBB=     0.
 DE(Z)  -0.84680249D+00          E(Z)=    -0.52585302830D+04
 NORM(A)=   0.11305133D+01
 Iteration Nr.  16
 **********************
 DD1Dir will call FoFMem   1 times, MxPair=       506
 NAB=   253 NAA=     0 NBB=     0.
 DE(Z)  -0.84680249D+00          E(Z)=    -0.52585302830D+04
 NORM(A)=   0.11305133D+01
 Iteration Nr.  17
 **********************
 DD1Dir will call FoFMem   1 times, MxPair=       506
 NAB=   253 NAA=     0 NBB=     0.
 DE(Z)  -0.84680249D+00          E(Z)=    -0.52585302830D+04
 NORM(A)=   0.11305133D+01
 Discarding MO integrals.
          Differentiating once with respect to electric field.
                with respect to dipole field.
          Electric field/nuclear overlap derivatives assumed to be zero.
          Keep R1 ints in memory in canonical form, NReq=478620341.
          There are     1 degrees of freedom in the 1st order CPHF.  IDoFFX=0.
 LinEq1:  Iter=  0 NonCon=     1 RMS=1.96D-03 Max=5.94D-02
 AX will form     1 AO Fock derivatives at one time.
 LinEq1:  Iter=  1 NonCon=     1 RMS=7.44D-04 Max=2.59D-02
 LinEq1:  Iter=  2 NonCon=     1 RMS=3.12D-04 Max=9.77D-03
 LinEq1:  Iter=  3 NonCon=     1 RMS=1.04D-04 Max=3.22D-03
 LinEq1:  Iter=  4 NonCon=     1 RMS=5.42D-05 Max=1.64D-03
 LinEq1:  Iter=  5 NonCon=     1 RMS=1.66D-05 Max=4.69D-04
 LinEq1:  Iter=  6 NonCon=     1 RMS=6.40D-06 Max=1.37D-04
 LinEq1:  Iter=  7 NonCon=     1 RMS=1.38D-06 Max=2.20D-05
 LinEq1:  Iter=  8 NonCon=     1 RMS=2.77D-07 Max=4.53D-06
 LinEq1:  Iter=  9 NonCon=     1 RMS=6.79D-08 Max=1.22D-06
 LinEq1:  Iter= 10 NonCon=     1 RMS=1.45D-08 Max=2.30D-07
 LinEq1:  Iter= 11 NonCon=     1 RMS=4.10D-09 Max=9.92D-08
 LinEq1:  Iter= 12 NonCon=     1 RMS=7.54D-10 Max=1.69D-08
 LinEq1:  Iter= 13 NonCon=     1 RMS=1.24D-10 Max=2.82D-09
 LinEq1:  Iter= 14 NonCon=     0 RMS=1.86D-11 Max=4.20D-10
 Linear equations converged to 1.000D-10 1.000D-09 after    14 iterations.
 End of Minotr Frequency-dependent properties file   721 does not exist.
 End of Minotr Frequency-dependent properties file   722 does not exist.

 **********************************************************************

            Population analysis using the QCI/CC density.

 **********************************************************************

     Natural Orbital Coefficients:
                           1         2         3         4         5
     Eigenvalues --     2.00002   2.00002   2.00001   2.00001   2.00001
   1 1   C  1S          0.36498   0.00000   0.00000  -0.21783   0.00000
   2        2S         -0.01009   0.00000   0.00000   0.00227   0.00000
   3        3S          0.01407   0.00000   0.00000  -0.00909   0.00000
   4        4S         -0.01319   0.00000   0.00000   0.00318   0.00000
   5        5S         -0.00459   0.00000   0.00000  -0.00263   0.00000
   6        6PX         0.00000   0.00000   0.00000   0.00000   0.00000
   7        6PY         0.00000  -0.00272   0.00004   0.00000  -0.00022
   8        6PZ         0.00169   0.00000   0.00000   0.00014   0.00000
   9        7PX         0.00000   0.00000   0.00000   0.00000   0.00000
  10        7PY         0.00000  -0.00467   0.00027   0.00000  -0.00040
  11        7PZ         0.00466   0.00000   0.00000  -0.00079   0.00000
  12        8PX         0.00000   0.00000   0.00000   0.00000   0.00000
  13        8PY         0.00000  -0.00455  -0.00125   0.00000  -0.00556
  14        8PZ         0.00382   0.00000   0.00000  -0.00071   0.00000
  15        9PX         0.00000   0.00000   0.00000   0.00000   0.00000
  16        9PY         0.00000   0.00072   0.00165   0.00000  -0.00174
  17        9PZ         0.00023   0.00000   0.00000   0.00049   0.00000
  18       10D 0        0.00030   0.00000   0.00000  -0.00018   0.00000
  19       10D+1        0.00000   0.00000   0.00000   0.00000   0.00000
  20       10D-1        0.00000   0.00043  -0.00009   0.00000  -0.00005
  21       10D+2        0.00012   0.00000   0.00000   0.00017   0.00000
  22       10D-2        0.00000   0.00000   0.00000   0.00000   0.00000
  23       11D 0       -0.00005   0.00000   0.00000   0.00009   0.00000
  24       11D+1        0.00000   0.00000   0.00000   0.00000   0.00000
  25       11D-1        0.00000   0.00160   0.00027   0.00000  -0.00034
  26       11D+2        0.00172   0.00000   0.00000  -0.00052   0.00000
  27       11D-2        0.00000   0.00000   0.00000   0.00000   0.00000
  28       12D 0       -0.00040   0.00000   0.00000   0.00014   0.00000
  29       12D+1        0.00000   0.00000   0.00000   0.00000   0.00000
  30       12D-1        0.00000   0.00264   0.00132   0.00000   0.00130
  31       12D+2        0.00100   0.00000   0.00000  -0.00011   0.00000
  32       12D-2        0.00000   0.00000   0.00000   0.00000   0.00000
  33       13F 0        0.00015   0.00000   0.00000  -0.00015   0.00000
  34       13F+1        0.00000   0.00000   0.00000   0.00000   0.00000
  35       13F-1        0.00000  -0.00001   0.00006   0.00000   0.00000
  36       13F+2        0.00001   0.00000   0.00000  -0.00003   0.00000
  37       13F-2        0.00000   0.00000   0.00000   0.00000   0.00000
  38       13F+3        0.00000   0.00000   0.00000   0.00000   0.00000
  39       13F-3        0.00000  -0.00008  -0.00003   0.00000  -0.00004
  40       14F 0       -0.00018   0.00000   0.00000   0.00053   0.00000
  41       14F+1        0.00000   0.00000   0.00000   0.00000   0.00000
  42       14F-1        0.00000   0.00067   0.00003   0.00000  -0.00008
  43       14F+2       -0.00012   0.00000   0.00000   0.00040   0.00000
  44       14F-2        0.00000   0.00000   0.00000   0.00000   0.00000
  45       14F+3        0.00000   0.00000   0.00000   0.00000   0.00000
  46       14F-3        0.00000   0.00023   0.00012   0.00000   0.00027
  47 2   Br 1S         -0.04389   0.03917  -0.08374  -0.08107  -0.00140
  48        2S          0.16246  -0.14497   0.31188   0.30196   0.00530
  49        3S         -0.34214   0.30370  -0.67245  -0.65148  -0.01147
  50        4S         -0.00110   0.00097  -0.00202  -0.00226   0.00016
  51        5S         -0.01829   0.01628  -0.03255  -0.03137  -0.00051
  52        6S          0.00372  -0.00279  -0.00746  -0.00685  -0.00349
  53        7S          0.00223   0.00038   0.00264   0.00136  -0.00313
  54        8PX         0.00000   0.00000   0.00000   0.00000   0.00000
  55        8PY         0.19384  -0.22192  -0.09608  -0.08051   0.13167
  56        8PZ         0.11976  -0.13135  -0.05178  -0.07264  -0.22765
  57        9PX         0.00000   0.00000   0.00000   0.00000   0.00000
  58        9PY        -0.50435   0.58031   0.27004   0.22558  -0.37289
  59        9PZ        -0.31231   0.34296   0.14485   0.20404   0.64130
  60       10PX         0.00000   0.00000   0.00000   0.00000   0.00000
  61       10PY         0.00231  -0.00070  -0.00010  -0.00077  -0.00123
  62       10PZ         0.00126  -0.00093  -0.00017  -0.00026   0.00100
  63       11PX         0.00000   0.00000   0.00000   0.00000   0.00000
  64       11PY        -0.02394   0.02755   0.01235   0.01024  -0.01659
  65       11PZ        -0.01495   0.01634   0.00659   0.00930   0.02858
  66       12PX         0.00000   0.00000   0.00000   0.00000   0.00000
  67       12PY         0.00156   0.00116   0.00132   0.00033  -0.00408
  68       12PZ         0.00074   0.00021   0.00063   0.00061   0.00187
  69       13PX         0.00000   0.00000   0.00000   0.00000   0.00000
  70       13PY         0.00041  -0.00008   0.00024   0.00021  -0.00021
  71       13PZ         0.00031   0.00000   0.00031   0.00006  -0.00064
  72       14D 0        0.00280  -0.00318  -0.00121  -0.00204  -0.00788
  73       14D+1        0.00000   0.00000   0.00000   0.00000   0.00000
  74       14D-1       -0.02432   0.02721   0.00534   0.00467  -0.00398
  75       14D+2        0.01506  -0.01703  -0.00390  -0.00424  -0.00453
  76       14D-2        0.00000   0.00000   0.00000   0.00000   0.00000
  77       15D 0        0.00030  -0.00024  -0.00007  -0.00015  -0.00048
  78       15D+1        0.00000   0.00000   0.00000   0.00000   0.00000
  79       15D-1       -0.00250   0.00267   0.00027   0.00027  -0.00024
  80       15D+2        0.00168  -0.00171  -0.00021  -0.00024  -0.00028
  81       15D-2        0.00000   0.00000   0.00000   0.00000   0.00000
  82       16D 0        0.00003  -0.00020  -0.00003  -0.00001  -0.00028
  83       16D+1        0.00000   0.00000   0.00000   0.00000   0.00000
  84       16D-1        0.00110  -0.00063   0.00012  -0.00026  -0.00025
  85       16D+2       -0.00083   0.00038  -0.00005   0.00007  -0.00010
  86       16D-2        0.00000   0.00000   0.00000   0.00000   0.00000
  87       17D 0       -0.00005   0.00004   0.00006  -0.00003   0.00005
  88       17D+1        0.00000   0.00000   0.00000   0.00000   0.00000
  89       17D-1        0.00053  -0.00035   0.00004  -0.00004  -0.00044
  90       17D+2       -0.00053  -0.00011  -0.00020   0.00009   0.00032
  91       17D-2        0.00000   0.00000   0.00000   0.00000   0.00000
  92       18F 0        0.00024  -0.00030  -0.00008  -0.00006   0.00004
  93       18F+1        0.00000   0.00000   0.00000   0.00000   0.00000
  94       18F-1       -0.00009   0.00012   0.00002   0.00003   0.00034
  95       18F+2        0.00039  -0.00043  -0.00010  -0.00009  -0.00002
  96       18F-2        0.00000   0.00000   0.00000   0.00000   0.00000
  97       18F+3        0.00000   0.00000   0.00000   0.00000   0.00000
  98       18F-3        0.00021  -0.00023  -0.00003  -0.00004   0.00014
  99       19F 0       -0.00030   0.00030   0.00006   0.00014  -0.00006
 100       19F+1        0.00000   0.00000   0.00000   0.00000   0.00000
 101       19F-1        0.00023  -0.00029  -0.00001  -0.00010  -0.00032
 102       19F+2       -0.00064   0.00047   0.00004   0.00018   0.00002
 103       19F-2        0.00000   0.00000   0.00000   0.00000   0.00000
 104       19F+3        0.00000   0.00000   0.00000   0.00000   0.00000
 105       19F-3       -0.00036   0.00018  -0.00004   0.00005  -0.00016
 106 3   Br 1S         -0.04389  -0.03917   0.08374  -0.08107   0.00140
 107        2S          0.16246   0.14497  -0.31188   0.30196  -0.00530
 108        3S         -0.34214  -0.30370   0.67245  -0.65148   0.01147
 109        4S         -0.00110  -0.00097   0.00202  -0.00226  -0.00016
 110        5S         -0.01829  -0.01628   0.03255  -0.03137   0.00051
 111        6S          0.00372   0.00279   0.00746  -0.00685   0.00349
 112        7S          0.00223  -0.00038  -0.00264   0.00136   0.00313
 113        8PX         0.00000   0.00000   0.00000   0.00000   0.00000
 114        8PY        -0.19384  -0.22192  -0.09608   0.08051   0.13167
 115        8PZ         0.11976   0.13135   0.05178  -0.07264   0.22765
 116        9PX         0.00000   0.00000   0.00000   0.00000   0.00000
 117        9PY         0.50435   0.58031   0.27004  -0.22558  -0.37289
 118        9PZ        -0.31231  -0.34296  -0.14485   0.20404  -0.64130
 119       10PX         0.00000   0.00000   0.00000   0.00000   0.00000
 120       10PY        -0.00231  -0.00070  -0.00010   0.00077  -0.00123
 121       10PZ         0.00126   0.00093   0.00017  -0.00026  -0.00100
 122       11PX         0.00000   0.00000   0.00000   0.00000   0.00000
 123       11PY         0.02394   0.02755   0.01235  -0.01024  -0.01659
 124       11PZ        -0.01495  -0.01634  -0.00659   0.00930  -0.02858
 125       12PX         0.00000   0.00000   0.00000   0.00000   0.00000
 126       12PY        -0.00156   0.00116   0.00132  -0.00033  -0.00408
 127       12PZ         0.00074  -0.00021  -0.00063   0.00061  -0.00187
 128       13PX         0.00000   0.00000   0.00000   0.00000   0.00000
 129       13PY        -0.00041  -0.00008   0.00024  -0.00021  -0.00021
 130       13PZ         0.00031   0.00000  -0.00031   0.00006   0.00064
 131       14D 0        0.00280   0.00318   0.00121  -0.00204   0.00788
 132       14D+1        0.00000   0.00000   0.00000   0.00000   0.00000
 133       14D-1        0.02432   0.02721   0.00534  -0.00467  -0.00398
 134       14D+2        0.01506   0.01703   0.00390  -0.00424   0.00453
 135       14D-2        0.00000   0.00000   0.00000   0.00000   0.00000
 136       15D 0        0.00030   0.00024   0.00007  -0.00015   0.00048
 137       15D+1        0.00000   0.00000   0.00000   0.00000   0.00000
 138       15D-1        0.00250   0.00267   0.00027  -0.00027  -0.00024
 139       15D+2        0.00168   0.00171   0.00021  -0.00024   0.00028
 140       15D-2        0.00000   0.00000   0.00000   0.00000   0.00000
 141       16D 0        0.00003   0.00020   0.00003  -0.00001   0.00028
 142       16D+1        0.00000   0.00000   0.00000   0.00000   0.00000
 143       16D-1       -0.00110  -0.00063   0.00012   0.00026  -0.00025
 144       16D+2       -0.00083  -0.00038   0.00005   0.00007   0.00010
 145       16D-2        0.00000   0.00000   0.00000   0.00000   0.00000
 146       17D 0       -0.00005  -0.00004  -0.00006  -0.00003  -0.00005
 147       17D+1        0.00000   0.00000   0.00000   0.00000   0.00000
 148       17D-1       -0.00053  -0.00035   0.00004   0.00004  -0.00044
 149       17D+2       -0.00053   0.00011   0.00020   0.00009  -0.00032
 150       17D-2        0.00000   0.00000   0.00000   0.00000   0.00000
 151       18F 0        0.00024   0.00030   0.00008  -0.00006  -0.00004
 152       18F+1        0.00000   0.00000   0.00000   0.00000   0.00000
 153       18F-1        0.00009   0.00012   0.00002  -0.00003   0.00034
 154       18F+2        0.00039   0.00043   0.00010  -0.00009   0.00002
 155       18F-2        0.00000   0.00000   0.00000   0.00000   0.00000
 156       18F+3        0.00000   0.00000   0.00000   0.00000   0.00000
 157       18F-3       -0.00021  -0.00023  -0.00003   0.00004   0.00014
 158       19F 0       -0.00030  -0.00030  -0.00006   0.00014   0.00006
 159       19F+1        0.00000   0.00000   0.00000   0.00000   0.00000
 160       19F-1       -0.00023  -0.00029  -0.00001   0.00010  -0.00032
 161       19F+2       -0.00064  -0.00047  -0.00004   0.00018  -0.00002
 162       19F-2        0.00000   0.00000   0.00000   0.00000   0.00000
 163       19F+3        0.00000   0.00000   0.00000   0.00000   0.00000
 164       19F-3        0.00036   0.00018  -0.00004  -0.00005  -0.00016
 165 4   O  1S         -0.06663   0.00000   0.00000   0.06584   0.00000
 166        2S          0.00095   0.00000   0.00000  -0.00149   0.00000
 167        3S         -0.00278   0.00000   0.00000   0.00272   0.00000
 168        4S          0.00116   0.00000   0.00000  -0.00065   0.00000
 169        5S          0.00067   0.00000   0.00000   0.00099   0.00000
 170        6PX         0.00000   0.00000   0.00000   0.00000   0.00000
 171        6PY         0.00000   0.00063   0.00029   0.00000   0.00016
 172        6PZ         0.00052   0.00000   0.00000  -0.00045   0.00000
 173        7PX         0.00000   0.00000   0.00000   0.00000   0.00000
 174        7PY         0.00000   0.00075   0.00032   0.00000   0.00032
 175        7PZ         0.00063   0.00000   0.00000  -0.00041   0.00000
 176        8PX         0.00000   0.00000   0.00000   0.00000   0.00000
 177        8PY         0.00000  -0.00021  -0.00009   0.00000   0.00111
 178        8PZ         0.00034   0.00000   0.00000  -0.00080   0.00000
 179        9PX         0.00000   0.00000   0.00000   0.00000   0.00000
 180        9PY         0.00000  -0.00069  -0.00063   0.00000   0.00017
 181        9PZ         0.00017   0.00000   0.00000  -0.00038   0.00000
 182       10D 0       -0.00003   0.00000   0.00000   0.00002   0.00000
 183       10D+1        0.00000   0.00000   0.00000   0.00000   0.00000
 184       10D-1        0.00000   0.00003  -0.00002   0.00000   0.00002
 185       10D+2        0.00003   0.00000   0.00000   0.00000   0.00000
 186       10D-2        0.00000   0.00000   0.00000   0.00000   0.00000
 187       11D 0       -0.00025   0.00000   0.00000   0.00015   0.00000
 188       11D+1        0.00000   0.00000   0.00000   0.00000   0.00000
 189       11D-1        0.00000   0.00015   0.00010   0.00000  -0.00008
 190       11D+2       -0.00009   0.00000   0.00000  -0.00003   0.00000
 191       11D-2        0.00000   0.00000   0.00000   0.00000   0.00000
 192       12D 0       -0.00043   0.00000   0.00000   0.00028   0.00000
 193       12D+1        0.00000   0.00000   0.00000   0.00000   0.00000
 194       12D-1        0.00000   0.00031   0.00009   0.00000  -0.00035
 195       12D+2       -0.00022   0.00000   0.00000  -0.00012   0.00000
 196       12D-2        0.00000   0.00000   0.00000   0.00000   0.00000
 197       13F 0       -0.00008   0.00000   0.00000   0.00003   0.00000
 198       13F+1        0.00000   0.00000   0.00000   0.00000   0.00000
 199       13F-1        0.00000  -0.00001   0.00000   0.00000   0.00003
 200       13F+2        0.00000   0.00000   0.00000  -0.00001   0.00000
 201       13F-2        0.00000   0.00000   0.00000   0.00000   0.00000
 202       13F+3        0.00000   0.00000   0.00000   0.00000   0.00000
 203       13F-3        0.00000  -0.00002   0.00001   0.00000  -0.00001
 204       14F 0        0.00025   0.00000   0.00000  -0.00008   0.00000
 205       14F+1        0.00000   0.00000   0.00000   0.00000   0.00000
 206       14F-1        0.00000  -0.00006  -0.00005   0.00000  -0.00002
 207       14F+2        0.00013   0.00000   0.00000   0.00004   0.00000
 208       14F-2        0.00000   0.00000   0.00000   0.00000   0.00000
 209       14F+3        0.00000   0.00000   0.00000   0.00000   0.00000
 210       14F-3        0.00000   0.00005  -0.00003   0.00000   0.00001
                           6         7         8         9        10
     Eigenvalues --     2.00001   2.00001   2.00001   2.00001   2.00000
   1 1   C  1S         -0.07372   0.00000   0.44223   0.00000   0.76193
   2        2S          0.00079   0.00000  -0.00530   0.00000  -0.00720
   3        3S         -0.00314   0.00000   0.01848   0.00000   0.03195
   4        4S         -0.00340   0.00000   0.00102   0.00000   0.00265
   5        5S         -0.00153   0.00000   0.00055   0.00000   0.00262
   6        6PX         0.00000   0.00000   0.00000   0.00063   0.00000
   7        6PY         0.00000   0.00000   0.00000   0.00000   0.00000
   8        6PZ         0.00031   0.00000  -0.00082   0.00000  -0.00116
   9        7PX         0.00000   0.00000   0.00000   0.00106   0.00000
  10        7PY         0.00000   0.00000   0.00000   0.00000   0.00000
  11        7PZ         0.00001   0.00000  -0.00084   0.00000   0.00331
  12        8PX         0.00000   0.00000   0.00000   0.00133   0.00000
  13        8PY         0.00000   0.00000   0.00000   0.00000   0.00000
  14        8PZ         0.00572   0.00000  -0.00007   0.00000  -0.00146
  15        9PX         0.00000   0.00000   0.00000   0.00004   0.00000
  16        9PY         0.00000   0.00000   0.00000   0.00000   0.00000
  17        9PZ         0.00016   0.00000  -0.00019   0.00000  -0.00013
  18       10D 0       -0.00016   0.00000   0.00007   0.00000   0.00067
  19       10D+1        0.00000   0.00000   0.00000  -0.00009   0.00000
  20       10D-1        0.00000   0.00000   0.00000   0.00000   0.00000
  21       10D+2       -0.00008   0.00000  -0.00015   0.00000  -0.00021
  22       10D-2        0.00000  -0.00009   0.00000   0.00000   0.00000
  23       11D 0       -0.00035   0.00000  -0.00092   0.00000   0.00100
  24       11D+1        0.00000   0.00000   0.00000  -0.00074   0.00000
  25       11D-1        0.00000   0.00000   0.00000   0.00000   0.00000
  26       11D+2       -0.00019   0.00000   0.00033   0.00000   0.00110
  27       11D-2        0.00000  -0.00070   0.00000   0.00000   0.00000
  28       12D 0       -0.00019   0.00000   0.00000   0.00000  -0.00120
  29       12D+1        0.00000   0.00000   0.00000  -0.00064   0.00000
  30       12D-1        0.00000   0.00000   0.00000   0.00000   0.00000
  31       12D+2        0.00041   0.00000  -0.00019   0.00000  -0.00105
  32       12D-2        0.00000   0.00012   0.00000   0.00000   0.00000
  33       13F 0       -0.00011   0.00000   0.00023   0.00000   0.00038
  34       13F+1        0.00000   0.00000   0.00000  -0.00006   0.00000
  35       13F-1        0.00000   0.00000   0.00000   0.00000   0.00000
  36       13F+2        0.00003   0.00000   0.00000   0.00000  -0.00009
  37       13F-2        0.00000  -0.00001   0.00000   0.00000   0.00000
  38       13F+3        0.00000   0.00000   0.00000   0.00002   0.00000
  39       13F-3        0.00000   0.00000   0.00000   0.00000   0.00000
  40       14F 0        0.00051   0.00000  -0.00119   0.00000  -0.00068
  41       14F+1        0.00000   0.00000   0.00000   0.00008   0.00000
  42       14F-1        0.00000   0.00000   0.00000   0.00000   0.00000
  43       14F+2       -0.00028   0.00000  -0.00070   0.00000  -0.00063
  44       14F-2        0.00000   0.00021   0.00000   0.00000   0.00000
  45       14F+3        0.00000   0.00000   0.00000  -0.00036   0.00000
  46       14F-3        0.00000   0.00000   0.00000   0.00000   0.00000
  47 2   Br 1S          0.00644   0.00000  -0.00167   0.00000   0.00044
  48        2S         -0.02421   0.00000   0.00663   0.00000  -0.00083
  49        3S          0.05325   0.00000  -0.01813   0.00000  -0.00718
  50        4S          0.00001   0.00000   0.00052   0.00000   0.00096
  51        5S          0.00250   0.00000  -0.00071   0.00000  -0.00052
  52        6S          0.00330   0.00000  -0.00044   0.00000  -0.00089
  53        7S          0.00107   0.00000  -0.00012   0.00000  -0.00109
  54        8PX         0.00000  -0.26230   0.00000  -0.26287   0.00000
  55        8PY         0.15726   0.00000  -0.04276   0.00000  -0.08640
  56        8PZ        -0.20426   0.00000  -0.09244   0.00000  -0.05013
  57        9PX         0.00000   0.74192   0.00000   0.74228   0.00000
  58        9PY        -0.43848   0.00000   0.10078   0.00000   0.20468
  59        9PZ         0.57862   0.00000   0.24893   0.00000   0.11916
  60       10PX         0.00000   0.00130   0.00000   0.00070   0.00000
  61       10PY         0.00023   0.00000  -0.00048   0.00000  -0.00042
  62       10PZ         0.00133   0.00000   0.00007   0.00000   0.00018
  63       11PX         0.00000   0.03316   0.00000   0.03282   0.00000
  64       11PY        -0.01948   0.00000   0.00444   0.00000   0.00864
  65       11PZ         0.02569   0.00000   0.01096   0.00000   0.00495
  66       12PX         0.00000   0.00388   0.00000   0.00269   0.00000
  67       12PY        -0.00011   0.00000  -0.00016   0.00000  -0.00007
  68       12PZ         0.00315   0.00000   0.00080   0.00000  -0.00059
  69       13PX         0.00000  -0.00032   0.00000  -0.00025   0.00000
  70       13PY         0.00028   0.00000  -0.00004   0.00000  -0.00024
  71       13PZ         0.00001   0.00000  -0.00002   0.00000  -0.00019
  72       14D 0       -0.00743   0.00000  -0.00278   0.00000  -0.00126
  73       14D+1        0.00000   0.00110   0.00000   0.00120   0.00000
  74       14D-1       -0.00691   0.00000   0.00750   0.00000   0.00981
  75       14D+2       -0.00268   0.00000  -0.00637   0.00000  -0.00632
  76       14D-2        0.00000   0.00238   0.00000   0.00233   0.00000
  77       15D 0       -0.00040   0.00000  -0.00021   0.00000  -0.00011
  78       15D+1        0.00000   0.00017   0.00000   0.00019   0.00000
  79       15D-1       -0.00042   0.00000   0.00069   0.00000   0.00087
  80       15D+2       -0.00010   0.00000  -0.00061   0.00000  -0.00062
  81       15D-2        0.00000   0.00029   0.00000   0.00035   0.00000
  82       16D 0       -0.00037   0.00000  -0.00010   0.00000   0.00011
  83       16D+1        0.00000  -0.00010   0.00000  -0.00016   0.00000
  84       16D-1       -0.00011   0.00000   0.00025   0.00000   0.00074
  85       16D+2       -0.00032   0.00000  -0.00001   0.00000  -0.00021
  86       16D-2        0.00000  -0.00017   0.00000  -0.00018   0.00000
  87       17D 0       -0.00024   0.00000   0.00002   0.00000  -0.00012
  88       17D+1        0.00000   0.00009   0.00000  -0.00009   0.00000
  89       17D-1        0.00019   0.00000  -0.00002   0.00000  -0.00022
  90       17D+2       -0.00032   0.00000   0.00004   0.00000   0.00001
  91       17D-2        0.00000   0.00016   0.00000  -0.00023   0.00000
  92       18F 0        0.00008   0.00000  -0.00008   0.00000  -0.00012
  93       18F+1        0.00000   0.00001   0.00000   0.00001   0.00000
  94       18F-1        0.00032   0.00000   0.00008   0.00000   0.00007
  95       18F+2        0.00000   0.00000  -0.00014   0.00000  -0.00022
  96       18F-2        0.00000   0.00022   0.00000   0.00025   0.00000
  97       18F+3        0.00000  -0.00018   0.00000  -0.00023   0.00000
  98       18F-3        0.00008   0.00000  -0.00006   0.00000  -0.00011
  99       19F 0       -0.00008   0.00000  -0.00009   0.00000  -0.00011
 100       19F+1        0.00000  -0.00001   0.00000  -0.00003   0.00000
 101       19F-1       -0.00038   0.00000  -0.00001   0.00000   0.00018
 102       19F+2        0.00003   0.00000   0.00000   0.00000  -0.00012
 103       19F-2        0.00000  -0.00017   0.00000  -0.00025   0.00000
 104       19F+3        0.00000   0.00014   0.00000   0.00024   0.00000
 105       19F-3       -0.00010   0.00000   0.00009   0.00000   0.00001
 106 3   Br 1S          0.00644   0.00000  -0.00167   0.00000   0.00044
 107        2S         -0.02421   0.00000   0.00663   0.00000  -0.00083
 108        3S          0.05325   0.00000  -0.01813   0.00000  -0.00718
 109        4S          0.00001   0.00000   0.00052   0.00000   0.00096
 110        5S          0.00250   0.00000  -0.00071   0.00000  -0.00052
 111        6S          0.00330   0.00000  -0.00044   0.00000  -0.00089
 112        7S          0.00107   0.00000  -0.00012   0.00000  -0.00109
 113        8PX         0.00000   0.26230   0.00000  -0.26287   0.00000
 114        8PY        -0.15726   0.00000   0.04276   0.00000   0.08640
 115        8PZ        -0.20426   0.00000  -0.09244   0.00000  -0.05013
 116        9PX         0.00000  -0.74192   0.00000   0.74228   0.00000
 117        9PY         0.43848   0.00000  -0.10078   0.00000  -0.20468
 118        9PZ         0.57862   0.00000   0.24893   0.00000   0.11916
 119       10PX         0.00000  -0.00130   0.00000   0.00070   0.00000
 120       10PY        -0.00023   0.00000   0.00048   0.00000   0.00042
 121       10PZ         0.00133   0.00000   0.00007   0.00000   0.00018
 122       11PX         0.00000  -0.03316   0.00000   0.03282   0.00000
 123       11PY         0.01948   0.00000  -0.00444   0.00000  -0.00864
 124       11PZ         0.02569   0.00000   0.01096   0.00000   0.00495
 125       12PX         0.00000  -0.00388   0.00000   0.00269   0.00000
 126       12PY         0.00011   0.00000   0.00016   0.00000   0.00007
 127       12PZ         0.00315   0.00000   0.00080   0.00000  -0.00059
 128       13PX         0.00000   0.00032   0.00000  -0.00025   0.00000
 129       13PY        -0.00028   0.00000   0.00004   0.00000   0.00024
 130       13PZ         0.00001   0.00000  -0.00002   0.00000  -0.00019
 131       14D 0       -0.00743   0.00000  -0.00278   0.00000  -0.00126
 132       14D+1        0.00000  -0.00110   0.00000   0.00120   0.00000
 133       14D-1        0.00691   0.00000  -0.00750   0.00000  -0.00981
 134       14D+2       -0.00268   0.00000  -0.00637   0.00000  -0.00632
 135       14D-2        0.00000   0.00238   0.00000  -0.00233   0.00000
 136       15D 0       -0.00040   0.00000  -0.00021   0.00000  -0.00011
 137       15D+1        0.00000  -0.00017   0.00000   0.00019   0.00000
 138       15D-1        0.00042   0.00000  -0.00069   0.00000  -0.00087
 139       15D+2       -0.00010   0.00000  -0.00061   0.00000  -0.00062
 140       15D-2        0.00000   0.00029   0.00000  -0.00035   0.00000
 141       16D 0       -0.00037   0.00000  -0.00010   0.00000   0.00011
 142       16D+1        0.00000   0.00010   0.00000  -0.00016   0.00000
 143       16D-1        0.00011   0.00000  -0.00025   0.00000  -0.00074
 144       16D+2       -0.00032   0.00000  -0.00001   0.00000  -0.00021
 145       16D-2        0.00000  -0.00017   0.00000   0.00018   0.00000
 146       17D 0       -0.00024   0.00000   0.00002   0.00000  -0.00012
 147       17D+1        0.00000  -0.00009   0.00000  -0.00009   0.00000
 148       17D-1       -0.00019   0.00000   0.00002   0.00000   0.00022
 149       17D+2       -0.00032   0.00000   0.00004   0.00000   0.00001
 150       17D-2        0.00000   0.00016   0.00000   0.00023   0.00000
 151       18F 0        0.00008   0.00000  -0.00008   0.00000  -0.00012
 152       18F+1        0.00000  -0.00001   0.00000   0.00001   0.00000
 153       18F-1       -0.00032   0.00000  -0.00008   0.00000  -0.00007
 154       18F+2        0.00000   0.00000  -0.00014   0.00000  -0.00022
 155       18F-2        0.00000   0.00022   0.00000  -0.00025   0.00000
 156       18F+3        0.00000   0.00018   0.00000  -0.00023   0.00000
 157       18F-3       -0.00008   0.00000   0.00006   0.00000   0.00011
 158       19F 0       -0.00008   0.00000  -0.00009   0.00000  -0.00011
 159       19F+1        0.00000   0.00001   0.00000  -0.00003   0.00000
 160       19F-1        0.00038   0.00000   0.00001   0.00000  -0.00018
 161       19F+2        0.00003   0.00000   0.00000   0.00000  -0.00012
 162       19F-2        0.00000  -0.00017   0.00000   0.00025   0.00000
 163       19F+3        0.00000  -0.00014   0.00000   0.00024   0.00000
 164       19F-3        0.00010   0.00000  -0.00009   0.00000  -0.00001
 165 4   O  1S          0.17494   0.00000  -0.79886   0.00000   0.53095
 166        2S         -0.00337   0.00000   0.01544   0.00000  -0.00875
 167        3S          0.00739   0.00000  -0.03375   0.00000   0.02301
 168        4S         -0.00162   0.00000   0.00270   0.00000  -0.00144
 169        5S         -0.00190   0.00000  -0.00037   0.00000  -0.00134
 170        6PX         0.00000   0.00000   0.00000  -0.00049   0.00000
 171        6PY         0.00000   0.00000   0.00000   0.00000   0.00000
 172        6PZ        -0.00069   0.00000   0.00392   0.00000  -0.00040
 173        7PX         0.00000   0.00000   0.00000  -0.00057   0.00000
 174        7PY         0.00000   0.00000   0.00000   0.00000   0.00000
 175        7PZ        -0.00010   0.00000   0.00151   0.00000   0.00261
 176        8PX         0.00000   0.00000   0.00000  -0.00037   0.00000
 177        8PY         0.00000   0.00000   0.00000   0.00000   0.00000
 178        8PZ        -0.00136   0.00000   0.00324   0.00000   0.00233
 179        9PX         0.00000   0.00000   0.00000   0.00004   0.00000
 180        9PY         0.00000   0.00000   0.00000   0.00000   0.00000
 181        9PZ         0.00064   0.00000   0.00052   0.00000   0.00042
 182       10D 0        0.00004   0.00000  -0.00021   0.00000   0.00006
 183       10D+1        0.00000   0.00000   0.00000   0.00000   0.00000
 184       10D-1        0.00000   0.00000   0.00000   0.00000   0.00000
 185       10D+2       -0.00003   0.00000   0.00005   0.00000  -0.00002
 186       10D-2        0.00000  -0.00001   0.00000   0.00000   0.00000
 187       11D 0        0.00002   0.00000   0.00017   0.00000  -0.00104
 188       11D+1        0.00000   0.00000   0.00000  -0.00008   0.00000
 189       11D-1        0.00000   0.00000   0.00000   0.00000   0.00000
 190       11D+2        0.00005   0.00000   0.00014   0.00000  -0.00006
 191       11D-2        0.00000   0.00002   0.00000   0.00000   0.00000
 192       12D 0        0.00078   0.00000  -0.00050   0.00000  -0.00058
 193       12D+1        0.00000   0.00000   0.00000  -0.00009   0.00000
 194       12D-1        0.00000   0.00000   0.00000   0.00000   0.00000
 195       12D+2       -0.00002   0.00000   0.00029   0.00000   0.00041
 196       12D-2        0.00000  -0.00003   0.00000   0.00000   0.00000
 197       13F 0        0.00001   0.00000  -0.00009   0.00000  -0.00008
 198       13F+1        0.00000   0.00000   0.00000   0.00000   0.00000
 199       13F-1        0.00000   0.00000   0.00000   0.00000   0.00000
 200       13F+2       -0.00001   0.00000   0.00002   0.00000  -0.00001
 201       13F-2        0.00000   0.00000   0.00000   0.00000   0.00000
 202       13F+3        0.00000   0.00000   0.00000  -0.00001   0.00000
 203       13F-3        0.00000   0.00000   0.00000   0.00000   0.00000
 204       14F 0       -0.00008   0.00000   0.00001   0.00000   0.00036
 205       14F+1        0.00000   0.00000   0.00000   0.00007   0.00000
 206       14F-1        0.00000   0.00000   0.00000   0.00000   0.00000
 207       14F+2        0.00003   0.00000  -0.00010   0.00000  -0.00004
 208       14F-2        0.00000  -0.00003   0.00000   0.00000   0.00000
 209       14F+3        0.00000   0.00000   0.00000   0.00004   0.00000
 210       14F-3        0.00000   0.00000   0.00000   0.00000   0.00000
                          11        12        13        14        15
     Eigenvalues --     2.00000   2.00000   2.00000   2.00000   2.00000
   1 1   C  1S          0.00000  -0.00105   0.00000   0.01385   0.00000
   2        2S          0.00000   0.00005   0.00000  -0.00011   0.00000
   3        3S          0.00000  -0.00004   0.00000   0.00063   0.00000
   4        4S          0.00000   0.00036   0.00000  -0.00105   0.00000
   5        5S          0.00000   0.00019   0.00000  -0.00038   0.00000
   6        6PX         0.00000   0.00000   0.00000   0.00000   0.00001
   7        6PY        -0.00003   0.00000  -0.00001   0.00000   0.00000
   8        6PZ         0.00000   0.00001   0.00000  -0.00004   0.00000
   9        7PX         0.00000   0.00000   0.00000   0.00000   0.00000
  10        7PY         0.00007   0.00000   0.00002   0.00000   0.00000
  11        7PZ         0.00000   0.00007   0.00000   0.00010   0.00000
  12        8PX         0.00000   0.00000   0.00000   0.00000  -0.00007
  13        8PY         0.00046   0.00000   0.00057   0.00000   0.00000
  14        8PZ         0.00000  -0.00053   0.00000   0.00038   0.00000
  15        9PX         0.00000   0.00000   0.00000   0.00000   0.00001
  16        9PY        -0.00009   0.00000   0.00012   0.00000   0.00000
  17        9PZ         0.00000  -0.00001   0.00000   0.00005   0.00000
  18       10D 0        0.00000   0.00000   0.00000   0.00001   0.00000
  19       10D+1        0.00000   0.00000   0.00000   0.00000   0.00000
  20       10D-1        0.00000   0.00000   0.00000   0.00000   0.00000
  21       10D+2        0.00000   0.00000   0.00000   0.00000   0.00000
  22       10D-2        0.00000   0.00000   0.00000   0.00000   0.00000
  23       11D 0        0.00000   0.00005   0.00000   0.00002   0.00000
  24       11D+1        0.00000   0.00000   0.00000   0.00000   0.00005
  25       11D-1       -0.00008   0.00000  -0.00001   0.00000   0.00000
  26       11D+2        0.00000   0.00001   0.00000   0.00014   0.00000
  27       11D-2        0.00000   0.00000   0.00000   0.00000   0.00000
  28       12D 0        0.00000  -0.00001   0.00000   0.00009   0.00000
  29       12D+1        0.00000   0.00000   0.00000   0.00000   0.00004
  30       12D-1       -0.00021   0.00000  -0.00018   0.00000   0.00000
  31       12D+2        0.00000  -0.00005   0.00000   0.00017   0.00000
  32       12D-2        0.00000   0.00000   0.00000   0.00000   0.00000
  33       13F 0        0.00000   0.00001   0.00000   0.00000   0.00000
  34       13F+1        0.00000   0.00000   0.00000   0.00000   0.00001
  35       13F-1        0.00000   0.00000   0.00001   0.00000   0.00000
  36       13F+2        0.00000   0.00000   0.00000   0.00000   0.00000
  37       13F-2        0.00000   0.00000   0.00000   0.00000   0.00000
  38       13F+3        0.00000   0.00000   0.00000   0.00000  -0.00001
  39       13F-3        0.00001   0.00000   0.00001   0.00000   0.00000
  40       14F 0        0.00000  -0.00003   0.00000   0.00002   0.00000
  41       14F+1        0.00000   0.00000   0.00000   0.00000  -0.00001
  42       14F-1       -0.00002   0.00000  -0.00008   0.00000   0.00000
  43       14F+2        0.00000   0.00005   0.00000   0.00001   0.00000
  44       14F-2        0.00000   0.00000   0.00000   0.00000   0.00000
  45       14F+3        0.00000   0.00000   0.00000   0.00000   0.00004
  46       14F-3       -0.00003   0.00000  -0.00006   0.00000   0.00000
  47 2   Br 1S         -0.05514   0.00190  -0.00550  -0.03766   0.00000
  48        2S          0.17089  -0.00544   0.01973   0.12076   0.00000
  49        3S          0.01529  -0.00056   0.00199   0.01294   0.00000
  50        4S         -0.00013   0.00002  -0.00006  -0.00015   0.00000
  51        5S          0.00046  -0.00001   0.00005   0.00038   0.00000
  52        6S          0.00055  -0.00029   0.00044   0.00067   0.00000
  53        7S         -0.00011  -0.00013   0.00026   0.00018   0.00000
  54        8PX         0.00000   0.00000   0.00000   0.00000   0.71295
  55        8PY         0.63980  -0.39430  -0.26279   0.57689   0.00000
  56        8PZ         0.24620   0.59381   0.66220   0.38522   0.00000
  57        9PX         0.00000   0.00000   0.00000   0.00000  -0.01614
  58        9PY         0.00110   0.00761   0.00854   0.00715   0.00000
  59        9PZ         0.00429  -0.01369  -0.01303   0.00345   0.00000
  60       10PX         0.00000   0.00000   0.00000   0.00000   0.00028
  61       10PY         0.00033  -0.00022  -0.00008   0.00033   0.00000
  62       10PZ         0.00016   0.00023   0.00034   0.00021   0.00000
  63       11PX         0.00000   0.00000   0.00000   0.00000  -0.00122
  64       11PY        -0.00050   0.00063   0.00053  -0.00023   0.00000
  65       11PZ        -0.00006  -0.00102  -0.00106  -0.00020   0.00000
  66       12PX         0.00000   0.00000   0.00000   0.00000  -0.00006
  67       12PY         0.00008  -0.00012   0.00027   0.00020   0.00000
  68       12PZ         0.00009  -0.00013   0.00005   0.00021   0.00000
  69       13PX         0.00000   0.00000   0.00000   0.00000   0.00002
  70       13PY        -0.00001  -0.00003   0.00002   0.00002   0.00000
  71       13PZ        -0.00002   0.00000   0.00005   0.00001   0.00000
  72       14D 0       -0.00003   0.00033   0.00033   0.00002   0.00000
  73       14D+1        0.00000   0.00000   0.00000   0.00000  -0.00004
  74       14D-1       -0.00031   0.00018   0.00013  -0.00007   0.00000
  75       14D+2        0.00018   0.00017   0.00020   0.00008   0.00000
  76       14D-2        0.00000   0.00000   0.00000   0.00000  -0.00010
  77       15D 0        0.00000   0.00000   0.00001   0.00000   0.00000
  78       15D+1        0.00000   0.00000   0.00000   0.00000  -0.00002
  79       15D-1       -0.00005   0.00000  -0.00001  -0.00004   0.00000
  80       15D+2        0.00003   0.00000   0.00001   0.00003   0.00000
  81       15D-2        0.00000   0.00000   0.00000   0.00000  -0.00003
  82       16D 0        0.00001   0.00006   0.00007  -0.00001   0.00000
  83       16D+1        0.00000   0.00000   0.00000   0.00000   0.00003
  84       16D-1        0.00008   0.00002   0.00006   0.00012   0.00000
  85       16D+2       -0.00005   0.00005   0.00001  -0.00010   0.00000
  86       16D-2        0.00000   0.00000   0.00000   0.00000   0.00004
  87       17D 0        0.00000   0.00001  -0.00002   0.00002   0.00000
  88       17D+1        0.00000   0.00000   0.00000   0.00000   0.00000
  89       17D-1        0.00003  -0.00003   0.00004   0.00006   0.00000
  90       17D+2        0.00001   0.00003  -0.00004  -0.00003   0.00000
  91       17D-2        0.00000   0.00000   0.00000   0.00000   0.00001
  92       18F 0        0.00000   0.00000   0.00000   0.00000   0.00000
  93       18F+1        0.00000   0.00000   0.00000   0.00000   0.00000
  94       18F-1        0.00000  -0.00001   0.00000   0.00000   0.00000
  95       18F+2       -0.00001   0.00000   0.00000  -0.00001   0.00000
  96       18F-2        0.00000   0.00000   0.00000   0.00000   0.00000
  97       18F+3        0.00000   0.00000   0.00000   0.00000   0.00000
  98       18F-3        0.00000   0.00000   0.00000  -0.00001   0.00000
  99       19F 0       -0.00002   0.00000   0.00001  -0.00001   0.00000
 100       19F+1        0.00000   0.00000   0.00000   0.00000   0.00000
 101       19F-1        0.00001   0.00003   0.00003   0.00001   0.00000
 102       19F+2       -0.00002   0.00000   0.00000  -0.00004   0.00000
 103       19F-2        0.00000   0.00000   0.00000   0.00000   0.00002
 104       19F+3        0.00000   0.00000   0.00000   0.00000  -0.00002
 105       19F-3       -0.00001   0.00001   0.00001  -0.00002   0.00000
 106 3   Br 1S          0.05514   0.00190   0.00550  -0.03766   0.00000
 107        2S         -0.17089  -0.00544  -0.01973   0.12077   0.00000
 108        3S         -0.01529  -0.00056  -0.00199   0.01294   0.00000
 109        4S          0.00013   0.00002   0.00006  -0.00015   0.00000
 110        5S         -0.00046  -0.00001  -0.00005   0.00038   0.00000
 111        6S         -0.00055  -0.00029  -0.00044   0.00067   0.00000
 112        7S          0.00011  -0.00013  -0.00026   0.00018   0.00000
 113        8PX         0.00000   0.00000   0.00000   0.00000   0.71310
 114        8PY         0.63979   0.39433  -0.26278  -0.57688   0.00000
 115        8PZ        -0.24622   0.59382  -0.66219   0.38522   0.00000
 116        9PX         0.00000   0.00000   0.00000   0.00000  -0.01615
 117        9PY         0.00110  -0.00761   0.00854  -0.00715   0.00000
 118        9PZ        -0.00429  -0.01369   0.01303   0.00345   0.00000
 119       10PX         0.00000   0.00000   0.00000   0.00000   0.00028
 120       10PY         0.00033   0.00022  -0.00008  -0.00033   0.00000
 121       10PZ        -0.00016   0.00023  -0.00034   0.00021   0.00000
 122       11PX         0.00000   0.00000   0.00000   0.00000  -0.00122
 123       11PY        -0.00050  -0.00063   0.00053   0.00023   0.00000
 124       11PZ         0.00006  -0.00102   0.00106  -0.00020   0.00000
 125       12PX         0.00000   0.00000   0.00000   0.00000  -0.00006
 126       12PY         0.00008   0.00012   0.00027  -0.00020   0.00000
 127       12PZ        -0.00009  -0.00013  -0.00005   0.00021   0.00000
 128       13PX         0.00000   0.00000   0.00000   0.00000   0.00002
 129       13PY        -0.00001   0.00003   0.00002  -0.00002   0.00000
 130       13PZ         0.00002   0.00000  -0.00005   0.00001   0.00000
 131       14D 0        0.00003   0.00033  -0.00033   0.00002   0.00000
 132       14D+1        0.00000   0.00000   0.00000   0.00000  -0.00004
 133       14D-1       -0.00031  -0.00018   0.00013   0.00007   0.00000
 134       14D+2       -0.00018   0.00017  -0.00020   0.00008   0.00000
 135       14D-2        0.00000   0.00000   0.00000   0.00000   0.00010
 136       15D 0        0.00000   0.00000  -0.00001   0.00000   0.00000
 137       15D+1        0.00000   0.00000   0.00000   0.00000  -0.00002
 138       15D-1       -0.00005   0.00000  -0.00001   0.00004   0.00000
 139       15D+2       -0.00003   0.00000  -0.00001   0.00003   0.00000
 140       15D-2        0.00000   0.00000   0.00000   0.00000   0.00003
 141       16D 0       -0.00001   0.00006  -0.00007  -0.00001   0.00000
 142       16D+1        0.00000   0.00000   0.00000   0.00000   0.00003
 143       16D-1        0.00008  -0.00002   0.00006  -0.00012   0.00000
 144       16D+2        0.00005   0.00005  -0.00001  -0.00010   0.00000
 145       16D-2        0.00000   0.00000   0.00000   0.00000  -0.00004
 146       17D 0        0.00000   0.00001   0.00002   0.00002   0.00000
 147       17D+1        0.00000   0.00000   0.00000   0.00000   0.00000
 148       17D-1        0.00003   0.00003   0.00004  -0.00006   0.00000
 149       17D+2       -0.00001   0.00003   0.00004  -0.00003   0.00000
 150       17D-2        0.00000   0.00000   0.00000   0.00000  -0.00001
 151       18F 0        0.00000   0.00000   0.00000   0.00000   0.00000
 152       18F+1        0.00000   0.00000   0.00000   0.00000   0.00000
 153       18F-1        0.00000   0.00001   0.00000   0.00000   0.00000
 154       18F+2        0.00001   0.00000   0.00000  -0.00001   0.00000
 155       18F-2        0.00000   0.00000   0.00000   0.00000   0.00000
 156       18F+3        0.00000   0.00000   0.00000   0.00000   0.00000
 157       18F-3        0.00000   0.00000   0.00000   0.00001   0.00000
 158       19F 0        0.00002   0.00000  -0.00001  -0.00001   0.00000
 159       19F+1        0.00000   0.00000   0.00000   0.00000   0.00000
 160       19F-1        0.00001  -0.00003   0.00003  -0.00001   0.00000
 161       19F+2        0.00002   0.00000   0.00000  -0.00004   0.00000
 162       19F-2        0.00000   0.00000   0.00000   0.00000  -0.00002
 163       19F+3        0.00000   0.00000   0.00000   0.00000  -0.00002
 164       19F-3       -0.00001  -0.00001   0.00001   0.00002   0.00000
 165 4   O  1S          0.00000  -0.00039   0.00000   0.00408   0.00000
 166        2S          0.00000   0.00000   0.00000  -0.00010   0.00000
 167        3S          0.00000  -0.00001   0.00000   0.00019   0.00000
 168        4S          0.00000   0.00006   0.00000   0.00004   0.00000
 169        5S          0.00000   0.00018   0.00000  -0.00005   0.00000
 170        6PX         0.00000   0.00000   0.00000   0.00000   0.00000
 171        6PY         0.00000   0.00000   0.00000   0.00000   0.00000
 172        6PZ         0.00000   0.00000   0.00000   0.00002   0.00000
 173        7PX         0.00000   0.00000   0.00000   0.00000  -0.00001
 174        7PY         0.00001   0.00000   0.00001   0.00000   0.00000
 175        7PZ         0.00000   0.00001   0.00000   0.00006   0.00000
 176        8PX         0.00000   0.00000   0.00000   0.00000  -0.00002
 177        8PY         0.00002   0.00000  -0.00001   0.00000   0.00000
 178        8PZ         0.00000   0.00011   0.00000  -0.00005   0.00000
 179        9PX         0.00000   0.00000   0.00000   0.00000  -0.00001
 180        9PY         0.00008   0.00000   0.00001   0.00000   0.00000
 181        9PZ         0.00000  -0.00006   0.00000   0.00002   0.00000
 182       10D 0        0.00000   0.00000   0.00000   0.00000   0.00000
 183       10D+1        0.00000   0.00000   0.00000   0.00000   0.00000
 184       10D-1        0.00000   0.00000   0.00000   0.00000   0.00000
 185       10D+2        0.00000   0.00000   0.00000   0.00000   0.00000
 186       10D-2        0.00000   0.00000   0.00000   0.00000   0.00000
 187       11D 0        0.00000  -0.00001   0.00000  -0.00002   0.00000
 188       11D+1        0.00000   0.00000   0.00000   0.00000   0.00001
 189       11D-1        0.00000   0.00000   0.00001   0.00000   0.00000
 190       11D+2        0.00000  -0.00001   0.00000  -0.00001   0.00000
 191       11D-2        0.00000   0.00000   0.00000   0.00000   0.00000
 192       12D 0        0.00000  -0.00007   0.00000   0.00000   0.00000
 193       12D+1        0.00000   0.00000   0.00000   0.00000   0.00001
 194       12D-1        0.00000   0.00000   0.00002   0.00000   0.00000
 195       12D+2        0.00000  -0.00001   0.00000  -0.00004   0.00000
 196       12D-2        0.00000   0.00000   0.00000   0.00000   0.00000
 197       13F 0        0.00000   0.00000   0.00000   0.00000   0.00000
 198       13F+1        0.00000   0.00000   0.00000   0.00000   0.00000
 199       13F-1        0.00000   0.00000   0.00000   0.00000   0.00000
 200       13F+2        0.00000   0.00000   0.00000   0.00000   0.00000
 201       13F-2        0.00000   0.00000   0.00000   0.00000   0.00000
 202       13F+3        0.00000   0.00000   0.00000   0.00000   0.00000
 203       13F-3        0.00000   0.00000   0.00000   0.00000   0.00000
 204       14F 0        0.00000   0.00001   0.00000   0.00002   0.00000
 205       14F+1        0.00000   0.00000   0.00000   0.00000  -0.00001
 206       14F-1        0.00000   0.00000  -0.00001   0.00000   0.00000
 207       14F+2        0.00000   0.00001   0.00000   0.00002   0.00000
 208       14F-2        0.00000   0.00000   0.00000   0.00000   0.00000
 209       14F+3        0.00000   0.00000   0.00000   0.00000  -0.00001
 210       14F-3        0.00000   0.00000   0.00000   0.00000   0.00000
                          16        17        18        19        20
     Eigenvalues --     2.00000   2.00000   2.00000   2.00000   2.00000
   1 1   C  1S          0.00000   0.00000   0.00156   0.00000   0.00005
   2        2S          0.00000   0.00000  -0.00001   0.00000   0.00000
   3        3S          0.00000   0.00000   0.00006   0.00000   0.00000
   4        4S          0.00000   0.00000   0.00006   0.00000   0.00001
   5        5S          0.00000   0.00000   0.00006   0.00000   0.00000
   6        6PX         0.00000   0.00000   0.00000   0.00000   0.00000
   7        6PY         0.00000   0.00000   0.00000   0.00000   0.00000
   8        6PZ         0.00000   0.00000   0.00000   0.00000   0.00000
   9        7PX         0.00000   0.00000   0.00000   0.00000   0.00000
  10        7PY         0.00000  -0.00002   0.00000   0.00000   0.00000
  11        7PZ         0.00000   0.00000  -0.00001   0.00000   0.00000
  12        8PX         0.00000   0.00000   0.00000   0.00000   0.00000
  13        8PY         0.00000   0.00001   0.00000   0.00001   0.00000
  14        8PZ         0.00000   0.00000  -0.00001   0.00000  -0.00001
  15        9PX         0.00000   0.00000   0.00000   0.00000   0.00000
  16        9PY         0.00000   0.00002   0.00000   0.00000   0.00000
  17        9PZ         0.00000   0.00000   0.00000   0.00000   0.00000
  18       10D 0        0.00000   0.00000   0.00000   0.00000   0.00000
  19       10D+1        0.00000   0.00000   0.00000   0.00000   0.00000
  20       10D-1        0.00000   0.00000   0.00000   0.00000   0.00000
  21       10D+2        0.00000   0.00000   0.00000   0.00000   0.00000
  22       10D-2       -0.00001   0.00000   0.00000   0.00000   0.00000
  23       11D 0        0.00000   0.00000   0.00000   0.00000   0.00000
  24       11D+1        0.00000   0.00000   0.00000   0.00000   0.00000
  25       11D-1        0.00000   0.00002   0.00000   0.00000   0.00000
  26       11D+2        0.00000   0.00000  -0.00001   0.00000   0.00000
  27       11D-2        0.00004   0.00000   0.00000   0.00000   0.00000
  28       12D 0        0.00000   0.00000   0.00002   0.00000   0.00000
  29       12D+1        0.00000   0.00000   0.00000   0.00000   0.00000
  30       12D-1        0.00000   0.00004   0.00000   0.00000   0.00000
  31       12D+2        0.00000   0.00000  -0.00001   0.00000   0.00000
  32       12D-2       -0.00004   0.00000   0.00000   0.00000   0.00000
  33       13F 0        0.00000   0.00000   0.00000   0.00000   0.00000
  34       13F+1        0.00000   0.00000   0.00000   0.00000   0.00000
  35       13F-1        0.00000   0.00000   0.00000   0.00000   0.00000
  36       13F+2        0.00000   0.00000   0.00000   0.00000   0.00000
  37       13F-2        0.00000   0.00000   0.00000   0.00000   0.00000
  38       13F+3        0.00000   0.00000   0.00000   0.00000   0.00000
  39       13F-3        0.00000   0.00000   0.00000   0.00000   0.00000
  40       14F 0        0.00000   0.00000  -0.00001   0.00000   0.00000
  41       14F+1        0.00000   0.00000   0.00000   0.00000   0.00000
  42       14F-1        0.00000   0.00002   0.00000   0.00000   0.00000
  43       14F+2        0.00000   0.00000   0.00000   0.00000   0.00000
  44       14F-2       -0.00003   0.00000   0.00000   0.00000   0.00000
  45       14F+3        0.00000   0.00000   0.00000   0.00000   0.00000
  46       14F-3        0.00000   0.00001   0.00000   0.00000   0.00000
  47 2   Br 1S          0.00000  -0.21806  -0.22094  -0.72601   0.68559
  48        2S          0.00000   0.70649   0.71799  -0.00396   0.00261
  49        3S          0.00000   0.03014   0.03110  -0.00056   0.00046
  50        4S          0.00000  -0.00020  -0.00019  -0.00001   0.00001
  51        5S          0.00000   0.00071   0.00074   0.00000   0.00000
  52        6S          0.00000   0.00005   0.00003   0.00002  -0.00001
  53        7S          0.00000   0.00004  -0.00002   0.00000   0.00000
  54        8PX         0.71326   0.00000   0.00000   0.00000   0.00000
  55        8PY         0.00000  -0.15153  -0.10477  -0.00232   0.00041
  56        8PZ         0.00000  -0.08045  -0.06312  -0.00024   0.00003
  57        9PX        -0.01662   0.00000   0.00000   0.00000   0.00000
  58        9PY         0.00000   0.00255   0.00310   0.00011  -0.00015
  59        9PZ         0.00000   0.00121   0.00177   0.00005  -0.00005
  60       10PX         0.00029   0.00000   0.00000   0.00000   0.00000
  61       10PY         0.00000  -0.00007  -0.00006   0.00000   0.00000
  62       10PZ         0.00000  -0.00005  -0.00003   0.00000   0.00000
  63       11PX        -0.00124   0.00000   0.00000   0.00000   0.00000
  64       11PY         0.00000   0.00024   0.00023   0.00001  -0.00001
  65       11PZ         0.00000   0.00012   0.00013   0.00000   0.00000
  66       12PX        -0.00013   0.00000   0.00000   0.00000   0.00000
  67       12PY         0.00000   0.00006   0.00001   0.00001   0.00000
  68       12PZ         0.00000   0.00003   0.00002   0.00000   0.00000
  69       13PX         0.00003   0.00000   0.00000   0.00000   0.00000
  70       13PY         0.00000   0.00000  -0.00001   0.00000   0.00000
  71       13PZ         0.00000   0.00000   0.00000   0.00000   0.00000
  72       14D 0        0.00000  -0.00003  -0.00004   0.00000   0.00000
  73       14D+1       -0.00004   0.00000   0.00000   0.00000   0.00000
  74       14D-1        0.00000   0.00001   0.00001   0.00000   0.00000
  75       14D+2        0.00000   0.00007   0.00006   0.00000   0.00000
  76       14D-2       -0.00011   0.00000   0.00000   0.00000   0.00000
  77       15D 0        0.00000   0.00000   0.00000   0.00000   0.00000
  78       15D+1       -0.00001   0.00000   0.00000   0.00000   0.00000
  79       15D-1        0.00000   0.00000   0.00000   0.00000   0.00000
  80       15D+2        0.00000   0.00000   0.00000   0.00000   0.00000
  81       15D-2       -0.00002   0.00000   0.00000   0.00000   0.00000
  82       16D 0        0.00000  -0.00001   0.00000   0.00000   0.00000
  83       16D+1        0.00002   0.00000   0.00000   0.00000   0.00000
  84       16D-1        0.00000  -0.00001  -0.00001   0.00000   0.00000
  85       16D+2        0.00000   0.00001   0.00001   0.00000   0.00000
  86       16D-2        0.00003   0.00000   0.00000   0.00000   0.00000
  87       17D 0        0.00000   0.00000   0.00000   0.00000   0.00000
  88       17D+1       -0.00002   0.00000   0.00000   0.00000   0.00000
  89       17D-1        0.00000   0.00001   0.00001   0.00000   0.00000
  90       17D+2        0.00000  -0.00002   0.00000   0.00000   0.00000
  91       17D-2       -0.00002   0.00000   0.00000   0.00000   0.00000
  92       18F 0        0.00000   0.00000   0.00000   0.00000   0.00000
  93       18F+1        0.00000   0.00000   0.00000   0.00000   0.00000
  94       18F-1        0.00000   0.00000   0.00000   0.00000   0.00000
  95       18F+2        0.00000   0.00000   0.00000   0.00000   0.00000
  96       18F-2        0.00000   0.00000   0.00000   0.00000   0.00000
  97       18F+3        0.00000   0.00000   0.00000   0.00000   0.00000
  98       18F-3        0.00000   0.00000   0.00000   0.00000   0.00000
  99       19F 0        0.00000   0.00000   0.00000   0.00000   0.00000
 100       19F+1        0.00000   0.00000   0.00000   0.00000   0.00000
 101       19F-1        0.00000   0.00000   0.00000   0.00000   0.00000
 102       19F+2        0.00000   0.00000   0.00000   0.00000   0.00000
 103       19F-2        0.00001   0.00000   0.00000   0.00000   0.00000
 104       19F+3       -0.00001   0.00000   0.00000   0.00000   0.00000
 105       19F-3        0.00000   0.00000   0.00000   0.00000   0.00000
 106 3   Br 1S          0.00000   0.21835  -0.22067   0.68521   0.72636
 107        2S          0.00000  -0.70741   0.71708   0.00381   0.00284
 108        3S          0.00000  -0.03018   0.03106   0.00054   0.00049
 109        4S          0.00000   0.00020  -0.00019   0.00001   0.00001
 110        5S          0.00000  -0.00071   0.00074   0.00000   0.00000
 111        6S          0.00000  -0.00005   0.00003  -0.00002  -0.00001
 112        7S          0.00000  -0.00004  -0.00002   0.00000   0.00000
 113        8PX        -0.71312   0.00000   0.00000   0.00000   0.00000
 114        8PY         0.00000  -0.15167   0.10458  -0.00228  -0.00054
 115        8PZ         0.00000   0.08053  -0.06302   0.00023   0.00004
 116        9PX         0.01661   0.00000   0.00000   0.00000   0.00000
 117        9PY         0.00000   0.00255  -0.00310   0.00010   0.00015
 118        9PZ         0.00000  -0.00122   0.00177  -0.00004  -0.00006
 119       10PX        -0.00029   0.00000   0.00000   0.00000   0.00000
 120       10PY         0.00000  -0.00007   0.00006   0.00000   0.00000
 121       10PZ         0.00000   0.00005  -0.00003   0.00000   0.00000
 122       11PX         0.00124   0.00000   0.00000   0.00000   0.00000
 123       11PY         0.00000   0.00024  -0.00023   0.00001   0.00001
 124       11PZ         0.00000  -0.00012   0.00013   0.00000   0.00000
 125       12PX         0.00013   0.00000   0.00000   0.00000   0.00000
 126       12PY         0.00000   0.00006  -0.00001   0.00001   0.00000
 127       12PZ         0.00000  -0.00003   0.00002   0.00000   0.00000
 128       13PX        -0.00003   0.00000   0.00000   0.00000   0.00000
 129       13PY         0.00000   0.00000   0.00001   0.00000   0.00000
 130       13PZ         0.00000   0.00000   0.00000   0.00000   0.00000
 131       14D 0        0.00000   0.00003  -0.00004   0.00000   0.00000
 132       14D+1        0.00004   0.00000   0.00000   0.00000   0.00000
 133       14D-1        0.00000   0.00001  -0.00001   0.00000   0.00000
 134       14D+2        0.00000  -0.00007   0.00006   0.00000   0.00000
 135       14D-2       -0.00011   0.00000   0.00000   0.00000   0.00000
 136       15D 0        0.00000   0.00000   0.00000   0.00000   0.00000
 137       15D+1        0.00001   0.00000   0.00000   0.00000   0.00000
 138       15D-1        0.00000   0.00000   0.00000   0.00000   0.00000
 139       15D+2        0.00000   0.00000   0.00000   0.00000   0.00000
 140       15D-2       -0.00002   0.00000   0.00000   0.00000   0.00000
 141       16D 0        0.00000   0.00001   0.00000   0.00000   0.00000
 142       16D+1       -0.00002   0.00000   0.00000   0.00000   0.00000
 143       16D-1        0.00000  -0.00001   0.00001   0.00000   0.00000
 144       16D+2        0.00000  -0.00001   0.00001   0.00000   0.00000
 145       16D-2        0.00003   0.00000   0.00000   0.00000   0.00000
 146       17D 0        0.00000   0.00000   0.00000   0.00000   0.00000
 147       17D+1        0.00002   0.00000   0.00000   0.00000   0.00000
 148       17D-1        0.00000   0.00001  -0.00001   0.00000   0.00000
 149       17D+2        0.00000   0.00002   0.00000   0.00000   0.00000
 150       17D-2       -0.00002   0.00000   0.00000   0.00000   0.00000
 151       18F 0        0.00000   0.00000   0.00000   0.00000   0.00000
 152       18F+1        0.00000   0.00000   0.00000   0.00000   0.00000
 153       18F-1        0.00000   0.00000   0.00000   0.00000   0.00000
 154       18F+2        0.00000   0.00000   0.00000   0.00000   0.00000
 155       18F-2        0.00000   0.00000   0.00000   0.00000   0.00000
 156       18F+3        0.00000   0.00000   0.00000   0.00000   0.00000
 157       18F-3        0.00000   0.00000   0.00000   0.00000   0.00000
 158       19F 0        0.00000   0.00000   0.00000   0.00000   0.00000
 159       19F+1        0.00000   0.00000   0.00000   0.00000   0.00000
 160       19F-1        0.00000   0.00000   0.00000   0.00000   0.00000
 161       19F+2        0.00000   0.00000   0.00000   0.00000   0.00000
 162       19F-2        0.00001   0.00000   0.00000   0.00000   0.00000
 163       19F+3        0.00001   0.00000   0.00000   0.00000   0.00000
 164       19F-3        0.00000   0.00000   0.00000   0.00000   0.00000
 165 4   O  1S          0.00000   0.00000   0.00062   0.00000   0.00000
 166        2S          0.00000   0.00000   0.00000   0.00000   0.00000
 167        3S          0.00000   0.00000   0.00003   0.00000   0.00000
 168        4S          0.00000   0.00000  -0.00002   0.00000   0.00000
 169        5S          0.00000   0.00000  -0.00005   0.00000   0.00001
 170        6PX         0.00000   0.00000   0.00000   0.00000   0.00000
 171        6PY         0.00000   0.00000   0.00000   0.00000   0.00000
 172        6PZ         0.00000   0.00000   0.00000   0.00000   0.00000
 173        7PX         0.00000   0.00000   0.00000   0.00000   0.00000
 174        7PY         0.00000   0.00000   0.00000   0.00000   0.00000
 175        7PZ         0.00000   0.00000   0.00001   0.00000   0.00000
 176        8PX         0.00000   0.00000   0.00000   0.00000   0.00000
 177        8PY         0.00000  -0.00003   0.00000   0.00000   0.00000
 178        8PZ         0.00000   0.00000   0.00001   0.00000   0.00000
 179        9PX         0.00000   0.00000   0.00000   0.00000   0.00000
 180        9PY         0.00000  -0.00001   0.00000   0.00000   0.00000
 181        9PZ         0.00000   0.00000   0.00001   0.00000   0.00000
 182       10D 0        0.00000   0.00000   0.00000   0.00000   0.00000
 183       10D+1        0.00000   0.00000   0.00000   0.00000   0.00000
 184       10D-1        0.00000   0.00000   0.00000   0.00000   0.00000
 185       10D+2        0.00000   0.00000   0.00000   0.00000   0.00000
 186       10D-2        0.00000   0.00000   0.00000   0.00000   0.00000
 187       11D 0        0.00000   0.00000   0.00000   0.00000   0.00000
 188       11D+1        0.00000   0.00000   0.00000   0.00000   0.00000
[...]
 189       11D-1        0.00000   0.00000   0.15528   0.00000   0.00000
 190       11D+2       -0.00477   0.00000   0.00000  -0.09578  -0.03615
 191       11D-2        0.00000   0.00000   0.00000   0.00000   0.00000
 192       12D 0        4.63388   0.00000   0.00000  -1.28006   0.76787
 193       12D+1        0.00000   2.06402   0.00000   0.00000   0.00000
 194       12D-1        0.00000   0.00000  -0.24271   0.00000   0.00000
 195       12D+2       -0.57240   0.00000   0.00000   0.55235   0.05760
 196       12D-2        0.00000   0.00000   0.00000   0.00000   0.00000
 197       13F 0        0.02987   0.00000   0.00000   0.01514  -0.04623
 198       13F+1        0.00000   0.01746   0.00000   0.00000   0.00000
 199       13F-1        0.00000   0.00000   0.04907   0.00000   0.00000
 200       13F+2       -0.05656   0.00000   0.00000   0.02494  -0.01256
 201       13F-2        0.00000   0.00000   0.00000   0.00000   0.00000
 202       13F+3        0.00000   0.00553   0.00000   0.00000   0.00000
 203       13F-3        0.00000   0.00000  -0.02864   0.00000   0.00000
 204       14F 0       -1.30471   0.00000   0.00000   0.16801   0.01141
 205       14F+1        0.00000  -0.15283   0.00000   0.00000   0.00000
 206       14F-1        0.00000   0.00000  -0.12749   0.00000   0.00000
 207       14F+2        0.20134   0.00000   0.00000  -0.10128   0.04353
 208       14F-2        0.00000   0.00000   0.00000   0.00000   0.00000
 209       14F+3        0.00000  -0.00001   0.00000   0.00000   0.00000
 210       14F-3        0.00000   0.00000   0.05913   0.00000   0.00000
                         206       207       208       209       210
     Eigenvalues --     0.00000   0.00000   0.00000   0.00000   0.00000
   1 1   C  1S          0.00000   0.00000   0.00000   0.21356  -0.00123
   2        2S          0.00000   0.00000   0.00000   1.22191   0.03153
   3        3S          0.00000   0.00000   0.00000  -0.00249   0.10850
   4        4S          0.00000   0.00000   0.00000   9.29740   3.48033
   5        5S          0.00000   0.00000   0.00000   3.66120  31.48638
   6        6PX         0.00284   0.00000   0.00000   0.00000   0.00000
   7        6PY         0.00000  -0.00123   0.00525   0.00000   0.00000
   8        6PZ         0.00000   0.00000   0.00000   0.01069   0.00981
   9        7PX        -0.30277   0.00000   0.00000   0.00000   0.00000
  10        7PY         0.00000  -0.23782  -0.11629   0.00000   0.00000
  11        7PZ         0.00000   0.00000   0.00000   1.33635   0.06729
  12        8PX        -0.29839   0.00000   0.00000   0.00000   0.00000
  13        8PY         0.00000  -5.52726   6.91217   0.00000   0.00000
  14        8PZ         0.00000   0.00000   0.00000   5.40780  -0.00145
  15        9PX         6.36201   0.00000   0.00000   0.00000   0.00000
  16        9PY         0.00000  -0.50336  14.09246   0.00000   0.00000
  17        9PZ         0.00000   0.00000   0.00000   5.90962  -3.84011
  18       10D 0        0.00000   0.00000   0.00000   0.08323   0.02097
  19       10D+1       -0.00470   0.00000   0.00000   0.00000   0.00000
  20       10D-1        0.00000   0.00845   0.02341   0.00000   0.00000
  21       10D+2        0.00000   0.00000   0.00000  -0.00436  -0.04852
  22       10D-2        0.00000   0.00000   0.00000   0.00000   0.00000
  23       11D 0        0.00000   0.00000   0.00000   0.59850  -0.20741
  24       11D+1       -0.43769   0.00000   0.00000   0.00000   0.00000
  25       11D-1        0.00000  -0.13074  -0.69976   0.00000   0.00000
  26       11D+2        0.00000   0.00000   0.00000   0.01055   0.19278
  27       11D-2        0.00000   0.00000   0.00000   0.00000   0.00000
  28       12D 0        0.00000   0.00000   0.00000   3.56814   0.24076
  29       12D+1        0.93515   0.00000   0.00000   0.00000   0.00000
  30       12D-1        0.00000  -0.26822  -0.38114   0.00000   0.00000
  31       12D+2        0.00000   0.00000   0.00000   1.42953  -1.01212
  32       12D-2        0.00000   0.00000   0.00000   0.00000   0.00000
  33       13F 0        0.00000   0.00000   0.00000   0.05119  -0.04451
  34       13F+1       -0.12151   0.00000   0.00000   0.00000   0.00000
  35       13F-1        0.00000  -0.01407  -0.06101   0.00000   0.00000
  36       13F+2        0.00000   0.00000   0.00000  -0.00259   0.00494
  37       13F-2        0.00000   0.00000   0.00000   0.00000   0.00000
  38       13F+3        0.05415   0.00000   0.00000   0.00000   0.00000
  39       13F-3        0.00000   0.04618  -0.00074   0.00000   0.00000
  40       14F 0        0.00000   0.00000   0.00000  -0.01093  -0.09269
  41       14F+1       -0.04583   0.00000   0.00000   0.00000   0.00000
  42       14F-1        0.00000  -0.00973  -0.03044   0.00000   0.00000
  43       14F+2        0.00000   0.00000   0.00000   0.13056  -0.17147
  44       14F-2        0.00000   0.00000   0.00000   0.00000   0.00000
  45       14F+3       -0.03768   0.00000   0.00000   0.00000   0.00000
  46       14F-3        0.00000  -0.06859  -0.11205   0.00000   0.00000
  47 2   Br 1S          0.00000   0.00210  -0.00006  -0.00005   0.00009
  48        2S          0.00000   0.01614  -0.00355  -0.00132   0.00069
  49        3S          0.00000   0.07502  -0.00908  -0.00389   0.00318
  50        4S          0.00000   0.22143  -0.05771  -0.01627   0.01053
  51        5S          0.00000   0.09013  -0.15634  -0.00110  -0.00255
  52        6S          0.00000  -0.68759   1.95442   0.87074   0.05720
  53        7S          0.00000 -10.06253  14.98932   2.09036 -13.54619
  54        8PX         0.00163   0.00000   0.00000   0.00000   0.00000
  55        8PY         0.00000   0.00098   0.00062   0.00067  -0.00038
  56        8PZ         0.00000   0.00058   0.00001   0.00047   0.00006
  57        9PX        -0.02023   0.00000   0.00000   0.00000   0.00000
  58        9PY         0.00000   0.01647   0.00356  -0.00902   0.02591
  59        9PZ         0.00000   0.00156   0.01309  -0.01025   0.01473
  60       10PX        -0.15533   0.00000   0.00000   0.00000   0.00000
  61       10PY         0.00000   0.24480   0.07370  -0.07154   0.28515
  62       10PZ         0.00000   0.05094   0.15296  -0.09634   0.17623
  63       11PX         0.04527   0.00000   0.00000   0.00000   0.00000
  64       11PY         0.00000   0.00164  -0.00409   0.01980  -0.03538
  65       11PZ         0.00000   0.01533  -0.02299   0.01564  -0.01560
  66       12PX         0.66132   0.00000   0.00000   0.00000   0.00000
  67       12PY         0.00000  -3.67492   3.73841  -0.36575  -1.67427
  68       12PZ         0.00000  -2.35178   2.55793   1.61823  -1.29744
  69       13PX        -2.46270   0.00000   0.00000   0.00000   0.00000
  70       13PY         0.00000  -3.82200   0.37600   0.83139  -3.68816
  71       13PZ         0.00000  -0.95594   2.83160  -0.93882  -2.15259
  72       14D 0        0.00000  -0.00091  -0.00059   0.00118  -0.00099
  73       14D+1        0.00232   0.00000   0.00000   0.00000   0.00000
  74       14D-1        0.00000   0.00090  -0.00020  -0.00124   0.00112
  75       14D+2        0.00000  -0.00343  -0.00111   0.00223   0.00019
  76       14D-2        0.00100   0.00000   0.00000   0.00000   0.00000
  77       15D 0        0.00000   0.01483   0.00421  -0.01452   0.01356
  78       15D+1       -0.02779   0.00000   0.00000   0.00000   0.00000
  79       15D-1        0.00000   0.00188  -0.01522   0.00869  -0.01714
  80       15D+2        0.00000   0.03643   0.02512  -0.02391  -0.00120
  81       15D-2       -0.02144   0.00000   0.00000   0.00000   0.00000
  82       16D 0        0.00000  -0.09724  -0.00224   0.08867  -0.07761
  83       16D+1        0.10920   0.00000   0.00000   0.00000   0.00000
  84       16D-1        0.00000  -0.02918   0.30553  -0.05229   0.16972
  85       16D+2        0.00000  -0.19464  -0.27612   0.14789  -0.06132
  86       16D-2        0.09901   0.00000   0.00000   0.00000   0.00000
  87       17D 0        0.00000   0.16779   0.16005   0.33941   0.04782
  88       17D+1       -0.22267   0.00000   0.00000   0.00000   0.00000
  89       17D-1        0.00000  -1.41599   1.10121   0.30019  -0.74531
  90       17D+2        0.00000   1.76469  -0.50967   0.26055   0.35078
  91       17D-2       -0.02651   0.00000   0.00000   0.00000   0.00000
  92       18F 0        0.00000   0.00498   0.01958  -0.01443  -0.00471
  93       18F+1       -0.00875   0.00000   0.00000   0.00000   0.00000
  94       18F-1        0.00000   0.02796  -0.02428   0.00037   0.00691
  95       18F+2        0.00000  -0.04170   0.01280  -0.01412  -0.00869
  96       18F-2       -0.01243   0.00000   0.00000   0.00000   0.00000
  97       18F+3        0.05089   0.00000   0.00000   0.00000   0.00000
  98       18F-3        0.00000  -0.03989   0.01424  -0.01990  -0.01190
  99       19F 0        0.00000   0.02261  -0.10802   0.03108  -0.00975
 100       19F+1        0.00391   0.00000   0.00000   0.00000   0.00000
 101       19F-1        0.00000  -0.10916   0.13207   0.02807  -0.02994
 102       19F+2        0.00000   0.17815  -0.16413   0.05226   0.01744
 103       19F-2        0.01772   0.00000   0.00000   0.00000   0.00000
 104       19F+3       -0.11253   0.00000   0.00000   0.00000   0.00000
 105       19F-3        0.00000   0.17018  -0.10680   0.10143   0.02182
 106 3   Br 1S          0.00000  -0.00210   0.00006  -0.00005   0.00009
 107        2S          0.00000  -0.01614   0.00355  -0.00132   0.00069
 108        3S          0.00000  -0.07502   0.00908  -0.00389   0.00318
 109        4S          0.00000  -0.22143   0.05771  -0.01627   0.01053
 110        5S          0.00000  -0.09013   0.15634  -0.00110  -0.00255
 111        6S          0.00000   0.68759  -1.95442   0.87074   0.05720
 112        7S          0.00000  10.06253 -14.98932   2.09036 -13.54619
 113        8PX         0.00163   0.00000   0.00000   0.00000   0.00000
 114        8PY         0.00000   0.00098   0.00062  -0.00067   0.00038
 115        8PZ         0.00000  -0.00058  -0.00001   0.00047   0.00006
 116        9PX        -0.02023   0.00000   0.00000   0.00000   0.00000
 117        9PY         0.00000   0.01647   0.00356   0.00902  -0.02591
 118        9PZ         0.00000  -0.00156  -0.01309  -0.01025   0.01473
 119       10PX        -0.15533   0.00000   0.00000   0.00000   0.00000
 120       10PY         0.00000   0.24480   0.07370   0.07154  -0.28515
 121       10PZ         0.00000  -0.05094  -0.15296  -0.09634   0.17623
 122       11PX         0.04527   0.00000   0.00000   0.00000   0.00000
 123       11PY         0.00000   0.00164  -0.00409  -0.01980   0.03538
 124       11PZ         0.00000  -0.01533   0.02299   0.01564  -0.01560
 125       12PX         0.66132   0.00000   0.00000   0.00000   0.00000
 126       12PY         0.00000  -3.67492   3.73841   0.36575   1.67427
 127       12PZ         0.00000   2.35178  -2.55793   1.61823  -1.29744
 128       13PX        -2.46270   0.00000   0.00000   0.00000   0.00000
 129       13PY         0.00000  -3.82200   0.37600  -0.83139   3.68816
 130       13PZ         0.00000   0.95594  -2.83160  -0.93882  -2.15259
 131       14D 0        0.00000   0.00091   0.00059   0.00118  -0.00099
 132       14D+1        0.00232   0.00000   0.00000   0.00000   0.00000
 133       14D-1        0.00000   0.00090  -0.00020   0.00124  -0.00112
 134       14D+2        0.00000   0.00343   0.00111   0.00223   0.00019
 135       14D-2       -0.00100   0.00000   0.00000   0.00000   0.00000
 136       15D 0        0.00000  -0.01483  -0.00421  -0.01452   0.01356
 137       15D+1       -0.02779   0.00000   0.00000   0.00000   0.00000
 138       15D-1        0.00000   0.00188  -0.01522  -0.00869   0.01714
 139       15D+2        0.00000  -0.03643  -0.02512  -0.02391  -0.00120
 140       15D-2        0.02144   0.00000   0.00000   0.00000   0.00000
 141       16D 0        0.00000   0.09724   0.00224   0.08867  -0.07761
 142       16D+1        0.10920   0.00000   0.00000   0.00000   0.00000
 143       16D-1        0.00000  -0.02918   0.30553   0.05229  -0.16972
 144       16D+2        0.00000   0.19464   0.27612   0.14789  -0.06132
 145       16D-2       -0.09901   0.00000   0.00000   0.00000   0.00000
 146       17D 0        0.00000  -0.16779  -0.16005   0.33941   0.04782
 147       17D+1       -0.22267   0.00000   0.00000   0.00000   0.00000
 148       17D-1        0.00000  -1.41599   1.10121  -0.30019   0.74531
 149       17D+2        0.00000  -1.76469   0.50967   0.26055   0.35078
 150       17D-2        0.02651   0.00000   0.00000   0.00000   0.00000
 151       18F 0        0.00000  -0.00498  -0.01958  -0.01443  -0.00471
 152       18F+1       -0.00875   0.00000   0.00000   0.00000   0.00000
 153       18F-1        0.00000   0.02796  -0.02428  -0.00037  -0.00691
 154       18F+2        0.00000   0.04170  -0.01280  -0.01412  -0.00869
 155       18F-2        0.01243   0.00000   0.00000   0.00000   0.00000
 156       18F+3        0.05089   0.00000   0.00000   0.00000   0.00000
 157       18F-3        0.00000  -0.03989   0.01424   0.01990   0.01190
 158       19F 0        0.00000  -0.02261   0.10802   0.03108  -0.00975
 159       19F+1        0.00391   0.00000   0.00000   0.00000   0.00000
 160       19F-1        0.00000  -0.10916   0.13207  -0.02807   0.02994
 161       19F+2        0.00000  -0.17815   0.16413   0.05226   0.01744
 162       19F-2       -0.01772   0.00000   0.00000   0.00000   0.00000
 163       19F+3       -0.11253   0.00000   0.00000   0.00000   0.00000
 164       19F-3        0.00000   0.17018  -0.10680  -0.10143  -0.02182
 165 4   O  1S          0.00000   0.00000   0.00000   0.10143   0.02776
 166        2S          0.00000   0.00000   0.00000   0.53250   0.14498
 167        3S          0.00000   0.00000   0.00000   0.00309  -0.00607
 168        4S          0.00000   0.00000   0.00000  -6.12790   0.04821
 169        5S          0.00000   0.00000   0.00000 -15.19084  -7.96911
 170        6PX         0.01995   0.00000   0.00000   0.00000   0.00000
 171        6PY         0.00000   0.01519   0.00333   0.00000   0.00000
 172        6PZ         0.00000   0.00000   0.00000  -0.00346   0.01199
 173        7PX        -0.03928   0.00000   0.00000   0.00000   0.00000
 174        7PY         0.00000  -0.08099   0.03327   0.00000   0.00000
 175        7PZ         0.00000   0.00000   0.00000   0.12367  -0.13512
 176        8PX         0.76995   0.00000   0.00000   0.00000   0.00000
 177        8PY         0.00000   1.00213   0.13884   0.00000   0.00000
 178        8PZ         0.00000   0.00000   0.00000   3.77309   0.64339
 179        9PX        -3.48740   0.00000   0.00000   0.00000   0.00000
 180        9PY         0.00000  -0.70789  -3.69561   0.00000   0.00000
 181        9PZ         0.00000   0.00000   0.00000   0.34141   1.69756
 182       10D 0        0.00000   0.00000   0.00000   0.05557   0.01160
 183       10D+1        0.03697   0.00000   0.00000   0.00000   0.00000
 184       10D-1        0.00000   0.00008   0.03778   0.00000   0.00000
 185       10D+2        0.00000   0.00000   0.00000  -0.02763  -0.01105
 186       10D-2        0.00000   0.00000   0.00000   0.00000   0.00000
 187       11D 0        0.00000   0.00000   0.00000  -0.39813  -0.02362
 188       11D+1       -0.23870   0.00000   0.00000   0.00000   0.00000
 189       11D-1        0.00000  -0.02929  -0.20755   0.00000   0.00000
 190       11D+2        0.00000   0.00000   0.00000   0.07903   0.03511
 191       11D-2        0.00000   0.00000   0.00000   0.00000   0.00000
 192       12D 0        0.00000   0.00000   0.00000  -0.51061  -0.18426
 193       12D+1       -0.07641   0.00000   0.00000   0.00000   0.00000
 194       12D-1        0.00000  -0.30538   0.15703   0.00000   0.00000
 195       12D+2        0.00000   0.00000   0.00000  -0.37910   0.05248
 196       12D-2        0.00000   0.00000   0.00000   0.00000   0.00000
 197       13F 0        0.00000   0.00000   0.00000   0.01700  -0.01353
 198       13F+1       -0.00629   0.00000   0.00000   0.00000   0.00000
 199       13F-1        0.00000  -0.01433  -0.00318   0.00000   0.00000
 200       13F+2        0.00000   0.00000   0.00000  -0.01351   0.01501
 201       13F-2        0.00000   0.00000   0.00000   0.00000   0.00000
 202       13F+3        0.01363   0.00000   0.00000   0.00000   0.00000
 203       13F-3        0.00000  -0.01002   0.01652   0.00000   0.00000
 204       14F 0        0.00000   0.00000   0.00000   0.14634   0.06191
 205       14F+1        0.17058   0.00000   0.00000   0.00000   0.00000
 206       14F-1        0.00000   0.06930   0.09704   0.00000   0.00000
 207       14F+2        0.00000   0.00000   0.00000   0.05899  -0.03843
 208       14F-2        0.00000   0.00000   0.00000   0.00000   0.00000
 209       14F+3       -0.02427   0.00000   0.00000   0.00000   0.00000
 210       14F-3        0.00000   0.02549  -0.02894   0.00000   0.00000
          Condensed to atoms (all electrons):
              1          2          3          4
     1  C    5.587238   0.019226   0.019226   0.231841
     2  Br   0.019226  35.042723  -0.116947  -0.055602
     3  Br   0.019226  -0.116947  35.042723  -0.055602
     4  O    0.231841  -0.055602  -0.055602   8.243031
 Mulliken atomic charges:
              1
     1  C    0.142470
     2  Br   0.110599
     3  Br   0.110599
     4  O   -0.363669
 Sum of Mulliken atomic charges =   0.00000
 Mulliken charges with hydrogens summed into heavy atoms:
              1
     1  C    0.142470
     2  Br   0.110599
     3  Br   0.110599
     4  O   -0.363669
 Sum of Mulliken charges with hydrogens summed into heavy atoms =   0.00000
 Electronic spatial extent (au):  <R**2>=           1355.6942
 Charge=              0.0000 electrons
 Dipole moment (field-independent basis, Debye):
    X=              0.0000    Y=              0.0000    Z=             -1.3176  Tot=              1.3176
 Quadrupole moment (field-independent basis, Debye-Ang):
   XX=            -46.9573   YY=            -44.7978   ZZ=            -47.4878
   XY=              0.0000   XZ=              0.0000   YZ=              0.0000
 Traceless Quadrupole moment (field-independent basis, Debye-Ang):
   XX=             -0.5430   YY=              1.6165   ZZ=             -1.0735
   XY=              0.0000   XZ=              0.0000   YZ=              0.0000
 Octapole moment (field-independent basis, Debye-Ang**2):
  XXX=              0.0000  YYY=              0.0000  ZZZ=            164.8687  XYY=              0.0000
  XXY=              0.0000  XXZ=             56.2896  XZZ=              0.0000  YZZ=              0.0000
  YYZ=             45.5511  XYZ=              0.0000
 Hexadecapole moment (field-independent basis, Debye-Ang**3):
 XXXX=            -53.6409 YYYY=           -569.5178 ZZZZ=           -597.4539 XXXY=              0.0000
 XXXZ=              0.0000 YYYX=              0.0000 YYYZ=              0.0000 ZZZX=              0.0000
 ZZZY=              0.0000 XXYY=           -111.2189 XXZZ=           -110.4012 YYZZ=           -174.9213
 XXYZ=              0.0000 YYXZ=              0.0000 ZZXY=              0.0000
 N-N= 4.493857801989D+02 E-N=-1.347047868943D+04  KE= 5.257201828933D+03
 1\1\GINC-TRAPISTA\SP\RQCISD-FC\Aug-CC-pVTZ\C1Br2O1\BRUNS\28-Nov-2021\0
 \\# qcisd/aug-cc-pvtz nosymm density=current output=wfn\\br2co-wavefun
 ction\\0,1\C,0,0.,0.,-0.501759\Br,0,0.,-1.594181,-1.54682\Br,0,0.,1.59
 4181,-1.54682\O,0,0.,0.,0.6845\\Version=EM64L-G09RevB.01\HF=-5257.6834
 805\MP2=-5258.5486824\MP3=-5258.548031\MP4D=-5258.569452\MP4DQ=-5258.5
 479149\MP4SDQ=-5258.5600518\QCISD=-5258.5576039\RMSD=9.655e-09\Dipole=
 0.,0.,-0.5183817\Quadrupole=-0.4037114,1.2018161,-0.7981047,0.,0.,0.\P
 G=C02V [C2(C1O1),SGV(Br2)]\\@

 Writing a WFN file to GAUSSIAN.wfn.


 ALL THINGS ARE POSSIBLE EXCEPT SKIING THROUGH A REVOLVING DOOR.
 Job cpu time:  0 days  5 hours 44 minutes 32.2 seconds.
 File lengths (MBytes):  RWF=  23799 Int=      0 D2E=      0 Chk=      4 Scr=      1
 Normal termination of Gaussian 09 at Sun Nov 28 09:44:49 2021.
