 br2co-wavefunction
GAUSSIAN            210 MOL ORBITALS    578 PRIMITIVES        4 NUCLEI
  C    1    (CENTRE  1)   0.00000000  0.00000000 -0.92928983  CHARGE =  6.0
  Br   2    (CENTRE  2)   0.00000000 -3.01256550 -2.92306618  CHARGE = 35.0
  Br   3    (CENTRE  3)   0.01889726  3.01256550 -2.92306618  CHARGE = 35.0
  O    4    (CENTRE  4)   0.00000000  0.00000000  1.29351754  CHARGE =  8.0
CENTRE ASSIGNMENTS    1  1  1  1  1  1  1  1  1  1  1  1  1  1  1  1  1  1  1  1
CENTRE ASSIGNMENTS    1  1  1  1  1  1  1  1  1  1  1  1  1  1  1  1  1  1  1  1
CENTRE ASSIGNMENTS    1  1  1  1  1  1  1  1  1  1  1  1  1  1  1  1  1  1  1  1
CENTRE ASSIGNMENTS    1  1  1  1  1  1  1  1  1  1  1  1  2  2  2  2  2  2  2  2
CENTRE ASSIGNMENTS    2  2  2  2  2  2  2  2  2  2  2  2  2  2  2  2  2  2  2  2
CENTRE ASSIGNMENTS    2  2  2  2  2  2  2  2  2  2  2  2  2  2  2  2  2  2  2  2
CENTRE ASSIGNMENTS    2  2  2  2  2  2  2  2  2  2  2  2  2  2  2  2  2  2  2  2
CENTRE ASSIGNMENTS    2  2  2  2  2  2  2  2  2  2  2  2  2  2  2  2  2  2  2  2
CENTRE ASSIGNMENTS    2  2  2  2  2  2  2  2  2  2  2  2  2  2  2  2  2  2  2  2
CENTRE ASSIGNMENTS    2  2  2  2  2  2  2  2  2  2  2  2  2  2  2  2  2  2  2  2
CENTRE ASSIGNMENTS    2  2  2  2  2  2  2  2  2  2  2  2  2  2  2  2  2  2  2  2
CENTRE ASSIGNMENTS    2  2  2  2  2  2  2  2  2  2  2  2  2  2  2  2  2  2  2  2
CENTRE ASSIGNMENTS    2  2  2  2  2  2  2  2  2  2  2  2  2  2  2  2  2  2  2  2
CENTRE ASSIGNMENTS    2  2  2  2  2  2  2  2  2  2  2  2  2  2  2  2  2  2  2  2
CENTRE ASSIGNMENTS    2  2  2  2  2  2  2  2  2  3  3  3  3  3  3  3  3  3  3  3
CENTRE ASSIGNMENTS    3  3  3  3  3  3  3  3  3  3  3  3  3  3  3  3  3  3  3  3
CENTRE ASSIGNMENTS    3  3  3  3  3  3  3  3  3  3  3  3  3  3  3  3  3  3  3  3
CENTRE ASSIGNMENTS    3  3  3  3  3  3  3  3  3  3  3  3  3  3  3  3  3  3  3  3
CENTRE ASSIGNMENTS    3  3  3  3  3  3  3  3  3  3  3  3  3  3  3  3  3  3  3  3
CENTRE ASSIGNMENTS    3  3  3  3  3  3  3  3  3  3  3  3  3  3  3  3  3  3  3  3
CENTRE ASSIGNMENTS    3  3  3  3  3  3  3  3  3  3  3  3  3  3  3  3  3  3  3  3
CENTRE ASSIGNMENTS    3  3  3  3  3  3  3  3  3  3  3  3  3  3  3  3  3  3  3  3
CENTRE ASSIGNMENTS    3  3  3  3  3  3  3  3  3  3  3  3  3  3  3  3  3  3  3  3
CENTRE ASSIGNMENTS    3  3  3  3  3  3  3  3  3  3  3  3  3  3  3  3  3  3  3  3
CENTRE ASSIGNMENTS    3  3  3  3  3  3  3  3  3  3  3  3  3  3  3  3  3  3  3  3
CENTRE ASSIGNMENTS    3  3  3  3  3  3  4  4  4  4  4  4  4  4  4  4  4  4  4  4
CENTRE ASSIGNMENTS    4  4  4  4  4  4  4  4  4  4  4  4  4  4  4  4  4  4  4  4
CENTRE ASSIGNMENTS    4  4  4  4  4  4  4  4  4  4  4  4  4  4  4  4  4  4  4  4
CENTRE ASSIGNMENTS    4  4  4  4  4  4  4  4  4  4  4  4  4  4  4  4  4  4
TYPE ASSIGNMENTS      1  1  1  1  1  1  1  1  1  1  1  1  1  1  1  1  2  2  2  3
TYPE ASSIGNMENTS      3  3  4  4  4  2  3  4  2  3  4  2  3  4  5  6  7  8  9 10
TYPE ASSIGNMENTS      5  6  7  8  9 10  5  6  7  8  9 10 11 12 13 17 14 15 18 19
TYPE ASSIGNMENTS     16 20 11 12 13 17 14 15 18 19 16 20  1  1  1  1  1  1  1  1
TYPE ASSIGNMENTS      1  1  1  1  1  1  1  1  1  1  1  1  1  1  1  1  1  1  1  1
TYPE ASSIGNMENTS      1  1  1  1  1  1  1  1  1  1  1  1  1  1  1  1  1  1  1  1
TYPE ASSIGNMENTS      1  1  2  2  2  2  2  2  2  2  2  3  3  3  3  3  3  3  3  3
TYPE ASSIGNMENTS      4  4  4  4  4  4  4  4  4  2  2  2  2  2  2  2  2  2  3  3
TYPE ASSIGNMENTS      3  3  3  3  3  3  3  4  4  4  4  4  4  4  4  4  2  2  2  2
TYPE ASSIGNMENTS      2  2  2  2  3  3  3  3  3  3  3  3  4  4  4  4  4  4  4  4
TYPE ASSIGNMENTS      2  3  4  2  3  4  2  3  4  5  5  5  5  5  5  5  6  6  6  6
TYPE ASSIGNMENTS      6  6  6  7  7  7  7  7  7  7  8  8  8  8  8  8  8  9  9  9
TYPE ASSIGNMENTS      9  9  9  9 10 10 10 10 10 10 10  5  6  7  8  9 10  5  6  7
TYPE ASSIGNMENTS      8  9 10  5  6  7  8  9 10 11 12 13 17 14 15 18 19 16 20 11
TYPE ASSIGNMENTS     12 13 17 14 15 18 19 16 20  1  1  1  1  1  1  1  1  1  1  1
TYPE ASSIGNMENTS      1  1  1  1  1  1  1  1  1  1  1  1  1  1  1  1  1  1  1  1
TYPE ASSIGNMENTS      1  1  1  1  1  1  1  1  1  1  1  1  1  1  1  1  1  1  1  2
TYPE ASSIGNMENTS      2  2  2  2  2  2  2  2  3  3  3  3  3  3  3  3  3  4  4  4
TYPE ASSIGNMENTS      4  4  4  4  4  4  2  2  2  2  2  2  2  2  2  3  3  3  3  3
TYPE ASSIGNMENTS      3  3  3  3  4  4  4  4  4  4  4  4  4  2  2  2  2  2  2  2
TYPE ASSIGNMENTS      2  3  3  3  3  3  3  3  3  4  4  4  4  4  4  4  4  2  3  4
TYPE ASSIGNMENTS      2  3  4  2  3  4  5  5  5  5  5  5  5  6  6  6  6  6  6  6
TYPE ASSIGNMENTS      7  7  7  7  7  7  7  8  8  8  8  8  8  8  9  9  9  9  9  9
TYPE ASSIGNMENTS      9 10 10 10 10 10 10 10  5  6  7  8  9 10  5  6  7  8  9 10
TYPE ASSIGNMENTS      5  6  7  8  9 10 11 12 13 17 14 15 18 19 16 20 11 12 13 17
TYPE ASSIGNMENTS     14 15 18 19 16 20  1  1  1  1  1  1  1  1  1  1  1  1  1  1
TYPE ASSIGNMENTS      1  1  2  2  2  3  3  3  4  4  4  2  3  4  2  3  4  2  3  4
TYPE ASSIGNMENTS      5  6  7  8  9 10  5  6  7  8  9 10  5  6  7  8  9 10 11 12
TYPE ASSIGNMENTS     13 17 14 15 18 19 16 20 11 12 13 17 14 15 18 19 16 20
EXPONENTS  0.8236000D+04 0.1235000D+04 0.2808000D+03 0.7927000D+02 0.2559000D+02
EXPONENTS  0.8997000D+01 0.3319000D+01 0.2808000D+03 0.7927000D+02 0.2559000D+02
EXPONENTS  0.8997000D+01 0.3319000D+01 0.3643000D+00 0.9059000D+00 0.1285000D+00
EXPONENTS  0.4402000D-01 0.1871000D+02 0.4133000D+01 0.1200000D+01 0.1871000D+02
EXPONENTS  0.4133000D+01 0.1200000D+01 0.1871000D+02 0.4133000D+01 0.1200000D+01
EXPONENTS  0.3827000D+00 0.3827000D+00 0.3827000D+00 0.1209000D+00 0.1209000D+00
EXPONENTS  0.1209000D+00 0.3569000D-01 0.3569000D-01 0.3569000D-01 0.1097000D+01
EXPONENTS  0.1097000D+01 0.1097000D+01 0.1097000D+01 0.1097000D+01 0.1097000D+01
EXPONENTS  0.3180000D+00 0.3180000D+00 0.3180000D+00 0.3180000D+00 0.3180000D+00
EXPONENTS  0.3180000D+00 0.1000000D+00 0.1000000D+00 0.1000000D+00 0.1000000D+00
EXPONENTS  0.1000000D+00 0.1000000D+00 0.7610000D+00 0.7610000D+00 0.7610000D+00
EXPONENTS  0.7610000D+00 0.7610000D+00 0.7610000D+00 0.7610000D+00 0.7610000D+00
EXPONENTS  0.7610000D+00 0.7610000D+00 0.2680000D+00 0.2680000D+00 0.2680000D+00
EXPONENTS  0.2680000D+00 0.2680000D+00 0.2680000D+00 0.2680000D+00 0.2680000D+00
EXPONENTS  0.2680000D+00 0.2680000D+00 0.1063900D+08 0.1593400D+07 0.3626100D+06
EXPONENTS  0.1027000D+06 0.3350100D+05 0.1209300D+05 0.4715900D+04 0.1955600D+04
EXPONENTS  0.8526100D+03 0.3876700D+03 0.1826800D+03 0.8824500D+02 0.3926300D+02
EXPONENTS  0.9405700D+01 0.1899500D+01 0.3350100D+05 0.1209300D+05 0.4715900D+04
EXPONENTS  0.1955600D+04 0.8526100D+03 0.3876700D+03 0.1826800D+03 0.8824500D+02
EXPONENTS  0.3926300D+02 0.1923400D+02 0.9405700D+01 0.1899500D+01 0.4715900D+04
EXPONENTS  0.8526100D+03 0.3876700D+03 0.1826800D+03 0.8824500D+02 0.3926300D+02
EXPONENTS  0.1923400D+02 0.9405700D+01 0.4160100D+01 0.1899500D+01 0.4715900D+04
EXPONENTS  0.8526100D+03 0.3876700D+03 0.8824500D+02 0.3926300D+02 0.1923400D+02
EXPONENTS  0.9405700D+01 0.4160100D+01 0.1899500D+01 0.3011400D+00 0.6047200D+00
EXPONENTS  0.1251500D+00 0.4559300D-01 0.8676500D+04 0.2055900D+04 0.6662300D+03
EXPONENTS  0.2531000D+03 0.1061200D+03 0.4724200D+02 0.2182500D+02 0.9968400D+01
EXPONENTS  0.1998200D+01 0.8676500D+04 0.2055900D+04 0.6662300D+03 0.2531000D+03
EXPONENTS  0.1061200D+03 0.4724200D+02 0.2182500D+02 0.9968400D+01 0.1998200D+01
EXPONENTS  0.8676500D+04 0.2055900D+04 0.6662300D+03 0.2531000D+03 0.1061200D+03
EXPONENTS  0.4724200D+02 0.2182500D+02 0.9968400D+01 0.1998200D+01 0.8676500D+04
EXPONENTS  0.6662300D+03 0.2531000D+03 0.1061200D+03 0.4724200D+02 0.2182500D+02
EXPONENTS  0.9968400D+01 0.4517100D+01 0.1998200D+01 0.8676500D+04 0.6662300D+03
EXPONENTS  0.2531000D+03 0.1061200D+03 0.4724200D+02 0.2182500D+02 0.9968400D+01
EXPONENTS  0.4517100D+01 0.1998200D+01 0.8676500D+04 0.6662300D+03 0.2531000D+03
EXPONENTS  0.1061200D+03 0.4724200D+02 0.2182500D+02 0.9968400D+01 0.4517100D+01
EXPONENTS  0.1998200D+01 0.6662300D+03 0.1061200D+03 0.4724200D+02 0.2182500D+02
EXPONENTS  0.9968400D+01 0.4517100D+01 0.1998200D+01 0.2814500D+00 0.6662300D+03
EXPONENTS  0.1061200D+03 0.4724200D+02 0.2182500D+02 0.9968400D+01 0.4517100D+01
EXPONENTS  0.1998200D+01 0.2814500D+00 0.6662300D+03 0.1061200D+03 0.4724200D+02
EXPONENTS  0.2182500D+02 0.9968400D+01 0.4517100D+01 0.1998200D+01 0.2814500D+00
EXPONENTS  0.7098800D+00 0.7098800D+00 0.7098800D+00 0.1020400D+00 0.1020400D+00
EXPONENTS  0.1020400D+00 0.3514200D-01 0.3514200D-01 0.3514200D-01 0.4038300D+03
EXPONENTS  0.1211700D+03 0.4634500D+02 0.1972100D+02 0.8862400D+01 0.3996200D+01
EXPONENTS  0.1763600D+01 0.4038300D+03 0.1211700D+03 0.4634500D+02 0.1972100D+02
EXPONENTS  0.8862400D+01 0.3996200D+01 0.1763600D+01 0.4038300D+03 0.1211700D+03
EXPONENTS  0.4634500D+02 0.1972100D+02 0.8862400D+01 0.3996200D+01 0.1763600D+01
EXPONENTS  0.4038300D+03 0.1211700D+03 0.4634500D+02 0.1972100D+02 0.8862400D+01
EXPONENTS  0.3996200D+01 0.1763600D+01 0.4038300D+03 0.1211700D+03 0.4634500D+02
EXPONENTS  0.1972100D+02 0.8862400D+01 0.3996200D+01 0.1763600D+01 0.4038300D+03
EXPONENTS  0.1211700D+03 0.4634500D+02 0.1972100D+02 0.8862400D+01 0.3996200D+01
EXPONENTS  0.1763600D+01 0.7061900D+00 0.7061900D+00 0.7061900D+00 0.7061900D+00
EXPONENTS  0.7061900D+00 0.7061900D+00 0.2639000D+00 0.2639000D+00 0.2639000D+00
EXPONENTS  0.2639000D+00 0.2639000D+00 0.2639000D+00 0.1047000D+00 0.1047000D+00
EXPONENTS  0.1047000D+00 0.1047000D+00 0.1047000D+00 0.1047000D+00 0.5515000D+00
EXPONENTS  0.5515000D+00 0.5515000D+00 0.5515000D+00 0.5515000D+00 0.5515000D+00
EXPONENTS  0.5515000D+00 0.5515000D+00 0.5515000D+00 0.5515000D+00 0.2580000D+00
EXPONENTS  0.2580000D+00 0.2580000D+00 0.2580000D+00 0.2580000D+00 0.2580000D+00
EXPONENTS  0.2580000D+00 0.2580000D+00 0.2580000D+00 0.2580000D+00 0.1063900D+08
EXPONENTS  0.1593400D+07 0.3626100D+06 0.1027000D+06 0.3350100D+05 0.1209300D+05
EXPONENTS  0.4715900D+04 0.1955600D+04 0.8526100D+03 0.3876700D+03 0.1826800D+03
EXPONENTS  0.8824500D+02 0.3926300D+02 0.9405700D+01 0.1899500D+01 0.3350100D+05
EXPONENTS  0.1209300D+05 0.4715900D+04 0.1955600D+04 0.8526100D+03 0.3876700D+03
EXPONENTS  0.1826800D+03 0.8824500D+02 0.3926300D+02 0.1923400D+02 0.9405700D+01
EXPONENTS  0.1899500D+01 0.4715900D+04 0.8526100D+03 0.3876700D+03 0.1826800D+03
EXPONENTS  0.8824500D+02 0.3926300D+02 0.1923400D+02 0.9405700D+01 0.4160100D+01
EXPONENTS  0.1899500D+01 0.4715900D+04 0.8526100D+03 0.3876700D+03 0.8824500D+02
EXPONENTS  0.3926300D+02 0.1923400D+02 0.9405700D+01 0.4160100D+01 0.1899500D+01
EXPONENTS  0.3011400D+00 0.6047200D+00 0.1251500D+00 0.4559300D-01 0.8676500D+04
EXPONENTS  0.2055900D+04 0.6662300D+03 0.2531000D+03 0.1061200D+03 0.4724200D+02
EXPONENTS  0.2182500D+02 0.9968400D+01 0.1998200D+01 0.8676500D+04 0.2055900D+04
EXPONENTS  0.6662300D+03 0.2531000D+03 0.1061200D+03 0.4724200D+02 0.2182500D+02
EXPONENTS  0.9968400D+01 0.1998200D+01 0.8676500D+04 0.2055900D+04 0.6662300D+03
EXPONENTS  0.2531000D+03 0.1061200D+03 0.4724200D+02 0.2182500D+02 0.9968400D+01
EXPONENTS  0.1998200D+01 0.8676500D+04 0.6662300D+03 0.2531000D+03 0.1061200D+03
EXPONENTS  0.4724200D+02 0.2182500D+02 0.9968400D+01 0.4517100D+01 0.1998200D+01
EXPONENTS  0.8676500D+04 0.6662300D+03 0.2531000D+03 0.1061200D+03 0.4724200D+02
EXPONENTS  0.2182500D+02 0.9968400D+01 0.4517100D+01 0.1998200D+01 0.8676500D+04
EXPONENTS  0.6662300D+03 0.2531000D+03 0.1061200D+03 0.4724200D+02 0.2182500D+02
EXPONENTS  0.9968400D+01 0.4517100D+01 0.1998200D+01 0.6662300D+03 0.1061200D+03
EXPONENTS  0.4724200D+02 0.2182500D+02 0.9968400D+01 0.4517100D+01 0.1998200D+01
EXPONENTS  0.2814500D+00 0.6662300D+03 0.1061200D+03 0.4724200D+02 0.2182500D+02
EXPONENTS  0.9968400D+01 0.4517100D+01 0.1998200D+01 0.2814500D+00 0.6662300D+03
EXPONENTS  0.1061200D+03 0.4724200D+02 0.2182500D+02 0.9968400D+01 0.4517100D+01
EXPONENTS  0.1998200D+01 0.2814500D+00 0.7098800D+00 0.7098800D+00 0.7098800D+00
EXPONENTS  0.1020400D+00 0.1020400D+00 0.1020400D+00 0.3514200D-01 0.3514200D-01
EXPONENTS  0.3514200D-01 0.4038300D+03 0.1211700D+03 0.4634500D+02 0.1972100D+02
EXPONENTS  0.8862400D+01 0.3996200D+01 0.1763600D+01 0.4038300D+03 0.1211700D+03
EXPONENTS  0.4634500D+02 0.1972100D+02 0.8862400D+01 0.3996200D+01 0.1763600D+01
EXPONENTS  0.4038300D+03 0.1211700D+03 0.4634500D+02 0.1972100D+02 0.8862400D+01
EXPONENTS  0.3996200D+01 0.1763600D+01 0.4038300D+03 0.1211700D+03 0.4634500D+02
EXPONENTS  0.1972100D+02 0.8862400D+01 0.3996200D+01 0.1763600D+01 0.4038300D+03
EXPONENTS  0.1211700D+03 0.4634500D+02 0.1972100D+02 0.8862400D+01 0.3996200D+01
EXPONENTS  0.1763600D+01 0.4038300D+03 0.1211700D+03 0.4634500D+02 0.1972100D+02
EXPONENTS  0.8862400D+01 0.3996200D+01 0.1763600D+01 0.7061900D+00 0.7061900D+00
EXPONENTS  0.7061900D+00 0.7061900D+00 0.7061900D+00 0.7061900D+00 0.2639000D+00
EXPONENTS  0.2639000D+00 0.2639000D+00 0.2639000D+00 0.2639000D+00 0.2639000D+00
EXPONENTS  0.1047000D+00 0.1047000D+00 0.1047000D+00 0.1047000D+00 0.1047000D+00
EXPONENTS  0.1047000D+00 0.5515000D+00 0.5515000D+00 0.5515000D+00 0.5515000D+00
EXPONENTS  0.5515000D+00 0.5515000D+00 0.5515000D+00 0.5515000D+00 0.5515000D+00
EXPONENTS  0.5515000D+00 0.2580000D+00 0.2580000D+00 0.2580000D+00 0.2580000D+00
EXPONENTS  0.2580000D+00 0.2580000D+00 0.2580000D+00 0.2580000D+00 0.2580000D+00
EXPONENTS  0.2580000D+00 0.1533000D+05 0.2299000D+04 0.5224000D+03 0.1473000D+03
EXPONENTS  0.4755000D+02 0.1676000D+02 0.6207000D+01 0.5224000D+03 0.1473000D+03
EXPONENTS  0.4755000D+02 0.1676000D+02 0.6207000D+01 0.6882000D+00 0.1752000D+01
EXPONENTS  0.2384000D+00 0.7376000D-01 0.3446000D+02 0.7749000D+01 0.2280000D+01
EXPONENTS  0.3446000D+02 0.7749000D+01 0.2280000D+01 0.3446000D+02 0.7749000D+01
EXPONENTS  0.2280000D+01 0.7156000D+00 0.7156000D+00 0.7156000D+00 0.2140000D+00
EXPONENTS  0.2140000D+00 0.2140000D+00 0.5974000D-01 0.5974000D-01 0.5974000D-01
EXPONENTS  0.2314000D+01 0.2314000D+01 0.2314000D+01 0.2314000D+01 0.2314000D+01
EXPONENTS  0.2314000D+01 0.6450000D+00 0.6450000D+00 0.6450000D+00 0.6450000D+00
EXPONENTS  0.6450000D+00 0.6450000D+00 0.2140000D+00 0.2140000D+00 0.2140000D+00
EXPONENTS  0.2140000D+00 0.2140000D+00 0.2140000D+00 0.1428000D+01 0.1428000D+01
EXPONENTS  0.1428000D+01 0.1428000D+01 0.1428000D+01 0.1428000D+01 0.1428000D+01
EXPONENTS  0.1428000D+01 0.1428000D+01 0.1428000D+01 0.5000000D+00 0.5000000D+00
EXPONENTS  0.5000000D+00 0.5000000D+00 0.5000000D+00 0.5000000D+00 0.5000000D+00
EXPONENTS  0.5000000D+00 0.5000000D+00 0.5000000D+00
MO    1     MO 0.0        OCC NO =    2.0000166  ORB. ENERGY =    0.000000
  0.12315067D+00  0.22957766D+00  0.38801752D+00  0.58326271D+00  0.71643377D+00
  0.60464483D+00  0.22736224D+00  0.29320090D-04  0.21914950D-03  0.81901174D-03
  0.22849152D-02  0.30611564D-02 -0.36146550D-02  0.94447553D-02 -0.19936274D-02
 -0.30927238D-03 -0.10690134D-04 -0.10022680D-04 -0.71367452D-05  0.40214865D-05
  0.37703992D-05  0.26847488D-05  0.36722389D-02  0.34429574D-02  0.24515907D-02
 -0.43592558D-05  0.13650926D-05  0.19863749D-02 -0.16863118D-05  0.29908559D-06
  0.38478747D-03  0.57469733D-07 -0.11189067D-07  0.48957333D-05 -0.97184835D-04
 -0.49939652D-03  0.59658135D-03 -0.25193390D-05  0.15421132D-05 -0.97679940D-06
  0.33694916D-03 -0.32304498D-03 -0.13904182D-04 -0.41383907D-05  0.38611550D-05
 -0.44089765D-06  0.30925568D-04 -0.18826174D-04 -0.12099393D-04 -0.31175199D-06
  0.51834265D-06 -0.89921807D-07 -0.36023707D-06 -0.38566757D-07  0.12402830D-03
 -0.68991477D-07  0.10269087D-06 -0.16603035D-03  0.11497027D-05  0.13009404D-07
 -0.20605456D-03 -0.25016574D-06  0.16103839D-06  0.31766699D-07 -0.14095897D-04
 -0.35982650D-06 -0.65959560D-08  0.25094681D-05 -0.12328866D-06 -0.88704140D-07
  0.39778222D-04  0.23514152D-06 -0.34910004D-01 -0.65670976D-01 -0.11367981D+00
 -0.18634304D+00 -0.29190922D+00 -0.43876330D+00 -0.62709591D+00 -0.83246846D+00
 -0.96946966D+00 -0.89034572D+00 -0.52046554D+00 -0.13656712D+00 -0.77645994D-02
 -0.13548391D-03 -0.13637997D-04 -0.16564270D-02 -0.47850360D-02 -0.21930944D-01
 -0.64920371D-01 -0.18827097D+00 -0.39133859D+00 -0.55981450D+00 -0.16051670D+00
  0.64144622D+00  0.62021644D+00  0.13537172D+00 -0.19594647D-02 -0.10131347D-02
 -0.47264831D-02 -0.95920467D-02 -0.37592899D-01 -0.26379828D-01  0.17179542D+00
  0.53233503D+00  0.65116496D-01 -0.46534161D+00 -0.21838480D+00 -0.11099564D-05
 -0.15216621D-05  0.29173944D-05  0.62004223D-05 -0.23439331D-04 -0.75796843D-04
 -0.26360989D-04  0.25783918D-03  0.57511504D-03 -0.38162884D-03 -0.90646972D-02
  0.53799427D-03  0.15412116D-03 -0.42225888D-02 -0.60587847D-02 -0.80223907D-02
 -0.92644650D-02 -0.85899061D-02 -0.55627079D-02 -0.19628527D-02 -0.22616746D-03
  0.36948815D-06  0.10020359D+02  0.14377719D+02  0.19037429D+02  0.21984916D+02
  0.20384164D+02  0.13200511D+02  0.46579217D+01  0.53670372D+00 -0.87680899D-03
  0.62326310D+01  0.89428953D+01  0.11841220D+02  0.13674548D+02  0.12678885D+02
  0.82106755D+01  0.28972124D+01  0.33382800D+00 -0.54537239D-03  0.24138920D-04
 -0.68824361D-04 -0.33594056D-03 -0.69613272D-03 -0.87357785D-03 -0.13853373D-03
  0.11213838D-02  0.97800924D-03  0.25141183D-03 -0.59719647D-01  0.17027135D+00
  0.83111637D+00  0.17222312D+01  0.21612301D+01  0.34273223D+00 -0.27743016D+01
 -0.24195932D+01 -0.62199244D+00 -0.37225462D-01  0.10613642D+00  0.51806554D+00
  0.10735303D+01  0.13471746D+01  0.21363766D+00 -0.17293246D+01 -0.15082218D+01
 -0.38771086D+00  0.44351697D-08  0.62657367D-08 -0.29154146D-08  0.58425183D-08
  0.64137774D-08  0.17312795D-07  0.54557193D-08 -0.11713545D-07 -0.25825952D-03
 -0.36485327D-03  0.16976432D-03 -0.34020930D-03 -0.37347366D-03 -0.10081225D-02
 -0.31768603D-03  0.68207865D-03 -0.14280165D-03 -0.20174144D-03  0.93869238D-04
 -0.18811484D-03 -0.20650799D-03 -0.55742979D-03 -0.17566085D-03  0.37714759D-03
  0.89784902D-05 -0.22028290D-01 -0.13850563D-01  0.26120153D-06  0.12520242D-03
  0.59990446D-04 -0.33293008D-07  0.87770840D-05  0.66718922D-05  0.10223259D+01
  0.10697539D+01  0.91148761D+00  0.60028350D+00  0.27665279D+00  0.82844127D-01
  0.14095226D-01 -0.12453112D+01 -0.13030840D+01 -0.11102973D+01 -0.73121474D+00
 -0.33699510D+00 -0.10091373D+00 -0.17169615D-01  0.22298530D+00  0.23333009D+00
  0.19880972D+00  0.13093123D+00  0.60342307D-01  0.18069602D-01  0.30743895D-02
  0.60404455D-02  0.63206753D-02  0.53855537D-02  0.35467943D-02  0.16346119D-02
  0.48948717D-03  0.83282092D-04 -0.93372921D-03 -0.97704701D-03 -0.83249634D-03
 -0.54826178D-03 -0.25267753D-03 -0.75664696D-04 -0.12873706D-04 -0.37527282D+01
 -0.39268257D+01 -0.33458657D+01 -0.22035055D+01 -0.10155301D+01 -0.30410212D+00
 -0.51740398D-01  0.11378012D-02 -0.13754453D-02  0.23764406D-03  0.43362463D-05
 -0.76862003D-06 -0.38113913D-02 -0.11628819D-03  0.11052404D-03  0.57641495D-05
  0.20522565D-06 -0.40574158D-07  0.30470490D-03 -0.13574783D-04  0.15148384D-04
 -0.15736003D-05  0.69418933D-07 -0.27677088D-07  0.28814722D-04 -0.19642351D-06
 -0.40149674D-04  0.92023081D-04  0.44491741D-06  0.20914459D-03  0.14535786D-03
  0.14435313D-06 -0.88695570D-04 -0.42142710D-03  0.13036113D-06  0.45014914D-07
  0.97194610D-05 -0.20885041D-04  0.18497847D-07 -0.68920757D-04 -0.54628760D-04
 -0.15354259D-06  0.39762374D-04  0.11728388D-03 -0.11512177D-07 -0.34869974D-01
 -0.65595672D-01 -0.11354946D+00 -0.18612937D+00 -0.29157449D+00 -0.43826018D+00
 -0.62637683D+00 -0.83151388D+00 -0.96835799D+00 -0.88932478D+00 -0.51986873D+00
 -0.13641052D+00 -0.77556959D-02 -0.13532855D-03 -0.13622358D-04 -0.16545286D-02
 -0.47795518D-02 -0.21905809D-01 -0.64845964D-01 -0.18805519D+00 -0.39089007D+00
 -0.55917289D+00 -0.16033273D+00  0.64071105D+00  0.61950560D+00  0.13521657D+00
 -0.19572189D-02 -0.10119812D-02 -0.47211015D-02 -0.95811252D-02 -0.37550096D-01
 -0.26349791D-01  0.17159982D+00  0.53172892D+00  0.65042354D-01 -0.46481177D+00
 -0.21813615D+00 -0.11086825D-05 -0.15199158D-05  0.29140462D-05  0.61933063D-05
 -0.23412431D-04 -0.75709854D-04 -0.26330736D-04  0.25754327D-03  0.57445500D-03
 -0.38119086D-03 -0.90542678D-02  0.53740919D-03  0.15415572D-03 -0.66973622D-01
 -0.96097152D-01 -0.12724151D+00 -0.14694180D+00 -0.13624276D+00 -0.88228980D-01
 -0.31132408D-01 -0.35871962D-02  0.58603765D-05 -0.10004771D+02 -0.14355353D+02
 -0.19007813D+02 -0.21950716D+02 -0.20352453D+02 -0.13179976D+02 -0.46506757D+01
 -0.53586880D+00  0.87544500D-03  0.62232869D+01  0.89294878D+01  0.11823467D+02
  0.13654046D+02  0.12659876D+02  0.81983657D+01  0.28928688D+01  0.33332751D+00
 -0.54455475D-03  0.39812278D-03 -0.11351190D-02 -0.55406617D-02 -0.11481305D-01
 -0.14407904D-01 -0.22848345D-02  0.18494963D-01  0.16130289D-01  0.41465309D-02
  0.59626340D-01 -0.17000532D+00 -0.82981782D+00 -0.17195403D+01 -0.21578534D+01
 -0.34219673D+00  0.27699669D+01  0.24158128D+01  0.62102062D+00 -0.37169575D-01
  0.10597708D+00  0.51728776D+00  0.10719186D+01  0.13451520D+01  0.21331692D+00
 -0.17267284D+01 -0.15059575D+01 -0.38712879D+00  0.16232219D-05  0.22931887D-05
 -0.10670087D-05  0.21382956D-05  0.23473699D-05  0.63362871D-05  0.19967315D-05
 -0.42870249D-05  0.25814959D-03  0.36469796D-03 -0.16969205D-03  0.34006448D-03
  0.37331468D-03  0.10076933D-02  0.31755079D-03 -0.68178830D-03 -0.14266318D-03
 -0.20154583D-03  0.93778220D-04 -0.18793244D-03 -0.20630775D-03 -0.55688929D-03
 -0.17549053D-03  0.37678189D-03  0.14692550D-03  0.21993820D-01 -0.13829820D-01
 -0.52484683D-06 -0.12532443D-03  0.60012993D-04 -0.88354140D-07 -0.87743826D-05
  0.66719633D-05  0.10205415D+01  0.10678867D+01  0.90989660D+00  0.59923570D+00
  0.27616989D+00  0.82699521D-01  0.14070622D-01 -0.12432043D+01 -0.13008794D+01
 -0.11084189D+01 -0.72997762D+00 -0.33642495D+00 -0.10074300D+00 -0.17140567D-01
  0.22266289D+00  0.23299273D+00  0.19852227D+00  0.13074193D+00  0.60255061D-01
  0.18043475D-01  0.30699444D-02 -0.34433523D-01 -0.36030971D-01 -0.30700316D-01
 -0.20218479D-01 -0.93180950D-02 -0.27903186D-02 -0.47474906D-03  0.22570079D-01
  0.23617156D-01  0.20123081D-01  0.13252570D-01  0.61077150D-02  0.18289651D-02
  0.31118291D-03  0.37466913D+01  0.39205088D+01  0.33404833D+01  0.21999608D+01
  0.10138964D+01  0.30361293D+00  0.51657166D-01  0.11359891D-02 -0.13734012D-02
  0.23741206D-03 -0.35812264D-04  0.23103582D-04  0.38055512D-02 -0.11618694D-03
  0.11047027D-03  0.57166624D-05  0.26377640D-05 -0.19497313D-05 -0.30445541D-03
 -0.13578500D-04  0.15150905D-04 -0.15724052D-05  0.29085949D-06 -0.20844453D-06
 -0.28787652D-04 -0.15061528D-05  0.40084142D-04  0.91866269D-04  0.38180705D-05
 -0.20877416D-03  0.14513019D-03  0.70038808D-06  0.88521731D-04 -0.42072900D-03
 -0.72298410D-05  0.47691665D-06 -0.97209838D-05 -0.20856918D-04 -0.10279149D-05
  0.68852610D-04 -0.54577197D-04 -0.40283504D-06 -0.39689659D-04  0.11714795D-03
  0.21657901D-05 -0.35431923D-01 -0.66039278D-01 -0.11197888D+00 -0.16946812D+00
 -0.21139812D+00 -0.18141104D+00 -0.69470791D-01 -0.34372176D-05 -0.36879089D-04
 -0.13594327D-03 -0.39749014D-03 -0.47899494D-03  0.57700017D-03 -0.31477184D-02
  0.29524540D-03  0.68435143D-04 -0.67605444D-05 -0.65554540D-05 -0.44222705D-05
 -0.19608666D-05 -0.19013810D-05 -0.12826604D-05  0.27616726D-02  0.26778934D-02
  0.18064911D-02 -0.15929859D-05 -0.43575682D-06  0.61969309D-03 -0.16568833D-05
  0.55799931D-07  0.77191482D-04 -0.24167179D-06  0.20858286D-07  0.74408762D-05
  0.28558470D-03 -0.50259741D-04 -0.23532496D-03 -0.21051606D-05 -0.18422803D-08
 -0.24615511D-06  0.32283186D-04  0.15425315D-03 -0.18653634D-03  0.76428329D-06
  0.17301229D-05 -0.15128531D-06  0.24670008D-05  0.45657989D-04 -0.48124990D-04
  0.27010263D-06  0.78722896D-06 -0.47758763D-07 -0.75011056D-06 -0.40361152D-07
 -0.29156411D-03  0.11365882D-05  0.94820012D-07  0.43150226D-03  0.11137435D-05
  0.26263443D-07  0.44319008D-03  0.70175311D-07  0.39165034D-06  0.12184816D-08
  0.79501684D-04 -0.59052817D-07 -0.39314636D-07 -0.39823301D-04 -0.11158982D-05
  0.35659191D-07 -0.19868175D-03 -0.99440868D-06
MO    2     MO 0.0        OCC NO =    2.0000158  ORB. ENERGY =    0.000000
  0.83774990D-04  0.15617346D-03  0.26395442D-03  0.39677273D-03  0.48736423D-03
  0.41131822D-03  0.15466639D-03  0.19205848D-07  0.14355181D-06  0.53648591D-06
  0.14967121D-05  0.20051816D-05 -0.23677456D-05  0.64795798D-05 -0.13103125D-05
 -0.20790315D-06 -0.18341438D-04 -0.17196264D-04 -0.12244765D-04 -0.58458525D-02
 -0.54808583D-02 -0.39026976D-02  0.22748428D-05  0.21328097D-05  0.15186876D-05
 -0.61959085D-05 -0.19746048D-02  0.12758290D-05 -0.14206948D-05 -0.45260793D-03
  0.25337212D-06  0.50699929D-07  0.16152357D-04  0.33524375D-08 -0.89679504D-07
 -0.31905536D-06  0.40873486D-06 -0.54980585D-05  0.45651964D-05  0.14552556D-02
  0.22123104D-06 -0.20858878D-06 -0.12642262D-07 -0.24745723D-05  0.19698014D-05
  0.62720237D-03  0.19086316D-07 -0.11175407D-07 -0.79109091D-08 -0.51994919D-06
  0.41819870D-06  0.13322447D-03 -0.45897008D-06  0.55436252D-04  0.81637745D-07
  0.14390101D-05 -0.14626186D-03 -0.12166706D-06 -0.62099915D-07 -0.20046895D-04
 -0.12324617D-06 -0.12825606D-05  0.29971691D-07 -0.45930956D-04 -0.96335247D-08
 -0.49213150D-06  0.95162290D-05 -0.65058649D-08  0.40221642D-06  0.12827664D-03
  0.35406439D-07 -0.20278768D-05  0.31173860D-01  0.58642726D-01  0.10151355D+00
  0.16640021D+00  0.26066846D+00  0.39180591D+00  0.55998275D+00  0.74337588D+00
  0.86571492D+00  0.79505900D+00  0.46476419D+00  0.12195141D+00  0.69336152D-02
  0.12098413D-03  0.12178429D-04  0.14789069D-02  0.42722212D-02  0.19580593D-01
  0.57962821D-01  0.16809387D+00  0.34939863D+00  0.49981889D+00  0.14331404D+00
 -0.57270210D+00 -0.55374752D+00 -0.12086386D+00  0.17494678D-02  0.89992374D-03
  0.41983304D-02  0.85202000D-02  0.33392145D-01  0.23432059D-01 -0.15259844D+00
 -0.47285017D+00 -0.57840165D-01  0.41334281D+00  0.19398177D+00  0.98122490D-06
  0.13451815D-05 -0.25790382D-05 -0.54813043D-05  0.20720864D-04  0.67006010D-04
  0.23303671D-04 -0.22793528D-03 -0.50841384D-03  0.33736796D-03  0.80767873D-02
 -0.39983904D-03  0.28506493D-04  0.52843316D-02  0.75822270D-02  0.10039569D-01
  0.11593955D-01  0.10749783D-01  0.69614150D-02  0.24563994D-02  0.28303582D-03
 -0.46239357D-06 -0.11505706D+02 -0.16508971D+02 -0.21859403D+02 -0.25243806D+02
 -0.23405768D+02 -0.15157261D+02 -0.53483792D+01 -0.61626089D+00  0.10067810D-02
 -0.68566535D+01 -0.98382744D+01 -0.13026784D+02 -0.15043669D+02 -0.13948318D+02
 -0.90327434D+01 -0.31872866D+01 -0.36725147D+00  0.59997607D-03 -0.30774276D-04
  0.87742942D-04  0.42828458D-03  0.88748710D-03  0.11137087D-02  0.17661417D-03
 -0.14296320D-02 -0.12468464D-02 -0.32052043D-03  0.68921442D-01 -0.19650731D+00
 -0.95917746D+00 -0.19875981D+01 -0.24942394D+01 -0.39554151D+00  0.32017749D+01
  0.27924119D+01  0.71783103D+00  0.41010962D-01 -0.11692956D+00 -0.57074822D+00
 -0.11826988D+01 -0.14841703D+01 -0.23536272D+00  0.19051817D+01  0.16615946D+01
  0.42713763D+00 -0.42994026D-06 -0.60739332D-06  0.28261694D-06 -0.56636701D-06
 -0.62174421D-06 -0.16782825D-05 -0.52887115D-06  0.11354976D-05  0.78168481D-04
  0.11043165D-03 -0.51383271D-04  0.10297256D-03  0.11304082D-03  0.30513261D-03
  0.96155347D-04 -0.20644757D-03  0.10387332D-03  0.14674588D-03 -0.68280092D-04
  0.13683395D-03  0.15021305D-03  0.40547210D-03  0.12777497D-03 -0.27433558D-03
 -0.12057589D-04  0.25422898D-01  0.15197516D-01  0.72243177D-07  0.98760001D-04
  0.18103741D-04 -0.15595690D-07 -0.16783335D-05  0.14490818D-06 -0.11584105D+01
 -0.12121518D+01 -0.10328182D+01 -0.68018885D+00 -0.31347879D+00 -0.93871731D-01
 -0.15971479D-01  0.14138257D+01  0.14794163D+01  0.12605419D+01  0.83016212D+00
  0.38259700D+00  0.11456929D+00  0.19492994D-01 -0.25541525D+00 -0.26726454D+00
 -0.22772369D+00 -0.14997327D+00 -0.69118213D-01 -0.20697561D-01 -0.35215145D-02
 -0.64722548D-02 -0.67725172D-02 -0.57705472D-02 -0.38003416D-02 -0.17514643D-02
 -0.52447881D-03 -0.89235624D-04  0.11471184D-02  0.12003358D-02  0.10227503D-02
  0.67355842D-03  0.31042302D-03  0.92956677D-04  0.15815791D-04  0.42083066D+01
  0.44035394D+01  0.37520513D+01  0.24710094D+01  0.11388147D+01  0.34101990D+00
  0.58021644D-01 -0.11859476D-02  0.13733523D-02 -0.18740468D-03 -0.55960123D-05
  0.51847186D-06  0.40782838D-02  0.68611938D-04 -0.35268323D-04 -0.33343615D-04
  0.51566471D-06  0.48518560D-06 -0.17555720D-03 -0.38814668D-05  0.29696939D-05
  0.91177286D-06  0.12257507D-06 -0.14470884D-06 -0.18935775D-04  0.11494814D-07
  0.40010773D-04 -0.11321744D-03 -0.60023329D-06 -0.23446059D-03 -0.14309863D-03
  0.56574885D-06  0.11442827D-03  0.48275094D-03  0.99017780D-07 -0.28502952D-07
  0.30745340D-05  0.20642214D-04  0.33347016D-06  0.40908836D-04  0.31452658D-04
 -0.24796130D-06 -0.50132438D-04 -0.93379298D-04  0.15914856D-06 -0.31222582D-01
 -0.58734380D-01 -0.10167221D+00 -0.16666028D+00 -0.26107587D+00 -0.39241827D+00
 -0.56085796D+00 -0.74453772D+00 -0.86706796D+00 -0.79630161D+00 -0.46549058D+00
 -0.12214201D+00 -0.69444519D-02 -0.12117322D-03 -0.12197463D-04 -0.14812196D-02
 -0.42789022D-02 -0.19611214D-01 -0.58053465D-01 -0.16835674D+00 -0.34994503D+00
 -0.50060052D+00 -0.14353816D+00  0.57359770D+00  0.55461348D+00  0.12105287D+00
 -0.17522037D-02 -0.90134070D-03 -0.42049408D-02 -0.85336152D-02 -0.33444722D-01
 -0.23468954D-01  0.15283871D+00  0.47359469D+00  0.57931236D-01 -0.41399363D+00
 -0.19428720D+00 -0.98272448D-06 -0.13472373D-05  0.25829797D-05  0.54896813D-05
 -0.20752531D-04 -0.67108414D-04 -0.23339286D-04  0.22828363D-03  0.50919084D-03
 -0.33788355D-03 -0.80893743D-02  0.40049514D-03 -0.28300556D-04 -0.77543592D-01
 -0.11126348D+00 -0.14732313D+00 -0.17013257D+00 -0.15774498D+00 -0.10215353D+00
 -0.36045814D-01 -0.41533378D-02  0.67852779D-05 -0.11518509D+02 -0.16527341D+02
 -0.21883726D+02 -0.25271895D+02 -0.23431813D+02 -0.15174127D+02 -0.53543305D+01
 -0.61694662D+00  0.10079012D-02  0.68646560D+01  0.98497568D+01  0.13041988D+02
  0.15061226D+02  0.13964597D+02  0.90432857D+01  0.31910066D+01  0.36768009D+00
 -0.60067632D-03  0.46361742D-03 -0.13218559D-02 -0.64521485D-02 -0.13370079D-01