 br2co-wavefunction
GAUSSIAN            210 MOL ORBITALS    578 PRIMITIVES        4 NUCLEI
  C    1    (CENTRE  1)   0.00000000  0.00000000 -0.92928983  CHARGE =  6.0
  Br   2    (CENTRE  2)   0.00000000 -3.01256550 -2.92306618  CHARGE = 35.0
  Br   3    (CENTRE  3)   0.00000000  3.01256550 -2.92306618  CHARGE = 35.0
  O    4    (CENTRE  4)   0.00000000 -0.01889726  1.29351754  CHARGE =  8.0
CENTRE ASSIGNMENTS    1  1  1  1  1  1  1  1  1  1  1  1  1  1  1  1  1  1  1  1
CENTRE ASSIGNMENTS    1  1  1  1  1  1  1  1  1  1  1  1  1  1  1  1  1  1  1  1
CENTRE ASSIGNMENTS    1  1  1  1  1  1  1  1  1  1  1  1  1  1  1  1  1  1  1  1
CENTRE ASSIGNMENTS    1  1  1  1  1  1  1  1  1  1  1  1  2  2  2  2  2  2  2  2
CENTRE ASSIGNMENTS    2  2  2  2  2  2  2  2  2  2  2  2  2  2  2  2  2  2  2  2
CENTRE ASSIGNMENTS    2  2  2  2  2  2  2  2  2  2  2  2  2  2  2  2  2  2  2  2
CENTRE ASSIGNMENTS    2  2  2  2  2  2  2  2  2  2  2  2  2  2  2  2  2  2  2  2
CENTRE ASSIGNMENTS    2  2  2  2  2  2  2  2  2  2  2  2  2  2  2  2  2  2  2  2
CENTRE ASSIGNMENTS    2  2  2  2  2  2  2  2  2  2  2  2  2  2  2  2  2  2  2  2
CENTRE ASSIGNMENTS    2  2  2  2  2  2  2  2  2  2  2  2  2  2  2  2  2  2  2  2
CENTRE ASSIGNMENTS    2  2  2  2  2  2  2  2  2  2  2  2  2  2  2  2  2  2  2  2
CENTRE ASSIGNMENTS    2  2  2  2  2  2  2  2  2  2  2  2  2  2  2  2  2  2  2  2
CENTRE ASSIGNMENTS    2  2  2  2  2  2  2  2  2  2  2  2  2  2  2  2  2  2  2  2
CENTRE ASSIGNMENTS    2  2  2  2  2  2  2  2  2  2  2  2  2  2  2  2  2  2  2  2
CENTRE ASSIGNMENTS    2  2  2  2  2  2  2  2  2  3  3  3  3  3  3  3  3  3  3  3
CENTRE ASSIGNMENTS    3  3  3  3  3  3  3  3  3  3  3  3  3  3  3  3  3  3  3  3
CENTRE ASSIGNMENTS    3  3  3  3  3  3  3  3  3  3  3  3  3  3  3  3  3  3  3  3
CENTRE ASSIGNMENTS    3  3  3  3  3  3  3  3  3  3  3  3  3  3  3  3  3  3  3  3
CENTRE ASSIGNMENTS    3  3  3  3  3  3  3  3  3  3  3  3  3  3  3  3  3  3  3  3
CENTRE ASSIGNMENTS    3  3  3  3  3  3  3  3  3  3  3  3  3  3  3  3  3  3  3  3
CENTRE ASSIGNMENTS    3  3  3  3  3  3  3  3  3  3  3  3  3  3  3  3  3  3  3  3
CENTRE ASSIGNMENTS    3  3  3  3  3  3  3  3  3  3  3  3  3  3  3  3  3  3  3  3
CENTRE ASSIGNMENTS    3  3  3  3  3  3  3  3  3  3  3  3  3  3  3  3  3  3  3  3
CENTRE ASSIGNMENTS    3  3  3  3  3  3  3  3  3  3  3  3  3  3  3  3  3  3  3  3
CENTRE ASSIGNMENTS    3  3  3  3  3  3  3  3  3  3  3  3  3  3  3  3  3  3  3  3
CENTRE ASSIGNMENTS    3  3  3  3  3  3  4  4  4  4  4  4  4  4  4  4  4  4  4  4
CENTRE ASSIGNMENTS    4  4  4  4  4  4  4  4  4  4  4  4  4  4  4  4  4  4  4  4
CENTRE ASSIGNMENTS    4  4  4  4  4  4  4  4  4  4  4  4  4  4  4  4  4  4  4  4
CENTRE ASSIGNMENTS    4  4  4  4  4  4  4  4  4  4  4  4  4  4  4  4  4  4
TYPE ASSIGNMENTS      1  1  1  1  1  1  1  1  1  1  1  1  1  1  1  1  2  2  2  3
TYPE ASSIGNMENTS      3  3  4  4  4  2  3  4  2  3  4  2  3  4  5  6  7  8  9 10
TYPE ASSIGNMENTS      5  6  7  8  9 10  5  6  7  8  9 10 11 12 13 17 14 15 18 19
TYPE ASSIGNMENTS     16 20 11 12 13 17 14 15 18 19 16 20  1  1  1  1  1  1  1  1
TYPE ASSIGNMENTS      1  1  1  1  1  1  1  1  1  1  1  1  1  1  1  1  1  1  1  1
TYPE ASSIGNMENTS      1  1  1  1  1  1  1  1  1  1  1  1  1  1  1  1  1  1  1  1
TYPE ASSIGNMENTS      1  1  2  2  2  2  2  2  2  2  2  3  3  3  3  3  3  3  3  3
TYPE ASSIGNMENTS      4  4  4  4  4  4  4  4  4  2  2  2  2  2  2  2  2  2  3  3
TYPE ASSIGNMENTS      3  3  3  3  3  3  3  4  4  4  4  4  4  4  4  4  2  2  2  2
TYPE ASSIGNMENTS      2  2  2  2  3  3  3  3  3  3  3  3  4  4  4  4  4  4  4  4
TYPE ASSIGNMENTS      2  3  4  2  3  4  2  3  4  5  5  5  5  5  5  5  6  6  6  6
TYPE ASSIGNMENTS      6  6  6  7  7  7  7  7  7  7  8  8  8  8  8  8  8  9  9  9
TYPE ASSIGNMENTS      9  9  9  9 10 10 10 10 10 10 10  5  6  7  8  9 10  5  6  7
TYPE ASSIGNMENTS      8  9 10  5  6  7  8  9 10 11 12 13 17 14 15 18 19 16 20 11
TYPE ASSIGNMENTS     12 13 17 14 15 18 19 16 20  1  1  1  1  1  1  1  1  1  1  1
TYPE ASSIGNMENTS      1  1  1  1  1  1  1  1  1  1  1  1  1  1  1  1  1  1  1  1
TYPE ASSIGNMENTS      1  1  1  1  1  1  1  1  1  1  1  1  1  1  1  1  1  1  1  2
TYPE ASSIGNMENTS      2  2  2  2  2  2  2  2  3  3  3  3  3  3  3  3  3  4  4  4
TYPE ASSIGNMENTS      4  4  4  4  4  4  2  2  2  2  2  2  2  2  2  3  3  3  3  3
TYPE ASSIGNMENTS      3  3  3  3  4  4  4  4  4  4  4  4  4  2  2  2  2  2  2  2
TYPE ASSIGNMENTS      2  3  3  3  3  3  3  3  3  4  4  4  4  4  4  4  4  2  3  4
TYPE ASSIGNMENTS      2  3  4  2  3  4  5  5  5  5  5  5  5  6  6  6  6  6  6  6
TYPE ASSIGNMENTS      7  7  7  7  7  7  7  8  8  8  8  8  8  8  9  9  9  9  9  9
TYPE ASSIGNMENTS      9 10 10 10 10 10 10 10  5  6  7  8  9 10  5  6  7  8  9 10
TYPE ASSIGNMENTS      5  6  7  8  9 10 11 12 13 17 14 15 18 19 16 20 11 12 13 17
TYPE ASSIGNMENTS     14 15 18 19 16 20  1  1  1  1  1  1  1  1  1  1  1  1  1  1
TYPE ASSIGNMENTS      1  1  2  2  2  3  3  3  4  4  4  2  3  4  2  3  4  2  3  4
TYPE ASSIGNMENTS      5  6  7  8  9 10  5  6  7  8  9 10  5  6  7  8  9 10 11 12
TYPE ASSIGNMENTS     13 17 14 15 18 19 16 20 11 12 13 17 14 15 18 19 16 20
EXPONENTS  0.8236000D+04 0.1235000D+04 0.2808000D+03 0.7927000D+02 0.2559000D+02
EXPONENTS  0.8997000D+01 0.3319000D+01 0.2808000D+03 0.7927000D+02 0.2559000D+02
EXPONENTS  0.8997000D+01 0.3319000D+01 0.3643000D+00 0.9059000D+00 0.1285000D+00
EXPONENTS  0.4402000D-01 0.1871000D+02 0.4133000D+01 0.1200000D+01 0.1871000D+02
EXPONENTS  0.4133000D+01 0.1200000D+01 0.1871000D+02 0.4133000D+01 0.1200000D+01
EXPONENTS  0.3827000D+00 0.3827000D+00 0.3827000D+00 0.1209000D+00 0.1209000D+00
EXPONENTS  0.1209000D+00 0.3569000D-01 0.3569000D-01 0.3569000D-01 0.1097000D+01
EXPONENTS  0.1097000D+01 0.1097000D+01 0.1097000D+01 0.1097000D+01 0.1097000D+01
EXPONENTS  0.3180000D+00 0.3180000D+00 0.3180000D+00 0.3180000D+00 0.3180000D+00
EXPONENTS  0.3180000D+00 0.1000000D+00 0.1000000D+00 0.1000000D+00 0.1000000D+00
EXPONENTS  0.1000000D+00 0.1000000D+00 0.7610000D+00 0.7610000D+00 0.7610000D+00
EXPONENTS  0.7610000D+00 0.7610000D+00 0.7610000D+00 0.7610000D+00 0.7610000D+00
EXPONENTS  0.7610000D+00 0.7610000D+00 0.2680000D+00 0.2680000D+00 0.2680000D+00
EXPONENTS  0.2680000D+00 0.2680000D+00 0.2680000D+00 0.2680000D+00 0.2680000D+00
EXPONENTS  0.2680000D+00 0.2680000D+00 0.1063900D+08 0.1593400D+07 0.3626100D+06
EXPONENTS  0.1027000D+06 0.3350100D+05 0.1209300D+05 0.4715900D+04 0.1955600D+04
EXPONENTS  0.8526100D+03 0.3876700D+03 0.1826800D+03 0.8824500D+02 0.3926300D+02
EXPONENTS  0.9405700D+01 0.1899500D+01 0.3350100D+05 0.1209300D+05 0.4715900D+04
EXPONENTS  0.1955600D+04 0.8526100D+03 0.3876700D+03 0.1826800D+03 0.8824500D+02
EXPONENTS  0.3926300D+02 0.1923400D+02 0.9405700D+01 0.1899500D+01 0.4715900D+04
EXPONENTS  0.8526100D+03 0.3876700D+03 0.1826800D+03 0.8824500D+02 0.3926300D+02
EXPONENTS  0.1923400D+02 0.9405700D+01 0.4160100D+01 0.1899500D+01 0.4715900D+04
EXPONENTS  0.8526100D+03 0.3876700D+03 0.8824500D+02 0.3926300D+02 0.1923400D+02
EXPONENTS  0.9405700D+01 0.4160100D+01 0.1899500D+01 0.3011400D+00 0.6047200D+00
EXPONENTS  0.1251500D+00 0.4559300D-01 0.8676500D+04 0.2055900D+04 0.6662300D+03
EXPONENTS  0.2531000D+03 0.1061200D+03 0.4724200D+02 0.2182500D+02 0.9968400D+01
EXPONENTS  0.1998200D+01 0.8676500D+04 0.2055900D+04 0.6662300D+03 0.2531000D+03
EXPONENTS  0.1061200D+03 0.4724200D+02 0.2182500D+02 0.9968400D+01 0.1998200D+01
EXPONENTS  0.8676500D+04 0.2055900D+04 0.6662300D+03 0.2531000D+03 0.1061200D+03
EXPONENTS  0.4724200D+02 0.2182500D+02 0.9968400D+01 0.1998200D+01 0.8676500D+04
EXPONENTS  0.6662300D+03 0.2531000D+03 0.1061200D+03 0.4724200D+02 0.2182500D+02
EXPONENTS  0.9968400D+01 0.4517100D+01 0.1998200D+01 0.8676500D+04 0.6662300D+03
EXPONENTS  0.2531000D+03 0.1061200D+03 0.4724200D+02 0.2182500D+02 0.9968400D+01
EXPONENTS  0.4517100D+01 0.1998200D+01 0.8676500D+04 0.6662300D+03 0.2531000D+03
EXPONENTS  0.1061200D+03 0.4724200D+02 0.2182500D+02 0.9968400D+01 0.4517100D+01
EXPONENTS  0.1998200D+01 0.6662300D+03 0.1061200D+03 0.4724200D+02 0.2182500D+02
EXPONENTS  0.9968400D+01 0.4517100D+01 0.1998200D+01 0.2814500D+00 0.6662300D+03
EXPONENTS  0.1061200D+03 0.4724200D+02 0.2182500D+02 0.9968400D+01 0.4517100D+01
EXPONENTS  0.1998200D+01 0.2814500D+00 0.6662300D+03 0.1061200D+03 0.4724200D+02
EXPONENTS  0.2182500D+02 0.9968400D+01 0.4517100D+01 0.1998200D+01 0.2814500D+00
EXPONENTS  0.7098800D+00 0.7098800D+00 0.7098800D+00 0.1020400D+00 0.1020400D+00
EXPONENTS  0.1020400D+00 0.3514200D-01 0.3514200D-01 0.3514200D-01 0.4038300D+03
EXPONENTS  0.1211700D+03 0.4634500D+02 0.1972100D+02 0.8862400D+01 0.3996200D+01
EXPONENTS  0.1763600D+01 0.4038300D+03 0.1211700D+03 0.4634500D+02 0.1972100D+02
EXPONENTS  0.8862400D+01 0.3996200D+01 0.1763600D+01 0.4038300D+03 0.1211700D+03
EXPONENTS  0.4634500D+02 0.1972100D+02 0.8862400D+01 0.3996200D+01 0.1763600D+01
EXPONENTS  0.4038300D+03 0.1211700D+03 0.4634500D+02 0.1972100D+02 0.8862400D+01
EXPONENTS  0.3996200D+01 0.1763600D+01 0.4038300D+03 0.1211700D+03 0.4634500D+02
EXPONENTS  0.1972100D+02 0.8862400D+01 0.3996200D+01 0.1763600D+01 0.4038300D+03
EXPONENTS  0.1211700D+03 0.4634500D+02 0.1972100D+02 0.8862400D+01 0.3996200D+01
EXPONENTS  0.1763600D+01 0.7061900D+00 0.7061900D+00 0.7061900D+00 0.7061900D+00
EXPONENTS  0.7061900D+00 0.7061900D+00 0.2639000D+00 0.2639000D+00 0.2639000D+00
EXPONENTS  0.2639000D+00 0.2639000D+00 0.2639000D+00 0.1047000D+00 0.1047000D+00
EXPONENTS  0.1047000D+00 0.1047000D+00 0.1047000D+00 0.1047000D+00 0.5515000D+00
EXPONENTS  0.5515000D+00 0.5515000D+00 0.5515000D+00 0.5515000D+00 0.5515000D+00
EXPONENTS  0.5515000D+00 0.5515000D+00 0.5515000D+00 0.5515000D+00 0.2580000D+00
EXPONENTS  0.2580000D+00 0.2580000D+00 0.2580000D+00 0.2580000D+00 0.2580000D+00
EXPONENTS  0.2580000D+00 0.2580000D+00 0.2580000D+00 0.2580000D+00 0.1063900D+08
EXPONENTS  0.1593400D+07 0.3626100D+06 0.1027000D+06 0.3350100D+05 0.1209300D+05
EXPONENTS  0.4715900D+04 0.1955600D+04 0.8526100D+03 0.3876700D+03 0.1826800D+03
EXPONENTS  0.8824500D+02 0.3926300D+02 0.9405700D+01 0.1899500D+01 0.3350100D+05
EXPONENTS  0.1209300D+05 0.4715900D+04 0.1955600D+04 0.8526100D+03 0.3876700D+03
EXPONENTS  0.1826800D+03 0.8824500D+02 0.3926300D+02 0.1923400D+02 0.9405700D+01
EXPONENTS  0.1899500D+01 0.4715900D+04 0.8526100D+03 0.3876700D+03 0.1826800D+03
EXPONENTS  0.8824500D+02 0.3926300D+02 0.1923400D+02 0.9405700D+01 0.4160100D+01
EXPONENTS  0.1899500D+01 0.4715900D+04 0.8526100D+03 0.3876700D+03 0.8824500D+02
EXPONENTS  0.3926300D+02 0.1923400D+02 0.9405700D+01 0.4160100D+01 0.1899500D+01
EXPONENTS  0.3011400D+00 0.6047200D+00 0.1251500D+00 0.4559300D-01 0.8676500D+04
EXPONENTS  0.2055900D+04 0.6662300D+03 0.2531000D+03 0.1061200D+03 0.4724200D+02
EXPONENTS  0.2182500D+02 0.9968400D+01 0.1998200D+01 0.8676500D+04 0.2055900D+04
EXPONENTS  0.6662300D+03 0.2531000D+03 0.1061200D+03 0.4724200D+02 0.2182500D+02
EXPONENTS  0.9968400D+01 0.1998200D+01 0.8676500D+04 0.2055900D+04 0.6662300D+03
EXPONENTS  0.2531000D+03 0.1061200D+03 0.4724200D+02 0.2182500D+02 0.9968400D+01
EXPONENTS  0.1998200D+01 0.8676500D+04 0.6662300D+03 0.2531000D+03 0.1061200D+03
EXPONENTS  0.4724200D+02 0.2182500D+02 0.9968400D+01 0.4517100D+01 0.1998200D+01
EXPONENTS  0.8676500D+04 0.6662300D+03 0.2531000D+03 0.1061200D+03 0.4724200D+02
EXPONENTS  0.2182500D+02 0.9968400D+01 0.4517100D+01 0.1998200D+01 0.8676500D+04
EXPONENTS  0.6662300D+03 0.2531000D+03 0.1061200D+03 0.4724200D+02 0.2182500D+02
EXPONENTS  0.9968400D+01 0.4517100D+01 0.1998200D+01 0.6662300D+03 0.1061200D+03
EXPONENTS  0.4724200D+02 0.2182500D+02 0.9968400D+01 0.4517100D+01 0.1998200D+01
EXPONENTS  0.2814500D+00 0.6662300D+03 0.1061200D+03 0.4724200D+02 0.2182500D+02
EXPONENTS  0.9968400D+01 0.4517100D+01 0.1998200D+01 0.2814500D+00 0.6662300D+03
EXPONENTS  0.1061200D+03 0.4724200D+02 0.2182500D+02 0.9968400D+01 0.4517100D+01
EXPONENTS  0.1998200D+01 0.2814500D+00 0.7098800D+00 0.7098800D+00 0.7098800D+00
EXPONENTS  0.1020400D+00 0.1020400D+00 0.1020400D+00 0.3514200D-01 0.3514200D-01
EXPONENTS  0.3514200D-01 0.4038300D+03 0.1211700D+03 0.4634500D+02 0.1972100D+02
EXPONENTS  0.8862400D+01 0.3996200D+01 0.1763600D+01 0.4038300D+03 0.1211700D+03
EXPONENTS  0.4634500D+02 0.1972100D+02 0.8862400D+01 0.3996200D+01 0.1763600D+01
EXPONENTS  0.4038300D+03 0.1211700D+03 0.4634500D+02 0.1972100D+02 0.8862400D+01
EXPONENTS  0.3996200D+01 0.1763600D+01 0.4038300D+03 0.1211700D+03 0.4634500D+02
EXPONENTS  0.1972100D+02 0.8862400D+01 0.3996200D+01 0.1763600D+01 0.4038300D+03
EXPONENTS  0.1211700D+03 0.4634500D+02 0.1972100D+02 0.8862400D+01 0.3996200D+01
EXPONENTS  0.1763600D+01 0.4038300D+03 0.1211700D+03 0.4634500D+02 0.1972100D+02
EXPONENTS  0.8862400D+01 0.3996200D+01 0.1763600D+01 0.7061900D+00 0.7061900D+00
EXPONENTS  0.7061900D+00 0.7061900D+00 0.7061900D+00 0.7061900D+00 0.2639000D+00
EXPONENTS  0.2639000D+00 0.2639000D+00 0.2639000D+00 0.2639000D+00 0.2639000D+00
EXPONENTS  0.1047000D+00 0.1047000D+00 0.1047000D+00 0.1047000D+00 0.1047000D+00
EXPONENTS  0.1047000D+00 0.5515000D+00 0.5515000D+00 0.5515000D+00 0.5515000D+00
EXPONENTS  0.5515000D+00 0.5515000D+00 0.5515000D+00 0.5515000D+00 0.5515000D+00
EXPONENTS  0.5515000D+00 0.2580000D+00 0.2580000D+00 0.2580000D+00 0.2580000D+00
EXPONENTS  0.2580000D+00 0.2580000D+00 0.2580000D+00 0.2580000D+00 0.2580000D+00
EXPONENTS  0.2580000D+00 0.1533000D+05 0.2299000D+04 0.5224000D+03 0.1473000D+03
EXPONENTS  0.4755000D+02 0.1676000D+02 0.6207000D+01 0.5224000D+03 0.1473000D+03
EXPONENTS  0.4755000D+02 0.1676000D+02 0.6207000D+01 0.6882000D+00 0.1752000D+01
EXPONENTS  0.2384000D+00 0.7376000D-01 0.3446000D+02 0.7749000D+01 0.2280000D+01
EXPONENTS  0.3446000D+02 0.7749000D+01 0.2280000D+01 0.3446000D+02 0.7749000D+01
EXPONENTS  0.2280000D+01 0.7156000D+00 0.7156000D+00 0.7156000D+00 0.2140000D+00
EXPONENTS  0.2140000D+00 0.2140000D+00 0.5974000D-01 0.5974000D-01 0.5974000D-01
EXPONENTS  0.2314000D+01 0.2314000D+01 0.2314000D+01 0.2314000D+01 0.2314000D+01
EXPONENTS  0.2314000D+01 0.6450000D+00 0.6450000D+00 0.6450000D+00 0.6450000D+00
EXPONENTS  0.6450000D+00 0.6450000D+00 0.2140000D+00 0.2140000D+00 0.2140000D+00
EXPONENTS  0.2140000D+00 0.2140000D+00 0.2140000D+00 0.1428000D+01 0.1428000D+01
EXPONENTS  0.1428000D+01 0.1428000D+01 0.1428000D+01 0.1428000D+01 0.1428000D+01
EXPONENTS  0.1428000D+01 0.1428000D+01 0.1428000D+01 0.5000000D+00 0.5000000D+00
EXPONENTS  0.5000000D+00 0.5000000D+00 0.5000000D+00 0.5000000D+00 0.5000000D+00
EXPONENTS  0.5000000D+00 0.5000000D+00 0.5000000D+00
MO    1     MO 0.0        OCC NO =    2.0000166  ORB. ENERGY =    0.000000
  0.12313139D+00  0.22954172D+00  0.38795679D+00  0.58317141D+00  0.71632162D+00
  0.60455018D+00  0.22732666D+00  0.29316214D-04  0.21912054D-03  0.81890348D-03
  0.22846132D-02  0.30607518D-02 -0.36141772D-02  0.94431387D-02 -0.19933897D-02
 -0.30920364D-03  0.41034384D-14  0.38472344D-14  0.27394601D-14 -0.11296137D-03
 -0.10590847D-03 -0.75413138D-04  0.36713914D-02  0.34421628D-02  0.24510250D-02
 -0.66698398D-14 -0.44889100D-04  0.19859970D-02 -0.42198587D-15 -0.90287263D-05
  0.38472733D-03  0.19281668D-15  0.49143905D-06  0.48938936D-05 -0.97155659D-04
 -0.49927595D-03  0.59643161D-03 -0.12443451D-13 -0.30159656D-14  0.88712471D-05
  0.33691385D-03 -0.32303712D-03 -0.13876730D-04 -0.12558448D-13 -0.10841378D-13
  0.15089856D-04  0.30926141D-04 -0.18835776D-04 -0.12090365D-04  0.13397728D-14
 -0.30416372D-15  0.31428022D-05  0.11685467D-14  0.23650162D-05  0.12398579D-03
  0.17776612D-14 -0.59551460D-06 -0.16598599D-03 -0.52833014D-14 -0.64995341D-05
 -0.20597138D-03  0.80589323D-16 -0.26078657D-16 -0.13291060D-05 -0.14088847D-04
  0.14776718D-14 -0.18819274D-06  0.25114864D-05 -0.13994359D-14  0.41755107D-05
  0.39755055D-04  0.42018719D-14 -0.34401171D-01 -0.64713785D-01 -0.11202287D+00
 -0.18362699D+00 -0.28765448D+00 -0.43236808D+00 -0.61795564D+00 -0.82033476D+00
 -0.95533909D+00 -0.87736844D+00 -0.51287946D+00 -0.13457658D+00 -0.76514260D-02
 -0.13350916D-03 -0.13439215D-04 -0.16323120D-02 -0.47153730D-02 -0.21611662D-01
 -0.63975228D-01 -0.18553002D+00 -0.38564128D+00 -0.55166444D+00 -0.15817981D+00
  0.63210773D+00  0.61118702D+00  0.13340091D+00 -0.19309378D-02 -0.99854636D-03
 -0.46584253D-02 -0.94539285D-02 -0.37051590D-01 -0.25999978D-01  0.16932170D+00
  0.52466981D+00  0.64178867D-01 -0.45864104D+00 -0.21524022D+00 -0.10944693D-05
 -0.15004306D-05  0.28766883D-05  0.61139086D-05 -0.23112285D-04 -0.74739259D-04
 -0.25993178D-04  0.25424159D-03  0.56709053D-03 -0.37630402D-03 -0.89304492D-02
  0.52582159D-03  0.15494917D-03 -0.57191116D-09 -0.82060715D-09 -0.10865597D-08
 -0.12547873D-08 -0.11634245D-08 -0.75341808D-09 -0.26585050D-09 -0.30632321D-10
  0.50043802D-13  0.98087008D+01  0.14074022D+02  0.18635305D+02  0.21520534D+02
  0.19953593D+02  0.12921679D+02  0.45595335D+01  0.52536704D+00 -0.85828834D-03
  0.60852194D+01  0.87313816D+01  0.11561156D+02  0.13351123D+02  0.12379009D+02
  0.80164799D+01  0.28286887D+01  0.32593243D+00 -0.53247346D-03  0.45451876D-11
 -0.12959140D-10 -0.63255227D-10 -0.13107686D-09 -0.16448852D-09 -0.26084921D-10
  0.21114862D-09  0.18415221D-09  0.47339066D-10 -0.58453806D-01  0.16666221D+00
  0.81349970D+00  0.16857261D+01  0.21154198D+01  0.33546754D+00 -0.27154964D+01
 -0.23683065D+01 -0.60880844D+00 -0.36343288D-01  0.10362119D+00  0.50578834D+00
  0.10480896D+01  0.13152490D+01  0.20857484D+00 -0.16883429D+01 -0.14724798D+01
 -0.37852284D+00 -0.52468469D-14 -0.74124247D-14  0.34489625D-14 -0.69117533D-14
 -0.75875581D-14 -0.20481198D-13 -0.64541665D-14  0.13857233D-13 -0.25601904D-03
 -0.36168805D-03  0.16829156D-03 -0.33725788D-03 -0.37023366D-03 -0.99937669D-03
 -0.31493000D-03  0.67616140D-03 -0.14040420D-03 -0.19835447D-03  0.92293299D-04
 -0.18495664D-03 -0.20304100D-03 -0.54807129D-03 -0.17271174D-03  0.37081578D-03
  0.15750501D-11 -0.21559320D-01 -0.13520943D-01  0.16906613D-13  0.12605254D-03
  0.60473393D-04 -0.41656550D-15  0.87355930D-05  0.66862829D-05  0.99786026D+00
  0.10441532D+01  0.88967445D+00  0.58591789D+00  0.27003211D+00  0.80861552D-01
  0.13757908D-01 -0.12247701D+01 -0.12815899D+01 -0.10919832D+01 -0.71915350D+00
 -0.33143644D+00 -0.99249177D-01 -0.16886406D-01  0.22690982D+00  0.23743667D+00
  0.20230876D+00  0.13323561D+00  0.61404326D-01  0.18387625D-01  0.31284985D-02
  0.25001849D-09  0.26161741D-09  0.22291204D-09  0.14680443D-09  0.67657791D-10
  0.20260235D-10  0.34471072D-11 -0.28070398D-10 -0.29372647D-10 -0.25027068D-10
 -0.16482216D-10 -0.75961627D-11 -0.22746832D-11 -0.38701807D-12 -0.36661252D+01
 -0.38362050D+01 -0.32686520D+01 -0.21526545D+01 -0.99209435D+00 -0.29708426D+00
 -0.50546368D-01  0.11133913D-02 -0.13543874D-02  0.24099610D-03  0.20573368D-12
 -0.13347293D-13 -0.37283029D-02 -0.11475724D-03  0.10977841D-03  0.49788351D-05
 -0.30780458D-14 -0.29653595D-14  0.29999265D-03 -0.13612213D-04  0.15144096D-04
 -0.15318831D-05  0.74773148D-15  0.49999294D-15  0.28407279D-04 -0.30645657D-14
 -0.39841425D-04  0.90196712D-04  0.87526699D-14  0.20499065D-03  0.14221238D-03
  0.44102724D-15 -0.85466378D-04 -0.41280251D-03  0.16753078D-13  0.49086648D-15
  0.98789029D-05 -0.20483968D-04 -0.13665173D-14 -0.68072850D-04 -0.53815935D-04
 -0.10608217D-15  0.38436141D-04  0.11526784D-03 -0.32240601D-14 -0.35363163D-01
 -0.66523436D-01 -0.11515546D+00 -0.18876192D+00 -0.29569842D+00 -0.44445879D+00
 -0.63523610D+00 -0.84327454D+00 -0.98205412D+00 -0.90190309D+00 -0.52722158D+00
 -0.13833987D+00 -0.78653899D-02 -0.13724260D-03 -0.13815029D-04 -0.16779000D-02
 -0.48470663D-02 -0.22215244D-01 -0.65761960D-01 -0.19071160D+00 -0.39641167D+00
 -0.56707160D+00 -0.16259754D+00  0.64976155D+00  0.62825655D+00  0.13712660D+00
 -0.19848660D-02 -0.10261099D-02 -0.47870149D-02 -0.97148915D-02 -0.38074349D-01
 -0.26717672D-01  0.17399560D+00  0.53915262D+00  0.65950439D-01 -0.47130121D+00
 -0.22118164D+00 -0.11235916D-05 -0.15403549D-05  0.29532330D-05  0.62765912D-05
 -0.23727271D-04 -0.76727967D-04 -0.26684820D-04  0.26100660D-03  0.58218002D-03
 -0.38631695D-03 -0.91845986D-02  0.54959806D-03  0.15324483D-03  0.22272750D-08
  0.31958072D-08  0.42315440D-08  0.48866968D-08  0.45308895D-08  0.29341432D-08
  0.10353394D-08  0.11929581D-09 -0.19489270D-12 -0.10213403D+02 -0.14654709D+02
 -0.19404189D+02 -0.22408461D+02 -0.20776869D+02 -0.13454822D+02 -0.47476577D+01
 -0.54704344D+00  0.89370092D-03  0.63698486D+01  0.91397819D+01  0.12101916D+02
  0.13975606D+02  0.12958023D+02  0.83914416D+01  0.29609974D+01  0.34117755D+00
 -0.55737930D-03 -0.38233698D-11  0.10901109D-10  0.53209713D-10  0.11026064D-09
  0.13836622D-09  0.21942394D-10 -0.17761627D-09 -0.15490714D-09 -0.39821185D-10
  0.60874122D-01 -0.17356297D+00 -0.84718316D+00 -0.17555246D+01 -0.22030101D+01
 -0.34935778D+00  0.28279332D+01  0.24663678D+01  0.63401653D+00 -0.38046533D-01
  0.10847744D+00  0.52949235D+00  0.10972088D+01  0.13768888D+01  0.21834980D+00
 -0.17674678D+01 -0.15414882D+01 -0.39626249D+00  0.26565127D-14  0.37529588D-14
 -0.17462321D-14  0.34994657D-14  0.38416300D-14  0.10369764D-13  0.32677865D-14
 -0.70160070D-14  0.26032737D-03  0.36777460D-03 -0.17112360D-03  0.34293331D-03
  0.37646401D-03  0.10161944D-02  0.32022969D-03 -0.68753996D-03 -0.14505406D-03
 -0.20492351D-03  0.95349840D-04 -0.19108198D-03 -0.20976524D-03 -0.56622214D-03
 -0.17843156D-03  0.38309634D-03 -0.13454277D-11  0.22456258D-01 -0.14157465D-01
 -0.15255668D-13 -0.12443085D-03  0.59522574D-04  0.28498492D-15 -0.88112368D-05
  0.66535728D-05  0.10449481D+01  0.10934256D+01  0.93165712D+00  0.61356665D+00
  0.28277460D+00  0.84677312D-01  0.14407127D-01 -0.12634362D+01 -0.13220499D+01
 -0.11264573D+01 -0.74185726D+00 -0.34189992D+00 -0.10238249D+00 -0.17419512D-01
  0.21848813D+00  0.22862429D+00  0.19480013D+00  0.12829061D+00  0.59125323D-01
  0.17705174D-01  0.30123852D-02  0.11441844D-09  0.11972657D-09  0.10201345D-09
  0.67183566D-10  0.30962905D-10  0.92718921D-11  0.15775338D-11  0.24873514D-09
  0.26027452D-09  0.22176783D-09  0.14605088D-09  0.67310502D-10  0.20156239D-10
  0.34294131D-11  0.38327973D+01  0.40106094D+01  0.34172538D+01  0.22505200D+01
  0.10371977D+01  0.31059052D+00  0.52844344D-01  0.11602787D-02 -0.13941050D-02
  0.23382628D-03  0.98502102D-13  0.19237225D-12  0.38880183D-02 -0.11769397D-03
  0.11118939D-03  0.65045812D-05 -0.21954666D-14  0.11948504D-14 -0.30909010D-03
 -0.13536578D-04  0.15149440D-04 -0.16128614D-05  0.96788531D-15 -0.65041311D-15
 -0.29187951D-04  0.18229414D-14  0.40377125D-04  0.93668897D-04 -0.72388122D-14
 -0.21291707D-03  0.14827090D-03  0.17699879D-14  0.91785700D-04 -0.42927759D-03
  0.99434008D-14 -0.71646719D-16 -0.95593954D-05 -0.21252280D-04  0.85086203D-15
  0.69690469D-04 -0.55379289D-04 -0.63592187D-15 -0.41012282D-04  0.11913613D-03
 -0.37698419D-15 -0.35419046D-01 -0.66015278D-01 -0.11193818D+00 -0.16940653D+00
 -0.21132130D+00 -0.18134511D+00 -0.69445544D-01 -0.34364477D-05 -0.36870829D-04
 -0.13591282D-03 -0.39740110D-03 -0.47888765D-03  0.57687093D-03 -0.31465123D-02
  0.29522564D-03  0.68413498D-04 -0.39041843D-13 -0.37857455D-13 -0.25538415D-13
  0.44639219D-04  0.43285027D-04  0.29199823D-04  0.27608172D-02  0.26770640D-02
  0.18059316D-02 -0.47780383D-14  0.38162763D-06  0.61949676D-03  0.53645417D-14
 -0.33124931D-05  0.77150116D-04 -0.17232719D-15 -0.76767875D-06  0.74417089D-05
  0.28546071D-03 -0.50171549D-04 -0.23528916D-03 -0.35344095D-14  0.16556644D-13
  0.43420422D-05  0.32336759D-04  0.15409004D-03 -0.18642680D-03  0.21718063D-14
 -0.10662249D-13  0.14735645D-04  0.24692833D-05  0.45624847D-04 -0.48094131D-04
 -0.15219310D-14 -0.27491907D-14  0.14613277D-05  0.84583219D-16 -0.20421235D-05
 -0.29137493D-03  0.83305189D-14  0.12112342D-05  0.43113035D-03 -0.85842685D-14
  0.49151362D-05  0.44299445D-03  0.96084673D-14 -0.95192888D-15  0.15719348D-05
  0.79456685D-04 -0.20523272D-14 -0.10684814D-05 -0.39800157D-04  0.49081139D-14
 -0.36473230D-05 -0.19856990D-03 -0.17346961D-14
MO    2     MO 0.0        OCC NO =    2.0000158  ORB. ENERGY =    0.000000
 -0.20779024D-02 -0.38736287D-02 -0.65469603D-02 -0.98413025D-02 -0.12088277D-01
 -0.10202080D-01 -0.38362484D-02 -0.47903686D-06 -0.35805038D-05 -0.13381160D-04
 -0.37331353D-04 -0.50013721D-04  0.59056879D-04 -0.16094916D-03  0.37797012D-04
  0.76395185D-05 -0.24931988D-13 -0.23375323D-13 -0.16644623D-13 -0.58449935D-02
 -0.54800529D-02 -0.39021241D-02 -0.85536083D-04 -0.80195515D-04 -0.57103984D-04
  0.14839693D-15 -0.19741550D-02 -0.38088318D-04 -0.35389593D-14 -0.45243714D-03
 -0.74382766D-05  0.60542961D-15  0.16143328D-04 -0.16395146D-06  0.19195208D-05
  0.72171044D-05 -0.91366252D-05 -0.15410203D-14  0.11844134D-13  0.14553666D-02
 -0.57162349D-05  0.23072675D-05  0.34089673D-05 -0.20948947D-14  0.13413524D-13
  0.62705514D-03 -0.41083201D-06 -0.57990484D-06  0.99073685D-06  0.80542372D-15
  0.14604665D-14  0.13316395D-03 -0.34981818D-14  0.55385144D-04 -0.14457275D-05
 -0.22105880D-14 -0.14629071D-03  0.27039747D-05  0.12705133D-13 -0.19864721D-04
  0.16332078D-05  0.78707577D-14  0.83367461D-15 -0.45897380D-04  0.65618663D-06
 -0.27142702D-14  0.94981938D-05  0.77925822D-06  0.21324639D-15  0.12819395D-03
 -0.27478181D-05 -0.12175863D-14  0.31896332D-01  0.60001805D-01  0.10386619D+00
  0.17025663D+00  0.26670960D+00  0.40088623D+00  0.57296067D+00  0.76060404D+00
  0.88577835D+00  0.81348494D+00  0.47553536D+00  0.12477771D+00  0.70943056D-02
  0.12378800D-03  0.12460671D-04  0.15132155D-02  0.43713308D-02  0.20034836D-01
  0.59307478D-01  0.17199341D+00  0.35750419D+00  0.51141399D+00  0.14663873D+00
 -0.58598799D+00 -0.56659369D+00 -0.12366773D+00  0.17900530D-02  0.92099890D-03
  0.42966504D-02  0.87197331D-02  0.34174150D-01  0.23980811D-01 -0.15617212D+00
 -0.48392377D+00 -0.59194714D-01  0.42302282D+00  0.19852459D+00  0.10029580D-05
  0.13749758D-05 -0.26361612D-05 -0.56027093D-05  0.21179809D-04  0.68490122D-04
  0.23819823D-04 -0.23298381D-03 -0.51967467D-03  0.34484030D-03  0.82621190D-02
 -0.40658333D-03  0.24417701D-04  0.24381268D-08  0.34983481D-08  0.46321361D-08
  0.53493109D-08  0.49598200D-08  0.32119129D-08  0.11333530D-08  0.13058931D-09
 -0.21334281D-12 -0.11688155D+02 -0.16770758D+02 -0.22206034D+02 -0.25644104D+02
 -0.23776920D+02 -0.15397615D+02 -0.54331900D+01 -0.62603312D+00  0.10227458D-02
 -0.69566065D+01 -0.99816920D+01 -0.13216683D+02 -0.15262968D+02 -0.14151650D+02
 -0.91644184D+01 -0.32337494D+01 -0.37260508D+00  0.60872223D-03 -0.99255102D-12
  0.28299398D-11  0.13813300D-10  0.28623784D-10  0.35920024D-10  0.56962697D-11
 -0.46109379D-10 -0.40214064D-10 -0.10337623D-10  0.70009257D-01 -0.19960886D+00
 -0.97431653D+00 -0.20189691D+01 -0.25336070D+01 -0.40178450D+00  0.32523097D+01
  0.28364856D+01  0.72916084D+00  0.41611237D-01 -0.11864105D+00 -0.57910222D+00
 -0.12000099D+01 -0.15058940D+01 -0.23880770D+00  0.19330677D+01  0.16859153D+01
  0.43338961D+00 -0.21692755D-14 -0.30646198D-14  0.14259516D-14 -0.28576204D-14
 -0.31370276D-14 -0.84678207D-14 -0.26684340D-14  0.57291846D-14  0.82873885D-04
  0.11707916D-03 -0.54476321D-04  0.10917106D-03  0.11984539D-03  0.32350027D-03
  0.10194348D-03 -0.21887483D-03  0.10568668D-03  0.14930768D-03 -0.69472082D-04
  0.13922271D-03  0.15283537D-03  0.41255057D-03  0.13000559D-03 -0.27912475D-03
 -0.36947012D-12  0.25823220D-01  0.15419587D-01 -0.22911320D-15  0.95617115D-04
  0.17764042D-04 -0.11863744D-15 -0.19092991D-05 -0.35139678D-07 -0.11738286D+01
 -0.12282851D+01 -0.10465647D+01 -0.68924196D+00 -0.31765110D+00 -0.95121136D-01
 -0.16184055D-01  0.14434767D+01  0.15104428D+01  0.12869781D+01  0.84757237D+00
  0.39062087D+00  0.11697205D+00  0.19901803D-01 -0.26964807D+00 -0.28215765D+00
 -0.24041342D+00 -0.15833041D+00 -0.72969773D-01 -0.21850917D-01 -0.37177482D-02
  0.73758046D-10  0.77179848D-10  0.65761362D-10  0.43308828D-10  0.19959749D-10
  0.59769793D-11  0.10169324D-11 -0.11863552D-09 -0.12413929D-09 -0.10577332D-09
 -0.69659728D-10 -0.32104095D-10 -0.96136232D-11 -0.16356765D-11  0.42671415D+01
  0.44651038D+01  0.38045074D+01  0.25055558D+01  0.11547361D+01  0.34578758D+00
  0.58832825D-01 -0.12042262D-02  0.14045116D-02 -0.20028544D-03  0.54834285D-13
 -0.97648237D-13  0.41401213D-02  0.70688823D-04 -0.37480514D-04 -0.33208309D-04
  0.27320191D-14  0.23153188D-14 -0.18088179D-03 -0.35817154D-05  0.25487314D-05
  0.10329841D-05  0.76169674D-15  0.37501374D-15 -0.19438588D-04  0.87028418D-15
  0.40951279D-04 -0.11477128D-03 -0.24253573D-14 -0.23819832D-03 -0.14589596D-03
 -0.18549525D-15  0.11534449D-03  0.49020980D-03 -0.42589909D-14 -0.46807673D-15
  0.28329252D-05  0.21020303D-04  0.11041939D-14  0.42164302D-04  0.32520917D-04
  0.30003625D-15 -0.50663078D-04 -0.95581828D-04  0.20762224D-14 -0.30492319D-01
 -0.57360645D-01 -0.99294205D-01 -0.16276227D+00 -0.25496957D+00 -0.38324002D+00
 -0.54774008D+00 -0.72712376D+00 -0.84678815D+00 -0.77767695D+00 -0.45460324D+00
 -0.11928524D+00 -0.67820284D-02 -0.11833910D-03 -0.11912177D-04 -0.14465418D-02
 -0.41787260D-02 -0.19152083D-01 -0.56694337D-01 -0.16441523D+00 -0.34175223D+00
 -0.48888063D+00 -0.14017769D+00  0.56016883D+00  0.54162906D+00  0.11821882D+00
 -0.17111817D-02 -0.88004306D-03 -0.41055829D-02 -0.83319758D-02 -0.32654462D-01
 -0.22914409D-01  0.14922731D+00  0.46240419D+00  0.56562388D-01 -0.40421144D+00
 -0.18969642D+00 -0.96076486D-06 -0.13171324D-05  0.25252614D-05  0.53670107D-05
 -0.20288802D-04 -0.65608833D-04 -0.22817754D-04  0.22318249D-03  0.49781264D-03
 -0.33033332D-03 -0.79019605D-02  0.39330049D-03 -0.32371363D-04 -0.47384181D-09
 -0.67989227D-09 -0.90024019D-09 -0.10396207D-08 -0.96392447D-09 -0.62422455D-09
 -0.22026338D-09 -0.25379597D-10  0.41462464D-13 -0.11332395D+02 -0.16260295D+02
 -0.21530133D+02 -0.24863556D+02 -0.23053205D+02 -0.14928946D+02 -0.52678161D+01
 -0.60697810D+00  0.99161575D-03  0.67625084D+01  0.97031902D+01  0.12847920D+02
  0.14837112D+02  0.13756801D+02  0.89087195D+01  0.31435237D+01  0.36220893D+00
 -0.59173812D-03 -0.25857198D-11  0.73723479D-11  0.35985378D-10  0.74568546D-10