 Entering Gaussian System, Link 0=/home/bruns/programas/chemistry/gaussian/g09/g09
 Input=GAUSSIAN.com
 Output=GAUSSIAN.log
 Initial command:
 /home/bruns/programas/chemistry/gaussian/g09/l1.exe /home/bruns/programas/chemistry/gaussian/work/Gau-68064.inp -scrdir=/home/bruns/programas/chemistry/gaussian/work/
 Entering Link 1 = /home/bruns/programas/chemistry/gaussian/g09/l1.exe PID=     68066.
  
 Copyright (c) 1988,1990,1992,1993,1995,1998,2003,2009,2010,
            Gaussian, Inc.  All Rights Reserved.
  
 This is part of the Gaussian(R) 09 program.  It is based on
 the Gaussian(R) 03 system (copyright 2003, Gaussian, Inc.),
 the Gaussian(R) 98 system (copyright 1998, Gaussian, Inc.),
 the Gaussian(R) 94 system (copyright 1995, Gaussian, Inc.),
 the Gaussian 92(TM) system (copyright 1992, Gaussian, Inc.),
 the Gaussian 90(TM) system (copyright 1990, Gaussian, Inc.),
 the Gaussian 88(TM) system (copyright 1988, Gaussian, Inc.),
 the Gaussian 86(TM) system (copyright 1986, Carnegie Mellon
 University), and the Gaussian 82(TM) system (copyright 1983,
 Carnegie Mellon University). Gaussian is a federally registered
 trademark of Gaussian, Inc.
  
 This software contains proprietary and confidential information,
 including trade secrets, belonging to Gaussian, Inc.
  
 This software is provided under written license and may be
 used, copied, transmitted, or stored only in accord with that
 written license.
  
 The following legend is applicable only to US Government
 contracts under FAR:
  
                    RESTRICTED RIGHTS LEGEND
  
 Use, reproduction and disclosure by the US Government is
 subject to restrictions as set forth in subparagraphs (a)
 and (c) of the Commercial Computer Software - Restricted
 Rights clause in FAR 52.227-19.
  
 Gaussian, Inc.
 340 Quinnipiac St., Bldg. 40, Wallingford CT 06492
  
  
 ---------------------------------------------------------------
 Warning -- This program may not be used in any manner that
 competes with the business of Gaussian, Inc. or will provide
 assistance to any competitor of Gaussian, Inc.  The licensee
 of this program is prohibited from giving any competitor of
 Gaussian, Inc. access to this program.  By using this program,
 the user acknowledges that Gaussian, Inc. is engaged in the
 business of creating and licensing software in the field of
 computational chemistry and represents and warrants to the
 licensee that it is not a competitor of Gaussian, Inc. and that
 it will not use this program in any manner prohibited above.
 ---------------------------------------------------------------
  

 Cite this work as:
 Gaussian 09, Revision B.01,
 M. J. Frisch, G. W. Trucks, H. B. Schlegel, G. E. Scuseria, 
 M. A. Robb, J. R. Cheeseman, G. Scalmani, V. Barone, B. Mennucci, 
 G. A. Petersson, H. Nakatsuji, M. Caricato, X. Li, H. P. Hratchian, 
 A. F. Izmaylov, J. Bloino, G. Zheng, J. L. Sonnenberg, M. Hada, 
 M. Ehara, K. Toyota, R. Fukuda, J. Hasegawa, M. Ishida, T. Nakajima, 
 Y. Honda, O. Kitao, H. Nakai, T. Vreven, J. A. Montgomery, Jr., 
 J. E. Peralta, F. Ogliaro, M. Bearpark, J. J. Heyd, E. Brothers, 
 K. N. Kudin, V. N. Staroverov, T. Keith, R. Kobayashi, J. Normand, 
 K. Raghavachari, A. Rendell, J. C. Burant, S. S. Iyengar, J. Tomasi, 
 M. Cossi, N. Rega, J. M. Millam, M. Klene, J. E. Knox, J. B. Cross, 
 V. Bakken, C. Adamo, J. Jaramillo, R. Gomperts, R. E. Stratmann, 
 O. Yazyev, A. J. Austin, R. Cammi, C. Pomelli, J. W. Ochterski, 
 R. L. Martin, K. Morokuma, V. G. Zakrzewski, G. A. Voth, 
 P. Salvador, J. J. Dannenberg, S. Dapprich, A. D. Daniels, 
 O. Farkas, J. B. Foresman, J. V. Ortiz, J. Cioslowski, 
 and D. J. Fox, Gaussian, Inc., Wallingford CT, 2010.
 
 ******************************************
 Gaussian 09:  EM64L-G09RevB.01 12-Aug-2010
                28-Nov-2021 
 ******************************************
 %nproc=8
 Will use up to    8 processors via shared memory.
 %mem=8GB
 -----------------------------------------------------
 # qcisd/aug-cc-pvtz nosymm density=current output=wfn
 -----------------------------------------------------
 1/30=1,38=1/1;
 2/12=2,15=1,17=6,18=5,40=1/2;
 3/5=16,6=1,7=10,11=9,16=1,25=1,30=1,71=1/1,2,3;
 4//1;
 5/5=2,38=5/2;
 8/6=4,9=120000,10=1/1,4;
 9/5=8,15=1/13;
 11/28=-7,31=1,32=3,42=3/11;
 10/5=6,13=10,31=1/2;
 6/7=2,8=2,9=2,10=2,22=-1,31=1/1;
 99/5=1,6=1100,9=1/99;
 ------------------
 br2co-wavefunction
 ------------------
 Symbolic Z-matrix:
 Charge =  0 Multiplicity = 1
 C                     0.        0.       -0.49176 
 Br                    0.       -1.59418  -1.54682 
 Br                    0.        1.59418  -1.54682 
 O                     0.        0.        0.6845 
 
                          Input orientation:                          
 ---------------------------------------------------------------------
 Center     Atomic      Atomic             Coordinates (Angstroms)
 Number     Number       Type             X           Y           Z
 ---------------------------------------------------------------------
      1          6           0        0.000000    0.000000   -0.491759
      2         35           0        0.000000   -1.594181   -1.546820
      3         35           0        0.000000    1.594181   -1.546820
      4          8           0        0.000000    0.000000    0.684500
 ---------------------------------------------------------------------
                    Distance matrix (angstroms):
                    1          2          3          4
     1  C    0.000000
     2  Br   1.911692   0.000000
     3  Br   1.911692   3.188362   0.000000
     4  O    1.176259   2.742299   2.742299   0.000000
 Symmetry turned off by external request.
 Stoichiometry    CBr2O
 Framework group  C2V[C2(CO),SGV(Br2)]
 Deg. of freedom     3
 Full point group                 C2V     NOp   4
 Rotational constants (GHZ):      6.2847849      1.2598940      1.0495030
 Standard basis: Aug-CC-pVTZ (5D, 7F)
 Integral buffers will be    131072 words long.
 Raffenetti 1 integral format.
 Two-electron integral symmetry is turned off.
   210 basis functions,   578 primitive gaussians,   248 cartesian basis functions
    42 alpha electrons       42 beta electrons
       nuclear repulsion energy       449.2323209223 Hartrees.
 NAtoms=    4 NActive=    4 NUniq=    4 SFac= 1.00D+00 NAtFMM=   50 NAOKFM=F Big=F
 One-electron integrals computed using PRISM.
 NBasis=   210 RedAO= T  NBF=   210
 NBsUse=   210 1.00D-06 NBFU=   210
 Harris functional with IExCor=  205 diagonalized for initial guess.
 ExpMin= 3.51D-02 ExpMax= 1.06D+07 ExpMxC= 1.21D+04 IAcc=3 IRadAn=         0 AccDes= 0.00D+00
 HarFok:  IExCor=  205 AccDes= 0.00D+00 IRadAn=         0 IDoV= 1
 ScaDFX=  1.000000  1.000000  1.000000  1.000000
 FoFCou: FMM=F IPFlag=           0 FMFlag=      100000 FMFlg1=           0
         NFxFlg=           0 DoJE=T BraDBF=F KetDBF=T FulRan=T
         Omega=  0.000000  0.000000  1.000000  0.000000  0.000000 ICntrl=     500 IOpCl=  0
         NMat0=    1 NMatS0=    1 NMatT0=    0 NMatD0=    1 NMtDS0=    0 NMtDT0=    0
         I1Cent=           4 NGrid=           0.
 Symmetry not used in FoFCou.
 Requested convergence on RMS density matrix=1.00D-08 within 128 cycles.
 Requested convergence on MAX density matrix=1.00D-06.
 Requested convergence on             energy=1.00D-06.
 No special actions if energy rises.
 Keep R1 ints in memory in canonical form, NReq=484604278.
 SCF Done:  E(RHF) =  -5257.68454935     A.U. after   12 cycles
             Convg  =    0.9212D-08             -V/T =  2.0000
 ExpMin= 3.51D-02 ExpMax= 1.06D+07 ExpMxC= 1.21D+04 IAcc=3 IRadAn=         5 AccDes= 0.00D+00
 HarFok:  IExCor=  205 AccDes= 0.00D+00 IRadAn=         5 IDoV=-2
 ScaDFX=  1.000000  1.000000  1.000000  1.000000
 Range of M.O.s used for correlation:    21   210
 NBasis=   210 NAE=    42 NBE=    42 NFC=    20 NFV=     0
 NROrb=    190 NOA=    22 NOB=    22 NVA=   168 NVB=   168

 **** Warning!!: The largest alpha MO coefficient is  0.28109636D+02

 Semi-Direct transformation.
 ModeAB=           2 MOrb=            22 LenV=    1072497277
 LASXX=     69628944 LTotXX=    69628944 LenRXX=    69628944
 LTotAB=    70719517 MaxLAS=   129061680 LenRXY=   129061680
 NonZer=   139257888 LenScr=   209707008 LnRSAI=           0
 LnScr1=           0 LExtra=           0 Total=    408397632
 MaxDsk=          -1 SrtSym=           F ITran=            4
 JobTyp=0 Pass  1:  I=   1 to  22.
 (rs|ai) integrals will be sorted in core.
 Spin components of T(2) and E(2):
     alpha-alpha T2 =       0.3832195230D-01 E2=     -0.1232778908D+00
     alpha-beta  T2 =       0.1924923039D+00 E2=     -0.6175052865D+00
     beta-beta   T2 =       0.3832195230D-01 E2=     -0.1232778908D+00
 ANorm=    0.1126559456D+01
 E2 =    -0.8640610682D+00 EUMP2 =    -0.52585486104194D+04
 R2 and R3 integrals will be kept in memory, NReq=   961077252.
 Iterations=  50 Convergence= 0.100D-07
 Iteration Nr.   1
 **********************
 DD1Dir will call FoFMem   1 times, MxPair=       506
 NAB=   253 NAA=     0 NBB=     0.
 MP4(R+Q)=  0.21479113D-01
 E3=        0.13939014D-03        EUMP3=      -0.52585484710D+04
 E4(DQ)=    0.26939486D-03        UMP4(DQ)=   -0.52585482016D+04
 E4(SDQ)=  -0.11697362D-01        UMP4(SDQ)=  -0.52585601684D+04
 DE(Corr)= -0.84244257     E(Corr)=     -5258.5269919    
 NORM(A)=   0.11248481D+01
 Iteration Nr.   2
 **********************
 DD1Dir will call FoFMem   1 times, MxPair=       506
 NAB=   253 NAA=     0 NBB=     0.
 DE(Corr)= -0.87233836     E(CORR)=     -5258.5568877     Delta=-2.99D-02
 NORM(A)=   0.11352476D+01
 Iteration Nr.   3
 **********************
 DD1Dir will call FoFMem   1 times, MxPair=       506
 NAB=   253 NAA=     0 NBB=     0.
 DE(Corr)= -0.87023438     E(CORR)=     -5258.5547837     Delta= 2.10D-03
 NORM(A)=   0.11380094D+01
 Iteration Nr.   4
 **********************
 DD1Dir will call FoFMem   1 times, MxPair=       506
 NAB=   253 NAA=     0 NBB=     0.
 DE(Corr)= -0.87276469     E(CORR)=     -5258.5573140     Delta=-2.53D-03
 NORM(A)=   0.11393221D+01
 Iteration Nr.   5
 **********************
 DD1Dir will call FoFMem   1 times, MxPair=       506
 NAB=   253 NAA=     0 NBB=     0.
 DE(Corr)= -0.87313911     E(CORR)=     -5258.5576885     Delta=-3.74D-04
 NORM(A)=   0.11398370D+01
 Iteration Nr.   6
 **********************
 DD1Dir will call FoFMem   1 times, MxPair=       506
 NAB=   253 NAA=     0 NBB=     0.
 DE(Corr)= -0.87320338     E(CORR)=     -5258.5577527     Delta=-6.43D-05
 NORM(A)=   0.11399410D+01
 Iteration Nr.   7
 **********************
 DD1Dir will call FoFMem   1 times, MxPair=       506
 NAB=   253 NAA=     0 NBB=     0.
 DE(Corr)= -0.87321768     E(CORR)=     -5258.5577670     Delta=-1.43D-05
 NORM(A)=   0.11399498D+01
 Iteration Nr.   8
 **********************
 DD1Dir will call FoFMem   1 times, MxPair=       506
 NAB=   253 NAA=     0 NBB=     0.
 DE(Corr)= -0.87321802     E(CORR)=     -5258.5577674     Delta=-3.34D-07
 NORM(A)=   0.11399649D+01
 Iteration Nr.   9
 **********************
 DD1Dir will call FoFMem   1 times, MxPair=       506
 NAB=   253 NAA=     0 NBB=     0.
 DE(Corr)= -0.87321609     E(CORR)=     -5258.5577654     Delta= 1.92D-06
 NORM(A)=   0.11399648D+01
 Iteration Nr.  10
 **********************
 DD1Dir will call FoFMem   1 times, MxPair=       506
 NAB=   253 NAA=     0 NBB=     0.
 DE(Corr)= -0.87321750     E(CORR)=     -5258.5577669     Delta=-1.41D-06
 NORM(A)=   0.11399676D+01
 Iteration Nr.  11
 **********************
 DD1Dir will call FoFMem   1 times, MxPair=       506
 NAB=   253 NAA=     0 NBB=     0.
 DE(Corr)= -0.87321863     E(CORR)=     -5258.5577680     Delta=-1.13D-06
 NORM(A)=   0.11399694D+01
 Iteration Nr.  12
 **********************
 DD1Dir will call FoFMem   1 times, MxPair=       506
 NAB=   253 NAA=     0 NBB=     0.
 DE(Corr)= -0.87321895     E(CORR)=     -5258.5577683     Delta=-3.16D-07
 NORM(A)=   0.11399704D+01
 Iteration Nr.  13
 **********************
 DD1Dir will call FoFMem   1 times, MxPair=       506
 NAB=   253 NAA=     0 NBB=     0.
 DE(Corr)= -0.87321942     E(CORR)=     -5258.5577688     Delta=-4.67D-07
 NORM(A)=   0.11399711D+01
 Iteration Nr.  14
 **********************
 DD1Dir will call FoFMem   1 times, MxPair=       506
 NAB=   253 NAA=     0 NBB=     0.
 DE(Corr)= -0.87321953     E(CORR)=     -5258.5577689     Delta=-1.09D-07
 NORM(A)=   0.11399714D+01
 Iteration Nr.  15
 **********************
 DD1Dir will call FoFMem   1 times, MxPair=       506
 NAB=   253 NAA=     0 NBB=     0.
 DE(Corr)= -0.87321960     E(CORR)=     -5258.5577689     Delta=-6.94D-08
 NORM(A)=   0.11399716D+01
 Iteration Nr.  16
 **********************
 DD1Dir will call FoFMem   1 times, MxPair=       506
 NAB=   253 NAA=     0 NBB=     0.
 DE(Corr)= -0.87321963     E(CORR)=     -5258.5577690     Delta=-3.05D-08
 NORM(A)=   0.11399716D+01
 Iteration Nr.  17
 **********************
 DD1Dir will call FoFMem   1 times, MxPair=       506
 NAB=   253 NAA=     0 NBB=     0.
 DE(Corr)= -0.87321962     E(CORR)=     -5258.5577690     Delta= 2.97D-09
 NORM(A)=   0.11399716D+01
 Iteration Nr.  18
 **********************
 DD1Dir will call FoFMem   1 times, MxPair=       506
 NAB=   253 NAA=     0 NBB=     0.
 DE(Corr)= -0.87321962     E(CORR)=     -5258.5577690     Delta=-1.62D-10
 NORM(A)=   0.11399717D+01
 Iteration Nr.  19
 **********************
 DD1Dir will call FoFMem   1 times, MxPair=       506
 NAB=   253 NAA=     0 NBB=     0.
 DE(Corr)= -0.87321963     E(CORR)=     -5258.5577690     Delta=-8.32D-09
 NORM(A)=   0.11399717D+01
 Iteration Nr.  20
 **********************
 DD1Dir will call FoFMem   1 times, MxPair=       506
 NAB=   253 NAA=     0 NBB=     0.
 DE(Corr)= -0.87321963     E(CORR)=     -5258.5577690     Delta=-1.25D-09
 NORM(A)=   0.11399717D+01
 Iteration Nr.  21
 **********************
 DD1Dir will call FoFMem   1 times, MxPair=       506
 NAB=   253 NAA=     0 NBB=     0.
 DE(Corr)= -0.87321963     E(CORR)=     -5258.5577690     Delta= 1.25D-09
 NORM(A)=   0.11399717D+01
 Iteration Nr.  22
 **********************
 DD1Dir will call FoFMem   1 times, MxPair=       506
 NAB=   253 NAA=     0 NBB=     0.
 DE(Corr)= -0.87321963     E(CORR)=     -5258.5577690     Delta= 7.68D-10
 NORM(A)=   0.11399717D+01
 Largest amplitude= 4.23D-02

 Z-AMPLITUDE ITERATIONS

 Iteration Nr.   1
 **********************
 DD1Dir will call FoFMem   1 times, MxPair=       506
 NAB=   253 NAA=     0 NBB=     0.
 DE(Z)  -0.84604529D+00          E(Z)=    -0.52585305946D+04
 NORM(A)=   0.11411651D+01
 Iteration Nr.   2
 **********************
 DD1Dir will call FoFMem   1 times, MxPair=       506
 NAB=   253 NAA=     0 NBB=     0.
 DE(Z)  -0.84604730D+00          E(Z)=    -0.52585305966D+04
 NORM(A)=   0.11404173D+01
 Iteration Nr.   3
 **********************
 DD1Dir will call FoFMem   1 times, MxPair=       506
 NAB=   253 NAA=     0 NBB=     0.
 DE(Z)  -0.84604589D+00          E(Z)=    -0.52585305952D+04
 NORM(A)=   0.11434531D+01
 Iteration Nr.   4
 **********************
 DD1Dir will call FoFMem   1 times, MxPair=       506
 NAB=   253 NAA=     0 NBB=     0.
 DE(Z)  -0.84604908D+00          E(Z)=    -0.52585305984D+04
 NORM(A)=   0.11421590D+01
 Iteration Nr.   5
 **********************
 DD1Dir will call FoFMem   1 times, MxPair=       506
 NAB=   253 NAA=     0 NBB=     0.
 DE(Z)  -0.84605392D+00          E(Z)=    -0.52585306033D+04
 NORM(A)=   0.11301177D+01
 Iteration Nr.   6
 **********************
 DD1Dir will call FoFMem   1 times, MxPair=       506
 NAB=   253 NAA=     0 NBB=     0.
 DE(Z)  -0.84601521D+00          E(Z)=    -0.52585305646D+04
 NORM(A)=   0.11301183D+01
 Iteration Nr.   7
 **********************
 DD1Dir will call FoFMem   1 times, MxPair=       506
 NAB=   253 NAA=     0 NBB=     0.
 DE(Z)  -0.84601289D+00          E(Z)=    -0.52585305622D+04
 NORM(A)=   0.11301189D+01
 Iteration Nr.   8
 **********************
 DD1Dir will call FoFMem   1 times, MxPair=       506
 NAB=   253 NAA=     0 NBB=     0.
 DE(Z)  -0.84601338D+00          E(Z)=    -0.52585305627D+04
 NORM(A)=   0.11301190D+01
 Iteration Nr.   9
 **********************
 DD1Dir will call FoFMem   1 times, MxPair=       506
 NAB=   253 NAA=     0 NBB=     0.
 DE(Z)  -0.84601305D+00          E(Z)=    -0.52585305624D+04
 NORM(A)=   0.11301192D+01
 Iteration Nr.  10
 **********************
 DD1Dir will call FoFMem   1 times, MxPair=       506
 NAB=   253 NAA=     0 NBB=     0.
 DE(Z)  -0.84601311D+00          E(Z)=    -0.52585305625D+04
 NORM(A)=   0.11301193D+01
 Iteration Nr.  11
 **********************
 DD1Dir will call FoFMem   1 times, MxPair=       506
 NAB=   253 NAA=     0 NBB=     0.
 DE(Z)  -0.84601312D+00          E(Z)=    -0.52585305625D+04
 NORM(A)=   0.11301194D+01
 Iteration Nr.  12
 **********************
 DD1Dir will call FoFMem   1 times, MxPair=       506
 NAB=   253 NAA=     0 NBB=     0.
 DE(Z)  -0.84601313D+00          E(Z)=    -0.52585305625D+04
 NORM(A)=   0.11301194D+01
 Iteration Nr.  13
 **********************
 DD1Dir will call FoFMem   1 times, MxPair=       506
 NAB=   253 NAA=     0 NBB=     0.
 DE(Z)  -0.84601313D+00          E(Z)=    -0.52585305625D+04
 NORM(A)=   0.11301194D+01
 Iteration Nr.  14
 **********************
 DD1Dir will call FoFMem   1 times, MxPair=       506
 NAB=   253 NAA=     0 NBB=     0.
 DE(Z)  -0.84601313D+00          E(Z)=    -0.52585305625D+04
 NORM(A)=   0.11301194D+01
 Discarding MO integrals.
          Differentiating once with respect to electric field.
                with respect to dipole field.
          Electric field/nuclear overlap derivatives assumed to be zero.
          Keep R1 ints in memory in canonical form, NReq=478620341.
          There are     1 degrees of freedom in the 1st order CPHF.  IDoFFX=0.
 LinEq1:  Iter=  0 NonCon=     1 RMS=1.95D-03 Max=5.61D-02
 AX will form     1 AO Fock derivatives at one time.
 LinEq1:  Iter=  1 NonCon=     1 RMS=7.40D-04 Max=2.61D-02
 LinEq1:  Iter=  2 NonCon=     1 RMS=3.09D-04 Max=9.34D-03
 LinEq1:  Iter=  3 NonCon=     1 RMS=1.03D-04 Max=2.97D-03
 LinEq1:  Iter=  4 NonCon=     1 RMS=5.33D-05 Max=1.64D-03
 LinEq1:  Iter=  5 NonCon=     1 RMS=1.64D-05 Max=4.65D-04
 LinEq1:  Iter=  6 NonCon=     1 RMS=6.29D-06 Max=1.31D-04
 LinEq1:  Iter=  7 NonCon=     1 RMS=1.35D-06 Max=2.12D-05
 LinEq1:  Iter=  8 NonCon=     1 RMS=2.69D-07 Max=4.30D-06
 LinEq1:  Iter=  9 NonCon=     1 RMS=6.50D-08 Max=1.21D-06
 LinEq1:  Iter= 10 NonCon=     1 RMS=1.39D-08 Max=2.08D-07
 LinEq1:  Iter= 11 NonCon=     1 RMS=3.90D-09 Max=9.55D-08
 LinEq1:  Iter= 12 NonCon=     1 RMS=7.18D-10 Max=1.62D-08
 LinEq1:  Iter= 13 NonCon=     1 RMS=1.20D-10 Max=2.63D-09
 LinEq1:  Iter= 14 NonCon=     0 RMS=1.85D-11 Max=4.29D-10
 Linear equations converged to 1.000D-10 1.000D-09 after    14 iterations.
 End of Minotr Frequency-dependent properties file   721 does not exist.
 End of Minotr Frequency-dependent properties file   722 does not exist.

 **********************************************************************

            Population analysis using the QCI/CC density.

 **********************************************************************

     Natural Orbital Coefficients:
                           1         2         3         4         5
     Eigenvalues --     2.00002   2.00002   2.00001   2.00001   2.00001
   1 1   C  1S          0.36876   0.00000   0.00000  -0.22662   0.00000
   2        2S         -0.01008   0.00000   0.00000   0.00242   0.00000
   3        3S          0.01427   0.00000   0.00000  -0.00945   0.00000
   4        4S         -0.01303   0.00000   0.00000   0.00312   0.00000
   5        5S         -0.00452   0.00000   0.00000  -0.00268   0.00000
   6        6PX         0.00000   0.00000   0.00000   0.00000   0.00000
   7        6PY         0.00000  -0.00267   0.00002   0.00000  -0.00022
   8        6PZ         0.00168   0.00000   0.00000   0.00013   0.00000
   9        7PX         0.00000   0.00000   0.00000   0.00000   0.00000
  10        7PY         0.00000  -0.00460   0.00025   0.00000  -0.00041
  11        7PZ         0.00463   0.00000   0.00000  -0.00083   0.00000
  12        8PX         0.00000   0.00000   0.00000   0.00000   0.00000
  13        8PY         0.00000  -0.00445  -0.00124   0.00000  -0.00550
  14        8PZ         0.00379   0.00000   0.00000  -0.00073   0.00000
  15        9PX         0.00000   0.00000   0.00000   0.00000   0.00000
  16        9PY         0.00000   0.00073   0.00166   0.00000  -0.00172
  17        9PZ         0.00022   0.00000   0.00000   0.00050   0.00000
  18       10D 0        0.00031   0.00000   0.00000  -0.00019   0.00000
  19       10D+1        0.00000   0.00000   0.00000   0.00000   0.00000
  20       10D-1        0.00000   0.00043  -0.00008   0.00000  -0.00005
  21       10D+2        0.00012   0.00000   0.00000   0.00016   0.00000
  22       10D-2        0.00000   0.00000   0.00000   0.00000   0.00000
  23       11D 0       -0.00006   0.00000   0.00000   0.00010   0.00000
  24       11D+1        0.00000   0.00000   0.00000   0.00000   0.00000
  25       11D-1        0.00000   0.00163   0.00028   0.00000  -0.00033
  26       11D+2        0.00172   0.00000   0.00000  -0.00053   0.00000
  27       11D-2        0.00000   0.00000   0.00000   0.00000   0.00000
  28       12D 0       -0.00041   0.00000   0.00000   0.00015   0.00000
  29       12D+1        0.00000   0.00000   0.00000   0.00000   0.00000
  30       12D-1        0.00000   0.00263   0.00133   0.00000   0.00130
  31       12D+2        0.00098   0.00000   0.00000  -0.00010   0.00000
  32       12D-2        0.00000   0.00000   0.00000   0.00000   0.00000
  33       13F 0        0.00016   0.00000   0.00000  -0.00015   0.00000
  34       13F+1        0.00000   0.00000   0.00000   0.00000   0.00000
  35       13F-1        0.00000  -0.00001   0.00006   0.00000   0.00000
  36       13F+2        0.00001   0.00000   0.00000  -0.00003   0.00000
  37       13F-2        0.00000   0.00000   0.00000   0.00000   0.00000
  38       13F+3        0.00000   0.00000   0.00000   0.00000   0.00000
  39       13F-3        0.00000  -0.00008  -0.00003   0.00000  -0.00004
  40       14F 0       -0.00019   0.00000   0.00000   0.00053   0.00000
  41       14F+1        0.00000   0.00000   0.00000   0.00000   0.00000
  42       14F-1        0.00000   0.00069   0.00003   0.00000  -0.00006
  43       14F+2       -0.00013   0.00000   0.00000   0.00040   0.00000
  44       14F-2        0.00000   0.00000   0.00000   0.00000   0.00000
  45       14F+3        0.00000   0.00000   0.00000   0.00000   0.00000
  46       14F-3        0.00000   0.00023   0.00012   0.00000   0.00028
  47 2   Br 1S         -0.04456   0.03985  -0.08342  -0.08070  -0.00166
  48        2S          0.16499  -0.14750   0.31067   0.30061   0.00626
  49        3S         -0.34765   0.30921  -0.66990  -0.64859  -0.01357
  50        4S         -0.00111   0.00098  -0.00200  -0.00224   0.00015
  51        5S         -0.01854   0.01654  -0.03242  -0.03122  -0.00061
  52        6S          0.00359  -0.00267  -0.00746  -0.00683  -0.00346
  53        7S          0.00219   0.00040   0.00265   0.00138  -0.00308
  54        8PX         0.00000   0.00000   0.00000   0.00000   0.00000
  55        8PY         0.19192  -0.22066  -0.09819  -0.08146   0.13203
  56        8PZ         0.11938  -0.13151  -0.05240  -0.07280  -0.22746
  57        9PX         0.00000   0.00000   0.00000   0.00000   0.00000
  58        9PY        -0.49942   0.57714   0.27554   0.22800  -0.37386
  59        9PZ        -0.31132   0.34343   0.14644   0.20443   0.64069
  60       10PX         0.00000   0.00000   0.00000   0.00000   0.00000
  61       10PY         0.00229  -0.00070  -0.00010  -0.00077  -0.00123
  62       10PZ         0.00127  -0.00092  -0.00018  -0.00028   0.00099
  63       11PX         0.00000   0.00000   0.00000   0.00000   0.00000
  64       11PY        -0.02370   0.02739   0.01261   0.01036  -0.01663
  65       11PZ        -0.01490   0.01637   0.00667   0.00932   0.02856
  66       12PX         0.00000   0.00000   0.00000   0.00000   0.00000
  67       12PY         0.00152   0.00120   0.00136   0.00034  -0.00405
  68       12PZ         0.00073   0.00022   0.00062   0.00061   0.00188
  69       13PX         0.00000   0.00000   0.00000   0.00000   0.00000
  70       13PY         0.00040  -0.00008   0.00025   0.00021  -0.00021
  71       13PZ         0.00031   0.00001   0.00032   0.00006  -0.00064
  72       14D 0        0.00245  -0.00281  -0.00111  -0.00193  -0.00790
  73       14D+1        0.00000   0.00000   0.00000   0.00000   0.00000
  74       14D-1       -0.02383   0.02676   0.00549   0.00471  -0.00399
  75       14D+2        0.01440  -0.01635  -0.00382  -0.00410  -0.00460
  76       14D-2        0.00000   0.00000   0.00000   0.00000   0.00000
  77       15D 0        0.00027  -0.00021  -0.00006  -0.00014  -0.00048
  78       15D+1        0.00000   0.00000   0.00000   0.00000   0.00000
  79       15D-1       -0.00246   0.00263   0.00029   0.00028  -0.00024
  80       15D+2        0.00162  -0.00165  -0.00021  -0.00023  -0.00029
  81       15D-2        0.00000   0.00000   0.00000   0.00000   0.00000
  82       16D 0        0.00004  -0.00021  -0.00003  -0.00002  -0.00028
  83       16D+1        0.00000   0.00000   0.00000   0.00000   0.00000
  84       16D-1        0.00110  -0.00063   0.00012  -0.00027  -0.00025
  85       16D+2       -0.00082   0.00038  -0.00005   0.00007  -0.00011
  86       16D-2        0.00000   0.00000   0.00000   0.00000   0.00000
  87       17D 0       -0.00005   0.00003   0.00005  -0.00003   0.00004
  88       17D+1        0.00000   0.00000   0.00000   0.00000   0.00000
  89       17D-1        0.00052  -0.00034   0.00003  -0.00004  -0.00044
  90       17D+2       -0.00052  -0.00012  -0.00021   0.00009   0.00031
  91       17D-2        0.00000   0.00000   0.00000   0.00000   0.00000
  92       18F 0        0.00024  -0.00029  -0.00008  -0.00006   0.00004
  93       18F+1        0.00000   0.00000   0.00000   0.00000   0.00000
  94       18F-1       -0.00009   0.00012   0.00002   0.00003   0.00034
  95       18F+2        0.00038  -0.00042  -0.00010  -0.00009  -0.00002
  96       18F-2        0.00000   0.00000   0.00000   0.00000   0.00000
  97       18F+3        0.00000   0.00000   0.00000   0.00000   0.00000
  98       18F-3        0.00020  -0.00023  -0.00003  -0.00004   0.00014
  99       19F 0       -0.00030   0.00030   0.00006   0.00014  -0.00006
 100       19F+1        0.00000   0.00000   0.00000   0.00000   0.00000
 101       19F-1        0.00023  -0.00029  -0.00001  -0.00010  -0.00032
 102       19F+2       -0.00064   0.00046   0.00004   0.00018   0.00002
 103       19F-2        0.00000   0.00000   0.00000   0.00000   0.00000
 104       19F+3        0.00000   0.00000   0.00000   0.00000   0.00000
 105       19F-3       -0.00036   0.00017  -0.00004   0.00005  -0.00017
 106 3   Br 1S         -0.04456  -0.03985   0.08342  -0.08070   0.00166
 107        2S          0.16499   0.14750  -0.31067   0.30061  -0.00626
 108        3S         -0.34765  -0.30921   0.66990  -0.64859   0.01357
 109        4S         -0.00111  -0.00098   0.00200  -0.00224  -0.00015
 110        5S         -0.01854  -0.01654   0.03242  -0.03122   0.00061
 111        6S          0.00359   0.00267   0.00746  -0.00683   0.00346
 112        7S          0.00219  -0.00040  -0.00265   0.00138   0.00308
 113        8PX         0.00000   0.00000   0.00000   0.00000   0.00000
 114        8PY        -0.19192  -0.22066  -0.09819   0.08146   0.13203
 115        8PZ         0.11938   0.13151   0.05240  -0.07280   0.22746
 116        9PX         0.00000   0.00000   0.00000   0.00000   0.00000
 117        9PY         0.49942   0.57714   0.27554  -0.22800  -0.37386
 118        9PZ        -0.31132  -0.34343  -0.14644   0.20443  -0.64069
 119       10PX         0.00000   0.00000   0.00000   0.00000   0.00000
 120       10PY        -0.00229  -0.00070  -0.00010   0.00077  -0.00123
 121       10PZ         0.00127   0.00092   0.00018  -0.00028  -0.00099
 122       11PX         0.00000   0.00000   0.00000   0.00000   0.00000
 123       11PY         0.02370   0.02739   0.01261  -0.01036  -0.01663
 124       11PZ        -0.01490  -0.01637  -0.00667   0.00932  -0.02856
 125       12PX         0.00000   0.00000   0.00000   0.00000   0.00000
 126       12PY        -0.00152   0.00120   0.00136  -0.00034  -0.00405
 127       12PZ         0.00073  -0.00022  -0.00062   0.00061  -0.00188
 128       13PX         0.00000   0.00000   0.00000   0.00000   0.00000
 129       13PY        -0.00040  -0.00008   0.00025  -0.00021  -0.00021
 130       13PZ         0.00031  -0.00001  -0.00032   0.00006   0.00064
 131       14D 0        0.00245   0.00281   0.00111  -0.00193   0.00790
 132       14D+1        0.00000   0.00000   0.00000   0.00000   0.00000
 133       14D-1        0.02383   0.02676   0.00549  -0.00471  -0.00399
 134       14D+2        0.01440   0.01635   0.00382  -0.00410   0.00460
 135       14D-2        0.00000   0.00000   0.00000   0.00000   0.00000
 136       15D 0        0.00027   0.00021   0.00006  -0.00014   0.00048
 137       15D+1        0.00000   0.00000   0.00000   0.00000   0.00000
 138       15D-1        0.00246   0.00263   0.00029  -0.00028  -0.00024
 139       15D+2        0.00162   0.00165   0.00021  -0.00023   0.00029
 140       15D-2        0.00000   0.00000   0.00000   0.00000   0.00000
 141       16D 0        0.00004   0.00021   0.00003  -0.00002   0.00028
 142       16D+1        0.00000   0.00000   0.00000   0.00000   0.00000
 143       16D-1       -0.00110  -0.00063   0.00012   0.00027  -0.00025
 144       16D+2       -0.00082  -0.00038   0.00005   0.00007   0.00011
 145       16D-2        0.00000   0.00000   0.00000   0.00000   0.00000
 146       17D 0       -0.00005  -0.00003  -0.00005  -0.00003  -0.00004
 147       17D+1        0.00000   0.00000   0.00000   0.00000   0.00000
 148       17D-1       -0.00052  -0.00034   0.00003   0.00004  -0.00044
 149       17D+2       -0.00052   0.00012   0.00021   0.00009  -0.00031
 150       17D-2        0.00000   0.00000   0.00000   0.00000   0.00000
 151       18F 0        0.00024   0.00029   0.00008  -0.00006  -0.00004
 152       18F+1        0.00000   0.00000   0.00000   0.00000   0.00000
 153       18F-1        0.00009   0.00012   0.00002  -0.00003   0.00034
 154       18F+2        0.00038   0.00042   0.00010  -0.00009   0.00002
 155       18F-2        0.00000   0.00000   0.00000   0.00000   0.00000
 156       18F+3        0.00000   0.00000   0.00000   0.00000   0.00000
 157       18F-3       -0.00020  -0.00023  -0.00003   0.00004   0.00014
 158       19F 0       -0.00030  -0.00030  -0.00006   0.00014   0.00006
 159       19F+1        0.00000   0.00000   0.00000   0.00000   0.00000
 160       19F-1       -0.00023  -0.00029  -0.00001   0.00010  -0.00032
 161       19F+2       -0.00064  -0.00046  -0.00004   0.00018  -0.00002
 162       19F-2        0.00000   0.00000   0.00000   0.00000   0.00000
 163       19F+3        0.00000   0.00000   0.00000   0.00000   0.00000
 164       19F-3        0.00036   0.00017  -0.00004  -0.00005  -0.00017
 165 4   O  1S         -0.06941   0.00000   0.00000   0.06979   0.00000
 166        2S          0.00100   0.00000   0.00000  -0.00156   0.00000
 167        3S         -0.00290   0.00000   0.00000   0.00289   0.00000
 168        4S          0.00121   0.00000   0.00000  -0.00065   0.00000
 169        5S          0.00068   0.00000   0.00000   0.00103   0.00000
 170        6PX         0.00000   0.00000   0.00000   0.00000   0.00000
 171        6PY         0.00000   0.00064   0.00030   0.00000   0.00016
 172        6PZ         0.00056   0.00000   0.00000  -0.00049   0.00000
 173        7PX         0.00000   0.00000   0.00000   0.00000   0.00000
 174        7PY         0.00000   0.00074   0.00032   0.00000   0.00032
 175        7PZ         0.00066   0.00000   0.00000  -0.00046   0.00000
 176        8PX         0.00000   0.00000   0.00000   0.00000   0.00000
 177        8PY         0.00000  -0.00025  -0.00010   0.00000   0.00111
 178        8PZ         0.00037   0.00000   0.00000  -0.00086   0.00000
 179        9PX         0.00000   0.00000   0.00000   0.00000   0.00000
 180        9PY         0.00000  -0.00070  -0.00065   0.00000   0.00016
 181        9PZ         0.00018   0.00000   0.00000  -0.00039   0.00000
 182       10D 0       -0.00003   0.00000   0.00000   0.00002   0.00000
 183       10D+1        0.00000   0.00000   0.00000   0.00000   0.00000
 184       10D-1        0.00000   0.00003  -0.00002   0.00000   0.00002
 185       10D+2        0.00003   0.00000   0.00000   0.00000   0.00000
 186       10D-2        0.00000   0.00000   0.00000   0.00000   0.00000
 187       11D 0       -0.00024   0.00000   0.00000   0.00016   0.00000
 188       11D+1        0.00000   0.00000   0.00000   0.00000   0.00000
 189       11D-1        0.00000   0.00016   0.00010   0.00000  -0.00008
 190       11D+2       -0.00009   0.00000   0.00000  -0.00003   0.00000
 191       11D-2        0.00000   0.00000   0.00000   0.00000   0.00000
 192       12D 0       -0.00043   0.00000   0.00000   0.00029   0.00000
 193       12D+1        0.00000   0.00000   0.00000   0.00000   0.00000
 194       12D-1        0.00000   0.00031   0.00009   0.00000  -0.00035
 195       12D+2       -0.00023   0.00000   0.00000  -0.00012   0.00000
 196       12D-2        0.00000   0.00000   0.00000   0.00000   0.00000
 197       13F 0       -0.00009   0.00000   0.00000   0.00004   0.00000
 198       13F+1        0.00000   0.00000   0.00000   0.00000   0.00000
 199       13F-1        0.00000  -0.00001   0.00000   0.00000   0.00003
 200       13F+2        0.00000   0.00000   0.00000  -0.00001   0.00000
 201       13F-2        0.00000   0.00000   0.00000   0.00000   0.00000
 202       13F+3        0.00000   0.00000   0.00000   0.00000   0.00000
 203       13F-3        0.00000  -0.00002   0.00001   0.00000  -0.00001
 204       14F 0        0.00026   0.00000   0.00000  -0.00008   0.00000
 205       14F+1        0.00000   0.00000   0.00000   0.00000   0.00000
 206       14F-1        0.00000  -0.00006  -0.00005   0.00000  -0.00003
 207       14F+2        0.00013   0.00000   0.00000   0.00003   0.00000
 208       14F-2        0.00000   0.00000   0.00000   0.00000   0.00000
 209       14F+3        0.00000   0.00000   0.00000   0.00000   0.00000
 210       14F-3        0.00000   0.00005  -0.00003   0.00000   0.00001
                           6         7         8         9        10
     Eigenvalues --     2.00001   2.00001   2.00001   2.00001   2.00000
   1 1   C  1S         -0.07119   0.00000   0.44616   0.00000   0.75545
   2        2S          0.00074   0.00000  -0.00530   0.00000  -0.00716
   3        3S         -0.00304   0.00000   0.01863   0.00000   0.03174
   4        4S         -0.00336   0.00000   0.00150   0.00000   0.00272
   5        5S         -0.00155   0.00000   0.00075   0.00000   0.00266
   6        6PX         0.00000   0.00000   0.00000   0.00062   0.00000
   7        6PY         0.00000   0.00000   0.00000   0.00000   0.00000
   8        6PZ         0.00030   0.00000  -0.00086   0.00000  -0.00115
   9        7PX         0.00000   0.00000   0.00000   0.00104   0.00000
  10        7PY         0.00000   0.00000   0.00000   0.00000   0.00000
  11        7PZ        -0.00002   0.00000  -0.00079   0.00000   0.00322
  12        8PX         0.00000   0.00000   0.00000   0.00130   0.00000
  13        8PY         0.00000   0.00000   0.00000   0.00000   0.00000
  14        8PZ         0.00572   0.00000  -0.00022   0.00000  -0.00151
  15        9PX         0.00000   0.00000   0.00000   0.00004   0.00000
  16        9PY         0.00000   0.00000   0.00000   0.00000   0.00000
  17        9PZ         0.00016   0.00000  -0.00020   0.00000  -0.00014
  18       10D 0       -0.00016   0.00000   0.00010   0.00000   0.00067
  19       10D+1        0.00000   0.00000   0.00000  -0.00010   0.00000
  20       10D-1        0.00000   0.00000   0.00000   0.00000   0.00000
  21       10D+2       -0.00008   0.00000  -0.00015   0.00000  -0.00020
  22       10D-2        0.00000  -0.00009   0.00000   0.00000   0.00000
  23       11D 0       -0.00036   0.00000  -0.00087   0.00000   0.00096
  24       11D+1        0.00000   0.00000   0.00000  -0.00075   0.00000
  25       11D-1        0.00000   0.00000   0.00000   0.00000   0.00000
  26       11D+2       -0.00019   0.00000   0.00031   0.00000   0.00106
  27       11D-2        0.00000  -0.00069   0.00000   0.00000   0.00000
  28       12D 0       -0.00021   0.00000   0.00003   0.00000  -0.00114
  29       12D+1        0.00000   0.00000   0.00000  -0.00064   0.00000
  30       12D-1        0.00000   0.00000   0.00000   0.00000   0.00000
  31       12D+2        0.00040   0.00000  -0.00022   0.00000  -0.00102
  32       12D-2        0.00000   0.00012   0.00000   0.00000   0.00000
  33       13F 0       -0.00011   0.00000   0.00026   0.00000   0.00036
  34       13F+1        0.00000   0.00000   0.00000  -0.00006   0.00000
  35       13F-1        0.00000   0.00000   0.00000   0.00000   0.00000
  36       13F+2        0.00003   0.00000   0.00000   0.00000  -0.00009
  37       13F-2        0.00000  -0.00001   0.00000   0.00000   0.00000
  38       13F+3        0.00000   0.00000   0.00000   0.00002   0.00000
  39       13F-3        0.00000   0.00000   0.00000   0.00000   0.00000
  40       14F 0        0.00050   0.00000  -0.00118   0.00000  -0.00065
  41       14F+1        0.00000   0.00000   0.00000   0.00008   0.00000
  42       14F-1        0.00000   0.00000   0.00000   0.00000   0.00000
  43       14F+2       -0.00029   0.00000  -0.00068   0.00000  -0.00061
  44       14F-2        0.00000   0.00021   0.00000   0.00000   0.00000
  45       14F+3        0.00000   0.00000   0.00000  -0.00036   0.00000
  46       14F-3        0.00000   0.00000   0.00000   0.00000   0.00000
  47 2   Br 1S          0.00626   0.00000  -0.00203   0.00000   0.00033
  48        2S         -0.02351   0.00000   0.00799   0.00000  -0.00042
  49        3S          0.05171   0.00000  -0.02117   0.00000  -0.00800
  50        4S          0.00001   0.00000   0.00051   0.00000   0.00094
  51        5S          0.00243   0.00000  -0.00085   0.00000  -0.00056
  52        6S          0.00328   0.00000  -0.00062   0.00000  -0.00091
  53        7S          0.00108   0.00000  -0.00020   0.00000  -0.00111
  54        8PX         0.00000  -0.26230   0.00000  -0.26286   0.00000
  55        8PY         0.15796   0.00000  -0.04661   0.00000  -0.08613
  56        8PZ        -0.20449   0.00000  -0.09207   0.00000  -0.05077
  57        9PX         0.00000   0.74192   0.00000   0.74228   0.00000
  58        9PY        -0.44050   0.00000   0.11125   0.00000   0.20449
  59        9PZ         0.57914   0.00000   0.24762   0.00000   0.12134
  60       10PX         0.00000   0.00130   0.00000   0.00072   0.00000
  61       10PY         0.00022   0.00000  -0.00054   0.00000  -0.00043
  62       10PZ         0.00133   0.00000   0.00004   0.00000   0.00017
  63       11PX         0.00000   0.03316   0.00000   0.03283   0.00000
  64       11PY        -0.01957   0.00000   0.00492   0.00000   0.00863
  65       11PZ         0.02571   0.00000   0.01090   0.00000   0.00505
  66       12PX         0.00000   0.00389   0.00000   0.00271   0.00000
  67       12PY        -0.00013   0.00000  -0.00021   0.00000  -0.00010
  68       12PZ         0.00316   0.00000   0.00075   0.00000  -0.00056
  69       13PX         0.00000  -0.00032   0.00000  -0.00025   0.00000
  70       13PY         0.00029   0.00000  -0.00006   0.00000  -0.00025
  71       13PZ         0.00001   0.00000  -0.00004   0.00000  -0.00019
  72       14D 0       -0.00751   0.00000  -0.00263   0.00000  -0.00114
  73       14D+1        0.00000   0.00113   0.00000   0.00122   0.00000
  74       14D-1       -0.00689   0.00000   0.00771   0.00000   0.00968
  75       14D+2       -0.00284   0.00000  -0.00633   0.00000  -0.00611
  76       14D-2        0.00000   0.00224   0.00000   0.00218   0.00000
  77       15D 0       -0.00041   0.00000  -0.00020   0.00000  -0.00010
  78       15D+1        0.00000   0.00017   0.00000   0.00019   0.00000
  79       15D-1       -0.00042   0.00000   0.00071   0.00000   0.00086
  80       15D+2       -0.00011   0.00000  -0.00061   0.00000  -0.00060
  81       15D-2        0.00000   0.00028   0.00000   0.00034   0.00000
  82       16D 0       -0.00037   0.00000  -0.00008   0.00000   0.00012
  83       16D+1        0.00000  -0.00010   0.00000  -0.00015   0.00000
  84       16D-1       -0.00010   0.00000   0.00025   0.00000   0.00073
  85       16D+2       -0.00032   0.00000   0.00001   0.00000  -0.00021
  86       16D-2        0.00000  -0.00017   0.00000  -0.00017   0.00000
  87       17D 0       -0.00023   0.00000   0.00002   0.00000  -0.00011
  88       17D+1        0.00000   0.00009   0.00000  -0.00009   0.00000
  89       17D-1        0.00019   0.00000  -0.00004   0.00000  -0.00022
  90       17D+2       -0.00032   0.00000   0.00006   0.00000   0.00002
  91       17D-2        0.00000   0.00016   0.00000  -0.00023   0.00000
  92       18F 0        0.00008   0.00000  -0.00008   0.00000  -0.00012
  93       18F+1        0.00000   0.00001   0.00000   0.00001   0.00000
  94       18F-1        0.00031   0.00000   0.00008   0.00000   0.00008
  95       18F+2        0.00000   0.00000  -0.00014   0.00000  -0.00022
  96       18F-2        0.00000   0.00022   0.00000   0.00025   0.00000
  97       18F+3        0.00000  -0.00018   0.00000  -0.00022   0.00000
  98       18F-3        0.00008   0.00000  -0.00006   0.00000  -0.00010
  99       19F 0       -0.00008   0.00000  -0.00009   0.00000  -0.00011
 100       19F+1        0.00000  -0.00001   0.00000  -0.00003   0.00000
 101       19F-1       -0.00038   0.00000   0.00000   0.00000   0.00017
 102       19F+2        0.00003   0.00000   0.00000   0.00000  -0.00011
 103       19F-2        0.00000  -0.00017   0.00000  -0.00025   0.00000
 104       19F+3        0.00000   0.00014   0.00000   0.00024   0.00000
 105       19F-3       -0.00010   0.00000   0.00010   0.00000   0.00001
 106 3   Br 1S          0.00626   0.00000  -0.00203   0.00000   0.00033
 107        2S         -0.02351   0.00000   0.00799   0.00000  -0.00042
 108        3S          0.05171   0.00000  -0.02117   0.00000  -0.00800
 109        4S          0.00001   0.00000   0.00051   0.00000   0.00094
 110        5S          0.00243   0.00000  -0.00085   0.00000  -0.00056
 111        6S          0.00328   0.00000  -0.00062   0.00000  -0.00091
 112        7S          0.00108   0.00000  -0.00020   0.00000  -0.00111
 113        8PX         0.00000   0.26230   0.00000  -0.26286   0.00000
 114        8PY        -0.15796   0.00000   0.04661   0.00000   0.08613
 115        8PZ        -0.20449   0.00000  -0.09207   0.00000  -0.05077
 116        9PX         0.00000  -0.74192   0.00000   0.74228   0.00000
 117        9PY         0.44050   0.00000  -0.11125   0.00000  -0.20449
 118        9PZ         0.57914   0.00000   0.24762   0.00000   0.12134
 119       10PX         0.00000  -0.00130   0.00000   0.00072   0.00000
 120       10PY        -0.00022   0.00000   0.00054   0.00000   0.00043
 121       10PZ         0.00133   0.00000   0.00004   0.00000   0.00017
 122       11PX         0.00000  -0.03316   0.00000   0.03283   0.00000
 123       11PY         0.01957   0.00000  -0.00492   0.00000  -0.00863
 124       11PZ         0.02571   0.00000   0.01090   0.00000   0.00505
 125       12PX         0.00000  -0.00389   0.00000   0.00271   0.00000
 126       12PY         0.00013   0.00000   0.00021   0.00000   0.00010
 127       12PZ         0.00316   0.00000   0.00075   0.00000  -0.00056
 128       13PX         0.00000   0.00032   0.00000  -0.00025   0.00000
 129       13PY        -0.00029   0.00000   0.00006   0.00000   0.00025
 130       13PZ         0.00001   0.00000  -0.00004   0.00000  -0.00019
 131       14D 0       -0.00751   0.00000  -0.00263   0.00000  -0.00114
 132       14D+1        0.00000  -0.00113   0.00000   0.00122   0.00000
 133       14D-1        0.00689   0.00000  -0.00771   0.00000  -0.00968
 134       14D+2       -0.00284   0.00000  -0.00633   0.00000  -0.00611
 135       14D-2        0.00000   0.00224   0.00000  -0.00218   0.00000
 136       15D 0       -0.00041   0.00000  -0.00020   0.00000  -0.00010
 137       15D+1        0.00000  -0.00017   0.00000   0.00019   0.00000
 138       15D-1        0.00042   0.00000  -0.00071   0.00000  -0.00086
 139       15D+2       -0.00011   0.00000  -0.00061   0.00000  -0.00060
 140       15D-2        0.00000   0.00028   0.00000  -0.00034   0.00000
 141       16D 0       -0.00037   0.00000  -0.00008   0.00000   0.00012
 142       16D+1        0.00000   0.00010   0.00000  -0.00015   0.00000
 143       16D-1        0.00010   0.00000  -0.00025   0.00000  -0.00073
 144       16D+2       -0.00032   0.00000   0.00001   0.00000  -0.00021
 145       16D-2        0.00000  -0.00017   0.00000   0.00017   0.00000
 146       17D 0       -0.00023   0.00000   0.00002   0.00000  -0.00011
 147       17D+1        0.00000  -0.00009   0.00000  -0.00009   0.00000
 148       17D-1       -0.00019   0.00000   0.00004   0.00000   0.00022
 149       17D+2       -0.00032   0.00000   0.00006   0.00000   0.00002
 150       17D-2        0.00000   0.00016   0.00000   0.00023   0.00000
 151       18F 0        0.00008   0.00000  -0.00008   0.00000  -0.00012
 152       18F+1        0.00000  -0.00001   0.00000   0.00001   0.00000
 153       18F-1       -0.00031   0.00000  -0.00008   0.00000  -0.00008
 154       18F+2        0.00000   0.00000  -0.00014   0.00000  -0.00022
 155       18F-2        0.00000   0.00022   0.00000  -0.00025   0.00000
 156       18F+3        0.00000   0.00018   0.00000  -0.00022   0.00000
 157       18F-3       -0.00008   0.00000   0.00006   0.00000   0.00010
 158       19F 0       -0.00008   0.00000  -0.00009   0.00000  -0.00011
 159       19F+1        0.00000   0.00001   0.00000  -0.00003   0.00000
 160       19F-1        0.00038   0.00000   0.00000   0.00000  -0.00017
 161       19F+2        0.00003   0.00000   0.00000   0.00000  -0.00011
 162       19F-2        0.00000  -0.00017   0.00000   0.00025   0.00000
 163       19F+3        0.00000  -0.00014   0.00000   0.00024   0.00000
 164       19F-3        0.00010   0.00000  -0.00010   0.00000  -0.00001
 165 4   O  1S          0.16465   0.00000  -0.79479   0.00000   0.53934
 166        2S         -0.00316   0.00000   0.01531   0.00000  -0.00889
 167        3S          0.00696   0.00000  -0.03362   0.00000   0.02337
 168        4S         -0.00156   0.00000   0.00255   0.00000  -0.00139
 169        5S         -0.00191   0.00000  -0.00046   0.00000  -0.00136
 170        6PX         0.00000   0.00000   0.00000  -0.00048   0.00000
 171        6PY         0.00000   0.00000   0.00000   0.00000   0.00000
 172        6PZ        -0.00065   0.00000   0.00395   0.00000  -0.00040
 173        7PX         0.00000   0.00000   0.00000  -0.00056   0.00000
 174        7PY         0.00000   0.00000   0.00000   0.00000   0.00000
 175        7PZ        -0.00011   0.00000   0.00161   0.00000   0.00261
 176        8PX         0.00000   0.00000   0.00000  -0.00036   0.00000
 177        8PY         0.00000   0.00000   0.00000   0.00000   0.00000
 178        8PZ        -0.00135   0.00000   0.00333   0.00000   0.00227
 179        9PX         0.00000   0.00000   0.00000   0.00004   0.00000
 180        9PY         0.00000   0.00000   0.00000   0.00000   0.00000
 181        9PZ         0.00065   0.00000   0.00053   0.00000   0.00042
 182       10D 0        0.00004   0.00000  -0.00021   0.00000   0.00008
 183       10D+1        0.00000   0.00000   0.00000   0.00000   0.00000
 184       10D-1        0.00000   0.00000   0.00000   0.00000   0.00000
 185       10D+2       -0.00003   0.00000   0.00005   0.00000  -0.00002
 186       10D-2        0.00000  -0.00001   0.00000   0.00000   0.00000
 187       11D 0        0.00003   0.00000   0.00016   0.00000  -0.00102
 188       11D+1        0.00000   0.00000   0.00000  -0.00009   0.00000
 189       11D-1        0.00000   0.00000   0.00000   0.00000   0.00000
 190       11D+2        0.00005   0.00000   0.00014   0.00000  -0.00006
 191       11D-2        0.00000   0.00002   0.00000   0.00000   0.00000
 192       12D 0        0.00078   0.00000  -0.00050   0.00000  -0.00057
 193       12D+1        0.00000   0.00000   0.00000  -0.00010   0.00000
 194       12D-1        0.00000   0.00000   0.00000   0.00000   0.00000
 195       12D+2       -0.00001   0.00000   0.00029   0.00000   0.00040
 196       12D-2        0.00000  -0.00003   0.00000   0.00000   0.00000
 197       13F 0        0.00001   0.00000  -0.00010   0.00000  -0.00010
 198       13F+1        0.00000   0.00000   0.00000   0.00000   0.00000
 199       13F-1        0.00000   0.00000   0.00000   0.00000   0.00000
 200       13F+2       -0.00001   0.00000   0.00002   0.00000  -0.00001
 201       13F-2        0.00000   0.00000   0.00000   0.00000   0.00000
 202       13F+3        0.00000   0.00000   0.00000  -0.00001   0.00000
 203       13F-3        0.00000   0.00000   0.00000   0.00000   0.00000
 204       14F 0       -0.00008   0.00000   0.00001   0.00000   0.00037
 205       14F+1        0.00000   0.00000   0.00000   0.00007   0.00000
 206       14F-1        0.00000   0.00000   0.00000   0.00000   0.00000
 207       14F+2        0.00002   0.00000  -0.00009   0.00000  -0.00003
 208       14F-2        0.00000  -0.00003   0.00000   0.00000   0.00000
 209       14F+3        0.00000   0.00000   0.00000   0.00004   0.00000
 210       14F-3        0.00000   0.00000   0.00000   0.00000   0.00000
                          11        12        13        14        15
     Eigenvalues --     2.00000   2.00000   2.00000   2.00000   2.00000
   1 1   C  1S          0.00000  -0.00127   0.00000   0.01352   0.00000
   2        2S          0.00000   0.00005   0.00000  -0.00011   0.00000
   3        3S          0.00000  -0.00005   0.00000   0.00062   0.00000
   4        4S          0.00000   0.00036   0.00000  -0.00105   0.00000
   5        5S          0.00000   0.00019   0.00000  -0.00038   0.00000
   6        6PX         0.00000   0.00000   0.00000   0.00000   0.00001
   7        6PY        -0.00003   0.00000  -0.00001   0.00000   0.00000
   8        6PZ         0.00000   0.00001   0.00000  -0.00004   0.00000
   9        7PX         0.00000   0.00000   0.00000   0.00000   0.00000
  10        7PY         0.00006   0.00000   0.00003   0.00000   0.00000
  11        7PZ         0.00000   0.00007   0.00000   0.00010   0.00000
  12        8PX         0.00000   0.00000   0.00000   0.00000  -0.00007
  13        8PY         0.00039   0.00000   0.00061   0.00000   0.00000
  14        8PZ         0.00000  -0.00053   0.00000   0.00038   0.00000
  15        9PX         0.00000   0.00000   0.00000   0.00000   0.00000
  16        9PY        -0.00010   0.00000   0.00010   0.00000   0.00000
  17        9PZ         0.00000  -0.00001   0.00000   0.00005   0.00000
  18       10D 0        0.00000   0.00000   0.00000   0.00001   0.00000
  19       10D+1        0.00000   0.00000   0.00000   0.00000   0.00000
  20       10D-1        0.00000   0.00000   0.00000   0.00000   0.00000
  21       10D+2        0.00000   0.00000   0.00000   0.00000   0.00000
  22       10D-2        0.00000   0.00000   0.00000   0.00000   0.00000
  23       11D 0        0.00000   0.00005   0.00000   0.00001   0.00000
  24       11D+1        0.00000   0.00000   0.00000   0.00000   0.00005
  25       11D-1       -0.00008   0.00000  -0.00002   0.00000   0.00000
  26       11D+2        0.00000   0.00001   0.00000   0.00014   0.00000
  27       11D-2        0.00000   0.00000   0.00000   0.00000   0.00000
  28       12D 0        0.00000  -0.00001   0.00000   0.00008   0.00000
  29       12D+1        0.00000   0.00000   0.00000   0.00000   0.00004
  30       12D-1       -0.00019   0.00000  -0.00020   0.00000   0.00000
  31       12D+2        0.00000  -0.00005   0.00000   0.00017   0.00000
  32       12D-2        0.00000   0.00000   0.00000   0.00000   0.00000
  33       13F 0        0.00000   0.00001   0.00000   0.00000   0.00000
  34       13F+1        0.00000   0.00000   0.00000   0.00000   0.00001
  35       13F-1        0.00000   0.00000   0.00001   0.00000   0.00000
  36       13F+2        0.00000   0.00000   0.00000   0.00000   0.00000
  37       13F-2        0.00000   0.00000   0.00000   0.00000   0.00000
  38       13F+3        0.00000   0.00000   0.00000   0.00000  -0.00001
  39       13F-3        0.00001   0.00000   0.00001   0.00000   0.00000
  40       14F 0        0.00000  -0.00003   0.00000   0.00002   0.00000
  41       14F+1        0.00000   0.00000   0.00000   0.00000  -0.00001
  42       14F-1       -0.00001   0.00000  -0.00008   0.00000   0.00000
  43       14F+2        0.00000   0.00005   0.00000   0.00001   0.00000
  44       14F-2        0.00000   0.00000   0.00000   0.00000   0.00000
  45       14F+3        0.00000   0.00000   0.00000   0.00000   0.00004
  46       14F-3       -0.00002   0.00000  -0.00006   0.00000   0.00000
  47 2   Br 1S         -0.05481   0.00214  -0.01242  -0.03843   0.00000
  48        2S          0.16951  -0.00626   0.04113   0.12331   0.00000
  49        3S          0.01497  -0.00064   0.00385   0.01297   0.00000
  50        4S         -0.00012   0.00002  -0.00007  -0.00015   0.00000
  51        5S          0.00045  -0.00002   0.00011   0.00038   0.00000
  52        6S          0.00049  -0.00029   0.00049   0.00066   0.00000
  53        7S         -0.00014  -0.00013   0.00024   0.00018   0.00000
  54        8PX         0.00000   0.00000   0.00000   0.00001   0.71290
  55        8PY         0.66522  -0.40306  -0.18850   0.57061   0.00000
  56        8PZ         0.16885   0.58793   0.68567   0.39381   0.00000
  57        9PX         0.00000   0.00000   0.00000   0.00000  -0.01616
  58        9PY         0.00000   0.00753   0.00860   0.00712   0.00000
  59        9PZ         0.00572  -0.01370  -0.01241   0.00327   0.00000
  60       10PX         0.00000   0.00000   0.00000   0.00000   0.00028
  61       10PY         0.00033  -0.00022  -0.00005   0.00032   0.00000
  62       10PZ         0.00012   0.00023   0.00036   0.00021   0.00000
  63       11PX         0.00000   0.00000   0.00000   0.00000  -0.00122
  64       11PY        -0.00057   0.00063   0.00047  -0.00023   0.00000
  65       11PZ         0.00006  -0.00101  -0.00106  -0.00022   0.00000
  66       12PX         0.00000   0.00000   0.00000   0.00000  -0.00006
  67       12PY         0.00005  -0.00012   0.00028   0.00020   0.00000
  68       12PZ         0.00008  -0.00013   0.00006   0.00020   0.00000
  69       13PX         0.00000   0.00000   0.00000   0.00000   0.00002
  70       13PY        -0.00001  -0.00003   0.00002   0.00002   0.00000
  71       13PZ        -0.00003   0.00000   0.00005   0.00002   0.00000
  72       14D 0       -0.00008   0.00033   0.00032   0.00002   0.00000
  73       14D+1        0.00000   0.00000   0.00000   0.00000  -0.00004
  74       14D-1       -0.00032   0.00018   0.00009  -0.00007   0.00000
  75       14D+2        0.00015   0.00017   0.00022   0.00009   0.00000
  76       14D-2        0.00000   0.00000   0.00000   0.00000  -0.00010
  77       15D 0        0.00000   0.00000   0.00001   0.00000   0.00000
  78       15D+1        0.00000   0.00000   0.00000   0.00000  -0.00002
  79       15D-1       -0.00005   0.00000  -0.00001  -0.00004   0.00000
  80       15D+2        0.00003   0.00000   0.00001   0.00003   0.00000
  81       15D-2        0.00000   0.00000   0.00000   0.00000  -0.00002
  82       16D 0        0.00000   0.00006   0.00007   0.00000   0.00000
  83       16D+1        0.00000   0.00000   0.00000   0.00000   0.00003
  84       16D-1        0.00008   0.00002   0.00007   0.00012   0.00000
  85       16D+2       -0.00006   0.00005   0.00001  -0.00010   0.00000
  86       16D-2        0.00000   0.00000   0.00000   0.00000   0.00004
  87       17D 0        0.00000   0.00001  -0.00002   0.00002   0.00000
  88       17D+1        0.00000   0.00000   0.00000   0.00000   0.00000
  89       17D-1        0.00002  -0.00003   0.00004   0.00006   0.00000
  90       17D+2        0.00001   0.00003  -0.00004  -0.00003   0.00000
  91       17D-2        0.00000   0.00000   0.00000   0.00000   0.00001
  92       18F 0        0.00000   0.00000   0.00000   0.00000   0.00000
  93       18F+1        0.00000   0.00000   0.00000   0.00000   0.00000
  94       18F-1        0.00000  -0.00001   0.00000   0.00000   0.00000
  95       18F+2       -0.00001   0.00000   0.00000  -0.00001   0.00000
  96       18F-2        0.00000   0.00000   0.00000   0.00000   0.00000
  97       18F+3        0.00000   0.00000   0.00000   0.00000   0.00000
  98       18F-3        0.00000   0.00000   0.00000  -0.00001   0.00000
  99       19F 0       -0.00002   0.00000   0.00000  -0.00001   0.00000
 100       19F+1        0.00000   0.00000   0.00000   0.00000   0.00000
 101       19F-1        0.00001   0.00003   0.00003   0.00001   0.00000
 102       19F+2       -0.00002   0.00000  -0.00001  -0.00004   0.00000
 103       19F-2        0.00000   0.00000   0.00000   0.00000   0.00002
 104       19F+3        0.00000   0.00000   0.00000   0.00000  -0.00002
 105       19F-3       -0.00001   0.00001   0.00001  -0.00002   0.00000
 106 3   Br 1S          0.05481   0.00214   0.01242  -0.03843   0.00000
 107        2S         -0.16951  -0.00626  -0.04113   0.12331   0.00000
 108        3S         -0.01497  -0.00064  -0.00385   0.01297   0.00000
 109        4S          0.00012   0.00002   0.00007  -0.00015   0.00000
 110        5S         -0.00045  -0.00002  -0.00011   0.00038   0.00000
 111        6S         -0.00049  -0.00029  -0.00049   0.00066   0.00000
 112        7S          0.00014  -0.00013  -0.00024   0.00018   0.00000
 113        8PX         0.00000   0.00000   0.00000   0.00000   0.71316
 114        8PY         0.66522   0.40303  -0.18854  -0.57061   0.00000
 115        8PZ        -0.16884   0.58786  -0.68574   0.39381   0.00000
 116        9PX         0.00000   0.00000   0.00000   0.00000  -0.01616
 117        9PY         0.00000  -0.00753   0.00860  -0.00712   0.00000
 118        9PZ        -0.00572  -0.01369   0.01241   0.00327   0.00000
 119       10PX         0.00000   0.00000   0.00000   0.00000   0.00028
 120       10PY         0.00033   0.00022  -0.00005  -0.00032   0.00000
 121       10PZ        -0.00012   0.00023  -0.00036   0.00021   0.00000
 122       11PX         0.00000   0.00000   0.00000   0.00000  -0.00122
 123       11PY        -0.00057  -0.00063   0.00047   0.00023   0.00000
 124       11PZ        -0.00006  -0.00101   0.00106  -0.00022   0.00000
 125       12PX         0.00000   0.00000   0.00000   0.00000  -0.00006
 126       12PY         0.00005   0.00012   0.00028  -0.00020   0.00000
 127       12PZ        -0.00008  -0.00013  -0.00006   0.00020   0.00000
 128       13PX         0.00000   0.00000   0.00000   0.00000   0.00002
 129       13PY        -0.00001   0.00003   0.00002  -0.00002   0.00000
 130       13PZ         0.00003   0.00000  -0.00005   0.00002   0.00000
 131       14D 0        0.00008   0.00033  -0.00032   0.00002   0.00000
 132       14D+1        0.00000   0.00000   0.00000   0.00000  -0.00004
 133       14D-1       -0.00032  -0.00018   0.00009   0.00007   0.00000
 134       14D+2       -0.00015   0.00017  -0.00022   0.00009   0.00000
 135       14D-2        0.00000   0.00000   0.00000   0.00000   0.00010
 136       15D 0        0.00000   0.00000  -0.00001   0.00000   0.00000
 137       15D+1        0.00000   0.00000   0.00000   0.00000  -0.00002
 138       15D-1       -0.00005   0.00000  -0.00001   0.00004   0.00000
 139       15D+2       -0.00003   0.00000  -0.00001   0.00003   0.00000
 140       15D-2        0.00000   0.00000   0.00000   0.00000   0.00002
 141       16D 0        0.00000   0.00006  -0.00007   0.00000   0.00000
 142       16D+1        0.00000   0.00000   0.00000   0.00000   0.00003
 143       16D-1        0.00008  -0.00002   0.00007  -0.00012   0.00000
 144       16D+2        0.00006   0.00005  -0.00001  -0.00010   0.00000
 145       16D-2        0.00000   0.00000   0.00000   0.00000  -0.00004
 146       17D 0        0.00000   0.00001   0.00002   0.00002   0.00000
 147       17D+1        0.00000   0.00000   0.00000   0.00000   0.00000
 148       17D-1        0.00002   0.00003   0.00004  -0.00006   0.00000
 149       17D+2       -0.00001   0.00003   0.00004  -0.00003   0.00000
 150       17D-2        0.00000   0.00000   0.00000   0.00000  -0.00001
 151       18F 0        0.00000   0.00000   0.00000   0.00000   0.00000
 152       18F+1        0.00000   0.00000   0.00000   0.00000   0.00000
 153       18F-1        0.00000   0.00001   0.00000   0.00000   0.00000
 154       18F+2        0.00001   0.00000   0.00000  -0.00001   0.00000
 155       18F-2        0.00000   0.00000   0.00000   0.00000   0.00000
 156       18F+3        0.00000   0.00000   0.00000   0.00000   0.00000
 157       18F-3        0.00000   0.00000   0.00000   0.00001   0.00000
 158       19F 0        0.00002   0.00000   0.00000  -0.00001   0.00000
 159       19F+1        0.00000   0.00000   0.00000   0.00000   0.00000
 160       19F-1        0.00001  -0.00003   0.00003  -0.00001   0.00000
 161       19F+2        0.00002   0.00000   0.00001  -0.00004   0.00000
 162       19F-2        0.00000   0.00000   0.00000   0.00000  -0.00002
 163       19F+3        0.00000   0.00000   0.00000   0.00000  -0.00002
 164       19F-3       -0.00001  -0.00001   0.00001   0.00002   0.00000
 165 4   O  1S          0.00000  -0.00046   0.00000   0.00404   0.00000
 166        2S          0.00000   0.00000   0.00000  -0.00010   0.00000
 167        3S          0.00000  -0.00002   0.00000   0.00018   0.00000
 168        4S          0.00000   0.00006   0.00000   0.00004   0.00000
 169        5S          0.00000   0.00018   0.00000  -0.00005   0.00000
 170        6PX         0.00000   0.00000   0.00000   0.00000   0.00000
 171        6PY         0.00000   0.00000   0.00000   0.00000   0.00000
 172        6PZ         0.00000   0.00000   0.00000   0.00002   0.00000
 173        7PX         0.00000   0.00000   0.00000   0.00000  -0.00001
 174        7PY         0.00001   0.00000   0.00001   0.00000   0.00000
 175        7PZ         0.00000   0.00001   0.00000   0.00006   0.00000
 176        8PX         0.00000   0.00000   0.00000   0.00000  -0.00002
 177        8PY         0.00003   0.00000   0.00000   0.00000   0.00000
 178        8PZ         0.00000   0.00011   0.00000  -0.00005   0.00000
 179        9PX         0.00000   0.00000   0.00000   0.00000  -0.00001
 180        9PY         0.00008   0.00000   0.00002   0.00000   0.00000
 181        9PZ         0.00000  -0.00006   0.00000   0.00002   0.00000
 182       10D 0        0.00000   0.00000   0.00000   0.00000   0.00000
 183       10D+1        0.00000   0.00000   0.00000   0.00000   0.00000
 184       10D-1        0.00000   0.00000   0.00000   0.00000   0.00000
 185       10D+2        0.00000   0.00000   0.00000   0.00000   0.00000
 186       10D-2        0.00000   0.00000   0.00000   0.00000   0.00000
 187       11D 0        0.00000  -0.00001   0.00000  -0.00002   0.00000
 188       11D+1        0.00000   0.00000   0.00000   0.00000   0.00001
 189       11D-1        0.00000   0.00000   0.00000   0.00000   0.00000
 190       11D+2        0.00000  -0.00001   0.00000  -0.00001   0.00000
 191       11D-2        0.00000   0.00000   0.00000   0.00000   0.00000
 192       12D 0        0.00000  -0.00007   0.00000   0.00000   0.00000
 193       12D+1        0.00000   0.00000   0.00000   0.00000   0.00001
 194       12D-1        0.00000   0.00000   0.00002   0.00000   0.00000
 195       12D+2        0.00000  -0.00001   0.00000  -0.00004   0.00000
 196       12D-2        0.00000   0.00000   0.00000   0.00000   0.00000
 197       13F 0        0.00000   0.00000   0.00000   0.00000   0.00000
 198       13F+1        0.00000   0.00000   0.00000   0.00000   0.00000
 199       13F-1        0.00000   0.00000   0.00000   0.00000   0.00000
 200       13F+2        0.00000   0.00000   0.00000   0.00000   0.00000
 201       13F-2        0.00000   0.00000   0.00000   0.00000   0.00000
 202       13F+3        0.00000   0.00000   0.00000   0.00000   0.00000
 203       13F-3        0.00000   0.00000   0.00000   0.00000   0.00000
 204       14F 0        0.00000   0.00001   0.00000   0.00002   0.00000
 205       14F+1        0.00000   0.00000   0.00000   0.00000  -0.00001
 206       14F-1        0.00000   0.00000  -0.00001   0.00000   0.00000
 207       14F+2        0.00000   0.00001   0.00000   0.00002   0.00000
 208       14F-2        0.00000   0.00000   0.00000   0.00000   0.00000
 209       14F+3        0.00000   0.00000   0.00000   0.00000  -0.00001
 210       14F-3        0.00000   0.00000   0.00000   0.00000   0.00000
                          16        17        18        19        20
     Eigenvalues --     2.00000   2.00000   2.00000   2.00000   2.00000
   1 1   C  1S          0.00000   0.00000   0.00153  -0.00002   0.00005
   2        2S          0.00000   0.00000  -0.00001   0.00000   0.00000
   3        3S          0.00000   0.00000   0.00006   0.00000   0.00000
   4        4S          0.00000   0.00000   0.00007   0.00000   0.00001
   5        5S          0.00000   0.00000   0.00007   0.00000   0.00000
   6        6PX         0.00000   0.00000   0.00000   0.00000   0.00000
   7        6PY         0.00000   0.00000   0.00000   0.00000   0.00000
   8        6PZ         0.00000   0.00000   0.00000   0.00000   0.00000
   9        7PX         0.00000   0.00000   0.00000   0.00000   0.00000
  10        7PY         0.00000  -0.00002   0.00000   0.00000   0.00000
  11        7PZ         0.00000   0.00000  -0.00001   0.00000   0.00000
  12        8PX         0.00000   0.00000   0.00000   0.00000   0.00000
  13        8PY         0.00000   0.00001   0.00000  -0.00001   0.00000
  14        8PZ         0.00000   0.00000  -0.00001   0.00000  -0.00001
  15        9PX         0.00000   0.00000   0.00000   0.00000   0.00000
  16        9PY         0.00000   0.00002   0.00000   0.00000   0.00000
  17        9PZ         0.00000   0.00000   0.00000   0.00000   0.00000
  18       10D 0        0.00000   0.00000   0.00000   0.00000   0.00000
  19       10D+1        0.00000   0.00000   0.00000   0.00000   0.00000
  20       10D-1        0.00000   0.00000   0.00000   0.00000   0.00000
  21       10D+2        0.00000   0.00000   0.00000   0.00000   0.00000
  22       10D-2       -0.00001   0.00000   0.00000   0.00000   0.00000
  23       11D 0        0.00000   0.00000   0.00000   0.00000   0.00000
  24       11D+1        0.00000   0.00000   0.00000   0.00000   0.00000
  25       11D-1        0.00000   0.00002   0.00000   0.00000   0.00000
  26       11D+2        0.00000   0.00000  -0.00001   0.00000   0.00000
  27       11D-2        0.00004   0.00000   0.00000   0.00000   0.00000
  28       12D 0        0.00000   0.00000   0.00002   0.00000   0.00000
  29       12D+1        0.00000   0.00000   0.00000   0.00000   0.00000
  30       12D-1        0.00000   0.00004   0.00000   0.00000   0.00000
  31       12D+2        0.00000   0.00000  -0.00001   0.00000   0.00000
  32       12D-2       -0.00004   0.00000   0.00000   0.00000   0.00000
  33       13F 0        0.00000   0.00000   0.00000   0.00000   0.00000
  34       13F+1        0.00000   0.00000   0.00000   0.00000   0.00000
  35       13F-1        0.00000   0.00000   0.00000   0.00000   0.00000
  36       13F+2        0.00000   0.00000   0.00000   0.00000   0.00000
  37       13F-2        0.00000   0.00000   0.00000   0.00000   0.00000
  38       13F+3        0.00000   0.00000   0.00000   0.00000   0.00000
  39       13F-3        0.00000   0.00000   0.00000   0.00000   0.00000
  40       14F 0        0.00000   0.00000  -0.00001   0.00000   0.00000
  41       14F+1        0.00000   0.00000   0.00000   0.00000   0.00000
  42       14F-1        0.00000   0.00002   0.00000   0.00000   0.00000
  43       14F+2        0.00000   0.00000   0.00000   0.00000   0.00000
  44       14F-2       -0.00003   0.00000   0.00000   0.00000   0.00000
  45       14F+3        0.00000   0.00000   0.00000   0.00000   0.00000
  46       14F-3        0.00000   0.00001   0.00000   0.00000   0.00000
  47 2   Br 1S          0.00000  -0.21827  -0.22063   0.42723   0.90249
  48        2S          0.00000   0.70676   0.71670   0.00285   0.00400
  49        3S          0.00000   0.03014   0.03102   0.00036   0.00064
  50        4S          0.00000  -0.00020  -0.00019   0.00001   0.00002
  51        5S          0.00000   0.00071   0.00073   0.00000   0.00000
  52        6S          0.00000   0.00004   0.00003  -0.00001  -0.00002
  53        7S          0.00000   0.00004  -0.00002   0.00000   0.00000
  54        8PX         0.71332   0.00000   0.00000   0.00000   0.00000
  55        8PY         0.00000  -0.15295  -0.10610   0.00202   0.00119
  56        8PZ         0.00000  -0.08299  -0.06529   0.00024   0.00013
  57        9PX        -0.01662   0.00000   0.00000   0.00000   0.00000
  58        9PY         0.00000   0.00252   0.00306  -0.00004  -0.00017
  59        9PZ         0.00000   0.00125   0.00180  -0.00002  -0.00007
  60       10PX         0.00029   0.00000   0.00000   0.00000   0.00000
  61       10PY         0.00000  -0.00008  -0.00006   0.00000   0.00000
  62       10PZ         0.00000  -0.00005  -0.00004   0.00000   0.00000
  63       11PX        -0.00124   0.00000   0.00000   0.00000   0.00000
  64       11PY         0.00000   0.00024   0.00023   0.00000  -0.00001
  65       11PZ         0.00000   0.00013   0.00013   0.00000   0.00000
  66       12PX        -0.00013   0.00000   0.00000   0.00000   0.00000
  67       12PY         0.00000   0.00006   0.00001  -0.00001  -0.00001
  68       12PZ         0.00000   0.00003   0.00002   0.00000  -0.00001
  69       13PX         0.00003   0.00000   0.00000   0.00000   0.00000
  70       13PY         0.00000   0.00000  -0.00001   0.00000   0.00000
  71       13PZ         0.00000   0.00000   0.00000   0.00000   0.00000
  72       14D 0        0.00000  -0.00003  -0.00004   0.00000   0.00000
  73       14D+1       -0.00004   0.00000   0.00000   0.00000   0.00000
  74       14D-1        0.00000   0.00001   0.00000   0.00000   0.00000
  75       14D+2        0.00000   0.00007   0.00007   0.00000   0.00000
  76       14D-2       -0.00011   0.00000   0.00000   0.00000   0.00000
  77       15D 0        0.00000   0.00000   0.00000   0.00000   0.00000
  78       15D+1       -0.00001   0.00000   0.00000   0.00000   0.00000
  79       15D-1        0.00000   0.00000   0.00000   0.00000   0.00000
  80       15D+2        0.00000   0.00000   0.00000   0.00000   0.00000
  81       15D-2       -0.00002   0.00000   0.00000   0.00000   0.00000
  82       16D 0        0.00000  -0.00001   0.00000   0.00000   0.00000
  83       16D+1        0.00002   0.00000   0.00000   0.00000   0.00000
  84       16D-1        0.00000  -0.00001  -0.00001   0.00000   0.00000
  85       16D+2        0.00000   0.00001   0.00001   0.00000   0.00000
  86       16D-2        0.00003   0.00000   0.00000   0.00000   0.00000
  87       17D 0        0.00000   0.00000   0.00000   0.00000   0.00000
  88       17D+1       -0.00002   0.00000   0.00000   0.00000   0.00000
  89       17D-1        0.00000   0.00001   0.00001   0.00000   0.00000
  90       17D+2        0.00000  -0.00002   0.00000   0.00000   0.00000
  91       17D-2       -0.00002   0.00000   0.00000   0.00000   0.00000
  92       18F 0        0.00000   0.00000   0.00000   0.00000   0.00000
  93       18F+1        0.00000   0.00000   0.00000   0.00000   0.00000
  94       18F-1        0.00000   0.00000   0.00000   0.00000   0.00000
  95       18F+2        0.00000   0.00000   0.00000   0.00000   0.00000
  96       18F-2        0.00000   0.00000   0.00000   0.00000   0.00000
  97       18F+3        0.00000   0.00000   0.00000   0.00000   0.00000
  98       18F-3        0.00000   0.00000   0.00000   0.00000   0.00000
  99       19F 0        0.00000   0.00000   0.00000   0.00000   0.00000
 100       19F+1        0.00000   0.00000   0.00000   0.00000   0.00000
 101       19F-1        0.00000   0.00000   0.00000   0.00000   0.00000
 102       19F+2        0.00000   0.00000   0.00000   0.00000   0.00000
 103       19F-2        0.00001   0.00000   0.00000   0.00000   0.00000
 104       19F+3       -0.00001   0.00000   0.00000   0.00000   0.00000
 105       19F-3        0.00000   0.00000   0.00000   0.00000   0.00000
 106 3   Br 1S          0.00000   0.21802  -0.22087  -0.90226   0.42772
 107        2S          0.00000  -0.70596   0.71749  -0.00474   0.00129
 108        3S          0.00000  -0.03010   0.03106  -0.00069   0.00027
 109        4S          0.00000   0.00020  -0.00019  -0.00002   0.00001
 110        5S          0.00000  -0.00071   0.00074   0.00000   0.00000
 111        6S          0.00000  -0.00004   0.00003   0.00002  -0.00001
 112        7S          0.00000  -0.00004  -0.00002   0.00000   0.00000
 113        8PX        -0.71306   0.00000   0.00000   0.00000   0.00000
 114        8PY         0.00000  -0.15283   0.10627   0.00231   0.00036
 115        8PZ         0.00000   0.08291  -0.06538  -0.00026  -0.00005
 116        9PX         0.01661   0.00000   0.00000   0.00000   0.00000
 117        9PY         0.00000   0.00252  -0.00307  -0.00014   0.00011
 118        9PZ         0.00000  -0.00125   0.00180   0.00006  -0.00004
 119       10PX        -0.00029   0.00000   0.00000   0.00000   0.00000
 120       10PY         0.00000  -0.00008   0.00006   0.00000   0.00000
 121       10PZ         0.00000   0.00005  -0.00004   0.00000   0.00000
 122       11PX         0.00124   0.00000   0.00000   0.00000   0.00000
 123       11PY         0.00000   0.00024  -0.00023  -0.00001   0.00000
 124       11PZ         0.00000  -0.00013   0.00013   0.00000   0.00000
 125       12PX         0.00013   0.00000   0.00000   0.00000   0.00000
 126       12PY         0.00000   0.00006  -0.00001  -0.00001   0.00000
 127       12PZ         0.00000  -0.00003   0.00002   0.00000   0.00000
 128       13PX        -0.00003   0.00000   0.00000   0.00000   0.00000
 129       13PY         0.00000   0.00000   0.00001   0.00000   0.00000
 130       13PZ         0.00000   0.00000   0.00000   0.00000   0.00000
 131       14D 0        0.00000   0.00003  -0.00004   0.00000   0.00000
 132       14D+1        0.00004   0.00000   0.00000   0.00000   0.00000
 133       14D-1        0.00000   0.00001   0.00000   0.00000   0.00000
 134       14D+2        0.00000  -0.00007   0.00007   0.00000   0.00000
 135       14D-2       -0.00011   0.00000   0.00000   0.00000   0.00000
 136       15D 0        0.00000   0.00000   0.00000   0.00000   0.00000
 137       15D+1        0.00001   0.00000   0.00000   0.00000   0.00000
 138       15D-1        0.00000   0.00000   0.00000   0.00000   0.00000
 139       15D+2        0.00000   0.00000   0.00000   0.00000   0.00000
 140       15D-2       -0.00002   0.00000   0.00000   0.00000   0.00000
 141       16D 0        0.00000   0.00001   0.00000   0.00000   0.00000
 142       16D+1       -0.00002   0.00000   0.00000   0.00000   0.00000
 143       16D-1        0.00000  -0.00001   0.00001   0.00000   0.00000
 144       16D+2        0.00000  -0.00001   0.00001   0.00000   0.00000
 145       16D-2        0.00003   0.00000   0.00000   0.00000   0.00000
 146       17D 0        0.00000   0.00000   0.00000   0.00000   0.00000
 147       17D+1        0.00002   0.00000   0.00000   0.00000   0.00000
 148       17D-1        0.00000   0.00001  -0.00001   0.00000   0.00000
 149       17D+2        0.00000   0.00002   0.00000   0.00000   0.00000
 150       17D-2       -0.00002   0.00000   0.00000   0.00000   0.00000
 151       18F 0        0.00000   0.00000   0.00000   0.00000   0.00000
 152       18F+1        0.00000   0.00000   0.00000   0.00000   0.00000
 153       18F-1        0.00000   0.00000   0.00000   0.00000   0.00000
 154       18F+2        0.00000   0.00000   0.00000   0.00000   0.00000
 155       18F-2        0.00000   0.00000   0.00000   0.00000   0.00000
 156       18F+3        0.00000   0.00000   0.00000   0.00000   0.00000
 157       18F-3        0.00000   0.00000   0.00000   0.00000   0.00000
 158       19F 0        0.00000   0.00000   0.00000   0.00000   0.00000
 159       19F+1        0.00000   0.00000   0.00000   0.00000   0.00000
 160       19F-1        0.00000   0.00000   0.00000   0.00000   0.00000
 161       19F+2        0.00000   0.00000   0.00000   0.00000   0.00000
 162       19F-2        0.00001   0.00000   0.00000   0.00000   0.00000
 163       19F+3        0.00001   0.00000   0.00000   0.00000   0.00000
 164       19F-3        0.00000   0.00000   0.00000   0.00000   0.00000
 165 4   O  1S          0.00000   0.00000   0.00061   0.00000   0.00000
 166        2S          0.00000   0.00000   0.00000   0.00000   0.00000
 167        3S          0.00000   0.00000   0.00003   0.00000   0.00000
 168        4S          0.00000   0.00000  -0.00002   0.00000   0.00000
 169        5S          0.00000   0.00000  -0.00005   0.00000   0.00001
 170        6PX         0.00000   0.00000   0.00000   0.00000   0.00000
 171        6PY         0.00000   0.00000   0.00000   0.00000   0.00000
 172        6PZ         0.00000   0.00000   0.00000   0.00000   0.00000
 173        7PX         0.00000   0.00000   0.00000   0.00000   0.00000
 174        7PY         0.00000   0.00000   0.00000   0.00000   0.00000
 175        7PZ         0.00000   0.00000   0.00001   0.00000   0.00000
 176        8PX         0.00000   0.00000   0.00000   0.00000   0.00000
 177        8PY         0.00000  -0.00003   0.00000   0.00000   0.00000
 178        8PZ         0.00000   0.00000   0.00001   0.00000   0.00000
 179        9PX         0.00000   0.00000   0.00000   0.00000   0.00000
 180        9PY         0.00000  -0.00001   0.00000   0.00000   0.00000
 181        9PZ         0.00000   0.00000   0.00001   0.00000   0.00000
 182       10D 0        0.00000   0.00000   0.00000   0.00000   0.00000
 183       10D+1        0.00000   0.00000   0.00000   0.00000   0.00000
 184       10D-1        0.00000   0.00000   0.00000   0.00000   0.00000
 185       10D+2        0.00000   0.00000   0.00000   0.00000   0.00000
 186       10D-2        0.00000   0.00000   0.00000   0.00000   0.00000
 187       11D 0        0.00000   0.00000   0.00000   0.00000   0.00000
 188       11D+1        0.00000   0.00000   0.00000   0.00000   0.00000
 189       11D-1        0.00000   0.00000   0.00000   0.00000   0.00000
 190       11D+2        0.00000   0.00000   0.00000   0.00000   0.00000
 191       11D-2        0.00000   0.00000   0.00000   0.00000   0.00000
 192       12D 0        0.00000   0.00000   0.00001   0.00000   0.00000
 193       12D+1        0.00000   0.00000   0.00000   0.00000   0.00000
 194       12D-1        0.00000   0.00001   0.00000   0.00000   0.00000
 195       12D+2        0.00000   0.00000   0.00001   0.00000   0.00000
 196       12D-2        0.00002   0.00000   0.00000   0.00000   0.00000
 197       13F 0        0.00000   0.00000   0.00000   0.00000   0.00000
 198       13F+1        0.00000   0.00000   0.00000   0.00000   0.00000
 199       13F-1        0.00000   0.00000   0.00000   0.00000   0.00000
 200       13F+2        0.00000   0.00000   0.00000   0.00000   0.00000
 201       13F-2        0.00000   0.00000   0.00000   0.00000   0.00000
 202       13F+3        0.00000   0.00000   0.00000   0.00000   0.00000
 203       13F-3        0.00000   0.00000   0.00000   0.00000   0.00000
 204       14F 0        0.00000   0.00000   0.00000   0.00000   0.00000
 205       14F+1        0.00000   0.00000   0.00000   0.00000   0.00000
 206       14F-1        0.00000   0.00000   0.00000   0.00000   0.00000
 207       14F+2        0.00000   0.00000   0.00000   0.00000   0.00000
[...]
 192       12D 0        4.61459   0.00000   0.00000  -1.29225   0.77891
 193       12D+1        0.00000   2.06582   0.00000   0.00000   0.00000
 194       12D-1        0.00000   0.00000  -0.24064   0.00000   0.00000
 195       12D+2       -0.55197   0.00000   0.00000   0.56080   0.05093
 196       12D-2        0.00000   0.00000   0.00000   0.00000   0.00000
 197       13F 0        0.02112   0.00000   0.00000   0.01592  -0.04639
 198       13F+1        0.00000   0.01869   0.00000   0.00000   0.00000
 199       13F-1        0.00000   0.00000   0.04812   0.00000   0.00000
 200       13F+2       -0.05393   0.00000   0.00000   0.02456  -0.01354
 201       13F-2        0.00000   0.00000   0.00000   0.00000   0.00000
 202       13F+3        0.00000   0.00450   0.00000   0.00000   0.00000
 203       13F-3        0.00000   0.00000  -0.02861   0.00000   0.00000
 204       14F 0       -1.28748   0.00000   0.00000   0.17077   0.01151
 205       14F+1        0.00000  -0.15207   0.00000   0.00000   0.00000
 206       14F-1        0.00000   0.00000  -0.12701   0.00000   0.00000
 207       14F+2        0.19366   0.00000   0.00000  -0.10000   0.04630
 208       14F-2        0.00000   0.00000   0.00000   0.00000   0.00000
 209       14F+3        0.00000   0.00263   0.00000   0.00000   0.00000
 210       14F-3        0.00000   0.00000   0.05957   0.00000   0.00000
                         206       207       208       209       210
     Eigenvalues --     0.00000   0.00000   0.00000   0.00000   0.00000
   1 1   C  1S          0.00000   0.00000   0.00000   0.21898   0.00111
   2        2S          0.00000   0.00000   0.00000   1.25586   0.04431
   3        3S          0.00000   0.00000   0.00000   0.00698   0.11079
   4        4S          0.00000   0.00000   0.00000   9.31889   3.54689
   5        5S          0.00000   0.00000   0.00000   3.63723  31.40700
   6        6PX         0.00381   0.00000   0.00000   0.00000   0.00000
   7        6PY         0.00000  -0.00115   0.00559   0.00000   0.00000
   8        6PZ         0.00000   0.00000   0.00000   0.01347   0.01074
   9        7PX        -0.31811   0.00000   0.00000   0.00000   0.00000
  10        7PY         0.00000  -0.24503  -0.12909   0.00000   0.00000
  11        7PZ         0.00000   0.00000   0.00000   1.35318   0.07136
  12        8PX        -0.31310   0.00000   0.00000   0.00000   0.00000
  13        8PY         0.00000  -5.55018   6.86474   0.00000   0.00000
  14        8PZ         0.00000   0.00000   0.00000   5.43487  -0.01769
  15        9PX         6.34597   0.00000   0.00000   0.00000   0.00000
  16        9PY         0.00000  -0.36787  13.99878   0.00000   0.00000
  17        9PZ         0.00000   0.00000   0.00000   5.90215  -3.83417
  18       10D 0        0.00000   0.00000   0.00000   0.08534   0.02117
  19       10D+1       -0.00688   0.00000   0.00000   0.00000   0.00000
  20       10D-1        0.00000   0.00799   0.02142   0.00000   0.00000
  21       10D+2        0.00000   0.00000   0.00000  -0.00539  -0.04830
  22       10D-2        0.00000   0.00000   0.00000   0.00000   0.00000
  23       11D 0        0.00000   0.00000   0.00000   0.59431  -0.21158
  24       11D+1       -0.44236   0.00000   0.00000   0.00000   0.00000
  25       11D-1        0.00000  -0.13765  -0.69668   0.00000   0.00000
  26       11D+2        0.00000   0.00000   0.00000   0.01832   0.18848
  27       11D-2        0.00000   0.00000   0.00000   0.00000   0.00000
  28       12D 0        0.00000   0.00000   0.00000   3.51363   0.24180
  29       12D+1        0.91356   0.00000   0.00000   0.00000   0.00000
  30       12D-1        0.00000  -0.18880  -0.39547   0.00000   0.00000
  31       12D+2        0.00000   0.00000   0.00000   1.39459  -1.02274
  32       12D-2        0.00000   0.00000   0.00000   0.00000   0.00000
  33       13F 0        0.00000   0.00000   0.00000   0.05148  -0.04527
  34       13F+1       -0.12071   0.00000   0.00000   0.00000   0.00000
  35       13F-1        0.00000  -0.01566  -0.06217   0.00000   0.00000
  36       13F+2        0.00000   0.00000   0.00000  -0.00237   0.00537
  37       13F-2        0.00000   0.00000   0.00000   0.00000   0.00000
  38       13F+3        0.05236   0.00000   0.00000   0.00000   0.00000
  39       13F-3        0.00000   0.04627  -0.00097   0.00000   0.00000
  40       14F 0        0.00000   0.00000   0.00000  -0.01528  -0.09263
  41       14F+1       -0.04776   0.00000   0.00000   0.00000   0.00000
  42       14F-1        0.00000  -0.01045  -0.01988   0.00000   0.00000
  43       14F+2        0.00000   0.00000   0.00000   0.12739  -0.17142
  44       14F-2        0.00000   0.00000   0.00000   0.00000   0.00000
  45       14F+3       -0.03158   0.00000   0.00000   0.00000   0.00000
  46       14F-3        0.00000  -0.06790  -0.10921   0.00000   0.00000
  47 2   Br 1S          0.00000   0.00217  -0.00003  -0.00001   0.00009
  48        2S          0.00000   0.01659  -0.00341  -0.00116   0.00068
  49        3S          0.00000   0.07735  -0.00827  -0.00280   0.00321
  50        4S          0.00000   0.22740  -0.05577  -0.01411   0.01049
  51        5S          0.00000   0.09012  -0.15557  -0.00281  -0.00238
  52        6S          0.00000  -0.73875   1.90298   0.84494   0.04798
  53        7S          0.00000  -9.98386  14.90587   2.09985 -13.49008
  54        8PX         0.00163   0.00000   0.00000   0.00000   0.00000
  55        8PY         0.00000   0.00098   0.00059   0.00064  -0.00039
  56        8PZ         0.00000   0.00059  -0.00003   0.00044   0.00005
  57        9PX        -0.02016   0.00000   0.00000   0.00000   0.00000
  58        9PY         0.00000   0.01662   0.00331  -0.00845   0.02557
  59        9PZ         0.00000   0.00146   0.01303  -0.00974   0.01480
  60       10PX        -0.15429   0.00000   0.00000   0.00000   0.00000
  61       10PY         0.00000   0.24641   0.06929  -0.06636   0.28083
  62       10PZ         0.00000   0.05044   0.15032  -0.09192   0.17664
  63       11PX         0.04524   0.00000   0.00000   0.00000   0.00000
  64       11PY         0.00000   0.00127  -0.00424   0.01863  -0.03516
  65       11PZ         0.00000   0.01553  -0.02350   0.01463  -0.01587
  66       12PX         0.66044   0.00000   0.00000   0.00000   0.00000
  67       12PY         0.00000  -3.69529   3.70902  -0.34990  -1.67408
  68       12PZ         0.00000  -2.35380   2.54064   1.58593  -1.31253
  69       13PX        -2.45107   0.00000   0.00000   0.00000   0.00000
  70       13PY         0.00000  -3.82779   0.39352   0.83616  -3.66180
  71       13PZ         0.00000  -0.93408   2.85285  -0.92401  -2.17408
  72       14D 0        0.00000  -0.00091  -0.00060   0.00118  -0.00097
  73       14D+1        0.00233   0.00000   0.00000   0.00000   0.00000
  74       14D-1        0.00000   0.00087  -0.00020  -0.00129   0.00114
  75       14D+2        0.00000  -0.00345  -0.00108   0.00224   0.00021
  76       14D-2        0.00099   0.00000   0.00000   0.00000   0.00000
  77       15D 0        0.00000   0.01490   0.00434  -0.01454   0.01322
  78       15D+1       -0.02801   0.00000   0.00000   0.00000   0.00000
  79       15D-1        0.00000   0.00207  -0.01502   0.00884  -0.01737
  80       15D+2        0.00000   0.03674   0.02470  -0.02376  -0.00134
  81       15D-2       -0.02127   0.00000   0.00000   0.00000   0.00000
  82       16D 0        0.00000  -0.09788  -0.00356   0.08816  -0.07459
  83       16D+1        0.11151   0.00000   0.00000   0.00000   0.00000
  84       16D-1        0.00000  -0.02872   0.30063  -0.05035   0.16951
  85       16D+2        0.00000  -0.19694  -0.27206   0.14442  -0.05872
  86       16D-2        0.09981   0.00000   0.00000   0.00000   0.00000
  87       17D 0        0.00000   0.17260   0.16587   0.32925   0.03881
  88       17D+1       -0.22010   0.00000   0.00000   0.00000   0.00000
  89       17D-1        0.00000  -1.41658   1.10172   0.29431  -0.75147
  90       17D+2        0.00000   1.77099  -0.51232   0.24923   0.34901
  91       17D-2       -0.02769   0.00000   0.00000   0.00000   0.00000
  92       18F 0        0.00000   0.00480   0.01923  -0.01481  -0.00453
  93       18F+1       -0.00929   0.00000   0.00000   0.00000   0.00000
  94       18F-1        0.00000   0.02795  -0.02451   0.00084   0.00693
  95       18F+2        0.00000  -0.04203   0.01315  -0.01464  -0.00846
  96       18F-2       -0.01305   0.00000   0.00000   0.00000   0.00000
  97       18F+3        0.05018   0.00000   0.00000   0.00000   0.00000
  98       18F-3        0.00000  -0.03986   0.01438  -0.01972  -0.01204
  99       19F 0        0.00000   0.02251  -0.10651   0.03110  -0.00989
 100       19F+1        0.00603   0.00000   0.00000   0.00000   0.00000
 101       19F-1        0.00000  -0.10902   0.13209   0.02715  -0.02976
 102       19F+2        0.00000   0.17817  -0.16408   0.05212   0.01750
 103       19F-2        0.02047   0.00000   0.00000   0.00000   0.00000
 104       19F+3       -0.11121   0.00000   0.00000   0.00000   0.00000
 105       19F-3        0.00000   0.16983  -0.10690   0.09923   0.02261
 106 3   Br 1S          0.00000  -0.00217   0.00003  -0.00001   0.00009
 107        2S          0.00000  -0.01659   0.00341  -0.00116   0.00068
 108        3S          0.00000  -0.07735   0.00827  -0.00280   0.00321
 109        4S          0.00000  -0.22740   0.05577  -0.01411   0.01049
 110        5S          0.00000  -0.09012   0.15557  -0.00281  -0.00238
 111        6S          0.00000   0.73875  -1.90298   0.84494   0.04798
 112        7S          0.00000   9.98386 -14.90587   2.09985 -13.49008
 113        8PX         0.00163   0.00000   0.00000   0.00000   0.00000
 114        8PY         0.00000   0.00098   0.00059  -0.00064   0.00039
 115        8PZ         0.00000  -0.00059   0.00003   0.00044   0.00005
 116        9PX        -0.02016   0.00000   0.00000   0.00000   0.00000
 117        9PY         0.00000   0.01662   0.00331   0.00845  -0.02557
 118        9PZ         0.00000  -0.00146  -0.01303  -0.00974   0.01480
 119       10PX        -0.15429   0.00000   0.00000   0.00000   0.00000
 120       10PY         0.00000   0.24641   0.06929   0.06636  -0.28083
 121       10PZ         0.00000  -0.05044  -0.15032  -0.09192   0.17664
 122       11PX         0.04524   0.00000   0.00000   0.00000   0.00000
 123       11PY         0.00000   0.00127  -0.00424  -0.01863   0.03516
 124       11PZ         0.00000  -0.01553   0.02350   0.01463  -0.01587
 125       12PX         0.66044   0.00000   0.00000   0.00000   0.00000
 126       12PY         0.00000  -3.69529   3.70902   0.34990   1.67408
 127       12PZ         0.00000   2.35380  -2.54064   1.58593  -1.31253
 128       13PX        -2.45107   0.00000   0.00000   0.00000   0.00000
 129       13PY         0.00000  -3.82779   0.39352  -0.83616   3.66180
 130       13PZ         0.00000   0.93408  -2.85285  -0.92401  -2.17408
 131       14D 0        0.00000   0.00091   0.00060   0.00118  -0.00097
 132       14D+1        0.00233   0.00000   0.00000   0.00000   0.00000
 133       14D-1        0.00000   0.00087  -0.00020   0.00129  -0.00114
 134       14D+2        0.00000   0.00345   0.00108   0.00224   0.00021
 135       14D-2       -0.00099   0.00000   0.00000   0.00000   0.00000
 136       15D 0        0.00000  -0.01490  -0.00434  -0.01454   0.01322
 137       15D+1       -0.02801   0.00000   0.00000   0.00000   0.00000
 138       15D-1        0.00000   0.00207  -0.01502  -0.00884   0.01737
 139       15D+2        0.00000  -0.03674  -0.02470  -0.02376  -0.00134
 140       15D-2        0.02127   0.00000   0.00000   0.00000   0.00000
 141       16D 0        0.00000   0.09788   0.00356   0.08816  -0.07459
 142       16D+1        0.11151   0.00000   0.00000   0.00000   0.00000
 143       16D-1        0.00000  -0.02872   0.30063   0.05035  -0.16951
 144       16D+2        0.00000   0.19694   0.27206   0.14442  -0.05872
 145       16D-2       -0.09981   0.00000   0.00000   0.00000   0.00000
 146       17D 0        0.00000  -0.17260  -0.16587   0.32925   0.03881
 147       17D+1       -0.22010   0.00000   0.00000   0.00000   0.00000
 148       17D-1        0.00000  -1.41658   1.10172  -0.29431   0.75147
 149       17D+2        0.00000  -1.77099   0.51232   0.24923   0.34901
 150       17D-2        0.02769   0.00000   0.00000   0.00000   0.00000
 151       18F 0        0.00000  -0.00480  -0.01923  -0.01481  -0.00453
 152       18F+1       -0.00929   0.00000   0.00000   0.00000   0.00000
 153       18F-1        0.00000   0.02795  -0.02451  -0.00084  -0.00693
 154       18F+2        0.00000   0.04203  -0.01315  -0.01464  -0.00846
 155       18F-2        0.01305   0.00000   0.00000   0.00000   0.00000
 156       18F+3        0.05018   0.00000   0.00000   0.00000   0.00000
 157       18F-3        0.00000  -0.03986   0.01438   0.01972   0.01204
 158       19F 0        0.00000  -0.02251   0.10651   0.03110  -0.00989
 159       19F+1        0.00603   0.00000   0.00000   0.00000   0.00000
 160       19F-1        0.00000  -0.10902   0.13209  -0.02715   0.02976
 161       19F+2        0.00000  -0.17817   0.16408   0.05212   0.01750
 162       19F-2       -0.02047   0.00000   0.00000   0.00000   0.00000
 163       19F+3       -0.11121   0.00000   0.00000   0.00000   0.00000
 164       19F-3        0.00000   0.16983  -0.10690  -0.09923  -0.02261
 165 4   O  1S          0.00000   0.00000   0.00000   0.09945   0.02960
 166        2S          0.00000   0.00000   0.00000   0.52313   0.15487
 167        3S          0.00000   0.00000   0.00000   0.00491  -0.00584
 168        4S          0.00000   0.00000   0.00000  -6.19830   0.01785
 169        5S          0.00000   0.00000   0.00000 -15.14754  -8.04509
 170        6PX         0.01945   0.00000   0.00000   0.00000   0.00000
 171        6PY         0.00000   0.01526   0.00272   0.00000   0.00000
 172        6PZ         0.00000   0.00000   0.00000  -0.00527   0.01152
 173        7PX        -0.03525   0.00000   0.00000   0.00000   0.00000
 174        7PY         0.00000  -0.07988   0.03682   0.00000   0.00000
 175        7PZ         0.00000   0.00000   0.00000   0.14093  -0.13512
 176        8PX         0.79391   0.00000   0.00000   0.00000   0.00000
 177        8PY         0.00000   1.01615   0.12991   0.00000   0.00000
 178        8PZ         0.00000   0.00000   0.00000   3.76212   0.67420
 179        9PX        -3.48217   0.00000   0.00000   0.00000   0.00000
 180        9PY         0.00000  -0.78409  -3.69448   0.00000   0.00000
 181        9PZ         0.00000   0.00000   0.00000   0.27482   1.67583
 182       10D 0        0.00000   0.00000   0.00000   0.05475   0.01251
 183       10D+1        0.03578   0.00000   0.00000   0.00000   0.00000
 184       10D-1        0.00000   0.00145   0.03698   0.00000   0.00000
 185       10D+2        0.00000   0.00000   0.00000  -0.02697  -0.01071
 186       10D-2        0.00000   0.00000   0.00000   0.00000   0.00000
 187       11D 0        0.00000   0.00000   0.00000  -0.40241  -0.02891
 188       11D+1       -0.23900   0.00000   0.00000   0.00000   0.00000
 189       11D-1        0.00000  -0.03552  -0.20756   0.00000   0.00000
 190       11D+2        0.00000   0.00000   0.00000   0.07719   0.03414
 191       11D-2        0.00000   0.00000   0.00000   0.00000   0.00000
 192       12D 0        0.00000   0.00000   0.00000  -0.49835  -0.18917
 193       12D+1       -0.09152   0.00000   0.00000   0.00000   0.00000
 194       12D-1        0.00000  -0.30740   0.15519   0.00000   0.00000
 195       12D+2        0.00000   0.00000   0.00000  -0.37666   0.05729
 196       12D-2        0.00000   0.00000   0.00000   0.00000   0.00000
 197       13F 0        0.00000   0.00000   0.00000   0.01822  -0.01332
 198       13F+1       -0.00541   0.00000   0.00000   0.00000   0.00000
 199       13F-1        0.00000  -0.01476  -0.00259   0.00000   0.00000
 200       13F+2        0.00000   0.00000   0.00000  -0.01313   0.01479
 201       13F-2        0.00000   0.00000   0.00000   0.00000   0.00000
 202       13F+3        0.01410   0.00000   0.00000   0.00000   0.00000
 203       13F-3        0.00000  -0.00984   0.01627   0.00000   0.00000
 204       14F 0        0.00000   0.00000   0.00000   0.14357   0.06400
 205       14F+1        0.17014   0.00000   0.00000   0.00000   0.00000
 206       14F-1        0.00000   0.07267   0.09696   0.00000   0.00000
 207       14F+2        0.00000   0.00000   0.00000   0.05864  -0.03815
 208       14F-2        0.00000   0.00000   0.00000   0.00000   0.00000
 209       14F+3       -0.02567   0.00000   0.00000   0.00000   0.00000
 210       14F-3        0.00000   0.02498  -0.02838   0.00000   0.00000
          Condensed to atoms (all electrons):
              1          2          3          4
     1  C    5.559217   0.025734   0.025734   0.239657
     2  Br   0.025734  35.045296  -0.118496  -0.056261
     3  Br   0.025734  -0.118496  35.045296  -0.056261
     4  O    0.239657  -0.056261  -0.056261   8.229978
 Mulliken atomic charges:
              1
     1  C    0.149657
     2  Br   0.103727
     3  Br   0.103727
     4  O   -0.357112
 Sum of Mulliken atomic charges =   0.00000
 Mulliken charges with hydrogens summed into heavy atoms:
              1
     1  C    0.149657
     2  Br   0.103727
     3  Br   0.103727
     4  O   -0.357112
 Sum of Mulliken charges with hydrogens summed into heavy atoms =   0.00000
 Electronic spatial extent (au):  <R**2>=           1355.6161
 Charge=              0.0000 electrons
 Dipole moment (field-independent basis, Debye):
    X=              0.0000    Y=              0.0000    Z=             -1.2404  Tot=              1.2404
 Quadrupole moment (field-independent basis, Debye-Ang):
   XX=            -46.9633   YY=            -44.9357   ZZ=            -47.5252
   XY=              0.0000   XZ=              0.0000   YZ=              0.0000
 Traceless Quadrupole moment (field-independent basis, Debye-Ang):
   XX=             -0.4886   YY=              1.5391   ZZ=             -1.0505
   XY=              0.0000   XZ=              0.0000   YZ=              0.0000
 Octapole moment (field-independent basis, Debye-Ang**2):
  XXX=              0.0000  YYY=              0.0000  ZZZ=            164.8162  XYY=              0.0000
  XXY=              0.0000  XXZ=             56.3135  XZZ=              0.0000  YZZ=              0.0000
  YYZ=             45.7169  XYZ=              0.0000
 Hexadecapole moment (field-independent basis, Debye-Ang**3):
 XXXX=            -53.6974 YYYY=           -570.9346 ZZZZ=           -597.1021 XXXY=              0.0000
 XXXZ=              0.0000 YYYX=              0.0000 YYYZ=              0.0000 ZZZX=              0.0000
 ZZZY=              0.0000 XXYY=           -111.3604 XXZZ=           -110.4163 YYZZ=           -175.0970
 XXYZ=              0.0000 YYXZ=              0.0000 ZZXY=              0.0000
 N-N= 4.492323209223D+02 E-N=-1.347022216793D+04  KE= 5.257230208760D+03
 1\1\GINC-TRAPISTA\SP\RQCISD-FC\Aug-CC-pVTZ\C1Br2O1\BRUNS\28-Nov-2021\0
 \\# qcisd/aug-cc-pvtz nosymm density=current output=wfn\\br2co-wavefun
 ction\\0,1\C,0,0.,0.,-0.491759\Br,0,0.,-1.594181,-1.54682\Br,0,0.,1.59
 4181,-1.54682\O,0,0.,0.,0.6845\\Version=EM64L-G09RevB.01\HF=-5257.6845
 494\MP2=-5258.5486104\MP3=-5258.548471\MP4D=-5258.5696807\MP4DQ=-5258.
 5482016\MP4SDQ=-5258.5601684\QCISD=-5258.557769\RMSD=9.212e-09\Dipole=
 0.,0.,-0.4880114\Quadrupole=-0.363243,1.1442606,-0.7810175,0.,0.,0.\PG
 =C02V [C2(C1O1),SGV(Br2)]\\@

 Writing a WFN file to GAUSSIAN.wfn.


 IT IS WELL TO REMEMBER THAT MAN IS A PART OF NATURE AND THAT HIS WORKS,
 WHATEVER THEY MAY BE, ARE NO MORE "UNNATURAL" THAN 
 THE FLIGHT OF AN EAGLE OR THE PASSAGE OF A TORNADO.

                                    -- CHARLES MCCARRY IN "THE GREAT SOUTHWEST"
 Job cpu time:  0 days  5 hours 15 minutes  1.7 seconds.
 File lengths (MBytes):  RWF=  23799 Int=      0 D2E=      0 Chk=      4 Scr=      1
 Normal termination of Gaussian 09 at Sun Nov 28 05:07:54 2021.
