 Entering Gaussian System, Link 0=/home/bruns/programas/chemistry/gaussian/g09/g09
 Input=GAUSSIAN.com
 Output=GAUSSIAN.log
 Initial command:
 /home/bruns/programas/chemistry/gaussian/g09/l1.exe /home/bruns/programas/chemistry/gaussian/work/Gau-69296.inp -scrdir=/home/bruns/programas/chemistry/gaussian/work/
 Entering Link 1 = /home/bruns/programas/chemistry/gaussian/g09/l1.exe PID=     69298.
  
 Copyright (c) 1988,1990,1992,1993,1995,1998,2003,2009,2010,
            Gaussian, Inc.  All Rights Reserved.
  
 This is part of the Gaussian(R) 09 program.  It is based on
 the Gaussian(R) 03 system (copyright 2003, Gaussian, Inc.),
 the Gaussian(R) 98 system (copyright 1998, Gaussian, Inc.),
 the Gaussian(R) 94 system (copyright 1995, Gaussian, Inc.),
 the Gaussian 92(TM) system (copyright 1992, Gaussian, Inc.),
 the Gaussian 90(TM) system (copyright 1990, Gaussian, Inc.),
 the Gaussian 88(TM) system (copyright 1988, Gaussian, Inc.),
 the Gaussian 86(TM) system (copyright 1986, Carnegie Mellon
 University), and the Gaussian 82(TM) system (copyright 1983,
 Carnegie Mellon University). Gaussian is a federally registered
 trademark of Gaussian, Inc.
  
 This software contains proprietary and confidential information,
 including trade secrets, belonging to Gaussian, Inc.
  
 This software is provided under written license and may be
 used, copied, transmitted, or stored only in accord with that
 written license.
  
 The following legend is applicable only to US Government
 contracts under FAR:
  
                    RESTRICTED RIGHTS LEGEND
  
 Use, reproduction and disclosure by the US Government is
 subject to restrictions as set forth in subparagraphs (a)
 and (c) of the Commercial Computer Software - Restricted
 Rights clause in FAR 52.227-19.
  
 Gaussian, Inc.
 340 Quinnipiac St., Bldg. 40, Wallingford CT 06492
  
  
 ---------------------------------------------------------------
 Warning -- This program may not be used in any manner that
 competes with the business of Gaussian, Inc. or will provide
 assistance to any competitor of Gaussian, Inc.  The licensee
 of this program is prohibited from giving any competitor of
 Gaussian, Inc. access to this program.  By using this program,
 the user acknowledges that Gaussian, Inc. is engaged in the
 business of creating and licensing software in the field of
 computational chemistry and represents and warrants to the
 licensee that it is not a competitor of Gaussian, Inc. and that
 it will not use this program in any manner prohibited above.
 ---------------------------------------------------------------
  

 Cite this work as:
 Gaussian 09, Revision B.01,
 M. J. Frisch, G. W. Trucks, H. B. Schlegel, G. E. Scuseria, 
 M. A. Robb, J. R. Cheeseman, G. Scalmani, V. Barone, B. Mennucci, 
 G. A. Petersson, H. Nakatsuji, M. Caricato, X. Li, H. P. Hratchian, 
 A. F. Izmaylov, J. Bloino, G. Zheng, J. L. Sonnenberg, M. Hada, 
 M. Ehara, K. Toyota, R. Fukuda, J. Hasegawa, M. Ishida, T. Nakajima, 
 Y. Honda, O. Kitao, H. Nakai, T. Vreven, J. A. Montgomery, Jr., 
 J. E. Peralta, F. Ogliaro, M. Bearpark, J. J. Heyd, E. Brothers, 
 K. N. Kudin, V. N. Staroverov, T. Keith, R. Kobayashi, J. Normand, 
 K. Raghavachari, A. Rendell, J. C. Burant, S. S. Iyengar, J. Tomasi, 
 M. Cossi, N. Rega, J. M. Millam, M. Klene, J. E. Knox, J. B. Cross, 
 V. Bakken, C. Adamo, J. Jaramillo, R. Gomperts, R. E. Stratmann, 
 O. Yazyev, A. J. Austin, R. Cammi, C. Pomelli, J. W. Ochterski, 
 R. L. Martin, K. Morokuma, V. G. Zakrzewski, G. A. Voth, 
 P. Salvador, J. J. Dannenberg, S. Dapprich, A. D. Daniels, 
 O. Farkas, J. B. Foresman, J. V. Ortiz, J. Cioslowski, 
 and D. J. Fox, Gaussian, Inc., Wallingford CT, 2010.
 
 ******************************************
 Gaussian 09:  EM64L-G09RevB.01 12-Aug-2010
                28-Nov-2021 
 ******************************************
 %nproc=8
 Will use up to    8 processors via shared memory.
 %mem=8GB
 -----------------------------------------------------
 # qcisd/aug-cc-pvtz nosymm density=current output=wfn
 -----------------------------------------------------
 1/30=1,38=1/1;
 2/12=2,15=1,17=6,18=5,40=1/2;
 3/5=16,6=1,7=10,11=9,16=1,25=1,30=1,71=1/1,2,3;
 4//1;
 5/5=2,38=5/2;
 8/6=4,9=120000,10=1/1,4;
 9/5=8,15=1/13;
 11/28=-7,31=1,32=3,42=3/11;
 10/5=6,13=10,31=1/2;
 6/7=2,8=2,9=2,10=2,22=-1,31=1/1;
 99/5=1,6=1100,9=1/99;
 ------------------
 br2co-wavefunction
 ------------------
 Symbolic Z-matrix:
 Charge =  0 Multiplicity = 1
 C                    -0.01      0.       -0.49176 
 Br                    0.       -1.59418  -1.54682 
 Br                    0.        1.59418  -1.54682 
 O                     0.        0.        0.6845 
 
                          Input orientation:                          
 ---------------------------------------------------------------------
 Center     Atomic      Atomic             Coordinates (Angstroms)
 Number     Number       Type             X           Y           Z
 ---------------------------------------------------------------------
      1          6           0       -0.010000    0.000000   -0.491759
      2         35           0        0.000000   -1.594181   -1.546820
      3         35           0        0.000000    1.594181   -1.546820
      4          8           0        0.000000    0.000000    0.684500
 ---------------------------------------------------------------------
                    Distance matrix (angstroms):
                    1          2          3          4
     1  C    0.000000
     2  Br   1.911718   0.000000
     3  Br   1.911718   3.188362   0.000000
     4  O    1.176302   2.742299   2.742299   0.000000
 Symmetry turned off by external request.
 Stoichiometry    CBr2O
 Framework group  CS[SG(CO),X(Br2)]
 Deg. of freedom     4
 Full point group                 CS      NOp   2
 Rotational constants (GHZ):      6.2846972      1.2598909      1.0495027
 Standard basis: Aug-CC-pVTZ (5D, 7F)
 Integral buffers will be    131072 words long.
 Raffenetti 1 integral format.
 Two-electron integral symmetry is turned off.
   210 basis functions,   578 primitive gaussians,   248 cartesian basis functions
    42 alpha electrons       42 beta electrons
       nuclear repulsion energy       449.2299500015 Hartrees.
 NAtoms=    4 NActive=    4 NUniq=    4 SFac= 1.00D+00 NAtFMM=   50 NAOKFM=F Big=F
 One-electron integrals computed using PRISM.
 NBasis=   210 RedAO= T  NBF=   210
 NBsUse=   210 1.00D-06 NBFU=   210
 Harris functional with IExCor=  205 diagonalized for initial guess.
 ExpMin= 3.51D-02 ExpMax= 1.06D+07 ExpMxC= 1.21D+04 IAcc=3 IRadAn=         0 AccDes= 0.00D+00
 HarFok:  IExCor=  205 AccDes= 0.00D+00 IRadAn=         0 IDoV= 1
 ScaDFX=  1.000000  1.000000  1.000000  1.000000
 FoFCou: FMM=F IPFlag=           0 FMFlag=      100000 FMFlg1=           0
         NFxFlg=           0 DoJE=T BraDBF=F KetDBF=T FulRan=T
         Omega=  0.000000  0.000000  1.000000  0.000000  0.000000 ICntrl=     500 IOpCl=  0
         NMat0=    1 NMatS0=    1 NMatT0=    0 NMatD0=    1 NMtDS0=    0 NMtDT0=    0
         I1Cent=           4 NGrid=           0.
 Symmetry not used in FoFCou.
 Requested convergence on RMS density matrix=1.00D-08 within 128 cycles.
 Requested convergence on MAX density matrix=1.00D-06.
 Requested convergence on             energy=1.00D-06.
 No special actions if energy rises.
 Keep R1 ints in memory in canonical form, NReq=484604278.
 SCF Done:  E(RHF) =  -5257.68452301     A.U. after   12 cycles
             Convg  =    0.9224D-08             -V/T =  2.0000
 ExpMin= 3.51D-02 ExpMax= 1.06D+07 ExpMxC= 1.21D+04 IAcc=3 IRadAn=         5 AccDes= 0.00D+00
 HarFok:  IExCor=  205 AccDes= 0.00D+00 IRadAn=         5 IDoV=-2
 ScaDFX=  1.000000  1.000000  1.000000  1.000000
 DSYEVD returned Info=          93 IAlg= 4 N=    46 NDim=    46 NE2=    18196533 trying DSYEV.
 DSYEVD returned Info=          89 IAlg= 4 N=    59 NDim=    59 NE2=    18196533 trying DSYEV.
 DSYEVD returned Info=          89 IAlg= 4 N=    59 NDim=    59 NE2=    18196533 trying DSYEV.
 Range of M.O.s used for correlation:    21   210
 NBasis=   210 NAE=    42 NBE=    42 NFC=    20 NFV=     0
 NROrb=    190 NOA=    22 NOB=    22 NVA=   168 NVB=   168

 **** Warning!!: The largest alpha MO coefficient is  0.28095050D+02

 Semi-Direct transformation.
 ModeAB=           2 MOrb=            22 LenV=    1072497277
 LASXX=     69628944 LTotXX=    69628944 LenRXX=    69628944
 LTotAB=    70719517 MaxLAS=   129061680 LenRXY=   129061680
 NonZer=   139257888 LenScr=   209707008 LnRSAI=           0
 LnScr1=           0 LExtra=           0 Total=    408397632
 MaxDsk=          -1 SrtSym=           F ITran=            4
 JobTyp=0 Pass  1:  I=   1 to  22.
 (rs|ai) integrals will be sorted in core.
 Spin components of T(2) and E(2):
     alpha-alpha T2 =       0.3832296465D-01 E2=     -0.1232787254D+00
     alpha-beta  T2 =       0.1924992344D+00 E2=     -0.6175117787D+00
     beta-beta   T2 =       0.3832296465D-01 E2=     -0.1232787254D+00
 ANorm=    0.1126563431D+01
 E2 =    -0.8640692295D+00 EUMP2 =    -0.52585485922348D+04
 R2 and R3 integrals will be kept in memory, NReq=   961077252.
 Iterations=  50 Convergence= 0.100D-07
 Iteration Nr.   1
 **********************
 DD1Dir will call FoFMem   1 times, MxPair=       506
 NAB=   253 NAA=     0 NBB=     0.
 MP4(R+Q)=  0.21480159D-01
 E3=        0.14190007D-03        EUMP3=      -0.52585484503D+04
 E4(DQ)=    0.26872297D-03        UMP4(DQ)=   -0.52585481816D+04
 E4(SDQ)=  -0.11699164D-01        UMP4(SDQ)=  -0.52585601495D+04
 DE(Corr)= -0.84244717     E(Corr)=     -5258.5269702    
 NORM(A)=   0.11248513D+01
 Iteration Nr.   2
 **********************
 DD1Dir will call FoFMem   1 times, MxPair=       506
 NAB=   253 NAA=     0 NBB=     0.
 DE(Corr)= -0.87234561     E(CORR)=     -5258.5568686     Delta=-2.99D-02
 NORM(A)=   0.11352519D+01
 Iteration Nr.   3
 **********************
 DD1Dir will call FoFMem   1 times, MxPair=       506
 NAB=   253 NAA=     0 NBB=     0.
 DE(Corr)= -0.87024100     E(CORR)=     -5258.5547640     Delta= 2.10D-03
 NORM(A)=   0.11380143D+01
 Iteration Nr.   4
 **********************
 DD1Dir will call FoFMem   1 times, MxPair=       506
 NAB=   253 NAA=     0 NBB=     0.
 DE(Corr)= -0.87277172     E(CORR)=     -5258.5572947     Delta=-2.53D-03
 NORM(A)=   0.11393273D+01
 Iteration Nr.   5
 **********************
 DD1Dir will call FoFMem   1 times, MxPair=       506
 NAB=   253 NAA=     0 NBB=     0.
 DE(Corr)= -0.87314624     E(CORR)=     -5258.5576692     Delta=-3.75D-04
 NORM(A)=   0.11398423D+01
 Iteration Nr.   6
 **********************
 DD1Dir will call FoFMem   1 times, MxPair=       506
 NAB=   253 NAA=     0 NBB=     0.
 DE(Corr)= -0.87321052     E(CORR)=     -5258.5577335     Delta=-6.43D-05
 NORM(A)=   0.11399464D+01
 Iteration Nr.   7
 **********************
 DD1Dir will call FoFMem   1 times, MxPair=       506
 NAB=   253 NAA=     0 NBB=     0.
 DE(Corr)= -0.87322483     E(CORR)=     -5258.5577478     Delta=-1.43D-05
 NORM(A)=   0.11399552D+01
 Iteration Nr.   8
 **********************
 DD1Dir will call FoFMem   1 times, MxPair=       506
 NAB=   253 NAA=     0 NBB=     0.
 DE(Corr)= -0.87322517     E(CORR)=     -5258.5577482     Delta=-3.36D-07
 NORM(A)=   0.11399703D+01
 Iteration Nr.   9
 **********************
 DD1Dir will call FoFMem   1 times, MxPair=       506
 NAB=   253 NAA=     0 NBB=     0.
 DE(Corr)= -0.87322324     E(CORR)=     -5258.5577462     Delta= 1.93D-06
 NORM(A)=   0.11399702D+01
 Iteration Nr.  10
 **********************
 DD1Dir will call FoFMem   1 times, MxPair=       506
 NAB=   253 NAA=     0 NBB=     0.
 DE(Corr)= -0.87322465     E(CORR)=     -5258.5577477     Delta=-1.41D-06
 NORM(A)=   0.11399730D+01
 Iteration Nr.  11
 **********************
 DD1Dir will call FoFMem   1 times, MxPair=       506
 NAB=   253 NAA=     0 NBB=     0.
 DE(Corr)= -0.87322579     E(CORR)=     -5258.5577488     Delta=-1.13D-06
 NORM(A)=   0.11399748D+01
 Iteration Nr.  12
 **********************
 DD1Dir will call FoFMem   1 times, MxPair=       506
 NAB=   253 NAA=     0 NBB=     0.
 DE(Corr)= -0.87322610     E(CORR)=     -5258.5577491     Delta=-3.16D-07
 NORM(A)=   0.11399758D+01
 Iteration Nr.  13
 **********************
 DD1Dir will call FoFMem   1 times, MxPair=       506
 NAB=   253 NAA=     0 NBB=     0.
 DE(Corr)= -0.87322657     E(CORR)=     -5258.5577496     Delta=-4.67D-07
 NORM(A)=   0.11399765D+01
 Iteration Nr.  14
 **********************
 DD1Dir will call FoFMem   1 times, MxPair=       506
 NAB=   253 NAA=     0 NBB=     0.
 DE(Corr)= -0.87322668     E(CORR)=     -5258.5577497     Delta=-1.10D-07
 NORM(A)=   0.11399768D+01
 Iteration Nr.  15
 **********************
 DD1Dir will call FoFMem   1 times, MxPair=       506
 NAB=   253 NAA=     0 NBB=     0.
 DE(Corr)= -0.87322675     E(CORR)=     -5258.5577498     Delta=-6.96D-08
 NORM(A)=   0.11399770D+01
 Iteration Nr.  16
 **********************
 DD1Dir will call FoFMem   1 times, MxPair=       506
 NAB=   253 NAA=     0 NBB=     0.
 DE(Corr)= -0.87322678     E(CORR)=     -5258.5577498     Delta=-2.88D-08
 NORM(A)=   0.11399771D+01
 Iteration Nr.  17
 **********************
 DD1Dir will call FoFMem   1 times, MxPair=       506
 NAB=   253 NAA=     0 NBB=     0.
 DE(Corr)= -0.87322677     E(CORR)=     -5258.5577498     Delta= 7.52D-09
 NORM(A)=   0.11399771D+01
 Iteration Nr.  18
 **********************
 DD1Dir will call FoFMem   1 times, MxPair=       506
 NAB=   253 NAA=     0 NBB=     0.
 DE(Corr)= -0.87322676     E(CORR)=     -5258.5577498     Delta= 6.50D-09
 NORM(A)=   0.11399771D+01
 Iteration Nr.  19
 **********************
 DD1Dir will call FoFMem   1 times, MxPair=       506
 NAB=   253 NAA=     0 NBB=     0.
 DE(Corr)= -0.87322679     E(CORR)=     -5258.5577498     Delta=-2.13D-08
 NORM(A)=   0.11399771D+01
 Iteration Nr.  20
 **********************
 DD1Dir will call FoFMem   1 times, MxPair=       506
 NAB=   253 NAA=     0 NBB=     0.
 DE(Corr)= -0.87322679     E(CORR)=     -5258.5577498     Delta=-2.93D-09
 NORM(A)=   0.11399771D+01
 Iteration Nr.  21
 **********************
 DD1Dir will call FoFMem   1 times, MxPair=       506
 NAB=   253 NAA=     0 NBB=     0.
 DE(Corr)= -0.87322679     E(CORR)=     -5258.5577498     Delta=-2.15D-09
 NORM(A)=   0.11399770D+01
 Iteration Nr.  22
 **********************
 DD1Dir will call FoFMem   1 times, MxPair=       506
 NAB=   253 NAA=     0 NBB=     0.
 DE(Corr)= -0.87322678     E(CORR)=     -5258.5577498     Delta= 6.09D-09
 NORM(A)=   0.11399771D+01
 Iteration Nr.  23
 **********************
 DD1Dir will call FoFMem   1 times, MxPair=       506
 NAB=   253 NAA=     0 NBB=     0.
 DE(Corr)= -0.87322678     E(CORR)=     -5258.5577498     Delta=-4.01D-10
 NORM(A)=   0.11399771D+01
 Iteration Nr.  24
 **********************
 DD1Dir will call FoFMem   1 times, MxPair=       506
 NAB=   253 NAA=     0 NBB=     0.
 DE(Corr)= -0.87322679     E(CORR)=     -5258.5577498     Delta=-5.74D-10
 NORM(A)=   0.11399771D+01
 Iteration Nr.  25
 **********************
 DD1Dir will call FoFMem   1 times, MxPair=       506
 NAB=   253 NAA=     0 NBB=     0.
 DE(Corr)= -0.87322678     E(CORR)=     -5258.5577498     Delta= 8.27D-10
 NORM(A)=   0.11399771D+01
 Largest amplitude= 4.22D-02

 Z-AMPLITUDE ITERATIONS

 Iteration Nr.   1
 **********************
 DD1Dir will call FoFMem   1 times, MxPair=       506
 NAB=   253 NAA=     0 NBB=     0.
 DE(Z)  -0.84605062D+00          E(Z)=    -0.52585305736D+04
 NORM(A)=   0.11399049D+01
 Iteration Nr.   2
 **********************
 DD1Dir will call FoFMem   1 times, MxPair=       506
 NAB=   253 NAA=     0 NBB=     0.
 DE(Z)  -0.84605050D+00          E(Z)=    -0.52585305735D+04
 NORM(A)=   0.11398663D+01
 Iteration Nr.   3
 **********************
 DD1Dir will call FoFMem   1 times, MxPair=       506
 NAB=   253 NAA=     0 NBB=     0.
 DE(Z)  -0.84605047D+00          E(Z)=    -0.52585305735D+04
 NORM(A)=   0.11398062D+01
 Iteration Nr.   4
 **********************
 DD1Dir will call FoFMem   1 times, MxPair=       506
 NAB=   253 NAA=     0 NBB=     0.
 DE(Z)  -0.84605044D+00          E(Z)=    -0.52585305734D+04
 NORM(A)=   0.11397346D+01
 Iteration Nr.   5
 **********************
 DD1Dir will call FoFMem   1 times, MxPair=       506
 NAB=   253 NAA=     0 NBB=     0.
 DE(Z)  -0.84604966D+00          E(Z)=    -0.52585305727D+04
 NORM(A)=   0.11301222D+01
 Iteration Nr.   6
 **********************
 DD1Dir will call FoFMem   1 times, MxPair=       506
 NAB=   253 NAA=     0 NBB=     0.
 DE(Z)  -0.84602066D+00          E(Z)=    -0.52585305437D+04
 NORM(A)=   0.11301228D+01
 Iteration Nr.   7
 **********************
 DD1Dir will call FoFMem   1 times, MxPair=       506
 NAB=   253 NAA=     0 NBB=     0.
 DE(Z)  -0.84601851D+00          E(Z)=    -0.52585305415D+04
 NORM(A)=   0.11301234D+01
 Iteration Nr.   8
 **********************
 DD1Dir will call FoFMem   1 times, MxPair=       506
 NAB=   253 NAA=     0 NBB=     0.
 DE(Z)  -0.84601893D+00          E(Z)=    -0.52585305419D+04
 NORM(A)=   0.11301235D+01
 Iteration Nr.   9
 **********************
 DD1Dir will call FoFMem   1 times, MxPair=       506
 NAB=   253 NAA=     0 NBB=     0.
 DE(Z)  -0.84601857D+00          E(Z)=    -0.52585305416D+04
 NORM(A)=   0.11301237D+01
 Iteration Nr.  10
 **********************
 DD1Dir will call FoFMem   1 times, MxPair=       506
 NAB=   253 NAA=     0 NBB=     0.
 DE(Z)  -0.84601852D+00          E(Z)=    -0.52585305415D+04
 NORM(A)=   0.11301238D+01
 Iteration Nr.  11
 **********************
 DD1Dir will call FoFMem   1 times, MxPair=       506
 NAB=   253 NAA=     0 NBB=     0.
 DE(Z)  -0.84601860D+00          E(Z)=    -0.52585305416D+04
 NORM(A)=   0.11301239D+01
 Iteration Nr.  12
 **********************
 DD1Dir will call FoFMem   1 times, MxPair=       506
 NAB=   253 NAA=     0 NBB=     0.
 DE(Z)  -0.84601857D+00          E(Z)=    -0.52585305416D+04
 NORM(A)=   0.11301237D+01
 Iteration Nr.  13
 **********************
 DD1Dir will call FoFMem   1 times, MxPair=       506
 NAB=   253 NAA=     0 NBB=     0.
 DE(Z)  -0.84601862D+00          E(Z)=    -0.52585305416D+04
 NORM(A)=   0.11301237D+01
 Iteration Nr.  14
 **********************
 DD1Dir will call FoFMem   1 times, MxPair=       506
 NAB=   253 NAA=     0 NBB=     0.
 DE(Z)  -0.84601861D+00          E(Z)=    -0.52585305416D+04
 NORM(A)=   0.11301243D+01
 Iteration Nr.  15
 **********************
 DD1Dir will call FoFMem   1 times, MxPair=       506
 NAB=   253 NAA=     0 NBB=     0.
 DE(Z)  -0.84601871D+00          E(Z)=    -0.52585305417D+04
 NORM(A)=   0.11301239D+01
 Iteration Nr.  16
 **********************
 DD1Dir will call FoFMem   1 times, MxPair=       506
 NAB=   253 NAA=     0 NBB=     0.
 DE(Z)  -0.84601849D+00          E(Z)=    -0.52585305415D+04
 NORM(A)=   0.11301239D+01
 Iteration Nr.  17
 **********************
 DD1Dir will call FoFMem   1 times, MxPair=       506
 NAB=   253 NAA=     0 NBB=     0.
 DE(Z)  -0.84601860D+00          E(Z)=    -0.52585305416D+04
 NORM(A)=   0.11301238D+01
 Iteration Nr.  18
 **********************
 DD1Dir will call FoFMem   1 times, MxPair=       506
 NAB=   253 NAA=     0 NBB=     0.
 DE(Z)  -0.84601860D+00          E(Z)=    -0.52585305416D+04
 NORM(A)=   0.11301238D+01
 Discarding MO integrals.
          Differentiating once with respect to electric field.
                with respect to dipole field.
          Electric field/nuclear overlap derivatives assumed to be zero.
          Keep R1 ints in memory in canonical form, NReq=478620341.
          There are     1 degrees of freedom in the 1st order CPHF.  IDoFFX=0.
 LinEq1:  Iter=  0 NonCon=     1 RMS=1.95D-03 Max=5.60D-02
 AX will form     1 AO Fock derivatives at one time.
 LinEq1:  Iter=  1 NonCon=     1 RMS=7.40D-04 Max=2.60D-02
 LinEq1:  Iter=  2 NonCon=     1 RMS=3.09D-04 Max=9.33D-03
 LinEq1:  Iter=  3 NonCon=     1 RMS=1.03D-04 Max=2.97D-03
 LinEq1:  Iter=  4 NonCon=     1 RMS=5.33D-05 Max=1.64D-03
 LinEq1:  Iter=  5 NonCon=     1 RMS=1.64D-05 Max=4.64D-04
 LinEq1:  Iter=  6 NonCon=     1 RMS=6.29D-06 Max=1.30D-04
 LinEq1:  Iter=  7 NonCon=     1 RMS=1.35D-06 Max=2.12D-05
 LinEq1:  Iter=  8 NonCon=     1 RMS=2.69D-07 Max=4.30D-06
 LinEq1:  Iter=  9 NonCon=     1 RMS=6.50D-08 Max=1.21D-06
 LinEq1:  Iter= 10 NonCon=     1 RMS=1.39D-08 Max=2.08D-07
 LinEq1:  Iter= 11 NonCon=     1 RMS=3.90D-09 Max=9.57D-08
 LinEq1:  Iter= 12 NonCon=     1 RMS=7.19D-10 Max=1.62D-08
 LinEq1:  Iter= 13 NonCon=     1 RMS=1.21D-10 Max=2.63D-09
 LinEq1:  Iter= 14 NonCon=     0 RMS=2.08D-11 Max=4.55D-10
 Linear equations converged to 1.000D-10 1.000D-09 after    14 iterations.
 End of Minotr Frequency-dependent properties file   721 does not exist.
 End of Minotr Frequency-dependent properties file   722 does not exist.

 **********************************************************************

            Population analysis using the QCI/CC density.

 **********************************************************************

     Natural Orbital Coefficients:
                           1         2         3         4         5
     Eigenvalues --     2.00002   2.00002   2.00001   2.00001   2.00001
   1 1   C  1S          0.36881   0.00000   0.00000  -0.22671   0.00000
   2        2S         -0.01008   0.00000   0.00000   0.00242   0.00000
   3        3S          0.01427   0.00000   0.00000  -0.00946   0.00000
   4        4S         -0.01303   0.00000   0.00000   0.00312   0.00000
   5        5S         -0.00451   0.00000   0.00000  -0.00268   0.00000
   6        6PX         0.00000   0.00000   0.00000   0.00000   0.00000
   7        6PY         0.00000  -0.00267   0.00002   0.00000  -0.00022
   8        6PZ         0.00168   0.00000   0.00000   0.00013   0.00000
   9        7PX         0.00000   0.00000   0.00000  -0.00001   0.00000
  10        7PY         0.00000  -0.00460   0.00024   0.00000  -0.00041
  11        7PZ         0.00463   0.00000   0.00000  -0.00083   0.00000
  12        8PX        -0.00003   0.00000   0.00000   0.00000   0.00000
  13        8PY         0.00000  -0.00446  -0.00124   0.00000  -0.00550
  14        8PZ         0.00379   0.00000   0.00000  -0.00073   0.00000
  15        9PX         0.00001   0.00000   0.00000  -0.00001   0.00000
  16        9PY         0.00000   0.00073   0.00166   0.00000  -0.00172
  17        9PZ         0.00022   0.00000   0.00000   0.00050   0.00000
  18       10D 0        0.00031   0.00000   0.00000  -0.00019   0.00000
  19       10D+1        0.00001   0.00000   0.00000   0.00000   0.00000
  20       10D-1        0.00000   0.00043  -0.00008   0.00000  -0.00005
  21       10D+2        0.00012   0.00000   0.00000   0.00016   0.00000
  22       10D-2        0.00000   0.00000   0.00000   0.00000   0.00000
  23       11D 0       -0.00006   0.00000   0.00000   0.00010   0.00000
  24       11D+1        0.00002   0.00000   0.00000  -0.00001   0.00000
  25       11D-1        0.00000   0.00163   0.00028   0.00000  -0.00033
  26       11D+2        0.00172   0.00000   0.00000  -0.00053   0.00000
  27       11D-2        0.00000  -0.00001   0.00000   0.00000   0.00000
  28       12D 0       -0.00041   0.00000   0.00000   0.00015   0.00000
  29       12D+1        0.00002   0.00000   0.00000  -0.00001   0.00000
  30       12D-1        0.00000   0.00263   0.00133   0.00000   0.00130
  31       12D+2        0.00098   0.00000   0.00000  -0.00010   0.00000
  32       12D-2        0.00000  -0.00002   0.00001   0.00000  -0.00002
  33       13F 0        0.00016   0.00000   0.00000  -0.00015   0.00000
  34       13F+1        0.00001   0.00000   0.00000   0.00000   0.00000
  35       13F-1        0.00000  -0.00001   0.00006   0.00000   0.00000
  36       13F+2        0.00001   0.00000   0.00000  -0.00003   0.00000
  37       13F-2        0.00000   0.00000   0.00000   0.00000   0.00000
  38       13F+3        0.00000   0.00000   0.00000   0.00000   0.00000
  39       13F-3        0.00000  -0.00008  -0.00003   0.00000  -0.00004
  40       14F 0       -0.00019   0.00000   0.00000   0.00053   0.00000
  41       14F+1        0.00000   0.00000   0.00000   0.00000   0.00000
  42       14F-1        0.00000   0.00069   0.00003   0.00000  -0.00006
  43       14F+2       -0.00013   0.00000   0.00000   0.00040   0.00000
  44       14F-2        0.00000  -0.00002   0.00000   0.00000  -0.00001
  45       14F+3        0.00001   0.00000   0.00000   0.00000   0.00000
  46       14F-3        0.00000   0.00023   0.00012   0.00000   0.00028
  47 2   Br 1S         -0.04457   0.03986  -0.08341  -0.08070  -0.00166
  48        2S          0.16501  -0.14754   0.31066   0.30060   0.00626
  49        3S         -0.34769   0.30928  -0.66987  -0.64856  -0.01358
  50        4S         -0.00111   0.00099  -0.00200  -0.00224   0.00015
  51        5S         -0.01854   0.01654  -0.03242  -0.03122  -0.00061
  52        6S          0.00358  -0.00267  -0.00745  -0.00683  -0.00346
  53        7S          0.00219   0.00040   0.00265   0.00138  -0.00308
  54        8PX        -0.00158   0.00189   0.00086   0.00057   0.00110
  55        8PY         0.19191  -0.22065  -0.09821  -0.08146   0.13202
  56        8PZ         0.11936  -0.13149  -0.05241  -0.07280  -0.22746
  57        9PX         0.00406  -0.00493  -0.00239  -0.00158  -0.00307
  58        9PY        -0.49938   0.57711   0.27560   0.22801  -0.37383
  59        9PZ        -0.31127   0.34338   0.14645   0.20443   0.64069
  60       10PX        -0.00002   0.00001   0.00000   0.00001   0.00000
  61       10PY         0.00229  -0.00070  -0.00010  -0.00077  -0.00123
  62       10PZ         0.00127  -0.00092  -0.00018  -0.00028   0.00099
  63       11PX         0.00019  -0.00024  -0.00011  -0.00007  -0.00014
  64       11PY        -0.02370   0.02739   0.01262   0.01036  -0.01663
  65       11PZ        -0.01490   0.01637   0.00667   0.00932   0.02856
  66       12PX         0.00000  -0.00001   0.00000  -0.00001  -0.00001
  67       12PY         0.00152   0.00120   0.00136   0.00034  -0.00405
  68       12PZ         0.00073   0.00022   0.00062   0.00061   0.00188
  69       13PX        -0.00001   0.00000   0.00000   0.00000   0.00000
  70       13PY         0.00040  -0.00008   0.00025   0.00021  -0.00021
  71       13PZ         0.00031   0.00001   0.00032   0.00006  -0.00064
  72       14D 0        0.00245  -0.00281  -0.00111  -0.00193  -0.00790
  73       14D+1        0.00017  -0.00019  -0.00004  -0.00004  -0.00002
  74       14D-1       -0.02382   0.02675   0.00549   0.00471  -0.00399
  75       14D+2        0.01439  -0.01635  -0.00381  -0.00410  -0.00460
  76       14D-2        0.00029  -0.00032  -0.00006  -0.00006  -0.00003
  77       15D 0        0.00027  -0.00021  -0.00006  -0.00014  -0.00048
  78       15D+1        0.00002  -0.00002   0.00000   0.00000   0.00000
  79       15D-1       -0.00246   0.00263   0.00029   0.00028  -0.00024
  80       15D+2        0.00162  -0.00165  -0.00021  -0.00023  -0.00029
  81       15D-2        0.00003  -0.00003   0.00000   0.00000   0.00000
  82       16D 0        0.00004  -0.00021  -0.00003  -0.00002  -0.00028
  83       16D+1       -0.00001   0.00001   0.00000   0.00000   0.00000
  84       16D-1        0.00110  -0.00063   0.00012  -0.00027  -0.00025
  85       16D+2       -0.00082   0.00038  -0.00005   0.00007  -0.00011
  86       16D-2       -0.00001   0.00001   0.00000   0.00000   0.00000
  87       17D 0       -0.00005   0.00003   0.00005  -0.00003   0.00004
  88       17D+1        0.00000   0.00000   0.00000   0.00000   0.00000
  89       17D-1        0.00052  -0.00035   0.00003  -0.00004  -0.00044
  90       17D+2       -0.00052  -0.00012  -0.00021   0.00009   0.00031
  91       17D-2        0.00000   0.00000   0.00000   0.00000   0.00000
  92       18F 0        0.00024  -0.00029  -0.00008  -0.00006   0.00004
  93       18F+1        0.00000   0.00000   0.00000   0.00000   0.00000
  94       18F-1       -0.00009   0.00012   0.00002   0.00003   0.00034
  95       18F+2        0.00038  -0.00042  -0.00010  -0.00009  -0.00002
  96       18F-2        0.00001  -0.00001   0.00000   0.00000   0.00000
  97       18F+3       -0.00001   0.00001   0.00000   0.00000   0.00000
  98       18F-3        0.00020  -0.00023  -0.00003  -0.00004   0.00014
  99       19F 0       -0.00030   0.00030   0.00006   0.00014  -0.00006
 100       19F+1        0.00000   0.00000   0.00000   0.00000   0.00000
 101       19F-1        0.00023  -0.00029  -0.00001  -0.00010  -0.00032
 102       19F+2       -0.00064   0.00046   0.00004   0.00018   0.00002
 103       19F-2       -0.00001   0.00001   0.00000   0.00000   0.00000
 104       19F+3        0.00001  -0.00001   0.00000   0.00000   0.00000
 105       19F-3       -0.00036   0.00017  -0.00004   0.00005  -0.00017
 106 3   Br 1S         -0.04457  -0.03986   0.08341  -0.08070   0.00166
 107        2S          0.16501   0.14754  -0.31066   0.30060  -0.00626
 108        3S         -0.34769  -0.30928   0.66987  -0.64856   0.01358
 109        4S         -0.00111  -0.00099   0.00200  -0.00224  -0.00015
 110        5S         -0.01854  -0.01654   0.03242  -0.03122   0.00061
 111        6S          0.00358   0.00267   0.00745  -0.00683   0.00346
 112        7S          0.00219  -0.00040  -0.00265   0.00138   0.00308
 113        8PX        -0.00158  -0.00189  -0.00086   0.00057  -0.00110
 114        8PY        -0.19191  -0.22065  -0.09821   0.08146   0.13202
 115        8PZ         0.11936   0.13149   0.05241  -0.07280   0.22746
 116        9PX         0.00406   0.00493   0.00239  -0.00158   0.00307
 117        9PY         0.49938   0.57711   0.27560  -0.22801  -0.37383
 118        9PZ        -0.31127  -0.34338  -0.14645   0.20443  -0.64069
 119       10PX        -0.00002  -0.00001   0.00000   0.00001   0.00000
 120       10PY        -0.00229  -0.00070  -0.00010   0.00077  -0.00123
 121       10PZ         0.00127   0.00092   0.00018  -0.00028  -0.00099
 122       11PX         0.00019   0.00024   0.00011  -0.00007   0.00014
 123       11PY         0.02370   0.02739   0.01262  -0.01036  -0.01663
 124       11PZ        -0.01490  -0.01637  -0.00667   0.00932  -0.02856
 125       12PX         0.00000   0.00001   0.00000  -0.00001   0.00001
 126       12PY        -0.00152   0.00120   0.00136  -0.00034  -0.00405
 127       12PZ         0.00073  -0.00022  -0.00062   0.00061  -0.00188
 128       13PX        -0.00001   0.00000   0.00000   0.00000   0.00000
 129       13PY        -0.00040  -0.00008   0.00025  -0.00021  -0.00021
 130       13PZ         0.00031  -0.00001  -0.00032   0.00006   0.00064
 131       14D 0        0.00245   0.00281   0.00111  -0.00193   0.00790
 132       14D+1        0.00017   0.00019   0.00004  -0.00004   0.00002
 133       14D-1        0.02382   0.02675   0.00549  -0.00471  -0.00399
 134       14D+2        0.01439   0.01635   0.00381  -0.00410   0.00460
 135       14D-2       -0.00029  -0.00032  -0.00006   0.00006  -0.00003
 136       15D 0        0.00027   0.00021   0.00006  -0.00014   0.00048
 137       15D+1        0.00002   0.00002   0.00000   0.00000   0.00000
 138       15D-1        0.00246   0.00263   0.00029  -0.00028  -0.00024
 139       15D+2        0.00162   0.00165   0.00021  -0.00023   0.00029
 140       15D-2       -0.00003  -0.00003   0.00000   0.00000   0.00000
 141       16D 0        0.00004   0.00021   0.00003  -0.00002   0.00028
 142       16D+1       -0.00001  -0.00001   0.00000   0.00000   0.00000
 143       16D-1       -0.00110  -0.00063   0.00012   0.00027  -0.00025
 144       16D+2       -0.00082  -0.00038   0.00005   0.00007   0.00011
 145       16D-2        0.00001   0.00001   0.00000   0.00000   0.00000
 146       17D 0       -0.00005  -0.00003  -0.00005  -0.00003  -0.00004
 147       17D+1        0.00000   0.00000   0.00000   0.00000   0.00000
 148       17D-1       -0.00052  -0.00035   0.00003   0.00004  -0.00044
 149       17D+2       -0.00052   0.00012   0.00021   0.00009  -0.00031
 150       17D-2        0.00000   0.00000   0.00000   0.00000   0.00000
 151       18F 0        0.00024   0.00029   0.00008  -0.00006  -0.00004
 152       18F+1        0.00000   0.00000   0.00000   0.00000   0.00000
 153       18F-1        0.00009   0.00012   0.00002  -0.00003   0.00034
 154       18F+2        0.00038   0.00042   0.00010  -0.00009   0.00002
 155       18F-2       -0.00001  -0.00001   0.00000   0.00000   0.00000
 156       18F+3       -0.00001  -0.00001   0.00000   0.00000   0.00000
 157       18F-3       -0.00020  -0.00023  -0.00003   0.00004   0.00014
 158       19F 0       -0.00030  -0.00030  -0.00006   0.00014   0.00006
 159       19F+1        0.00000   0.00000   0.00000   0.00000   0.00000
 160       19F-1       -0.00023  -0.00029  -0.00001   0.00010  -0.00032
 161       19F+2       -0.00064  -0.00046  -0.00004   0.00018  -0.00002
 162       19F-2        0.00001   0.00001   0.00000   0.00000   0.00000
 163       19F+3        0.00001   0.00001   0.00000   0.00000   0.00000
 164       19F-3        0.00036   0.00017  -0.00004  -0.00005  -0.00017
 165 4   O  1S         -0.06943   0.00000   0.00000   0.06984   0.00000
 166        2S          0.00100   0.00000   0.00000  -0.00156   0.00000
 167        3S         -0.00290   0.00000   0.00000   0.00289   0.00000
 168        4S          0.00121   0.00000   0.00000  -0.00065   0.00000
 169        5S          0.00068   0.00000   0.00000   0.00103   0.00000
 170        6PX         0.00000   0.00000   0.00000   0.00000   0.00000
 171        6PY         0.00000   0.00064   0.00030   0.00000   0.00016
 172        6PZ         0.00056   0.00000   0.00000  -0.00049   0.00000
 173        7PX         0.00000   0.00000   0.00000   0.00000   0.00000
 174        7PY         0.00000   0.00074   0.00032   0.00000   0.00032
 175        7PZ         0.00066   0.00000   0.00000  -0.00046   0.00000
 176        8PX        -0.00003   0.00000   0.00000   0.00002   0.00000
 177        8PY         0.00000  -0.00025  -0.00010   0.00000   0.00111
 178        8PZ         0.00037   0.00000   0.00000  -0.00086   0.00000
 179        9PX        -0.00002   0.00000   0.00000   0.00001   0.00000
 180        9PY         0.00000  -0.00070  -0.00065   0.00000   0.00017
 181        9PZ         0.00018   0.00000   0.00000  -0.00039   0.00000
 182       10D 0       -0.00003   0.00000   0.00000   0.00002   0.00000
 183       10D+1        0.00000   0.00000   0.00000   0.00000   0.00000
 184       10D-1        0.00000   0.00003  -0.00002   0.00000   0.00002
 185       10D+2        0.00003   0.00000   0.00000   0.00000   0.00000
 186       10D-2        0.00000   0.00000   0.00000   0.00000   0.00000
 187       11D 0       -0.00024   0.00000   0.00000   0.00016   0.00000
 188       11D+1        0.00000   0.00000   0.00000   0.00000   0.00000
 189       11D-1        0.00000   0.00016   0.00010   0.00000  -0.00008
 190       11D+2       -0.00009   0.00000   0.00000  -0.00003   0.00000
 191       11D-2        0.00000   0.00000   0.00000   0.00000   0.00000
 192       12D 0       -0.00043   0.00000   0.00000   0.00029   0.00000
 193       12D+1        0.00001   0.00000   0.00000   0.00000   0.00000
 194       12D-1        0.00000   0.00031   0.00009   0.00000  -0.00035
 195       12D+2       -0.00022   0.00000   0.00000  -0.00012   0.00000
 196       12D-2        0.00000   0.00003   0.00000   0.00000   0.00000
 197       13F 0       -0.00009   0.00000   0.00000   0.00004   0.00000
 198       13F+1        0.00000   0.00000   0.00000   0.00000   0.00000
 199       13F-1        0.00000  -0.00001   0.00000   0.00000   0.00003
 200       13F+2        0.00000   0.00000   0.00000  -0.00001   0.00000
 201       13F-2        0.00000   0.00000   0.00000   0.00000   0.00000
 202       13F+3        0.00000   0.00000   0.00000   0.00000   0.00000
 203       13F-3        0.00000  -0.00002   0.00001   0.00000  -0.00001
 204       14F 0        0.00026   0.00000   0.00000  -0.00008   0.00000
 205       14F+1        0.00000   0.00000   0.00000   0.00000   0.00000
 206       14F-1        0.00000  -0.00006  -0.00005   0.00000  -0.00003
 207       14F+2        0.00013   0.00000   0.00000   0.00003   0.00000
 208       14F-2        0.00000  -0.00001   0.00000   0.00000   0.00000
 209       14F+3        0.00000   0.00000   0.00000   0.00000   0.00000
 210       14F-3        0.00000   0.00005  -0.00003   0.00000   0.00001
                           6         7         8         9        10
     Eigenvalues --     2.00001   2.00001   2.00001   2.00001   2.00000
   1 1   C  1S         -0.07124   0.00000   0.44598  -0.00452   0.75549
   2        2S          0.00074   0.00000  -0.00529   0.00005  -0.00716
   3        3S         -0.00304   0.00000   0.01862  -0.00019   0.03174
   4        4S         -0.00336   0.00000   0.00150   0.00002   0.00272
   5        5S         -0.00155   0.00000   0.00075   0.00007   0.00266
   6        6PX         0.00000   0.00000   0.00001   0.00062   0.00000
   7        6PY         0.00000   0.00000   0.00000   0.00000   0.00000
   8        6PZ         0.00030   0.00000  -0.00086   0.00001  -0.00115
   9        7PX         0.00000   0.00000   0.00002   0.00104   0.00003
  10        7PY         0.00000   0.00000   0.00000   0.00000   0.00000
  11        7PZ        -0.00002   0.00000  -0.00079   0.00002   0.00322
  12        8PX        -0.00002   0.00000   0.00002   0.00130   0.00002
  13        8PY         0.00000   0.00010   0.00000   0.00000   0.00000
  14        8PZ         0.00572   0.00000  -0.00022   0.00002  -0.00151
  15        9PX         0.00001   0.00000  -0.00001   0.00004  -0.00001
  16        9PY         0.00000   0.00001   0.00000   0.00000   0.00000
  17        9PZ         0.00016   0.00000  -0.00020  -0.00002  -0.00014
  18       10D 0       -0.00016   0.00000   0.00010   0.00000   0.00067
  19       10D+1        0.00000   0.00000   0.00000  -0.00010   0.00001
  20       10D-1        0.00000   0.00000   0.00000   0.00000   0.00000
  21       10D+2       -0.00008   0.00000  -0.00015   0.00000  -0.00020
  22       10D-2        0.00000  -0.00009   0.00000   0.00000   0.00000
  23       11D 0       -0.00036   0.00000  -0.00087   0.00002   0.00096
  24       11D+1        0.00001   0.00000  -0.00001  -0.00075   0.00004
  25       11D-1        0.00000   0.00000   0.00000   0.00000   0.00000
  26       11D+2       -0.00019   0.00000   0.00031   0.00001   0.00106
  27       11D-2        0.00000  -0.00069   0.00000   0.00000   0.00000
  28       12D 0       -0.00021   0.00000   0.00003   0.00002  -0.00114
  29       12D+1        0.00003   0.00000  -0.00001  -0.00063  -0.00001
  30       12D-1        0.00000  -0.00002   0.00000   0.00000   0.00000
  31       12D+2        0.00040   0.00000  -0.00022   0.00002  -0.00102
  32       12D-2        0.00000   0.00012   0.00000   0.00000   0.00000
  33       13F 0       -0.00011   0.00000   0.00026   0.00000   0.00036
  34       13F+1        0.00000   0.00000   0.00000  -0.00006   0.00001
  35       13F-1        0.00000   0.00000   0.00000   0.00000   0.00000
  36       13F+2        0.00003   0.00000   0.00000   0.00000  -0.00009
  37       13F-2        0.00000  -0.00001   0.00000   0.00000   0.00000
  38       13F+3        0.00000   0.00000   0.00000   0.00002   0.00000
  39       13F-3        0.00000   0.00000   0.00000   0.00000   0.00000
  40       14F 0        0.00050   0.00000  -0.00118   0.00002  -0.00065
  41       14F+1        0.00000   0.00000  -0.00001   0.00008   0.00002
  42       14F-1        0.00000   0.00001   0.00000   0.00000   0.00000
  43       14F+2       -0.00029   0.00000  -0.00068   0.00001  -0.00061
  44       14F-2        0.00000   0.00021   0.00000   0.00000   0.00000
  45       14F+3        0.00000   0.00000  -0.00001  -0.00036   0.00001
  46       14F-3        0.00000  -0.00001   0.00000   0.00000   0.00000
  47 2   Br 1S          0.00626  -0.00002  -0.00203   0.00008   0.00033
  48        2S         -0.02352   0.00007   0.00799  -0.00028  -0.00042
  49        3S          0.05172  -0.00015  -0.02118   0.00065  -0.00801
  50        4S          0.00001   0.00000   0.00051  -0.00001   0.00094
  51        5S          0.00243  -0.00001  -0.00085   0.00003  -0.00056
  52        6S          0.00328   0.00006  -0.00062   0.00002  -0.00091
  53        7S          0.00108   0.00003  -0.00020  -0.00003  -0.00111
  54        8PX        -0.00052  -0.26229  -0.00304  -0.26283   0.00118
  55        8PY         0.15796  -0.00111  -0.04663  -0.00118  -0.08615
  56        8PZ        -0.20449  -0.00190  -0.09209   0.00058  -0.05079
  57        9PX         0.00146   0.74190   0.00874   0.74221  -0.00303
  58        9PY        -0.44050   0.00319   0.11129   0.00362   0.20452
  59        9PZ         0.57913   0.00542   0.24769  -0.00142   0.12140
  60       10PX         0.00000   0.00130   0.00001   0.00072   0.00000
  61       10PY         0.00022   0.00002  -0.00054   0.00002  -0.00044
  62       10PZ         0.00133   0.00002   0.00004   0.00001   0.00017
  63       11PX         0.00007   0.03316   0.00039   0.03282  -0.00013
  64       11PY        -0.01957   0.00014   0.00492   0.00016   0.00863
  65       11PZ         0.02571   0.00024   0.01090  -0.00006   0.00505
  66       12PX         0.00001   0.00389   0.00004   0.00271   0.00000
  67       12PY        -0.00013   0.00004  -0.00021   0.00001  -0.00010
  68       12PZ         0.00316   0.00004   0.00075   0.00001  -0.00056
  69       13PX         0.00000  -0.00032   0.00000  -0.00025   0.00001
  70       13PY         0.00029   0.00000  -0.00006  -0.00001  -0.00025
  71       13PZ         0.00001   0.00000  -0.00004   0.00000  -0.00019
  72       14D 0       -0.00752  -0.00005  -0.00263   0.00003  -0.00114
  73       14D+1        0.00001   0.00112  -0.00005   0.00122  -0.00007
  74       14D-1       -0.00689   0.00002   0.00771  -0.00006   0.00968
  75       14D+2       -0.00284  -0.00007  -0.00633   0.00005  -0.00611
  76       14D-2        0.00001   0.00224  -0.00007   0.00218  -0.00011
  77       15D 0       -0.00041   0.00000  -0.00020   0.00000  -0.00010
  78       15D+1        0.00000   0.00017   0.00000   0.00019  -0.00001
  79       15D-1       -0.00042   0.00000   0.00071   0.00000   0.00086
  80       15D+2       -0.00011  -0.00001  -0.00061   0.00000  -0.00060
  81       15D-2        0.00000   0.00028   0.00000   0.00034  -0.00001
  82       16D 0       -0.00037   0.00000  -0.00008   0.00000   0.00012
  83       16D+1        0.00000  -0.00010  -0.00001  -0.00015   0.00000
  84       16D-1       -0.00010   0.00000   0.00025   0.00000   0.00073
  85       16D+2       -0.00032   0.00000   0.00001   0.00000  -0.00021
  86       16D-2        0.00000  -0.00017  -0.00001  -0.00017  -0.00001
  87       17D 0       -0.00023   0.00000   0.00002   0.00001  -0.00011
  88       17D+1        0.00000   0.00009   0.00000  -0.00009   0.00001
  89       17D-1        0.00019   0.00001  -0.00004   0.00000  -0.00022
  90       17D+2       -0.00032   0.00000   0.00006   0.00000   0.00002
  91       17D-2        0.00000   0.00016   0.00000  -0.00023   0.00000
  92       18F 0        0.00008   0.00000  -0.00008   0.00000  -0.00012
  93       18F+1        0.00000   0.00001   0.00000   0.00001   0.00000
  94       18F-1        0.00031   0.00000   0.00008   0.00000   0.00008
  95       18F+2        0.00000  -0.00001  -0.00014   0.00000  -0.00022
  96       18F-2        0.00000   0.00022   0.00000   0.00025   0.00000
  97       18F+3        0.00000  -0.00018   0.00000  -0.00022   0.00000
  98       18F-3        0.00008  -0.00001  -0.00006   0.00000  -0.00010
  99       19F 0       -0.00008   0.00000  -0.00009   0.00000  -0.00011
 100       19F+1        0.00000  -0.00001   0.00000  -0.00003   0.00000
 101       19F-1       -0.00038   0.00000   0.00000   0.00000   0.00017
 102       19F+2        0.00003   0.00000   0.00000   0.00000  -0.00011
 103       19F-2        0.00000  -0.00017   0.00000  -0.00025   0.00000
 104       19F+3        0.00000   0.00014   0.00000   0.00024   0.00000
 105       19F-3       -0.00010   0.00000   0.00010   0.00000   0.00001
 106 3   Br 1S          0.00626   0.00002  -0.00203   0.00008   0.00033
 107        2S         -0.02352  -0.00007   0.00799  -0.00028  -0.00042
 108        3S          0.05172   0.00015  -0.02118   0.00065  -0.00801
 109        4S          0.00001   0.00000   0.00051  -0.00001   0.00094
 110        5S          0.00243   0.00001  -0.00085   0.00003  -0.00056
 111        6S          0.00328  -0.00006  -0.00062   0.00002  -0.00091
 112        7S          0.00108  -0.00003  -0.00020  -0.00003  -0.00111
 113        8PX        -0.00052   0.26229  -0.00304  -0.26283   0.00118
 114        8PY        -0.15796  -0.00111   0.04663   0.00118   0.08615
 115        8PZ        -0.20449   0.00190  -0.09209   0.00058  -0.05079
 116        9PX         0.00146  -0.74190   0.00874   0.74221  -0.00303
 117        9PY         0.44050   0.00319  -0.11129  -0.00362  -0.20452
 118        9PZ         0.57913  -0.00542   0.24769  -0.00142   0.12140
 119       10PX         0.00000  -0.00130   0.00001   0.00072   0.00000
 120       10PY        -0.00022   0.00002   0.00054  -0.00002   0.00044
 121       10PZ         0.00133  -0.00002   0.00004   0.00001   0.00017
 122       11PX         0.00007  -0.03316   0.00039   0.03282  -0.00013
 123       11PY         0.01957   0.00014  -0.00492  -0.00016  -0.00863
 124       11PZ         0.02571  -0.00024   0.01090  -0.00006   0.00505
 125       12PX         0.00001  -0.00389   0.00004   0.00271   0.00000
 126       12PY         0.00013   0.00004   0.00021  -0.00001   0.00010
 127       12PZ         0.00316  -0.00004   0.00075   0.00001  -0.00056
 128       13PX         0.00000   0.00032   0.00000  -0.00025   0.00001
 129       13PY        -0.00029   0.00000   0.00006   0.00001   0.00025
 130       13PZ         0.00001   0.00000  -0.00004   0.00000  -0.00019
 131       14D 0       -0.00752   0.00005  -0.00263   0.00003  -0.00114
 132       14D+1        0.00001  -0.00112  -0.00005   0.00122  -0.00007
 133       14D-1        0.00689   0.00002  -0.00771   0.00006  -0.00968
 134       14D+2       -0.00284   0.00007  -0.00633   0.00005  -0.00611
 135       14D-2       -0.00001   0.00224   0.00007  -0.00218   0.00011
 136       15D 0       -0.00041   0.00000  -0.00020   0.00000  -0.00010
 137       15D+1        0.00000  -0.00017   0.00000   0.00019  -0.00001
 138       15D-1        0.00042   0.00000  -0.00071   0.00000  -0.00086
 139       15D+2       -0.00011   0.00001  -0.00061   0.00000  -0.00060
 140       15D-2        0.00000   0.00028   0.00000  -0.00034   0.00001
 141       16D 0       -0.00037   0.00000  -0.00008   0.00000   0.00012
 142       16D+1        0.00000   0.00010  -0.00001  -0.00015   0.00000
 143       16D-1        0.00010   0.00000  -0.00025   0.00000  -0.00073
 144       16D+2       -0.00032   0.00000   0.00001   0.00000  -0.00021
 145       16D-2        0.00000  -0.00017   0.00001   0.00017   0.00001
 146       17D 0       -0.00023   0.00000   0.00002   0.00001  -0.00011
 147       17D+1        0.00000  -0.00009   0.00000  -0.00009   0.00001
 148       17D-1       -0.00019   0.00001   0.00004   0.00000   0.00022
 149       17D+2       -0.00032   0.00000   0.00006   0.00000   0.00002
 150       17D-2        0.00000   0.00016   0.00000   0.00023   0.00000
 151       18F 0        0.00008   0.00000  -0.00008   0.00000  -0.00012
 152       18F+1        0.00000  -0.00001   0.00000   0.00001   0.00000
 153       18F-1       -0.00031   0.00000  -0.00008   0.00000  -0.00008
 154       18F+2        0.00000   0.00001  -0.00014   0.00000  -0.00022
 155       18F-2        0.00000   0.00022   0.00000  -0.00025   0.00000
 156       18F+3        0.00000   0.00018   0.00000  -0.00022   0.00000
 157       18F-3       -0.00008  -0.00001   0.00006   0.00000   0.00010
 158       19F 0       -0.00008   0.00000  -0.00009   0.00000  -0.00011
 159       19F+1        0.00000   0.00001   0.00000  -0.00003   0.00000
 160       19F-1        0.00038   0.00000   0.00000   0.00000  -0.00017
 161       19F+2        0.00003   0.00000   0.00000   0.00000  -0.00011
 162       19F-2        0.00000  -0.00017   0.00000   0.00025   0.00000
 163       19F+3        0.00000  -0.00014   0.00000   0.00024   0.00000
 164       19F-3        0.00010   0.00000  -0.00010   0.00000  -0.00001
 165 4   O  1S          0.16472   0.00000  -0.79476   0.01177   0.53924
 166        2S         -0.00316   0.00000   0.01531  -0.00023  -0.00889
 167        3S          0.00696   0.00000  -0.03362   0.00050   0.02337
 168        4S         -0.00156   0.00000   0.00255  -0.00007  -0.00139
 169        5S         -0.00191   0.00000  -0.00046  -0.00005  -0.00136
 170        6PX        -0.00001   0.00000   0.00004  -0.00048   0.00001
 171        6PY         0.00000   0.00000   0.00000   0.00000   0.00000
 172        6PZ        -0.00065   0.00000   0.00395  -0.00005  -0.00040
 173        7PX         0.00000   0.00000   0.00001  -0.00056   0.00003
 174        7PY         0.00000   0.00001   0.00000   0.00000   0.00000
 175        7PZ        -0.00011   0.00000   0.00161  -0.00001   0.00261
 176        8PX         0.00000   0.00000   0.00001  -0.00036  -0.00001
 177        8PY         0.00000  -0.00002   0.00000   0.00000   0.00000
 178        8PZ        -0.00135   0.00000   0.00333  -0.00003   0.00227
 179        9PX        -0.00001   0.00000   0.00001   0.00004   0.00001
 180        9PY         0.00000   0.00000   0.00000   0.00000   0.00000
 181        9PZ         0.00065   0.00000   0.00053   0.00001   0.00042
 182       10D 0        0.00004   0.00000  -0.00021   0.00000   0.00008
 183       10D+1        0.00000   0.00000   0.00000   0.00000   0.00000
 184       10D-1        0.00000   0.00000   0.00000   0.00000   0.00000
 185       10D+2       -0.00003   0.00000   0.00005   0.00000  -0.00002
 186       10D-2        0.00000  -0.00001   0.00000   0.00000   0.00000
 187       11D 0        0.00003   0.00000   0.00016   0.00000  -0.00102
 188       11D+1        0.00000   0.00000   0.00000  -0.00009  -0.00001
 189       11D-1        0.00000   0.00000   0.00000   0.00000   0.00000
 190       11D+2        0.00005   0.00000   0.00014   0.00000  -0.00006
 191       11D-2        0.00000   0.00002   0.00000   0.00000   0.00000
 192       12D 0        0.00078   0.00000  -0.00050   0.00001  -0.00057
 193       12D+1        0.00001   0.00000  -0.00001  -0.00010   0.00000
 194       12D-1        0.00000   0.00001   0.00000   0.00000   0.00000
 195       12D+2       -0.00001   0.00000   0.00029  -0.00001   0.00040
 196       12D-2        0.00000  -0.00003   0.00000   0.00000   0.00000
 197       13F 0        0.00001   0.00000  -0.00010   0.00000  -0.00010
 198       13F+1        0.00000   0.00000   0.00000   0.00000   0.00000
 199       13F-1        0.00000   0.00000   0.00000   0.00000   0.00000
 200       13F+2       -0.00001   0.00000   0.00002   0.00000  -0.00001
 201       13F-2        0.00000   0.00000   0.00000   0.00000   0.00000
 202       13F+3        0.00000   0.00000   0.00000  -0.00001   0.00000
 203       13F-3        0.00000   0.00000   0.00000   0.00000   0.00000
 204       14F 0       -0.00008   0.00000   0.00001   0.00000   0.00037
 205       14F+1        0.00000   0.00000   0.00000   0.00007   0.00001
 206       14F-1        0.00000   0.00000   0.00000   0.00000   0.00000
 207       14F+2        0.00002   0.00000  -0.00009   0.00000  -0.00003
 208       14F-2        0.00000  -0.00003   0.00000   0.00000   0.00000
 209       14F+3        0.00000   0.00000   0.00000   0.00004   0.00000
 210       14F-3        0.00000   0.00000   0.00000   0.00000   0.00000
                          11        12        13        14        15
     Eigenvalues --     2.00000   2.00000   2.00000   2.00000   2.00000
   1 1   C  1S          0.00000  -0.00127   0.00000   0.01352  -0.00014
   2        2S          0.00000   0.00005   0.00000  -0.00011   0.00000
   3        3S          0.00000  -0.00005   0.00000   0.00062  -0.00001
   4        4S          0.00000   0.00036   0.00000  -0.00105   0.00001
   5        5S          0.00000   0.00019   0.00000  -0.00038   0.00000
   6        6PX         0.00000   0.00000   0.00000   0.00000   0.00001
   7        6PY        -0.00003   0.00000  -0.00001   0.00000   0.00000
   8        6PZ         0.00000   0.00001   0.00000  -0.00004   0.00000
   9        7PX         0.00000   0.00000   0.00000   0.00000   0.00000
  10        7PY         0.00006   0.00000   0.00003   0.00000   0.00000
  11        7PZ         0.00000   0.00007   0.00000   0.00010   0.00000
  12        8PX         0.00000   0.00000   0.00000  -0.00001  -0.00007
  13        8PY         0.00039   0.00000   0.00061   0.00000   0.00000
  14        8PZ         0.00000  -0.00053   0.00000   0.00038   0.00000
  15        9PX         0.00000   0.00000   0.00000   0.00000   0.00000
  16        9PY        -0.00010   0.00000   0.00010   0.00000   0.00000
  17        9PZ         0.00000  -0.00001   0.00000   0.00005   0.00000
  18       10D 0        0.00000   0.00000   0.00000   0.00001   0.00000
  19       10D+1        0.00000   0.00000   0.00000   0.00000   0.00000
  20       10D-1        0.00000   0.00000   0.00000   0.00000   0.00000
  21       10D+2        0.00000   0.00000   0.00000   0.00000   0.00000
  22       10D-2        0.00000   0.00000   0.00000   0.00000   0.00000
  23       11D 0        0.00000   0.00005   0.00000   0.00001   0.00000
  24       11D+1        0.00000   0.00000   0.00000   0.00000   0.00005
  25       11D-1       -0.00008   0.00000  -0.00002   0.00000   0.00000
  26       11D+2        0.00000   0.00001   0.00000   0.00014   0.00000
  27       11D-2        0.00000   0.00000   0.00000   0.00000   0.00000
  28       12D 0        0.00000  -0.00001   0.00000   0.00008   0.00000
  29       12D+1        0.00000   0.00000   0.00000   0.00000   0.00004
  30       12D-1       -0.00019   0.00000  -0.00020   0.00000   0.00000
  31       12D+2        0.00000  -0.00005   0.00000   0.00017   0.00000
  32       12D-2        0.00000   0.00000   0.00000   0.00000   0.00000
  33       13F 0        0.00000   0.00001   0.00000   0.00000   0.00000
  34       13F+1        0.00000   0.00000   0.00000   0.00000   0.00001
  35       13F-1        0.00000   0.00000   0.00001   0.00000   0.00000
  36       13F+2        0.00000   0.00000   0.00000   0.00000   0.00000
  37       13F-2        0.00000   0.00000   0.00000   0.00000   0.00000
  38       13F+3        0.00000   0.00000   0.00000   0.00000  -0.00001
  39       13F-3        0.00001   0.00000   0.00001   0.00000   0.00000
  40       14F 0        0.00000  -0.00003   0.00000   0.00002   0.00000
  41       14F+1        0.00000   0.00000   0.00000   0.00000  -0.00001
  42       14F-1       -0.00001   0.00000  -0.00008   0.00000   0.00000
  43       14F+2        0.00000   0.00005   0.00000   0.00001   0.00000
  44       14F-2        0.00000   0.00000   0.00000   0.00000   0.00000
  45       14F+3        0.00000   0.00000   0.00000   0.00000   0.00004
  46       14F-3       -0.00002   0.00000  -0.00006   0.00000   0.00000
  47 2   Br 1S         -0.05479   0.00214  -0.01253  -0.03843   0.00035
  48        2S          0.16944  -0.00627   0.04147   0.12332  -0.00108
  49        3S          0.01497  -0.00064   0.00388   0.01297  -0.00013
  50        4S         -0.00012   0.00002  -0.00007  -0.00015   0.00000
  51        5S          0.00045  -0.00002   0.00011   0.00038   0.00000
  52        6S          0.00049  -0.00029   0.00049   0.00066  -0.00001
  53        7S         -0.00014  -0.00013   0.00024   0.00018   0.00000
  54        8PX        -0.00285   0.00154   0.00037   0.00357   0.71311
  55        8PY         0.66561  -0.40305  -0.18714   0.57058  -0.00179
  56        8PZ         0.16741   0.58788   0.68605   0.39383  -0.00312
  57        9PX        -0.00008  -0.00003  -0.00006  -0.00029  -0.01616
  58        9PY        -0.00002   0.00753   0.00860   0.00712  -0.00020
  59        9PZ         0.00575  -0.01369  -0.01240   0.00327  -0.00009
  60       10PX         0.00000   0.00000   0.00000   0.00000   0.00028
  61       10PY         0.00033  -0.00022  -0.00005   0.00032   0.00000
  62       10PZ         0.00012   0.00023   0.00036   0.00021   0.00000
  63       11PX         0.00000   0.00000   0.00000  -0.00001  -0.00122
  64       11PY        -0.00057   0.00063   0.00047  -0.00023  -0.00001
  65       11PZ         0.00006  -0.00101  -0.00106  -0.00022   0.00000
  66       12PX         0.00000   0.00000   0.00000   0.00000  -0.00006
  67       12PY         0.00005  -0.00012   0.00028   0.00020   0.00000
  68       12PZ         0.00008  -0.00013   0.00006   0.00020   0.00000
  69       13PX         0.00000   0.00000   0.00000   0.00000   0.00002
  70       13PY        -0.00001  -0.00003   0.00002   0.00002   0.00000
  71       13PZ        -0.00003   0.00000   0.00005   0.00002   0.00000
  72       14D 0       -0.00008   0.00033   0.00032   0.00002   0.00000
  73       14D+1        0.00000   0.00000   0.00000   0.00000  -0.00004
  74       14D-1       -0.00033   0.00018   0.00009  -0.00007   0.00000
  75       14D+2        0.00015   0.00017   0.00022   0.00009   0.00000
  76       14D-2        0.00000   0.00000   0.00000   0.00000  -0.00010
  77       15D 0        0.00000   0.00000   0.00001   0.00000   0.00000
  78       15D+1        0.00000   0.00000   0.00000   0.00000  -0.00002
  79       15D-1       -0.00005   0.00000  -0.00001  -0.00004   0.00000
  80       15D+2        0.00003   0.00000   0.00001   0.00003   0.00000
  81       15D-2        0.00000   0.00000   0.00000   0.00000  -0.00002
  82       16D 0        0.00000   0.00006   0.00007   0.00000   0.00000
  83       16D+1        0.00000   0.00000   0.00000   0.00000   0.00003
  84       16D-1        0.00008   0.00002   0.00007   0.00012   0.00000
  85       16D+2       -0.00006   0.00005   0.00001  -0.00010   0.00000
  86       16D-2        0.00000   0.00000   0.00000   0.00000   0.00004
  87       17D 0        0.00000   0.00001  -0.00002   0.00002   0.00000
  88       17D+1        0.00000   0.00000   0.00000   0.00000   0.00000
  89       17D-1        0.00002  -0.00003   0.00004   0.00006   0.00000
  90       17D+2        0.00001   0.00003  -0.00004  -0.00003   0.00000
  91       17D-2        0.00000   0.00000   0.00000   0.00000   0.00001
  92       18F 0        0.00000   0.00000   0.00000   0.00000   0.00000
  93       18F+1        0.00000   0.00000   0.00000   0.00000   0.00000
  94       18F-1        0.00000  -0.00001   0.00000   0.00000   0.00000
  95       18F+2       -0.00001   0.00000   0.00000  -0.00001   0.00000
  96       18F-2        0.00000   0.00000   0.00000   0.00000   0.00000
  97       18F+3        0.00000   0.00000   0.00000   0.00000   0.00000
  98       18F-3        0.00000   0.00000   0.00000  -0.00001   0.00000
  99       19F 0       -0.00002   0.00000   0.00000  -0.00001   0.00000
 100       19F+1        0.00000   0.00000   0.00000   0.00000   0.00000
 101       19F-1        0.00001   0.00003   0.00003   0.00001   0.00000
 102       19F+2       -0.00002   0.00000  -0.00001  -0.00004   0.00000
 103       19F-2        0.00000   0.00000   0.00000   0.00000   0.00002
 104       19F+3        0.00000   0.00000   0.00000   0.00000  -0.00002
 105       19F-3       -0.00001   0.00001   0.00001  -0.00002   0.00000
 106 3   Br 1S          0.05479   0.00215   0.01253  -0.03843   0.00034
 107        2S         -0.16944  -0.00628  -0.04148   0.12331  -0.00108
 108        3S         -0.01497  -0.00064  -0.00388   0.01297  -0.00013
 109        4S          0.00012   0.00002   0.00007  -0.00015   0.00000
 110        5S         -0.00045  -0.00002  -0.00011   0.00038   0.00000
 111        6S         -0.00049  -0.00029  -0.00049   0.00066  -0.00001
 112        7S          0.00014  -0.00013  -0.00024   0.00018   0.00000
 113        8PX         0.00285   0.00154  -0.00037   0.00356   0.71293
 114        8PY         0.66559   0.40309  -0.18714  -0.57058   0.00179
 115        8PZ        -0.16744   0.58786  -0.68606   0.39382  -0.00311
 116        9PX         0.00008  -0.00003   0.00006  -0.00029  -0.01615
 117        9PY        -0.00001  -0.00753   0.00860  -0.00712   0.00020
 118        9PZ        -0.00575  -0.01369   0.01240   0.00327  -0.00009
 119       10PX         0.00000   0.00000   0.00000   0.00000   0.00028
 120       10PY         0.00033   0.00022  -0.00005  -0.00032   0.00000
 121       10PZ        -0.00012   0.00023  -0.00036   0.00021   0.00000
 122       11PX         0.00000   0.00000   0.00000  -0.00001  -0.00122
 123       11PY        -0.00057  -0.00063   0.00047   0.00023   0.00001
 124       11PZ        -0.00006  -0.00101   0.00106  -0.00022   0.00000
 125       12PX         0.00000   0.00000   0.00000   0.00000  -0.00006
 126       12PY         0.00005   0.00012   0.00028  -0.00020   0.00000
 127       12PZ        -0.00008  -0.00013  -0.00006   0.00020   0.00000
 128       13PX         0.00000   0.00000   0.00000   0.00000   0.00002
 129       13PY        -0.00001   0.00003   0.00002  -0.00002   0.00000
 130       13PZ         0.00003   0.00000  -0.00005   0.00002   0.00000
 131       14D 0        0.00008   0.00033  -0.00032   0.00002   0.00000
 132       14D+1        0.00000   0.00000   0.00000   0.00000  -0.00004
 133       14D-1       -0.00033  -0.00018   0.00009   0.00007   0.00000
 134       14D+2       -0.00015   0.00017  -0.00022   0.00009   0.00000
 135       14D-2        0.00000   0.00000   0.00000   0.00000   0.00010
 136       15D 0        0.00000   0.00000  -0.00001   0.00000   0.00000
 137       15D+1        0.00000   0.00000   0.00000   0.00000  -0.00002
 138       15D-1       -0.00005   0.00000  -0.00001   0.00004   0.00000
 139       15D+2       -0.00003   0.00000  -0.00001   0.00003   0.00000
 140       15D-2        0.00000   0.00000   0.00000   0.00000   0.00002
 141       16D 0        0.00000   0.00006  -0.00007   0.00000   0.00000
 142       16D+1        0.00000   0.00000   0.00000   0.00000   0.00003
 143       16D-1        0.00008  -0.00002   0.00007  -0.00012   0.00000
 144       16D+2        0.00006   0.00005  -0.00001  -0.00010   0.00000
 145       16D-2        0.00000   0.00000   0.00000   0.00000  -0.00004
 146       17D 0        0.00000   0.00001   0.00002   0.00002   0.00000
 147       17D+1        0.00000   0.00000   0.00000   0.00000   0.00000
 148       17D-1        0.00002   0.00003   0.00004  -0.00006   0.00000
 149       17D+2       -0.00001   0.00003   0.00004  -0.00003   0.00000
 150       17D-2        0.00000   0.00000   0.00000   0.00000  -0.00001
 151       18F 0        0.00000   0.00000   0.00000   0.00000   0.00000
 152       18F+1        0.00000   0.00000   0.00000   0.00000   0.00000
 153       18F-1        0.00000   0.00001   0.00000   0.00000   0.00000
 154       18F+2        0.00001   0.00000   0.00000  -0.00001   0.00000
 155       18F-2        0.00000   0.00000   0.00000   0.00000   0.00000
 156       18F+3        0.00000   0.00000   0.00000   0.00000   0.00000
 157       18F-3        0.00000   0.00000   0.00000   0.00001   0.00000
 158       19F 0        0.00002   0.00000   0.00000  -0.00001   0.00000
 159       19F+1        0.00000   0.00000   0.00000   0.00000   0.00000
 160       19F-1        0.00001  -0.00003   0.00003  -0.00001   0.00000
 161       19F+2        0.00002   0.00000   0.00001  -0.00004   0.00000
 162       19F-2        0.00000   0.00000   0.00000   0.00000  -0.00002
 163       19F+3        0.00000   0.00000   0.00000   0.00000  -0.00002
 164       19F-3       -0.00001  -0.00001   0.00001   0.00002   0.00000
 165 4   O  1S          0.00000  -0.00046   0.00000   0.00404  -0.00005
 166        2S          0.00000   0.00000   0.00000  -0.00010   0.00000
 167        3S          0.00000  -0.00002   0.00000   0.00018   0.00000
 168        4S          0.00000   0.00006   0.00000   0.00005   0.00000
 169        5S          0.00000   0.00018   0.00000  -0.00005   0.00000
 170        6PX         0.00000   0.00000   0.00000   0.00000   0.00000
 171        6PY         0.00000   0.00000   0.00000   0.00000   0.00000
 172        6PZ         0.00000   0.00000   0.00000   0.00002   0.00000
 173        7PX         0.00000   0.00000   0.00000   0.00000  -0.00001
 174        7PY         0.00001   0.00000   0.00001   0.00000   0.00000
 175        7PZ         0.00000   0.00001   0.00000   0.00006   0.00000
 176        8PX         0.00000   0.00000   0.00000   0.00000  -0.00002
 177        8PY         0.00003   0.00000   0.00000   0.00000   0.00000
 178        8PZ         0.00000   0.00011   0.00000  -0.00005   0.00000
 179        9PX         0.00000   0.00000   0.00000   0.00000  -0.00001
 180        9PY         0.00008   0.00000   0.00002   0.00000   0.00000
 181        9PZ         0.00000  -0.00006   0.00000   0.00002   0.00000
 182       10D 0        0.00000   0.00000   0.00000   0.00000   0.00000
 183       10D+1        0.00000   0.00000   0.00000   0.00000   0.00000
 184       10D-1        0.00000   0.00000   0.00000   0.00000   0.00000
 185       10D+2        0.00000   0.00000   0.00000   0.00000   0.00000
 186       10D-2        0.00000   0.00000   0.00000   0.00000   0.00000
 187       11D 0        0.00000  -0.00001   0.00000  -0.00002   0.00000
 188       11D+1        0.00000   0.00000   0.00000   0.00000   0.00001
 189       11D-1        0.00000   0.00000   0.00001   0.00000   0.00000
 190       11D+2        0.00000  -0.00001   0.00000  -0.00001   0.00000
 191       11D-2        0.00000   0.00000   0.00000   0.00000   0.00000
 192       12D 0        0.00000  -0.00007   0.00000   0.00000   0.00000
 193       12D+1        0.00000   0.00000   0.00000   0.00000   0.00001
 194       12D-1        0.00000   0.00000   0.00002   0.00000   0.00000
 195       12D+2        0.00000  -0.00001   0.00000  -0.00004   0.00000
 196       12D-2        0.00000   0.00000   0.00000   0.00000   0.00000
 197       13F 0        0.00000   0.00000   0.00000   0.00000   0.00000
 198       13F+1        0.00000   0.00000   0.00000   0.00000   0.00000
 199       13F-1        0.00000   0.00000   0.00000   0.00000   0.00000
 200       13F+2        0.00000   0.00000   0.00000   0.00000   0.00000
 201       13F-2        0.00000   0.00000   0.00000   0.00000   0.00000
 202       13F+3        0.00000   0.00000   0.00000   0.00000   0.00000
 203       13F-3        0.00000   0.00000   0.00000   0.00000   0.00000
 204       14F 0        0.00000   0.00001   0.00000   0.00002   0.00000
 205       14F+1        0.00000   0.00000   0.00000   0.00000  -0.00001
 206       14F-1        0.00000   0.00000  -0.00001   0.00000   0.00000
 207       14F+2        0.00000   0.00001   0.00000   0.00002   0.00000
 208       14F-2        0.00000   0.00000   0.00000   0.00000   0.00000
 209       14F+3        0.00000   0.00000   0.00000   0.00000  -0.00001
 210       14F-3        0.00000   0.00000   0.00000   0.00000   0.00000
                          16        17        18        19        20
     Eigenvalues --     2.00000   2.00000   2.00000   2.00000   2.00000
   1 1   C  1S          0.00000   0.00000   0.00153   0.00000   0.00005
   2        2S          0.00000   0.00000  -0.00001   0.00000   0.00000
   3        3S          0.00000   0.00000   0.00006   0.00000   0.00000
   4        4S          0.00000   0.00000   0.00007   0.00000   0.00001
   5        5S          0.00000   0.00000   0.00007   0.00000   0.00000
   6        6PX         0.00000   0.00000   0.00000   0.00000   0.00000
   7        6PY         0.00000   0.00000   0.00000   0.00000   0.00000
   8        6PZ         0.00000   0.00000   0.00000   0.00000   0.00000
   9        7PX         0.00000   0.00000   0.00000   0.00000   0.00000
  10        7PY         0.00000  -0.00002   0.00000   0.00000   0.00000
  11        7PZ         0.00000   0.00000  -0.00001   0.00000   0.00000
  12        8PX         0.00000   0.00000   0.00000   0.00000   0.00000
  13        8PY        -0.00001   0.00001   0.00000  -0.00001   0.00000
  14        8PZ         0.00000   0.00000  -0.00001   0.00000  -0.00001
  15        9PX         0.00000   0.00000   0.00000   0.00000   0.00000
  16        9PY         0.00000   0.00002   0.00000   0.00000   0.00000
  17        9PZ         0.00000   0.00000   0.00000   0.00000   0.00000
  18       10D 0        0.00000   0.00000   0.00000   0.00000   0.00000
  19       10D+1        0.00000   0.00000   0.00000   0.00000   0.00000
  20       10D-1        0.00000   0.00000   0.00000   0.00000   0.00000
  21       10D+2        0.00000   0.00000   0.00000   0.00000   0.00000
  22       10D-2       -0.00001   0.00000   0.00000   0.00000   0.00000
  23       11D 0        0.00000   0.00000   0.00000   0.00000   0.00000
  24       11D+1        0.00000   0.00000   0.00000   0.00000   0.00000
  25       11D-1        0.00000   0.00002   0.00000   0.00000   0.00000
  26       11D+2        0.00000   0.00000  -0.00001   0.00000   0.00000
  27       11D-2        0.00004   0.00000   0.00000   0.00000   0.00000
  28       12D 0        0.00000   0.00000   0.00002   0.00000   0.00000
  29       12D+1        0.00000   0.00000   0.00000   0.00000   0.00000
  30       12D-1        0.00000   0.00004   0.00000   0.00000   0.00000
  31       12D+2        0.00000   0.00000  -0.00001   0.00000   0.00000
  32       12D-2       -0.00004   0.00000   0.00000   0.00000   0.00000
  33       13F 0        0.00000   0.00000   0.00000   0.00000   0.00000
  34       13F+1        0.00000   0.00000   0.00000   0.00000   0.00000
  35       13F-1        0.00000   0.00000   0.00000   0.00000   0.00000
  36       13F+2        0.00000   0.00000   0.00000   0.00000   0.00000
  37       13F-2        0.00000   0.00000   0.00000   0.00000   0.00000
  38       13F+3        0.00000   0.00000   0.00000   0.00000   0.00000
  39       13F-3        0.00000   0.00000   0.00000   0.00000   0.00000
  40       14F 0        0.00000   0.00000  -0.00001   0.00000   0.00000
  41       14F+1        0.00000   0.00000   0.00000   0.00000   0.00000
  42       14F-1        0.00000   0.00002   0.00000   0.00000   0.00000
  43       14F+2        0.00000   0.00000   0.00000   0.00000   0.00000
  44       14F-2       -0.00003   0.00000   0.00000   0.00000   0.00000
  45       14F+3        0.00000   0.00000   0.00000   0.00000   0.00000
  46       14F-3        0.00000   0.00001   0.00000   0.00000   0.00000
  47 2   Br 1S          0.00003  -0.21812  -0.22072   0.66301   0.74663
  48        2S         -0.00005   0.70637   0.71708   0.00383   0.00301
  49        3S         -0.00002   0.03012   0.03104   0.00053   0.00051
  50        4S          0.00000  -0.00020  -0.00019   0.00001   0.00001
  51        5S          0.00000   0.00071   0.00074   0.00000   0.00000
  52        6S         -0.00001   0.00004   0.00003  -0.00002  -0.00001
  53        7S         -0.00001   0.00004  -0.00002   0.00000   0.00000
  54        8PX         0.71310   0.00074   0.00051  -0.00002  -0.00001
  55        8PY         0.00301  -0.15290  -0.10619   0.00228   0.00058
  56        8PZ         0.00046  -0.08295  -0.06534   0.00027   0.00006
  57        9PX        -0.01661   0.00000  -0.00001   0.00000   0.00000
  58        9PY        -0.00013   0.00252   0.00307  -0.00009  -0.00015
  59        9PZ        -0.00006   0.00125   0.00180  -0.00004  -0.00006
  60       10PX         0.00029   0.00000   0.00000   0.00000   0.00000
  61       10PY         0.00000  -0.00008  -0.00006   0.00000   0.00000
  62       10PZ         0.00000  -0.00005  -0.00004   0.00000   0.00000
  63       11PX        -0.00124   0.00000   0.00000   0.00000   0.00000
  64       11PY        -0.00001   0.00024   0.00023   0.00000  -0.00001
  65       11PZ         0.00000   0.00013   0.00013   0.00000   0.00000
  66       12PX        -0.00013   0.00000   0.00000   0.00000   0.00000
  67       12PY         0.00000   0.00006   0.00001  -0.00001   0.00000
  68       12PZ         0.00000   0.00003   0.00002   0.00000   0.00000
  69       13PX         0.00003   0.00000   0.00000   0.00000   0.00000
  70       13PY         0.00000   0.00000  -0.00001   0.00000   0.00000
  71       13PZ         0.00000   0.00000   0.00000   0.00000   0.00000
  72       14D 0        0.00000  -0.00003  -0.00004   0.00000   0.00000
  73       14D+1       -0.00004   0.00000   0.00000   0.00000   0.00000
  74       14D-1        0.00000   0.00001   0.00000   0.00000   0.00000
  75       14D+2        0.00000   0.00007   0.00007   0.00000   0.00000
  76       14D-2       -0.00011   0.00000   0.00000   0.00000   0.00000
  77       15D 0        0.00000   0.00000   0.00000   0.00000   0.00000
  78       15D+1       -0.00001   0.00000   0.00000   0.00000   0.00000
  79       15D-1        0.00000   0.00000   0.00000   0.00000   0.00000
  80       15D+2        0.00000   0.00000   0.00000   0.00000   0.00000
  81       15D-2       -0.00002   0.00000   0.00000   0.00000   0.00000
  82       16D 0        0.00000  -0.00001   0.00000   0.00000   0.00000
  83       16D+1        0.00002   0.00000   0.00000   0.00000   0.00000
  84       16D-1        0.00000  -0.00001  -0.00001   0.00000   0.00000
  85       16D+2        0.00000   0.00001   0.00001   0.00000   0.00000
  86       16D-2        0.00003   0.00000   0.00000   0.00000   0.00000
  87       17D 0        0.00000   0.00000   0.00000   0.00000   0.00000
  88       17D+1       -0.00002   0.00000   0.00000   0.00000   0.00000
  89       17D-1        0.00000   0.00001   0.00001   0.00000   0.00000
  90       17D+2        0.00000  -0.00002   0.00000   0.00000   0.00000
  91       17D-2       -0.00002   0.00000   0.00000   0.00000   0.00000
  92       18F 0        0.00000   0.00000   0.00000   0.00000   0.00000
  93       18F+1        0.00000   0.00000   0.00000   0.00000   0.00000
  94       18F-1        0.00000   0.00000   0.00000   0.00000   0.00000
  95       18F+2        0.00000   0.00000   0.00000   0.00000   0.00000
  96       18F-2        0.00000   0.00000   0.00000   0.00000   0.00000
  97       18F+3        0.00000   0.00000   0.00000   0.00000   0.00000
  98       18F-3        0.00000   0.00000   0.00000   0.00000   0.00000
  99       19F 0        0.00000   0.00000   0.00000   0.00000   0.00000
 100       19F+1        0.00000   0.00000   0.00000   0.00000   0.00000
 101       19F-1        0.00000   0.00000   0.00000   0.00000   0.00000
 102       19F+2        0.00000   0.00000   0.00000   0.00000   0.00000
 103       19F-2        0.00001   0.00000   0.00000   0.00000   0.00000
 104       19F+3       -0.00001   0.00000   0.00000   0.00000   0.00000
 105       19F-3        0.00000   0.00000   0.00000   0.00000   0.00000
 106 3   Br 1S         -0.00003   0.21813  -0.22073  -0.74627   0.66341
 107        2S          0.00005  -0.70635   0.71710  -0.00417   0.00255
 108        3S          0.00002  -0.03012   0.03104  -0.00058   0.00045
 109        4S          0.00000   0.00020  -0.00019  -0.00001   0.00001
 110        5S          0.00000  -0.00071   0.00074   0.00000   0.00000
 111        6S          0.00001  -0.00004   0.00003   0.00002  -0.00001
 112        7S          0.00001  -0.00004  -0.00002   0.00000   0.00000
 113        8PX        -0.71327  -0.00074   0.00051   0.00002  -0.00001
 114        8PY         0.00301  -0.15290   0.10619   0.00233  -0.00031
 115        8PZ        -0.00046   0.08295  -0.06534  -0.00027   0.00002
 116        9PX         0.01662   0.00000  -0.00001   0.00000   0.00000
 117        9PY        -0.00013   0.00252  -0.00307  -0.00011   0.00014
 118        9PZ         0.00006  -0.00125   0.00180   0.00005  -0.00005
 119       10PX        -0.00029   0.00000   0.00000   0.00000   0.00000
 120       10PY         0.00000  -0.00008   0.00006   0.00000   0.00000
 121       10PZ         0.00000   0.00005  -0.00004   0.00000   0.00000
 122       11PX         0.00124   0.00000   0.00000   0.00000   0.00000
 123       11PY        -0.00001   0.00024  -0.00023  -0.00001   0.00001
 124       11PZ         0.00000  -0.00013   0.00013   0.00000   0.00000
 125       12PX         0.00013   0.00000   0.00000   0.00000   0.00000
 126       12PY         0.00000   0.00006  -0.00001  -0.00001   0.00000
 127       12PZ         0.00000  -0.00003   0.00002   0.00000   0.00000
 128       13PX        -0.00003   0.00000   0.00000   0.00000   0.00000
 129       13PY         0.00000   0.00000   0.00001   0.00000   0.00000
 130       13PZ         0.00000   0.00000   0.00000   0.00000   0.00000
 131       14D 0        0.00000   0.00003  -0.00004   0.00000   0.00000
 132       14D+1        0.00004   0.00000   0.00000   0.00000   0.00000
 133       14D-1        0.00000   0.00001   0.00000   0.00000   0.00000
 134       14D+2        0.00000  -0.00007   0.00007   0.00000   0.00000
 135       14D-2       -0.00011   0.00000   0.00000   0.00000   0.00000
 136       15D 0        0.00000   0.00000   0.00000   0.00000   0.00000
 137       15D+1        0.00001   0.00000   0.00000   0.00000   0.00000
 138       15D-1        0.00000   0.00000   0.00000   0.00000   0.00000
 139       15D+2        0.00000   0.00000   0.00000   0.00000   0.00000
 140       15D-2       -0.00002   0.00000   0.00000   0.00000   0.00000
 141       16D 0        0.00000   0.00001   0.00000   0.00000   0.00000
 142       16D+1       -0.00002   0.00000   0.00000   0.00000   0.00000
 143       16D-1        0.00000  -0.00001   0.00001   0.00000   0.00000
 144       16D+2        0.00000  -0.00001   0.00001   0.00000   0.00000
 145       16D-2        0.00003   0.00000   0.00000   0.00000   0.00000
 146       17D 0        0.00000   0.00000   0.00000   0.00000   0.00000
 147       17D+1        0.00002   0.00000   0.00000   0.00000   0.00000
 148       17D-1        0.00000   0.00001  -0.00001   0.00000   0.00000
 149       17D+2        0.00000   0.00002   0.00000   0.00000   0.00000
 150       17D-2       -0.00002   0.00000   0.00000   0.00000   0.00000
 151       18F 0        0.00000   0.00000   0.00000   0.00000   0.00000
 152       18F+1        0.00000   0.00000   0.00000   0.00000   0.00000
 153       18F-1        0.00000   0.00000   0.00000   0.00000   0.00000
 154       18F+2        0.00000   0.00000   0.00000   0.00000   0.00000
 155       18F-2        0.00000   0.00000   0.00000   0.00000   0.00000
 156       18F+3        0.00000   0.00000   0.00000   0.00000   0.00000
 157       18F-3        0.00000   0.00000   0.00000   0.00000   0.00000
 158       19F 0        0.00000   0.00000   0.00000   0.00000   0.00000
 159       19F+1        0.00000   0.00000   0.00000   0.00000   0.00000
 160       19F-1        0.00000   0.00000   0.00000   0.00000   0.00000
 161       19F+2        0.00000   0.00000   0.00000   0.00000   0.00000
 162       19F-2        0.00001   0.00000   0.00000   0.00000   0.00000
 163       19F+3        0.00001   0.00000   0.00000   0.00000   0.00000
 164       19F-3        0.00000   0.00000   0.00000   0.00000   0.00000
 165 4   O  1S          0.00000   0.00000   0.00061   0.00000   0.00000
 166        2S          0.00000   0.00000   0.00000   0.00000   0.00000
 167        3S          0.00000   0.00000   0.00003   0.00000   0.00000
 168        4S          0.00000   0.00000  -0.00002   0.00000   0.00000
 169        5S          0.00000   0.00000  -0.00005   0.00000   0.00001
 170        6PX         0.00000   0.00000   0.00000   0.00000   0.00000
 171        6PY         0.00000   0.00000   0.00000   0.00000   0.00000
 172        6PZ         0.00000   0.00000   0.00000   0.00000   0.00000
 173        7PX         0.00000   0.00000   0.00000   0.00000   0.00000
 174        7PY         0.00000   0.00000   0.00000   0.00000   0.00000
 175        7PZ         0.00000   0.00000   0.00001   0.00000   0.00000
 176        8PX         0.00000   0.00000   0.00000   0.00000   0.00000
 177        8PY         0.00000  -0.00003   0.00000   0.00000   0.00000
 178        8PZ         0.00000   0.00000   0.00001   0.00000   0.00000
 179        9PX         0.00000   0.00000   0.00000   0.00000   0.00000
 180        9PY         0.00000  -0.00001   0.00000   0.00000   0.00000
 181        9PZ         0.00000   0.00000   0.00001   0.00000   0.00000
 182       10D 0        0.00000   0.00000   0.00000   0.00000   0.00000
[...]
 189       11D-1        0.00000   0.00000   0.15778   0.00000   0.00000
 190       11D+2       -0.00561  -0.00815   0.00000  -0.09848  -0.03591
 191       11D-2        0.00000   0.00000   0.00461   0.00000   0.00000
 192       12D 0        4.61232  -0.05137   0.00000  -1.29039   0.76115
 193       12D+1        0.07255   2.06473   0.00000  -0.04742  -0.00593
 194       12D-1        0.00000   0.00000  -0.24053   0.00000   0.00000
 195       12D+2       -0.55046   0.05507   0.00000   0.55989   0.04489
 196       12D-2        0.00000   0.00000  -0.01203   0.00000   0.00000
 197       13F 0        0.02107  -0.00009   0.00000   0.01574  -0.04553
 198       13F+1        0.00236   0.01865   0.00000  -0.00023  -0.00191
 199       13F-1        0.00000   0.00000   0.04811   0.00000   0.00000
 200       13F+2       -0.05384   0.00132   0.00000   0.02448  -0.01343
 201       13F-2        0.00000   0.00000   0.00061   0.00000   0.00000
 202       13F+3       -0.00185   0.00457   0.00000   0.00070   0.00348
 203       13F-3        0.00000   0.00000  -0.02861   0.00000   0.00000
 204       14F 0       -1.28711   0.00465   0.00000   0.17087   0.01098
 205       14F+1       -0.02995  -0.15201   0.00000   0.01139   0.03706
 206       14F-1        0.00000   0.00000  -0.12707   0.00000   0.00000
 207       14F+2        0.19319  -0.00782   0.00000  -0.09959   0.04656
 208       14F-2        0.00000   0.00000  -0.00073   0.00000   0.00000
 209       14F+3        0.00600   0.00243   0.00000  -0.00187  -0.00577
 210       14F-3        0.00000   0.00000   0.05957   0.00000   0.00000
                         206       207       208       209       210
     Eigenvalues --     0.00000   0.00000   0.00000   0.00000   0.00000
   1 1   C  1S          0.07545   0.00000   0.00000   0.21901   0.00121
   2        2S          0.40126   0.00000   0.00000   1.25597   0.04484
   3        3S         -0.02123   0.00000   0.00000   0.00693   0.11071
   4        4S         -0.28792   0.00000   0.00000   9.31522   3.54963
   5        5S         -1.94850   0.00000   0.00000   3.63385  31.40598
   6        6PX         0.00371   0.00000   0.00000  -0.00015   0.00095
   7        6PY         0.00000  -0.00115   0.00559   0.00000   0.00000
   8        6PZ         0.00006   0.00000   0.00000   0.01347   0.01073
   9        7PX        -0.30903   0.00000   0.00000   0.01222   0.00095
  10        7PY         0.00000  -0.24502  -0.12898   0.00000   0.00000
  11        7PZ         0.10690   0.00000   0.00000   1.35286   0.07183
  12        8PX        -0.30938   0.00000   0.00000   0.02497   0.02433
  13        8PY         0.00000  -5.55293   6.86561   0.00000   0.00000
  14        8PZ         1.12693   0.00000   0.00000   5.43494  -0.01718
  15        9PX         6.16256   0.00000   0.00000  -0.00729   0.07481
  16        9PY         0.00000  -0.37116  13.99672   0.00000   0.00000
  17        9PZ        -0.21293   0.00000   0.00000   5.90225  -3.83331
  18       10D 0        0.00354   0.00000   0.00000   0.08534   0.02118
  19       10D+1       -0.00665   0.00000   0.00000   0.00181   0.00024
  20       10D-1        0.00000   0.00798   0.02143   0.00000   0.00000
  21       10D+2       -0.00330   0.00000   0.00000  -0.00541  -0.04826
  22       10D-2        0.00000   0.00018  -0.00024   0.00000   0.00000
  23       11D 0        0.04741   0.00000   0.00000   0.59404  -0.21133
  24       11D+1       -0.43053   0.00000   0.00000   0.00479   0.00501
  25       11D-1        0.00000  -0.13750  -0.69635   0.00000   0.00000
  26       11D+2        0.02274   0.00000   0.00000   0.01841   0.18841
  27       11D-2        0.00000  -0.00493   0.00402   0.00000   0.00000
  28       12D 0        0.00585   0.00000   0.00000   3.51162   0.24223
  29       12D+1        0.88833   0.00000   0.00000   0.00875   0.00309
  30       12D-1        0.00000  -0.18776  -0.39700   0.00000   0.00000
  31       12D+2        0.53495   0.00000   0.00000   1.39362  -1.02235
  32       12D-2        0.00000  -0.00983   0.06928   0.00000   0.00000
  33       13F 0        0.01790   0.00000   0.00000   0.05146  -0.04525
  34       13F+1       -0.11737   0.00000   0.00000   0.00066   0.00139
  35       13F-1        0.00000  -0.01565  -0.06212   0.00000   0.00000
  36       13F+2       -0.00016   0.00000   0.00000  -0.00234   0.00538
  37       13F-2        0.00000  -0.00046  -0.00114   0.00000   0.00000
  38       13F+3        0.05057   0.00000   0.00000  -0.00070  -0.00019
  39       13F-3        0.00000   0.04627  -0.00097   0.00000   0.00000
  40       14F 0       -0.05054   0.00000   0.00000  -0.01536  -0.09259
  41       14F+1       -0.04767   0.00000   0.00000  -0.00002  -0.00167
  42       14F-1        0.00000  -0.01052  -0.01982   0.00000   0.00000
  43       14F+2       -0.04702   0.00000   0.00000   0.12708  -0.17126
  44       14F-2        0.00000  -0.00117  -0.00424   0.00000   0.00000
  45       14F+3       -0.02963   0.00000   0.00000   0.00175   0.00154
  46       14F-3        0.00000  -0.06785  -0.10914   0.00000   0.00000
  47 2   Br 1S         -0.00077   0.00217  -0.00004  -0.00001   0.00009
  48        2S         -0.00510   0.01659  -0.00343  -0.00115   0.00068
  49        3S         -0.02568   0.07738  -0.00836  -0.00277   0.00320
  50        4S         -0.06934   0.22748  -0.05600  -0.01404   0.01045
  51        5S         -0.02505   0.09017  -0.15557  -0.00282  -0.00236
  52        6S          0.92778  -0.74029   1.90528   0.84505   0.04796
  53        7S          1.12756  -9.98805  14.90335   2.10074 -13.48927
  54        8PX         0.00158   0.00000   0.00001   0.00000   0.00000
  55        8PY         0.00086   0.00098   0.00059   0.00064  -0.00039
  56        8PZ         0.00018   0.00059  -0.00003   0.00044   0.00005
  57        9PX        -0.01956  -0.00003  -0.00035   0.00012  -0.00017
  58        9PY        -0.00289   0.01661   0.00331  -0.00843   0.02556
  59        9PZ        -0.00006   0.00145   0.01303  -0.00973   0.01480
  60       10PX        -0.14981  -0.00055  -0.00368   0.00139  -0.00224
  61       10PY         0.00968   0.24634   0.06930  -0.06611   0.28069
  62       10PZ         0.00931   0.05034   0.15036  -0.09178   0.17657
  63       11PX         0.04385  -0.00005   0.00057  -0.00017   0.00015
  64       11PY         0.01497   0.00127  -0.00423   0.01860  -0.03514
  65       11PZ         0.00372   0.01554  -0.02350   0.01463  -0.01587
  66       12PX         0.63573   0.01508   0.01489  -0.00689   0.01808
  67       12PY         0.69014  -3.69691   3.70983  -0.34903  -1.67420
  68       12PZ         0.53698  -2.35458   2.54086   1.58495  -1.31227
  69       13PX        -2.38007   0.00315  -0.03962  -0.00743   0.01321
  70       13PY        -0.04689  -3.82799   0.39287   0.83640  -3.66162
  71       13PZ         0.26767  -0.93476   2.85210  -0.92383  -2.17411
  72       14D 0       -0.00025  -0.00091  -0.00060   0.00118  -0.00096
  73       14D+1        0.00226  -0.00001   0.00003   0.00002   0.00001
  74       14D-1       -0.00018   0.00087  -0.00020  -0.00129   0.00114
  75       14D+2       -0.00003  -0.00345  -0.00109   0.00224   0.00021
  76       14D-2        0.00096  -0.00001  -0.00001   0.00002  -0.00001
  77       15D 0        0.00517   0.01490   0.00435  -0.01453   0.01321
  78       15D+1       -0.02718   0.00002  -0.00036  -0.00010  -0.00009
  79       15D-1        0.00109   0.00208  -0.01504   0.00886  -0.01737
  80       15D+2        0.00359   0.03674   0.02471  -0.02375  -0.00134
  81       15D-2       -0.02064   0.00003   0.00007  -0.00025   0.00023
  82       16D 0       -0.03328  -0.09787  -0.00357   0.08810  -0.07454
  83       16D+1        0.10801  -0.00004   0.00045   0.00092  -0.00036
  84       16D-1        0.03756  -0.02882   0.30069  -0.05029   0.16945
  85       16D+2       -0.05325  -0.19686  -0.27207   0.14426  -0.05866
  86       16D-2        0.09646  -0.00020  -0.00169   0.00222  -0.00209
  87       17D 0        0.11628   0.17274   0.16575   0.32871   0.03893
  88       17D+1       -0.21497   0.00891   0.00187  -0.00919   0.00556
  89       17D-1        0.12561  -1.41688   1.10158   0.29416  -0.75147
  90       17D+2       -0.05229   1.77124  -0.51247   0.24893   0.34909
  91       17D-2       -0.02818   0.00975   0.00544   0.00047   0.01082
  92       18F 0       -0.00617   0.00478   0.01923  -0.01480  -0.00454
  93       18F+1       -0.00897  -0.00061  -0.00032   0.00047  -0.00031
  94       18F-1        0.00458   0.02794  -0.02450   0.00086   0.00693
  95       18F+2       -0.00350  -0.04203   0.01316  -0.01465  -0.00846
  96       18F-2       -0.01276  -0.00086  -0.00085   0.00063  -0.00051
  97       18F+3        0.04861   0.00044   0.00038   0.00065   0.00039
  98       18F-3        0.00572  -0.03986   0.01440  -0.01973  -0.01203
  99       19F 0        0.00869   0.02258  -0.10651   0.03105  -0.00985
 100       19F+1        0.00571   0.00170   0.00066  -0.00179   0.00093
 101       19F-1       -0.00488  -0.10901   0.13204   0.02704  -0.02973
 102       19F+2       -0.00247   0.17820  -0.16410   0.05210   0.01752
 103       19F-2        0.01985   0.00282   0.00158  -0.00169   0.00104
 104       19F+3       -0.10770  -0.00151  -0.00067  -0.00297  -0.00103
 105       19F-3       -0.01681   0.16986  -0.10693   0.09917   0.02262
 106 3   Br 1S         -0.00077  -0.00217   0.00004  -0.00001   0.00009
 107        2S         -0.00510  -0.01659   0.00343  -0.00115   0.00068
 108        3S         -0.02568  -0.07738   0.00836  -0.00277   0.00320
 109        4S         -0.06934  -0.22748   0.05600  -0.01404   0.01045
 110        5S         -0.02505  -0.09017   0.15557  -0.00282  -0.00236
 111        6S          0.92778   0.74029  -1.90528   0.84505   0.04796
 112        7S          1.12756   9.98805 -14.90335   2.10074 -13.48927
 113        8PX         0.00158   0.00000  -0.00001   0.00000   0.00000
 114        8PY        -0.00086   0.00098   0.00059  -0.00064   0.00039
 115        8PZ         0.00018  -0.00059   0.00003   0.00044   0.00005
 116        9PX        -0.01956   0.00003   0.00035   0.00012  -0.00017
 117        9PY         0.00289   0.01661   0.00331   0.00843  -0.02556
 118        9PZ        -0.00006  -0.00145  -0.01303  -0.00973   0.01480
 119       10PX        -0.14981   0.00055   0.00368   0.00139  -0.00224
 120       10PY        -0.00968   0.24634   0.06930   0.06611  -0.28069
 121       10PZ         0.00931  -0.05034  -0.15036  -0.09178   0.17657
 122       11PX         0.04385   0.00005  -0.00057  -0.00017   0.00015
 123       11PY        -0.01497   0.00127  -0.00423  -0.01860   0.03514
 124       11PZ         0.00372  -0.01554   0.02350   0.01463  -0.01587
 125       12PX         0.63573  -0.01508  -0.01489  -0.00689   0.01808
 126       12PY        -0.69014  -3.69691   3.70983   0.34903   1.67420
 127       12PZ         0.53698   2.35458  -2.54086   1.58495  -1.31227
 128       13PX        -2.38007  -0.00315   0.03962  -0.00743   0.01321
 129       13PY         0.04689  -3.82799   0.39287  -0.83640   3.66162
 130       13PZ         0.26767   0.93476  -2.85210  -0.92383  -2.17411
 131       14D 0       -0.00025   0.00091   0.00060   0.00118  -0.00096
 132       14D+1        0.00226   0.00001  -0.00003   0.00002   0.00001
 133       14D-1        0.00018   0.00087  -0.00020   0.00129  -0.00114
 134       14D+2       -0.00003   0.00345   0.00109   0.00224   0.00021
 135       14D-2       -0.00096  -0.00001  -0.00001  -0.00002   0.00001
 136       15D 0        0.00517  -0.01490  -0.00435  -0.01453   0.01321
 137       15D+1       -0.02718  -0.00002   0.00036  -0.00010  -0.00009
 138       15D-1       -0.00109   0.00208  -0.01504  -0.00886   0.01737
 139       15D+2        0.00359  -0.03674  -0.02471  -0.02375  -0.00134
 140       15D-2        0.02064   0.00003   0.00007   0.00025  -0.00023
 141       16D 0       -0.03328   0.09787   0.00357   0.08810  -0.07454
 142       16D+1        0.10801   0.00004  -0.00045   0.00092  -0.00036
 143       16D-1       -0.03756  -0.02882   0.30069   0.05029  -0.16945
 144       16D+2       -0.05325   0.19686   0.27207   0.14426  -0.05866
 145       16D-2       -0.09646  -0.00020  -0.00169  -0.00222   0.00209
 146       17D 0        0.11628  -0.17274  -0.16575   0.32871   0.03893
 147       17D+1       -0.21497  -0.00891  -0.00187  -0.00919   0.00556
 148       17D-1       -0.12561  -1.41688   1.10158  -0.29416   0.75147
 149       17D+2       -0.05229  -1.77124   0.51247   0.24893   0.34909
 150       17D-2        0.02818   0.00975   0.00544  -0.00047  -0.01082
 151       18F 0       -0.00617  -0.00478  -0.01923  -0.01480  -0.00454
 152       18F+1       -0.00897   0.00061   0.00032   0.00047  -0.00031
 153       18F-1       -0.00458   0.02794  -0.02450  -0.00086  -0.00693
 154       18F+2       -0.00350   0.04203  -0.01316  -0.01465  -0.00846
 155       18F-2        0.01276  -0.00086  -0.00085  -0.00063   0.00051
 156       18F+3        0.04861  -0.00044  -0.00038   0.00065   0.00039
 157       18F-3       -0.00572  -0.03986   0.01440   0.01973   0.01203
 158       19F 0        0.00869  -0.02258   0.10651   0.03105  -0.00985
 159       19F+1        0.00571  -0.00170  -0.00066  -0.00179   0.00093
 160       19F-1        0.00488  -0.10901   0.13204  -0.02704   0.02973
 161       19F+2       -0.00247  -0.17820   0.16410   0.05210   0.01752
 162       19F-2       -0.01985   0.00282   0.00158   0.00169  -0.00104
 163       19F+3       -0.10770   0.00151   0.00067  -0.00297  -0.00103
 164       19F-3        0.01681   0.16986  -0.10693  -0.09917  -0.02262
 165 4   O  1S          0.01548   0.00000   0.00000   0.09942   0.02960
 166        2S          0.07317   0.00000   0.00000   0.52300   0.15487
 167        3S         -0.00736   0.00000   0.00000   0.00495  -0.00583
 168        4S         -0.41816   0.00000   0.00000  -6.19620   0.01639
 169        5S         -1.11464   0.00000   0.00000 -15.14401  -8.04721
 170        6PX         0.01888   0.00000   0.00000   0.00000   0.00036
 171        6PY         0.00000   0.01525   0.00273   0.00000   0.00000
 172        6PZ        -0.00350   0.00000   0.00000  -0.00527   0.01150
 173        7PX        -0.03397   0.00000   0.00000   0.00042  -0.00280
 174        7PY         0.00000  -0.07986   0.03676   0.00000   0.00000
 175        7PZ         0.02061   0.00000   0.00000   0.14081  -0.13498
 176        8PX         0.77804   0.00000   0.00000   0.04303   0.00178
 177        8PY         0.00000   1.01614   0.12960   0.00000   0.00000
 178        8PZ         0.35288   0.00000   0.00000   3.76155   0.67521
 179        9PX        -3.38267   0.00000   0.00000   0.06118   0.00977
 180        9PY         0.00000  -0.78367  -3.69313   0.00000   0.00000
 181        9PZ         0.90953   0.00000   0.00000   0.27441   1.67609
 182       10D 0       -0.00861   0.00000   0.00000   0.05475   0.01252
 183       10D+1        0.03482   0.00000   0.00000   0.00022  -0.00032
 184       10D-1        0.00000   0.00144   0.03695   0.00000   0.00000
 185       10D+2       -0.00195   0.00000   0.00000  -0.02697  -0.01072
 186       10D-2        0.00000  -0.00066   0.00004   0.00000   0.00000
 187       11D 0        0.00361   0.00000   0.00000  -0.40236  -0.02902
 188       11D+1       -0.23316   0.00000   0.00000  -0.00406   0.00300
 189       11D-1        0.00000  -0.03550  -0.20742   0.00000   0.00000
 190       11D+2        0.00847   0.00000   0.00000   0.07719   0.03416
 191       11D-2        0.00000   0.00190  -0.00052   0.00000   0.00000
 192       12D 0       -0.17718   0.00000   0.00000  -0.49815  -0.18947
 193       12D+1       -0.09212   0.00000   0.00000  -0.01533  -0.00162
 194       12D-1        0.00000  -0.30755   0.15538   0.00000   0.00000
 195       12D+2       -0.02636   0.00000   0.00000  -0.37650   0.05716
 196       12D-2        0.00000  -0.00730  -0.00460   0.00000   0.00000
 197       13F 0        0.00925   0.00000   0.00000   0.01821  -0.01332
 198       13F+1       -0.00516   0.00000   0.00000   0.00072  -0.00028
 199       13F-1        0.00000  -0.01477  -0.00256   0.00000   0.00000
 200       13F+2        0.00228   0.00000   0.00000  -0.01310   0.01477
 201       13F-2        0.00000  -0.00008  -0.00051   0.00000   0.00000
 202       13F+3        0.01364   0.00000   0.00000  -0.00079   0.00064
 203       13F-3        0.00000  -0.00983   0.01625   0.00000   0.00000
 204       14F 0       -0.00237   0.00000   0.00000   0.14354   0.06407
 205       14F+1        0.16600   0.00000   0.00000   0.00253  -0.00078
 206       14F-1        0.00000   0.07270   0.09682   0.00000   0.00000
 207       14F+2       -0.00506   0.00000   0.00000   0.05857  -0.03812
 208       14F-2        0.00000   0.00068   0.00229   0.00000   0.00000
 209       14F+3       -0.02493   0.00000   0.00000   0.00179  -0.00168
 210       14F-3        0.00000   0.02496  -0.02834   0.00000   0.00000
          Condensed to atoms (all electrons):
              1          2          3          4
     1  C    5.559232   0.025700   0.025700   0.239627
     2  Br   0.025700  35.045271  -0.118475  -0.056197
     3  Br   0.025700  -0.118475  35.045271  -0.056197
     4  O    0.239627  -0.056197  -0.056197   8.229906
 Mulliken atomic charges:
              1
     1  C    0.149741
     2  Br   0.103700
     3  Br   0.103700
     4  O   -0.357140
 Sum of Mulliken atomic charges =   0.00000
 Mulliken charges with hydrogens summed into heavy atoms:
              1
     1  C    0.149741
     2  Br   0.103700
     3  Br   0.103700
     4  O   -0.357140
 Sum of Mulliken charges with hydrogens summed into heavy atoms =   0.00000
 Electronic spatial extent (au):  <R**2>=           1355.6185
 Charge=              0.0000 electrons
 Dipole moment (field-independent basis, Debye):
    X=             -0.0059    Y=              0.0000    Z=             -1.2404  Tot=              1.2404
 Quadrupole moment (field-independent basis, Debye-Ang):
   XX=            -46.9630   YY=            -44.9360   ZZ=            -47.5254
   XY=              0.0000   XZ=             -0.0244   YZ=              0.0000
 Traceless Quadrupole moment (field-independent basis, Debye-Ang):
   XX=             -0.4882   YY=              1.5388   ZZ=             -1.0506
   XY=              0.0000   XZ=             -0.0244   YZ=              0.0000
 Octapole moment (field-independent basis, Debye-Ang**2):
  XXX=              0.1611  YYY=              0.0000  ZZZ=            164.8166  XYY=              0.1616
  XXY=              0.0000  XXZ=             56.3132  XZZ=              0.1367  YZZ=              0.0000
  YYZ=             45.7175  XYZ=              0.0000
 Hexadecapole moment (field-independent basis, Debye-Ang**3):
 XXXX=            -53.7000 YYYY=           -570.9385 ZZZZ=           -597.1041 XXXY=              0.0000
 XXXZ=             -0.1174 YYYX=              0.0000 YYYZ=              0.0000 ZZZX=             -0.2969
 ZZZY=              0.0000 XXYY=           -111.3606 XXZZ=           -110.4164 YYZZ=           -175.0990
 XXYZ=              0.0000 YYXZ=             -0.2613 ZZXY=              0.0000
 N-N= 4.492299500015D+02 E-N=-1.347021726820D+04  KE= 5.257229987472D+03
 1\1\GINC-TRAPISTA\SP\RQCISD-FC\Aug-CC-pVTZ\C1Br2O1\BRUNS\28-Nov-2021\0
 \\# qcisd/aug-cc-pvtz nosymm density=current output=wfn\\br2co-wavefun
 ction\\0,1\C,0,-0.01,0.,-0.491759\Br,0,0.,-1.594181,-1.54682\Br,0,0.,1
 .594181,-1.54682\O,0,0.,0.,0.6845\\Version=EM64L-G09RevB.01\HF=-5257.6
 84523\MP2=-5258.5485922\MP3=-5258.5484503\MP4D=-5258.5696618\MP4DQ=-52
 58.5481816\MP4SDQ=-5258.5601495\QCISD=-5258.5577498\RMSD=9.224e-09\Dip
 ole=-0.0023381,0.,-0.4880131\Quadrupole=-0.3629858,1.1440737,-0.781087
 9,0.,-0.018163,0.\PG=CS [SG(C1O1),X(Br2)]\\@

 Writing a WFN file to GAUSSIAN.wfn.


 In the beginning there was nothing, which exploded.
 Job cpu time:  0 days  5 hours 48 minutes 58.1 seconds.
 File lengths (MBytes):  RWF=  23799 Int=      0 D2E=      0 Chk=      4 Scr=      1
 Normal termination of Gaussian 09 at Sun Nov 28 06:48:11 2021.
