 br2co-wavefunction
GAUSSIAN            210 MOL ORBITALS    578 PRIMITIVES        4 NUCLEI
  C    1    (CENTRE  1)   0.00000000  0.00000000 -0.92928983  CHARGE =  6.0
  Br   2    (CENTRE  2)  -0.01889726 -3.01256550 -2.92306618  CHARGE = 35.0
  Br   3    (CENTRE  3)   0.00000000  3.01256550 -2.92306618  CHARGE = 35.0
  O    4    (CENTRE  4)   0.00000000  0.00000000  1.29351754  CHARGE =  8.0
CENTRE ASSIGNMENTS    1  1  1  1  1  1  1  1  1  1  1  1  1  1  1  1  1  1  1  1
CENTRE ASSIGNMENTS    1  1  1  1  1  1  1  1  1  1  1  1  1  1  1  1  1  1  1  1
CENTRE ASSIGNMENTS    1  1  1  1  1  1  1  1  1  1  1  1  1  1  1  1  1  1  1  1
CENTRE ASSIGNMENTS    1  1  1  1  1  1  1  1  1  1  1  1  2  2  2  2  2  2  2  2
CENTRE ASSIGNMENTS    2  2  2  2  2  2  2  2  2  2  2  2  2  2  2  2  2  2  2  2
CENTRE ASSIGNMENTS    2  2  2  2  2  2  2  2  2  2  2  2  2  2  2  2  2  2  2  2
CENTRE ASSIGNMENTS    2  2  2  2  2  2  2  2  2  2  2  2  2  2  2  2  2  2  2  2
CENTRE ASSIGNMENTS    2  2  2  2  2  2  2  2  2  2  2  2  2  2  2  2  2  2  2  2
CENTRE ASSIGNMENTS    2  2  2  2  2  2  2  2  2  2  2  2  2  2  2  2  2  2  2  2
CENTRE ASSIGNMENTS    2  2  2  2  2  2  2  2  2  2  2  2  2  2  2  2  2  2  2  2
CENTRE ASSIGNMENTS    2  2  2  2  2  2  2  2  2  2  2  2  2  2  2  2  2  2  2  2
CENTRE ASSIGNMENTS    2  2  2  2  2  2  2  2  2  2  2  2  2  2  2  2  2  2  2  2
CENTRE ASSIGNMENTS    2  2  2  2  2  2  2  2  2  2  2  2  2  2  2  2  2  2  2  2
CENTRE ASSIGNMENTS    2  2  2  2  2  2  2  2  2  2  2  2  2  2  2  2  2  2  2  2
CENTRE ASSIGNMENTS    2  2  2  2  2  2  2  2  2  3  3  3  3  3  3  3  3  3  3  3
CENTRE ASSIGNMENTS    3  3  3  3  3  3  3  3  3  3  3  3  3  3  3  3  3  3  3  3
CENTRE ASSIGNMENTS    3  3  3  3  3  3  3  3  3  3  3  3  3  3  3  3  3  3  3  3
CENTRE ASSIGNMENTS    3  3  3  3  3  3  3  3  3  3  3  3  3  3  3  3  3  3  3  3
CENTRE ASSIGNMENTS    3  3  3  3  3  3  3  3  3  3  3  3  3  3  3  3  3  3  3  3
CENTRE ASSIGNMENTS    3  3  3  3  3  3  3  3  3  3  3  3  3  3  3  3  3  3  3  3
CENTRE ASSIGNMENTS    3  3  3  3  3  3  3  3  3  3  3  3  3  3  3  3  3  3  3  3
CENTRE ASSIGNMENTS    3  3  3  3  3  3  3  3  3  3  3  3  3  3  3  3  3  3  3  3
CENTRE ASSIGNMENTS    3  3  3  3  3  3  3  3  3  3  3  3  3  3  3  3  3  3  3  3
CENTRE ASSIGNMENTS    3  3  3  3  3  3  3  3  3  3  3  3  3  3  3  3  3  3  3  3
CENTRE ASSIGNMENTS    3  3  3  3  3  3  3  3  3  3  3  3  3  3  3  3  3  3  3  3
CENTRE ASSIGNMENTS    3  3  3  3  3  3  4  4  4  4  4  4  4  4  4  4  4  4  4  4
CENTRE ASSIGNMENTS    4  4  4  4  4  4  4  4  4  4  4  4  4  4  4  4  4  4  4  4
CENTRE ASSIGNMENTS    4  4  4  4  4  4  4  4  4  4  4  4  4  4  4  4  4  4  4  4
CENTRE ASSIGNMENTS    4  4  4  4  4  4  4  4  4  4  4  4  4  4  4  4  4  4
TYPE ASSIGNMENTS      1  1  1  1  1  1  1  1  1  1  1  1  1  1  1  1  2  2  2  3
TYPE ASSIGNMENTS      3  3  4  4  4  2  3  4  2  3  4  2  3  4  5  6  7  8  9 10
TYPE ASSIGNMENTS      5  6  7  8  9 10  5  6  7  8  9 10 11 12 13 17 14 15 18 19
TYPE ASSIGNMENTS     16 20 11 12 13 17 14 15 18 19 16 20  1  1  1  1  1  1  1  1
TYPE ASSIGNMENTS      1  1  1  1  1  1  1  1  1  1  1  1  1  1  1  1  1  1  1  1
TYPE ASSIGNMENTS      1  1  1  1  1  1  1  1  1  1  1  1  1  1  1  1  1  1  1  1
TYPE ASSIGNMENTS      1  1  2  2  2  2  2  2  2  2  2  3  3  3  3  3  3  3  3  3
TYPE ASSIGNMENTS      4  4  4  4  4  4  4  4  4  2  2  2  2  2  2  2  2  2  3  3
TYPE ASSIGNMENTS      3  3  3  3  3  3  3  4  4  4  4  4  4  4  4  4  2  2  2  2
TYPE ASSIGNMENTS      2  2  2  2  3  3  3  3  3  3  3  3  4  4  4  4  4  4  4  4
TYPE ASSIGNMENTS      2  3  4  2  3  4  2  3  4  5  5  5  5  5  5  5  6  6  6  6
TYPE ASSIGNMENTS      6  6  6  7  7  7  7  7  7  7  8  8  8  8  8  8  8  9  9  9
TYPE ASSIGNMENTS      9  9  9  9 10 10 10 10 10 10 10  5  6  7  8  9 10  5  6  7
TYPE ASSIGNMENTS      8  9 10  5  6  7  8  9 10 11 12 13 17 14 15 18 19 16 20 11
TYPE ASSIGNMENTS     12 13 17 14 15 18 19 16 20  1  1  1  1  1  1  1  1  1  1  1
TYPE ASSIGNMENTS      1  1  1  1  1  1  1  1  1  1  1  1  1  1  1  1  1  1  1  1
TYPE ASSIGNMENTS      1  1  1  1  1  1  1  1  1  1  1  1  1  1  1  1  1  1  1  2
TYPE ASSIGNMENTS      2  2  2  2  2  2  2  2  3  3  3  3  3  3  3  3  3  4  4  4
TYPE ASSIGNMENTS      4  4  4  4  4  4  2  2  2  2  2  2  2  2  2  3  3  3  3  3
TYPE ASSIGNMENTS      3  3  3  3  4  4  4  4  4  4  4  4  4  2  2  2  2  2  2  2
TYPE ASSIGNMENTS      2  3  3  3  3  3  3  3  3  4  4  4  4  4  4  4  4  2  3  4
TYPE ASSIGNMENTS      2  3  4  2  3  4  5  5  5  5  5  5  5  6  6  6  6  6  6  6
TYPE ASSIGNMENTS      7  7  7  7  7  7  7  8  8  8  8  8  8  8  9  9  9  9  9  9
TYPE ASSIGNMENTS      9 10 10 10 10 10 10 10  5  6  7  8  9 10  5  6  7  8  9 10
TYPE ASSIGNMENTS      5  6  7  8  9 10 11 12 13 17 14 15 18 19 16 20 11 12 13 17
TYPE ASSIGNMENTS     14 15 18 19 16 20  1  1  1  1  1  1  1  1  1  1  1  1  1  1
TYPE ASSIGNMENTS      1  1  2  2  2  3  3  3  4  4  4  2  3  4  2  3  4  2  3  4
TYPE ASSIGNMENTS      5  6  7  8  9 10  5  6  7  8  9 10  5  6  7  8  9 10 11 12
TYPE ASSIGNMENTS     13 17 14 15 18 19 16 20 11 12 13 17 14 15 18 19 16 20
EXPONENTS  0.8236000D+04 0.1235000D+04 0.2808000D+03 0.7927000D+02 0.2559000D+02
EXPONENTS  0.8997000D+01 0.3319000D+01 0.2808000D+03 0.7927000D+02 0.2559000D+02
EXPONENTS  0.8997000D+01 0.3319000D+01 0.3643000D+00 0.9059000D+00 0.1285000D+00
EXPONENTS  0.4402000D-01 0.1871000D+02 0.4133000D+01 0.1200000D+01 0.1871000D+02
EXPONENTS  0.4133000D+01 0.1200000D+01 0.1871000D+02 0.4133000D+01 0.1200000D+01
EXPONENTS  0.3827000D+00 0.3827000D+00 0.3827000D+00 0.1209000D+00 0.1209000D+00
EXPONENTS  0.1209000D+00 0.3569000D-01 0.3569000D-01 0.3569000D-01 0.1097000D+01
EXPONENTS  0.1097000D+01 0.1097000D+01 0.1097000D+01 0.1097000D+01 0.1097000D+01
EXPONENTS  0.3180000D+00 0.3180000D+00 0.3180000D+00 0.3180000D+00 0.3180000D+00
EXPONENTS  0.3180000D+00 0.1000000D+00 0.1000000D+00 0.1000000D+00 0.1000000D+00
EXPONENTS  0.1000000D+00 0.1000000D+00 0.7610000D+00 0.7610000D+00 0.7610000D+00
EXPONENTS  0.7610000D+00 0.7610000D+00 0.7610000D+00 0.7610000D+00 0.7610000D+00
EXPONENTS  0.7610000D+00 0.7610000D+00 0.2680000D+00 0.2680000D+00 0.2680000D+00
EXPONENTS  0.2680000D+00 0.2680000D+00 0.2680000D+00 0.2680000D+00 0.2680000D+00
EXPONENTS  0.2680000D+00 0.2680000D+00 0.1063900D+08 0.1593400D+07 0.3626100D+06
EXPONENTS  0.1027000D+06 0.3350100D+05 0.1209300D+05 0.4715900D+04 0.1955600D+04
EXPONENTS  0.8526100D+03 0.3876700D+03 0.1826800D+03 0.8824500D+02 0.3926300D+02
EXPONENTS  0.9405700D+01 0.1899500D+01 0.3350100D+05 0.1209300D+05 0.4715900D+04
EXPONENTS  0.1955600D+04 0.8526100D+03 0.3876700D+03 0.1826800D+03 0.8824500D+02
EXPONENTS  0.3926300D+02 0.1923400D+02 0.9405700D+01 0.1899500D+01 0.4715900D+04
EXPONENTS  0.8526100D+03 0.3876700D+03 0.1826800D+03 0.8824500D+02 0.3926300D+02
EXPONENTS  0.1923400D+02 0.9405700D+01 0.4160100D+01 0.1899500D+01 0.4715900D+04
EXPONENTS  0.8526100D+03 0.3876700D+03 0.8824500D+02 0.3926300D+02 0.1923400D+02
EXPONENTS  0.9405700D+01 0.4160100D+01 0.1899500D+01 0.3011400D+00 0.6047200D+00
EXPONENTS  0.1251500D+00 0.4559300D-01 0.8676500D+04 0.2055900D+04 0.6662300D+03
EXPONENTS  0.2531000D+03 0.1061200D+03 0.4724200D+02 0.2182500D+02 0.9968400D+01
EXPONENTS  0.1998200D+01 0.8676500D+04 0.2055900D+04 0.6662300D+03 0.2531000D+03
EXPONENTS  0.1061200D+03 0.4724200D+02 0.2182500D+02 0.9968400D+01 0.1998200D+01
EXPONENTS  0.8676500D+04 0.2055900D+04 0.6662300D+03 0.2531000D+03 0.1061200D+03
EXPONENTS  0.4724200D+02 0.2182500D+02 0.9968400D+01 0.1998200D+01 0.8676500D+04
EXPONENTS  0.6662300D+03 0.2531000D+03 0.1061200D+03 0.4724200D+02 0.2182500D+02
EXPONENTS  0.9968400D+01 0.4517100D+01 0.1998200D+01 0.8676500D+04 0.6662300D+03
EXPONENTS  0.2531000D+03 0.1061200D+03 0.4724200D+02 0.2182500D+02 0.9968400D+01
EXPONENTS  0.4517100D+01 0.1998200D+01 0.8676500D+04 0.6662300D+03 0.2531000D+03
EXPONENTS  0.1061200D+03 0.4724200D+02 0.2182500D+02 0.9968400D+01 0.4517100D+01
EXPONENTS  0.1998200D+01 0.6662300D+03 0.1061200D+03 0.4724200D+02 0.2182500D+02
EXPONENTS  0.9968400D+01 0.4517100D+01 0.1998200D+01 0.2814500D+00 0.6662300D+03
EXPONENTS  0.1061200D+03 0.4724200D+02 0.2182500D+02 0.9968400D+01 0.4517100D+01
EXPONENTS  0.1998200D+01 0.2814500D+00 0.6662300D+03 0.1061200D+03 0.4724200D+02
EXPONENTS  0.2182500D+02 0.9968400D+01 0.4517100D+01 0.1998200D+01 0.2814500D+00
EXPONENTS  0.7098800D+00 0.7098800D+00 0.7098800D+00 0.1020400D+00 0.1020400D+00
EXPONENTS  0.1020400D+00 0.3514200D-01 0.3514200D-01 0.3514200D-01 0.4038300D+03
EXPONENTS  0.1211700D+03 0.4634500D+02 0.1972100D+02 0.8862400D+01 0.3996200D+01
EXPONENTS  0.1763600D+01 0.4038300D+03 0.1211700D+03 0.4634500D+02 0.1972100D+02
EXPONENTS  0.8862400D+01 0.3996200D+01 0.1763600D+01 0.4038300D+03 0.1211700D+03
EXPONENTS  0.4634500D+02 0.1972100D+02 0.8862400D+01 0.3996200D+01 0.1763600D+01
EXPONENTS  0.4038300D+03 0.1211700D+03 0.4634500D+02 0.1972100D+02 0.8862400D+01
EXPONENTS  0.3996200D+01 0.1763600D+01 0.4038300D+03 0.1211700D+03 0.4634500D+02
EXPONENTS  0.1972100D+02 0.8862400D+01 0.3996200D+01 0.1763600D+01 0.4038300D+03
EXPONENTS  0.1211700D+03 0.4634500D+02 0.1972100D+02 0.8862400D+01 0.3996200D+01
EXPONENTS  0.1763600D+01 0.7061900D+00 0.7061900D+00 0.7061900D+00 0.7061900D+00
EXPONENTS  0.7061900D+00 0.7061900D+00 0.2639000D+00 0.2639000D+00 0.2639000D+00
EXPONENTS  0.2639000D+00 0.2639000D+00 0.2639000D+00 0.1047000D+00 0.1047000D+00
EXPONENTS  0.1047000D+00 0.1047000D+00 0.1047000D+00 0.1047000D+00 0.5515000D+00
EXPONENTS  0.5515000D+00 0.5515000D+00 0.5515000D+00 0.5515000D+00 0.5515000D+00
EXPONENTS  0.5515000D+00 0.5515000D+00 0.5515000D+00 0.5515000D+00 0.2580000D+00
EXPONENTS  0.2580000D+00 0.2580000D+00 0.2580000D+00 0.2580000D+00 0.2580000D+00
EXPONENTS  0.2580000D+00 0.2580000D+00 0.2580000D+00 0.2580000D+00 0.1063900D+08
EXPONENTS  0.1593400D+07 0.3626100D+06 0.1027000D+06 0.3350100D+05 0.1209300D+05
EXPONENTS  0.4715900D+04 0.1955600D+04 0.8526100D+03 0.3876700D+03 0.1826800D+03
EXPONENTS  0.8824500D+02 0.3926300D+02 0.9405700D+01 0.1899500D+01 0.3350100D+05
EXPONENTS  0.1209300D+05 0.4715900D+04 0.1955600D+04 0.8526100D+03 0.3876700D+03
EXPONENTS  0.1826800D+03 0.8824500D+02 0.3926300D+02 0.1923400D+02 0.9405700D+01
EXPONENTS  0.1899500D+01 0.4715900D+04 0.8526100D+03 0.3876700D+03 0.1826800D+03
EXPONENTS  0.8824500D+02 0.3926300D+02 0.1923400D+02 0.9405700D+01 0.4160100D+01
EXPONENTS  0.1899500D+01 0.4715900D+04 0.8526100D+03 0.3876700D+03 0.8824500D+02
EXPONENTS  0.3926300D+02 0.1923400D+02 0.9405700D+01 0.4160100D+01 0.1899500D+01
EXPONENTS  0.3011400D+00 0.6047200D+00 0.1251500D+00 0.4559300D-01 0.8676500D+04
EXPONENTS  0.2055900D+04 0.6662300D+03 0.2531000D+03 0.1061200D+03 0.4724200D+02
EXPONENTS  0.2182500D+02 0.9968400D+01 0.1998200D+01 0.8676500D+04 0.2055900D+04
EXPONENTS  0.6662300D+03 0.2531000D+03 0.1061200D+03 0.4724200D+02 0.2182500D+02
EXPONENTS  0.9968400D+01 0.1998200D+01 0.8676500D+04 0.2055900D+04 0.6662300D+03
EXPONENTS  0.2531000D+03 0.1061200D+03 0.4724200D+02 0.2182500D+02 0.9968400D+01
EXPONENTS  0.1998200D+01 0.8676500D+04 0.6662300D+03 0.2531000D+03 0.1061200D+03
EXPONENTS  0.4724200D+02 0.2182500D+02 0.9968400D+01 0.4517100D+01 0.1998200D+01
EXPONENTS  0.8676500D+04 0.6662300D+03 0.2531000D+03 0.1061200D+03 0.4724200D+02
EXPONENTS  0.2182500D+02 0.9968400D+01 0.4517100D+01 0.1998200D+01 0.8676500D+04
EXPONENTS  0.6662300D+03 0.2531000D+03 0.1061200D+03 0.4724200D+02 0.2182500D+02
EXPONENTS  0.9968400D+01 0.4517100D+01 0.1998200D+01 0.6662300D+03 0.1061200D+03
EXPONENTS  0.4724200D+02 0.2182500D+02 0.9968400D+01 0.4517100D+01 0.1998200D+01
EXPONENTS  0.2814500D+00 0.6662300D+03 0.1061200D+03 0.4724200D+02 0.2182500D+02
EXPONENTS  0.9968400D+01 0.4517100D+01 0.1998200D+01 0.2814500D+00 0.6662300D+03
EXPONENTS  0.1061200D+03 0.4724200D+02 0.2182500D+02 0.9968400D+01 0.4517100D+01
EXPONENTS  0.1998200D+01 0.2814500D+00 0.7098800D+00 0.7098800D+00 0.7098800D+00
EXPONENTS  0.1020400D+00 0.1020400D+00 0.1020400D+00 0.3514200D-01 0.3514200D-01
EXPONENTS  0.3514200D-01 0.4038300D+03 0.1211700D+03 0.4634500D+02 0.1972100D+02
EXPONENTS  0.8862400D+01 0.3996200D+01 0.1763600D+01 0.4038300D+03 0.1211700D+03
EXPONENTS  0.4634500D+02 0.1972100D+02 0.8862400D+01 0.3996200D+01 0.1763600D+01
EXPONENTS  0.4038300D+03 0.1211700D+03 0.4634500D+02 0.1972100D+02 0.8862400D+01
EXPONENTS  0.3996200D+01 0.1763600D+01 0.4038300D+03 0.1211700D+03 0.4634500D+02
EXPONENTS  0.1972100D+02 0.8862400D+01 0.3996200D+01 0.1763600D+01 0.4038300D+03
EXPONENTS  0.1211700D+03 0.4634500D+02 0.1972100D+02 0.8862400D+01 0.3996200D+01
EXPONENTS  0.1763600D+01 0.4038300D+03 0.1211700D+03 0.4634500D+02 0.1972100D+02
EXPONENTS  0.8862400D+01 0.3996200D+01 0.1763600D+01 0.7061900D+00 0.7061900D+00
EXPONENTS  0.7061900D+00 0.7061900D+00 0.7061900D+00 0.7061900D+00 0.2639000D+00
EXPONENTS  0.2639000D+00 0.2639000D+00 0.2639000D+00 0.2639000D+00 0.2639000D+00
EXPONENTS  0.1047000D+00 0.1047000D+00 0.1047000D+00 0.1047000D+00 0.1047000D+00
EXPONENTS  0.1047000D+00 0.5515000D+00 0.5515000D+00 0.5515000D+00 0.5515000D+00
EXPONENTS  0.5515000D+00 0.5515000D+00 0.5515000D+00 0.5515000D+00 0.5515000D+00
EXPONENTS  0.5515000D+00 0.2580000D+00 0.2580000D+00 0.2580000D+00 0.2580000D+00
EXPONENTS  0.2580000D+00 0.2580000D+00 0.2580000D+00 0.2580000D+00 0.2580000D+00
EXPONENTS  0.2580000D+00 0.1533000D+05 0.2299000D+04 0.5224000D+03 0.1473000D+03
EXPONENTS  0.4755000D+02 0.1676000D+02 0.6207000D+01 0.5224000D+03 0.1473000D+03
EXPONENTS  0.4755000D+02 0.1676000D+02 0.6207000D+01 0.6882000D+00 0.1752000D+01
EXPONENTS  0.2384000D+00 0.7376000D-01 0.3446000D+02 0.7749000D+01 0.2280000D+01
EXPONENTS  0.3446000D+02 0.7749000D+01 0.2280000D+01 0.3446000D+02 0.7749000D+01
EXPONENTS  0.2280000D+01 0.7156000D+00 0.7156000D+00 0.7156000D+00 0.2140000D+00
EXPONENTS  0.2140000D+00 0.2140000D+00 0.5974000D-01 0.5974000D-01 0.5974000D-01
EXPONENTS  0.2314000D+01 0.2314000D+01 0.2314000D+01 0.2314000D+01 0.2314000D+01
EXPONENTS  0.2314000D+01 0.6450000D+00 0.6450000D+00 0.6450000D+00 0.6450000D+00
EXPONENTS  0.6450000D+00 0.6450000D+00 0.2140000D+00 0.2140000D+00 0.2140000D+00
EXPONENTS  0.2140000D+00 0.2140000D+00 0.2140000D+00 0.1428000D+01 0.1428000D+01
EXPONENTS  0.1428000D+01 0.1428000D+01 0.1428000D+01 0.1428000D+01 0.1428000D+01
EXPONENTS  0.1428000D+01 0.1428000D+01 0.1428000D+01 0.5000000D+00 0.5000000D+00
EXPONENTS  0.5000000D+00 0.5000000D+00 0.5000000D+00 0.5000000D+00 0.5000000D+00
EXPONENTS  0.5000000D+00 0.5000000D+00 0.5000000D+00
MO    1     MO 0.0        OCC NO =    2.0000166  ORB. ENERGY =    0.000000
  0.12315068D+00  0.22957767D+00  0.38801754D+00  0.58326274D+00  0.71643381D+00
  0.60464486D+00  0.22736226D+00  0.29320090D-04  0.21914951D-03  0.81901175D-03
  0.22849153D-02  0.30611565D-02 -0.36146550D-02  0.94447558D-02 -0.19936274D-02
 -0.30927237D-03  0.10690133D-04  0.10022680D-04  0.71367449D-05 -0.40215158D-05
 -0.37704267D-05 -0.26847684D-05  0.36722388D-02  0.34429573D-02  0.24515907D-02
  0.43592556D-05 -0.13651023D-05  0.19863749D-02  0.16863118D-05 -0.29908703D-06
  0.38478746D-03 -0.57469731D-07  0.11189172D-07  0.48957331D-05 -0.97184862D-04
 -0.49939652D-03  0.59658138D-03 -0.25193387D-05 -0.15421131D-05  0.97680680D-06
  0.33694916D-03 -0.32304498D-03 -0.13904180D-04 -0.41383907D-05 -0.38611550D-05
  0.44090076D-06  0.30925567D-04 -0.18826173D-04 -0.12099394D-04 -0.31175198D-06
 -0.51834265D-06  0.89922375D-07  0.36023706D-06  0.38567017D-07  0.12402831D-03
  0.68991485D-07 -0.10269154D-06 -0.16603037D-03 -0.11497027D-05 -0.13009513D-07
 -0.20605457D-03 -0.25016572D-06 -0.16103838D-06 -0.31766923D-07 -0.14095899D-04
  0.35982652D-06  0.65959272D-08  0.25094691D-05  0.12328863D-06  0.88704842D-07
  0.39778227D-04  0.23514155D-06 -0.34869974D-01 -0.65595673D-01 -0.11354946D+00
 -0.18612937D+00 -0.29157449D+00 -0.43826018D+00 -0.62637683D+00 -0.83151388D+00
 -0.96835799D+00 -0.88932478D+00 -0.51986873D+00 -0.13641052D+00 -0.77556959D-02
 -0.13532855D-03 -0.13622358D-04 -0.16545286D-02 -0.47795517D-02 -0.21905808D-01
 -0.64845964D-01 -0.18805519D+00 -0.39089007D+00 -0.55917288D+00 -0.16033273D+00
  0.64071105D+00  0.61950559D+00  0.13521657D+00 -0.19572189D-02 -0.10119812D-02
 -0.47211015D-02 -0.95811252D-02 -0.37550096D-01 -0.26349791D-01  0.17159982D+00
  0.53172891D+00  0.65042354D-01 -0.46481177D+00 -0.21813615D+00 -0.11086825D-05
 -0.15199157D-05  0.29140461D-05  0.61933062D-05 -0.23412430D-04 -0.75709852D-04
 -0.26330735D-04  0.25754327D-03  0.57445499D-03 -0.38119085D-03 -0.90542677D-02
  0.53740918D-03  0.15415572D-03  0.66973623D-01  0.96097152D-01  0.12724151D+00
  0.14694180D+00  0.13624276D+00  0.88228980D-01  0.31132408D-01  0.35871962D-02
 -0.58603765D-05  0.10004770D+02  0.14355352D+02  0.19007813D+02  0.21950716D+02
  0.20352453D+02  0.13179975D+02  0.46506756D+01  0.53586879D+00 -0.87544498D-03
  0.62232868D+01  0.89294877D+01  0.11823467D+02  0.13654046D+02  0.12659876D+02
  0.81983657D+01  0.28928688D+01  0.33332751D+00 -0.54455474D-03 -0.39812279D-03
  0.11351190D-02  0.55406618D-02  0.11481305D-01  0.14407904D-01  0.22848345D-02
 -0.18494963D-01 -0.16130289D-01 -0.41465309D-02 -0.59626339D-01  0.17000531D+00
  0.82981780D+00  0.17195403D+01  0.21578533D+01  0.34219673D+00 -0.27699669D+01
 -0.24158127D+01 -0.62102061D+00 -0.37169575D-01  0.10597708D+00  0.51728775D+00
  0.10719186D+01  0.13451520D+01  0.21331692D+00 -0.17267284D+01 -0.15059575D+01
 -0.38712879D+00 -0.16232218D-05 -0.22931886D-05  0.10670087D-05 -0.21382955D-05
 -0.23473698D-05 -0.63362869D-05 -0.19967314D-05  0.42870248D-05 -0.25814958D-03
 -0.36469795D-03  0.16969205D-03 -0.34006447D-03 -0.37331467D-03 -0.10076933D-02
 -0.31755079D-03  0.68178829D-03 -0.14266319D-03 -0.20154583D-03  0.93778224D-04
 -0.18793245D-03 -0.20630776D-03 -0.55688931D-03 -0.17549053D-03  0.37678191D-03
 -0.14692550D-03 -0.21993819D-01 -0.13829820D-01  0.52484678D-06  0.12532443D-03
  0.60012993D-04  0.88354139D-07  0.87743824D-05  0.66719632D-05  0.10205414D+01
  0.10678866D+01  0.90989657D+00  0.59923568D+00  0.27616988D+00  0.82699519D-01
  0.14070622D-01 -0.12432043D+01 -0.13008794D+01 -0.11084189D+01 -0.72997761D+00
 -0.33642495D+00 -0.10074299D+00 -0.17140567D-01  0.22266290D+00  0.23299274D+00
  0.19852228D+00  0.13074193D+00  0.60255064D-01  0.18043476D-01  0.30699445D-02
 -0.34433522D-01 -0.36030971D-01 -0.30700316D-01 -0.20218479D-01 -0.93180950D-02
 -0.27903186D-02 -0.47474906D-03 -0.22570079D-01 -0.23617156D-01 -0.20123081D-01
 -0.13252570D-01 -0.61077149D-02 -0.18289651D-02 -0.31118291D-03 -0.37466912D+01
 -0.39205087D+01 -0.33404832D+01 -0.21999607D+01 -0.10138964D+01 -0.30361292D+00
 -0.51657164D-01  0.11359891D-02 -0.13734012D-02  0.23741207D-03 -0.35812264D-04
 -0.23103582D-04 -0.38055511D-02 -0.11618694D-03  0.11047027D-03  0.57166634D-05
  0.26377640D-05  0.19497313D-05  0.30445542D-03 -0.13578500D-04  0.15150905D-04
 -0.15724051D-05  0.29085948D-06  0.20844452D-06  0.28787652D-04  0.15061528D-05
 -0.40084141D-04  0.91866267D-04 -0.38180704D-05  0.20877415D-03  0.14513019D-03
 -0.70038809D-06 -0.88521731D-04 -0.42072899D-03 -0.72298410D-05 -0.47691664D-06
  0.97209834D-05 -0.20856918D-04  0.10279149D-05 -0.68852610D-04 -0.54577197D-04
  0.40283505D-06  0.39689660D-04  0.11714795D-03  0.21657901D-05 -0.34910005D-01
 -0.65670977D-01 -0.11367981D+00 -0.18634304D+00 -0.29190922D+00 -0.43876331D+00
 -0.62709592D+00 -0.83246847D+00 -0.96946967D+00 -0.89034573D+00 -0.52046554D+00
 -0.13656712D+00 -0.77645995D-02 -0.13548391D-03 -0.13637997D-04 -0.16564271D-02
 -0.47850360D-02 -0.21930944D-01 -0.64920371D-01 -0.18827097D+00 -0.39133859D+00
 -0.55981450D+00 -0.16051670D+00  0.64144622D+00  0.62021644D+00  0.13537172D+00
 -0.19594647D-02 -0.10131347D-02 -0.47264831D-02 -0.95920468D-02 -0.37592900D-01
 -0.26379828D-01  0.17179542D+00  0.53233504D+00  0.65116496D-01 -0.46534161D+00
 -0.21838480D+00 -0.11099564D-05 -0.15216621D-05  0.29173943D-05  0.62004222D-05
 -0.23439331D-04 -0.75796842D-04 -0.26360989D-04  0.25783918D-03  0.57511503D-03
 -0.38162884D-03 -0.90646973D-02  0.53799426D-03  0.15412115D-03  0.42225884D-02
  0.60587841D-02  0.80223899D-02  0.92644641D-02  0.85899053D-02  0.55627074D-02
  0.19628525D-02  0.22616744D-03 -0.36948812D-06 -0.10020359D+02 -0.14377719D+02
 -0.19037428D+02 -0.21984916D+02 -0.20384163D+02 -0.13200511D+02 -0.46579217D+01
 -0.53670371D+00  0.87680898D-03  0.62326311D+01  0.89428953D+01  0.11841220D+02
  0.13674548D+02  0.12678885D+02  0.82106755D+01  0.28972124D+01  0.33382800D+00
 -0.54537239D-03 -0.24138894D-04  0.68824286D-04  0.33594019D-03  0.69613196D-03
  0.87357689D-03  0.13853358D-03 -0.11213825D-02 -0.97800817D-03 -0.25141155D-03
  0.59719647D-01 -0.17027135D+00 -0.83111636D+00 -0.17222311D+01 -0.21612301D+01
 -0.34273222D+00  0.27743015D+01  0.24195932D+01  0.62199243D+00 -0.37225462D-01
  0.10613642D+00  0.51806554D+00  0.10735303D+01  0.13471746D+01  0.21363766D+00
 -0.17293247D+01 -0.15082218D+01 -0.38771087D+00 -0.44352096D-08 -0.62657931D-08
  0.29154408D-08 -0.58425709D-08 -0.64138350D-08 -0.17312951D-07 -0.54557683D-08
  0.11713651D-07  0.25825952D-03  0.36485326D-03 -0.16976432D-03  0.34020929D-03
  0.37347365D-03  0.10081225D-02  0.31768602D-03 -0.68207864D-03 -0.14280165D-03
 -0.20174145D-03  0.93869243D-04 -0.18811485D-03 -0.20650800D-03 -0.55742981D-03
 -0.17566086D-03  0.37714760D-03 -0.89784812D-05  0.22028290D-01 -0.13850563D-01
 -0.26120145D-06 -0.12520242D-03  0.59990446D-04  0.33293005D-07 -0.87770838D-05
  0.66718921D-05  0.10223259D+01  0.10697539D+01  0.91148759D+00  0.60028349D+00
  0.27665279D+00  0.82844125D-01  0.14095226D-01 -0.12453112D+01 -0.13030840D+01
 -0.11102973D+01 -0.73121473D+00 -0.33699510D+00 -0.10091373D+00 -0.17169615D-01
  0.22298531D+00  0.23333010D+00  0.19880974D+00  0.13093124D+00  0.60342311D-01
  0.18069603D-01  0.30743897D-02  0.60404459D-02  0.63206758D-02  0.53855541D-02
  0.35467945D-02  0.16346120D-02  0.48948721D-03  0.83282098D-04  0.93372885D-03
  0.97704663D-03  0.83249602D-03  0.54826157D-03  0.25267743D-03  0.75664666D-04
  0.12873702D-04  0.37527281D+01  0.39268256D+01  0.33458656D+01  0.22035054D+01
  0.10155301D+01  0.30410212D+00  0.51740397D-01  0.11378012D-02 -0.13754453D-02
  0.23764407D-03  0.43362466D-05  0.76861977D-06  0.38113912D-02 -0.11628819D-03
  0.11052404D-03  0.57641508D-05  0.20522564D-06  0.40574150D-07 -0.30470491D-03
 -0.13574783D-04  0.15148384D-04 -0.15736003D-05  0.69418934D-07  0.27677085D-07
 -0.28814721D-04  0.19642349D-06  0.40149674D-04  0.92023080D-04 -0.44491734D-06
 -0.20914459D-03  0.14535785D-03 -0.14435313D-06  0.88695571D-04 -0.42142710D-03
  0.13036103D-06 -0.45014910D-07 -0.97194606D-05 -0.20885042D-04 -0.18497850D-07
  0.68920758D-04 -0.54628760D-04  0.15354258D-06 -0.39762376D-04  0.11728388D-03
 -0.11512162D-07 -0.35431921D-01 -0.66039276D-01 -0.11197887D+00 -0.16946812D+00
 -0.21139812D+00 -0.18141103D+00 -0.69470789D-01 -0.34372171D-05 -0.36879084D-04
 -0.13594325D-03 -0.39749008D-03 -0.47899488D-03  0.57700009D-03 -0.31477183D-02
  0.29524538D-03  0.68435139D-04  0.67605439D-05  0.65554535D-05  0.44222702D-05
  0.19608825D-05  0.19013964D-05  0.12826708D-05  0.27616725D-02  0.26778934D-02
  0.18064911D-02  0.15929858D-05  0.43576046D-06  0.61969312D-03  0.16568834D-05
 -0.55800488D-07  0.77191494D-04  0.24167178D-06 -0.20858426D-07  0.74408766D-05
  0.28558470D-03 -0.50259741D-04 -0.23532496D-03 -0.21051606D-05  0.18424336D-08
  0.24615683D-06  0.32283194D-04  0.15425316D-03 -0.18653635D-03  0.76428328D-06
 -0.17301229D-05  0.15128641D-06  0.24670029D-05  0.45657989D-04 -0.48124992D-04
  0.27010261D-06 -0.78722898D-06  0.47759223D-07  0.75011057D-06  0.40361407D-07
 -0.29156412D-03 -0.11365881D-05 -0.94820720D-07  0.43150227D-03 -0.11137436D-05
 -0.26263502D-07  0.44319009D-03  0.70175282D-07 -0.39165033D-06 -0.12184723D-08
  0.79501686D-04  0.59052798D-07  0.39314944D-07 -0.39823306D-04  0.11158982D-05
 -0.35659527D-07 -0.19868175D-03 -0.99440864D-06
MO    2     MO 0.0        OCC NO =    2.0000158  ORB. ENERGY =    0.000000
 -0.83775684D-04 -0.15617475D-03 -0.26395661D-03 -0.39677601D-03 -0.48736826D-03
 -0.41132162D-03 -0.15466767D-03 -0.19206001D-07 -0.14355296D-06 -0.53649018D-06
 -0.14967241D-05 -0.20051976D-05  0.23677645D-05 -0.64796336D-05  0.13103234D-05
  0.20790503D-06 -0.18341438D-04 -0.17196264D-04 -0.12244765D-04 -0.58458524D-02
 -0.54808582D-02 -0.39026976D-02 -0.22748602D-05 -0.21328260D-05 -0.15186992D-05
 -0.61959084D-05 -0.19746048D-02 -0.12758389D-05 -0.14206948D-05 -0.45260794D-03
 -0.25337405D-06  0.50699929D-07  0.16152357D-04 -0.33524735D-08  0.89680276D-07
  0.31905777D-06 -0.40873805D-06  0.54980583D-05  0.45651964D-05  0.14552556D-02
 -0.22123291D-06  0.20859051D-06  0.12642403D-07  0.24745722D-05  0.19698014D-05
  0.62720236D-03 -0.19086487D-07  0.11175527D-07  0.79109595D-08  0.51994921D-06
  0.41819871D-06  0.13322447D-03 -0.45897010D-06  0.55436253D-04 -0.81638411D-07
  0.14390102D-05 -0.14626187D-03  0.12166806D-06 -0.62099892D-07 -0.20046893D-04
  0.12324717D-06  0.12825606D-05  0.29971694D-07 -0.45930956D-04  0.96336364D-08
 -0.49213151D-06  0.95162298D-05  0.65058522D-08  0.40221643D-06  0.12827664D-03
 -0.35406761D-07  0.20278768D-05  0.31222582D-01  0.58734380D-01  0.10167221D+00
  0.16666028D+00  0.26107586D+00  0.39241827D+00  0.56085796D+00  0.74453772D+00
  0.86706796D+00  0.79630161D+00  0.46549058D+00  0.12214201D+00  0.69444518D-02
  0.12117322D-03  0.12197463D-04  0.14812196D-02  0.42789022D-02  0.19611214D-01
  0.58053464D-01  0.16835674D+00  0.34994502D+00  0.50060051D+00  0.14353816D+00
 -0.57359770D+00 -0.55461348D+00 -0.12105287D+00  0.17522037D-02  0.90134069D-03
  0.42049407D-02  0.85336152D-02  0.33444722D-01  0.23468953D-01 -0.15283871D+00
 -0.47359468D+00 -0.57931236D-01  0.41399363D+00  0.19428720D+00  0.98272447D-06
  0.13472373D-05 -0.25829797D-05 -0.54896812D-05  0.20752531D-04  0.67108413D-04
  0.23339285D-04 -0.22828363D-03 -0.50919084D-03  0.33788354D-03  0.80893743D-02
 -0.40049516D-03  0.28300554D-04 -0.77543592D-01 -0.11126348D+00 -0.14732313D+00
 -0.17013257D+00 -0.15774498D+00 -0.10215353D+00 -0.36045814D-01 -0.41533378D-02
  0.67852780D-05 -0.11518509D+02 -0.16527341D+02 -0.21883726D+02 -0.25271895D+02
 -0.23431812D+02 -0.15174127D+02 -0.53543305D+01 -0.61694662D+00  0.10079012D-02
 -0.68646562D+01 -0.98497571D+01 -0.13041988D+02 -0.15061227D+02 -0.13964597D+02
 -0.90432859D+01 -0.31910067D+01 -0.36768010D+00  0.60067633D-03  0.46361745D-03
 -0.13218559D-02 -0.64521488D-02 -0.13370079D-01 -0.16778130D-01 -0.26607096D-02
  0.21537545D-01  0.18783862D-01  0.48286713D-02  0.68997760D-01 -0.19672491D+00
 -0.96023956D+00 -0.19897990D+01 -0.24970013D+01 -0.39597950D+00  0.32053202D+01
  0.27955040D+01  0.71862590D+00  0.41058778D-01 -0.11706589D+00 -0.57141367D+00
 -0.11840778D+01 -0.14859007D+01 -0.23563713D+00  0.19074030D+01  0.16635319D+01
  0.42763564D+00  0.92242193D-06  0.13031413D-05 -0.60634485D-06  0.12151208D-05
  0.13339307D-05  0.36006970D-05  0.11346747D-05 -0.24361708D-05  0.78511816D-04
  0.11091669D-03 -0.51608959D-04  0.10342484D-03  0.11353732D-03  0.30647283D-03
  0.96577685D-04 -0.20735434D-03  0.10406126D-03  0.14701138D-03 -0.68403628D-04
  0.13708152D-03  0.15048482D-03  0.40620570D-03  0.12800615D-03 -0.27483192D-03
  0.17171946D-03  0.25451036D-01  0.15215304D-01  0.54659397D-06  0.98593611D-04
  0.18027775D-04  0.49494283D-08 -0.16899561D-05  0.13603993D-06 -0.11594829D+01
 -0.12132739D+01 -0.10337743D+01 -0.68081854D+00 -0.31376899D+00 -0.93958633D-01
 -0.15986265D-01  0.14152132D+01  0.14808681D+01  0.12617789D+01  0.83097678D+00
  0.38297246D+00  0.11468172D+00  0.19512123D-01 -0.25573028D+00 -0.26759418D+00
 -0.22800457D+00 -0.15015824D+00 -0.69203464D-01 -0.20723089D-01 -0.35258580D-02
  0.38783157D-01  0.40582395D-01  0.34578373D-01  0.22772473D-01  0.10495155D-01
  0.31427910D-02  0.53471925D-03  0.25277455D-01  0.26450133D-01  0.22536929D-01
  0.14842271D-01  0.68403610D-02  0.20483572D-02  0.34851061D-03  0.42127562D+01
  0.44081955D+01  0.37560185D+01  0.24736221D+01  0.11400188D+01  0.34138047D+00
  0.58082993D-01 -0.11871901D-02  0.13749319D-02 -0.18774180D-03  0.37746836D-04
  0.25091438D-04  0.40828465D-02  0.68759441D-04 -0.35411855D-04 -0.33347586D-04
 -0.18223471D-05 -0.15889634D-05 -0.17595576D-03 -0.38642447D-05  0.29500688D-05
  0.91417596D-06 -0.36987678D-07  0.25660874D-07 -0.18973130D-04 -0.14839641D-05
  0.40048795D-04 -0.11333222D-03  0.42990600D-05 -0.23467077D-03 -0.14325072D-03
  0.15283243D-06  0.11452438D-03  0.48324739D-03  0.77612352D-05  0.28570247D-06
  0.30646216D-05  0.20669458D-04 -0.79008670D-06  0.40987498D-04  0.31516955D-04
 -0.67020720D-07 -0.50181363D-04 -0.93525329D-04 -0.17279486D-05 -0.31173859D-01
 -0.58642725D-01 -0.10151355D+00 -0.16640020D+00 -0.26066846D+00 -0.39180590D+00
 -0.55998274D+00 -0.74337587D+00 -0.86571490D+00 -0.79505898D+00 -0.46476418D+00
 -0.12195141D+00 -0.69336150D-02 -0.12098413D-03 -0.12178429D-04 -0.14789069D-02
 -0.42722211D-02 -0.19580593D-01 -0.57962820D-01 -0.16809387D+00 -0.34939862D+00
 -0.49981888D+00 -0.14331404D+00  0.57270209D+00  0.55374751D+00  0.12086386D+00
 -0.17494678D-02 -0.89992373D-03 -0.41983303D-02 -0.85201998D-02 -0.33392145D-01
 -0.23432059D-01  0.15259844D+00  0.47285016D+00  0.57840164D-01 -0.41334280D+00
 -0.19398176D+00 -0.98122487D-06 -0.13451814D-05  0.25790382D-05  0.54813041D-05
 -0.20720863D-04 -0.67006008D-04 -0.23303671D-04  0.22793528D-03  0.50841383D-03
 -0.33736795D-03 -0.80767872D-02  0.39983905D-03 -0.28506493D-04  0.52843351D-02
  0.75822321D-02  0.10039576D-01  0.11593963D-01  0.10749790D-01  0.69614197D-02
  0.24564010D-02  0.28303601D-03 -0.46239388D-06 -0.11505706D+02 -0.16508971D+02
 -0.21859403D+02 -0.25243805D+02 -0.23405768D+02 -0.15157261D+02 -0.53483792D+01
 -0.61626089D+00  0.10067810D-02  0.68566536D+01  0.98382745D+01  0.13026785D+02
  0.15043669D+02  0.13948318D+02  0.90327435D+01  0.31872867D+01  0.36725147D+00
 -0.59997608D-03 -0.30774291D-04  0.87742986D-04  0.42828480D-03  0.88748755D-03