 br2co-wavefunction
GAUSSIAN            210 MOL ORBITALS    578 PRIMITIVES        4 NUCLEI
  C    1    (CENTRE  1)   0.00000000  0.00000000 -0.92928983  CHARGE =  6.0
  Br   2    (CENTRE  2)   0.00000000 -3.01256550 -2.94196344  CHARGE = 35.0
  Br   3    (CENTRE  3)   0.00000000  3.01256550 -2.92306618  CHARGE = 35.0
  O    4    (CENTRE  4)   0.00000000  0.00000000  1.29351754  CHARGE =  8.0
CENTRE ASSIGNMENTS    1  1  1  1  1  1  1  1  1  1  1  1  1  1  1  1  1  1  1  1
CENTRE ASSIGNMENTS    1  1  1  1  1  1  1  1  1  1  1  1  1  1  1  1  1  1  1  1
CENTRE ASSIGNMENTS    1  1  1  1  1  1  1  1  1  1  1  1  1  1  1  1  1  1  1  1
CENTRE ASSIGNMENTS    1  1  1  1  1  1  1  1  1  1  1  1  2  2  2  2  2  2  2  2
CENTRE ASSIGNMENTS    2  2  2  2  2  2  2  2  2  2  2  2  2  2  2  2  2  2  2  2
CENTRE ASSIGNMENTS    2  2  2  2  2  2  2  2  2  2  2  2  2  2  2  2  2  2  2  2
CENTRE ASSIGNMENTS    2  2  2  2  2  2  2  2  2  2  2  2  2  2  2  2  2  2  2  2
CENTRE ASSIGNMENTS    2  2  2  2  2  2  2  2  2  2  2  2  2  2  2  2  2  2  2  2
CENTRE ASSIGNMENTS    2  2  2  2  2  2  2  2  2  2  2  2  2  2  2  2  2  2  2  2
CENTRE ASSIGNMENTS    2  2  2  2  2  2  2  2  2  2  2  2  2  2  2  2  2  2  2  2
CENTRE ASSIGNMENTS    2  2  2  2  2  2  2  2  2  2  2  2  2  2  2  2  2  2  2  2
CENTRE ASSIGNMENTS    2  2  2  2  2  2  2  2  2  2  2  2  2  2  2  2  2  2  2  2
CENTRE ASSIGNMENTS    2  2  2  2  2  2  2  2  2  2  2  2  2  2  2  2  2  2  2  2
CENTRE ASSIGNMENTS    2  2  2  2  2  2  2  2  2  2  2  2  2  2  2  2  2  2  2  2
CENTRE ASSIGNMENTS    2  2  2  2  2  2  2  2  2  3  3  3  3  3  3  3  3  3  3  3
CENTRE ASSIGNMENTS    3  3  3  3  3  3  3  3  3  3  3  3  3  3  3  3  3  3  3  3
CENTRE ASSIGNMENTS    3  3  3  3  3  3  3  3  3  3  3  3  3  3  3  3  3  3  3  3
CENTRE ASSIGNMENTS    3  3  3  3  3  3  3  3  3  3  3  3  3  3  3  3  3  3  3  3
CENTRE ASSIGNMENTS    3  3  3  3  3  3  3  3  3  3  3  3  3  3  3  3  3  3  3  3
CENTRE ASSIGNMENTS    3  3  3  3  3  3  3  3  3  3  3  3  3  3  3  3  3  3  3  3
CENTRE ASSIGNMENTS    3  3  3  3  3  3  3  3  3  3  3  3  3  3  3  3  3  3  3  3
CENTRE ASSIGNMENTS    3  3  3  3  3  3  3  3  3  3  3  3  3  3  3  3  3  3  3  3
CENTRE ASSIGNMENTS    3  3  3  3  3  3  3  3  3  3  3  3  3  3  3  3  3  3  3  3
CENTRE ASSIGNMENTS    3  3  3  3  3  3  3  3  3  3  3  3  3  3  3  3  3  3  3  3
CENTRE ASSIGNMENTS    3  3  3  3  3  3  3  3  3  3  3  3  3  3  3  3  3  3  3  3
CENTRE ASSIGNMENTS    3  3  3  3  3  3  4  4  4  4  4  4  4  4  4  4  4  4  4  4
CENTRE ASSIGNMENTS    4  4  4  4  4  4  4  4  4  4  4  4  4  4  4  4  4  4  4  4
CENTRE ASSIGNMENTS    4  4  4  4  4  4  4  4  4  4  4  4  4  4  4  4  4  4  4  4
CENTRE ASSIGNMENTS    4  4  4  4  4  4  4  4  4  4  4  4  4  4  4  4  4  4
TYPE ASSIGNMENTS      1  1  1  1  1  1  1  1  1  1  1  1  1  1  1  1  2  2  2  3
TYPE ASSIGNMENTS      3  3  4  4  4  2  3  4  2  3  4  2  3  4  5  6  7  8  9 10
TYPE ASSIGNMENTS      5  6  7  8  9 10  5  6  7  8  9 10 11 12 13 17 14 15 18 19
TYPE ASSIGNMENTS     16 20 11 12 13 17 14 15 18 19 16 20  1  1  1  1  1  1  1  1
TYPE ASSIGNMENTS      1  1  1  1  1  1  1  1  1  1  1  1  1  1  1  1  1  1  1  1
TYPE ASSIGNMENTS      1  1  1  1  1  1  1  1  1  1  1  1  1  1  1  1  1  1  1  1
TYPE ASSIGNMENTS      1  1  2  2  2  2  2  2  2  2  2  3  3  3  3  3  3  3  3  3
TYPE ASSIGNMENTS      4  4  4  4  4  4  4  4  4  2  2  2  2  2  2  2  2  2  3  3
TYPE ASSIGNMENTS      3  3  3  3  3  3  3  4  4  4  4  4  4  4  4  4  2  2  2  2
TYPE ASSIGNMENTS      2  2  2  2  3  3  3  3  3  3  3  3  4  4  4  4  4  4  4  4
TYPE ASSIGNMENTS      2  3  4  2  3  4  2  3  4  5  5  5  5  5  5  5  6  6  6  6
TYPE ASSIGNMENTS      6  6  6  7  7  7  7  7  7  7  8  8  8  8  8  8  8  9  9  9
TYPE ASSIGNMENTS      9  9  9  9 10 10 10 10 10 10 10  5  6  7  8  9 10  5  6  7
TYPE ASSIGNMENTS      8  9 10  5  6  7  8  9 10 11 12 13 17 14 15 18 19 16 20 11
TYPE ASSIGNMENTS     12 13 17 14 15 18 19 16 20  1  1  1  1  1  1  1  1  1  1  1
TYPE ASSIGNMENTS      1  1  1  1  1  1  1  1  1  1  1  1  1  1  1  1  1  1  1  1
TYPE ASSIGNMENTS      1  1  1  1  1  1  1  1  1  1  1  1  1  1  1  1  1  1  1  2
TYPE ASSIGNMENTS      2  2  2  2  2  2  2  2  3  3  3  3  3  3  3  3  3  4  4  4
TYPE ASSIGNMENTS      4  4  4  4  4  4  2  2  2  2  2  2  2  2  2  3  3  3  3  3
TYPE ASSIGNMENTS      3  3  3  3  4  4  4  4  4  4  4  4  4  2  2  2  2  2  2  2
TYPE ASSIGNMENTS      2  3  3  3  3  3  3  3  3  4  4  4  4  4  4  4  4  2  3  4
TYPE ASSIGNMENTS      2  3  4  2  3  4  5  5  5  5  5  5  5  6  6  6  6  6  6  6
TYPE ASSIGNMENTS      7  7  7  7  7  7  7  8  8  8  8  8  8  8  9  9  9  9  9  9
TYPE ASSIGNMENTS      9 10 10 10 10 10 10 10  5  6  7  8  9 10  5  6  7  8  9 10
TYPE ASSIGNMENTS      5  6  7  8  9 10 11 12 13 17 14 15 18 19 16 20 11 12 13 17
TYPE ASSIGNMENTS     14 15 18 19 16 20  1  1  1  1  1  1  1  1  1  1  1  1  1  1
TYPE ASSIGNMENTS      1  1  2  2  2  3  3  3  4  4  4  2  3  4  2  3  4  2  3  4
TYPE ASSIGNMENTS      5  6  7  8  9 10  5  6  7  8  9 10  5  6  7  8  9 10 11 12
TYPE ASSIGNMENTS     13 17 14 15 18 19 16 20 11 12 13 17 14 15 18 19 16 20
EXPONENTS  0.8236000D+04 0.1235000D+04 0.2808000D+03 0.7927000D+02 0.2559000D+02
EXPONENTS  0.8997000D+01 0.3319000D+01 0.2808000D+03 0.7927000D+02 0.2559000D+02
EXPONENTS  0.8997000D+01 0.3319000D+01 0.3643000D+00 0.9059000D+00 0.1285000D+00
EXPONENTS  0.4402000D-01 0.1871000D+02 0.4133000D+01 0.1200000D+01 0.1871000D+02
EXPONENTS  0.4133000D+01 0.1200000D+01 0.1871000D+02 0.4133000D+01 0.1200000D+01
EXPONENTS  0.3827000D+00 0.3827000D+00 0.3827000D+00 0.1209000D+00 0.1209000D+00
EXPONENTS  0.1209000D+00 0.3569000D-01 0.3569000D-01 0.3569000D-01 0.1097000D+01
EXPONENTS  0.1097000D+01 0.1097000D+01 0.1097000D+01 0.1097000D+01 0.1097000D+01
EXPONENTS  0.3180000D+00 0.3180000D+00 0.3180000D+00 0.3180000D+00 0.3180000D+00
EXPONENTS  0.3180000D+00 0.1000000D+00 0.1000000D+00 0.1000000D+00 0.1000000D+00
EXPONENTS  0.1000000D+00 0.1000000D+00 0.7610000D+00 0.7610000D+00 0.7610000D+00
EXPONENTS  0.7610000D+00 0.7610000D+00 0.7610000D+00 0.7610000D+00 0.7610000D+00
EXPONENTS  0.7610000D+00 0.7610000D+00 0.2680000D+00 0.2680000D+00 0.2680000D+00
EXPONENTS  0.2680000D+00 0.2680000D+00 0.2680000D+00 0.2680000D+00 0.2680000D+00
EXPONENTS  0.2680000D+00 0.2680000D+00 0.1063900D+08 0.1593400D+07 0.3626100D+06
EXPONENTS  0.1027000D+06 0.3350100D+05 0.1209300D+05 0.4715900D+04 0.1955600D+04
EXPONENTS  0.8526100D+03 0.3876700D+03 0.1826800D+03 0.8824500D+02 0.3926300D+02
EXPONENTS  0.9405700D+01 0.1899500D+01 0.3350100D+05 0.1209300D+05 0.4715900D+04
EXPONENTS  0.1955600D+04 0.8526100D+03 0.3876700D+03 0.1826800D+03 0.8824500D+02
EXPONENTS  0.3926300D+02 0.1923400D+02 0.9405700D+01 0.1899500D+01 0.4715900D+04
EXPONENTS  0.8526100D+03 0.3876700D+03 0.1826800D+03 0.8824500D+02 0.3926300D+02
EXPONENTS  0.1923400D+02 0.9405700D+01 0.4160100D+01 0.1899500D+01 0.4715900D+04
EXPONENTS  0.8526100D+03 0.3876700D+03 0.8824500D+02 0.3926300D+02 0.1923400D+02
EXPONENTS  0.9405700D+01 0.4160100D+01 0.1899500D+01 0.3011400D+00 0.6047200D+00
EXPONENTS  0.1251500D+00 0.4559300D-01 0.8676500D+04 0.2055900D+04 0.6662300D+03
EXPONENTS  0.2531000D+03 0.1061200D+03 0.4724200D+02 0.2182500D+02 0.9968400D+01
EXPONENTS  0.1998200D+01 0.8676500D+04 0.2055900D+04 0.6662300D+03 0.2531000D+03
EXPONENTS  0.1061200D+03 0.4724200D+02 0.2182500D+02 0.9968400D+01 0.1998200D+01
EXPONENTS  0.8676500D+04 0.2055900D+04 0.6662300D+03 0.2531000D+03 0.1061200D+03
EXPONENTS  0.4724200D+02 0.2182500D+02 0.9968400D+01 0.1998200D+01 0.8676500D+04
EXPONENTS  0.6662300D+03 0.2531000D+03 0.1061200D+03 0.4724200D+02 0.2182500D+02
EXPONENTS  0.9968400D+01 0.4517100D+01 0.1998200D+01 0.8676500D+04 0.6662300D+03
EXPONENTS  0.2531000D+03 0.1061200D+03 0.4724200D+02 0.2182500D+02 0.9968400D+01
EXPONENTS  0.4517100D+01 0.1998200D+01 0.8676500D+04 0.6662300D+03 0.2531000D+03
EXPONENTS  0.1061200D+03 0.4724200D+02 0.2182500D+02 0.9968400D+01 0.4517100D+01
EXPONENTS  0.1998200D+01 0.6662300D+03 0.1061200D+03 0.4724200D+02 0.2182500D+02
EXPONENTS  0.9968400D+01 0.4517100D+01 0.1998200D+01 0.2814500D+00 0.6662300D+03
EXPONENTS  0.1061200D+03 0.4724200D+02 0.2182500D+02 0.9968400D+01 0.4517100D+01
EXPONENTS  0.1998200D+01 0.2814500D+00 0.6662300D+03 0.1061200D+03 0.4724200D+02
EXPONENTS  0.2182500D+02 0.9968400D+01 0.4517100D+01 0.1998200D+01 0.2814500D+00
EXPONENTS  0.7098800D+00 0.7098800D+00 0.7098800D+00 0.1020400D+00 0.1020400D+00
EXPONENTS  0.1020400D+00 0.3514200D-01 0.3514200D-01 0.3514200D-01 0.4038300D+03
EXPONENTS  0.1211700D+03 0.4634500D+02 0.1972100D+02 0.8862400D+01 0.3996200D+01
EXPONENTS  0.1763600D+01 0.4038300D+03 0.1211700D+03 0.4634500D+02 0.1972100D+02
EXPONENTS  0.8862400D+01 0.3996200D+01 0.1763600D+01 0.4038300D+03 0.1211700D+03
EXPONENTS  0.4634500D+02 0.1972100D+02 0.8862400D+01 0.3996200D+01 0.1763600D+01
EXPONENTS  0.4038300D+03 0.1211700D+03 0.4634500D+02 0.1972100D+02 0.8862400D+01
EXPONENTS  0.3996200D+01 0.1763600D+01 0.4038300D+03 0.1211700D+03 0.4634500D+02
EXPONENTS  0.1972100D+02 0.8862400D+01 0.3996200D+01 0.1763600D+01 0.4038300D+03
EXPONENTS  0.1211700D+03 0.4634500D+02 0.1972100D+02 0.8862400D+01 0.3996200D+01
EXPONENTS  0.1763600D+01 0.7061900D+00 0.7061900D+00 0.7061900D+00 0.7061900D+00
EXPONENTS  0.7061900D+00 0.7061900D+00 0.2639000D+00 0.2639000D+00 0.2639000D+00
EXPONENTS  0.2639000D+00 0.2639000D+00 0.2639000D+00 0.1047000D+00 0.1047000D+00
EXPONENTS  0.1047000D+00 0.1047000D+00 0.1047000D+00 0.1047000D+00 0.5515000D+00
EXPONENTS  0.5515000D+00 0.5515000D+00 0.5515000D+00 0.5515000D+00 0.5515000D+00
EXPONENTS  0.5515000D+00 0.5515000D+00 0.5515000D+00 0.5515000D+00 0.2580000D+00
EXPONENTS  0.2580000D+00 0.2580000D+00 0.2580000D+00 0.2580000D+00 0.2580000D+00
EXPONENTS  0.2580000D+00 0.2580000D+00 0.2580000D+00 0.2580000D+00 0.1063900D+08
EXPONENTS  0.1593400D+07 0.3626100D+06 0.1027000D+06 0.3350100D+05 0.1209300D+05
EXPONENTS  0.4715900D+04 0.1955600D+04 0.8526100D+03 0.3876700D+03 0.1826800D+03
EXPONENTS  0.8824500D+02 0.3926300D+02 0.9405700D+01 0.1899500D+01 0.3350100D+05
EXPONENTS  0.1209300D+05 0.4715900D+04 0.1955600D+04 0.8526100D+03 0.3876700D+03
EXPONENTS  0.1826800D+03 0.8824500D+02 0.3926300D+02 0.1923400D+02 0.9405700D+01
EXPONENTS  0.1899500D+01 0.4715900D+04 0.8526100D+03 0.3876700D+03 0.1826800D+03
EXPONENTS  0.8824500D+02 0.3926300D+02 0.1923400D+02 0.9405700D+01 0.4160100D+01
EXPONENTS  0.1899500D+01 0.4715900D+04 0.8526100D+03 0.3876700D+03 0.8824500D+02
EXPONENTS  0.3926300D+02 0.1923400D+02 0.9405700D+01 0.4160100D+01 0.1899500D+01
EXPONENTS  0.3011400D+00 0.6047200D+00 0.1251500D+00 0.4559300D-01 0.8676500D+04
EXPONENTS  0.2055900D+04 0.6662300D+03 0.2531000D+03 0.1061200D+03 0.4724200D+02
EXPONENTS  0.2182500D+02 0.9968400D+01 0.1998200D+01 0.8676500D+04 0.2055900D+04
EXPONENTS  0.6662300D+03 0.2531000D+03 0.1061200D+03 0.4724200D+02 0.2182500D+02
EXPONENTS  0.9968400D+01 0.1998200D+01 0.8676500D+04 0.2055900D+04 0.6662300D+03
EXPONENTS  0.2531000D+03 0.1061200D+03 0.4724200D+02 0.2182500D+02 0.9968400D+01
EXPONENTS  0.1998200D+01 0.8676500D+04 0.6662300D+03 0.2531000D+03 0.1061200D+03
EXPONENTS  0.4724200D+02 0.2182500D+02 0.9968400D+01 0.4517100D+01 0.1998200D+01
EXPONENTS  0.8676500D+04 0.6662300D+03 0.2531000D+03 0.1061200D+03 0.4724200D+02
EXPONENTS  0.2182500D+02 0.9968400D+01 0.4517100D+01 0.1998200D+01 0.8676500D+04
EXPONENTS  0.6662300D+03 0.2531000D+03 0.1061200D+03 0.4724200D+02 0.2182500D+02
EXPONENTS  0.9968400D+01 0.4517100D+01 0.1998200D+01 0.6662300D+03 0.1061200D+03
EXPONENTS  0.4724200D+02 0.2182500D+02 0.9968400D+01 0.4517100D+01 0.1998200D+01
EXPONENTS  0.2814500D+00 0.6662300D+03 0.1061200D+03 0.4724200D+02 0.2182500D+02
EXPONENTS  0.9968400D+01 0.4517100D+01 0.1998200D+01 0.2814500D+00 0.6662300D+03
EXPONENTS  0.1061200D+03 0.4724200D+02 0.2182500D+02 0.9968400D+01 0.4517100D+01
EXPONENTS  0.1998200D+01 0.2814500D+00 0.7098800D+00 0.7098800D+00 0.7098800D+00
EXPONENTS  0.1020400D+00 0.1020400D+00 0.1020400D+00 0.3514200D-01 0.3514200D-01
EXPONENTS  0.3514200D-01 0.4038300D+03 0.1211700D+03 0.4634500D+02 0.1972100D+02
EXPONENTS  0.8862400D+01 0.3996200D+01 0.1763600D+01 0.4038300D+03 0.1211700D+03
EXPONENTS  0.4634500D+02 0.1972100D+02 0.8862400D+01 0.3996200D+01 0.1763600D+01
EXPONENTS  0.4038300D+03 0.1211700D+03 0.4634500D+02 0.1972100D+02 0.8862400D+01
EXPONENTS  0.3996200D+01 0.1763600D+01 0.4038300D+03 0.1211700D+03 0.4634500D+02
EXPONENTS  0.1972100D+02 0.8862400D+01 0.3996200D+01 0.1763600D+01 0.4038300D+03
EXPONENTS  0.1211700D+03 0.4634500D+02 0.1972100D+02 0.8862400D+01 0.3996200D+01
EXPONENTS  0.1763600D+01 0.4038300D+03 0.1211700D+03 0.4634500D+02 0.1972100D+02
EXPONENTS  0.8862400D+01 0.3996200D+01 0.1763600D+01 0.7061900D+00 0.7061900D+00
EXPONENTS  0.7061900D+00 0.7061900D+00 0.7061900D+00 0.7061900D+00 0.2639000D+00
EXPONENTS  0.2639000D+00 0.2639000D+00 0.2639000D+00 0.2639000D+00 0.2639000D+00
EXPONENTS  0.1047000D+00 0.1047000D+00 0.1047000D+00 0.1047000D+00 0.1047000D+00
EXPONENTS  0.1047000D+00 0.5515000D+00 0.5515000D+00 0.5515000D+00 0.5515000D+00
EXPONENTS  0.5515000D+00 0.5515000D+00 0.5515000D+00 0.5515000D+00 0.5515000D+00
EXPONENTS  0.5515000D+00 0.2580000D+00 0.2580000D+00 0.2580000D+00 0.2580000D+00
EXPONENTS  0.2580000D+00 0.2580000D+00 0.2580000D+00 0.2580000D+00 0.2580000D+00
EXPONENTS  0.2580000D+00 0.1533000D+05 0.2299000D+04 0.5224000D+03 0.1473000D+03
EXPONENTS  0.4755000D+02 0.1676000D+02 0.6207000D+01 0.5224000D+03 0.1473000D+03
EXPONENTS  0.4755000D+02 0.1676000D+02 0.6207000D+01 0.6882000D+00 0.1752000D+01
EXPONENTS  0.2384000D+00 0.7376000D-01 0.3446000D+02 0.7749000D+01 0.2280000D+01
EXPONENTS  0.3446000D+02 0.7749000D+01 0.2280000D+01 0.3446000D+02 0.7749000D+01
EXPONENTS  0.2280000D+01 0.7156000D+00 0.7156000D+00 0.7156000D+00 0.2140000D+00
EXPONENTS  0.2140000D+00 0.2140000D+00 0.5974000D-01 0.5974000D-01 0.5974000D-01
EXPONENTS  0.2314000D+01 0.2314000D+01 0.2314000D+01 0.2314000D+01 0.2314000D+01
EXPONENTS  0.2314000D+01 0.6450000D+00 0.6450000D+00 0.6450000D+00 0.6450000D+00
EXPONENTS  0.6450000D+00 0.6450000D+00 0.2140000D+00 0.2140000D+00 0.2140000D+00
EXPONENTS  0.2140000D+00 0.2140000D+00 0.2140000D+00 0.1428000D+01 0.1428000D+01
EXPONENTS  0.1428000D+01 0.1428000D+01 0.1428000D+01 0.1428000D+01 0.1428000D+01
EXPONENTS  0.1428000D+01 0.1428000D+01 0.1428000D+01 0.5000000D+00 0.5000000D+00
EXPONENTS  0.5000000D+00 0.5000000D+00 0.5000000D+00 0.5000000D+00 0.5000000D+00
EXPONENTS  0.5000000D+00 0.5000000D+00 0.5000000D+00
MO    1     MO 0.0        OCC NO =    2.0000165  ORB. ENERGY =    0.000000
  0.12285936D+00  0.22903460D+00  0.38709967D+00  0.58188300D+00  0.71473905D+00
  0.60321454D+00  0.22682442D+00  0.29086185D-04  0.21740122D-03  0.81247798D-03
  0.22666871D-02  0.30367357D-02 -0.35858187D-02  0.94295978D-02 -0.19707123D-02
 -0.30570114D-03 -0.15349272D-12 -0.14390918D-12 -0.10247191D-12 -0.77412959D-03
 -0.72579569D-03 -0.51680977D-03  0.36278491D-02  0.34013392D-02  0.24219561D-02
 -0.45941170D-13 -0.26267503D-03  0.19635616D-02 -0.14703104D-13 -0.57277020D-04
  0.38222528D-03  0.28709754D-15  0.20435573D-05  0.48640771D-05 -0.98534767D-04
 -0.49394576D-03  0.59248052D-03  0.19137165D-14  0.38546827D-13  0.18674158D-03
  0.33482156D-03 -0.31920090D-03 -0.15620656D-04  0.49123971D-16  0.40089077D-13
  0.79978093D-04  0.30644783D-04 -0.18569795D-04 -0.12074988D-04  0.73700021D-15
  0.35347750D-14  0.16713625D-04 -0.63780551D-14  0.76530059D-05  0.12310245D-03
 -0.16247055D-14 -0.19432348D-04 -0.16539012D-03  0.20758871D-13 -0.35266695D-05
 -0.20391722D-03  0.13565227D-14  0.30882343D-14 -0.59251513D-05 -0.14143372D-04
 -0.74445627D-14  0.68749740D-06  0.21422488D-05 -0.18201401D-14  0.17087957D-04
  0.40287868D-04 -0.57213251D-14 -0.30850466D-01 -0.58034372D-01 -0.10046046D+00
 -0.16467399D+00 -0.25796431D+00 -0.38774135D+00 -0.55417354D+00 -0.73566417D+00
 -0.85673407D+00 -0.78681113D+00 -0.45994277D+00 -0.12068630D+00 -0.68616865D-02
 -0.11972905D-03 -0.12052091D-04 -0.14639556D-02 -0.42290304D-02 -0.19382640D-01
 -0.57376836D-01 -0.16639450D+00 -0.34586632D+00 -0.49476588D+00 -0.14186518D+00
  0.56691227D+00  0.54814931D+00  0.11964197D+00 -0.17317813D-02 -0.89629632D-03
 -0.41814077D-02 -0.84858566D-02 -0.33257548D-01 -0.23337609D-01  0.15198334D+00
  0.47094420D+00  0.57607022D-01 -0.41167670D+00 -0.19319986D+00 -0.97778615D-06
 -0.13404672D-05  0.25699999D-05  0.54620948D-05 -0.20648247D-04 -0.66771184D-04
 -0.23222002D-04  0.22713647D-03  0.50663208D-03 -0.33618563D-03 -0.80031851D-02
  0.47289859D-03  0.15549695D-03  0.49879089D-08  0.71569048D-08  0.94764033D-08
  0.10943596D-07  0.10146778D-07  0.65709171D-08  0.23186086D-08  0.26715903D-09
 -0.43645577D-12  0.83919196D+01  0.12041152D+02  0.15943598D+02  0.18412081D+02
  0.17071471D+02  0.11055255D+02  0.39009486D+01  0.44948236D+00 -0.73431608D-03
  0.53077557D+01  0.76158371D+01  0.10084072D+02  0.11645348D+02  0.10797434D+02
  0.69922732D+01  0.24672880D+01  0.28429044D+00 -0.46444324D-03 -0.11017708D-10
  0.31413448D-10  0.15333308D-09  0.31773530D-09  0.39872643D-09  0.63230841D-10
 -0.51183229D-09 -0.44639197D-09 -0.11475170D-09 -0.49975173D-01  0.14248812D+00
  0.69550285D+00  0.14412142D+01  0.18085815D+01  0.28680850D+00 -0.23216179D+01
 -0.20247874D+01 -0.52050173D+00 -0.31692173D-01  0.90360031D-01  0.44105893D+00
  0.91395798D+00  0.11469271D+01  0.18188200D+00 -0.14722734D+01 -0.12840358D+01
 -0.33008052D+00  0.72575653D-14  0.10253045D-13 -0.47706881D-14  0.95605041D-14
  0.10495294D-13  0.28330087D-13  0.89275589D-14 -0.19167659D-13 -0.24518445D-03
 -0.34638160D-03  0.16116955D-03 -0.32298530D-03 -0.35456556D-03 -0.95708359D-03
 -0.30160233D-03  0.64754660D-03 -0.12970770D-03 -0.18324312D-03  0.85262065D-04
 -0.17086598D-03 -0.18757260D-03 -0.50631725D-03 -0.15955394D-03  0.34256571D-03
 -0.38308743D-11 -0.18427724D-01 -0.11796752D-01 -0.27327990D-13  0.13552094D-03
  0.61987783D-04  0.57334899D-15  0.84253174D-05  0.66569804D-05  0.84234096D+00
  0.88141906D+00  0.75101621D+00  0.49460095D+00  0.22794685D+00  0.68259054D-01
  0.11613699D-01 -0.10055098D+01 -0.10521577D+01 -0.89649464D+00 -0.59040949D+00
 -0.27210216D+00 -0.81481431D-01 -0.13863375D-01  0.16316883D+00  0.17073860D+00
  0.14547843D+00  0.95808542D-01  0.44155305D-01  0.13222377D-01  0.22496754D-02
  0.39049517D-10  0.40861112D-10  0.34815855D-10  0.22928872D-10  0.10567235D-10
  0.31643755D-11  0.53839167D-12 -0.11688402D-09 -0.12230654D-09 -0.10421171D-09
 -0.68631292D-10 -0.31630119D-10 -0.94716904D-11 -0.16115278D-11 -0.31270824D+01
 -0.32721547D+01 -0.27880510D+01 -0.18361423D+01 -0.84622334D+00 -0.25340295D+00
 -0.43114363D-01  0.95480978D-03 -0.11426924D-02  0.18788257D-03 -0.31083465D-14
 -0.11016907D-12 -0.32089321D-02 -0.10607212D-03  0.10371978D-03  0.23523447D-05
  0.90491535D-14  0.62333230D-14  0.27977078D-03 -0.13836570D-04  0.15159000D-04
 -0.13224306D-05  0.15871686D-14  0.75310307D-15  0.26081031D-04  0.83874289D-14
 -0.32090690D-04  0.74730498D-04 -0.23597734D-13  0.17293914D-03  0.12463840D-03
 -0.15645528D-14 -0.76667067D-04 -0.34882989D-03 -0.46491121D-13 -0.19881142D-14
  0.94295163D-05 -0.17771379D-04  0.55227533D-14 -0.62273758D-04 -0.50108213D-04
  0.44158938D-15  0.33985209D-04  0.10342235D-03  0.94966444D-14 -0.38641931D-01
 -0.72691292D-01 -0.12583234D+00 -0.20626336D+00 -0.32311471D+00 -0.48566769D+00
 -0.69413331D+00 -0.92146046D+00 -0.10731073D+01 -0.98552489D+00 -0.57610401D+00
 -0.15116633D+00 -0.85946456D-02 -0.14996732D-03 -0.15095917D-04 -0.18334961D-02
 -0.52965477D-02 -0.24275322D-01 -0.71860241D-01 -0.20839679D+00 -0.43317197D+00
 -0.61965766D+00 -0.17767564D+00  0.71001566D+00  0.68651645D+00  0.14984271D+00
 -0.21689279D-02 -0.11209280D-02 -0.52293607D-02 -0.10612600D-01 -0.41592623D-01
 -0.29186529D-01  0.19007372D+00  0.58897321D+00  0.72044613D-01 -0.51485197D+00
 -0.24162001D+00 -0.12251596D-05 -0.16795965D-05  0.32201929D-05  0.68439687D-05
 -0.25872117D-04 -0.83663852D-04 -0.29097015D-04  0.28460050D-03  0.63480665D-03
 -0.42123838D-03 -0.10031014D-01  0.58189928D-03  0.14895065D-03  0.46246776D-08
  0.66357221D-08  0.87863092D-08  0.10146658D-07  0.94078653D-08  0.60924073D-08
  0.21497620D-08  0.24770388D-09 -0.40467203D-12 -0.11389378D+02 -0.16342058D+02
 -0.21638395D+02 -0.24988580D+02 -0.23169126D+02 -0.15004015D+02 -0.52943048D+01
 -0.61003023D+00  0.99660198D-03  0.70398907D+01  0.10101192D+02  0.13374912D+02
  0.15445695D+02  0.14321072D+02  0.92741344D+01  0.32724637D+01  0.37706589D+00
 -0.61600983D-03 -0.10484551D-10  0.29893324D-10  0.14591316D-09  0.30235981D-09
  0.37943172D-09  0.60171046D-10 -0.48706429D-09 -0.42479068D-09 -0.10919876D-09
  0.67920908D-01 -0.19365461D+00 -0.94525306D+00 -0.19587441D+01 -0.24580305D+01
 -0.38979943D+00  0.31552946D+01  0.27518744D+01  0.70741027D+00 -0.42053143D-01
  0.11990100D+00  0.58525221D+00  0.12127539D+01  0.15218864D+01  0.24134381D+00
 -0.19535966D+01 -0.17038195D+01 -0.43799216D+00  0.45622008D-14  0.64451985D-14
 -0.29989172D-14  0.60098584D-14  0.65974793D-14  0.17808665D-13  0.56119807D-14
 -0.12049042D-13  0.26585959D-03  0.37559017D-03 -0.17476015D-03  0.35022098D-03
  0.38446425D-03  0.10377895D-02  0.32703489D-03 -0.70215087D-03 -0.15466992D-03
 -0.21850821D-03  0.10167073D-03 -0.20374910D-03 -0.22367091D-03 -0.60375789D-03
 -0.19026006D-03  0.40849240D-03 -0.36292118D-11  0.25056137D-01 -0.15642082D-01
 -0.26588587D-13 -0.11138089D-03  0.57007980D-04  0.49732001D-15 -0.88974075D-05
  0.65962213D-05  0.11580100D+01  0.12117327D+01  0.10324611D+01  0.67995368D+00
  0.31337041D+00  0.93839275D-01  0.15965957D-01 -0.14078511D+01 -0.14731645D+01
 -0.12552150D+01 -0.82665396D+00 -0.38098020D+00 -0.11408514D+00 -0.19410619D-01
  0.24984112D+00  0.26143181D+00  0.22275389D+00  0.14670028D+00  0.67609791D-01
  0.20245861D-01  0.34446617D-02  0.18306878D-09  0.19156176D-09  0.16322087D-09
  0.10749328D-09  0.49540454D-10  0.14834969D-10  0.25240442D-11  0.11542964D-10
  0.12078468D-10  0.10291501D-10  0.67777317D-11  0.31236547D-11  0.93538347D-12
  0.15914757D-12  0.42530831D+01  0.44503932D+01  0.37919732D+01  0.24973011D+01
  0.11509317D+01  0.34464836D+00  0.58638997D-01  0.12766235D-02 -0.15332294D-02
  0.25660585D-03  0.17861855D-12 -0.10105669D-13  0.42954900D-02 -0.12404137D-03
  0.11428228D-03  0.97590841D-05 -0.56731096D-14  0.59781435D-14 -0.32457756D-03
 -0.12952713D-04  0.14640198D-04 -0.16874846D-05 -0.86916139D-15  0.21281692D-15
 -0.30930554D-04  0.84929966D-14  0.44683938D-04  0.10560642D-03 -0.23891608D-13
 -0.23680482D-03  0.16245731D-03 -0.15873818D-14  0.10275300D-03 -0.47927656D-03
  0.44335354D-13 -0.16839365D-14 -0.92332234D-05 -0.23379714D-04  0.40762578D-14
  0.73491219D-04 -0.58204418D-04  0.97555160D-15 -0.45791549D-04  0.12834356D-03
 -0.78312564D-14 -0.35532270D-01 -0.66226308D-01 -0.11229601D+00 -0.16994807D+00
 -0.21199683D+00 -0.18192482D+00 -0.69667540D-01 -0.34686451D-05 -0.37216285D-04
 -0.13718624D-03 -0.40112450D-03 -0.48337453D-03  0.58227585D-03 -0.31554136D-02
  0.29584545D-03  0.68191980D-04  0.30349671D-12  0.29428972D-12  0.19852611D-12
  0.37666068D-03  0.36523416D-03  0.24638481D-03  0.27725678D-02  0.26884581D-02
  0.18136180D-02  0.60919496D-13  0.86531839D-04  0.61925589D-03  0.74818253D-14
 -0.95220253D-05  0.75501641D-04 -0.41718447D-15 -0.38328485D-05  0.73651227D-05
  0.28504101D-03 -0.48977515D-04 -0.23606349D-03 -0.30212685D-14 -0.15351466D-13
  0.49342995D-04  0.31977922D-04  0.15246090D-03 -0.18443883D-03  0.53876172D-14
  0.20129327D-13  0.26440326D-04  0.21710254D-05  0.45162817D-04 -0.47333843D-04
  0.17226276D-14  0.38828692D-14  0.92263670D-05  0.30150226D-14  0.68238413D-05
 -0.29130056D-03 -0.66525843D-14 -0.17817445D-04  0.42862288D-03 -0.23924833D-14
 -0.26540785D-05  0.44527880D-03  0.30271963D-13  0.98249133D-15 -0.16054834D-06
  0.79001691D-04  0.63876209D-14  0.75022818D-05 -0.38921709D-04 -0.93350949D-14
 -0.70206368D-05 -0.19808336D-03 -0.95527930D-14
MO    2     MO 0.0        OCC NO =    2.0000157  ORB. ENERGY =    0.000000
 -0.16326817D-01 -0.30436476D-01 -0.51441791D-01 -0.77326607D-01 -0.94981886D-01
 -0.80161361D-01 -0.30142765D-01 -0.37140383D-05 -0.27760135D-04 -0.10374596D-03
 -0.28943509D-03 -0.38776322D-03  0.45787606D-03 -0.12641092D-02  0.25071356D-03
  0.39243880D-04  0.55906773D-13  0.52416153D-13  0.37323423D-13 -0.57585531D-02
 -0.53990095D-02 -0.38444164D-02 -0.44417265D-03 -0.41644009D-03 -0.29653015D-03
  0.20555285D-13 -0.19478360D-02 -0.24930940D-03  0.49457955D-14 -0.44778663D-03
 -0.50088688D-04  0.60865681D-15  0.16055141D-04 -0.57071767D-06  0.14339571D-04
  0.60764825D-04 -0.75104396D-04 -0.98246506D-14 -0.16196346D-13  0.14414529D-02
 -0.44442661D-04  0.40840923D-04  0.36017380D-05 -0.17446469D-13 -0.46127480D-14
  0.62536667D-03 -0.40460833D-05  0.23768516D-05  0.16692317D-05 -0.22153141D-14
 -0.13857180D-14  0.13220506D-03  0.51984085D-15  0.54941725D-04 -0.16044694D-04
 -0.20193049D-14 -0.14419011D-03  0.22594509D-04  0.45978232D-15 -0.20635070D-04
  0.25539574D-04 -0.69747873D-14 -0.90747623D-15 -0.46131326D-04  0.21458125D-05
  0.15964673D-14  0.10055774D-04 -0.15907293D-06  0.11259614D-14  0.12833821D-03
 -0.62783647D-05  0.50142490D-14  0.35872016D-01  0.67480665D-01  0.11681248D+00
  0.19147808D+00  0.29995333D+00  0.45085426D+00  0.64437673D+00  0.85540871D+00
  0.99618525D+00  0.91488090D+00  0.53480796D+00  0.14033049D+00  0.79785678D-02
  0.13921743D-03  0.14013818D-04  0.17020256D-02  0.49167596D-02  0.22534664D-01
  0.66707514D-01  0.19345373D+00  0.40211145D+00  0.57522520D+00  0.16493544D+00
 -0.65910410D+00 -0.63728990D+00 -0.13909826D+00  0.20134053D-02  0.10368978D-02
  0.48373427D-02  0.98170280D-02  0.38474640D-01  0.26998566D-01 -0.17582488D+00
 -0.54482094D+00 -0.66643802D-01  0.47625619D+00  0.22350701D+00  0.11209222D-05
  0.15366953D-05 -0.29462167D-05 -0.62616792D-05  0.23670899D-04  0.76545675D-04
  0.26621422D-04 -0.26038650D-03 -0.58079687D-03  0.38539913D-03  0.92840833D-02
 -0.45376936D-03  0.95080841D-05  0.34399106D-08  0.49357583D-08  0.65354001D-08
  0.75472496D-08  0.69977236D-08  0.45316319D-08  0.15990280D-08  0.18424618D-09
 -0.30100166D-12 -0.12613682D+02 -0.18098750D+02 -0.23964418D+02 -0.27674732D+02
 -0.25659695D+02 -0.16616874D+02 -0.58634170D+01 -0.67560554D+00  0.11037319D-02
 -0.76264675D+01 -0.10942843D+02 -0.14489335D+02 -0.16732660D+02 -0.15514331D+02
 -0.10046873D+02 -0.35451315D+01 -0.40848373D+00  0.66733692D-03  0.77527250D-11
 -0.22104400D-10 -0.10789442D-09 -0.22357775D-09 -0.28056801D-09 -0.44493041D-10
  0.36015613D-09  0.31410836D-09  0.80746229D-10  0.75526595D-01 -0.21533978D+00
 -0.10511012D+01 -0.21780815D+01 -0.27332772D+01 -0.43344861D+00  0.35086201D+01
  0.30600254D+01  0.78662506D+00  0.45609673D-01 -0.13004130D+00 -0.63474832D+00
 -0.13153192D+01 -0.16505958D+01 -0.26175481D+00  0.21188167D+01  0.18479154D+01
  0.47503414D+00 -0.12208284D-13 -0.17247117D-13  0.80249935D-14 -0.16082163D-13
 -0.17654615D-13 -0.47655339D-13 -0.15017457D-13  0.32242798D-13  0.11120627D-03
  0.15710542D-03 -0.73100330D-04  0.14649375D-03  0.16081735D-03  0.43409643D-03
  0.13679526D-03 -0.29370232D-03  0.12272179D-03  0.17337384D-03 -0.80669942D-04
  0.16166332D-03  0.17747014D-03  0.47904755D-03  0.15096054D-03 -0.32411549D-03
  0.26160193D-11  0.27853386D-01  0.16909303D-01  0.20466276D-13  0.83397250D-04
  0.10595472D-04 -0.78163663D-15 -0.27064069D-05 -0.68675890D-06 -0.12484835D+01
 -0.13064034D+01 -0.11131257D+01 -0.73307740D+00 -0.33785355D+00 -0.10117079D+00
 -0.17213352D-01  0.14946352D+01  0.15639747D+01  0.13325901D+01  0.87761134D+00
  0.40446494D+00  0.12111768D+00  0.20607146D-01 -0.24615168D+00 -0.25757121D+00
 -0.21946446D+00 -0.14453394D+00 -0.66611389D-01 -0.19946888D-01 -0.33937939D-02
 -0.82520138D-11 -0.86348433D-11 -0.73573486D-11 -0.48453703D-11 -0.22330869D-11
 -0.66870149D-12 -0.11377389D-12  0.29075212D-10  0.30424076D-10  0.25922942D-10
  0.17072217D-10  0.78680764D-11  0.23561082D-11  0.40087184D-12  0.45842580D+01
  0.47969320D+01  0.40872428D+01  0.26917584D+01  0.12405513D+01  0.37148510D+00
  0.63205040D-01 -0.12932835D-02  0.14769881D-02 -0.18370457D-03  0.66753808D-14
  0.31857440D-13  0.44686242D-02  0.83249332D-04 -0.48253643D-04 -0.34995689D-04
 -0.38296554D-14 -0.23274445D-14 -0.21381053D-03 -0.22495934D-05  0.13196927D-05
  0.92990065D-06 -0.10485410D-14 -0.97010124D-15 -0.22315845D-04 -0.63450795D-14
  0.41577659D-04 -0.12188762D-03  0.15543837D-13 -0.25369252D-03 -0.15850557D-03
  0.34914017D-14  0.12895954D-03  0.52416844D-03  0.32719422D-13  0.12394346D-14
  0.24499763D-05  0.22671129D-04 -0.26803608D-14  0.48664862D-04  0.38120343D-04
 -0.10379429D-14 -0.56014791D-04 -0.10613373D-03 -0.60562511D-14 -0.26443221D-01
 -0.49743681D-01 -0.86108853D-01 -0.14114894D+00 -0.22111197D+00 -0.33234929D+00
 -0.47500526D+00 -0.63056845D+00 -0.73434252D+00 -0.67440865D+00 -0.39423614D+00
 -0.10344526D+00 -0.58814378D-02 -0.10262476D-03 -0.10330350D-04 -0.12544415D-02
 -0.36237924D-02 -0.16608692D-01 -0.49165346D-01 -0.14258094D+00 -0.29636764D+00
 -0.42395743D+00 -0.12156214D+00  0.48577858D+00  0.46970089D+00  0.10251940D+00
 -0.14839373D-02 -0.76263415D-03 -0.35578461D-02 -0.72203846D-02 -0.28297943D-01
 -0.19857337D-01  0.12931849D+00  0.40071361D+00  0.49016248D-01 -0.35028451D+00
 -0.16438851D+00 -0.83160177D-06 -0.11400600D-05  0.21857708D-05  0.46454817D-05
 -0.17561221D-04 -0.56788527D-04 -0.19750186D-04  0.19317833D-03  0.43088782D-03
 -0.28592404D-03 -0.68493204D-02  0.32790854D-03 -0.48192331D-04  0.30123361D-08
  0.43222527D-08  0.57230619D-08  0.66091404D-08  0.61279195D-08  0.39683585D-08
  0.14002718D-08  0.16134472D-09 -0.26358771D-12 -0.10154988D+02 -0.14570892D+02
 -0.19293207D+02 -0.22280296D+02 -0.20658036D+02 -0.13377867D+02 -0.47205035D+01
 -0.54391463D+00  0.88858941D-03  0.60078613D+01  0.86203843D+01  0.11414185D+02
  0.13181397D+02  0.12221641D+02  0.79145708D+01  0.27927292D+01  0.32178903D+00
 -0.52570442D-03 -0.79136803D-12  0.22563312D-11  0.11013443D-10  0.22821948D-10