 br2co-wavefunction
GAUSSIAN            210 MOL ORBITALS    578 PRIMITIVES        4 NUCLEI
  C    1    (CENTRE  1)   0.00000000  0.00000000 -0.92928983  CHARGE =  6.0
  Br   2    (CENTRE  2)   0.00000000 -2.99366823 -2.92306618  CHARGE = 35.0
  Br   3    (CENTRE  3)   0.00000000  3.01256550 -2.92306618  CHARGE = 35.0
  O    4    (CENTRE  4)   0.00000000  0.00000000  1.29351754  CHARGE =  8.0
CENTRE ASSIGNMENTS    1  1  1  1  1  1  1  1  1  1  1  1  1  1  1  1  1  1  1  1
CENTRE ASSIGNMENTS    1  1  1  1  1  1  1  1  1  1  1  1  1  1  1  1  1  1  1  1
CENTRE ASSIGNMENTS    1  1  1  1  1  1  1  1  1  1  1  1  1  1  1  1  1  1  1  1
CENTRE ASSIGNMENTS    1  1  1  1  1  1  1  1  1  1  1  1  2  2  2  2  2  2  2  2
CENTRE ASSIGNMENTS    2  2  2  2  2  2  2  2  2  2  2  2  2  2  2  2  2  2  2  2
CENTRE ASSIGNMENTS    2  2  2  2  2  2  2  2  2  2  2  2  2  2  2  2  2  2  2  2
CENTRE ASSIGNMENTS    2  2  2  2  2  2  2  2  2  2  2  2  2  2  2  2  2  2  2  2
CENTRE ASSIGNMENTS    2  2  2  2  2  2  2  2  2  2  2  2  2  2  2  2  2  2  2  2
CENTRE ASSIGNMENTS    2  2  2  2  2  2  2  2  2  2  2  2  2  2  2  2  2  2  2  2
CENTRE ASSIGNMENTS    2  2  2  2  2  2  2  2  2  2  2  2  2  2  2  2  2  2  2  2
CENTRE ASSIGNMENTS    2  2  2  2  2  2  2  2  2  2  2  2  2  2  2  2  2  2  2  2
CENTRE ASSIGNMENTS    2  2  2  2  2  2  2  2  2  2  2  2  2  2  2  2  2  2  2  2
CENTRE ASSIGNMENTS    2  2  2  2  2  2  2  2  2  2  2  2  2  2  2  2  2  2  2  2
CENTRE ASSIGNMENTS    2  2  2  2  2  2  2  2  2  2  2  2  2  2  2  2  2  2  2  2
CENTRE ASSIGNMENTS    2  2  2  2  2  2  2  2  2  3  3  3  3  3  3  3  3  3  3  3
CENTRE ASSIGNMENTS    3  3  3  3  3  3  3  3  3  3  3  3  3  3  3  3  3  3  3  3
CENTRE ASSIGNMENTS    3  3  3  3  3  3  3  3  3  3  3  3  3  3  3  3  3  3  3  3
CENTRE ASSIGNMENTS    3  3  3  3  3  3  3  3  3  3  3  3  3  3  3  3  3  3  3  3
CENTRE ASSIGNMENTS    3  3  3  3  3  3  3  3  3  3  3  3  3  3  3  3  3  3  3  3
CENTRE ASSIGNMENTS    3  3  3  3  3  3  3  3  3  3  3  3  3  3  3  3  3  3  3  3
CENTRE ASSIGNMENTS    3  3  3  3  3  3  3  3  3  3  3  3  3  3  3  3  3  3  3  3
CENTRE ASSIGNMENTS    3  3  3  3  3  3  3  3  3  3  3  3  3  3  3  3  3  3  3  3
CENTRE ASSIGNMENTS    3  3  3  3  3  3  3  3  3  3  3  3  3  3  3  3  3  3  3  3
CENTRE ASSIGNMENTS    3  3  3  3  3  3  3  3  3  3  3  3  3  3  3  3  3  3  3  3
CENTRE ASSIGNMENTS    3  3  3  3  3  3  3  3  3  3  3  3  3  3  3  3  3  3  3  3
CENTRE ASSIGNMENTS    3  3  3  3  3  3  4  4  4  4  4  4  4  4  4  4  4  4  4  4
CENTRE ASSIGNMENTS    4  4  4  4  4  4  4  4  4  4  4  4  4  4  4  4  4  4  4  4
CENTRE ASSIGNMENTS    4  4  4  4  4  4  4  4  4  4  4  4  4  4  4  4  4  4  4  4
CENTRE ASSIGNMENTS    4  4  4  4  4  4  4  4  4  4  4  4  4  4  4  4  4  4
TYPE ASSIGNMENTS      1  1  1  1  1  1  1  1  1  1  1  1  1  1  1  1  2  2  2  3
TYPE ASSIGNMENTS      3  3  4  4  4  2  3  4  2  3  4  2  3  4  5  6  7  8  9 10
TYPE ASSIGNMENTS      5  6  7  8  9 10  5  6  7  8  9 10 11 12 13 17 14 15 18 19
TYPE ASSIGNMENTS     16 20 11 12 13 17 14 15 18 19 16 20  1  1  1  1  1  1  1  1
TYPE ASSIGNMENTS      1  1  1  1  1  1  1  1  1  1  1  1  1  1  1  1  1  1  1  1
TYPE ASSIGNMENTS      1  1  1  1  1  1  1  1  1  1  1  1  1  1  1  1  1  1  1  1
TYPE ASSIGNMENTS      1  1  2  2  2  2  2  2  2  2  2  3  3  3  3  3  3  3  3  3
TYPE ASSIGNMENTS      4  4  4  4  4  4  4  4  4  2  2  2  2  2  2  2  2  2  3  3
TYPE ASSIGNMENTS      3  3  3  3  3  3  3  4  4  4  4  4  4  4  4  4  2  2  2  2
TYPE ASSIGNMENTS      2  2  2  2  3  3  3  3  3  3  3  3  4  4  4  4  4  4  4  4
TYPE ASSIGNMENTS      2  3  4  2  3  4  2  3  4  5  5  5  5  5  5  5  6  6  6  6
TYPE ASSIGNMENTS      6  6  6  7  7  7  7  7  7  7  8  8  8  8  8  8  8  9  9  9
TYPE ASSIGNMENTS      9  9  9  9 10 10 10 10 10 10 10  5  6  7  8  9 10  5  6  7
TYPE ASSIGNMENTS      8  9 10  5  6  7  8  9 10 11 12 13 17 14 15 18 19 16 20 11
TYPE ASSIGNMENTS     12 13 17 14 15 18 19 16 20  1  1  1  1  1  1  1  1  1  1  1
TYPE ASSIGNMENTS      1  1  1  1  1  1  1  1  1  1  1  1  1  1  1  1  1  1  1  1
TYPE ASSIGNMENTS      1  1  1  1  1  1  1  1  1  1  1  1  1  1  1  1  1  1  1  2
TYPE ASSIGNMENTS      2  2  2  2  2  2  2  2  3  3  3  3  3  3  3  3  3  4  4  4
TYPE ASSIGNMENTS      4  4  4  4  4  4  2  2  2  2  2  2  2  2  2  3  3  3  3  3
TYPE ASSIGNMENTS      3  3  3  3  4  4  4  4  4  4  4  4  4  2  2  2  2  2  2  2
TYPE ASSIGNMENTS      2  3  3  3  3  3  3  3  3  4  4  4  4  4  4  4  4  2  3  4
TYPE ASSIGNMENTS      2  3  4  2  3  4  5  5  5  5  5  5  5  6  6  6  6  6  6  6
TYPE ASSIGNMENTS      7  7  7  7  7  7  7  8  8  8  8  8  8  8  9  9  9  9  9  9
TYPE ASSIGNMENTS      9 10 10 10 10 10 10 10  5  6  7  8  9 10  5  6  7  8  9 10
TYPE ASSIGNMENTS      5  6  7  8  9 10 11 12 13 17 14 15 18 19 16 20 11 12 13 17
TYPE ASSIGNMENTS     14 15 18 19 16 20  1  1  1  1  1  1  1  1  1  1  1  1  1  1
TYPE ASSIGNMENTS      1  1  2  2  2  3  3  3  4  4  4  2  3  4  2  3  4  2  3  4
TYPE ASSIGNMENTS      5  6  7  8  9 10  5  6  7  8  9 10  5  6  7  8  9 10 11 12
TYPE ASSIGNMENTS     13 17 14 15 18 19 16 20 11 12 13 17 14 15 18 19 16 20
EXPONENTS  0.8236000D+04 0.1235000D+04 0.2808000D+03 0.7927000D+02 0.2559000D+02
EXPONENTS  0.8997000D+01 0.3319000D+01 0.2808000D+03 0.7927000D+02 0.2559000D+02
EXPONENTS  0.8997000D+01 0.3319000D+01 0.3643000D+00 0.9059000D+00 0.1285000D+00
EXPONENTS  0.4402000D-01 0.1871000D+02 0.4133000D+01 0.1200000D+01 0.1871000D+02
EXPONENTS  0.4133000D+01 0.1200000D+01 0.1871000D+02 0.4133000D+01 0.1200000D+01
EXPONENTS  0.3827000D+00 0.3827000D+00 0.3827000D+00 0.1209000D+00 0.1209000D+00
EXPONENTS  0.1209000D+00 0.3569000D-01 0.3569000D-01 0.3569000D-01 0.1097000D+01
EXPONENTS  0.1097000D+01 0.1097000D+01 0.1097000D+01 0.1097000D+01 0.1097000D+01
EXPONENTS  0.3180000D+00 0.3180000D+00 0.3180000D+00 0.3180000D+00 0.3180000D+00
EXPONENTS  0.3180000D+00 0.1000000D+00 0.1000000D+00 0.1000000D+00 0.1000000D+00
EXPONENTS  0.1000000D+00 0.1000000D+00 0.7610000D+00 0.7610000D+00 0.7610000D+00
EXPONENTS  0.7610000D+00 0.7610000D+00 0.7610000D+00 0.7610000D+00 0.7610000D+00
EXPONENTS  0.7610000D+00 0.7610000D+00 0.2680000D+00 0.2680000D+00 0.2680000D+00
EXPONENTS  0.2680000D+00 0.2680000D+00 0.2680000D+00 0.2680000D+00 0.2680000D+00
EXPONENTS  0.2680000D+00 0.2680000D+00 0.1063900D+08 0.1593400D+07 0.3626100D+06
EXPONENTS  0.1027000D+06 0.3350100D+05 0.1209300D+05 0.4715900D+04 0.1955600D+04
EXPONENTS  0.8526100D+03 0.3876700D+03 0.1826800D+03 0.8824500D+02 0.3926300D+02
EXPONENTS  0.9405700D+01 0.1899500D+01 0.3350100D+05 0.1209300D+05 0.4715900D+04
EXPONENTS  0.1955600D+04 0.8526100D+03 0.3876700D+03 0.1826800D+03 0.8824500D+02
EXPONENTS  0.3926300D+02 0.1923400D+02 0.9405700D+01 0.1899500D+01 0.4715900D+04
EXPONENTS  0.8526100D+03 0.3876700D+03 0.1826800D+03 0.8824500D+02 0.3926300D+02
EXPONENTS  0.1923400D+02 0.9405700D+01 0.4160100D+01 0.1899500D+01 0.4715900D+04
EXPONENTS  0.8526100D+03 0.3876700D+03 0.8824500D+02 0.3926300D+02 0.1923400D+02
EXPONENTS  0.9405700D+01 0.4160100D+01 0.1899500D+01 0.3011400D+00 0.6047200D+00
EXPONENTS  0.1251500D+00 0.4559300D-01 0.8676500D+04 0.2055900D+04 0.6662300D+03
EXPONENTS  0.2531000D+03 0.1061200D+03 0.4724200D+02 0.2182500D+02 0.9968400D+01
EXPONENTS  0.1998200D+01 0.8676500D+04 0.2055900D+04 0.6662300D+03 0.2531000D+03
EXPONENTS  0.1061200D+03 0.4724200D+02 0.2182500D+02 0.9968400D+01 0.1998200D+01
EXPONENTS  0.8676500D+04 0.2055900D+04 0.6662300D+03 0.2531000D+03 0.1061200D+03
EXPONENTS  0.4724200D+02 0.2182500D+02 0.9968400D+01 0.1998200D+01 0.8676500D+04
EXPONENTS  0.6662300D+03 0.2531000D+03 0.1061200D+03 0.4724200D+02 0.2182500D+02
EXPONENTS  0.9968400D+01 0.4517100D+01 0.1998200D+01 0.8676500D+04 0.6662300D+03
EXPONENTS  0.2531000D+03 0.1061200D+03 0.4724200D+02 0.2182500D+02 0.9968400D+01
EXPONENTS  0.4517100D+01 0.1998200D+01 0.8676500D+04 0.6662300D+03 0.2531000D+03
EXPONENTS  0.1061200D+03 0.4724200D+02 0.2182500D+02 0.9968400D+01 0.4517100D+01
EXPONENTS  0.1998200D+01 0.6662300D+03 0.1061200D+03 0.4724200D+02 0.2182500D+02
EXPONENTS  0.9968400D+01 0.4517100D+01 0.1998200D+01 0.2814500D+00 0.6662300D+03
EXPONENTS  0.1061200D+03 0.4724200D+02 0.2182500D+02 0.9968400D+01 0.4517100D+01
EXPONENTS  0.1998200D+01 0.2814500D+00 0.6662300D+03 0.1061200D+03 0.4724200D+02
EXPONENTS  0.2182500D+02 0.9968400D+01 0.4517100D+01 0.1998200D+01 0.2814500D+00
EXPONENTS  0.7098800D+00 0.7098800D+00 0.7098800D+00 0.1020400D+00 0.1020400D+00
EXPONENTS  0.1020400D+00 0.3514200D-01 0.3514200D-01 0.3514200D-01 0.4038300D+03
EXPONENTS  0.1211700D+03 0.4634500D+02 0.1972100D+02 0.8862400D+01 0.3996200D+01
EXPONENTS  0.1763600D+01 0.4038300D+03 0.1211700D+03 0.4634500D+02 0.1972100D+02
EXPONENTS  0.8862400D+01 0.3996200D+01 0.1763600D+01 0.4038300D+03 0.1211700D+03
EXPONENTS  0.4634500D+02 0.1972100D+02 0.8862400D+01 0.3996200D+01 0.1763600D+01
EXPONENTS  0.4038300D+03 0.1211700D+03 0.4634500D+02 0.1972100D+02 0.8862400D+01
EXPONENTS  0.3996200D+01 0.1763600D+01 0.4038300D+03 0.1211700D+03 0.4634500D+02
EXPONENTS  0.1972100D+02 0.8862400D+01 0.3996200D+01 0.1763600D+01 0.4038300D+03
EXPONENTS  0.1211700D+03 0.4634500D+02 0.1972100D+02 0.8862400D+01 0.3996200D+01
EXPONENTS  0.1763600D+01 0.7061900D+00 0.7061900D+00 0.7061900D+00 0.7061900D+00
EXPONENTS  0.7061900D+00 0.7061900D+00 0.2639000D+00 0.2639000D+00 0.2639000D+00
EXPONENTS  0.2639000D+00 0.2639000D+00 0.2639000D+00 0.1047000D+00 0.1047000D+00
EXPONENTS  0.1047000D+00 0.1047000D+00 0.1047000D+00 0.1047000D+00 0.5515000D+00
EXPONENTS  0.5515000D+00 0.5515000D+00 0.5515000D+00 0.5515000D+00 0.5515000D+00
EXPONENTS  0.5515000D+00 0.5515000D+00 0.5515000D+00 0.5515000D+00 0.2580000D+00
EXPONENTS  0.2580000D+00 0.2580000D+00 0.2580000D+00 0.2580000D+00 0.2580000D+00
EXPONENTS  0.2580000D+00 0.2580000D+00 0.2580000D+00 0.2580000D+00 0.1063900D+08
EXPONENTS  0.1593400D+07 0.3626100D+06 0.1027000D+06 0.3350100D+05 0.1209300D+05
EXPONENTS  0.4715900D+04 0.1955600D+04 0.8526100D+03 0.3876700D+03 0.1826800D+03
EXPONENTS  0.8824500D+02 0.3926300D+02 0.9405700D+01 0.1899500D+01 0.3350100D+05
EXPONENTS  0.1209300D+05 0.4715900D+04 0.1955600D+04 0.8526100D+03 0.3876700D+03
EXPONENTS  0.1826800D+03 0.8824500D+02 0.3926300D+02 0.1923400D+02 0.9405700D+01
EXPONENTS  0.1899500D+01 0.4715900D+04 0.8526100D+03 0.3876700D+03 0.1826800D+03
EXPONENTS  0.8824500D+02 0.3926300D+02 0.1923400D+02 0.9405700D+01 0.4160100D+01
EXPONENTS  0.1899500D+01 0.4715900D+04 0.8526100D+03 0.3876700D+03 0.8824500D+02
EXPONENTS  0.3926300D+02 0.1923400D+02 0.9405700D+01 0.4160100D+01 0.1899500D+01
EXPONENTS  0.3011400D+00 0.6047200D+00 0.1251500D+00 0.4559300D-01 0.8676500D+04
EXPONENTS  0.2055900D+04 0.6662300D+03 0.2531000D+03 0.1061200D+03 0.4724200D+02
EXPONENTS  0.2182500D+02 0.9968400D+01 0.1998200D+01 0.8676500D+04 0.2055900D+04
EXPONENTS  0.6662300D+03 0.2531000D+03 0.1061200D+03 0.4724200D+02 0.2182500D+02
EXPONENTS  0.9968400D+01 0.1998200D+01 0.8676500D+04 0.2055900D+04 0.6662300D+03
EXPONENTS  0.2531000D+03 0.1061200D+03 0.4724200D+02 0.2182500D+02 0.9968400D+01
EXPONENTS  0.1998200D+01 0.8676500D+04 0.6662300D+03 0.2531000D+03 0.1061200D+03
EXPONENTS  0.4724200D+02 0.2182500D+02 0.9968400D+01 0.4517100D+01 0.1998200D+01
EXPONENTS  0.8676500D+04 0.6662300D+03 0.2531000D+03 0.1061200D+03 0.4724200D+02
EXPONENTS  0.2182500D+02 0.9968400D+01 0.4517100D+01 0.1998200D+01 0.8676500D+04
EXPONENTS  0.6662300D+03 0.2531000D+03 0.1061200D+03 0.4724200D+02 0.2182500D+02
EXPONENTS  0.9968400D+01 0.4517100D+01 0.1998200D+01 0.6662300D+03 0.1061200D+03
EXPONENTS  0.4724200D+02 0.2182500D+02 0.9968400D+01 0.4517100D+01 0.1998200D+01
EXPONENTS  0.2814500D+00 0.6662300D+03 0.1061200D+03 0.4724200D+02 0.2182500D+02
EXPONENTS  0.9968400D+01 0.4517100D+01 0.1998200D+01 0.2814500D+00 0.6662300D+03
EXPONENTS  0.1061200D+03 0.4724200D+02 0.2182500D+02 0.9968400D+01 0.4517100D+01
EXPONENTS  0.1998200D+01 0.2814500D+00 0.7098800D+00 0.7098800D+00 0.7098800D+00
EXPONENTS  0.1020400D+00 0.1020400D+00 0.1020400D+00 0.3514200D-01 0.3514200D-01
EXPONENTS  0.3514200D-01 0.4038300D+03 0.1211700D+03 0.4634500D+02 0.1972100D+02
EXPONENTS  0.8862400D+01 0.3996200D+01 0.1763600D+01 0.4038300D+03 0.1211700D+03
EXPONENTS  0.4634500D+02 0.1972100D+02 0.8862400D+01 0.3996200D+01 0.1763600D+01
EXPONENTS  0.4038300D+03 0.1211700D+03 0.4634500D+02 0.1972100D+02 0.8862400D+01
EXPONENTS  0.3996200D+01 0.1763600D+01 0.4038300D+03 0.1211700D+03 0.4634500D+02
EXPONENTS  0.1972100D+02 0.8862400D+01 0.3996200D+01 0.1763600D+01 0.4038300D+03
EXPONENTS  0.1211700D+03 0.4634500D+02 0.1972100D+02 0.8862400D+01 0.3996200D+01
EXPONENTS  0.1763600D+01 0.4038300D+03 0.1211700D+03 0.4634500D+02 0.1972100D+02
EXPONENTS  0.8862400D+01 0.3996200D+01 0.1763600D+01 0.7061900D+00 0.7061900D+00
EXPONENTS  0.7061900D+00 0.7061900D+00 0.7061900D+00 0.7061900D+00 0.2639000D+00
EXPONENTS  0.2639000D+00 0.2639000D+00 0.2639000D+00 0.2639000D+00 0.2639000D+00
EXPONENTS  0.1047000D+00 0.1047000D+00 0.1047000D+00 0.1047000D+00 0.1047000D+00
EXPONENTS  0.1047000D+00 0.5515000D+00 0.5515000D+00 0.5515000D+00 0.5515000D+00
EXPONENTS  0.5515000D+00 0.5515000D+00 0.5515000D+00 0.5515000D+00 0.5515000D+00
EXPONENTS  0.5515000D+00 0.2580000D+00 0.2580000D+00 0.2580000D+00 0.2580000D+00
EXPONENTS  0.2580000D+00 0.2580000D+00 0.2580000D+00 0.2580000D+00 0.2580000D+00
EXPONENTS  0.2580000D+00 0.1533000D+05 0.2299000D+04 0.5224000D+03 0.1473000D+03
EXPONENTS  0.4755000D+02 0.1676000D+02 0.6207000D+01 0.5224000D+03 0.1473000D+03
EXPONENTS  0.4755000D+02 0.1676000D+02 0.6207000D+01 0.6882000D+00 0.1752000D+01
EXPONENTS  0.2384000D+00 0.7376000D-01 0.3446000D+02 0.7749000D+01 0.2280000D+01
EXPONENTS  0.3446000D+02 0.7749000D+01 0.2280000D+01 0.3446000D+02 0.7749000D+01
EXPONENTS  0.2280000D+01 0.7156000D+00 0.7156000D+00 0.7156000D+00 0.2140000D+00
EXPONENTS  0.2140000D+00 0.2140000D+00 0.5974000D-01 0.5974000D-01 0.5974000D-01
EXPONENTS  0.2314000D+01 0.2314000D+01 0.2314000D+01 0.2314000D+01 0.2314000D+01
EXPONENTS  0.2314000D+01 0.6450000D+00 0.6450000D+00 0.6450000D+00 0.6450000D+00
EXPONENTS  0.6450000D+00 0.6450000D+00 0.2140000D+00 0.2140000D+00 0.2140000D+00
EXPONENTS  0.2140000D+00 0.2140000D+00 0.2140000D+00 0.1428000D+01 0.1428000D+01
EXPONENTS  0.1428000D+01 0.1428000D+01 0.1428000D+01 0.1428000D+01 0.1428000D+01
EXPONENTS  0.1428000D+01 0.1428000D+01 0.1428000D+01 0.5000000D+00 0.5000000D+00
EXPONENTS  0.5000000D+00 0.5000000D+00 0.5000000D+00 0.5000000D+00 0.5000000D+00
EXPONENTS  0.5000000D+00 0.5000000D+00 0.5000000D+00
MO    1     MO 0.0        OCC NO =    2.0000168  ORB. ENERGY =    0.000000
  0.11922771D+00  0.22226448D+00  0.37565724D+00  0.56468290D+00  0.69361181D+00
  0.58538390D+00  0.22011963D+00  0.28721126D-04  0.21467262D-03  0.80228061D-03
  0.22382380D-02  0.29986218D-02 -0.35408132D-02  0.91270022D-02 -0.19640534D-02
 -0.30427926D-03  0.65654754D-13  0.61555506D-13  0.43831187D-13  0.12232197D-02
  0.11468462D-02  0.81662282D-03  0.36430876D-02  0.34156262D-02  0.24321293D-02
  0.22889150D-13  0.41345025D-03  0.19600539D-02  0.15486650D-13  0.87853046D-04
  0.37804589D-03  0.61695528D-15 -0.33595481D-05  0.48062981D-05 -0.90748032D-04
 -0.48839300D-03  0.57914103D-03 -0.29375226D-13 -0.12421537D-13 -0.29664865D-03
  0.32874295D-03 -0.31431806D-03 -0.14424892D-04 -0.37812407D-13 -0.17483309D-13
 -0.13054900D-03  0.30277816D-04 -0.17850343D-04 -0.12427474D-04 -0.16067682D-15
 -0.22618610D-14 -0.26603703D-04  0.49390822D-14 -0.11740828D-04  0.12131934D-03
 -0.36269761D-14  0.30210742D-04 -0.15973277D-03 -0.11190270D-13  0.50117425D-05
 -0.20422523D-03 -0.11797390D-13 -0.24771547D-14  0.93912150D-05 -0.13518983D-04
  0.55961240D-14 -0.49169989D-06  0.30180324D-05  0.18353400D-14 -0.27681945D-04
  0.37538918D-04  0.12379577D-13 -0.40011643D-01 -0.75267928D-01 -0.13029263D+00
 -0.21357463D+00 -0.33456792D+00 -0.50288280D+00 -0.71873775D+00 -0.95412280D+00
 -0.11111449D+01 -0.10204581D+01 -0.59652475D+00 -0.15652461D+00 -0.88992937D-02
 -0.15528311D-03 -0.15631011D-04 -0.18982096D-02 -0.54834900D-02 -0.25132123D-01
 -0.74396558D-01 -0.21575219D+00 -0.44846084D+00 -0.64152856D+00 -0.18394673D+00
  0.73507576D+00  0.71074714D+00  0.15513143D+00 -0.22454805D-02 -0.11595232D-02
 -0.54094154D-02 -0.10978007D-01 -0.43024719D-01 -0.30191464D-01  0.19661824D+00
  0.60925243D+00  0.74525217D-01 -0.53257909D+00 -0.24993935D+00 -0.12808222D-05
 -0.17559056D-05  0.33664957D-05  0.71549103D-05 -0.27047563D-04 -0.87464947D-04
 -0.30418978D-04  0.29753074D-03  0.66364778D-03 -0.44037647D-03 -0.10404482D-01
  0.62409538D-03  0.14630817D-03 -0.15148763D-08 -0.21736214D-08 -0.28780756D-08
 -0.33236764D-08 -0.30816748D-08 -0.19956512D-08 -0.70418391D-09 -0.81138788D-10
  0.13255585D-12  0.12175644D+02  0.17470232D+02  0.23132201D+02  0.26713666D+02
  0.24768607D+02  0.16039817D+02  0.56597971D+01  0.65214367D+00 -0.10654024D-02
  0.75770839D+01  0.10871984D+02  0.14395512D+02  0.16624311D+02  0.15413871D+02
  0.99818160D+01  0.35221757D+01  0.40583867D+00 -0.66301571D-03  0.16263057D-10
 -0.46368874D-10 -0.22633244D-09 -0.46900385D-09 -0.58855353D-09 -0.93334005D-10
  0.75550723D-09  0.65891185D-09  0.16938310D-09 -0.72624372D-01  0.20706502D+00
  0.10107110D+01  0.20943854D+01  0.26282470D+01  0.41679270D+00 -0.33737961D+01
 -0.29424393D+01 -0.75639781D+00 -0.45262284D-01  0.12905084D+00  0.62991372D+00
  0.13053010D+01  0.16380239D+01  0.25976114D+00 -0.21026786D+01 -0.18338406D+01
 -0.47141602D+00 -0.20576126D-13 -0.29068694D-13  0.13525511D-13 -0.27105252D-13
 -0.29755500D-13 -0.80319421D-13 -0.25310772D-13  0.54342765D-13 -0.26771146D-03
 -0.37820639D-03  0.17597746D-03 -0.35266049D-03 -0.38714228D-03 -0.10450184D-02
 -0.32931290D-03  0.70704178D-03 -0.16109496D-03 -0.22758512D-03  0.10589417D-03
 -0.21221291D-03 -0.23296228D-03 -0.62883820D-03 -0.19816353D-03  0.42546131D-03
  0.56100837D-11 -0.26799237D-01 -0.16835259D-01  0.48519557D-13  0.10509659D-03
  0.55440171D-04 -0.13303422D-14  0.89585535D-05  0.65557160D-05  0.12787948D+01
  0.13381210D+01  0.11401507D+01  0.75087542D+00  0.34605612D+00  0.10362707D+00
  0.17631267D-01 -0.15367178D+01 -0.16080096D+01 -0.13701103D+01 -0.90232120D+00
 -0.41585298D+00 -0.12452785D+00 -0.21187357D-01  0.25792305D+00  0.26988868D+00
  0.22995960D+00  0.15144578D+00  0.69796852D-01  0.20900780D-01  0.35560906D-02
 -0.13874608D-11 -0.14518283D-11 -0.12370354D-11 -0.81468132D-12 -0.37546237D-12
 -0.11243281D-12 -0.19129490D-13  0.91288724D-10  0.95523813D-10  0.81391401D-10
  0.53602391D-10  0.24703746D-10  0.73975768D-11  0.12586350D-11 -0.46775700D+01
 -0.48945730D+01 -0.41704381D+01 -0.27465488D+01 -0.12658026D+01 -0.37904663D+00
 -0.64491570D-01  0.13948689D-02 -0.16541656D-02  0.25929667D-03  0.38044035D-13
  0.94118486D-13 -0.46975597D-02 -0.12796468D-03  0.11415316D-03  0.13811517D-04
 -0.14042809D-13 -0.79385438D-14  0.33542977D-03 -0.12729937D-04  0.14480145D-04
 -0.17502078D-05 -0.71775995D-15 -0.58707813D-15  0.32467870D-04 -0.11405561D-13
 -0.46717243D-04  0.11534544D-03  0.32371783D-13  0.25849041D-03  0.17702688D-03
  0.18448999D-14 -0.11833868D-03 -0.52306319D-03  0.66965412D-13  0.24098056D-14
  0.85253856D-05 -0.24746896D-04 -0.65416749D-14 -0.76339707D-04 -0.60845206D-04
 -0.68774188D-15  0.50763550D-04  0.13508589D-03 -0.13483907D-13 -0.27908877D-01
 -0.52500800D-01 -0.90881567D-01 -0.14897234D+00 -0.23336744D+00 -0.35077025D+00
 -0.50133315D+00 -0.66551866D+00 -0.77504456D+00 -0.71178877D+00 -0.41608727D+00
 -0.10917887D+00 -0.62074254D-02 -0.10831290D-03 -0.10902925D-04 -0.13242759D-02
 -0.38255279D-02 -0.17533293D-01 -0.51902366D-01 -0.15051837D+00 -0.31286634D+00
 -0.44755901D+00 -0.12832946D+00  0.51282172D+00  0.49584899D+00  0.10822662D+00
 -0.15665476D-02 -0.81087283D-03 -0.37828894D-02 -0.76770934D-02 -0.30087864D-01
 -0.21113367D-01  0.13749824D+00  0.42605983D+00  0.52116658D-01 -0.37244095D+00
 -0.17478652D+00 -0.89017639D-06 -0.12203612D-05  0.23397276D-05  0.49726905D-05
 -0.18798161D-04 -0.60788479D-04 -0.21141308D-04  0.20678502D-03  0.46123779D-03
 -0.30606336D-03 -0.72482928D-02  0.44594377D-03  0.15710062D-03 -0.20107249D-08
 -0.28850901D-08 -0.38201259D-08 -0.44115805D-08 -0.40903671D-08 -0.26488668D-08
 -0.93467704D-09 -0.10769710D-09  0.17594397D-12 -0.75089734D+01 -0.10774256D+02
 -0.14266111D+02 -0.16474875D+02 -0.15275316D+02 -0.98920895D+01 -0.34905148D+01
 -0.40219059D+00  0.65705586D-03  0.47203159D+01  0.67729487D+01  0.89680099D+01
  0.10356491D+02  0.96024198D+01  0.62183982D+01  0.21942190D+01  0.25282639D+00
 -0.41304064D-03 -0.66555094D-11  0.18976043D-10  0.92624506D-10  0.19193559D-09
  0.24086022D-09  0.38196099D-10 -0.30918451D-09 -0.26965372D-09 -0.69318502D-10
  0.44689861D-01 -0.12741875D+00 -0.62194733D+00 -0.12887931D+01 -0.16173082D+01
 -0.25647599D+00  0.20760865D+01  0.18106484D+01  0.46545411D+00 -0.28176562D-01
  0.80336398D-01  0.39213229D+00  0.81257267D+00  0.10196985D+01  0.16170584D+00
 -0.13089542D+01 -0.11415978D+01 -0.29346470D+00  0.17844211D-13  0.25209211D-13
 -0.11729714D-13  0.23506458D-13  0.25804829D-13  0.69655323D-13  0.21950233D-13
 -0.47127616D-13  0.23676966D-03  0.33449370D-03 -0.15563817D-03  0.31190037D-03
  0.34239679D-03  0.92423625D-03  0.29125126D-03 -0.62532265D-03 -0.11930576D-03
 -0.16854788D-03  0.78424449D-04 -0.15716334D-03 -0.17253017D-03 -0.46571299D-03
 -0.14675847D-03  0.31509355D-03 -0.23036898D-11  0.16476128D-01 -0.10492074D-01
 -0.31275822D-13 -0.14259821D-03  0.62379893D-04  0.41369396D-15 -0.82725127D-05
  0.65779943D-05  0.76696750D+00  0.80254885D+00  0.68381457D+00  0.45034359D+00
  0.20754995D+00  0.62151169D-01  0.10574495D-01 -0.93068149D+00 -0.97385790D+00
 -0.82977906D+00 -0.54647224D+00 -0.25185279D+00 -0.75417724D-01 -0.12831686D-01
  0.16371399D+00  0.17130906D+00  0.14596448D+00  0.96128648D-01  0.44302832D-01
  0.13266555D-01  0.22571918D-02 -0.63135457D-10 -0.66064453D-10 -0.56290450D-10
 -0.37071517D-10 -0.17085158D-10 -0.51161783D-11 -0.87047437D-12 -0.28783510D-09
 -0.30118842D-09 -0.25662865D-09 -0.16900937D-09 -0.77891387D-10 -0.23324702D-10
 -0.39685003D-11  0.28331516D+01  0.29645879D+01  0.25259875D+01  0.16635538D+01
  0.76668240D+00  0.22958429D+00  0.39061820D-01  0.87418917D-03 -0.10661764D-02
  0.19198719D-03 -0.42355412D-13 -0.23441421D-12  0.29151456D-02 -0.99375902D-04
  0.10026284D-03 -0.88693392D-06 -0.37651361D-14 -0.27386601D-15 -0.26129030D-03
 -0.14039543D-04  0.15459092D-04 -0.14195491D-05  0.24680716D-14 -0.13009189D-14
 -0.24397056D-04  0.36802201D-14  0.30969222D-04  0.67309488D-04 -0.78949791D-14
 -0.15754695D-03  0.11360815D-03 -0.31456813D-14  0.64639282D-04 -0.31553661D-03
  0.22343175D-13 -0.64416728D-17 -0.99399630D-05 -0.16179445D-04  0.92132457D-17
  0.58693910D-04 -0.46992772D-04  0.10111773D-16 -0.28874021D-04  0.95531106D-04
 -0.97787584D-15 -0.33871179D-01 -0.63130309D-01 -0.10704631D+00 -0.16200321D+00
 -0.20208623D+00 -0.17342005D+00 -0.66410667D-01 -0.32435074D-05 -0.34800706D-04
 -0.12828195D-03 -0.37508891D-03 -0.45200038D-03  0.54448235D-03 -0.30106718D-02
  0.28669921D-03  0.68172769D-04 -0.13100254D-12 -0.12702840D-12 -0.85692605D-13
 -0.60161803D-03 -0.58336712D-03 -0.39353601D-03  0.26352200D-02  0.25552769D-02
  0.17237747D-02 -0.23879343D-13 -0.13345232D-03  0.59552837D-03 -0.81674336D-14
  0.16520925D-04  0.75832637D-04 -0.63999395D-15  0.60779686D-05  0.72724958D-05
  0.27587977D-03 -0.50845626D-04 -0.22503415D-03 -0.13170888D-13  0.11253620D-13
 -0.74837225D-04  0.31453569D-04  0.15168015D-03 -0.18313372D-03  0.46006464D-15
 -0.10699664D-13 -0.44898615D-04  0.27205046D-05  0.44761591D-04 -0.47482095D-04
 -0.10384182D-14  0.17288116D-14 -0.14251815D-04 -0.66606621D-14 -0.11271247D-04
 -0.28241624D-03  0.95559904D-14  0.24553236D-04  0.41980562D-03  0.10425996D-13
  0.92605055D-05  0.42744309D-03 -0.99958178D-14  0.75982788D-15  0.33307757D-06
  0.77701570D-04 -0.38301112D-14 -0.10845736D-04 -0.39319052D-04  0.15506276D-14
  0.98465031D-05 -0.19378566D-03 -0.33955314D-14
MO    2     MO 0.0        OCC NO =    2.0000159  ORB. ENERGY =    0.000000
  0.25214709D-01  0.47005298D-01  0.79445358D-01  0.11942119D+00  0.14668754D+00
  0.12379911D+00  0.46551699D-01  0.58321369D-05  0.43591610D-04  0.16291180D-03
  0.45449855D-03  0.60890276D-03 -0.71900062D-03  0.19481225D-02 -0.40040433D-03
 -0.63519525D-04 -0.20108682D-12 -0.18853167D-12 -0.13424578D-12 -0.57683390D-02
 -0.54081844D-02 -0.38509495D-02  0.69740442D-03  0.65386098D-03  0.46558797D-03
 -0.72441232D-13 -0.19432633D-02  0.38991917D-03 -0.21252319D-13 -0.43754515D-03
  0.77336381D-04 -0.37326631D-15  0.15885950D-04  0.10243699D-05 -0.21251589D-04
 -0.10223393D-03  0.12348552D-03 -0.78537040D-14  0.48314214D-13  0.14314532D-02
  0.69448446D-04 -0.65397376D-04 -0.40510698D-05 -0.49194121D-14  0.36783846D-13
  0.61478964D-03  0.63007983D-05 -0.37904429D-05 -0.25103554D-05  0.68961182D-15
  0.50703612D-14  0.12952124D-03 -0.40144011D-14  0.53924394D-04  0.24846030D-04
  0.25334393D-14 -0.14312987D-03 -0.35235998D-04  0.95097642D-14 -0.18643316D-04
 -0.39302093D-04 -0.28116827D-17  0.37507239D-14 -0.45375057D-04 -0.28588580D-05
 -0.81236791D-14  0.79988934D-05  0.19098680D-07 -0.31284927D-14  0.12812628D-03
  0.85574752D-05 -0.11694177D-14  0.23060829D-01  0.43380892D-01  0.75094539D-01
  0.12309437D+00  0.19282921D+00  0.28983799D+00  0.41424662D+00  0.54991149D+00
  0.64041165D+00  0.58814401D+00  0.34380879D+00  0.90213422D-01  0.51291342D-02
  0.89497876D-04  0.90089793D-05  0.10937567D-02  0.31596111D-02  0.14481240D-01
  0.42867624D-01  0.12431736D+00  0.25840511D+00  0.36965158D+00  0.10599091D+00
 -0.42355389D+00 -0.40953563D+00 -0.89387412D-01  0.12938557D-02  0.66398783D-03
  0.30976405D-02  0.62864316D-02  0.24637619D-01  0.17288800D-01 -0.11259121D+00
 -0.34888151D+00 -0.42676022D-01  0.30497539D+00  0.14312494D+00  0.74268095D-06
  0.10181566D-05 -0.19520526D-05 -0.41487535D-05  0.15683449D-04  0.50716291D-04
  0.17638355D-04 -0.17252232D-03 -0.38481420D-03  0.25535100D-03  0.59836224D-02
 -0.28978121D-03  0.60285591D-04 -0.37166320D-08 -0.53328121D-08 -0.70611360D-08
 -0.81543831D-08 -0.75606509D-08 -0.48961760D-08 -0.17276608D-08 -0.19906774D-09
  0.32521553D-12 -0.92769204D+01 -0.13310996D+02 -0.17624989D+02 -0.20353794D+02
 -0.18871806D+02 -0.12221128D+02 -0.43123376D+01 -0.49688418D+00  0.81175609D-03
 -0.55262846D+01 -0.79293936D+01 -0.10499250D+02 -0.12124806D+02 -0.11241982D+02
 -0.72801566D+01 -0.25688703D+01 -0.29599514D+00  0.48356513D-03 -0.11429712D-10
  0.32588145D-10  0.15906692D-09  0.32961692D-09  0.41363669D-09  0.65595340D-10
 -0.53097211D-09 -0.46308467D-09 -0.11904281D-09  0.55623936D-01 -0.15859375D+00
 -0.77411650D+00 -0.16041166D+01 -0.20130080D+01 -0.31922686D+00  0.25840336D+01
  0.22536519D+01  0.57933476D+00  0.33061869D-01 -0.94265278D-01 -0.46012094D+00
 -0.95345809D+00 -0.11964958D+01 -0.18974271D+00  0.15359031D+01  0.13395302D+01
  0.34434618D+00  0.13542442D-13  0.19131934D-13 -0.89019891D-14  0.17839670D-13
  0.19583965D-13  0.52863260D-13  0.16658610D-13 -0.35766389D-13  0.21737773D-04
  0.30709797D-04 -0.14289108D-04  0.28635508D-04  0.31435378D-04  0.84853939D-04
  0.26739718D-04 -0.57410743D-04  0.72555644D-04  0.10250218D-03 -0.47693729D-04
  0.95578683D-04  0.10492400D-03  0.28322276D-03  0.89250976D-04 -0.19162374D-03
 -0.38495676D-11  0.20524091D-01  0.12243076D-01 -0.25033228D-13  0.12286883D-03
  0.29556789D-04  0.65095117D-15  0.16483636D-06  0.15051061D-05 -0.96069123D+00
 -0.10052599D+01 -0.85653520D+00 -0.56409319D+00 -0.25997376D+00 -0.77849562D-01
 -0.13245443D-01  0.11571856D+01  0.12108700D+01  0.10317261D+01  0.67946963D+00
  0.31314732D+00  0.93772472D-01  0.15954591D-01 -0.19649437D+00 -0.20561019D+00
 -0.17519089D+00 -0.11537644D+00 -0.53173567D-01 -0.15922911D-01 -0.27091483D-02
 -0.13454257D-09 -0.14078430D-09 -0.11995576D-09 -0.78999938D-10 -0.36408719D-10
 -0.10902650D-10 -0.18549935D-11  0.73497918D-10  0.76907652D-10  0.65529436D-10
  0.43156088D-10  0.19889356D-10  0.59558998D-11  0.10133459D-11  0.34770085D+01
  0.36383148D+01  0.31000389D+01  0.20416100D+01  0.94091726D+00  0.28175920D+00
  0.47938939D-01 -0.96357179D-03  0.10912601D-02 -0.12768828D-03 -0.14354752D-12
  0.45946155D-13  0.33302703D-02  0.43992477D-04 -0.11594477D-04 -0.32398000D-04
  0.72473852D-14  0.44293621D-14 -0.11059132D-03 -0.64728782D-05  0.60304279D-05
  0.44245024D-06  0.20823665D-14  0.13679747D-14 -0.13030904D-04  0.86163293D-14
  0.31062294D-04 -0.93867556D-04 -0.25852174D-13 -0.19288811D-03 -0.11511555D-03
  0.31858596D-17  0.99701234D-04  0.39671822D-03 -0.46930984D-13 -0.19004226D-14
  0.49250737D-05  0.16102524D-04  0.54073087D-14  0.27371580D-04  0.20550170D-04
  0.29395908D-15 -0.42146801D-04 -0.68857744D-04  0.92987656D-14 -0.37815770D-01
 -0.71137160D-01 -0.12314206D+00 -0.20185348D+00 -0.31620655D+00 -0.47528417D+00
 -0.67929281D+00 -0.90175973D+00 -0.10501644D+01 -0.96445446D+00 -0.56378696D+00
 -0.14793441D+00 -0.84108929D-02 -0.14676104D-03 -0.14773168D-04 -0.17941044D-02
 -0.51827542D-02 -0.23753780D-01 -0.70316362D-01 -0.20391950D+00 -0.42386551D+00
 -0.60634465D+00 -0.17385838D+00  0.69476136D+00  0.67176702D+00  0.14662342D+00
 -0.21223296D-02 -0.10929803D-02 -0.50989790D-02 -0.10348000D-01 -0.40555610D-01
 -0.28458832D-01  0.18533469D+00  0.57428856D+00  0.70248352D-01 -0.50201536D+00
 -0.23559579D+00 -0.11980627D-05 -0.16424488D-05  0.31489717D-05  0.66926003D-05
 -0.25299902D-04 -0.81813455D-04 -0.28453475D-04  0.27830598D-03  0.62076660D-03
 -0.41192183D-03 -0.97975698D-02  0.49178573D-03  0.26325040D-05  0.37247364D-08
  0.53444408D-08  0.70765335D-08  0.81721645D-08  0.75771376D-08  0.49068527D-08
  0.17314281D-08  0.19950183D-09 -0.32592470D-12 -0.13259807D+02 -0.19025843D+02
 -0.25191975D+02 -0.29092346D+02 -0.26974091D+02 -0.17468059D+02 -0.61637655D+01
 -0.71021285D+00  0.11602696D-02  0.79741620D+01  0.11441732D+02  0.15149911D+02
  0.17495510D+02  0.16221637D+02  0.10504914D+02  0.37067558D+01  0.42710670D+00
 -0.69776114D-03 -0.14961048D-10  0.42656614D-10  0.20821242D-09  0.43145572D-09