 br2co-wavefunction
GAUSSIAN            210 MOL ORBITALS    578 PRIMITIVES        4 NUCLEI
  C    1    (CENTRE  1)   0.00000000  0.00000000 -0.92928983  CHARGE =  6.0
  Br   2    (CENTRE  2)   0.00000000 -3.01256550 -2.92306618  CHARGE = 35.0
  Br   3    (CENTRE  3)   0.00000000  2.99366823 -2.92306618  CHARGE = 35.0
  O    4    (CENTRE  4)   0.00000000  0.00000000  1.29351754  CHARGE =  8.0
CENTRE ASSIGNMENTS    1  1  1  1  1  1  1  1  1  1  1  1  1  1  1  1  1  1  1  1
CENTRE ASSIGNMENTS    1  1  1  1  1  1  1  1  1  1  1  1  1  1  1  1  1  1  1  1
CENTRE ASSIGNMENTS    1  1  1  1  1  1  1  1  1  1  1  1  1  1  1  1  1  1  1  1
CENTRE ASSIGNMENTS    1  1  1  1  1  1  1  1  1  1  1  1  2  2  2  2  2  2  2  2
CENTRE ASSIGNMENTS    2  2  2  2  2  2  2  2  2  2  2  2  2  2  2  2  2  2  2  2
CENTRE ASSIGNMENTS    2  2  2  2  2  2  2  2  2  2  2  2  2  2  2  2  2  2  2  2
CENTRE ASSIGNMENTS    2  2  2  2  2  2  2  2  2  2  2  2  2  2  2  2  2  2  2  2
CENTRE ASSIGNMENTS    2  2  2  2  2  2  2  2  2  2  2  2  2  2  2  2  2  2  2  2
CENTRE ASSIGNMENTS    2  2  2  2  2  2  2  2  2  2  2  2  2  2  2  2  2  2  2  2
CENTRE ASSIGNMENTS    2  2  2  2  2  2  2  2  2  2  2  2  2  2  2  2  2  2  2  2
CENTRE ASSIGNMENTS    2  2  2  2  2  2  2  2  2  2  2  2  2  2  2  2  2  2  2  2
CENTRE ASSIGNMENTS    2  2  2  2  2  2  2  2  2  2  2  2  2  2  2  2  2  2  2  2
CENTRE ASSIGNMENTS    2  2  2  2  2  2  2  2  2  2  2  2  2  2  2  2  2  2  2  2
CENTRE ASSIGNMENTS    2  2  2  2  2  2  2  2  2  2  2  2  2  2  2  2  2  2  2  2
CENTRE ASSIGNMENTS    2  2  2  2  2  2  2  2  2  3  3  3  3  3  3  3  3  3  3  3
CENTRE ASSIGNMENTS    3  3  3  3  3  3  3  3  3  3  3  3  3  3  3  3  3  3  3  3
CENTRE ASSIGNMENTS    3  3  3  3  3  3  3  3  3  3  3  3  3  3  3  3  3  3  3  3
CENTRE ASSIGNMENTS    3  3  3  3  3  3  3  3  3  3  3  3  3  3  3  3  3  3  3  3
CENTRE ASSIGNMENTS    3  3  3  3  3  3  3  3  3  3  3  3  3  3  3  3  3  3  3  3
CENTRE ASSIGNMENTS    3  3  3  3  3  3  3  3  3  3  3  3  3  3  3  3  3  3  3  3
CENTRE ASSIGNMENTS    3  3  3  3  3  3  3  3  3  3  3  3  3  3  3  3  3  3  3  3
CENTRE ASSIGNMENTS    3  3  3  3  3  3  3  3  3  3  3  3  3  3  3  3  3  3  3  3
CENTRE ASSIGNMENTS    3  3  3  3  3  3  3  3  3  3  3  3  3  3  3  3  3  3  3  3
CENTRE ASSIGNMENTS    3  3  3  3  3  3  3  3  3  3  3  3  3  3  3  3  3  3  3  3
CENTRE ASSIGNMENTS    3  3  3  3  3  3  3  3  3  3  3  3  3  3  3  3  3  3  3  3
CENTRE ASSIGNMENTS    3  3  3  3  3  3  4  4  4  4  4  4  4  4  4  4  4  4  4  4
CENTRE ASSIGNMENTS    4  4  4  4  4  4  4  4  4  4  4  4  4  4  4  4  4  4  4  4
CENTRE ASSIGNMENTS    4  4  4  4  4  4  4  4  4  4  4  4  4  4  4  4  4  4  4  4
CENTRE ASSIGNMENTS    4  4  4  4  4  4  4  4  4  4  4  4  4  4  4  4  4  4
TYPE ASSIGNMENTS      1  1  1  1  1  1  1  1  1  1  1  1  1  1  1  1  2  2  2  3
TYPE ASSIGNMENTS      3  3  4  4  4  2  3  4  2  3  4  2  3  4  5  6  7  8  9 10
TYPE ASSIGNMENTS      5  6  7  8  9 10  5  6  7  8  9 10 11 12 13 17 14 15 18 19
TYPE ASSIGNMENTS     16 20 11 12 13 17 14 15 18 19 16 20  1  1  1  1  1  1  1  1
TYPE ASSIGNMENTS      1  1  1  1  1  1  1  1  1  1  1  1  1  1  1  1  1  1  1  1
TYPE ASSIGNMENTS      1  1  1  1  1  1  1  1  1  1  1  1  1  1  1  1  1  1  1  1
TYPE ASSIGNMENTS      1  1  2  2  2  2  2  2  2  2  2  3  3  3  3  3  3  3  3  3
TYPE ASSIGNMENTS      4  4  4  4  4  4  4  4  4  2  2  2  2  2  2  2  2  2  3  3
TYPE ASSIGNMENTS      3  3  3  3  3  3  3  4  4  4  4  4  4  4  4  4  2  2  2  2
TYPE ASSIGNMENTS      2  2  2  2  3  3  3  3  3  3  3  3  4  4  4  4  4  4  4  4
TYPE ASSIGNMENTS      2  3  4  2  3  4  2  3  4  5  5  5  5  5  5  5  6  6  6  6
TYPE ASSIGNMENTS      6  6  6  7  7  7  7  7  7  7  8  8  8  8  8  8  8  9  9  9
TYPE ASSIGNMENTS      9  9  9  9 10 10 10 10 10 10 10  5  6  7  8  9 10  5  6  7
TYPE ASSIGNMENTS      8  9 10  5  6  7  8  9 10 11 12 13 17 14 15 18 19 16 20 11
TYPE ASSIGNMENTS     12 13 17 14 15 18 19 16 20  1  1  1  1  1  1  1  1  1  1  1
TYPE ASSIGNMENTS      1  1  1  1  1  1  1  1  1  1  1  1  1  1  1  1  1  1  1  1
TYPE ASSIGNMENTS      1  1  1  1  1  1  1  1  1  1  1  1  1  1  1  1  1  1  1  2
TYPE ASSIGNMENTS      2  2  2  2  2  2  2  2  3  3  3  3  3  3  3  3  3  4  4  4
TYPE ASSIGNMENTS      4  4  4  4  4  4  2  2  2  2  2  2  2  2  2  3  3  3  3  3
TYPE ASSIGNMENTS      3  3  3  3  4  4  4  4  4  4  4  4  4  2  2  2  2  2  2  2
TYPE ASSIGNMENTS      2  3  3  3  3  3  3  3  3  4  4  4  4  4  4  4  4  2  3  4
TYPE ASSIGNMENTS      2  3  4  2  3  4  5  5  5  5  5  5  5  6  6  6  6  6  6  6
TYPE ASSIGNMENTS      7  7  7  7  7  7  7  8  8  8  8  8  8  8  9  9  9  9  9  9
TYPE ASSIGNMENTS      9 10 10 10 10 10 10 10  5  6  7  8  9 10  5  6  7  8  9 10
TYPE ASSIGNMENTS      5  6  7  8  9 10 11 12 13 17 14 15 18 19 16 20 11 12 13 17
TYPE ASSIGNMENTS     14 15 18 19 16 20  1  1  1  1  1  1  1  1  1  1  1  1  1  1
TYPE ASSIGNMENTS      1  1  2  2  2  3  3  3  4  4  4  2  3  4  2  3  4  2  3  4
TYPE ASSIGNMENTS      5  6  7  8  9 10  5  6  7  8  9 10  5  6  7  8  9 10 11 12
TYPE ASSIGNMENTS     13 17 14 15 18 19 16 20 11 12 13 17 14 15 18 19 16 20
EXPONENTS  0.8236000D+04 0.1235000D+04 0.2808000D+03 0.7927000D+02 0.2559000D+02
EXPONENTS  0.8997000D+01 0.3319000D+01 0.2808000D+03 0.7927000D+02 0.2559000D+02
EXPONENTS  0.8997000D+01 0.3319000D+01 0.3643000D+00 0.9059000D+00 0.1285000D+00
EXPONENTS  0.4402000D-01 0.1871000D+02 0.4133000D+01 0.1200000D+01 0.1871000D+02
EXPONENTS  0.4133000D+01 0.1200000D+01 0.1871000D+02 0.4133000D+01 0.1200000D+01
EXPONENTS  0.3827000D+00 0.3827000D+00 0.3827000D+00 0.1209000D+00 0.1209000D+00
EXPONENTS  0.1209000D+00 0.3569000D-01 0.3569000D-01 0.3569000D-01 0.1097000D+01
EXPONENTS  0.1097000D+01 0.1097000D+01 0.1097000D+01 0.1097000D+01 0.1097000D+01
EXPONENTS  0.3180000D+00 0.3180000D+00 0.3180000D+00 0.3180000D+00 0.3180000D+00
EXPONENTS  0.3180000D+00 0.1000000D+00 0.1000000D+00 0.1000000D+00 0.1000000D+00
EXPONENTS  0.1000000D+00 0.1000000D+00 0.7610000D+00 0.7610000D+00 0.7610000D+00
EXPONENTS  0.7610000D+00 0.7610000D+00 0.7610000D+00 0.7610000D+00 0.7610000D+00
EXPONENTS  0.7610000D+00 0.7610000D+00 0.2680000D+00 0.2680000D+00 0.2680000D+00
EXPONENTS  0.2680000D+00 0.2680000D+00 0.2680000D+00 0.2680000D+00 0.2680000D+00
EXPONENTS  0.2680000D+00 0.2680000D+00 0.1063900D+08 0.1593400D+07 0.3626100D+06
EXPONENTS  0.1027000D+06 0.3350100D+05 0.1209300D+05 0.4715900D+04 0.1955600D+04
EXPONENTS  0.8526100D+03 0.3876700D+03 0.1826800D+03 0.8824500D+02 0.3926300D+02
EXPONENTS  0.9405700D+01 0.1899500D+01 0.3350100D+05 0.1209300D+05 0.4715900D+04
EXPONENTS  0.1955600D+04 0.8526100D+03 0.3876700D+03 0.1826800D+03 0.8824500D+02
EXPONENTS  0.3926300D+02 0.1923400D+02 0.9405700D+01 0.1899500D+01 0.4715900D+04
EXPONENTS  0.8526100D+03 0.3876700D+03 0.1826800D+03 0.8824500D+02 0.3926300D+02
EXPONENTS  0.1923400D+02 0.9405700D+01 0.4160100D+01 0.1899500D+01 0.4715900D+04
EXPONENTS  0.8526100D+03 0.3876700D+03 0.8824500D+02 0.3926300D+02 0.1923400D+02
EXPONENTS  0.9405700D+01 0.4160100D+01 0.1899500D+01 0.3011400D+00 0.6047200D+00
EXPONENTS  0.1251500D+00 0.4559300D-01 0.8676500D+04 0.2055900D+04 0.6662300D+03
EXPONENTS  0.2531000D+03 0.1061200D+03 0.4724200D+02 0.2182500D+02 0.9968400D+01
EXPONENTS  0.1998200D+01 0.8676500D+04 0.2055900D+04 0.6662300D+03 0.2531000D+03
EXPONENTS  0.1061200D+03 0.4724200D+02 0.2182500D+02 0.9968400D+01 0.1998200D+01
EXPONENTS  0.8676500D+04 0.2055900D+04 0.6662300D+03 0.2531000D+03 0.1061200D+03
EXPONENTS  0.4724200D+02 0.2182500D+02 0.9968400D+01 0.1998200D+01 0.8676500D+04
EXPONENTS  0.6662300D+03 0.2531000D+03 0.1061200D+03 0.4724200D+02 0.2182500D+02
EXPONENTS  0.9968400D+01 0.4517100D+01 0.1998200D+01 0.8676500D+04 0.6662300D+03
EXPONENTS  0.2531000D+03 0.1061200D+03 0.4724200D+02 0.2182500D+02 0.9968400D+01
EXPONENTS  0.4517100D+01 0.1998200D+01 0.8676500D+04 0.6662300D+03 0.2531000D+03
EXPONENTS  0.1061200D+03 0.4724200D+02 0.2182500D+02 0.9968400D+01 0.4517100D+01
EXPONENTS  0.1998200D+01 0.6662300D+03 0.1061200D+03 0.4724200D+02 0.2182500D+02
EXPONENTS  0.9968400D+01 0.4517100D+01 0.1998200D+01 0.2814500D+00 0.6662300D+03
EXPONENTS  0.1061200D+03 0.4724200D+02 0.2182500D+02 0.9968400D+01 0.4517100D+01
EXPONENTS  0.1998200D+01 0.2814500D+00 0.6662300D+03 0.1061200D+03 0.4724200D+02
EXPONENTS  0.2182500D+02 0.9968400D+01 0.4517100D+01 0.1998200D+01 0.2814500D+00
EXPONENTS  0.7098800D+00 0.7098800D+00 0.7098800D+00 0.1020400D+00 0.1020400D+00
EXPONENTS  0.1020400D+00 0.3514200D-01 0.3514200D-01 0.3514200D-01 0.4038300D+03
EXPONENTS  0.1211700D+03 0.4634500D+02 0.1972100D+02 0.8862400D+01 0.3996200D+01
EXPONENTS  0.1763600D+01 0.4038300D+03 0.1211700D+03 0.4634500D+02 0.1972100D+02
EXPONENTS  0.8862400D+01 0.3996200D+01 0.1763600D+01 0.4038300D+03 0.1211700D+03
EXPONENTS  0.4634500D+02 0.1972100D+02 0.8862400D+01 0.3996200D+01 0.1763600D+01
EXPONENTS  0.4038300D+03 0.1211700D+03 0.4634500D+02 0.1972100D+02 0.8862400D+01
EXPONENTS  0.3996200D+01 0.1763600D+01 0.4038300D+03 0.1211700D+03 0.4634500D+02
EXPONENTS  0.1972100D+02 0.8862400D+01 0.3996200D+01 0.1763600D+01 0.4038300D+03
EXPONENTS  0.1211700D+03 0.4634500D+02 0.1972100D+02 0.8862400D+01 0.3996200D+01
EXPONENTS  0.1763600D+01 0.7061900D+00 0.7061900D+00 0.7061900D+00 0.7061900D+00
EXPONENTS  0.7061900D+00 0.7061900D+00 0.2639000D+00 0.2639000D+00 0.2639000D+00
EXPONENTS  0.2639000D+00 0.2639000D+00 0.2639000D+00 0.1047000D+00 0.1047000D+00
EXPONENTS  0.1047000D+00 0.1047000D+00 0.1047000D+00 0.1047000D+00 0.5515000D+00
EXPONENTS  0.5515000D+00 0.5515000D+00 0.5515000D+00 0.5515000D+00 0.5515000D+00
EXPONENTS  0.5515000D+00 0.5515000D+00 0.5515000D+00 0.5515000D+00 0.2580000D+00
EXPONENTS  0.2580000D+00 0.2580000D+00 0.2580000D+00 0.2580000D+00 0.2580000D+00
EXPONENTS  0.2580000D+00 0.2580000D+00 0.2580000D+00 0.2580000D+00 0.1063900D+08
EXPONENTS  0.1593400D+07 0.3626100D+06 0.1027000D+06 0.3350100D+05 0.1209300D+05
EXPONENTS  0.4715900D+04 0.1955600D+04 0.8526100D+03 0.3876700D+03 0.1826800D+03
EXPONENTS  0.8824500D+02 0.3926300D+02 0.9405700D+01 0.1899500D+01 0.3350100D+05
EXPONENTS  0.1209300D+05 0.4715900D+04 0.1955600D+04 0.8526100D+03 0.3876700D+03
EXPONENTS  0.1826800D+03 0.8824500D+02 0.3926300D+02 0.1923400D+02 0.9405700D+01
EXPONENTS  0.1899500D+01 0.4715900D+04 0.8526100D+03 0.3876700D+03 0.1826800D+03
EXPONENTS  0.8824500D+02 0.3926300D+02 0.1923400D+02 0.9405700D+01 0.4160100D+01
EXPONENTS  0.1899500D+01 0.4715900D+04 0.8526100D+03 0.3876700D+03 0.8824500D+02
EXPONENTS  0.3926300D+02 0.1923400D+02 0.9405700D+01 0.4160100D+01 0.1899500D+01
EXPONENTS  0.3011400D+00 0.6047200D+00 0.1251500D+00 0.4559300D-01 0.8676500D+04
EXPONENTS  0.2055900D+04 0.6662300D+03 0.2531000D+03 0.1061200D+03 0.4724200D+02
EXPONENTS  0.2182500D+02 0.9968400D+01 0.1998200D+01 0.8676500D+04 0.2055900D+04
EXPONENTS  0.6662300D+03 0.2531000D+03 0.1061200D+03 0.4724200D+02 0.2182500D+02
EXPONENTS  0.9968400D+01 0.1998200D+01 0.8676500D+04 0.2055900D+04 0.6662300D+03
EXPONENTS  0.2531000D+03 0.1061200D+03 0.4724200D+02 0.2182500D+02 0.9968400D+01
EXPONENTS  0.1998200D+01 0.8676500D+04 0.6662300D+03 0.2531000D+03 0.1061200D+03
EXPONENTS  0.4724200D+02 0.2182500D+02 0.9968400D+01 0.4517100D+01 0.1998200D+01
EXPONENTS  0.8676500D+04 0.6662300D+03 0.2531000D+03 0.1061200D+03 0.4724200D+02
EXPONENTS  0.2182500D+02 0.9968400D+01 0.4517100D+01 0.1998200D+01 0.8676500D+04
EXPONENTS  0.6662300D+03 0.2531000D+03 0.1061200D+03 0.4724200D+02 0.2182500D+02
EXPONENTS  0.9968400D+01 0.4517100D+01 0.1998200D+01 0.6662300D+03 0.1061200D+03
EXPONENTS  0.4724200D+02 0.2182500D+02 0.9968400D+01 0.4517100D+01 0.1998200D+01
EXPONENTS  0.2814500D+00 0.6662300D+03 0.1061200D+03 0.4724200D+02 0.2182500D+02
EXPONENTS  0.9968400D+01 0.4517100D+01 0.1998200D+01 0.2814500D+00 0.6662300D+03
EXPONENTS  0.1061200D+03 0.4724200D+02 0.2182500D+02 0.9968400D+01 0.4517100D+01
EXPONENTS  0.1998200D+01 0.2814500D+00 0.7098800D+00 0.7098800D+00 0.7098800D+00
EXPONENTS  0.1020400D+00 0.1020400D+00 0.1020400D+00 0.3514200D-01 0.3514200D-01
EXPONENTS  0.3514200D-01 0.4038300D+03 0.1211700D+03 0.4634500D+02 0.1972100D+02
EXPONENTS  0.8862400D+01 0.3996200D+01 0.1763600D+01 0.4038300D+03 0.1211700D+03
EXPONENTS  0.4634500D+02 0.1972100D+02 0.8862400D+01 0.3996200D+01 0.1763600D+01
EXPONENTS  0.4038300D+03 0.1211700D+03 0.4634500D+02 0.1972100D+02 0.8862400D+01
EXPONENTS  0.3996200D+01 0.1763600D+01 0.4038300D+03 0.1211700D+03 0.4634500D+02
EXPONENTS  0.1972100D+02 0.8862400D+01 0.3996200D+01 0.1763600D+01 0.4038300D+03
EXPONENTS  0.1211700D+03 0.4634500D+02 0.1972100D+02 0.8862400D+01 0.3996200D+01
EXPONENTS  0.1763600D+01 0.4038300D+03 0.1211700D+03 0.4634500D+02 0.1972100D+02
EXPONENTS  0.8862400D+01 0.3996200D+01 0.1763600D+01 0.7061900D+00 0.7061900D+00
EXPONENTS  0.7061900D+00 0.7061900D+00 0.7061900D+00 0.7061900D+00 0.2639000D+00
EXPONENTS  0.2639000D+00 0.2639000D+00 0.2639000D+00 0.2639000D+00 0.2639000D+00
EXPONENTS  0.1047000D+00 0.1047000D+00 0.1047000D+00 0.1047000D+00 0.1047000D+00
EXPONENTS  0.1047000D+00 0.5515000D+00 0.5515000D+00 0.5515000D+00 0.5515000D+00
EXPONENTS  0.5515000D+00 0.5515000D+00 0.5515000D+00 0.5515000D+00 0.5515000D+00
EXPONENTS  0.5515000D+00 0.2580000D+00 0.2580000D+00 0.2580000D+00 0.2580000D+00
EXPONENTS  0.2580000D+00 0.2580000D+00 0.2580000D+00 0.2580000D+00 0.2580000D+00
EXPONENTS  0.2580000D+00 0.1533000D+05 0.2299000D+04 0.5224000D+03 0.1473000D+03
EXPONENTS  0.4755000D+02 0.1676000D+02 0.6207000D+01 0.5224000D+03 0.1473000D+03
EXPONENTS  0.4755000D+02 0.1676000D+02 0.6207000D+01 0.6882000D+00 0.1752000D+01
EXPONENTS  0.2384000D+00 0.7376000D-01 0.3446000D+02 0.7749000D+01 0.2280000D+01
EXPONENTS  0.3446000D+02 0.7749000D+01 0.2280000D+01 0.3446000D+02 0.7749000D+01
EXPONENTS  0.2280000D+01 0.7156000D+00 0.7156000D+00 0.7156000D+00 0.2140000D+00
EXPONENTS  0.2140000D+00 0.2140000D+00 0.5974000D-01 0.5974000D-01 0.5974000D-01
EXPONENTS  0.2314000D+01 0.2314000D+01 0.2314000D+01 0.2314000D+01 0.2314000D+01
EXPONENTS  0.2314000D+01 0.6450000D+00 0.6450000D+00 0.6450000D+00 0.6450000D+00
EXPONENTS  0.6450000D+00 0.6450000D+00 0.2140000D+00 0.2140000D+00 0.2140000D+00
EXPONENTS  0.2140000D+00 0.2140000D+00 0.2140000D+00 0.1428000D+01 0.1428000D+01
EXPONENTS  0.1428000D+01 0.1428000D+01 0.1428000D+01 0.1428000D+01 0.1428000D+01
EXPONENTS  0.1428000D+01 0.1428000D+01 0.1428000D+01 0.5000000D+00 0.5000000D+00
EXPONENTS  0.5000000D+00 0.5000000D+00 0.5000000D+00 0.5000000D+00 0.5000000D+00
EXPONENTS  0.5000000D+00 0.5000000D+00 0.5000000D+00
MO    1     MO 0.0        OCC NO =    2.0000168  ORB. ENERGY =    0.000000
  0.11922772D+00  0.22226450D+00  0.37565728D+00  0.56468296D+00  0.69361187D+00
  0.58538395D+00  0.22011965D+00  0.28721127D-04  0.21467263D-03  0.80228064D-03
  0.22382381D-02  0.29986219D-02 -0.35408134D-02  0.91270032D-02 -0.19640534D-02
 -0.30427925D-03 -0.23820718D-13 -0.22333437D-13 -0.15902738D-13 -0.12232197D-02
 -0.11468462D-02 -0.81662282D-03  0.36430875D-02  0.34156261D-02  0.24321292D-02
 -0.12759985D-13 -0.41345025D-03  0.19600539D-02 -0.46111326D-14 -0.87853049D-04
  0.37804589D-03  0.75216014D-16  0.33595482D-05  0.48062978D-05 -0.90748074D-04
 -0.48839300D-03  0.57914107D-03  0.65746818D-14  0.57915065D-14  0.29664865D-03
  0.32874295D-03 -0.31431806D-03 -0.14424890D-04 -0.10704160D-13 -0.42161549D-14
  0.13054900D-03  0.30277816D-04 -0.17850341D-04 -0.12427474D-04  0.78615547D-16
 -0.26188903D-16  0.26603704D-04  0.73936551D-15  0.11740830D-04  0.12131935D-03
  0.20147130D-14 -0.30210744D-04 -0.15973280D-03 -0.42328095D-14 -0.50117449D-05
 -0.20422525D-03  0.94304666D-15  0.39414852D-15 -0.93912153D-05 -0.13518987D-04
 -0.39679463D-15  0.49170035D-06  0.30180327D-05 -0.78565093D-15  0.27681945D-04
  0.37538928D-04  0.35003212D-14 -0.27908878D-01 -0.52500802D-01 -0.90881570D-01
 -0.14897234D+00 -0.23336745D+00 -0.35077026D+00 -0.50133316D+00 -0.66551869D+00
 -0.77504459D+00 -0.71178879D+00 -0.41608728D+00 -0.10917888D+00 -0.62074256D-02
 -0.10831290D-03 -0.10902926D-04 -0.13242759D-02 -0.38255280D-02 -0.17533293D-01
 -0.51902367D-01 -0.15051838D+00 -0.31286635D+00 -0.44755902D+00 -0.12832947D+00
  0.51282174D+00  0.49584901D+00  0.10822662D+00 -0.15665477D-02 -0.81087285D-03
 -0.37828895D-02 -0.76770936D-02 -0.30087865D-01 -0.21113367D-01  0.13749824D+00
  0.42605984D+00  0.52116660D-01 -0.37244096D+00 -0.17478653D+00 -0.89017639D-06
 -0.12203612D-05  0.23397276D-05  0.49726904D-05 -0.18798161D-04 -0.60788478D-04
 -0.21141308D-04  0.20678502D-03  0.46123779D-03 -0.30606336D-03 -0.72482930D-02
  0.44594374D-03  0.15710061D-03 -0.80834698D-08 -0.11598573D-07 -0.15357582D-07
 -0.17735334D-07 -0.16443999D-07 -0.10648913D-07 -0.37575670D-08 -0.43296138D-09
  0.70732587D-12  0.75089731D+01  0.10774256D+02  0.14266110D+02  0.16474874D+02
  0.15275315D+02  0.98920890D+01  0.34905147D+01  0.40219057D+00 -0.65705583D-03
  0.47203156D+01  0.67729483D+01  0.89680094D+01  0.10356490D+02  0.96024192D+01
  0.62183978D+01  0.21942189D+01  0.25282637D+00 -0.41304062D-03  0.75496847D-12
 -0.21525496D-11 -0.10506871D-10 -0.21772236D-10 -0.27322007D-10 -0.43327789D-11
  0.35072381D-10  0.30588201D-10  0.78631523D-11 -0.44689859D-01  0.12741875D+00
  0.62194730D+00  0.12887931D+01  0.16173081D+01  0.25647598D+00 -0.20760864D+01
 -0.18106483D+01 -0.46545409D+00 -0.28176560D-01  0.80336393D-01  0.39213227D+00
  0.81257262D+00  0.10196984D+01  0.16170583D+00 -0.13089541D+01 -0.11415977D+01
 -0.29346469D+00  0.43453808D-14  0.61388884D-14 -0.28563927D-14  0.57242379D-14
  0.62839319D-14  0.16962302D-13  0.53452695D-14 -0.11476407D-13 -0.23676965D-03
 -0.33449370D-03  0.15563817D-03 -0.31190036D-03 -0.34239678D-03 -0.92423623D-03
 -0.29125126D-03  0.62532264D-03 -0.11930575D-03 -0.16854787D-03  0.78424443D-04
 -0.15716332D-03 -0.17253015D-03 -0.46571296D-03 -0.14675846D-03  0.31509353D-03
  0.37238833D-12 -0.16476127D-01 -0.10492074D-01  0.47689820D-14  0.14259821D-03
  0.62379889D-04 -0.20812633D-15  0.82725124D-05  0.65779940D-05  0.76696741D+00
  0.80254875D+00  0.68381449D+00  0.45034354D+00  0.20754993D+00  0.62151162D-01
  0.10574493D-01 -0.93068142D+00 -0.97385782D+00 -0.82977899D+00 -0.54647220D+00
 -0.25185277D+00 -0.75417718D-01 -0.12831685D-01  0.16371401D+00  0.17130907D+00
  0.14596450D+00  0.96128657D-01  0.44302836D-01  0.13266556D-01  0.22571920D-02
 -0.96963437D-10 -0.10146179D-09 -0.86450875D-10 -0.56934437D-10 -0.26239387D-10
 -0.78574269D-11 -0.13368746D-11 -0.36257541D-10 -0.37939610D-10 -0.32326578D-10
 -0.21289496D-10 -0.98116946D-11 -0.29381278D-11 -0.49989754D-12 -0.28331513D+01
 -0.29645876D+01 -0.25259873D+01 -0.16635536D+01 -0.76668233D+00 -0.22958426D+00
 -0.39061816D-01  0.87418909D-03 -0.10661763D-02  0.19198721D-03 -0.69857795D-13
 -0.24744515D-13 -0.29151453D-02 -0.99375901D-04  0.10026284D-03 -0.88693384D-06
 -0.41044732D-14 -0.19742347D-14  0.26129030D-03 -0.14039543D-04  0.15459092D-04
 -0.14195491D-05  0.52376288D-15  0.32545914D-15  0.24397055D-04  0.11686896D-15
 -0.30969222D-04  0.67309485D-04 -0.38656314D-15  0.15754694D-03  0.11360814D-03
  0.35956253D-16 -0.64639275D-04 -0.31553660D-03  0.16285124D-14  0.19779647D-15
  0.99399627D-05 -0.16179445D-04 -0.66912422D-15 -0.58693909D-04 -0.46992771D-04
  0.75734796D-16  0.28874021D-04  0.95531106D-04 -0.13219335D-14 -0.40011644D-01
 -0.75267930D-01 -0.13029263D+00 -0.21357464D+00 -0.33456793D+00 -0.50288282D+00
 -0.71873777D+00 -0.95412282D+00 -0.11111450D+01 -0.10204581D+01 -0.59652476D+00
 -0.15652462D+00 -0.88992940D-02 -0.15528311D-03 -0.15631012D-04 -0.18982096D-02
 -0.54834901D-02 -0.25132124D-01 -0.74396559D-01 -0.21575219D+00 -0.44846085D+00
 -0.64152857D+00 -0.18394673D+00  0.73507577D+00  0.71074716D+00  0.15513143D+00
 -0.22454805D-02 -0.11595232D-02 -0.54094155D-02 -0.10978007D-01 -0.43024720D-01
 -0.30191465D-01  0.19661825D+00  0.60925245D+00  0.74525218D-01 -0.53257910D+00
 -0.24993935D+00 -0.12808221D-05 -0.17559055D-05  0.33664956D-05  0.71549100D-05
 -0.27047562D-04 -0.87464945D-04 -0.30418977D-04  0.29753073D-03  0.66364776D-03
 -0.44037646D-03 -0.10404482D-01  0.62409536D-03  0.14630817D-03  0.28133058D-08
  0.40366739D-08  0.53449292D-08  0.61724630D-08  0.57230372D-08  0.37061621D-08
  0.13077534D-08  0.15068439D-09 -0.24617201D-12 -0.12175644D+02 -0.17470232D+02
 -0.23132201D+02 -0.26713666D+02 -0.24768606D+02 -0.16039817D+02 -0.56597970D+01
 -0.65214366D+00  0.10654024D-02  0.75770836D+01  0.10871984D+02  0.14395512D+02
  0.16624310D+02  0.15413871D+02  0.99818158D+01  0.35221756D+01  0.40583866D+00
 -0.66301569D-03 -0.27412749D-11  0.78158630D-11  0.38150232D-10  0.79054536D-10
  0.99205639D-10  0.15732230D-10 -0.12734709D-09 -0.11106512D-09 -0.28550943D-10
  0.72624371D-01 -0.20706502D+00 -0.10107110D+01 -0.20943854D+01 -0.26282469D+01
 -0.41679269D+00  0.33737960D+01  0.29424393D+01  0.75639780D+00 -0.45262283D-01
  0.12905083D+00  0.62991371D+00  0.13053010D+01  0.16380239D+01  0.25976113D+00
 -0.21026786D+01 -0.18338406D+01 -0.47141601D+00  0.22535818D-14  0.31837226D-14
 -0.14813695D-14  0.29686785D-14  0.32589445D-14  0.87969127D-14  0.27721396D-14
 -0.59518427D-14  0.26771146D-03  0.37820639D-03 -0.17597746D-03  0.35266049D-03
  0.38714228D-03  0.10450184D-02  0.32931289D-03 -0.70704178D-03 -0.16109497D-03
 -0.22758512D-03  0.10589417D-03 -0.21221291D-03 -0.23296228D-03 -0.62883821D-03
 -0.19816354D-03  0.42546132D-03 -0.98426479D-12  0.26799237D-01 -0.16835258D-01
 -0.89492821D-14 -0.10509659D-03  0.55440171D-04  0.16567039D-15 -0.89585534D-05
  0.65557159D-05  0.12787947D+01  0.13381209D+01  0.11401506D+01  0.75087536D+00
  0.34605610D+00  0.10362706D+00  0.17631266D-01 -0.15367178D+01 -0.16080096D+01
 -0.13701102D+01 -0.90232117D+00 -0.41585296D+00 -0.12452784D+00 -0.21187357D-01
  0.25792309D+00  0.26988872D+00  0.22995963D+00  0.15144580D+00  0.69796862D-01
  0.20900783D-01  0.35560911D-02 -0.62507401D-10 -0.65407260D-10 -0.55730487D-10
 -0.36702739D-10 -0.16915200D-10 -0.50652839D-11 -0.86181511D-12 -0.52528052D-10
 -0.54964947D-10 -0.46833077D-10 -0.30843122D-10 -0.14214676D-10 -0.42566079D-11
 -0.72422574D-12  0.46775697D+01  0.48945727D+01  0.41704379D+01  0.27465486D+01
  0.12658025D+01  0.37904661D+00  0.64491567D-01  0.13948689D-02 -0.16541656D-02
  0.25929670D-03 -0.40006526D-13 -0.49237124D-13  0.46975595D-02 -0.12796468D-03
  0.11415316D-03  0.13811517D-04 -0.33427691D-14  0.26666102D-14 -0.33542978D-03
 -0.12729937D-04  0.14480144D-04 -0.17502079D-05  0.19860775D-16 -0.52178469D-16
 -0.32467870D-04  0.16661320D-14  0.46717242D-04  0.11534543D-03 -0.47303170D-14
 -0.25849040D-03  0.17702687D-03 -0.26807886D-15  0.11833867D-03 -0.52306318D-03
  0.11957822D-13 -0.44206422D-15 -0.85253851D-05 -0.24746896D-04  0.10813457D-14
  0.76339707D-04 -0.60845206D-04  0.24484699D-15 -0.50763551D-04  0.13508589D-03
 -0.29590174D-14 -0.33871180D-01 -0.63130311D-01 -0.10704631D+00 -0.16200321D+00
 -0.20208624D+00 -0.17342006D+00 -0.66410669D-01 -0.32435072D-05 -0.34800704D-04
 -0.12828195D-03 -0.37508889D-03 -0.45200035D-03  0.54448232D-03 -0.30106719D-02
  0.28669919D-03  0.68172761D-04  0.13418773D-13  0.13011696D-13  0.87776133D-14
  0.60161787D-03  0.58336696D-03  0.39353590D-03  0.26352203D-02  0.25552773D-02
  0.17237750D-02  0.41893039D-14  0.13345228D-03  0.59552848D-03  0.74680456D-14
 -0.16520933D-04  0.75832665D-04  0.18308621D-15 -0.60779691D-05  0.72724967D-05
  0.27587979D-03 -0.50845613D-04 -0.22503417D-03 -0.54508324D-14  0.64759124D-14
  0.74837231D-04  0.31453581D-04  0.15168016D-03 -0.18313374D-03 -0.80659892D-15
 -0.45927396D-14  0.44898617D-04  0.27205077D-05  0.44761590D-04 -0.47482098D-04
  0.54453958D-16 -0.29703504D-14  0.14251815D-04  0.25588962D-14  0.11271248D-04
 -0.28241625D-03 -0.36385682D-14 -0.24553238D-04  0.41980564D-03 -0.40381205D-14
 -0.92605065D-05  0.42744311D-03  0.37054246D-14 -0.96611520D-15 -0.33307748D-06
  0.77701573D-04 -0.78355219D-15  0.10845736D-04 -0.39319058D-04  0.36818978D-14
 -0.98465035D-05 -0.19378566D-03 -0.16417059D-14
MO    2     MO 0.0        OCC NO =    2.0000159  ORB. ENERGY =    0.000000
 -0.25214712D-01 -0.47005302D-01 -0.79445364D-01 -0.11942120D+00 -0.14668755D+00
 -0.12379912D+00 -0.46551703D-01 -0.58321372D-05 -0.43591612D-04 -0.16291181D-03
 -0.45449857D-03 -0.60890279D-03  0.71900065D-03 -0.19481227D-02  0.40040433D-03
  0.63519525D-04  0.58115206D-13  0.54486700D-13  0.38797776D-13 -0.57683388D-02
 -0.54081843D-02 -0.38509494D-02 -0.69740438D-03 -0.65386094D-03 -0.46558794D-03
  0.23130311D-13 -0.19432633D-02 -0.38991917D-03  0.10503137D-13 -0.43754513D-03
 -0.77336387D-04 -0.69350555D-15  0.15885950D-04 -0.10243699D-05  0.21251592D-04
  0.10223393D-03 -0.12348552D-03 -0.22714272D-14 -0.17196096D-13  0.14314532D-02
 -0.69448447D-04  0.65397376D-04  0.40510711D-05 -0.13938178D-13 -0.69068349D-14
  0.61478963D-03 -0.63007982D-05  0.37904427D-05  0.25103555D-05 -0.39748550D-15
 -0.11385333D-14  0.12952123D-03  0.23098338D-14  0.53924395D-04 -0.24846031D-04
  0.24997754D-14 -0.14312987D-03  0.35235999D-04 -0.94292769D-14 -0.18643314D-04
  0.39302094D-04 -0.24673219D-14 -0.18114740D-14 -0.45375056D-04  0.28588580D-05
  0.24340927D-14  0.79988926D-05 -0.19097623D-07  0.30003293D-14  0.12812628D-03
 -0.85574765D-05  0.40999164D-14  0.37815773D-01  0.71137164D-01  0.12314206D+00
  0.20185349D+00  0.31620656D+00  0.47528419D+00  0.67929285D+00  0.90175978D+00
  0.10501644D+01  0.96445452D+00  0.56378699D+00  0.14793442D+00  0.84108934D-02
  0.14676105D-03  0.14773169D-04  0.17941045D-02  0.51827544D-02  0.23753781D-01
  0.70316366D-01  0.20391951D+00  0.42386553D+00  0.60634468D+00  0.17385839D+00
 -0.69476139D+00 -0.67176705D+00 -0.14662343D+00  0.21223298D-02  0.10929803D-02
  0.50989793D-02  0.10348000D-01  0.40555612D-01  0.28458833D-01 -0.18533469D+00
 -0.57428859D+00 -0.70248355D-01  0.50201538D+00  0.23559580D+00  0.11980627D-05
  0.16424488D-05 -0.31489717D-05 -0.66926003D-05  0.25299902D-04  0.81813456D-04
  0.28453476D-04 -0.27830598D-03 -0.62076661D-03  0.41192183D-03  0.97975702D-02
 -0.49178570D-03 -0.26325070D-05  0.94947746D-09  0.13623584D-08  0.18038885D-08
  0.20831772D-08  0.19314981D-08  0.12508123D-08  0.44136062D-09  0.50855274D-10
 -0.83081894D-13 -0.13259807D+02 -0.19025843D+02 -0.25191975D+02 -0.29092346D+02
 -0.26974091D+02 -0.17468059D+02 -0.61637656D+01 -0.71021285D+00  0.11602696D-02
 -0.79741615D+01 -0.11441732D+02 -0.15149910D+02 -0.17495509D+02 -0.16221636D+02
 -0.10504914D+02 -0.37067556D+01 -0.42710668D+00  0.69776110D-03  0.75269633D-11
 -0.21460713D-10 -0.10475250D-09 -0.21706710D-09 -0.27239779D-09 -0.43197390D-10
  0.34966828D-09  0.30496144D-09  0.78394875D-10  0.79366913D-01 -0.22628921D+00
 -0.11045467D+01 -0.22888309D+01 -0.28722568D+01 -0.45548827D+00  0.36870236D+01
  0.32156192D+01  0.82662277D+00  0.47686346D-01 -0.13596227D+00 -0.66364931D+00
 -0.13752076D+01 -0.17257498D+01 -0.27367288D+00  0.22152894D+01  0.19320536D+01
  0.49666313D+00 -0.69747468D-14 -0.98534961D-14  0.45847802D-14 -0.91879429D-14
 -0.10086305D-13 -0.27226098D-13 -0.85796628D-14  0.18420718D-13  0.12726641D-03
  0.17979420D-03 -0.83657302D-04  0.16765002D-03  0.18404220D-03  0.49678759D-03
  0.15655089D-03 -0.33611810D-03  0.12981358D-03  0.18339269D-03 -0.85331662D-04
  0.17100546D-03  0.18772572D-03  0.50673055D-03  0.15968418D-03 -0.34284534D-03
  0.25632105D-11  0.29279349D-01  0.17683872D-01  0.19866435D-13  0.72326769D-04
  0.64880970D-05 -0.25249146D-15 -0.33544892D-05 -0.12036837D-05 -0.13360707D+01
 -0.13980541D+01 -0.11912169D+01 -0.78450638D+00 -0.36155563D+00 -0.10826842D+00
 -0.18420954D-01  0.16262761D+01  0.17017227D+01  0.14499588D+01  0.95490752D+00
  0.44008845D+00  0.13178520D+00  0.22422134D-01 -0.29020539D+00 -0.30366867D+00
 -0.25874196D+00 -0.17040114D+00 -0.78532813D-01 -0.23516778D-01 -0.40011804D-02
  0.58674043D-10  0.61396064D-10  0.52312732D-10  0.34451889D-10  0.15877850D-10
  0.47546479D-11  0.80896303D-12 -0.16442683D-09 -0.17205496D-09 -0.14660003D-09
 -0.96547205D-10 -0.44495733D-10 -0.13324319D-10 -0.22670199D-11  0.48769959D+01
  0.51032508D+01  0.43482428D+01  0.28636466D+01  0.13197695D+01  0.39520710D+00
  0.67241138D-01 -0.13883500D-02  0.16166262D-02 -0.22827619D-03  0.63957287D-13
 -0.11831686D-12  0.47627481D-02  0.90971950D-04 -0.57103426D-04 -0.33868524D-04
 -0.59907957D-14 -0.46538845D-14 -0.23369145D-03 -0.10582858D-05 -0.13823805D-06
  0.11965238D-05 -0.64919617D-15 -0.42311498D-15 -0.24283982D-04 -0.56746511D-14
  0.47144579D-04 -0.12914899D-03  0.16778158D-13 -0.27127638D-03 -0.16950556D-03
  0.24579504D-15  0.12984264D-03  0.55695252D-03  0.31427643D-13  0.13184354D-14
  0.94475700D-06  0.24383537D-04 -0.37402711D-14  0.54271327D-04  0.42015405D-04
 -0.21503509D-15 -0.57105598D-04 -0.11516602D-03 -0.63506584D-14 -0.23060829D-01
 -0.43380893D-01 -0.75094541D-01 -0.12309437D+00 -0.19282921D+00 -0.28983799D+00
 -0.41424663D+00 -0.54991150D+00 -0.64041166D+00 -0.58814402D+00 -0.34380880D+00
 -0.90213424D-01 -0.51291343D-02 -0.89497877D-04 -0.90089795D-05 -0.10937567D-02
 -0.31596111D-02 -0.14481240D-01 -0.42867625D-01 -0.12431736D+00 -0.25840511D+00
 -0.36965158D+00 -0.10599092D+00  0.42355389D+00  0.40953564D+00  0.89387413D-01
 -0.12938558D-02 -0.66398784D-03 -0.30976406D-02 -0.62864317D-02 -0.24637619D-01
 -0.17288801D-01  0.11259121D+00  0.34888152D+00  0.42676023D-01 -0.30497540D+00
 -0.14312494D+00 -0.74268091D-06 -0.10181566D-05  0.19520524D-05  0.41487533D-05
 -0.15683448D-04 -0.50716288D-04 -0.17638354D-04  0.17252231D-03  0.38481418D-03
 -0.25535098D-03 -0.59836225D-02  0.28978119D-03 -0.60285589D-04  0.45864058D-08
  0.65808078D-08  0.87135976D-08  0.10062689D-07  0.93300100D-08  0.60419893D-08
  0.21319715D-08  0.24565399D-09 -0.40132315D-12 -0.92769203D+01 -0.13310996D+02
 -0.17624989D+02 -0.20353794D+02 -0.18871806D+02 -0.12221128D+02 -0.43123375D+01
 -0.49688417D+00  0.81175609D-03  0.55262846D+01  0.79293935D+01  0.10499250D+02
  0.12124806D+02  0.11241982D+02  0.72801565D+01  0.25688702D+01  0.29599514D+00
 -0.48356513D-03  0.22067568D-12 -0.62918568D-12 -0.30711362D-11 -0.63639782D-11