 Entering Gaussian System, Link 0=/home/bruns/programas/chemistry/gaussian/g09/g09
 Input=GAUSSIAN.com
 Output=GAUSSIAN.log
 Initial command:
 /home/bruns/programas/chemistry/gaussian/g09/l1.exe /home/bruns/programas/chemistry/gaussian/work/Gau-69954.inp -scrdir=/home/bruns/programas/chemistry/gaussian/work/
 Entering Link 1 = /home/bruns/programas/chemistry/gaussian/g09/l1.exe PID=     69956.
  
 Copyright (c) 1988,1990,1992,1993,1995,1998,2003,2009,2010,
            Gaussian, Inc.  All Rights Reserved.
  
 This is part of the Gaussian(R) 09 program.  It is based on
 the Gaussian(R) 03 system (copyright 2003, Gaussian, Inc.),
 the Gaussian(R) 98 system (copyright 1998, Gaussian, Inc.),
 the Gaussian(R) 94 system (copyright 1995, Gaussian, Inc.),
 the Gaussian 92(TM) system (copyright 1992, Gaussian, Inc.),
 the Gaussian 90(TM) system (copyright 1990, Gaussian, Inc.),
 the Gaussian 88(TM) system (copyright 1988, Gaussian, Inc.),
 the Gaussian 86(TM) system (copyright 1986, Carnegie Mellon
 University), and the Gaussian 82(TM) system (copyright 1983,
 Carnegie Mellon University). Gaussian is a federally registered
 trademark of Gaussian, Inc.
  
 This software contains proprietary and confidential information,
 including trade secrets, belonging to Gaussian, Inc.
  
 This software is provided under written license and may be
 used, copied, transmitted, or stored only in accord with that
 written license.
  
 The following legend is applicable only to US Government
 contracts under FAR:
  
                    RESTRICTED RIGHTS LEGEND
  
 Use, reproduction and disclosure by the US Government is
 subject to restrictions as set forth in subparagraphs (a)
 and (c) of the Commercial Computer Software - Restricted
 Rights clause in FAR 52.227-19.
  
 Gaussian, Inc.
 340 Quinnipiac St., Bldg. 40, Wallingford CT 06492
  
  
 ---------------------------------------------------------------
 Warning -- This program may not be used in any manner that
 competes with the business of Gaussian, Inc. or will provide
 assistance to any competitor of Gaussian, Inc.  The licensee
 of this program is prohibited from giving any competitor of
 Gaussian, Inc. access to this program.  By using this program,
 the user acknowledges that Gaussian, Inc. is engaged in the
 business of creating and licensing software in the field of
 computational chemistry and represents and warrants to the
 licensee that it is not a competitor of Gaussian, Inc. and that
 it will not use this program in any manner prohibited above.
 ---------------------------------------------------------------
  

 Cite this work as:
 Gaussian 09, Revision B.01,
 M. J. Frisch, G. W. Trucks, H. B. Schlegel, G. E. Scuseria, 
 M. A. Robb, J. R. Cheeseman, G. Scalmani, V. Barone, B. Mennucci, 
 G. A. Petersson, H. Nakatsuji, M. Caricato, X. Li, H. P. Hratchian, 
 A. F. Izmaylov, J. Bloino, G. Zheng, J. L. Sonnenberg, M. Hada, 
 M. Ehara, K. Toyota, R. Fukuda, J. Hasegawa, M. Ishida, T. Nakajima, 
 Y. Honda, O. Kitao, H. Nakai, T. Vreven, J. A. Montgomery, Jr., 
 J. E. Peralta, F. Ogliaro, M. Bearpark, J. J. Heyd, E. Brothers, 
 K. N. Kudin, V. N. Staroverov, T. Keith, R. Kobayashi, J. Normand, 
 K. Raghavachari, A. Rendell, J. C. Burant, S. S. Iyengar, J. Tomasi, 
 M. Cossi, N. Rega, J. M. Millam, M. Klene, J. E. Knox, J. B. Cross, 
 V. Bakken, C. Adamo, J. Jaramillo, R. Gomperts, R. E. Stratmann, 
 O. Yazyev, A. J. Austin, R. Cammi, C. Pomelli, J. W. Ochterski, 
 R. L. Martin, K. Morokuma, V. G. Zakrzewski, G. A. Voth, 
 P. Salvador, J. J. Dannenberg, S. Dapprich, A. D. Daniels, 
 O. Farkas, J. B. Foresman, J. V. Ortiz, J. Cioslowski, 
 and D. J. Fox, Gaussian, Inc., Wallingford CT, 2010.
 
 ******************************************
 Gaussian 09:  EM64L-G09RevB.01 12-Aug-2010
                28-Nov-2021 
 ******************************************
 %nproc=8
 Will use up to    8 processors via shared memory.
 %mem=8GB
 -----------------------------------------------------
 # qcisd/aug-cc-pvtz nosymm density=current output=wfn
 -----------------------------------------------------
 1/30=1,38=1/1;
 2/12=2,15=1,17=6,18=5,40=1/2;
 3/5=16,6=1,7=10,11=9,16=1,25=1,30=1,71=1/1,2,3;
 4//1;
 5/5=2,38=5/2;
 8/6=4,9=120000,10=1/1,4;
 9/5=8,15=1/13;
 11/28=-7,31=1,32=3,42=3/11;
 10/5=6,13=10,31=1/2;
 6/7=2,8=2,9=2,10=2,22=-1,31=1/1;
 99/5=1,6=1100,9=1/99;
 ------------------
 br2co-wavefunction
 ------------------
 Symbolic Z-matrix:
 Charge =  0 Multiplicity = 1
 C                     0.        0.01     -0.49176 
 Br                    0.       -1.59418  -1.54682 
 Br                    0.        1.59418  -1.54682 
 O                     0.        0.        0.6845 
 
                          Input orientation:                          
 ---------------------------------------------------------------------
 Center     Atomic      Atomic             Coordinates (Angstroms)
 Number     Number       Type             X           Y           Z
 ---------------------------------------------------------------------
      1          6           0        0.000000    0.010000   -0.491759
      2         35           0        0.000000   -1.594181   -1.546820
      3         35           0        0.000000    1.594181   -1.546820
      4          8           0        0.000000    0.000000    0.684500
 ---------------------------------------------------------------------
                    Distance matrix (angstroms):
                    1          2          3          4
     1  C    0.000000
     2  Br   1.920039   0.000000
     3  Br   1.903361   3.188362   0.000000
     4  O    1.176302   2.742299   2.742299   0.000000
 Symmetry turned off by external request.
 Stoichiometry    CBr2O
 Framework group  CS[SG(CBr2O)]
 Deg. of freedom     5
 Full point group                 CS      NOp   2
 Rotational constants (GHZ):      6.2847871      1.2598904      1.0495005
 Standard basis: Aug-CC-pVTZ (5D, 7F)
 Integral buffers will be    131072 words long.
 Raffenetti 1 integral format.
 Two-electron integral symmetry is turned off.
   210 basis functions,   578 primitive gaussians,   248 cartesian basis functions
    42 alpha electrons       42 beta electrons
       nuclear repulsion energy       449.2332683468 Hartrees.
 NAtoms=    4 NActive=    4 NUniq=    4 SFac= 1.00D+00 NAtFMM=   50 NAOKFM=F Big=F
 One-electron integrals computed using PRISM.
 NBasis=   210 RedAO= T  NBF=   210
 NBsUse=   210 1.00D-06 NBFU=   210
 Harris functional with IExCor=  205 diagonalized for initial guess.
 ExpMin= 3.51D-02 ExpMax= 1.06D+07 ExpMxC= 1.21D+04 IAcc=3 IRadAn=         0 AccDes= 0.00D+00
 HarFok:  IExCor=  205 AccDes= 0.00D+00 IRadAn=         0 IDoV= 1
 ScaDFX=  1.000000  1.000000  1.000000  1.000000
 FoFCou: FMM=F IPFlag=           0 FMFlag=      100000 FMFlg1=           0
         NFxFlg=           0 DoJE=T BraDBF=F KetDBF=T FulRan=T
         Omega=  0.000000  0.000000  1.000000  0.000000  0.000000 ICntrl=     500 IOpCl=  0
         NMat0=    1 NMatS0=    1 NMatT0=    0 NMatD0=    1 NMtDS0=    0 NMtDT0=    0
         I1Cent=           4 NGrid=           0.
 Symmetry not used in FoFCou.
 Requested convergence on RMS density matrix=1.00D-08 within 128 cycles.
 Requested convergence on MAX density matrix=1.00D-06.
 Requested convergence on             energy=1.00D-06.
 No special actions if energy rises.
 Keep R1 ints in memory in canonical form, NReq=484604278.
 SCF Done:  E(RHF) =  -5257.68449383     A.U. after   12 cycles
             Convg  =    0.9252D-08             -V/T =  2.0000
 ExpMin= 3.51D-02 ExpMax= 1.06D+07 ExpMxC= 1.21D+04 IAcc=3 IRadAn=         5 AccDes= 0.00D+00
 HarFok:  IExCor=  205 AccDes= 0.00D+00 IRadAn=         5 IDoV=-2
 ScaDFX=  1.000000  1.000000  1.000000  1.000000
 DSYEVD returned Info=          89 IAlg= 4 N=    59 NDim=    59 NE2=    18196533 trying DSYEV.
 Range of M.O.s used for correlation:    21   210
 NBasis=   210 NAE=    42 NBE=    42 NFC=    20 NFV=     0
 NROrb=    190 NOA=    22 NOB=    22 NVA=   168 NVB=   168

 **** Warning!!: The largest alpha MO coefficient is  0.28087375D+02

 Semi-Direct transformation.
 ModeAB=           2 MOrb=            22 LenV=    1072497207
 LASXX=     69628944 LTotXX=    69628944 LenRXX=    69628944
 LTotAB=    70719517 MaxLAS=   129061680 LenRXY=   129061680
 NonZer=   139257888 LenScr=   209707008 LnRSAI=           0
 LnScr1=           0 LExtra=           0 Total=    408397632
 MaxDsk=          -1 SrtSym=           F ITran=            4
 JobTyp=0 Pass  1:  I=   1 to  22.
 (rs|ai) integrals will be sorted in core.
 Spin components of T(2) and E(2):
     alpha-alpha T2 =       0.3832375396D-01 E2=     -0.1232806798D+00
     alpha-beta  T2 =       0.1925006940D+00 E2=     -0.6175148801D+00
     beta-beta   T2 =       0.3832375396D-01 E2=     -0.1232806798D+00
 ANorm=    0.1126564779D+01
 E2 =    -0.8640762396D+00 EUMP2 =    -0.52585485700672D+04
 R2 and R3 integrals will be kept in memory, NReq=   961077252.
 Iterations=  50 Convergence= 0.100D-07
 Iteration Nr.   1
 **********************
 DD1Dir will call FoFMem   1 times, MxPair=       506
 NAB=   253 NAA=     0 NBB=     0.
 MP4(R+Q)=  0.21480735D-01
 E3=        0.14573041D-03        EUMP3=      -0.52585484243D+04
 E4(DQ)=    0.26904161D-03        UMP4(DQ)=   -0.52585481553D+04
 E4(SDQ)=  -0.11699431D-01        UMP4(SDQ)=  -0.52585601238D+04
 DE(Corr)= -0.84244977     E(Corr)=     -5258.5269436    
 NORM(A)=   0.11248511D+01
 Iteration Nr.   2
 **********************
 DD1Dir will call FoFMem   1 times, MxPair=       506
 NAB=   253 NAA=     0 NBB=     0.
 DE(Corr)= -0.87234943     E(CORR)=     -5258.5568433     Delta=-2.99D-02
 NORM(A)=   0.11352514D+01
 Iteration Nr.   3
 **********************
 DD1Dir will call FoFMem   1 times, MxPair=       506
 NAB=   253 NAA=     0 NBB=     0.
 DE(Corr)= -0.87024412     E(CORR)=     -5258.5547379     Delta= 2.11D-03
 NORM(A)=   0.11380139D+01
 Iteration Nr.   4
 **********************
 DD1Dir will call FoFMem   1 times, MxPair=       506
 NAB=   253 NAA=     0 NBB=     0.
 DE(Corr)= -0.87277493     E(CORR)=     -5258.5572688     Delta=-2.53D-03
 NORM(A)=   0.11393269D+01
 Iteration Nr.   5
 **********************
 DD1Dir will call FoFMem   1 times, MxPair=       506
 NAB=   253 NAA=     0 NBB=     0.
 DE(Corr)= -0.87314945     E(CORR)=     -5258.5576433     Delta=-3.75D-04
 NORM(A)=   0.11398419D+01
 Iteration Nr.   6
 **********************
 DD1Dir will call FoFMem   1 times, MxPair=       506
 NAB=   253 NAA=     0 NBB=     0.
 DE(Corr)= -0.87321373     E(CORR)=     -5258.5577076     Delta=-6.43D-05
 NORM(A)=   0.11399460D+01
 Iteration Nr.   7
 **********************
 DD1Dir will call FoFMem   1 times, MxPair=       506
 NAB=   253 NAA=     0 NBB=     0.
 DE(Corr)= -0.87322805     E(CORR)=     -5258.5577219     Delta=-1.43D-05
 NORM(A)=   0.11399548D+01
 Iteration Nr.   8
 **********************
 DD1Dir will call FoFMem   1 times, MxPair=       506
 NAB=   253 NAA=     0 NBB=     0.
 DE(Corr)= -0.87322839     E(CORR)=     -5258.5577222     Delta=-3.40D-07
 NORM(A)=   0.11399699D+01
 Iteration Nr.   9
 **********************
 DD1Dir will call FoFMem   1 times, MxPair=       506
 NAB=   253 NAA=     0 NBB=     0.
 DE(Corr)= -0.87322646     E(CORR)=     -5258.5577203     Delta= 1.93D-06
 NORM(A)=   0.11399698D+01
 Iteration Nr.  10
 **********************
 DD1Dir will call FoFMem   1 times, MxPair=       506
 NAB=   253 NAA=     0 NBB=     0.
 DE(Corr)= -0.87322787     E(CORR)=     -5258.5577217     Delta=-1.41D-06
 NORM(A)=   0.11399726D+01
 Iteration Nr.  11
 **********************
 DD1Dir will call FoFMem   1 times, MxPair=       506
 NAB=   253 NAA=     0 NBB=     0.
 DE(Corr)= -0.87322901     E(CORR)=     -5258.5577228     Delta=-1.13D-06
 NORM(A)=   0.11399744D+01
 Iteration Nr.  12
 **********************
 DD1Dir will call FoFMem   1 times, MxPair=       506
 NAB=   253 NAA=     0 NBB=     0.
 DE(Corr)= -0.87322932     E(CORR)=     -5258.5577232     Delta=-3.17D-07
 NORM(A)=   0.11399754D+01
 Iteration Nr.  13
 **********************
 DD1Dir will call FoFMem   1 times, MxPair=       506
 NAB=   253 NAA=     0 NBB=     0.
 DE(Corr)= -0.87322979     E(CORR)=     -5258.5577236     Delta=-4.69D-07
 NORM(A)=   0.11399761D+01
 Iteration Nr.  14
 **********************
 DD1Dir will call FoFMem   1 times, MxPair=       506
 NAB=   253 NAA=     0 NBB=     0.
 DE(Corr)= -0.87322990     E(CORR)=     -5258.5577237     Delta=-1.11D-07
 NORM(A)=   0.11399765D+01
 Iteration Nr.  15
 **********************
 DD1Dir will call FoFMem   1 times, MxPair=       506
 NAB=   253 NAA=     0 NBB=     0.
 DE(Corr)= -0.87322997     E(CORR)=     -5258.5577238     Delta=-6.96D-08
 NORM(A)=   0.11399766D+01
 Iteration Nr.  16
 **********************
 DD1Dir will call FoFMem   1 times, MxPair=       506
 NAB=   253 NAA=     0 NBB=     0.
 DE(Corr)= -0.87323000     E(CORR)=     -5258.5577238     Delta=-3.00D-08
 NORM(A)=   0.11399767D+01
 Iteration Nr.  17
 **********************
 DD1Dir will call FoFMem   1 times, MxPair=       506
 NAB=   253 NAA=     0 NBB=     0.
 DE(Corr)= -0.87323000     E(CORR)=     -5258.5577238     Delta= 3.75D-09
 NORM(A)=   0.11399767D+01
 Iteration Nr.  18
 **********************
 DD1Dir will call FoFMem   1 times, MxPair=       506
 NAB=   253 NAA=     0 NBB=     0.
 DE(Corr)= -0.87323000     E(CORR)=     -5258.5577238     Delta=-2.81D-09
 NORM(A)=   0.11399767D+01
 Iteration Nr.  19
 **********************
 DD1Dir will call FoFMem   1 times, MxPair=       506
 NAB=   253 NAA=     0 NBB=     0.
 DE(Corr)= -0.87323000     E(CORR)=     -5258.5577238     Delta= 2.18D-10
 NORM(A)=   0.11399767D+01
 Iteration Nr.  20
 **********************
 DD1Dir will call FoFMem   1 times, MxPair=       506
 NAB=   253 NAA=     0 NBB=     0.
 DE(Corr)= -0.87323000     E(CORR)=     -5258.5577238     Delta=-2.04D-09
 NORM(A)=   0.11399767D+01
 Iteration Nr.  21
 **********************
 DD1Dir will call FoFMem   1 times, MxPair=       506
 NAB=   253 NAA=     0 NBB=     0.
 DE(Corr)= -0.87323001     E(CORR)=     -5258.5577238     Delta=-7.86D-09
 NORM(A)=   0.11399767D+01
 Iteration Nr.  22
 **********************
 DD1Dir will call FoFMem   1 times, MxPair=       506
 NAB=   253 NAA=     0 NBB=     0.
 DE(Corr)= -0.87323000     E(CORR)=     -5258.5577238     Delta= 1.33D-08
 NORM(A)=   0.11399767D+01
 Iteration Nr.  23
 **********************
 DD1Dir will call FoFMem   1 times, MxPair=       506
 NAB=   253 NAA=     0 NBB=     0.
 DE(Corr)= -0.87323000     E(CORR)=     -5258.5577238     Delta=-4.30D-09
 NORM(A)=   0.11399767D+01
 Largest amplitude= 4.23D-02

 Z-AMPLITUDE ITERATIONS

 Iteration Nr.   1
 **********************
 DD1Dir will call FoFMem   1 times, MxPair=       506
 NAB=   253 NAA=     0 NBB=     0.
 DE(Z)  -0.84605366D+00          E(Z)=    -0.52585305475D+04
 NORM(A)=   0.11398900D+01
 Iteration Nr.   2
 **********************
 DD1Dir will call FoFMem   1 times, MxPair=       506
 NAB=   253 NAA=     0 NBB=     0.
 DE(Z)  -0.84605352D+00          E(Z)=    -0.52585305473D+04
 NORM(A)=   0.11395160D+01
 Iteration Nr.   3
 **********************
 DD1Dir will call FoFMem   1 times, MxPair=       506
 NAB=   253 NAA=     0 NBB=     0.
 DE(Z)  -0.84605305D+00          E(Z)=    -0.52585305469D+04
 NORM(A)=   0.11397226D+01
 Iteration Nr.   4
 **********************
 DD1Dir will call FoFMem   1 times, MxPair=       506
 NAB=   253 NAA=     0 NBB=     0.
 DE(Z)  -0.84605339D+00          E(Z)=    -0.52585305472D+04
 NORM(A)=   0.11388031D+01
 Iteration Nr.   5
 **********************
 DD1Dir will call FoFMem   1 times, MxPair=       506
 NAB=   253 NAA=     0 NBB=     0.
 DE(Z)  -0.84604904D+00          E(Z)=    -0.52585305429D+04
 NORM(A)=   0.11301218D+01
 Iteration Nr.   6
 **********************
 DD1Dir will call FoFMem   1 times, MxPair=       506
 NAB=   253 NAA=     0 NBB=     0.
 DE(Z)  -0.84602388D+00          E(Z)=    -0.52585305177D+04
 NORM(A)=   0.11301232D+01
 Iteration Nr.   7
 **********************
 DD1Dir will call FoFMem   1 times, MxPair=       506
 NAB=   253 NAA=     0 NBB=     0.
 DE(Z)  -0.84602075D+00          E(Z)=    -0.52585305146D+04
 NORM(A)=   0.11301230D+01
 Iteration Nr.   8
 **********************
 DD1Dir will call FoFMem   1 times, MxPair=       506
 NAB=   253 NAA=     0 NBB=     0.
 DE(Z)  -0.84602184D+00          E(Z)=    -0.52585305157D+04
 NORM(A)=   0.11301230D+01
 Iteration Nr.   9
 **********************
 DD1Dir will call FoFMem   1 times, MxPair=       506
 NAB=   253 NAA=     0 NBB=     0.
 DE(Z)  -0.84602179D+00          E(Z)=    -0.52585305156D+04
 NORM(A)=   0.11301232D+01
 Iteration Nr.  10
 **********************
 DD1Dir will call FoFMem   1 times, MxPair=       506
 NAB=   253 NAA=     0 NBB=     0.
 DE(Z)  -0.84602173D+00          E(Z)=    -0.52585305156D+04
 NORM(A)=   0.11301233D+01
 Iteration Nr.  11
 **********************
 DD1Dir will call FoFMem   1 times, MxPair=       506
 NAB=   253 NAA=     0 NBB=     0.
 DE(Z)  -0.84602179D+00          E(Z)=    -0.52585305156D+04
 NORM(A)=   0.11301234D+01
 Iteration Nr.  12
 **********************
 DD1Dir will call FoFMem   1 times, MxPair=       506
 NAB=   253 NAA=     0 NBB=     0.
 DE(Z)  -0.84602180D+00          E(Z)=    -0.52585305156D+04
 NORM(A)=   0.11301235D+01
 Iteration Nr.  13
 **********************
 DD1Dir will call FoFMem   1 times, MxPair=       506
 NAB=   253 NAA=     0 NBB=     0.
 DE(Z)  -0.84602180D+00          E(Z)=    -0.52585305156D+04
 NORM(A)=   0.11301235D+01
 Iteration Nr.  14
 **********************
 DD1Dir will call FoFMem   1 times, MxPair=       506
 NAB=   253 NAA=     0 NBB=     0.
 DE(Z)  -0.84602181D+00          E(Z)=    -0.52585305156D+04
 NORM(A)=   0.11301235D+01
 Discarding MO integrals.
          Differentiating once with respect to electric field.
                with respect to dipole field.
          Electric field/nuclear overlap derivatives assumed to be zero.
          Keep R1 ints in memory in canonical form, NReq=478620341.
          There are     1 degrees of freedom in the 1st order CPHF.  IDoFFX=0.
 LinEq1:  Iter=  0 NonCon=     1 RMS=1.95D-03 Max=5.61D-02
 AX will form     1 AO Fock derivatives at one time.
 LinEq1:  Iter=  1 NonCon=     1 RMS=7.40D-04 Max=2.60D-02
 LinEq1:  Iter=  2 NonCon=     1 RMS=3.09D-04 Max=9.28D-03
 LinEq1:  Iter=  3 NonCon=     1 RMS=1.03D-04 Max=2.95D-03
 LinEq1:  Iter=  4 NonCon=     1 RMS=5.33D-05 Max=1.63D-03
 LinEq1:  Iter=  5 NonCon=     1 RMS=1.64D-05 Max=4.65D-04
 LinEq1:  Iter=  6 NonCon=     1 RMS=6.30D-06 Max=1.31D-04
 LinEq1:  Iter=  7 NonCon=     1 RMS=1.35D-06 Max=2.11D-05
 LinEq1:  Iter=  8 NonCon=     1 RMS=2.69D-07 Max=4.28D-06
 LinEq1:  Iter=  9 NonCon=     1 RMS=6.50D-08 Max=1.21D-06
 LinEq1:  Iter= 10 NonCon=     1 RMS=1.39D-08 Max=2.07D-07
 LinEq1:  Iter= 11 NonCon=     1 RMS=3.90D-09 Max=9.50D-08
 LinEq1:  Iter= 12 NonCon=     1 RMS=7.19D-10 Max=1.62D-08
 LinEq1:  Iter= 13 NonCon=     1 RMS=1.21D-10 Max=2.63D-09
 LinEq1:  Iter= 14 NonCon=     0 RMS=2.04D-11 Max=4.61D-10
 Linear equations converged to 1.000D-10 1.000D-09 after    14 iterations.
 End of Minotr Frequency-dependent properties file   721 does not exist.
 End of Minotr Frequency-dependent properties file   722 does not exist.

 **********************************************************************

            Population analysis using the QCI/CC density.

 **********************************************************************

     Natural Orbital Coefficients:
                           1         2         3         4         5
     Eigenvalues --     2.00002   2.00002   2.00001   2.00001   2.00001
   1 1   C  1S          0.34368  -0.13355   0.01703  -0.22649  -0.01356
   2        2S         -0.00946   0.00349  -0.00012   0.00243   0.00015
   3        3S          0.01328  -0.00522   0.00073  -0.00945  -0.00058
   4        4S         -0.01221   0.00457  -0.00038   0.00311  -0.00063
   5        5S         -0.00421   0.00165   0.00032  -0.00265  -0.00030
   6        6PX         0.00000   0.00000   0.00000   0.00000   0.00000
   7        6PY        -0.00098  -0.00249   0.00002  -0.00004  -0.00021
   8        6PZ         0.00158  -0.00056  -0.00002   0.00013   0.00004
   9        7PX         0.00000   0.00000   0.00000   0.00000   0.00000
  10        7PY        -0.00170  -0.00428   0.00025  -0.00001  -0.00039
  11        7PZ         0.00435  -0.00158   0.00004  -0.00083  -0.00002
  12        8PX         0.00000   0.00000   0.00000   0.00000   0.00000
  13        8PY        -0.00154  -0.00418  -0.00124  -0.00014  -0.00540
  14        8PZ         0.00354  -0.00133   0.00012  -0.00072   0.00107
  15        9PX         0.00000   0.00000   0.00000   0.00000   0.00000
  16        9PY         0.00027   0.00068   0.00165   0.00018  -0.00169
  17        9PZ         0.00020  -0.00008  -0.00006   0.00049   0.00003
  18       10D 0        0.00029  -0.00011   0.00002  -0.00019  -0.00003
  19       10D+1        0.00000   0.00000   0.00000   0.00000   0.00000
  20       10D-1        0.00015   0.00041  -0.00008   0.00000  -0.00004
  21       10D+2        0.00011  -0.00004  -0.00002   0.00016  -0.00001
  22       10D-2        0.00000   0.00000   0.00000   0.00000   0.00000
  23       11D 0       -0.00005   0.00004  -0.00002   0.00010  -0.00006
  24       11D+1        0.00000   0.00000   0.00000   0.00000   0.00000
  25       11D-1        0.00061   0.00152   0.00028   0.00003  -0.00033
  26       11D+2        0.00161  -0.00061   0.00005  -0.00052  -0.00003
  27       11D-2        0.00000   0.00000   0.00000   0.00000   0.00000
  28       12D 0       -0.00038   0.00017  -0.00002   0.00015  -0.00002
  29       12D+1        0.00000   0.00000   0.00000   0.00000   0.00000
  30       12D-1        0.00094   0.00245   0.00132   0.00015   0.00128
  31       12D+2        0.00092  -0.00033   0.00002  -0.00009   0.00008
  32       12D-2        0.00000   0.00000   0.00000   0.00000   0.00000
  33       13F 0        0.00015  -0.00005   0.00001  -0.00015  -0.00002
  34       13F+1        0.00000   0.00000   0.00000   0.00000   0.00000
  35       13F-1       -0.00001  -0.00001   0.00006   0.00001   0.00000
  36       13F+2        0.00001   0.00000   0.00000  -0.00003   0.00001
  37       13F-2        0.00000   0.00000   0.00000   0.00000   0.00000
  38       13F+3        0.00000   0.00000   0.00000   0.00000   0.00000
  39       13F-3       -0.00003  -0.00007  -0.00003  -0.00001  -0.00004
  40       14F 0       -0.00017   0.00007  -0.00005   0.00053   0.00009
  41       14F+1        0.00000   0.00000   0.00000   0.00000   0.00000
  42       14F-1        0.00027   0.00064   0.00003   0.00001  -0.00006
  43       14F+2       -0.00011   0.00006  -0.00005   0.00040  -0.00006
  44       14F-2        0.00000   0.00000   0.00000   0.00000   0.00000
  45       14F+3        0.00000   0.00000   0.00000   0.00000   0.00000
  46       14F-3        0.00007   0.00022   0.00012   0.00001   0.00027
  47 2   Br 1S         -0.02788   0.05431  -0.07360  -0.08886  -0.00033
  48        2S          0.10322  -0.20109   0.27411   0.33101   0.00126
  49        3S         -0.21815   0.42257  -0.59102  -0.71424  -0.00259
  50        4S         -0.00070   0.00133  -0.00172  -0.00241   0.00016
  51        5S         -0.01158   0.02250  -0.02861  -0.03438  -0.00009
  52        6S          0.00232  -0.00357  -0.00661  -0.00759  -0.00277
  53        7S          0.00218  -0.00042   0.00246   0.00165  -0.00282
  54        8PX         0.00000   0.00000   0.00000   0.00000   0.00000
  55        8PY         0.10162  -0.27266  -0.08882  -0.09490   0.15713
  56        8PZ         0.06416  -0.16274  -0.04505  -0.07981  -0.26124
  57        9PX         0.00000   0.00000   0.00000   0.00000   0.00000
  58        9PY        -0.26352   0.71236   0.24916   0.26512  -0.44369
  59        9PZ        -0.16711   0.42492   0.12564   0.22356   0.73614
  60       10PX         0.00000   0.00000   0.00000   0.00000   0.00000
  61       10PY         0.00189  -0.00147  -0.00002  -0.00078  -0.00117
  62       10PZ         0.00086  -0.00130  -0.00015  -0.00031   0.00122
  63       11PX         0.00000   0.00000   0.00000   0.00000   0.00000
  64       11PY        -0.01249   0.03379   0.01142   0.01207  -0.01973
  65       11PZ        -0.00801   0.02027   0.00572   0.01020   0.03280
  66       12PX         0.00000   0.00000   0.00000   0.00000   0.00000
  67       12PY         0.00181   0.00059   0.00131   0.00053  -0.00401
  68       12PZ         0.00076  -0.00003   0.00057   0.00069   0.00246
  69       13PX         0.00000   0.00000   0.00000   0.00000   0.00000
  70       13PY         0.00035  -0.00022   0.00022   0.00023  -0.00016
  71       13PZ         0.00029  -0.00010   0.00030   0.00009  -0.00062
  72       14D 0        0.00138  -0.00371  -0.00094  -0.00212  -0.00927
  73       14D+1        0.00000   0.00000   0.00000   0.00000   0.00000
  74       14D-1       -0.01241   0.03224   0.00481   0.00539  -0.00525
  75       14D+2        0.00747  -0.01975  -0.00329  -0.00458  -0.00503
  76       14D-2        0.00000   0.00000   0.00000   0.00000   0.00000
  77       15D 0        0.00018  -0.00031  -0.00005  -0.00015  -0.00057
  78       15D+1        0.00000   0.00000   0.00000   0.00000   0.00000
  79       15D-1       -0.00133   0.00322   0.00025   0.00032  -0.00032
  80       15D+2        0.00091  -0.00206  -0.00018  -0.00027  -0.00030
  81       15D-2        0.00000   0.00000   0.00000   0.00000   0.00000
  82       16D 0       -0.00004  -0.00020  -0.00003  -0.00002  -0.00034
  83       16D+1        0.00000   0.00000   0.00000   0.00000   0.00000
  84       16D-1        0.00079  -0.00098   0.00014  -0.00026  -0.00027
  85       16D+2       -0.00063   0.00064  -0.00005   0.00007  -0.00016
  86       16D-2        0.00000   0.00000   0.00000   0.00000   0.00000
  87       17D 0       -0.00003   0.00005   0.00005  -0.00002   0.00001
  88       17D+1        0.00000   0.00000   0.00000   0.00000   0.00000
  89       17D-1        0.00036  -0.00050   0.00004  -0.00003  -0.00039
  90       17D+2       -0.00052   0.00007  -0.00021   0.00006   0.00026
  91       17D-2        0.00000   0.00000   0.00000   0.00000   0.00000
  92       18F 0        0.00012  -0.00035  -0.00008  -0.00007   0.00005
  93       18F+1        0.00000   0.00000   0.00000   0.00000   0.00000
  94       18F-1       -0.00004   0.00014   0.00002   0.00003   0.00038
  95       18F+2        0.00020  -0.00051  -0.00009  -0.00010  -0.00002
  96       18F-2        0.00000   0.00000   0.00000   0.00000   0.00000
  97       18F+3        0.00000   0.00000   0.00000   0.00000   0.00000
  98       18F-3        0.00011  -0.00028  -0.00003  -0.00005   0.00015
  99       19F 0       -0.00017   0.00038   0.00005   0.00015  -0.00007
 100       19F+1        0.00000   0.00000   0.00000   0.00000   0.00000
 101       19F-1        0.00011  -0.00034   0.00000  -0.00010  -0.00038
 102       19F+2       -0.00042   0.00065   0.00003   0.00019   0.00003
 103       19F-2        0.00000   0.00000   0.00000   0.00000   0.00000
 104       19F+3        0.00000   0.00000   0.00000   0.00000   0.00000
 105       19F-3       -0.00027   0.00028  -0.00004   0.00005  -0.00018
 106 3   Br 1S         -0.05482  -0.02077   0.09228  -0.07140   0.00281
 107        2S          0.20291   0.07684  -0.34369   0.26594  -0.01059
 108        3S         -0.42672  -0.16023   0.74112  -0.57373   0.02309
 109        4S         -0.00137  -0.00052   0.00227  -0.00204  -0.00014
 110        5S         -0.02284  -0.00863   0.03586  -0.02761   0.00106
 111        6S          0.00448   0.00131   0.00821  -0.00599   0.00402
 112        7S          0.00191  -0.00118  -0.00280   0.00108   0.00324
 113        8PX         0.00000   0.00000   0.00000   0.00000   0.00000
 114        8PY        -0.25832  -0.13976  -0.10584   0.06725   0.10278
 115        8PZ         0.16048   0.08195   0.05887  -0.06527   0.18631
 116        9PX         0.00000   0.00000   0.00000   0.00000   0.00000
 117        9PY         0.67307   0.36643   0.29719  -0.18865  -0.29221
 118        9PZ        -0.41864  -0.21409  -0.16483   0.18378  -0.52445
 119       10PX         0.00000   0.00000   0.00000   0.00000   0.00000
 120       10PY        -0.00239   0.00017  -0.00017   0.00076  -0.00124
 121       10PZ         0.00152   0.00042   0.00022  -0.00026  -0.00073
 122       11PX         0.00000   0.00000   0.00000   0.00000   0.00000
 123       11PY         0.03196   0.01738   0.01358  -0.00855  -0.01300
 124       11PZ        -0.02003  -0.01018  -0.00750   0.00838  -0.02340
 125       12PX         0.00000   0.00000   0.00000   0.00000   0.00000
 126       12PY        -0.00104   0.00168   0.00138  -0.00015  -0.00396
 127       12PZ         0.00062  -0.00044  -0.00067   0.00052  -0.00125
 128       13PX         0.00000   0.00000   0.00000   0.00000   0.00000
 129       13PY        -0.00041   0.00007   0.00027  -0.00018  -0.00025
 130       13PZ         0.00029  -0.00012  -0.00032   0.00003   0.00063
 131       14D 0        0.00307   0.00165   0.00125  -0.00174   0.00630
 132       14D+1        0.00000   0.00000   0.00000   0.00000   0.00000
 133       14D-1        0.03285   0.01724   0.00607  -0.00393  -0.00265
 134       14D+2        0.01982   0.01054   0.00428  -0.00357   0.00400
 135       14D-2        0.00000   0.00000   0.00000   0.00000   0.00000
 136       15D 0        0.00030   0.00009   0.00008  -0.00013   0.00039
 137       15D+1        0.00000   0.00000   0.00000   0.00000   0.00000
 138       15D-1        0.00333   0.00165   0.00032  -0.00022  -0.00016
 139       15D+2        0.00215   0.00100   0.00023  -0.00020   0.00026
 140       15D-2        0.00000   0.00000   0.00000   0.00000   0.00000
 141       16D 0        0.00012   0.00019   0.00003  -0.00001   0.00021
 142       16D+1        0.00000   0.00000   0.00000   0.00000   0.00000
 143       16D-1       -0.00127  -0.00020   0.00010   0.00028  -0.00022
 144       16D+2       -0.00090  -0.00006   0.00004   0.00007   0.00005
 145       16D-2        0.00000   0.00000   0.00000   0.00000   0.00000
 146       17D 0       -0.00006   0.00000  -0.00005  -0.00003  -0.00008
 147       17D+1        0.00000   0.00000   0.00000   0.00000   0.00000
 148       17D-1       -0.00062  -0.00014   0.00003   0.00004  -0.00047
 149       17D+2       -0.00045   0.00031   0.00020   0.00011  -0.00036
 150       17D-2        0.00000   0.00000   0.00000   0.00000   0.00000
 151       18F 0        0.00033   0.00019   0.00009  -0.00005  -0.00003
 152       18F+1        0.00000   0.00000   0.00000   0.00000   0.00000
 153       18F-1        0.00014   0.00009   0.00002  -0.00003   0.00028
 154       18F+2        0.00052   0.00027   0.00011  -0.00007   0.00002
 155       18F-2        0.00000   0.00000   0.00000   0.00000   0.00000
 156       18F+3        0.00000   0.00000   0.00000   0.00000   0.00000
 157       18F-3       -0.00028  -0.00014  -0.00003   0.00003   0.00012
 158       19F 0       -0.00039  -0.00017  -0.00008   0.00013   0.00005
 159       19F+1        0.00000   0.00000   0.00000   0.00000   0.00000
 160       19F-1       -0.00033  -0.00020  -0.00002   0.00010  -0.00025
 161       19F+2       -0.00077  -0.00021  -0.00006   0.00017  -0.00001
 162       19F-2        0.00000   0.00000   0.00000   0.00000   0.00000
 163       19F+3        0.00000   0.00000   0.00000   0.00000   0.00000
 164       19F-3        0.00040   0.00004  -0.00004  -0.00005  -0.00015
 165 4   O  1S         -0.06387   0.02752  -0.00371   0.07003   0.02832
 166        2S          0.00091  -0.00042   0.00010  -0.00157  -0.00055
 167        3S         -0.00267   0.00115  -0.00015   0.00290   0.00120
 168        4S          0.00112  -0.00047   0.00007  -0.00065  -0.00031
 169        5S          0.00062  -0.00028  -0.00012   0.00102  -0.00037
 170        6PX         0.00000   0.00000   0.00000   0.00000   0.00000
 171        6PY         0.00021   0.00060   0.00030   0.00005   0.00016
 172        6PZ         0.00052  -0.00022   0.00003  -0.00049  -0.00011
 173        7PX         0.00000   0.00000   0.00000   0.00000   0.00000
 174        7PY         0.00024   0.00070   0.00032   0.00006   0.00031
 175        7PZ         0.00061  -0.00024   0.00003  -0.00046  -0.00001
 176        8PX         0.00000   0.00000   0.00000   0.00000   0.00000
 177        8PY        -0.00015  -0.00021  -0.00010   0.00000   0.00108
 178        8PZ         0.00035  -0.00013   0.00006  -0.00086  -0.00024
 179        9PX         0.00000   0.00000   0.00000   0.00000   0.00000
 180        9PY        -0.00026  -0.00065  -0.00064  -0.00006   0.00016
 181        9PZ         0.00017  -0.00005   0.00005  -0.00039   0.00012
 182       10D 0       -0.00003   0.00001   0.00000   0.00002   0.00001
 183       10D+1        0.00000   0.00000   0.00000   0.00000   0.00000
 184       10D-1        0.00001   0.00003  -0.00002   0.00000   0.00001
 185       10D+2        0.00003  -0.00001   0.00000   0.00000  -0.00001
 186       10D-2        0.00000   0.00000   0.00000   0.00000   0.00000
 187       11D 0       -0.00023   0.00009  -0.00001   0.00016   0.00000
 188       11D+1        0.00000   0.00000   0.00000   0.00000   0.00000
 189       11D-1        0.00007   0.00014   0.00010   0.00001  -0.00008
 190       11D+2       -0.00009   0.00003   0.00001  -0.00003   0.00001
 191       11D-2        0.00000   0.00000   0.00000   0.00000   0.00000
 192       12D 0       -0.00040   0.00016  -0.00002   0.00029   0.00014
 193       12D+1        0.00000   0.00000   0.00000   0.00000   0.00000
 194       12D-1        0.00013   0.00029   0.00009   0.00001  -0.00034
 195       12D+2       -0.00021   0.00008   0.00002  -0.00012  -0.00001
 196       12D-2        0.00000   0.00000   0.00000   0.00000   0.00000
 197       13F 0       -0.00008   0.00003   0.00000   0.00004   0.00000
 198       13F+1        0.00000   0.00000   0.00000   0.00000   0.00000
 199       13F-1        0.00000  -0.00001   0.00000   0.00000   0.00003
 200       13F+2        0.00000   0.00000   0.00000  -0.00001   0.00000
 201       13F-2        0.00000   0.00000   0.00000   0.00000   0.00000
 202       13F+3        0.00000   0.00000   0.00000   0.00000   0.00000
 203       13F-3       -0.00001  -0.00002   0.00001   0.00000  -0.00001
 204       14F 0        0.00024  -0.00009   0.00000  -0.00008  -0.00001
 205       14F+1        0.00000   0.00000   0.00000   0.00000   0.00000
 206       14F-1       -0.00003  -0.00005  -0.00005   0.00000  -0.00003
 207       14F+2        0.00013  -0.00004  -0.00001   0.00003   0.00000
 208       14F-2        0.00000   0.00000   0.00000   0.00000   0.00000
 209       14F+3        0.00000   0.00000   0.00000   0.00000   0.00000
 210       14F-3        0.00002   0.00005  -0.00003   0.00000   0.00001
                           6         7         8         9        10
     Eigenvalues --     2.00001   2.00001   2.00001   2.00001   2.00000
   1 1   C  1S         -0.06961   0.00000   0.44599   0.00000   0.75545
   2        2S          0.00072   0.00000  -0.00529   0.00000  -0.00716
   3        3S         -0.00297   0.00000   0.01862   0.00000   0.03174
   4        4S         -0.00331   0.00000   0.00150   0.00000   0.00272
   5        5S         -0.00152   0.00000   0.00075   0.00000   0.00266
   6        6PX         0.00000   0.00001   0.00000   0.00062   0.00000
   7        6PY         0.00005   0.00000  -0.00001   0.00000   0.00001
   8        6PZ         0.00030   0.00000  -0.00086   0.00000  -0.00115
   9        7PX         0.00000   0.00001   0.00000   0.00104   0.00000
  10        7PY         0.00011   0.00000  -0.00003   0.00000  -0.00008
  11        7PZ        -0.00002   0.00000  -0.00079   0.00000   0.00322
  12        8PX         0.00000  -0.00001   0.00000   0.00130   0.00000
  13        8PY         0.00105   0.00000  -0.00003   0.00000  -0.00002
  14        8PZ         0.00562   0.00000  -0.00022   0.00000  -0.00151
  15        9PX         0.00000   0.00000   0.00000   0.00004   0.00000
  16        9PY         0.00031   0.00000   0.00002   0.00000   0.00001
  17        9PZ         0.00015   0.00000  -0.00020   0.00000  -0.00014
  18       10D 0       -0.00016   0.00000   0.00010   0.00000   0.00067
  19       10D+1        0.00000   0.00000   0.00000  -0.00010   0.00000
  20       10D-1        0.00001   0.00000   0.00000   0.00000  -0.00001
  21       10D+2       -0.00007   0.00000  -0.00015   0.00000  -0.00020
  22       10D-2        0.00000   0.00009   0.00000   0.00000   0.00000
  23       11D 0       -0.00036   0.00000  -0.00087   0.00000   0.00096
  24       11D+1        0.00000   0.00000   0.00000  -0.00075   0.00000
  25       11D-1        0.00007   0.00000   0.00004   0.00000   0.00004
  26       11D+2       -0.00019   0.00000   0.00031   0.00000   0.00106
  27       11D-2        0.00000   0.00069   0.00000   0.00002   0.00000
  28       12D 0       -0.00021   0.00000   0.00003   0.00000  -0.00114
  29       12D+1        0.00000   0.00000   0.00000  -0.00064   0.00000
  30       12D-1       -0.00026   0.00000   0.00002   0.00000   0.00002
  31       12D+2        0.00039   0.00000  -0.00022   0.00000  -0.00102
  32       12D-2        0.00000  -0.00012   0.00000   0.00002   0.00000
  33       13F 0       -0.00011   0.00000   0.00026   0.00000   0.00036
  34       13F+1        0.00000   0.00000   0.00000  -0.00006   0.00000
  35       13F-1        0.00001   0.00000  -0.00001   0.00000  -0.00001
  36       13F+2        0.00003   0.00000   0.00000   0.00000  -0.00009
  37       13F-2        0.00000   0.00001   0.00000   0.00000   0.00000
  38       13F+3        0.00000   0.00000   0.00000   0.00002   0.00000
  39       13F-3        0.00001   0.00000   0.00000   0.00000   0.00000
  40       14F 0        0.00049   0.00000  -0.00118   0.00000  -0.00065
  41       14F+1        0.00000   0.00000   0.00000   0.00008   0.00000
  42       14F-1        0.00001   0.00000   0.00002   0.00000   0.00000
  43       14F+2       -0.00029   0.00000  -0.00068   0.00000  -0.00061
  44       14F-2        0.00000  -0.00021   0.00000   0.00000   0.00000
  45       14F+3        0.00000   0.00000   0.00000  -0.00036   0.00000
  46       14F-3       -0.00005   0.00000   0.00001   0.00000   0.00000
  47 2   Br 1S          0.00676   0.00000  -0.00221   0.00000   0.00020
  48        2S         -0.02542   0.00000   0.00866   0.00000   0.00006
  49        3S          0.05586   0.00000  -0.02262   0.00000  -0.00891
  50        4S         -0.00002   0.00000   0.00050   0.00000   0.00093
  51        5S          0.00262   0.00000  -0.00091   0.00000  -0.00059
  52        6S          0.00388   0.00000  -0.00065   0.00000  -0.00094
  53        7S          0.00162   0.00000  -0.00016   0.00000  -0.00109
  54        8PX         0.00000   0.26480   0.00000  -0.26034   0.00000
  55        8PY         0.13235   0.00000  -0.04907   0.00000  -0.08697
  56        8PZ        -0.16029   0.00000  -0.09277   0.00000  -0.05112
  57        9PX         0.00000  -0.74897   0.00000   0.73517   0.00000
  58        9PY        -0.36790   0.00000   0.11818   0.00000   0.20758
  59        9PZ         0.45449   0.00000   0.24960   0.00000   0.12281
  60       10PX         0.00000  -0.00132   0.00000   0.00071   0.00000
  61       10PY         0.00044   0.00000  -0.00053   0.00000  -0.00044
  62       10PZ         0.00114   0.00000   0.00002   0.00000   0.00016
  63       11PX         0.00000  -0.03347   0.00000   0.03251   0.00000
  64       11PY        -0.01635   0.00000   0.00523   0.00000   0.00878
  65       11PZ         0.02016   0.00000   0.01099   0.00000   0.00512
  66       12PX         0.00000  -0.00393   0.00000   0.00270   0.00000
  67       12PY         0.00059   0.00000  -0.00017   0.00000  -0.00009
  68       12PZ         0.00279   0.00000   0.00076   0.00000  -0.00055
  69       13PX         0.00000   0.00032   0.00000  -0.00024   0.00000
  70       13PY         0.00032   0.00000  -0.00005   0.00000  -0.00025
  71       13PZ         0.00013   0.00000  -0.00003   0.00000  -0.00019
  72       14D 0       -0.00605   0.00000  -0.00274   0.00000  -0.00123
  73       14D+1        0.00000  -0.00097   0.00000   0.00104   0.00000
  74       14D-1       -0.00617   0.00000   0.00764   0.00000   0.00949
  75       14D+2       -0.00193   0.00000  -0.00632   0.00000  -0.00604
  76       14D-2        0.00000  -0.00207   0.00000   0.00197   0.00000
  77       15D 0       -0.00033   0.00000  -0.00021   0.00000  -0.00011
  78       15D+1        0.00000  -0.00016   0.00000   0.00017   0.00000
  79       15D-1       -0.00038   0.00000   0.00070   0.00000   0.00084
  80       15D+2       -0.00006   0.00000  -0.00061   0.00000  -0.00059
  81       15D-2        0.00000  -0.00027   0.00000   0.00031   0.00000
  82       16D 0       -0.00031   0.00000  -0.00009   0.00000   0.00011
  83       16D+1        0.00000   0.00010   0.00000  -0.00015   0.00000
  84       16D-1       -0.00006   0.00000   0.00025   0.00000   0.00071
  85       16D+2       -0.00029   0.00000   0.00000   0.00000  -0.00020
  86       16D-2        0.00000   0.00017   0.00000  -0.00017   0.00000
  87       17D 0       -0.00023   0.00000   0.00002   0.00000  -0.00011
  88       17D+1        0.00000  -0.00009   0.00000  -0.00009   0.00000
  89       17D-1        0.00027   0.00000  -0.00004   0.00000  -0.00022
  90       17D+2       -0.00037   0.00000   0.00005   0.00000   0.00002
  91       17D-2        0.00000  -0.00016   0.00000  -0.00022   0.00000
  92       18F 0        0.00007   0.00000  -0.00008   0.00000  -0.00012
  93       18F+1        0.00000  -0.00001   0.00000   0.00001   0.00000
  94       18F-1        0.00025   0.00000   0.00008   0.00000   0.00008
  95       18F+2        0.00001   0.00000  -0.00014   0.00000  -0.00022
  96       18F-2        0.00000  -0.00022   0.00000   0.00024   0.00000
  97       18F+3        0.00000   0.00018   0.00000  -0.00022   0.00000
  98       18F-3        0.00006   0.00000  -0.00007   0.00000  -0.00011
  99       19F 0       -0.00007   0.00000  -0.00009   0.00000  -0.00011
 100       19F+1        0.00000   0.00001   0.00000  -0.00003   0.00000
 101       19F-1       -0.00031   0.00000   0.00000   0.00000   0.00017
 102       19F+2        0.00003   0.00000   0.00000   0.00000  -0.00011
 103       19F-2        0.00000   0.00017   0.00000  -0.00025   0.00000
 104       19F+3        0.00000  -0.00014   0.00000   0.00024   0.00000
 105       19F-3       -0.00007   0.00000   0.00010   0.00000   0.00001
 106 3   Br 1S          0.00551   0.00000  -0.00187   0.00000   0.00046
 107        2S         -0.02072   0.00000   0.00737   0.00000  -0.00090
 108        3S          0.04559   0.00000  -0.01982   0.00000  -0.00710
 109        4S          0.00003   0.00000   0.00052   0.00000   0.00095
 110        5S          0.00215   0.00000  -0.00079   0.00000  -0.00052
 111        6S          0.00257   0.00000  -0.00059   0.00000  -0.00087
 112        7S          0.00051   0.00000  -0.00024   0.00000  -0.00113
 113        8PX         0.00000  -0.25979   0.00000  -0.26535   0.00000
 114        8PY        -0.17890   0.00000   0.04430   0.00000   0.08534
 115        8PZ        -0.24178   0.00000  -0.09131   0.00000  -0.05042
 116        9PX         0.00000   0.73481   0.00000   0.74932   0.00000
 117        9PY         0.50011   0.00000  -0.10472   0.00000  -0.20153
 118        9PZ         0.68429   0.00000   0.24546   0.00000   0.11986
 119       10PX         0.00000   0.00129   0.00000   0.00072   0.00000
 120       10PY         0.00001   0.00000   0.00054   0.00000   0.00043
 121       10PZ         0.00148   0.00000   0.00005   0.00000   0.00018
 122       11PX         0.00000   0.03284   0.00000   0.03314   0.00000
 123       11PY         0.02221   0.00000  -0.00462   0.00000  -0.00849
 124       11PZ         0.03040   0.00000   0.01080   0.00000   0.00498
 125       12PX         0.00000   0.00385   0.00000   0.00272   0.00000
 126       12PY         0.00085   0.00000   0.00026   0.00000   0.00011
 127       12PZ         0.00342   0.00000   0.00074   0.00000  -0.00057
 128       13PX         0.00000  -0.00032   0.00000  -0.00025   0.00000
 129       13PY        -0.00024   0.00000   0.00006   0.00000   0.00025
 130       13PZ        -0.00010   0.00000  -0.00004   0.00000  -0.00019
 131       14D 0       -0.00867   0.00000  -0.00252   0.00000  -0.00106
 132       14D+1        0.00000   0.00128   0.00000   0.00140   0.00000
 133       14D-1        0.00735   0.00000  -0.00778   0.00000  -0.00987
 134       14D+2       -0.00365   0.00000  -0.00633   0.00000  -0.00618
 135       14D-2        0.00000  -0.00242   0.00000  -0.00240   0.00000
 136       15D 0       -0.00048   0.00000  -0.00019   0.00000  -0.00009
 137       15D+1        0.00000   0.00018   0.00000   0.00021   0.00000
 138       15D-1        0.00044   0.00000  -0.00071   0.00000  -0.00088
 139       15D+2       -0.00016   0.00000  -0.00061   0.00000  -0.00061
 140       15D-2        0.00000  -0.00030   0.00000  -0.00036   0.00000
 141       16D 0       -0.00042   0.00000  -0.00008   0.00000   0.00013
 142       16D+1        0.00000  -0.00010   0.00000  -0.00016   0.00000
 143       16D-1        0.00015   0.00000  -0.00026   0.00000  -0.00074
 144       16D+2       -0.00034   0.00000   0.00001   0.00000  -0.00021
 145       16D-2        0.00000   0.00017   0.00000   0.00018   0.00000
 146       17D 0       -0.00022   0.00000   0.00002   0.00000  -0.00011
 147       17D+1        0.00000   0.00009   0.00000  -0.00010   0.00000
 148       17D-1       -0.00011   0.00000   0.00004   0.00000   0.00022
 149       17D+2       -0.00026   0.00000   0.00007   0.00000   0.00002
 150       17D-2        0.00000  -0.00015   0.00000   0.00023   0.00000
 151       18F 0        0.00009   0.00000  -0.00007   0.00000  -0.00012
 152       18F+1        0.00000   0.00001   0.00000   0.00001   0.00000
 153       18F-1       -0.00037   0.00000  -0.00008   0.00000  -0.00008
 154       18F+2        0.00000   0.00000  -0.00014   0.00000  -0.00022
 155       18F-2        0.00000  -0.00022   0.00000  -0.00025   0.00000
 156       18F+3        0.00000  -0.00018   0.00000  -0.00022   0.00000
 157       18F-3       -0.00011   0.00000   0.00006   0.00000   0.00010
 158       19F 0       -0.00009   0.00000  -0.00009   0.00000  -0.00011
 159       19F+1        0.00000  -0.00001   0.00000  -0.00003   0.00000
 160       19F-1        0.00043   0.00000  -0.00001   0.00000  -0.00018
 161       19F+2        0.00003   0.00000   0.00000   0.00000  -0.00011
 162       19F-2        0.00000   0.00017   0.00000   0.00026   0.00000
 163       19F+3        0.00000   0.00014   0.00000   0.00024   0.00000
 164       19F-3        0.00013   0.00000  -0.00010   0.00000  -0.00001
 165 4   O  1S          0.16201   0.00000  -0.79483   0.00000   0.53929
 166        2S         -0.00311   0.00000   0.01531   0.00000  -0.00889
 167        3S          0.00685   0.00000  -0.03362   0.00000   0.02337
 168        4S         -0.00153   0.00000   0.00255   0.00000  -0.00140
 169        5S         -0.00187   0.00000  -0.00046   0.00000  -0.00136
 170        6PX         0.00000   0.00000   0.00000  -0.00048   0.00000
 171        6PY        -0.00003   0.00000  -0.00003   0.00000   0.00002
 172        6PZ        -0.00064   0.00000   0.00395   0.00000  -0.00040
 173        7PX         0.00000   0.00000   0.00000  -0.00056   0.00000
 174        7PY        -0.00007   0.00000   0.00000   0.00000   0.00000
 175        7PZ        -0.00011   0.00000   0.00161   0.00000   0.00261
 176        8PX         0.00000   0.00000   0.00000  -0.00036   0.00000
 177        8PY        -0.00023   0.00000  -0.00003   0.00000  -0.00001
 178        8PZ        -0.00133   0.00000   0.00333   0.00000   0.00227
 179        9PX         0.00000   0.00000   0.00000   0.00004   0.00000
 180        9PY        -0.00003   0.00000  -0.00001   0.00000   0.00000
 181        9PZ         0.00064   0.00000   0.00053   0.00000   0.00042
 182       10D 0        0.00004   0.00000  -0.00021   0.00000   0.00008
 183       10D+1        0.00000   0.00000   0.00000   0.00000   0.00000
 184       10D-1        0.00000   0.00000   0.00000   0.00000   0.00000
 185       10D+2       -0.00003   0.00000   0.00005   0.00000  -0.00002
 186       10D-2        0.00000   0.00001   0.00000   0.00000   0.00000
 187       11D 0        0.00003   0.00000   0.00016   0.00000  -0.00102
 188       11D+1        0.00000   0.00000   0.00000  -0.00009   0.00000
 189       11D-1        0.00002   0.00000   0.00000   0.00000   0.00002
 190       11D+2        0.00005   0.00000   0.00014   0.00000  -0.00006
 191       11D-2        0.00000  -0.00002   0.00000   0.00000   0.00000
 192       12D 0        0.00076   0.00000  -0.00050   0.00000  -0.00057
 193       12D+1        0.00000   0.00000   0.00000  -0.00010   0.00000
 194       12D-1        0.00007   0.00000   0.00002   0.00000   0.00002
 195       12D+2       -0.00001   0.00000   0.00029   0.00000   0.00040
 196       12D-2        0.00000   0.00003   0.00000  -0.00001   0.00000
 197       13F 0        0.00001   0.00000  -0.00010   0.00000  -0.00010
 198       13F+1        0.00000   0.00000   0.00000   0.00000   0.00000
 199       13F-1       -0.00001   0.00000   0.00000   0.00000   0.00000
 200       13F+2       -0.00001   0.00000   0.00002   0.00000  -0.00001
 201       13F-2        0.00000   0.00000   0.00000   0.00000   0.00000
 202       13F+3        0.00000   0.00000   0.00000  -0.00001   0.00000
 203       13F-3        0.00000   0.00000   0.00000   0.00000   0.00000
 204       14F 0       -0.00008   0.00000   0.00001   0.00000   0.00036
 205       14F+1        0.00000   0.00000   0.00000   0.00007   0.00000
 206       14F-1        0.00000   0.00000   0.00000   0.00000  -0.00001
 207       14F+2        0.00002   0.00000  -0.00009   0.00000  -0.00003
 208       14F-2        0.00000   0.00003   0.00000   0.00000   0.00000
 209       14F+3        0.00000   0.00000   0.00000   0.00004   0.00000
 210       14F-3        0.00000   0.00000   0.00000   0.00000   0.00000
                          11        12        13        14        15
     Eigenvalues --     2.00000   2.00000   2.00000   2.00000   2.00000
   1 1   C  1S         -0.00061  -0.00127   0.00008   0.01351   0.00000
   2        2S          0.00001   0.00005  -0.00001  -0.00011   0.00000
   3        3S         -0.00003  -0.00005   0.00000   0.00062   0.00000
   4        4S          0.00000   0.00036  -0.00006  -0.00105   0.00000
   5        5S          0.00000   0.00019  -0.00003  -0.00038   0.00000
   6        6PX         0.00000   0.00000   0.00000   0.00000   0.00001
   7        6PY        -0.00003   0.00000  -0.00001   0.00000   0.00000
   8        6PZ         0.00000   0.00001   0.00000  -0.00004   0.00000
   9        7PX         0.00000   0.00000   0.00000   0.00000   0.00000
  10        7PY         0.00006   0.00000   0.00003   0.00000   0.00000
  11        7PZ         0.00000   0.00007  -0.00001   0.00010   0.00000
  12        8PX         0.00000   0.00000   0.00000   0.00000  -0.00006
  13        8PY         0.00039   0.00010   0.00060   0.00001   0.00000
  14        8PZ        -0.00001  -0.00053   0.00008   0.00038   0.00000
  15        9PX         0.00000   0.00000   0.00000   0.00000   0.00000
  16        9PY        -0.00010   0.00001   0.00010   0.00000   0.00000
  17        9PZ         0.00000  -0.00001   0.00000   0.00005   0.00000
  18       10D 0        0.00000   0.00000   0.00000   0.00001   0.00000
  19       10D+1        0.00000   0.00000   0.00000   0.00000   0.00000
  20       10D-1        0.00000   0.00000   0.00000   0.00000   0.00000
  21       10D+2        0.00000   0.00000   0.00000   0.00000   0.00000
  22       10D-2        0.00000   0.00000   0.00000   0.00000   0.00000
  23       11D 0        0.00000   0.00004  -0.00001   0.00001   0.00000
  24       11D+1        0.00000   0.00000   0.00000   0.00000   0.00005
  25       11D-1       -0.00008  -0.00001  -0.00002   0.00000   0.00000
  26       11D+2        0.00000   0.00001   0.00000   0.00014   0.00000
  27       11D-2        0.00000   0.00000   0.00000   0.00000  -0.00001
  28       12D 0        0.00000  -0.00001   0.00000   0.00008   0.00000
  29       12D+1        0.00000   0.00000   0.00000   0.00000   0.00003
  30       12D-1       -0.00019  -0.00003  -0.00020   0.00000   0.00000
  31       12D+2        0.00000  -0.00005   0.00001   0.00017   0.00000
  32       12D-2        0.00000   0.00000   0.00000   0.00000   0.00001
  33       13F 0        0.00000   0.00001   0.00000   0.00000   0.00000
  34       13F+1        0.00000   0.00000   0.00000   0.00000   0.00001
  35       13F-1        0.00000   0.00000   0.00001   0.00000   0.00000
  36       13F+2        0.00000   0.00000   0.00000   0.00000   0.00000
  37       13F-2        0.00000   0.00000   0.00000   0.00000   0.00000
  38       13F+3        0.00000   0.00000   0.00000   0.00000   0.00000
  39       13F-3        0.00001   0.00000   0.00001   0.00000   0.00000
  40       14F 0        0.00000  -0.00003   0.00001   0.00002   0.00000
  41       14F+1        0.00000   0.00000   0.00000   0.00000  -0.00001
  42       14F-1       -0.00001  -0.00001  -0.00008   0.00000   0.00000
  43       14F+2        0.00000   0.00005  -0.00001   0.00001   0.00000
  44       14F-2        0.00000   0.00000   0.00000   0.00000   0.00001
  45       14F+3        0.00000   0.00000   0.00000   0.00000   0.00004
  46       14F-3       -0.00002  -0.00001  -0.00006   0.00000   0.00000
  47 2   Br 1S         -0.05529   0.00016  -0.01233  -0.04008   0.00000
  48        2S          0.17093   0.00018   0.04066   0.12832   0.00000
  49        3S          0.01487  -0.00002   0.00378   0.01320   0.00000
  50        4S         -0.00012   0.00001  -0.00008  -0.00015   0.00000
  51        5S          0.00044   0.00000   0.00010   0.00038   0.00000
  52        6S          0.00048  -0.00021   0.00053   0.00066   0.00000
  53        7S         -0.00014  -0.00009   0.00026   0.00017   0.00000
  54        8PX         0.00000   0.00000   0.00000  -0.00001   0.47467
  55        8PY         0.65959  -0.42244  -0.12209   0.57978   0.00000
  56        8PZ         0.15831   0.69228   0.58170   0.39596   0.00000
  57        9PX         0.00000   0.00000   0.00000   0.00000  -0.01062
  58        9PY        -0.00030   0.00869   0.00715   0.00711   0.00000
  59        9PZ         0.00558  -0.01543  -0.01008   0.00327   0.00000
  60       10PX         0.00000   0.00000   0.00000   0.00000   0.00018
  61       10PY         0.00033  -0.00023  -0.00001   0.00033   0.00000
  62       10PZ         0.00012   0.00029   0.00031   0.00021   0.00000
  63       11PX         0.00000   0.00000   0.00000   0.00000  -0.00081
  64       11PY        -0.00057   0.00069   0.00036  -0.00024   0.00000
  65       11PZ         0.00006  -0.00117  -0.00089  -0.00022   0.00000
  66       12PX         0.00000   0.00000   0.00000   0.00000  -0.00002
  67       12PY         0.00005  -0.00007   0.00029   0.00020   0.00000
  68       12PZ         0.00008  -0.00012   0.00008   0.00020   0.00000
  69       13PX         0.00000   0.00000   0.00000   0.00000   0.00001
  70       13PY        -0.00001  -0.00003   0.00002   0.00002   0.00000
  71       13PZ        -0.00003   0.00001   0.00005   0.00001   0.00000
  72       14D 0       -0.00008   0.00038   0.00027   0.00002   0.00000
  73       14D+1        0.00000   0.00000   0.00000   0.00000  -0.00002
  74       14D-1       -0.00033   0.00019   0.00007  -0.00007   0.00000
  75       14D+2        0.00015   0.00020   0.00019   0.00009   0.00000
  76       14D-2        0.00000   0.00000   0.00000   0.00000  -0.00006
  77       15D 0        0.00000   0.00001   0.00001   0.00000   0.00000
  78       15D+1        0.00000   0.00000   0.00000   0.00000  -0.00001
  79       15D-1       -0.00005   0.00000  -0.00001  -0.00004   0.00000
  80       15D+2        0.00003   0.00000   0.00001   0.00003   0.00000
  81       15D-2        0.00000   0.00000   0.00000   0.00000  -0.00002
  82       16D 0        0.00000   0.00007   0.00006   0.00000   0.00000
  83       16D+1        0.00000   0.00000   0.00000   0.00000   0.00002
  84       16D-1        0.00007   0.00003   0.00007   0.00012   0.00000
  85       16D+2       -0.00005   0.00005   0.00000  -0.00010   0.00000
  86       16D-2        0.00000   0.00000   0.00000   0.00000   0.00003
  87       17D 0        0.00000   0.00000  -0.00003   0.00002   0.00000
  88       17D+1        0.00000   0.00000   0.00000   0.00000   0.00001
  89       17D-1        0.00002  -0.00002   0.00004   0.00006   0.00000
  90       17D+2        0.00001   0.00002  -0.00005  -0.00003   0.00000
  91       17D-2        0.00000   0.00000   0.00000   0.00000   0.00002
  92       18F 0        0.00000   0.00000   0.00000   0.00000   0.00000
  93       18F+1        0.00000   0.00000   0.00000   0.00000   0.00000
  94       18F-1        0.00000  -0.00001   0.00000   0.00000   0.00000
  95       18F+2       -0.00001   0.00000   0.00000  -0.00001   0.00000
  96       18F-2        0.00000   0.00000   0.00000   0.00000   0.00000
  97       18F+3        0.00000   0.00000   0.00000   0.00000   0.00000
  98       18F-3        0.00000   0.00000  -0.00001  -0.00001   0.00000
  99       19F 0       -0.00002   0.00000   0.00000  -0.00001   0.00000
 100       19F+1        0.00000   0.00000   0.00000   0.00000   0.00000
 101       19F-1        0.00001   0.00004   0.00003   0.00001   0.00000
 102       19F+2       -0.00002   0.00000  -0.00001  -0.00004   0.00000
 103       19F-2        0.00000   0.00000   0.00000   0.00000   0.00001
 104       19F+3        0.00000   0.00000   0.00000   0.00000  -0.00002
 105       19F-3       -0.00001   0.00001   0.00001  -0.00002   0.00000
 106 3   Br 1S          0.05430   0.00412   0.01215  -0.03680   0.00000
 107        2S         -0.16800  -0.01276  -0.04044   0.11836   0.00000
 108        3S         -0.01508  -0.00127  -0.00381   0.01275   0.00000
 109        4S          0.00012   0.00003   0.00007  -0.00015   0.00000
 110        5S         -0.00045  -0.00003  -0.00011   0.00037   0.00000
 111        6S         -0.00050  -0.00037  -0.00044   0.00066   0.00000
 112        7S          0.00014  -0.00016  -0.00022   0.00018   0.00000
 113        8PX         0.00000   0.00000   0.00000   0.00000   0.88969
 114        8PY         0.67054   0.37298  -0.25230  -0.56143   0.00000
 115        8PZ        -0.17979   0.46814  -0.77117   0.39137   0.00000
 116        9PX         0.00000   0.00000   0.00000   0.00000  -0.02029
 117        9PY         0.00030  -0.00613   0.00986  -0.00713   0.00000
 118        9PZ        -0.00585  -0.01160   0.01445   0.00328   0.00000
 119       10PX         0.00000   0.00000   0.00000   0.00000   0.00035
 120       10PY         0.00033   0.00022  -0.00008  -0.00032   0.00000
 121       10PZ        -0.00013   0.00017  -0.00039   0.00021   0.00000
 122       11PX         0.00000   0.00000   0.00000   0.00000  -0.00153
 123       11PY        -0.00056  -0.00056   0.00058   0.00022   0.00000
 124       11PZ        -0.00006  -0.00083   0.00121  -0.00022   0.00000
 125       12PX         0.00000   0.00000   0.00000   0.00000  -0.00009
 126       12PY         0.00005   0.00016   0.00026  -0.00020   0.00000
 127       12PZ        -0.00008  -0.00014  -0.00004   0.00020   0.00000
 128       13PX         0.00000   0.00000   0.00000   0.00000   0.00003
 129       13PY        -0.00001   0.00003   0.00001  -0.00002   0.00000
 130       13PZ         0.00003  -0.00001  -0.00005   0.00002   0.00000
 131       14D 0        0.00008   0.00027  -0.00036   0.00002   0.00000
 132       14D+1        0.00000   0.00000   0.00000   0.00000  -0.00006
 133       14D-1       -0.00032  -0.00016   0.00012   0.00007   0.00000
 134       14D+2       -0.00015   0.00014  -0.00025   0.00008   0.00000
 135       14D-2        0.00000   0.00000   0.00000   0.00000   0.00013
 136       15D 0        0.00000   0.00000  -0.00001   0.00000   0.00000
 137       15D+1        0.00000   0.00000   0.00000   0.00000  -0.00002
 138       15D-1       -0.00005   0.00000  -0.00001   0.00004   0.00000
 139       15D+2       -0.00003   0.00000  -0.00001   0.00003   0.00000
 140       15D-2        0.00000   0.00000   0.00000   0.00000   0.00003
 141       16D 0        0.00000   0.00005  -0.00008   0.00000   0.00000
 142       16D+1        0.00000   0.00000   0.00000   0.00000   0.00003
 143       16D-1        0.00008  -0.00001   0.00007  -0.00012   0.00000
 144       16D+2        0.00006   0.00005  -0.00001  -0.00010   0.00000
 145       16D-2        0.00000   0.00000   0.00000   0.00000  -0.00005
 146       17D 0        0.00000   0.00001   0.00002   0.00002   0.00000
 147       17D+1        0.00000   0.00000   0.00000   0.00000   0.00000
 148       17D-1        0.00002   0.00003   0.00003  -0.00006   0.00000
 149       17D+2       -0.00001   0.00003   0.00004  -0.00003   0.00000
 150       17D-2        0.00000   0.00000   0.00000   0.00000  -0.00001
 151       18F 0        0.00000   0.00000   0.00000   0.00000   0.00000
 152       18F+1        0.00000   0.00000   0.00000   0.00000   0.00000
 153       18F-1        0.00000   0.00001   0.00000   0.00000   0.00000
 154       18F+2        0.00001   0.00000   0.00000  -0.00001   0.00000
 155       18F-2        0.00000   0.00000   0.00000   0.00000   0.00001
 156       18F+3        0.00000   0.00000   0.00000   0.00000   0.00000
 157       18F-3        0.00000   0.00000   0.00000   0.00001   0.00000
 158       19F 0        0.00002   0.00000   0.00000  -0.00001   0.00000
 159       19F+1        0.00000   0.00000   0.00000   0.00000   0.00000
 160       19F-1        0.00001  -0.00003   0.00004  -0.00001   0.00000
 161       19F+2        0.00002   0.00000   0.00001  -0.00004   0.00000
 162       19F-2        0.00000   0.00000   0.00000   0.00000  -0.00002
 163       19F+3        0.00000   0.00000   0.00000   0.00000  -0.00002
 164       19F-3       -0.00001  -0.00001   0.00001   0.00002   0.00000
 165 4   O  1S         -0.00020  -0.00046   0.00004   0.00404   0.00000
 166        2S          0.00000   0.00000   0.00000  -0.00010   0.00000
 167        3S         -0.00001  -0.00002   0.00000   0.00018   0.00000
 168        4S          0.00001   0.00006   0.00000   0.00005   0.00000
 169        5S          0.00001   0.00018  -0.00003  -0.00005   0.00000
 170        6PX         0.00000   0.00000   0.00000   0.00000   0.00000
 171        6PY         0.00000   0.00000   0.00000   0.00000   0.00000
 172        6PZ         0.00000   0.00000   0.00000   0.00002   0.00000
 173        7PX         0.00000   0.00000   0.00000   0.00000  -0.00001
 174        7PY         0.00001   0.00000   0.00001   0.00000   0.00000
 175        7PZ         0.00000   0.00001   0.00000   0.00006   0.00000
 176        8PX         0.00000   0.00000   0.00000   0.00000  -0.00002
 177        8PY         0.00003   0.00000   0.00000   0.00000   0.00000
 178        8PZ         0.00000   0.00010  -0.00002  -0.00005   0.00000
 179        9PX         0.00000   0.00000   0.00000   0.00000  -0.00001
 180        9PY         0.00008   0.00000   0.00002   0.00000   0.00000
 181        9PZ         0.00000  -0.00006   0.00001   0.00002   0.00000
 182       10D 0        0.00000   0.00000   0.00000   0.00000   0.00000
 183       10D+1        0.00000   0.00000   0.00000   0.00000   0.00000
 184       10D-1        0.00000   0.00000   0.00000   0.00000   0.00000
 185       10D+2        0.00000   0.00000   0.00000   0.00000   0.00000
 186       10D-2        0.00000   0.00000   0.00000   0.00000   0.00000
 187       11D 0        0.00000  -0.00001   0.00000  -0.00002   0.00000
 188       11D+1        0.00000   0.00000   0.00000   0.00000   0.00001
 189       11D-1        0.00000   0.00000   0.00000   0.00000   0.00000
 190       11D+2        0.00000  -0.00001   0.00000  -0.00001   0.00000
 191       11D-2        0.00000   0.00000   0.00000   0.00000   0.00000
 192       12D 0        0.00000  -0.00007   0.00001   0.00000   0.00000
 193       12D+1        0.00000   0.00000   0.00000   0.00000   0.00001
 194       12D-1        0.00000   0.00000   0.00002   0.00000   0.00000
 195       12D+2        0.00000  -0.00001   0.00000  -0.00004   0.00000
 196       12D-2        0.00000   0.00000   0.00000   0.00000   0.00000
 197       13F 0        0.00000   0.00000   0.00000   0.00000   0.00000
 198       13F+1        0.00000   0.00000   0.00000   0.00000   0.00000
 199       13F-1        0.00000   0.00000   0.00000   0.00000   0.00000
 200       13F+2        0.00000   0.00000   0.00000   0.00000   0.00000
 201       13F-2        0.00000   0.00000   0.00000   0.00000   0.00000
 202       13F+3        0.00000   0.00000   0.00000   0.00000   0.00000
 203       13F-3        0.00000   0.00000   0.00000   0.00000   0.00000
 204       14F 0        0.00000   0.00001   0.00000   0.00002   0.00000
 205       14F+1        0.00000   0.00000   0.00000   0.00000  -0.00001
 206       14F-1        0.00000   0.00000  -0.00001   0.00000   0.00000
 207       14F+2        0.00000   0.00001   0.00000   0.00002   0.00000
 208       14F-2        0.00000   0.00000   0.00000   0.00000   0.00000
 209       14F+3        0.00000   0.00000   0.00000   0.00000  -0.00001
 210       14F-3        0.00000   0.00000   0.00000   0.00000   0.00000
                          16        17        18        19        20
     Eigenvalues --     2.00000   2.00000   2.00000   2.00000   2.00000
   1 1   C  1S          0.00000   0.00034   0.00149   0.00002   0.00005
   2        2S          0.00000   0.00000  -0.00001   0.00000   0.00000
   3        3S          0.00000   0.00001   0.00006   0.00000   0.00000
   4        4S          0.00000   0.00002   0.00006   0.00000   0.00001
   5        5S          0.00000   0.00002   0.00006   0.00000   0.00000
   6        6PX         0.00000   0.00000   0.00000   0.00000   0.00000
   7        6PY         0.00000   0.00000   0.00000   0.00000   0.00000
   8        6PZ         0.00000   0.00000   0.00000   0.00000   0.00000
   9        7PX         0.00000   0.00000   0.00000   0.00000   0.00000
  10        7PY         0.00000  -0.00002   0.00000   0.00000   0.00000
  11        7PZ         0.00000   0.00000  -0.00001   0.00000   0.00000
  12        8PX         0.00002   0.00000   0.00000   0.00000   0.00000
  13        8PY         0.00000   0.00001  -0.00001  -0.00001   0.00001
  14        8PZ         0.00000  -0.00001  -0.00001   0.00000   0.00000
  15        9PX         0.00000   0.00000   0.00000   0.00000   0.00000
  16        9PY         0.00000   0.00002   0.00000   0.00000   0.00000
  17        9PZ         0.00000   0.00000   0.00000   0.00000   0.00000
  18       10D 0        0.00000   0.00000   0.00000   0.00000   0.00000
  19       10D+1        0.00000   0.00000   0.00000   0.00000   0.00000
  20       10D-1        0.00000   0.00000   0.00000   0.00000   0.00000
  21       10D+2        0.00000   0.00000   0.00000   0.00000   0.00000
  22       10D-2        0.00000   0.00000   0.00000   0.00000   0.00000
  23       11D 0        0.00000   0.00000   0.00000   0.00000   0.00000
  24       11D+1       -0.00001   0.00000   0.00000   0.00000   0.00000
  25       11D-1        0.00000   0.00002   0.00000   0.00000   0.00000
  26       11D+2        0.00000   0.00000  -0.00001   0.00000   0.00000
  27       11D-2       -0.00004   0.00000   0.00000   0.00000   0.00000
  28       12D 0        0.00000   0.00001   0.00002   0.00000   0.00000
  29       12D+1       -0.00001   0.00000   0.00000   0.00000   0.00000
  30       12D-1        0.00000   0.00004  -0.00001   0.00000   0.00000
  31       12D+2        0.00000   0.00000  -0.00001   0.00000   0.00000
  32       12D-2        0.00004   0.00000   0.00000   0.00000   0.00000
  33       13F 0        0.00000   0.00000   0.00000   0.00000   0.00000
  34       13F+1        0.00000   0.00000   0.00000   0.00000   0.00000
  35       13F-1        0.00000   0.00000   0.00000   0.00000   0.00000
  36       13F+2        0.00000   0.00000   0.00000   0.00000   0.00000
  37       13F-2        0.00000   0.00000   0.00000   0.00000   0.00000
  38       13F+3        0.00000   0.00000   0.00000   0.00000   0.00000
  39       13F-3        0.00000   0.00000   0.00000   0.00000   0.00000
  40       14F 0        0.00000   0.00000  -0.00001   0.00000   0.00000
  41       14F+1        0.00000   0.00000   0.00000   0.00000   0.00000
  42       14F-1        0.00000   0.00002   0.00000   0.00000   0.00000
  43       14F+2        0.00000   0.00000   0.00000   0.00000   0.00000
  44       14F-2        0.00003   0.00000   0.00000   0.00000   0.00000
  45       14F+3       -0.00001   0.00000   0.00000   0.00000   0.00000
  46       14F-3        0.00000   0.00001   0.00000   0.00000   0.00000
  47 2   Br 1S          0.00000  -0.26358  -0.16354   0.93743   0.34375
  48        2S          0.00000   0.85376   0.53160   0.00495   0.00088
  49        3S          0.00000   0.03649   0.02310   0.00072   0.00020
  50        4S          0.00000  -0.00024  -0.00014   0.00002   0.00001
  51        5S          0.00000   0.00086   0.00055   0.00000   0.00000
  52        6S          0.00000   0.00005   0.00002  -0.00002   0.00000
  53        7S          0.00000   0.00004  -0.00003   0.00000   0.00000
  54        8PX        -0.88980   0.00000   0.00000   0.00000   0.00000
  55        8PY        -0.00001  -0.17701  -0.06996   0.00232  -0.00056
  56        8PZ         0.00000  -0.09595  -0.04400   0.00030  -0.00007
  57        9PX         0.02060   0.00000   0.00000   0.00000   0.00000
  58        9PY         0.00000   0.00318   0.00241  -0.00015  -0.00009
  59        9PZ         0.00000   0.00158   0.00142  -0.00006  -0.00003
  60       10PX        -0.00036   0.00000   0.00000   0.00000   0.00000
  61       10PY         0.00000  -0.00009  -0.00004   0.00000   0.00000
  62       10PZ         0.00000  -0.00006  -0.00002   0.00000   0.00000
  63       11PX         0.00154   0.00000   0.00000   0.00000   0.00000
  64       11PY         0.00000   0.00029   0.00017  -0.00001   0.00000
  65       11PZ         0.00000   0.00015   0.00010   0.00000   0.00000
  66       12PX         0.00014   0.00000   0.00000   0.00000   0.00000
  67       12PY         0.00000   0.00006  -0.00001  -0.00001   0.00000
  68       12PZ         0.00000   0.00003   0.00001   0.00000   0.00000
  69       13PX        -0.00004   0.00000   0.00000   0.00000   0.00000
  70       13PY         0.00000   0.00000  -0.00001   0.00000   0.00000
  71       13PZ         0.00000   0.00000   0.00000   0.00000   0.00000
  72       14D 0        0.00000  -0.00004  -0.00003   0.00000   0.00000
  73       14D+1        0.00005   0.00000   0.00000   0.00000   0.00000
  74       14D-1        0.00000   0.00000   0.00000   0.00000   0.00000
  75       14D+2        0.00000   0.00008   0.00005   0.00000   0.00000
  76       14D-2        0.00012   0.00000   0.00000   0.00000   0.00000
  77       15D 0        0.00000   0.00000   0.00000   0.00000   0.00000
  78       15D+1        0.00002   0.00000   0.00000   0.00000   0.00000
  79       15D-1        0.00000   0.00000   0.00000   0.00000   0.00000
  80       15D+2        0.00000   0.00000   0.00000   0.00000   0.00000
  81       15D-2        0.00003   0.00000   0.00000   0.00000   0.00000
  82       16D 0        0.00000  -0.00001   0.00000   0.00000   0.00000
  83       16D+1       -0.00003   0.00000   0.00000   0.00000   0.00000
  84       16D-1        0.00000  -0.00002   0.00000   0.00000   0.00000
  85       16D+2        0.00000   0.00001   0.00001   0.00000   0.00000
  86       16D-2       -0.00004   0.00000   0.00000   0.00000   0.00000
  87       17D 0        0.00000   0.00000   0.00000   0.00000   0.00000
  88       17D+1        0.00002   0.00000   0.00000   0.00000   0.00000
  89       17D-1        0.00000   0.00001   0.00000   0.00000   0.00000
  90       17D+2        0.00000  -0.00002   0.00000   0.00000   0.00000
  91       17D-2        0.00002   0.00000   0.00000   0.00000   0.00000
  92       18F 0        0.00000   0.00000   0.00000   0.00000   0.00000
  93       18F+1        0.00000   0.00000   0.00000   0.00000   0.00000
  94       18F-1        0.00000   0.00000   0.00000   0.00000   0.00000
  95       18F+2        0.00000   0.00000   0.00000   0.00000   0.00000
  96       18F-2        0.00000   0.00000   0.00000   0.00000   0.00000
  97       18F+3        0.00000   0.00000   0.00000   0.00000   0.00000
  98       18F-3        0.00000   0.00000   0.00000   0.00000   0.00000
  99       19F 0        0.00000   0.00000   0.00000   0.00000   0.00000
 100       19F+1        0.00000   0.00000   0.00000   0.00000   0.00000
 101       19F-1        0.00000   0.00000   0.00000   0.00000   0.00000
 102       19F+2        0.00000   0.00000   0.00000   0.00000   0.00000
 103       19F-2       -0.00002   0.00000   0.00000   0.00000   0.00000
 104       19F+3        0.00001   0.00000   0.00000   0.00000   0.00000
 105       19F-3        0.00000   0.00000   0.00000   0.00000   0.00000
 106 3   Br 1S          0.00000   0.16054  -0.26575  -0.34328   0.93770
 107        2S          0.00000  -0.51951   0.86308  -0.00241   0.00410
 108        3S          0.00000  -0.02205   0.03728  -0.00030   0.00066
 109        4S          0.00000   0.00015  -0.00023  -0.00001   0.00002
 110        5S          0.00000  -0.00052   0.00088   0.00000   0.00000
 111        6S          0.00000  -0.00004   0.00004   0.00001  -0.00002
 112        7S          0.00000  -0.00005  -0.00001   0.00000   0.00000
 113        8PX         0.47487   0.00000   0.00000   0.00000   0.00000
 114        8PY         0.00000  -0.12179   0.13517   0.00188  -0.00133
 115        8PZ         0.00000   0.06527  -0.08303  -0.00020   0.00011
 116        9PX        -0.01119   0.00000   0.00000   0.00000   0.00000
 117        9PY         0.00000   0.00173  -0.00355  -0.00003   0.00018
 118        9PZ         0.00000  -0.00082   0.00210   0.00002  -0.00007
 119       10PX         0.00020   0.00000   0.00000   0.00000   0.00000
 120       10PY         0.00000  -0.00006   0.00007   0.00000   0.00000
 121       10PZ         0.00000   0.00004  -0.00005   0.00000   0.00000
 122       11PX        -0.00083   0.00000   0.00000   0.00000   0.00000
 123       11PY         0.00000   0.00018  -0.00027   0.00000   0.00001
 124       11PZ         0.00000  -0.00009   0.00016   0.00000   0.00000
 125       12PX        -0.00011   0.00000   0.00000   0.00000   0.00000
 126       12PY         0.00000   0.00006  -0.00002  -0.00001   0.00001
 127       12PZ         0.00000  -0.00002   0.00002   0.00000  -0.00001
 128       13PX         0.00002   0.00000   0.00000   0.00000   0.00000
 129       13PY         0.00000   0.00000   0.00000   0.00000   0.00000
 130       13PZ         0.00000   0.00000   0.00000   0.00000   0.00000
 131       14D 0        0.00000   0.00002  -0.00004   0.00000   0.00000
 132       14D+1       -0.00003   0.00000   0.00000   0.00000   0.00000
 133       14D-1        0.00000   0.00001  -0.00001   0.00000   0.00000
 134       14D+2        0.00000  -0.00005   0.00008   0.00000   0.00000
 135       14D-2        0.00008   0.00000   0.00000   0.00000   0.00000
 136       15D 0        0.00000   0.00000   0.00000   0.00000   0.00000
 137       15D+1       -0.00001   0.00000   0.00000   0.00000   0.00000
 138       15D-1        0.00000   0.00000   0.00000   0.00000   0.00000
 139       15D+2        0.00000   0.00000   0.00000   0.00000   0.00000
 140       15D-2        0.00002   0.00000   0.00000   0.00000   0.00000
 141       16D 0        0.00000   0.00001   0.00000   0.00000   0.00000
 142       16D+1        0.00001   0.00000   0.00000   0.00000   0.00000
 143       16D-1        0.00000  -0.00001   0.00001   0.00000   0.00000
 144       16D+2        0.00000   0.00000   0.00001   0.00000   0.00000
 145       16D-2       -0.00002   0.00000   0.00000   0.00000   0.00000
 146       17D 0        0.00000   0.00000   0.00000   0.00000   0.00000
 147       17D+1       -0.00002   0.00000   0.00000   0.00000   0.00000
 148       17D-1        0.00000   0.00001  -0.00001   0.00000   0.00000
 149       17D+2        0.00000   0.00002  -0.00001   0.00000   0.00000
 150       17D-2        0.00003   0.00000   0.00000   0.00000   0.00000
 151       18F 0        0.00000   0.00000   0.00000   0.00000   0.00000
 152       18F+1        0.00000   0.00000   0.00000   0.00000   0.00000
 153       18F-1        0.00000   0.00000   0.00000   0.00000   0.00000
 154       18F+2        0.00000   0.00000   0.00000   0.00000   0.00000
 155       18F-2        0.00000   0.00000   0.00000   0.00000   0.00000
 156       18F+3        0.00000   0.00000   0.00000   0.00000   0.00000
 157       18F-3        0.00000   0.00000   0.00000   0.00000   0.00000
 158       19F 0        0.00000   0.00000   0.00000   0.00000   0.00000
 159       19F+1        0.00000   0.00000   0.00000   0.00000   0.00000
 160       19F-1        0.00000  -0.00001   0.00000   0.00000   0.00000
 161       19F+2        0.00000   0.00000   0.00000   0.00000   0.00000
 162       19F-2       -0.00001   0.00000   0.00000   0.00000   0.00000
 163       19F+3        0.00000   0.00000   0.00000   0.00000   0.00000
 164       19F-3        0.00000   0.00000   0.00000   0.00000   0.00000
 165 4   O  1S          0.00000   0.00014   0.00060   0.00000   0.00000
 166        2S          0.00000   0.00000   0.00000   0.00000   0.00000
 167        3S          0.00000   0.00001   0.00003   0.00000   0.00000
 168        4S          0.00000  -0.00001  -0.00002   0.00000   0.00000
 169        5S          0.00000  -0.00001  -0.00005   0.00000   0.00001
 170        6PX         0.00000   0.00000   0.00000   0.00000   0.00000
 171        6PY         0.00000   0.00000   0.00000   0.00000   0.00000
 172        6PZ         0.00000   0.00000   0.00000   0.00000   0.00000
 173        7PX         0.00000   0.00000   0.00000   0.00000   0.00000
 174        7PY         0.00000   0.00000   0.00000   0.00000   0.00000
 175        7PZ         0.00000   0.00000   0.00001   0.00000   0.00000
 176        8PX         0.00001   0.00000   0.00000   0.00000   0.00000
 177        8PY         0.00000  -0.00003   0.00001   0.00000   0.00000
 178        8PZ         0.00000   0.00000   0.00001   0.00000   0.00000
 179        9PX         0.00000   0.00000   0.00000   0.00000   0.00000
 180        9PY         0.00000  -0.00001   0.00000   0.00000   0.00000
 181        9PZ         0.00000   0.00000   0.00001   0.00000   0.00000
 182       10D 0        0.00000   0.00000   0.00000   0.00000   0.00000
 183       10D+1        0.00000   0.00000   0.00000   0.00000   0.00000
 184       10D-1        0.00000   0.00000   0.00000   0.00000   0.00000
 185       10D+2        0.00000   0.00000   0.00000   0.00000   0.00000
 186       10D-2        0.00000   0.00000   0.00000   0.00000   0.00000
 187       11D 0        0.00000   0.00000   0.00000   0.00000   0.00000
 188       11D+1        0.00000   0.00000   0.00000   0.00000   0.00000
 189       11D-1        0.00000   0.00000   0.00000   0.00000   0.00000
 190       11D+2        0.00000   0.00000   0.00000   0.00000   0.00000
 191       11D-2        0.00000   0.00000   0.00000   0.00000   0.00000
 192       12D 0        0.00000   0.00000   0.00001   0.00000   0.00000
 193       12D+1        0.00000   0.00000   0.00000   0.00000   0.00000
 194       12D-1        0.00000   0.00001   0.00000   0.00000   0.00000
 195       12D+2        0.00000   0.00000   0.00001   0.00000   0.00000
 196       12D-2       -0.00001   0.00000   0.00000   0.00000   0.00000
 197       13F 0        0.00000   0.00000   0.00000   0.00000   0.00000
 198       13F+1        0.00000   0.00000   0.00000   0.00000   0.00000
 199       13F-1        0.00000   0.00000   0.00000   0.00000   0.00000
 200       13F+2        0.00000   0.00000   0.00000   0.00000   0.00000
 201       13F-2        0.00000   0.00000   0.00000   0.00000   0.00000
 202       13F+3        0.00000   0.00000   0.00000   0.00000   0.00000
 203       13F-3        0.00000   0.00000   0.00000   0.00000   0.00000
[...]
 190       11D+2       -0.00554   0.00000   0.03930  -0.09027  -0.03712
 191       11D-2        0.00000   0.00508   0.00000   0.00000   0.00000
 192       12D 0        4.61725   0.00000   0.43254  -1.21967   0.77604
 193       12D+1        0.00000   2.06547   0.00000   0.00000   0.00000
 194       12D-1       -0.08444   0.00000  -0.23156  -0.06873  -0.00182
 195       12D+2       -0.55439   0.00000  -0.21899   0.51679   0.05072
 196       12D-2        0.00000  -0.02005   0.00000   0.00000   0.00000
 197       13F 0        0.02123   0.00000  -0.00447   0.01535  -0.04633
 198       13F+1        0.00000   0.01867   0.00000   0.00000   0.00000
 199       13F-1       -0.00099   0.00000   0.04552   0.01542   0.00331
 200       13F+2       -0.05403   0.00000  -0.00834   0.02310  -0.01349
 201       13F-2        0.00000  -0.00003   0.00000   0.00000   0.00000
 202       13F+3        0.00000   0.00450   0.00000   0.00000   0.00000
 203       13F-3       -0.00002   0.00000  -0.02652  -0.01054  -0.00139
 204       14F 0       -1.28720   0.00000  -0.06409   0.15840   0.01175
 205       14F+1        0.00000  -0.15198   0.00000   0.00000   0.00000
 206       14F-1        0.02993   0.00000  -0.11815  -0.04582  -0.00726
 207       14F+2        0.19422   0.00000   0.03572  -0.09348   0.04620
 208       14F-2        0.00000   0.00095   0.00000   0.00000   0.00000
 209       14F+3        0.00000   0.00262   0.00000   0.00000   0.00000
 210       14F-3       -0.00063   0.00000   0.05519   0.02199   0.00276
                         206       207       208       209       210
     Eigenvalues --     0.00000   0.00000   0.00000   0.00000   0.00000
   1 1   C  1S          0.00000  -0.01213   0.00453   0.21888   0.00119
   2        2S          0.00000  -0.06669   0.02518   1.25528   0.04476
   3        3S          0.00000   0.00173  -0.00477   0.00694   0.11078
   4        4S          0.00000  -0.05519   0.37038   9.32016   3.54873
   5        5S          0.00000   0.46288   0.14876   3.64488  31.40685
   6        6PX         0.00380   0.00000   0.00000   0.00000   0.00000
   7        6PY         0.00000  -0.00116   0.00559  -0.00014   0.00004
   8        6PZ         0.00000   0.00003  -0.00064   0.01347   0.01074
   9        7PX        -0.31804   0.00000   0.00000   0.00000   0.00000
  10        7PY         0.00000  -0.24436  -0.12892  -0.01467  -0.00033
  11        7PZ         0.00000  -0.02876   0.02196   1.35291   0.07156
  12        8PX        -0.31348   0.00000   0.00000   0.00000   0.00000
  13        8PY         0.00000  -5.53962   6.86509  -0.04043   0.03702
  14        8PZ         0.00000  -0.15913   0.06715   5.43248  -0.01680
  15        9PX         6.34594   0.00000   0.00000   0.00000   0.00000
  16        9PY         0.00000  -0.36714  13.99652  -0.12901   0.18707
  17        9PZ         0.00000  -0.11230  -0.00843   5.89996  -3.83414
  18       10D 0        0.00000  -0.00236   0.00139   0.08529   0.02119
  19       10D+1       -0.00687   0.00000   0.00000   0.00000   0.00000
  20       10D-1        0.00000   0.00804   0.02138  -0.00097  -0.00017
  21       10D+2        0.00000   0.00123   0.00018  -0.00540  -0.04829
  22       10D-2       -0.00065   0.00000   0.00000   0.00000   0.00000
  23       11D 0        0.00000  -0.01719   0.01706   0.59426  -0.21152
  24       11D+1       -0.44236   0.00000   0.00000   0.00000   0.00000
  25       11D-1        0.00000  -0.13769  -0.69649  -0.01366   0.00228
  26       11D+2        0.00000  -0.01303  -0.00974   0.01819   0.18848
  27       11D-2        0.00534   0.00000   0.00000   0.00000   0.00000
  28       12D 0        0.00000  -0.09107  -0.00664   3.51292   0.24156
  29       12D+1        0.91384   0.00000   0.00000   0.00000   0.00000
  30       12D-1        0.00000  -0.19206  -0.39625  -0.06988   0.03116
  31       12D+2        0.00000  -0.13092   0.00264   1.39312  -1.02217
  32       12D-2       -0.01520   0.00000   0.00000   0.00000   0.00000
  33       13F 0        0.00000  -0.00368   0.00280   0.05144  -0.04525
  34       13F+1       -0.12067   0.00000   0.00000   0.00000   0.00000
  35       13F-1        0.00000  -0.01553  -0.06214  -0.00181   0.00071
  36       13F+2        0.00000   0.00092   0.00076  -0.00236   0.00538
  37       13F-2        0.00100   0.00000   0.00000   0.00000   0.00000
  38       13F+3        0.05233   0.00000   0.00000   0.00000   0.00000
  39       13F-3        0.00000   0.04621  -0.00097   0.00145  -0.00015
  40       14F 0        0.00000   0.00604  -0.00165  -0.01528  -0.09268
  41       14F+1       -0.04778   0.00000   0.00000   0.00000   0.00000
  42       14F-1        0.00000  -0.01074  -0.01973   0.00954  -0.00369
  43       14F+2        0.00000   0.00341  -0.00503   0.12741  -0.17142
  44       14F-2        0.00029   0.00000   0.00000   0.00000   0.00000
  45       14F+3       -0.03150   0.00000   0.00000   0.00000   0.00000
  46       14F-3        0.00000  -0.06789  -0.10913  -0.00467   0.00045
  47 2   Br 1S          0.00000   0.00222   0.00002  -0.00007   0.00007
  48        2S          0.00000   0.01700  -0.00306  -0.00146   0.00051
  49        3S          0.00000   0.07929  -0.00647  -0.00451   0.00241
  50        4S          0.00000   0.23307  -0.05097  -0.01809   0.00799
  51        5S          0.00000   0.09396  -0.15350  -0.00295  -0.00343
  52        6S          0.00000  -0.85325   1.83696   0.91937   0.03307
  53        7S          0.00000 -10.21843  14.83681   1.92921 -13.19623
  54        8PX         0.00163   0.00000   0.00000   0.00000   0.00000
  55        8PY         0.00000   0.00090   0.00060   0.00062  -0.00039
  56        8PZ         0.00000   0.00056  -0.00004   0.00045   0.00004
  57        9PX        -0.02011   0.00000   0.00000   0.00000   0.00000
  58        9PY         0.00000   0.01669   0.00273  -0.00738   0.02509
  59        9PZ         0.00000   0.00146   0.01273  -0.00955   0.01461
  60       10PX        -0.15354   0.00000   0.00000   0.00000   0.00000
  61       10PY         0.00000   0.24292   0.06283  -0.05449   0.27466
  62       10PZ         0.00000   0.04888   0.14595  -0.08871   0.17340
  63       11PX         0.04521   0.00000   0.00000   0.00000   0.00000
  64       11PY         0.00000  -0.00004  -0.00355   0.01753  -0.03506
  65       11PZ         0.00000   0.01508  -0.02329   0.01499  -0.01621
  66       12PX         0.64919   0.00000   0.00000   0.00000   0.00000
  67       12PY         0.00000  -3.75815   3.68625  -0.32804  -1.64680
  68       12PZ         0.00000  -2.44606   2.48106   1.56199  -1.27735
  69       13PX        -2.43177   0.00000   0.00000   0.00000   0.00000
  70       13PY         0.00000  -3.84874   0.43415   0.80936  -3.64433
  71       13PZ         0.00000  -0.94764   2.85309  -0.95539  -2.11756
  72       14D 0        0.00000  -0.00092  -0.00057   0.00121  -0.00097
  73       14D+1        0.00231   0.00000   0.00000   0.00000   0.00000
  74       14D-1        0.00000   0.00089  -0.00028  -0.00123   0.00118
  75       14D+2        0.00000  -0.00346  -0.00105   0.00223   0.00016
  76       14D-2        0.00100   0.00000   0.00000   0.00000   0.00000
  77       15D 0        0.00000   0.01481   0.00444  -0.01466   0.01328
  78       15D+1       -0.02778   0.00000   0.00000   0.00000   0.00000
  79       15D-1        0.00000   0.00227  -0.01391   0.00863  -0.01802
  80       15D+2        0.00000   0.03631   0.02450  -0.02372  -0.00060
  81       15D-2       -0.02131   0.00000   0.00000   0.00000   0.00000
  82       16D 0        0.00000  -0.09702  -0.00588   0.08525  -0.07415
  83       16D+1        0.11094   0.00000   0.00000   0.00000   0.00000
  84       16D-1        0.00000  -0.03711   0.29057  -0.04798   0.17077
  85       16D+2        0.00000  -0.18959  -0.26889   0.13971  -0.06063
  86       16D-2        0.10060   0.00000   0.00000   0.00000   0.00000
  87       17D 0        0.00000   0.15414   0.14811   0.31660   0.04901
  88       17D+1       -0.22063   0.00000   0.00000   0.00000   0.00000
  89       17D-1        0.00000  -1.43153   1.09376   0.28590  -0.73857
  90       17D+2        0.00000   1.76416  -0.51588   0.24941   0.34638
  91       17D-2       -0.03247   0.00000   0.00000   0.00000   0.00000
  92       18F 0        0.00000   0.00551   0.01929  -0.01484  -0.00455
  93       18F+1       -0.00929   0.00000   0.00000   0.00000   0.00000
  94       18F-1        0.00000   0.02756  -0.02351   0.00048   0.00644
  95       18F+2        0.00000  -0.04160   0.01289  -0.01520  -0.00770
  96       18F-2       -0.01268   0.00000   0.00000   0.00000   0.00000
  97       18F+3        0.05019   0.00000   0.00000   0.00000   0.00000
  98       18F-3        0.00000  -0.03987   0.01434  -0.02072  -0.01120
  99       19F 0        0.00000   0.02241  -0.10727   0.03038  -0.00953
 100       19F+1        0.00604   0.00000   0.00000   0.00000   0.00000
 101       19F-1        0.00000  -0.10996   0.12697   0.02487  -0.02737
 102       19F+2        0.00000   0.17929  -0.16218   0.05322   0.01495
 103       19F-2        0.01987   0.00000   0.00000   0.00000   0.00000
 104       19F+3       -0.11135   0.00000   0.00000   0.00000   0.00000
 105       19F-3        0.00000   0.16987  -0.10651   0.10012   0.02048
 106 3   Br 1S          0.00000  -0.00210   0.00009   0.00004   0.00011
 107        2S          0.00000  -0.01610   0.00379  -0.00086   0.00086
 108        3S          0.00000  -0.07501   0.01021  -0.00111   0.00403
 109        4S          0.00000  -0.22063   0.06093  -0.01020   0.01302
 110        5S          0.00000  -0.08601   0.15767  -0.00267  -0.00126
 111        6S          0.00000   0.61099  -1.97216   0.76619   0.06395
 112        7S          0.00000   9.72878 -14.97317   2.26400 -13.78487
 113        8PX         0.00163   0.00000   0.00000   0.00000   0.00000
 114        8PY         0.00000   0.00107   0.00057  -0.00066   0.00038
 115        8PZ         0.00000  -0.00062   0.00001   0.00042   0.00007
 116        9PX        -0.02022   0.00000   0.00000   0.00000   0.00000
 117        9PY         0.00000   0.01652   0.00391   0.00955  -0.02604
 118        9PZ         0.00000  -0.00153  -0.01332  -0.00995   0.01500
 119       10PX        -0.15503   0.00000   0.00000   0.00000   0.00000
 120       10PY         0.00000   0.24978   0.07588   0.07859  -0.28697
 121       10PZ         0.00000  -0.05275  -0.15469  -0.09527   0.17996
 122       11PX         0.04527   0.00000   0.00000   0.00000   0.00000
 123       11PY         0.00000   0.00263  -0.00494  -0.01970   0.03521
 124       11PZ         0.00000  -0.01589   0.02371   0.01426  -0.01552
 125       12PX         0.67218   0.00000   0.00000   0.00000   0.00000
 126       12PY         0.00000  -3.62183   3.73290   0.37342   1.70097
 127       12PZ         0.00000   2.25352  -2.60181   1.60780  -1.34819
 128       13PX        -2.47031   0.00000   0.00000   0.00000   0.00000
 129       13PY         0.00000  -3.80253   0.35296  -0.86107   3.67820
 130       13PZ         0.00000   0.91922  -2.85170  -0.89240  -2.23106
 131       14D 0        0.00000   0.00090   0.00062   0.00114  -0.00096
 132       14D+1        0.00234   0.00000   0.00000   0.00000   0.00000
 133       14D-1        0.00000   0.00086  -0.00012   0.00134  -0.00110
 134       14D+2        0.00000   0.00344   0.00112   0.00225   0.00025
 135       14D-2       -0.00097   0.00000   0.00000   0.00000   0.00000
 136       15D 0        0.00000  -0.01499  -0.00423  -0.01437   0.01315
 137       15D+1       -0.02824   0.00000   0.00000   0.00000   0.00000
 138       15D-1        0.00000   0.00182  -0.01614  -0.00906   0.01670
 139       15D+2        0.00000  -0.03713  -0.02489  -0.02378  -0.00208
 140       15D-2        0.02124   0.00000   0.00000   0.00000   0.00000
 141       16D 0        0.00000   0.09831   0.00122   0.09102  -0.07496
 142       16D+1        0.11210   0.00000   0.00000   0.00000   0.00000
 143       16D-1        0.00000  -0.01956   0.31074   0.05287  -0.16817
 144       16D+2        0.00000   0.20403   0.27524   0.14929  -0.05682
 145       16D-2       -0.09905   0.00000   0.00000   0.00000   0.00000
 146       17D 0        0.00000  -0.19092  -0.18379   0.34181   0.02821
 147       17D+1       -0.21944   0.00000   0.00000   0.00000   0.00000
 148       17D-1        0.00000  -1.39917   1.10992  -0.30222   0.76446
 149       17D+2        0.00000  -1.77473   0.50906   0.24879   0.35170
 150       17D-2        0.02272   0.00000   0.00000   0.00000   0.00000
 151       18F 0        0.00000  -0.00413  -0.01915  -0.01476  -0.00451
 152       18F+1       -0.00929   0.00000   0.00000   0.00000   0.00000
 153       18F-1        0.00000   0.02838  -0.02550  -0.00122  -0.00743
 154       18F+2        0.00000   0.04237  -0.01338  -0.01408  -0.00924
 155       18F-2        0.01341   0.00000   0.00000   0.00000   0.00000
 156       18F+3        0.05015   0.00000   0.00000   0.00000   0.00000
 157       18F-3        0.00000  -0.03976   0.01441   0.01871   0.01286
 158       19F 0        0.00000  -0.02252   0.10569   0.03185  -0.01027
 159       19F+1        0.00603   0.00000   0.00000   0.00000   0.00000
 160       19F-1        0.00000  -0.10786   0.13717  -0.02936   0.03219
 161       19F+2        0.00000  -0.17672   0.16596   0.05105   0.02009
 162       19F-2       -0.02107   0.00000   0.00000   0.00000   0.00000
 163       19F+3       -0.11107   0.00000   0.00000   0.00000   0.00000
 164       19F-3        0.00000   0.16956  -0.10730  -0.09830  -0.02475
 165 4   O  1S          0.00000  -0.00273  -0.00019   0.09948   0.02959
 166        2S          0.00000  -0.01286  -0.00030   0.52324   0.15482
 167        3S          0.00000   0.00112   0.00138   0.00488  -0.00583
 168        4S          0.00000   0.11371  -0.10292  -6.19726   0.01755
 169        5S          0.00000   0.16283  -0.14916 -15.14770  -8.04538
 170        6PX         0.01946   0.00000   0.00000   0.00000   0.00000
 171        6PY         0.00000   0.01525   0.00275   0.00038  -0.00031
 172        6PZ         0.00000   0.00134  -0.00077  -0.00525   0.01151
 173        7PX        -0.03529   0.00000   0.00000   0.00000   0.00000
 174        7PY         0.00000  -0.07982   0.03662  -0.00304   0.00296
 175        7PZ         0.00000  -0.01023   0.01044   0.14076  -0.13507
 176        8PX         0.79389   0.00000   0.00000   0.00000   0.00000
 177        8PY         0.00000   1.01696   0.12885  -0.03837  -0.00685
 178        8PZ         0.00000  -0.04618   0.06958   3.76198   0.67467
 179        9PX        -3.48230   0.00000   0.00000   0.00000   0.00000
 180        9PY         0.00000  -0.78128  -3.69355   0.00688  -0.08962
 181        9PZ         0.00000  -0.03927   0.04486   0.27514   1.67644
 182       10D 0        0.00000  -0.00017   0.00087   0.05474   0.01252
 183       10D+1        0.03578   0.00000   0.00000   0.00000   0.00000
 184       10D-1        0.00000   0.00144   0.03695  -0.00080   0.00023
 185       10D+2        0.00000   0.00083   0.00098  -0.02697  -0.01070
 186       10D-2       -0.00065   0.00000   0.00000   0.00000   0.00000
 187       11D 0        0.00000   0.00719  -0.00982  -0.40230  -0.02896
 188       11D+1       -0.23897   0.00000   0.00000   0.00000   0.00000
 189       11D-1        0.00000  -0.03559  -0.20725   0.00573  -0.00166
 190       11D+2        0.00000  -0.00315  -0.00342   0.07721   0.03409
 191       11D-2        0.00273   0.00000   0.00000   0.00000   0.00000
 192       12D 0        0.00000   0.00929  -0.00685  -0.49838  -0.18930
 193       12D+1       -0.09154   0.00000   0.00000   0.00000   0.00000
 194       12D-1        0.00000  -0.30736   0.15559   0.00956   0.00610
 195       12D+2        0.00000   0.00931   0.00752  -0.37646   0.05732
 196       12D-2        0.00080   0.00000   0.00000   0.00000   0.00000
 197       13F 0        0.00000  -0.00173   0.00136   0.01820  -0.01331
 198       13F+1       -0.00544   0.00000   0.00000   0.00000   0.00000
 199       13F-1        0.00000  -0.01469  -0.00262  -0.00057  -0.00005
 200       13F+2        0.00000  -0.00032   0.00007  -0.01313   0.01477
 201       13F-2       -0.00006   0.00000   0.00000   0.00000   0.00000
 202       13F+3        0.01411   0.00000   0.00000   0.00000   0.00000
 203       13F-3        0.00000  -0.00987   0.01626   0.00003  -0.00015
 204       14F 0        0.00000  -0.00006   0.00085   0.14356   0.06401
 205       14F+1        0.17016   0.00000   0.00000   0.00000   0.00000
 206       14F-1        0.00000   0.07255   0.09683  -0.00171  -0.00049
 207       14F+2        0.00000   0.00092   0.00089   0.05860  -0.03812
 208       14F-2       -0.00216   0.00000   0.00000   0.00000   0.00000
 209       14F+3       -0.02570   0.00000   0.00000   0.00000   0.00000
 210       14F-3        0.00000   0.02504  -0.02837  -0.00035   0.00048
          Condensed to atoms (all electrons):
              1          2          3          4
     1  C    5.559678   0.033292   0.017942   0.239709
     2  Br   0.033292  35.049251  -0.118478  -0.055940
     3  Br   0.017942  -0.118478  35.041430  -0.056639
     4  O    0.239709  -0.055940  -0.056639   8.229871
 Mulliken atomic charges:
              1
     1  C    0.149380
     2  Br   0.091875
     3  Br   0.115745
     4  O   -0.357000
 Sum of Mulliken atomic charges =   0.00000
 Mulliken charges with hydrogens summed into heavy atoms:
              1
     1  C    0.149380
     2  Br   0.091875
     3  Br   0.115745
     4  O   -0.357000
 Sum of Mulliken charges with hydrogens summed into heavy atoms =   0.00000
 Electronic spatial extent (au):  <R**2>=           1355.6185
 Charge=              0.0000 electrons
 Dipole moment (field-independent basis, Debye):
    X=              0.0000    Y=              0.1050    Z=             -1.2403  Tot=              1.2448
 Quadrupole moment (field-independent basis, Debye-Ang):
   XX=            -46.9633   YY=            -44.9358   ZZ=            -47.5253
   XY=              0.0000   XZ=              0.0000   YZ=             -0.1771
 Traceless Quadrupole moment (field-independent basis, Debye-Ang):
   XX=             -0.4885   YY=              1.5390   ZZ=             -1.0505
   XY=              0.0000   XZ=              0.0000   YZ=             -0.1771
 Octapole moment (field-independent basis, Debye-Ang**2):
  XXX=              0.0000  YYY=              0.2256  ZZZ=            164.8162  XYY=              0.0000
  XXY=              0.0573  XXZ=             56.3134  XZZ=              0.0000  YZZ=              0.3521
  YYZ=             45.7181  XYZ=              0.0000
 Hexadecapole moment (field-independent basis, Debye-Ang**3):
 XXXX=            -53.6978 YYYY=           -570.9434 ZZZZ=           -597.1030 XXXY=              0.0000
 XXXZ=              0.0000 YYYX=              0.0000 YYYZ=             -0.6592 ZZZX=              0.0000
 ZZZY=             -1.0412 XXYY=           -111.3607 XXZZ=           -110.4163 YYZZ=           -175.1009
 XXYZ=             -0.1509 YYXZ=              0.0000 ZZXY=              0.0000
 N-N= 4.492332683468D+02 E-N=-1.347022396164D+04  KE= 5.257230296554D+03
 1\1\GINC-TRAPISTA\SP\RQCISD-FC\Aug-CC-pVTZ\C1Br2O1\BRUNS\28-Nov-2021\0
 \\# qcisd/aug-cc-pvtz nosymm density=current output=wfn\\br2co-wavefun
 ction\\0,1\C,0,0.,0.01,-0.491759\Br,0,0.,-1.594181,-1.54682\Br,0,0.,1.
 594181,-1.54682\O,0,0.,0.,0.6845\\Version=EM64L-G09RevB.01\HF=-5257.68
 44938\MP2=-5258.5485701\MP3=-5258.5484243\MP4D=-5258.569636\MP4DQ=-525
 8.5481553\MP4SDQ=-5258.5601238\QCISD=-5258.5577238\RMSD=9.252e-09\Dipo
 le=0.,0.0413065,-0.4879838\Quadrupole=-0.3632035,1.1442087,-0.7810052,
 0.,0.,-0.1316348\PG=CS [SG(C1Br2O1)]\\@

 Writing a WFN file to GAUSSIAN.wfn.


 ALMOST ANYTHING IS EASIER TO GET INTO THAN OUT OF.

                         -- AGNES ALLEN'S LAW FROM
                PAUL DICKSON'S "THE OFFICIAL RULES"
 Job cpu time:  0 days  5 hours 27 minutes 59.8 seconds.
 File lengths (MBytes):  RWF=  23799 Int=      0 D2E=      0 Chk=      4 Scr=      1
 Normal termination of Gaussian 09 at Sun Nov 28 07:32:39 2021.
