 br2co-wavefunction
GAUSSIAN            210 MOL ORBITALS    578 PRIMITIVES        4 NUCLEI
  C    1    (CENTRE  1)   0.00000000  0.00000000 -0.92928983  CHARGE =  6.0
  Br   2    (CENTRE  2)   0.00000000 -3.01256550 -2.90416892  CHARGE = 35.0
  Br   3    (CENTRE  3)   0.00000000  3.01256550 -2.92306618  CHARGE = 35.0
  O    4    (CENTRE  4)   0.00000000  0.00000000  1.29351754  CHARGE =  8.0
CENTRE ASSIGNMENTS    1  1  1  1  1  1  1  1  1  1  1  1  1  1  1  1  1  1  1  1
CENTRE ASSIGNMENTS    1  1  1  1  1  1  1  1  1  1  1  1  1  1  1  1  1  1  1  1
CENTRE ASSIGNMENTS    1  1  1  1  1  1  1  1  1  1  1  1  1  1  1  1  1  1  1  1
CENTRE ASSIGNMENTS    1  1  1  1  1  1  1  1  1  1  1  1  2  2  2  2  2  2  2  2
CENTRE ASSIGNMENTS    2  2  2  2  2  2  2  2  2  2  2  2  2  2  2  2  2  2  2  2
CENTRE ASSIGNMENTS    2  2  2  2  2  2  2  2  2  2  2  2  2  2  2  2  2  2  2  2
CENTRE ASSIGNMENTS    2  2  2  2  2  2  2  2  2  2  2  2  2  2  2  2  2  2  2  2
CENTRE ASSIGNMENTS    2  2  2  2  2  2  2  2  2  2  2  2  2  2  2  2  2  2  2  2
CENTRE ASSIGNMENTS    2  2  2  2  2  2  2  2  2  2  2  2  2  2  2  2  2  2  2  2
CENTRE ASSIGNMENTS    2  2  2  2  2  2  2  2  2  2  2  2  2  2  2  2  2  2  2  2
CENTRE ASSIGNMENTS    2  2  2  2  2  2  2  2  2  2  2  2  2  2  2  2  2  2  2  2
CENTRE ASSIGNMENTS    2  2  2  2  2  2  2  2  2  2  2  2  2  2  2  2  2  2  2  2
CENTRE ASSIGNMENTS    2  2  2  2  2  2  2  2  2  2  2  2  2  2  2  2  2  2  2  2
CENTRE ASSIGNMENTS    2  2  2  2  2  2  2  2  2  2  2  2  2  2  2  2  2  2  2  2
CENTRE ASSIGNMENTS    2  2  2  2  2  2  2  2  2  3  3  3  3  3  3  3  3  3  3  3
CENTRE ASSIGNMENTS    3  3  3  3  3  3  3  3  3  3  3  3  3  3  3  3  3  3  3  3
CENTRE ASSIGNMENTS    3  3  3  3  3  3  3  3  3  3  3  3  3  3  3  3  3  3  3  3
CENTRE ASSIGNMENTS    3  3  3  3  3  3  3  3  3  3  3  3  3  3  3  3  3  3  3  3
CENTRE ASSIGNMENTS    3  3  3  3  3  3  3  3  3  3  3  3  3  3  3  3  3  3  3  3
CENTRE ASSIGNMENTS    3  3  3  3  3  3  3  3  3  3  3  3  3  3  3  3  3  3  3  3
CENTRE ASSIGNMENTS    3  3  3  3  3  3  3  3  3  3  3  3  3  3  3  3  3  3  3  3
CENTRE ASSIGNMENTS    3  3  3  3  3  3  3  3  3  3  3  3  3  3  3  3  3  3  3  3
CENTRE ASSIGNMENTS    3  3  3  3  3  3  3  3  3  3  3  3  3  3  3  3  3  3  3  3
CENTRE ASSIGNMENTS    3  3  3  3  3  3  3  3  3  3  3  3  3  3  3  3  3  3  3  3
CENTRE ASSIGNMENTS    3  3  3  3  3  3  3  3  3  3  3  3  3  3  3  3  3  3  3  3
CENTRE ASSIGNMENTS    3  3  3  3  3  3  4  4  4  4  4  4  4  4  4  4  4  4  4  4
CENTRE ASSIGNMENTS    4  4  4  4  4  4  4  4  4  4  4  4  4  4  4  4  4  4  4  4
CENTRE ASSIGNMENTS    4  4  4  4  4  4  4  4  4  4  4  4  4  4  4  4  4  4  4  4
CENTRE ASSIGNMENTS    4  4  4  4  4  4  4  4  4  4  4  4  4  4  4  4  4  4
TYPE ASSIGNMENTS      1  1  1  1  1  1  1  1  1  1  1  1  1  1  1  1  2  2  2  3
TYPE ASSIGNMENTS      3  3  4  4  4  2  3  4  2  3  4  2  3  4  5  6  7  8  9 10
TYPE ASSIGNMENTS      5  6  7  8  9 10  5  6  7  8  9 10 11 12 13 17 14 15 18 19
TYPE ASSIGNMENTS     16 20 11 12 13 17 14 15 18 19 16 20  1  1  1  1  1  1  1  1
TYPE ASSIGNMENTS      1  1  1  1  1  1  1  1  1  1  1  1  1  1  1  1  1  1  1  1
TYPE ASSIGNMENTS      1  1  1  1  1  1  1  1  1  1  1  1  1  1  1  1  1  1  1  1
TYPE ASSIGNMENTS      1  1  2  2  2  2  2  2  2  2  2  3  3  3  3  3  3  3  3  3
TYPE ASSIGNMENTS      4  4  4  4  4  4  4  4  4  2  2  2  2  2  2  2  2  2  3  3
TYPE ASSIGNMENTS      3  3  3  3  3  3  3  4  4  4  4  4  4  4  4  4  2  2  2  2
TYPE ASSIGNMENTS      2  2  2  2  3  3  3  3  3  3  3  3  4  4  4  4  4  4  4  4
TYPE ASSIGNMENTS      2  3  4  2  3  4  2  3  4  5  5  5  5  5  5  5  6  6  6  6
TYPE ASSIGNMENTS      6  6  6  7  7  7  7  7  7  7  8  8  8  8  8  8  8  9  9  9
TYPE ASSIGNMENTS      9  9  9  9 10 10 10 10 10 10 10  5  6  7  8  9 10  5  6  7
TYPE ASSIGNMENTS      8  9 10  5  6  7  8  9 10 11 12 13 17 14 15 18 19 16 20 11
TYPE ASSIGNMENTS     12 13 17 14 15 18 19 16 20  1  1  1  1  1  1  1  1  1  1  1
TYPE ASSIGNMENTS      1  1  1  1  1  1  1  1  1  1  1  1  1  1  1  1  1  1  1  1
TYPE ASSIGNMENTS      1  1  1  1  1  1  1  1  1  1  1  1  1  1  1  1  1  1  1  2
TYPE ASSIGNMENTS      2  2  2  2  2  2  2  2  3  3  3  3  3  3  3  3  3  4  4  4
TYPE ASSIGNMENTS      4  4  4  4  4  4  2  2  2  2  2  2  2  2  2  3  3  3  3  3
TYPE ASSIGNMENTS      3  3  3  3  4  4  4  4  4  4  4  4  4  2  2  2  2  2  2  2
TYPE ASSIGNMENTS      2  3  3  3  3  3  3  3  3  4  4  4  4  4  4  4  4  2  3  4
TYPE ASSIGNMENTS      2  3  4  2  3  4  5  5  5  5  5  5  5  6  6  6  6  6  6  6
TYPE ASSIGNMENTS      7  7  7  7  7  7  7  8  8  8  8  8  8  8  9  9  9  9  9  9
TYPE ASSIGNMENTS      9 10 10 10 10 10 10 10  5  6  7  8  9 10  5  6  7  8  9 10
TYPE ASSIGNMENTS      5  6  7  8  9 10 11 12 13 17 14 15 18 19 16 20 11 12 13 17
TYPE ASSIGNMENTS     14 15 18 19 16 20  1  1  1  1  1  1  1  1  1  1  1  1  1  1
TYPE ASSIGNMENTS      1  1  2  2  2  3  3  3  4  4  4  2  3  4  2  3  4  2  3  4
TYPE ASSIGNMENTS      5  6  7  8  9 10  5  6  7  8  9 10  5  6  7  8  9 10 11 12
TYPE ASSIGNMENTS     13 17 14 15 18 19 16 20 11 12 13 17 14 15 18 19 16 20
EXPONENTS  0.8236000D+04 0.1235000D+04 0.2808000D+03 0.7927000D+02 0.2559000D+02
EXPONENTS  0.8997000D+01 0.3319000D+01 0.2808000D+03 0.7927000D+02 0.2559000D+02
EXPONENTS  0.8997000D+01 0.3319000D+01 0.3643000D+00 0.9059000D+00 0.1285000D+00
EXPONENTS  0.4402000D-01 0.1871000D+02 0.4133000D+01 0.1200000D+01 0.1871000D+02
EXPONENTS  0.4133000D+01 0.1200000D+01 0.1871000D+02 0.4133000D+01 0.1200000D+01
EXPONENTS  0.3827000D+00 0.3827000D+00 0.3827000D+00 0.1209000D+00 0.1209000D+00
EXPONENTS  0.1209000D+00 0.3569000D-01 0.3569000D-01 0.3569000D-01 0.1097000D+01
EXPONENTS  0.1097000D+01 0.1097000D+01 0.1097000D+01 0.1097000D+01 0.1097000D+01
EXPONENTS  0.3180000D+00 0.3180000D+00 0.3180000D+00 0.3180000D+00 0.3180000D+00
EXPONENTS  0.3180000D+00 0.1000000D+00 0.1000000D+00 0.1000000D+00 0.1000000D+00
EXPONENTS  0.1000000D+00 0.1000000D+00 0.7610000D+00 0.7610000D+00 0.7610000D+00
EXPONENTS  0.7610000D+00 0.7610000D+00 0.7610000D+00 0.7610000D+00 0.7610000D+00
EXPONENTS  0.7610000D+00 0.7610000D+00 0.2680000D+00 0.2680000D+00 0.2680000D+00
EXPONENTS  0.2680000D+00 0.2680000D+00 0.2680000D+00 0.2680000D+00 0.2680000D+00
EXPONENTS  0.2680000D+00 0.2680000D+00 0.1063900D+08 0.1593400D+07 0.3626100D+06
EXPONENTS  0.1027000D+06 0.3350100D+05 0.1209300D+05 0.4715900D+04 0.1955600D+04
EXPONENTS  0.8526100D+03 0.3876700D+03 0.1826800D+03 0.8824500D+02 0.3926300D+02
EXPONENTS  0.9405700D+01 0.1899500D+01 0.3350100D+05 0.1209300D+05 0.4715900D+04
EXPONENTS  0.1955600D+04 0.8526100D+03 0.3876700D+03 0.1826800D+03 0.8824500D+02
EXPONENTS  0.3926300D+02 0.1923400D+02 0.9405700D+01 0.1899500D+01 0.4715900D+04
EXPONENTS  0.8526100D+03 0.3876700D+03 0.1826800D+03 0.8824500D+02 0.3926300D+02
EXPONENTS  0.1923400D+02 0.9405700D+01 0.4160100D+01 0.1899500D+01 0.4715900D+04
EXPONENTS  0.8526100D+03 0.3876700D+03 0.8824500D+02 0.3926300D+02 0.1923400D+02
EXPONENTS  0.9405700D+01 0.4160100D+01 0.1899500D+01 0.3011400D+00 0.6047200D+00
EXPONENTS  0.1251500D+00 0.4559300D-01 0.8676500D+04 0.2055900D+04 0.6662300D+03
EXPONENTS  0.2531000D+03 0.1061200D+03 0.4724200D+02 0.2182500D+02 0.9968400D+01
EXPONENTS  0.1998200D+01 0.8676500D+04 0.2055900D+04 0.6662300D+03 0.2531000D+03
EXPONENTS  0.1061200D+03 0.4724200D+02 0.2182500D+02 0.9968400D+01 0.1998200D+01
EXPONENTS  0.8676500D+04 0.2055900D+04 0.6662300D+03 0.2531000D+03 0.1061200D+03
EXPONENTS  0.4724200D+02 0.2182500D+02 0.9968400D+01 0.1998200D+01 0.8676500D+04
EXPONENTS  0.6662300D+03 0.2531000D+03 0.1061200D+03 0.4724200D+02 0.2182500D+02
EXPONENTS  0.9968400D+01 0.4517100D+01 0.1998200D+01 0.8676500D+04 0.6662300D+03
EXPONENTS  0.2531000D+03 0.1061200D+03 0.4724200D+02 0.2182500D+02 0.9968400D+01
EXPONENTS  0.4517100D+01 0.1998200D+01 0.8676500D+04 0.6662300D+03 0.2531000D+03
EXPONENTS  0.1061200D+03 0.4724200D+02 0.2182500D+02 0.9968400D+01 0.4517100D+01
EXPONENTS  0.1998200D+01 0.6662300D+03 0.1061200D+03 0.4724200D+02 0.2182500D+02
EXPONENTS  0.9968400D+01 0.4517100D+01 0.1998200D+01 0.2814500D+00 0.6662300D+03
EXPONENTS  0.1061200D+03 0.4724200D+02 0.2182500D+02 0.9968400D+01 0.4517100D+01
EXPONENTS  0.1998200D+01 0.2814500D+00 0.6662300D+03 0.1061200D+03 0.4724200D+02
EXPONENTS  0.2182500D+02 0.9968400D+01 0.4517100D+01 0.1998200D+01 0.2814500D+00
EXPONENTS  0.7098800D+00 0.7098800D+00 0.7098800D+00 0.1020400D+00 0.1020400D+00
EXPONENTS  0.1020400D+00 0.3514200D-01 0.3514200D-01 0.3514200D-01 0.4038300D+03
EXPONENTS  0.1211700D+03 0.4634500D+02 0.1972100D+02 0.8862400D+01 0.3996200D+01
EXPONENTS  0.1763600D+01 0.4038300D+03 0.1211700D+03 0.4634500D+02 0.1972100D+02
EXPONENTS  0.8862400D+01 0.3996200D+01 0.1763600D+01 0.4038300D+03 0.1211700D+03
EXPONENTS  0.4634500D+02 0.1972100D+02 0.8862400D+01 0.3996200D+01 0.1763600D+01
EXPONENTS  0.4038300D+03 0.1211700D+03 0.4634500D+02 0.1972100D+02 0.8862400D+01
EXPONENTS  0.3996200D+01 0.1763600D+01 0.4038300D+03 0.1211700D+03 0.4634500D+02
EXPONENTS  0.1972100D+02 0.8862400D+01 0.3996200D+01 0.1763600D+01 0.4038300D+03
EXPONENTS  0.1211700D+03 0.4634500D+02 0.1972100D+02 0.8862400D+01 0.3996200D+01
EXPONENTS  0.1763600D+01 0.7061900D+00 0.7061900D+00 0.7061900D+00 0.7061900D+00
EXPONENTS  0.7061900D+00 0.7061900D+00 0.2639000D+00 0.2639000D+00 0.2639000D+00
EXPONENTS  0.2639000D+00 0.2639000D+00 0.2639000D+00 0.1047000D+00 0.1047000D+00
EXPONENTS  0.1047000D+00 0.1047000D+00 0.1047000D+00 0.1047000D+00 0.5515000D+00
EXPONENTS  0.5515000D+00 0.5515000D+00 0.5515000D+00 0.5515000D+00 0.5515000D+00
EXPONENTS  0.5515000D+00 0.5515000D+00 0.5515000D+00 0.5515000D+00 0.2580000D+00
EXPONENTS  0.2580000D+00 0.2580000D+00 0.2580000D+00 0.2580000D+00 0.2580000D+00
EXPONENTS  0.2580000D+00 0.2580000D+00 0.2580000D+00 0.2580000D+00 0.1063900D+08
EXPONENTS  0.1593400D+07 0.3626100D+06 0.1027000D+06 0.3350100D+05 0.1209300D+05
EXPONENTS  0.4715900D+04 0.1955600D+04 0.8526100D+03 0.3876700D+03 0.1826800D+03
EXPONENTS  0.8824500D+02 0.3926300D+02 0.9405700D+01 0.1899500D+01 0.3350100D+05
EXPONENTS  0.1209300D+05 0.4715900D+04 0.1955600D+04 0.8526100D+03 0.3876700D+03
EXPONENTS  0.1826800D+03 0.8824500D+02 0.3926300D+02 0.1923400D+02 0.9405700D+01
EXPONENTS  0.1899500D+01 0.4715900D+04 0.8526100D+03 0.3876700D+03 0.1826800D+03
EXPONENTS  0.8824500D+02 0.3926300D+02 0.1923400D+02 0.9405700D+01 0.4160100D+01
EXPONENTS  0.1899500D+01 0.4715900D+04 0.8526100D+03 0.3876700D+03 0.8824500D+02
EXPONENTS  0.3926300D+02 0.1923400D+02 0.9405700D+01 0.4160100D+01 0.1899500D+01
EXPONENTS  0.3011400D+00 0.6047200D+00 0.1251500D+00 0.4559300D-01 0.8676500D+04
EXPONENTS  0.2055900D+04 0.6662300D+03 0.2531000D+03 0.1061200D+03 0.4724200D+02
EXPONENTS  0.2182500D+02 0.9968400D+01 0.1998200D+01 0.8676500D+04 0.2055900D+04
EXPONENTS  0.6662300D+03 0.2531000D+03 0.1061200D+03 0.4724200D+02 0.2182500D+02
EXPONENTS  0.9968400D+01 0.1998200D+01 0.8676500D+04 0.2055900D+04 0.6662300D+03
EXPONENTS  0.2531000D+03 0.1061200D+03 0.4724200D+02 0.2182500D+02 0.9968400D+01
EXPONENTS  0.1998200D+01 0.8676500D+04 0.6662300D+03 0.2531000D+03 0.1061200D+03
EXPONENTS  0.4724200D+02 0.2182500D+02 0.9968400D+01 0.4517100D+01 0.1998200D+01
EXPONENTS  0.8676500D+04 0.6662300D+03 0.2531000D+03 0.1061200D+03 0.4724200D+02
EXPONENTS  0.2182500D+02 0.9968400D+01 0.4517100D+01 0.1998200D+01 0.8676500D+04
EXPONENTS  0.6662300D+03 0.2531000D+03 0.1061200D+03 0.4724200D+02 0.2182500D+02
EXPONENTS  0.9968400D+01 0.4517100D+01 0.1998200D+01 0.6662300D+03 0.1061200D+03
EXPONENTS  0.4724200D+02 0.2182500D+02 0.9968400D+01 0.4517100D+01 0.1998200D+01
EXPONENTS  0.2814500D+00 0.6662300D+03 0.1061200D+03 0.4724200D+02 0.2182500D+02
EXPONENTS  0.9968400D+01 0.4517100D+01 0.1998200D+01 0.2814500D+00 0.6662300D+03
EXPONENTS  0.1061200D+03 0.4724200D+02 0.2182500D+02 0.9968400D+01 0.4517100D+01
EXPONENTS  0.1998200D+01 0.2814500D+00 0.7098800D+00 0.7098800D+00 0.7098800D+00
EXPONENTS  0.1020400D+00 0.1020400D+00 0.1020400D+00 0.3514200D-01 0.3514200D-01
EXPONENTS  0.3514200D-01 0.4038300D+03 0.1211700D+03 0.4634500D+02 0.1972100D+02
EXPONENTS  0.8862400D+01 0.3996200D+01 0.1763600D+01 0.4038300D+03 0.1211700D+03
EXPONENTS  0.4634500D+02 0.1972100D+02 0.8862400D+01 0.3996200D+01 0.1763600D+01
EXPONENTS  0.4038300D+03 0.1211700D+03 0.4634500D+02 0.1972100D+02 0.8862400D+01
EXPONENTS  0.3996200D+01 0.1763600D+01 0.4038300D+03 0.1211700D+03 0.4634500D+02
EXPONENTS  0.1972100D+02 0.8862400D+01 0.3996200D+01 0.1763600D+01 0.4038300D+03
EXPONENTS  0.1211700D+03 0.4634500D+02 0.1972100D+02 0.8862400D+01 0.3996200D+01
EXPONENTS  0.1763600D+01 0.4038300D+03 0.1211700D+03 0.4634500D+02 0.1972100D+02
EXPONENTS  0.8862400D+01 0.3996200D+01 0.1763600D+01 0.7061900D+00 0.7061900D+00
EXPONENTS  0.7061900D+00 0.7061900D+00 0.7061900D+00 0.7061900D+00 0.2639000D+00
EXPONENTS  0.2639000D+00 0.2639000D+00 0.2639000D+00 0.2639000D+00 0.2639000D+00
EXPONENTS  0.1047000D+00 0.1047000D+00 0.1047000D+00 0.1047000D+00 0.1047000D+00
EXPONENTS  0.1047000D+00 0.5515000D+00 0.5515000D+00 0.5515000D+00 0.5515000D+00
EXPONENTS  0.5515000D+00 0.5515000D+00 0.5515000D+00 0.5515000D+00 0.5515000D+00
EXPONENTS  0.5515000D+00 0.2580000D+00 0.2580000D+00 0.2580000D+00 0.2580000D+00
EXPONENTS  0.2580000D+00 0.2580000D+00 0.2580000D+00 0.2580000D+00 0.2580000D+00
EXPONENTS  0.2580000D+00 0.1533000D+05 0.2299000D+04 0.5224000D+03 0.1473000D+03
EXPONENTS  0.4755000D+02 0.1676000D+02 0.6207000D+01 0.5224000D+03 0.1473000D+03
EXPONENTS  0.4755000D+02 0.1676000D+02 0.6207000D+01 0.6882000D+00 0.1752000D+01
EXPONENTS  0.2384000D+00 0.7376000D-01 0.3446000D+02 0.7749000D+01 0.2280000D+01
EXPONENTS  0.3446000D+02 0.7749000D+01 0.2280000D+01 0.3446000D+02 0.7749000D+01
EXPONENTS  0.2280000D+01 0.7156000D+00 0.7156000D+00 0.7156000D+00 0.2140000D+00
EXPONENTS  0.2140000D+00 0.2140000D+00 0.5974000D-01 0.5974000D-01 0.5974000D-01
EXPONENTS  0.2314000D+01 0.2314000D+01 0.2314000D+01 0.2314000D+01 0.2314000D+01
EXPONENTS  0.2314000D+01 0.6450000D+00 0.6450000D+00 0.6450000D+00 0.6450000D+00
EXPONENTS  0.6450000D+00 0.6450000D+00 0.2140000D+00 0.2140000D+00 0.2140000D+00
EXPONENTS  0.2140000D+00 0.2140000D+00 0.2140000D+00 0.1428000D+01 0.1428000D+01
EXPONENTS  0.1428000D+01 0.1428000D+01 0.1428000D+01 0.1428000D+01 0.1428000D+01
EXPONENTS  0.1428000D+01 0.1428000D+01 0.1428000D+01 0.5000000D+00 0.5000000D+00
EXPONENTS  0.5000000D+00 0.5000000D+00 0.5000000D+00 0.5000000D+00 0.5000000D+00
EXPONENTS  0.5000000D+00 0.5000000D+00 0.5000000D+00
MO    1     MO 0.0        OCC NO =    2.0000167  ORB. ENERGY =    0.000000
  0.12122177D+00  0.22598180D+00  0.38194003D+00  0.57412710D+00  0.70521231D+00
  0.59517431D+00  0.22380108D+00  0.29066114D-04  0.21725120D-03  0.81191732D-03
  0.22651229D-02  0.30346402D-02 -0.35833442D-02  0.92866637D-02 -0.19835927D-02
 -0.30769026D-03  0.55429432D-14  0.51968616D-14  0.37004750D-14  0.80799288D-03
  0.75754468D-03  0.53941694D-03  0.36602746D-02  0.34317401D-02  0.24436034D-02
  0.19663405D-15  0.27324041D-03  0.19762068D-02 -0.39807176D-14  0.59317758D-04
  0.38056127D-03 -0.10517572D-15 -0.20985489D-05  0.48594575D-05 -0.93746435D-04
 -0.49709746D-03  0.59084389D-03 -0.53497451D-13 -0.25341254D-14 -0.19311632D-03
  0.33303030D-03 -0.32142886D-03 -0.11601436D-04 -0.49649981D-13  0.17179242D-14
 -0.81652798D-04  0.30657836D-04 -0.18762916D-04 -0.11894920D-04  0.86260669D-15
  0.12233496D-14 -0.17230132D-04 -0.54245257D-15 -0.78624160D-05  0.12273236D-03
 -0.13934734D-14  0.20138630D-04 -0.16357256D-03  0.30208312D-14  0.34486176D-05
 -0.20462451D-03 -0.74989245D-14  0.55489990D-15  0.59505674D-05 -0.13728285D-04
 -0.46902981D-15 -0.56200816D-06  0.28549676D-05 -0.11956699D-14 -0.17289694D-04
  0.38329886D-04  0.10626874D-13 -0.38372568D-01 -0.72184580D-01 -0.12495520D+00
 -0.20482556D+00 -0.32086236D+00 -0.48228223D+00 -0.68929469D+00 -0.91503720D+00
 -0.10656269D+01 -0.97865505D+00 -0.57208814D+00 -0.15011259D+00 -0.85347346D-02
 -0.14892194D-03 -0.14990687D-04 -0.18205331D-02 -0.52591004D-02 -0.24103693D-01
 -0.71352180D-01 -0.20692340D+00 -0.43010939D+00 -0.61527660D+00 -0.17641945D+00
  0.70499576D+00  0.68166269D+00  0.14878330D+00 -0.21535933D-02 -0.11125208D-02
 -0.51901396D-02 -0.10533003D-01 -0.41280671D-01 -0.28967624D-01  0.18864813D+00
  0.58455580D+00  0.71504265D-01 -0.51099048D+00 -0.23980782D+00 -0.12256339D-05
 -0.16802469D-05  0.32214397D-05  0.68466185D-05 -0.25882134D-04 -0.83696246D-04
 -0.29108281D-04  0.28471069D-03  0.63505244D-03 -0.42140147D-03 -0.99737846D-02
  0.59743191D-03  0.15033500D-03 -0.48092927D-08 -0.69006172D-08 -0.91370548D-08
 -0.10551708D-07 -0.97834231D-08 -0.63356135D-08 -0.22355795D-08 -0.25759210D-09
  0.42082636D-12  0.11528788D+02  0.16542090D+02  0.21903256D+02  0.25294448D+02
  0.23452724D+02  0.15187669D+02  0.53591088D+01  0.61749720D+00 -0.10088007D-02
  0.70630913D+01  0.10134482D+02  0.13418990D+02  0.15496598D+02  0.14368269D+02
  0.93046982D+01  0.32832484D+01  0.37830855D+00 -0.61803995D-03  0.15520477D-10
 -0.44251644D-10 -0.21599797D-09 -0.44758886D-09 -0.56167984D-09 -0.89072321D-10
  0.72101034D-09  0.62882555D-09  0.16164897D-09 -0.68748603D-01  0.19601451D+00
  0.95677205D+00  0.19826136D+01  0.24879844D+01  0.39454958D+00 -0.31937455D+01
 -0.27854092D+01 -0.71603087D+00 -0.42194341D-01  0.12030358D+00  0.58721727D+00
  0.12168258D+01  0.15269963D+01  0.24215415D+00 -0.19601560D+01 -0.17095403D+01
 -0.43946276D+00 -0.24502870D-13 -0.34616157D-13  0.16106717D-13 -0.32278013D-13
 -0.35434034D-13 -0.95647564D-13 -0.30141074D-13  0.64713527D-13 -0.26696497D-03
 -0.37715179D-03  0.17548676D-03 -0.35167712D-03 -0.38606276D-03 -0.10421044D-02
 -0.32839463D-03  0.70507025D-03 -0.15343354D-03 -0.21676153D-03  0.10085801D-03
 -0.20212040D-03 -0.22188296D-03 -0.59893165D-03 -0.18873919D-03  0.40522705D-03
  0.54206406D-11 -0.25366577D-01 -0.15694028D-01  0.57181278D-13  0.11286934D-03
  0.57012408D-04 -0.11218875D-14  0.90066399D-05  0.65814324D-05  0.11956012D+01
  0.12510678D+01  0.10659767D+01  0.70202625D+00  0.32354300D+00  0.96885475D-01
  0.16484242D-01 -0.14847460D+01 -0.15536267D+01 -0.13237731D+01 -0.87180469D+00
 -0.40178883D+00 -0.12031631D+00 -0.20470801D-01  0.28914487D+00  0.30255896D+00
  0.25779642D+00  0.16977844D+00  0.78245826D-01  0.23430839D-01  0.39865587D-02
  0.19429184D-09  0.20330548D-09  0.17322715D-09  0.11408317D-09  0.52577538D-10
  0.15744429D-10  0.26787811D-11  0.13047214D-10  0.13652504D-10  0.11632664D-10
  0.76609887D-11  0.35307216D-11  0.10572803D-11  0.17988728D-12 -0.43409584D+01
 -0.45423453D+01 -0.38703213D+01 -0.25488992D+01 -0.11747117D+01 -0.35176933D+00
 -0.59850569D-01  0.13116837D-02 -0.16041277D-02  0.29244392D-03  0.18273821D-12
  0.35788966D-13 -0.43743955D-02 -0.12464324D-03  0.11576023D-03  0.88830145D-05
 -0.77252708D-14 -0.49342168D-14  0.32480612D-03 -0.13107684D-04  0.14952037D-04
 -0.18443531D-05  0.21811748D-14  0.10874840D-14  0.31148116D-04 -0.10914820D-13
 -0.48493530D-04  0.10857135D-03  0.28702850D-13  0.24386028D-03  0.16449457D-03
  0.40416100D-14 -0.98379688D-04 -0.49020863D-03  0.57368602D-13  0.13662920D-14
  0.99994853D-05 -0.23814677D-04 -0.31885959D-14 -0.74694317D-04 -0.58327377D-04
 -0.91028000D-15  0.44695861D-04  0.12977141D-03 -0.74772099D-14 -0.30405126D-01
 -0.57196621D-01 -0.99010272D-01 -0.16229685D+00 -0.25424048D+00 -0.38214413D+00
 -0.54617381D+00 -0.72504454D+00 -0.84436675D+00 -0.77545317D+00 -0.45330330D+00
 -0.11894414D+00 -0.67626351D-02 -0.11800071D-03 -0.11878114D-04 -0.14426834D-02
 -0.41675798D-02 -0.19100998D-01 -0.56543113D-01 -0.16397668D+00 -0.34084066D+00
 -0.48757661D+00 -0.13980379D+00  0.55867466D+00  0.54018434D+00  0.11790349D+00
 -0.17066174D-02 -0.88292859D-03 -0.41190445D-02 -0.83592951D-02 -0.32761531D-01
 -0.22989542D-01  0.14971660D+00  0.46392035D+00  0.56747848D-01 -0.40553679D+00
 -0.19031840D+00 -0.97031465D-06 -0.13302244D-05  0.25503619D-05  0.54203576D-05
 -0.20490469D-04 -0.66260970D-04 -0.23044558D-04  0.22540087D-03  0.50276079D-03
 -0.33361676D-03 -0.78979781D-02  0.48274592D-03  0.15674453D-03 -0.36090367D-09
 -0.51784290D-09 -0.68567184D-09 -0.79183164D-09 -0.73417725D-09 -0.47544334D-09
 -0.16776456D-09 -0.19330480D-10  0.31580065D-13 -0.84219542D+01 -0.12084247D+02
 -0.16000660D+02 -0.18477977D+02 -0.17132570D+02 -0.11094822D+02 -0.39149101D+01
 -0.45109105D+00  0.73694420D-03  0.52815490D+01  0.75782345D+01  0.10034283D+02
  0.11587850D+02  0.10744122D+02  0.69577494D+01  0.24551059D+01  0.28288678D+00
 -0.46215009D-03 -0.15824320D-10  0.45117956D-10  0.22022655D-09  0.45635128D-09
  0.57267581D-09  0.90816085D-10 -0.73512552D-09 -0.64113604D-09 -0.16481356D-09
  0.50149852D-01 -0.14298616D+00 -0.69793385D+00 -0.14462516D+01 -0.18149031D+01
 -0.28781098D+00  0.23297327D+01  0.20318647D+01  0.52232105D+00 -0.31538240D-01
  0.89921140D-01  0.43891665D+00  0.90951875D+00  0.11413563D+01  0.18099858D+00
 -0.14651223D+01 -0.12777991D+01 -0.32847727D+00  0.28378537D-13  0.40091462D-13
 -0.18654348D-13  0.37383489D-13  0.41038703D-13  0.11077632D-12  0.34908546D-13
 -0.74949391D-13  0.24587986D-03  0.34736404D-03 -0.16162668D-03  0.32390138D-03
  0.35557122D-03  0.95979817D-03  0.30245776D-03 -0.64938324D-03 -0.12804608D-03
 -0.18089567D-03  0.84169810D-04 -0.16867709D-03 -0.18516969D-03 -0.49983104D-03
 -0.15750997D-03  0.33817725D-03 -0.54601398D-11  0.18494755D-01 -0.11739992D-01
 -0.54330278D-13 -0.13727953D-03  0.62177054D-04  0.11589517D-14 -0.84956511D-05
  0.66344213D-05  0.86268910D+00  0.90271119D+00  0.76915825D+00  0.50654885D+00
  0.23345329D+00  0.69907964D-01  0.11894247D-01 -0.10528786D+01 -0.11017240D+01
 -0.93872786D+00 -0.61822326D+00 -0.28492069D+00 -0.85319963D-01 -0.14516468D-01
  0.19018954D+00  0.19901286D+00  0.16956961D+00  0.11167441D+00  0.51467409D-01
  0.15411999D-01  0.26222210D-02  0.35723498D-09  0.37380791D-09  0.31850435D-09
  0.20975919D-09  0.96671767D-10  0.28948517D-10  0.49253447D-11  0.35065370D-09
  0.36692131D-09  0.31263660D-09  0.20589483D-09  0.94890799D-10  0.28415203D-10
  0.48346059D-11  0.31666005D+01  0.33135062D+01  0.28232846D+01  0.18593464D+01
  0.85691739D+00  0.25660530D+00  0.43659216D-01  0.97304430D-03 -0.11859975D-02
  0.21295317D-03  0.31326858D-12  0.25448312D-12  0.32410930D-02 -0.10622035D-03
  0.10457350D-03  0.16468507D-05 -0.98004651D-14  0.63867020D-14 -0.27872166D-03
 -0.13977702D-04  0.15394927D-04 -0.14172247D-05  0.84652509D-15 -0.36107082D-15
 -0.26146164D-04  0.10956569D-13  0.34762395D-04  0.76308565D-04 -0.33294212D-13
 -0.17673548D-03  0.12505264D-03  0.42450600D-15  0.72448297D-04 -0.35397834D-03
  0.59610478D-13 -0.18186878D-14 -0.10038622D-04 -0.17911348D-04  0.54255577D-14
  0.62976733D-04 -0.49996915D-04  0.30505620D-16 -0.32860867D-04  0.10373096D-03
 -0.97253412D-14 -0.34631711D-01 -0.64547815D-01 -0.10944989D+00 -0.16564077D+00
 -0.20662381D+00 -0.17731397D+00 -0.67901829D-01 -0.33335443D-05 -0.35766743D-04
 -0.13184295D-03 -0.38550105D-03 -0.46454751D-03  0.55959670D-03 -0.30781794D-02
  0.28900241D-03  0.67510279D-04  0.24403895D-13  0.23663569D-13  0.15963304D-13
 -0.38836878D-03 -0.37658708D-03 -0.25404342D-03  0.26947951D-02  0.26130447D-02
  0.17627445D-02  0.75517182D-14 -0.90561201D-04  0.60779042D-03  0.10062881D-14
  0.94876336D-05  0.77604759D-04 -0.22845605D-15  0.39257664D-05  0.73615745D-05
  0.28049868D-03 -0.50580983D-04 -0.22991770D-03 -0.25753532D-13 -0.64944017D-16
 -0.51019796D-04  0.32128033D-04  0.15336072D-03 -0.18548875D-03  0.46707484D-14
  0.23932599D-15 -0.27106855D-04  0.28069128D-05  0.45355296D-04 -0.48162209D-04
 -0.29702976D-15 -0.47940605D-15 -0.95523389D-05 -0.10895546D-14 -0.70596374D-05
 -0.28642582D-03  0.34986436D-14  0.18960770D-04  0.42716183D-03 -0.22997980D-15
  0.22181424D-05  0.43211562D-03  0.76576101D-14 -0.29370789D-15  0.18022089D-06
  0.78586958D-04 -0.26557156D-15 -0.80611314D-05 -0.40347767D-04  0.11466952D-14
  0.75204688D-05 -0.19541311D-03 -0.10150107D-13
MO    2     MO 0.0        OCC NO =    2.0000159  ORB. ENERGY =    0.000000
  0.16634711D-01  0.31010453D-01  0.52411890D-01  0.78784846D-01  0.96773072D-01
  0.81673059D-01  0.30711203D-01  0.38366294D-05  0.28676428D-04  0.10717036D-03
  0.29898861D-03  0.40056231D-03 -0.47298940D-03  0.12854480D-02 -0.26081151D-03
 -0.40755463D-04 -0.40871927D-14 -0.38320029D-14 -0.27286144D-14 -0.58260891D-02
 -0.54623288D-02 -0.38895035D-02  0.46461516D-03  0.43560625D-03  0.31017760D-03
  0.66470041D-15 -0.19648948D-02  0.25978741D-03 -0.20574833D-14 -0.44973528D-03
  0.51538989D-04 -0.78447113D-15  0.15979833D-04  0.58960844D-06 -0.14111734D-04
 -0.63312777D-04  0.77424511D-04  0.64399283D-13 -0.35878123D-14  0.14439639D-02
  0.45638549D-04 -0.42608831D-04 -0.30297180D-05  0.42468417D-13  0.56382614D-14
  0.61859264D-03  0.41802155D-05 -0.24927024D-05 -0.16875130D-05 -0.12035288D-14
  0.22508355D-15  0.13205672D-03 -0.19338221D-14  0.54806167D-04  0.16599042D-04
  0.42564584D-14 -0.14553065D-03 -0.22976184D-04  0.15450081D-14 -0.18887856D-04
 -0.26820943D-04 -0.25115273D-14  0.23373756D-15 -0.44922456D-04 -0.21371451D-05
 -0.13936389D-14  0.89389727D-05  0.27806717D-06  0.69242618D-15  0.12582840D-03
  0.61333681D-05 -0.55697746D-14  0.25942148D-01  0.48801087D-01  0.84477175D-01
  0.13847431D+00  0.21692212D+00  0.32605159D+00  0.46600438D+00  0.61861980D+00
  0.72042745D+00  0.66162926D+00  0.38676575D+00  0.10148508D+00  0.57699903D-02
  0.10068013D-03  0.10134600D-04  0.12305198D-02  0.35546881D-02  0.16291971D-01
  0.48227782D-01  0.13986197D+00  0.29071602D+00  0.41587272D+00  0.11924399D+00
 -0.47651497D+00 -0.46074387D+00 -0.10056439D+00  0.14556392D-02  0.74768384D-03
  0.34880998D-02  0.70788396D-02  0.27743204D-01  0.19468063D-01 -0.12678339D+00
 -0.39285821D+00 -0.48055357D-01  0.34341770D+00  0.16116591D+00  0.82324104D-06
  0.11285981D-05 -0.21637956D-05 -0.45987772D-05  0.17384665D-04  0.56217589D-04
  0.19551622D-04 -0.19123616D-03 -0.42655577D-03  0.28304943D-03  0.67280072D-02
 -0.33444887D-03  0.47702962D-04 -0.74567764D-08 -0.10699361D-07 -0.14166943D-07
 -0.16360353D-07 -0.15169133D-07 -0.98233268D-08 -0.34662513D-08 -0.39939485D-09
  0.65248848D-12 -0.10151163D+02 -0.14565403D+02 -0.19285940D+02 -0.22271904D+02
 -0.20650255D+02 -0.13372828D+02 -0.47187254D+01 -0.54370975D+00  0.88825469D-03
 -0.59540038D+01 -0.85431068D+01 -0.11311863D+02 -0.13063233D+02 -0.12112080D+02
 -0.78436206D+01 -0.27676937D+01 -0.31890435D+00  0.52099174D-03 -0.16189442D-10
  0.46158983D-10  0.22530793D-09  0.46688087D-09  0.58588941D-09  0.92911524D-10
 -0.75208739D-09 -0.65592925D-09 -0.16861637D-09  0.60842157D-01 -0.17347183D+00
 -0.84673831D+00 -0.17546028D+01 -0.22018533D+01 -0.34917433D+00  0.28264482D+01
  0.24650727D+01  0.63368361D+00  0.35617246D-01 -0.10155111D+00 -0.49568405D+00
 -0.10271516D+01 -0.12889739D+01 -0.20440808D+00  0.16546143D+01  0.14430636D+01
  0.37096097D+00  0.36483741D-13  0.51542000D-13 -0.23982223D-13  0.48060602D-13
  0.52759783D-13  0.14241519D-12  0.44878790D-13 -0.96355715D-13  0.42848491D-04
  0.60533730D-04 -0.28166028D-04  0.56444986D-04  0.61963961D-04  0.16726015D-03
  0.52708093D-04 -0.11316540D-03  0.83231991D-04  0.11758507D-03 -0.54711718D-04
  0.10964280D-03  0.12036325D-03  0.32489815D-03  0.10238399D-03 -0.21982060D-03
 -0.54985673D-11  0.22447213D-01  0.13190220D-01 -0.57466258D-13  0.11312849D-03
  0.25470386D-04  0.13791480D-14 -0.57977453D-06  0.98720460D-06 -0.10386834D+01
 -0.10868703D+01 -0.92607167D+00 -0.60988821D+00 -0.28107932D+00 -0.84169656D-01
 -0.14320753D-01  0.12915037D+01  0.13514195D+01  0.11514818D+01  0.75833779D+00
  0.34949531D+00  0.10465694D+00  0.17806490D-01 -0.25282030D+00 -0.26454920D+00
 -0.22541008D+00 -0.14844958D+00 -0.68415992D-01 -0.20487279D-01 -0.34857369D-02
 -0.69510950D-10 -0.72735719D-10 -0.61974726D-10 -0.40815042D-10 -0.18810438D-10
 -0.56328160D-11 -0.95837589D-12 -0.38414001D-10 -0.40196113D-10 -0.34249240D-10
 -0.22555714D-10 -0.10395257D-10 -0.31128765D-11 -0.52962954D-12  0.37316329D+01
  0.39047517D+01  0.33270575D+01  0.21911189D+01  0.10098215D+01  0.30239267D+00
  0.51449549D-01 -0.10487387D-02  0.12294855D-02 -0.18074675D-03 -0.77261932D-13
 -0.50501950D-13  0.35918222D-02  0.52377881D-04 -0.21032062D-04 -0.31345819D-04
  0.51162723D-14  0.34554569D-14 -0.13350328D-03 -0.55207862D-05  0.46795338D-05
  0.84125231D-06 -0.11503569D-14 -0.68205337D-15 -0.15124615D-04  0.11208928D-13
  0.36921284D-04 -0.10175516D-03 -0.30945535D-13 -0.20936506D-03 -0.12446909D-03
 -0.26812503D-14  0.98601207D-04  0.42973456D-03 -0.63138655D-13 -0.14342575D-14
  0.38361847D-05  0.18112775D-04  0.36069520D-14  0.32031312D-04  0.24080261D-04
  0.69582043D-15 -0.43539866D-04 -0.78418585D-04  0.78609978D-14 -0.35551505D-01
 -0.66877736D-01 -0.11576878D+00 -0.18976725D+00 -0.29727330D+00 -0.44682595D+00
 -0.63861933D+00 -0.84776577D+00 -0.98728448D+00 -0.90670658D+00 -0.53002953D+00
 -0.13907666D+00 -0.79072805D-02 -0.13797354D-03 -0.13888607D-04 -0.16866196D-02
 -0.48722553D-02 -0.22330691D-01 -0.66103708D-01 -0.19170268D+00 -0.39847172D+00
 -0.57001853D+00 -0.16344252D+00  0.65313820D+00  0.63152145D+00  0.13783921D+00
 -0.19951808D-02 -0.10270212D-02 -0.47912663D-02 -0.97235193D-02 -0.38108163D-01
 -0.26741401D-01  0.17415012D+00  0.53963144D+00  0.66009010D-01 -0.47171978D+00
 -0.22137807D+00 -0.11203957D-05 -0.15359736D-05  0.29448329D-05  0.62587381D-05
 -0.23659781D-04 -0.76509722D-04 -0.26608918D-04  0.26026420D-03  0.58052408D-03
 -0.38521811D-03 -0.92130579D-02  0.46854808D-03 -0.74297753D-05  0.99710186D-08
  0.14306923D-07  0.18943689D-07  0.21876663D-07  0.20283792D-07  0.13135512D-07
  0.46349862D-08  0.53406100D-09 -0.87249160D-12 -0.12720414D+02 -0.18251895D+02
 -0.24167195D+02 -0.27908904D+02 -0.25876817D+02 -0.16757480D+02 -0.59130309D+01
 -0.68132224D+00  0.11130712D-02  0.76275664D+01  0.10944419D+02  0.14491422D+02
  0.16735071D+02  0.15516566D+02  0.10048320D+02  0.35456423D+01  0.40854258D+00
 -0.66743307D-03  0.15745153D-10 -0.44892237D-10 -0.21912478D-09 -0.45406822D-09