 Entering Gaussian System, Link 0=/home/bruns/programas/chemistry/gaussian/g09/g09
 Input=GAUSSIAN.com
 Output=GAUSSIAN.log
 Initial command:
 /home/bruns/programas/chemistry/gaussian/g09/l1.exe /home/bruns/programas/chemistry/gaussian/work/Gau-2775.inp -scrdir=/home/bruns/programas/chemistry/gaussian/work/
 Entering Link 1 = /home/bruns/programas/chemistry/gaussian/g09/l1.exe PID=      2777.
  
 Copyright (c) 1988,1990,1992,1993,1995,1998,2003,2009,2010,
            Gaussian, Inc.  All Rights Reserved.
  
 This is part of the Gaussian(R) 09 program.  It is based on
 the Gaussian(R) 03 system (copyright 2003, Gaussian, Inc.),
 the Gaussian(R) 98 system (copyright 1998, Gaussian, Inc.),
 the Gaussian(R) 94 system (copyright 1995, Gaussian, Inc.),
 the Gaussian 92(TM) system (copyright 1992, Gaussian, Inc.),
 the Gaussian 90(TM) system (copyright 1990, Gaussian, Inc.),
 the Gaussian 88(TM) system (copyright 1988, Gaussian, Inc.),
 the Gaussian 86(TM) system (copyright 1986, Carnegie Mellon
 University), and the Gaussian 82(TM) system (copyright 1983,
 Carnegie Mellon University). Gaussian is a federally registered
 trademark of Gaussian, Inc.
  
 This software contains proprietary and confidential information,
 including trade secrets, belonging to Gaussian, Inc.
  
 This software is provided under written license and may be
 used, copied, transmitted, or stored only in accord with that
 written license.
  
 The following legend is applicable only to US Government
 contracts under FAR:
  
                    RESTRICTED RIGHTS LEGEND
  
 Use, reproduction and disclosure by the US Government is
 subject to restrictions as set forth in subparagraphs (a)
 and (c) of the Commercial Computer Software - Restricted
 Rights clause in FAR 52.227-19.
  
 Gaussian, Inc.
 340 Quinnipiac St., Bldg. 40, Wallingford CT 06492
  
  
 ---------------------------------------------------------------
 Warning -- This program may not be used in any manner that
 competes with the business of Gaussian, Inc. or will provide
 assistance to any competitor of Gaussian, Inc.  The licensee
 of this program is prohibited from giving any competitor of
 Gaussian, Inc. access to this program.  By using this program,
 the user acknowledges that Gaussian, Inc. is engaged in the
 business of creating and licensing software in the field of
 computational chemistry and represents and warrants to the
 licensee that it is not a competitor of Gaussian, Inc. and that
 it will not use this program in any manner prohibited above.
 ---------------------------------------------------------------
  

 Cite this work as:
 Gaussian 09, Revision B.01,
 M. J. Frisch, G. W. Trucks, H. B. Schlegel, G. E. Scuseria, 
 M. A. Robb, J. R. Cheeseman, G. Scalmani, V. Barone, B. Mennucci, 
 G. A. Petersson, H. Nakatsuji, M. Caricato, X. Li, H. P. Hratchian, 
 A. F. Izmaylov, J. Bloino, G. Zheng, J. L. Sonnenberg, M. Hada, 
 M. Ehara, K. Toyota, R. Fukuda, J. Hasegawa, M. Ishida, T. Nakajima, 
 Y. Honda, O. Kitao, H. Nakai, T. Vreven, J. A. Montgomery, Jr., 
 J. E. Peralta, F. Ogliaro, M. Bearpark, J. J. Heyd, E. Brothers, 
 K. N. Kudin, V. N. Staroverov, T. Keith, R. Kobayashi, J. Normand, 
 K. Raghavachari, A. Rendell, J. C. Burant, S. S. Iyengar, J. Tomasi, 
 M. Cossi, N. Rega, J. M. Millam, M. Klene, J. E. Knox, J. B. Cross, 
 V. Bakken, C. Adamo, J. Jaramillo, R. Gomperts, R. E. Stratmann, 
 O. Yazyev, A. J. Austin, R. Cammi, C. Pomelli, J. W. Ochterski, 
 R. L. Martin, K. Morokuma, V. G. Zakrzewski, G. A. Voth, 
 P. Salvador, J. J. Dannenberg, S. Dapprich, A. D. Daniels, 
 O. Farkas, J. B. Foresman, J. V. Ortiz, J. Cioslowski, 
 and D. J. Fox, Gaussian, Inc., Wallingford CT, 2010.
 
 ******************************************
 Gaussian 09:  EM64L-G09RevB.01 12-Aug-2010
                28-Nov-2021 
 ******************************************
 %nproc=8
 Will use up to    8 processors via shared memory.
 %mem=8GB
 -----------------------------------------------------
 # qcisd/aug-cc-pvtz nosymm density=current output=wfn
 -----------------------------------------------------
 1/30=1,38=1/1;
 2/12=2,15=1,17=6,18=5,40=1/2;
 3/5=16,6=1,7=10,11=9,16=1,25=1,30=1,71=1/1,2,3;
 4//1;
 5/5=2,38=5/2;
 8/6=4,9=120000,10=1/1,4;
 9/5=8,15=1/13;
 11/28=-7,31=1,32=3,42=3/11;
 10/5=6,13=10,31=1/2;
 6/7=2,8=2,9=2,10=2,22=-1,31=1/1;
 99/5=1,6=1100,9=1/99;
 ------------------
 br2co-wavefunction
 ------------------
 Symbolic Z-matrix:
 Charge =  0 Multiplicity = 1
 C                     0.        0.       -0.49176 
 Br                    0.       -1.59418  -1.54682 
 Br                    0.        1.59418  -1.54682 
 O                     0.        0.        0.6745 
 
                          Input orientation:                          
 ---------------------------------------------------------------------
 Center     Atomic      Atomic             Coordinates (Angstroms)
 Number     Number       Type             X           Y           Z
 ---------------------------------------------------------------------
      1          6           0        0.000000    0.000000   -0.491759
      2         35           0        0.000000   -1.594181   -1.546820
      3         35           0        0.000000    1.594181   -1.546820
      4          8           0        0.000000    0.000000    0.674500
 ---------------------------------------------------------------------
                    Distance matrix (angstroms):
                    1          2          3          4
     1  C    0.000000
     2  Br   1.911692   0.000000
     3  Br   1.911692   3.188362   0.000000
     4  O    1.166259   2.734168   2.734168   0.000000
 Symmetry turned off by external request.
 Stoichiometry    CBr2O
 Framework group  C2V[C2(CO),SGV(Br2)]
 Deg. of freedom     3
 Full point group                 C2V     NOp   4
 Rotational constants (GHZ):      6.3343408      1.2598940      1.0508759
 Standard basis: Aug-CC-pVTZ (5D, 7F)
 Integral buffers will be    131072 words long.
 Raffenetti 1 integral format.
 Two-electron integral symmetry is turned off.
   210 basis functions,   578 primitive gaussians,   248 cartesian basis functions
    42 alpha electrons       42 beta electrons
       nuclear repulsion energy       449.7388208599 Hartrees.
 NAtoms=    4 NActive=    4 NUniq=    4 SFac= 1.00D+00 NAtFMM=   50 NAOKFM=F Big=F
 One-electron integrals computed using PRISM.
 NBasis=   210 RedAO= T  NBF=   210
 NBsUse=   210 1.00D-06 NBFU=   210
 Harris functional with IExCor=  205 diagonalized for initial guess.
 ExpMin= 3.51D-02 ExpMax= 1.06D+07 ExpMxC= 1.21D+04 IAcc=3 IRadAn=         0 AccDes= 0.00D+00
 HarFok:  IExCor=  205 AccDes= 0.00D+00 IRadAn=         0 IDoV= 1
 ScaDFX=  1.000000  1.000000  1.000000  1.000000
 FoFCou: FMM=F IPFlag=           0 FMFlag=      100000 FMFlg1=           0
         NFxFlg=           0 DoJE=T BraDBF=F KetDBF=T FulRan=T
         Omega=  0.000000  0.000000  1.000000  0.000000  0.000000 ICntrl=     500 IOpCl=  0
         NMat0=    1 NMatS0=    1 NMatT0=    0 NMatD0=    1 NMtDS0=    0 NMtDT0=    0
         I1Cent=           4 NGrid=           0.
 Symmetry not used in FoFCou.
 Requested convergence on RMS density matrix=1.00D-08 within 128 cycles.
 Requested convergence on MAX density matrix=1.00D-06.
 Requested convergence on             energy=1.00D-06.
 No special actions if energy rises.
 Keep R1 ints in memory in canonical form, NReq=484604278.
 SCF Done:  E(RHF) =  -5257.68540515     A.U. after   12 cycles
             Convg  =    0.8811D-08             -V/T =  2.0000
 ExpMin= 3.51D-02 ExpMax= 1.06D+07 ExpMxC= 1.21D+04 IAcc=3 IRadAn=         5 AccDes= 0.00D+00
 HarFok:  IExCor=  205 AccDes= 0.00D+00 IRadAn=         5 IDoV=-2
 ScaDFX=  1.000000  1.000000  1.000000  1.000000
 DSYEVD returned Info=          93 IAlg= 4 N=    46 NDim=    46 NE2=    18196533 trying DSYEV.
 DSYEVD returned Info=         119 IAlg= 4 N=    59 NDim=    59 NE2=    18196533 trying DSYEV.
 DSYEVD returned Info=         119 IAlg= 4 N=    59 NDim=    59 NE2=    18196533 trying DSYEV.
 DSYEVD returned Info=          93 IAlg= 4 N=    46 NDim=    46 NE2=    18196533 trying DSYEV.
 Range of M.O.s used for correlation:    21   210
 NBasis=   210 NAE=    42 NBE=    42 NFC=    20 NFV=     0
 NROrb=    190 NOA=    22 NOB=    22 NVA=   168 NVB=   168

 **** Warning!!: The largest alpha MO coefficient is  0.28053918D+02

 Semi-Direct transformation.
 ModeAB=           2 MOrb=            22 LenV=    1072497249
 LASXX=     69628944 LTotXX=    69628944 LenRXX=    69628944
 LTotAB=    70719517 MaxLAS=   129061680 LenRXY=   129061680
 NonZer=   139257888 LenScr=   209707008 LnRSAI=           0
 LnScr1=           0 LExtra=           0 Total=    408397632
 MaxDsk=          -1 SrtSym=           F ITran=            4
 JobTyp=0 Pass  1:  I=   1 to  22.
 (rs|ai) integrals will be sorted in core.
 Spin components of T(2) and E(2):
     alpha-alpha T2 =       0.3815433126D-01 E2=     -0.1231140450D+00
     alpha-beta  T2 =       0.1916247020D+00 E2=     -0.6165671512D+00
     beta-beta   T2 =       0.3815433126D-01 E2=     -0.1231140450D+00
 ANorm=    0.1126025472D+01
 E2 =    -0.8627952411D+00 EUMP2 =    -0.52585482003886D+04
 R2 and R3 integrals will be kept in memory, NReq=   961077252.
 Iterations=  50 Convergence= 0.100D-07
 Iteration Nr.   1
 **********************
 DD1Dir will call FoFMem   1 times, MxPair=       506
 NAB=   253 NAA=     0 NBB=     0.
 MP4(R+Q)=  0.21378108D-01
 E3=       -0.40756426D-03        EUMP3=      -0.52585486080D+04
 E4(DQ)=    0.43042306D-03        UMP4(DQ)=   -0.52585481775D+04
 E4(SDQ)=  -0.11324694D-01        UMP4(SDQ)=  -0.52585599326D+04
 DE(Corr)= -0.84182470     E(Corr)=     -5258.5272298    
 NORM(A)=   0.11244605D+01
 Iteration Nr.   2
 **********************
 DD1Dir will call FoFMem   1 times, MxPair=       506
 NAB=   253 NAA=     0 NBB=     0.
 DE(Corr)= -0.87127101     E(CORR)=     -5258.5566762     Delta=-2.94D-02
 NORM(A)=   0.11347321D+01
 Iteration Nr.   3
 **********************
 DD1Dir will call FoFMem   1 times, MxPair=       506
 NAB=   253 NAA=     0 NBB=     0.
 DE(Corr)= -0.86929168     E(CORR)=     -5258.5546968     Delta= 1.98D-03
 NORM(A)=   0.11374080D+01
 Iteration Nr.   4
 **********************
 DD1Dir will call FoFMem   1 times, MxPair=       506
 NAB=   253 NAA=     0 NBB=     0.
 DE(Corr)= -0.87175443     E(CORR)=     -5258.5571596     Delta=-2.46D-03
 NORM(A)=   0.11386717D+01
 Iteration Nr.   5
 **********************
 DD1Dir will call FoFMem   1 times, MxPair=       506
 NAB=   253 NAA=     0 NBB=     0.
 DE(Corr)= -0.87211313     E(CORR)=     -5258.5575183     Delta=-3.59D-04
 NORM(A)=   0.11391660D+01
 Iteration Nr.   6
 **********************
 DD1Dir will call FoFMem   1 times, MxPair=       506
 NAB=   253 NAA=     0 NBB=     0.
 DE(Corr)= -0.87217494     E(CORR)=     -5258.5575801     Delta=-6.18D-05
 NORM(A)=   0.11392642D+01
 Iteration Nr.   7
 **********************
 DD1Dir will call FoFMem   1 times, MxPair=       506
 NAB=   253 NAA=     0 NBB=     0.
 DE(Corr)= -0.87218858     E(CORR)=     -5258.5575937     Delta=-1.36D-05
 NORM(A)=   0.11392736D+01
 Iteration Nr.   8
 **********************
 DD1Dir will call FoFMem   1 times, MxPair=       506
 NAB=   253 NAA=     0 NBB=     0.
 DE(Corr)= -0.87218842     E(CORR)=     -5258.5575936     Delta= 1.67D-07
 NORM(A)=   0.11392879D+01
 Iteration Nr.   9
 **********************
 DD1Dir will call FoFMem   1 times, MxPair=       506
 NAB=   253 NAA=     0 NBB=     0.
 DE(Corr)= -0.87218693     E(CORR)=     -5258.5575921     Delta= 1.48D-06
 NORM(A)=   0.11392880D+01
 Iteration Nr.  10
 **********************
 DD1Dir will call FoFMem   1 times, MxPair=       506
 NAB=   253 NAA=     0 NBB=     0.
 DE(Corr)= -0.87218814     E(CORR)=     -5258.5575933     Delta=-1.21D-06
 NORM(A)=   0.11392906D+01
 Iteration Nr.  11
 **********************
 DD1Dir will call FoFMem   1 times, MxPair=       506
 NAB=   253 NAA=     0 NBB=     0.
 DE(Corr)= -0.87218930     E(CORR)=     -5258.5575945     Delta=-1.16D-06
 NORM(A)=   0.11392923D+01
 Iteration Nr.  12
 **********************
 DD1Dir will call FoFMem   1 times, MxPair=       506
 NAB=   253 NAA=     0 NBB=     0.
 DE(Corr)= -0.87218957     E(CORR)=     -5258.5575947     Delta=-2.66D-07
 NORM(A)=   0.11392933D+01
 Iteration Nr.  13
 **********************
 DD1Dir will call FoFMem   1 times, MxPair=       506
 NAB=   253 NAA=     0 NBB=     0.
 DE(Corr)= -0.87219001     E(CORR)=     -5258.5575952     Delta=-4.43D-07
 NORM(A)=   0.11392939D+01
 Iteration Nr.  14
 **********************
 DD1Dir will call FoFMem   1 times, MxPair=       506
 NAB=   253 NAA=     0 NBB=     0.
 DE(Corr)= -0.87219011     E(CORR)=     -5258.5575953     Delta=-9.87D-08
 NORM(A)=   0.11392942D+01
 Iteration Nr.  15
 **********************
 DD1Dir will call FoFMem   1 times, MxPair=       506
 NAB=   253 NAA=     0 NBB=     0.
 DE(Corr)= -0.87219017     E(CORR)=     -5258.5575953     Delta=-6.28D-08
 NORM(A)=   0.11392943D+01
 Iteration Nr.  16
 **********************
 DD1Dir will call FoFMem   1 times, MxPair=       506
 NAB=   253 NAA=     0 NBB=     0.
 DE(Corr)= -0.87219020     E(CORR)=     -5258.5575954     Delta=-2.95D-08
 NORM(A)=   0.11392944D+01
 Iteration Nr.  17
 **********************
 DD1Dir will call FoFMem   1 times, MxPair=       506
 NAB=   253 NAA=     0 NBB=     0.
 DE(Corr)= -0.87219020     E(CORR)=     -5258.5575953     Delta= 4.31D-09
 NORM(A)=   0.11392944D+01
 Iteration Nr.  18
 **********************
 DD1Dir will call FoFMem   1 times, MxPair=       506
 NAB=   253 NAA=     0 NBB=     0.
 DE(Corr)= -0.87219020     E(CORR)=     -5258.5575953     Delta=-1.58D-09
 NORM(A)=   0.11392944D+01
 Iteration Nr.  19
 **********************
 DD1Dir will call FoFMem   1 times, MxPair=       506
 NAB=   253 NAA=     0 NBB=     0.
 DE(Corr)= -0.87219021     E(CORR)=     -5258.5575954     Delta=-4.64D-09
 NORM(A)=   0.11392944D+01
 Iteration Nr.  20
 **********************
 DD1Dir will call FoFMem   1 times, MxPair=       506
 NAB=   253 NAA=     0 NBB=     0.
 DE(Corr)= -0.87219021     E(CORR)=     -5258.5575954     Delta= 9.23D-10
 NORM(A)=   0.11392944D+01
 Iteration Nr.  21
 **********************
 DD1Dir will call FoFMem   1 times, MxPair=       506
 NAB=   253 NAA=     0 NBB=     0.
 DE(Corr)= -0.87219021     E(CORR)=     -5258.5575954     Delta=-3.80D-10
 NORM(A)=   0.11392944D+01
 Iteration Nr.  22
 **********************
 DD1Dir will call FoFMem   1 times, MxPair=       506
 NAB=   253 NAA=     0 NBB=     0.
 DE(Corr)= -0.87219021     E(CORR)=     -5258.5575954     Delta=-6.18D-11
 NORM(A)=   0.11392944D+01
 Largest amplitude= 3.78D-02

 Z-AMPLITUDE ITERATIONS

 Iteration Nr.   1
 **********************
 DD1Dir will call FoFMem   1 times, MxPair=       506
 NAB=   253 NAA=     0 NBB=     0.
 DE(Z)  -0.84520821D+00          E(Z)=    -0.52585306134D+04
 NORM(A)=   0.11387905D+01
 Iteration Nr.   2
 **********************
 DD1Dir will call FoFMem   1 times, MxPair=       506
 NAB=   253 NAA=     0 NBB=     0.
 DE(Z)  -0.84520664D+00          E(Z)=    -0.52585306118D+04
 NORM(A)=   0.11400795D+01
 Iteration Nr.   3
 **********************
 DD1Dir will call FoFMem   1 times, MxPair=       506
 NAB=   253 NAA=     0 NBB=     0.
 DE(Z)  -0.84521032D+00          E(Z)=    -0.52585306155D+04
 NORM(A)=   0.11380166D+01
 Iteration Nr.   4
 **********************
 DD1Dir will call FoFMem   1 times, MxPair=       506
 NAB=   253 NAA=     0 NBB=     0.
 DE(Z)  -0.84520495D+00          E(Z)=    -0.52585306101D+04
 NORM(A)=   0.11444438D+01
 Iteration Nr.   5
 **********************
 DD1Dir will call FoFMem   1 times, MxPair=       506
 NAB=   253 NAA=     0 NBB=     0.
 DE(Z)  -0.84523519D+00          E(Z)=    -0.52585306403D+04
 NORM(A)=   0.11295308D+01
 Iteration Nr.   6
 **********************
 DD1Dir will call FoFMem   1 times, MxPair=       506
 NAB=   253 NAA=     0 NBB=     0.
 DE(Z)  -0.84516454D+00          E(Z)=    -0.52585305697D+04
 NORM(A)=   0.11295312D+01
 Iteration Nr.   7
 **********************
 DD1Dir will call FoFMem   1 times, MxPair=       506
 NAB=   253 NAA=     0 NBB=     0.
 DE(Z)  -0.84516097D+00          E(Z)=    -0.52585305661D+04
 NORM(A)=   0.11295313D+01
 Iteration Nr.   8
 **********************
 DD1Dir will call FoFMem   1 times, MxPair=       506
 NAB=   253 NAA=     0 NBB=     0.
 DE(Z)  -0.84516276D+00          E(Z)=    -0.52585305679D+04
 NORM(A)=   0.11295317D+01
 Iteration Nr.   9
 **********************
 DD1Dir will call FoFMem   1 times, MxPair=       506
 NAB=   253 NAA=     0 NBB=     0.
 DE(Z)  -0.84516254D+00          E(Z)=    -0.52585305677D+04
 NORM(A)=   0.11295318D+01
 Iteration Nr.  10
 **********************
 DD1Dir will call FoFMem   1 times, MxPair=       506
 NAB=   253 NAA=     0 NBB=     0.
 DE(Z)  -0.84516257D+00          E(Z)=    -0.52585305677D+04
 NORM(A)=   0.11295318D+01
 Iteration Nr.  11
 **********************
 DD1Dir will call FoFMem   1 times, MxPair=       506
 NAB=   253 NAA=     0 NBB=     0.
 DE(Z)  -0.84516259D+00          E(Z)=    -0.52585305677D+04
 NORM(A)=   0.11295318D+01
 Iteration Nr.  12
 **********************
 DD1Dir will call FoFMem   1 times, MxPair=       506
 NAB=   253 NAA=     0 NBB=     0.
 DE(Z)  -0.84516258D+00          E(Z)=    -0.52585305677D+04
 NORM(A)=   0.11295319D+01
 Iteration Nr.  13
 **********************
 DD1Dir will call FoFMem   1 times, MxPair=       506
 NAB=   253 NAA=     0 NBB=     0.
 DE(Z)  -0.84516258D+00          E(Z)=    -0.52585305677D+04
 NORM(A)=   0.11295318D+01
 Iteration Nr.  14
 **********************
 DD1Dir will call FoFMem   1 times, MxPair=       506
 NAB=   253 NAA=     0 NBB=     0.
 DE(Z)  -0.84516258D+00          E(Z)=    -0.52585305677D+04
 NORM(A)=   0.11295318D+01
 Discarding MO integrals.
          Differentiating once with respect to electric field.
                with respect to dipole field.
          Electric field/nuclear overlap derivatives assumed to be zero.
          Keep R1 ints in memory in canonical form, NReq=478620341.
          There are     1 degrees of freedom in the 1st order CPHF.  IDoFFX=0.
 LinEq1:  Iter=  0 NonCon=     1 RMS=1.94D-03 Max=5.23D-02
 AX will form     1 AO Fock derivatives at one time.
 LinEq1:  Iter=  1 NonCon=     1 RMS=7.35D-04 Max=2.62D-02
 LinEq1:  Iter=  2 NonCon=     1 RMS=3.05D-04 Max=9.26D-03
 LinEq1:  Iter=  3 NonCon=     1 RMS=1.00D-04 Max=2.68D-03
 LinEq1:  Iter=  4 NonCon=     1 RMS=5.19D-05 Max=1.60D-03
 LinEq1:  Iter=  5 NonCon=     1 RMS=1.61D-05 Max=4.44D-04
 LinEq1:  Iter=  6 NonCon=     1 RMS=6.14D-06 Max=1.22D-04
 LinEq1:  Iter=  7 NonCon=     1 RMS=1.31D-06 Max=2.08D-05
 LinEq1:  Iter=  8 NonCon=     1 RMS=2.59D-07 Max=4.06D-06
 LinEq1:  Iter=  9 NonCon=     1 RMS=6.21D-08 Max=1.19D-06
 LinEq1:  Iter= 10 NonCon=     1 RMS=1.32D-08 Max=1.89D-07
 LinEq1:  Iter= 11 NonCon=     1 RMS=3.69D-09 Max=8.89D-08
 LinEq1:  Iter= 12 NonCon=     1 RMS=6.77D-10 Max=1.57D-08
 LinEq1:  Iter= 13 NonCon=     1 RMS=1.14D-10 Max=2.40D-09
 LinEq1:  Iter= 14 NonCon=     0 RMS=1.80D-11 Max=4.23D-10
 Linear equations converged to 1.000D-10 1.000D-09 after    14 iterations.
 End of Minotr Frequency-dependent properties file   721 does not exist.
 End of Minotr Frequency-dependent properties file   722 does not exist.

 **********************************************************************

            Population analysis using the QCI/CC density.

 **********************************************************************

     Natural Orbital Coefficients:
                           1         2         3         4         5
     Eigenvalues --     2.00002   2.00002   2.00001   2.00001   2.00001
   1 1   C  1S          0.36779   0.00000   0.00000  -0.22935   0.00000
   2        2S         -0.01007   0.00000   0.00000   0.00247   0.00000
   3        3S          0.01426   0.00000   0.00000  -0.00958   0.00000
   4        4S         -0.01297   0.00000   0.00000   0.00312   0.00000
   5        5S         -0.00448   0.00000   0.00000  -0.00270   0.00000
   6        6PX         0.00000   0.00000   0.00000   0.00000   0.00000
   7        6PY         0.00000  -0.00266   0.00002   0.00000  -0.00021
   8        6PZ         0.00168   0.00000   0.00000   0.00013   0.00000
   9        7PX         0.00000   0.00000   0.00000   0.00000   0.00000
  10        7PY         0.00000  -0.00458   0.00024   0.00000  -0.00040
  11        7PZ         0.00463   0.00000   0.00000  -0.00085   0.00000
  12        8PX         0.00000   0.00000   0.00000   0.00000   0.00000
  13        8PY         0.00000  -0.00438  -0.00125   0.00000  -0.00546
  14        8PZ         0.00374   0.00000   0.00000  -0.00074   0.00000
  15        9PX         0.00000   0.00000   0.00000   0.00000   0.00000
  16        9PY         0.00000   0.00074   0.00166   0.00000  -0.00171
  17        9PZ         0.00021   0.00000   0.00000   0.00050   0.00000
  18       10D 0        0.00031   0.00000   0.00000  -0.00019   0.00000
  19       10D+1        0.00000   0.00000   0.00000   0.00000   0.00000
  20       10D-1        0.00000   0.00044  -0.00008   0.00000  -0.00005
  21       10D+2        0.00012   0.00000   0.00000   0.00016   0.00000
  22       10D-2        0.00000   0.00000   0.00000   0.00000   0.00000
  23       11D 0       -0.00006   0.00000   0.00000   0.00009   0.00000
  24       11D+1        0.00000   0.00000   0.00000   0.00000   0.00000
  25       11D-1        0.00000   0.00165   0.00029   0.00000  -0.00034
  26       11D+2        0.00172   0.00000   0.00000  -0.00053   0.00000
  27       11D-2        0.00000   0.00000   0.00000   0.00000   0.00000
  28       12D 0       -0.00042   0.00000   0.00000   0.00015   0.00000
  29       12D+1        0.00000   0.00000   0.00000   0.00000   0.00000
  30       12D-1        0.00000   0.00262   0.00134   0.00000   0.00130
  31       12D+2        0.00097   0.00000   0.00000  -0.00009   0.00000
  32       12D-2        0.00000   0.00000   0.00000   0.00000   0.00000
  33       13F 0        0.00016   0.00000   0.00000  -0.00016   0.00000
  34       13F+1        0.00000   0.00000   0.00000   0.00000   0.00000
  35       13F-1        0.00000  -0.00001   0.00006   0.00000  -0.00001
  36       13F+2        0.00001   0.00000   0.00000  -0.00003   0.00000
  37       13F-2        0.00000   0.00000   0.00000   0.00000   0.00000
  38       13F+3        0.00000   0.00000   0.00000   0.00000   0.00000
  39       13F-3        0.00000  -0.00008  -0.00003   0.00000  -0.00004
  40       14F 0       -0.00018   0.00000   0.00000   0.00053   0.00000
  41       14F+1        0.00000   0.00000   0.00000   0.00000   0.00000
  42       14F-1        0.00000   0.00069   0.00003   0.00000  -0.00005
  43       14F+2       -0.00012   0.00000   0.00000   0.00040   0.00000
  44       14F-2        0.00000   0.00000   0.00000   0.00000   0.00000
  45       14F+3        0.00000   0.00000   0.00000   0.00000   0.00000
  46       14F-3        0.00000   0.00023   0.00012   0.00000   0.00028
  47 2   Br 1S         -0.04482   0.04004  -0.08333  -0.08057  -0.00177
  48        2S          0.16594  -0.14823   0.31033   0.30013   0.00668
  49        3S         -0.34969   0.31080  -0.66914  -0.64753  -0.01448
  50        4S         -0.00112   0.00100  -0.00200  -0.00224   0.00015
  51        5S         -0.01863   0.01661  -0.03238  -0.03117  -0.00065
  52        6S          0.00354  -0.00261  -0.00747  -0.00685  -0.00345
  53        7S          0.00217   0.00041   0.00264   0.00138  -0.00307
  54        8PX         0.00000   0.00000   0.00000   0.00000   0.00000
  55        8PY         0.19170  -0.22048  -0.09893  -0.08220   0.13178
  56        8PZ         0.11902  -0.13120  -0.05232  -0.07256  -0.22762
  57        9PX         0.00000   0.00000   0.00000   0.00000   0.00000
  58        9PY        -0.49888   0.57671   0.27751   0.22996  -0.37306
  59        9PZ        -0.31039   0.34271   0.14620   0.20371   0.64113
  60       10PX         0.00000   0.00000   0.00000   0.00000   0.00000
  61       10PY         0.00228  -0.00068  -0.00010  -0.00078  -0.00122
  62       10PZ         0.00126  -0.00090  -0.00018  -0.00029   0.00099
  63       11PX         0.00000   0.00000   0.00000   0.00000   0.00000
  64       11PY        -0.02367   0.02737   0.01271   0.01045  -0.01659
  65       11PZ        -0.01486   0.01634   0.00666   0.00929   0.02858
  66       12PX         0.00000   0.00000   0.00000   0.00000   0.00000
  67       12PY         0.00151   0.00122   0.00136   0.00034  -0.00404
  68       12PZ         0.00072   0.00023   0.00062   0.00060   0.00189
  69       13PX         0.00000   0.00000   0.00000   0.00000   0.00000
  70       13PY         0.00040  -0.00008   0.00024   0.00021  -0.00021
  71       13PZ         0.00031   0.00001   0.00032   0.00006  -0.00064
  72       14D 0        0.00247  -0.00284  -0.00108  -0.00190  -0.00788
  73       14D+1        0.00000   0.00000   0.00000   0.00000   0.00000
  74       14D-1       -0.02375   0.02667   0.00550   0.00471  -0.00401
  75       14D+2        0.01434  -0.01629  -0.00382  -0.00409  -0.00459
  76       14D-2        0.00000   0.00000   0.00000   0.00000   0.00000
  77       15D 0        0.00027  -0.00021  -0.00006  -0.00014  -0.00048
  78       15D+1        0.00000   0.00000   0.00000   0.00000   0.00000
  79       15D-1       -0.00245   0.00262   0.00029   0.00028  -0.00024
  80       15D+2        0.00162  -0.00165  -0.00021  -0.00023  -0.00028
  81       15D-2        0.00000   0.00000   0.00000   0.00000   0.00000
  82       16D 0        0.00004  -0.00021  -0.00003  -0.00002  -0.00028
  83       16D+1        0.00000   0.00000   0.00000   0.00000   0.00000
  84       16D-1        0.00110  -0.00063   0.00011  -0.00027  -0.00025
  85       16D+2       -0.00082   0.00038  -0.00005   0.00008  -0.00011
  86       16D-2        0.00000   0.00000   0.00000   0.00000   0.00000
  87       17D 0       -0.00005   0.00003   0.00005  -0.00003   0.00004
  88       17D+1        0.00000   0.00000   0.00000   0.00000   0.00000
  89       17D-1        0.00052  -0.00034   0.00003  -0.00004  -0.00044
  90       17D+2       -0.00052  -0.00012  -0.00021   0.00009   0.00031
  91       17D-2        0.00000   0.00000   0.00000   0.00000   0.00000
  92       18F 0        0.00024  -0.00029  -0.00009  -0.00006   0.00004
  93       18F+1        0.00000   0.00000   0.00000   0.00000   0.00000
  94       18F-1       -0.00009   0.00012   0.00002   0.00003   0.00034
  95       18F+2        0.00038  -0.00042  -0.00010  -0.00009  -0.00002
  96       18F-2        0.00000   0.00000   0.00000   0.00000   0.00000
  97       18F+3        0.00000   0.00000   0.00000   0.00000   0.00000
  98       18F-3        0.00020  -0.00023  -0.00003  -0.00004   0.00014
  99       19F 0       -0.00030   0.00030   0.00007   0.00014  -0.00006
 100       19F+1        0.00000   0.00000   0.00000   0.00000   0.00000
 101       19F-1        0.00023  -0.00029  -0.00001  -0.00010  -0.00032
 102       19F+2       -0.00063   0.00046   0.00004   0.00019   0.00002
 103       19F-2        0.00000   0.00000   0.00000   0.00000   0.00000
 104       19F+3        0.00000   0.00000   0.00000   0.00000   0.00000
 105       19F-3       -0.00036   0.00017  -0.00004   0.00005  -0.00017
 106 3   Br 1S         -0.04482  -0.04004   0.08333  -0.08057   0.00177
 107        2S          0.16594   0.14823  -0.31033   0.30013  -0.00668
 108        3S         -0.34969  -0.31080   0.66914  -0.64753   0.01448
 109        4S         -0.00112  -0.00100   0.00200  -0.00224  -0.00015
 110        5S         -0.01863  -0.01661   0.03238  -0.03117   0.00065
 111        6S          0.00354   0.00261   0.00747  -0.00685   0.00345
 112        7S          0.00217  -0.00041  -0.00264   0.00138   0.00307
 113        8PX         0.00000   0.00000   0.00000   0.00000   0.00000
 114        8PY        -0.19170  -0.22048  -0.09893   0.08220   0.13178
 115        8PZ         0.11902   0.13120   0.05232  -0.07256   0.22762
 116        9PX         0.00000   0.00000   0.00000   0.00000   0.00000
 117        9PY         0.49888   0.57671   0.27751  -0.22996  -0.37306
 118        9PZ        -0.31039  -0.34271  -0.14620   0.20371  -0.64113
 119       10PX         0.00000   0.00000   0.00000   0.00000   0.00000
 120       10PY        -0.00228  -0.00068  -0.00010   0.00078  -0.00122
 121       10PZ         0.00126   0.00090   0.00018  -0.00029  -0.00099
 122       11PX         0.00000   0.00000   0.00000   0.00000   0.00000
 123       11PY         0.02367   0.02737   0.01271  -0.01045  -0.01659
 124       11PZ        -0.01486  -0.01634  -0.00666   0.00929  -0.02858
 125       12PX         0.00000   0.00000   0.00000   0.00000   0.00000
 126       12PY        -0.00151   0.00122   0.00136  -0.00034  -0.00404
 127       12PZ         0.00072  -0.00023  -0.00062   0.00060  -0.00189
 128       13PX         0.00000   0.00000   0.00000   0.00000   0.00000
 129       13PY        -0.00040  -0.00008   0.00024  -0.00021  -0.00021
 130       13PZ         0.00031  -0.00001  -0.00032   0.00006   0.00064
 131       14D 0        0.00247   0.00284   0.00108  -0.00190   0.00788
 132       14D+1        0.00000   0.00000   0.00000   0.00000   0.00000
 133       14D-1        0.02375   0.02667   0.00550  -0.00471  -0.00401
 134       14D+2        0.01434   0.01629   0.00382  -0.00409   0.00459
 135       14D-2        0.00000   0.00000   0.00000   0.00000   0.00000
 136       15D 0        0.00027   0.00021   0.00006  -0.00014   0.00048
 137       15D+1        0.00000   0.00000   0.00000   0.00000   0.00000
 138       15D-1        0.00245   0.00262   0.00029  -0.00028  -0.00024
 139       15D+2        0.00162   0.00165   0.00021  -0.00023   0.00028
 140       15D-2        0.00000   0.00000   0.00000   0.00000   0.00000
 141       16D 0        0.00004   0.00021   0.00003  -0.00002   0.00028
 142       16D+1        0.00000   0.00000   0.00000   0.00000   0.00000
 143       16D-1       -0.00110  -0.00063   0.00011   0.00027  -0.00025
 144       16D+2       -0.00082  -0.00038   0.00005   0.00008   0.00011
 145       16D-2        0.00000   0.00000   0.00000   0.00000   0.00000
 146       17D 0       -0.00005  -0.00003  -0.00005  -0.00003  -0.00004
 147       17D+1        0.00000   0.00000   0.00000   0.00000   0.00000
 148       17D-1       -0.00052  -0.00034   0.00003   0.00004  -0.00044
 149       17D+2       -0.00052   0.00012   0.00021   0.00009  -0.00031
 150       17D-2        0.00000   0.00000   0.00000   0.00000   0.00000
 151       18F 0        0.00024   0.00029   0.00009  -0.00006  -0.00004
 152       18F+1        0.00000   0.00000   0.00000   0.00000   0.00000
 153       18F-1        0.00009   0.00012   0.00002  -0.00003   0.00034
 154       18F+2        0.00038   0.00042   0.00010  -0.00009   0.00002
 155       18F-2        0.00000   0.00000   0.00000   0.00000   0.00000
 156       18F+3        0.00000   0.00000   0.00000   0.00000   0.00000
 157       18F-3       -0.00020  -0.00023  -0.00003   0.00004   0.00014
 158       19F 0       -0.00030  -0.00030  -0.00007   0.00014   0.00006
 159       19F+1        0.00000   0.00000   0.00000   0.00000   0.00000
 160       19F-1       -0.00023  -0.00029  -0.00001   0.00010  -0.00032
 161       19F+2       -0.00063  -0.00046  -0.00004   0.00019  -0.00002
 162       19F-2        0.00000   0.00000   0.00000   0.00000   0.00000
 163       19F+3        0.00000   0.00000   0.00000   0.00000   0.00000
 164       19F-3        0.00036   0.00017  -0.00004  -0.00005  -0.00017
 165 4   O  1S         -0.07049   0.00000   0.00000   0.07056   0.00000
 166        2S          0.00101   0.00000   0.00000  -0.00157   0.00000
 167        3S         -0.00296   0.00000   0.00000   0.00293   0.00000
 168        4S          0.00124   0.00000   0.00000  -0.00064   0.00000
 169        5S          0.00068   0.00000   0.00000   0.00106   0.00000
 170        6PX         0.00000   0.00000   0.00000   0.00000   0.00000
 171        6PY         0.00000   0.00064   0.00030   0.00000   0.00016
 172        6PZ         0.00059   0.00000   0.00000  -0.00051   0.00000
 173        7PX         0.00000   0.00000   0.00000   0.00000   0.00000
 174        7PY         0.00000   0.00074   0.00032   0.00000   0.00032
 175        7PZ         0.00068   0.00000   0.00000  -0.00049   0.00000
 176        8PX         0.00000   0.00000   0.00000   0.00000   0.00000
 177        8PY         0.00000  -0.00027  -0.00011   0.00000   0.00110
 178        8PZ         0.00041   0.00000   0.00000  -0.00089   0.00000
 179        9PX         0.00000   0.00000   0.00000   0.00000   0.00000
 180        9PY         0.00000  -0.00071  -0.00066   0.00000   0.00016
 181        9PZ         0.00019   0.00000   0.00000  -0.00040   0.00000
 182       10D 0       -0.00003   0.00000   0.00000   0.00002   0.00000
 183       10D+1        0.00000   0.00000   0.00000   0.00000   0.00000
 184       10D-1        0.00000   0.00003  -0.00002   0.00000   0.00001
 185       10D+2        0.00003   0.00000   0.00000   0.00000   0.00000
 186       10D-2        0.00000   0.00000   0.00000   0.00000   0.00000
 187       11D 0       -0.00024   0.00000   0.00000   0.00016   0.00000
 188       11D+1        0.00000   0.00000   0.00000   0.00000   0.00000
 189       11D-1        0.00000   0.00016   0.00011   0.00000  -0.00008
 190       11D+2       -0.00010   0.00000   0.00000  -0.00003   0.00000
 191       11D-2        0.00000   0.00000   0.00000   0.00000   0.00000
 192       12D 0       -0.00045   0.00000   0.00000   0.00030   0.00000
 193       12D+1        0.00000   0.00000   0.00000   0.00000   0.00000
 194       12D-1        0.00000   0.00032   0.00009   0.00000  -0.00034
 195       12D+2       -0.00023   0.00000   0.00000  -0.00013   0.00000
 196       12D-2        0.00000   0.00000   0.00000   0.00000   0.00000
 197       13F 0       -0.00010   0.00000   0.00000   0.00004   0.00000
 198       13F+1        0.00000   0.00000   0.00000   0.00000   0.00000
 199       13F-1        0.00000  -0.00001   0.00000   0.00000   0.00003
 200       13F+2        0.00000   0.00000   0.00000  -0.00001   0.00000
 201       13F-2        0.00000   0.00000   0.00000   0.00000   0.00000
 202       13F+3        0.00000   0.00000   0.00000   0.00000   0.00000
 203       13F-3        0.00000  -0.00002   0.00001   0.00000  -0.00001
 204       14F 0        0.00026   0.00000   0.00000  -0.00008   0.00000
 205       14F+1        0.00000   0.00000   0.00000   0.00000   0.00000
 206       14F-1        0.00000  -0.00006  -0.00005   0.00000  -0.00003
 207       14F+2        0.00013   0.00000   0.00000   0.00003   0.00000
 208       14F-2        0.00000   0.00000   0.00000   0.00000   0.00000
 209       14F+3        0.00000   0.00000   0.00000   0.00000   0.00000
 210       14F-3        0.00000   0.00005  -0.00003   0.00000   0.00001
                           6         7         8         9        10
     Eigenvalues --     2.00001   2.00001   2.00001   2.00001   2.00000
   1 1   C  1S         -0.06705   0.00000  -0.45852   0.00000   0.74802
   2        2S          0.00068   0.00000   0.00540   0.00000  -0.00711
   3        3S         -0.00286   0.00000  -0.01914   0.00000   0.03151
   4        4S         -0.00340   0.00000  -0.00185   0.00000   0.00256
   5        5S         -0.00158   0.00000  -0.00093   0.00000   0.00262
   6        6PX         0.00000   0.00000   0.00000   0.00062   0.00000
   7        6PY         0.00000   0.00000   0.00000   0.00000   0.00000
   8        6PZ         0.00029   0.00000   0.00091   0.00000  -0.00114
   9        7PX         0.00000   0.00000   0.00000   0.00103   0.00000
  10        7PY         0.00000   0.00000   0.00000   0.00000   0.00000
  11        7PZ        -0.00005   0.00000   0.00068   0.00000   0.00317
  12        8PX         0.00000   0.00000   0.00000   0.00129   0.00000
  13        8PY         0.00000   0.00000   0.00000   0.00000   0.00000
  14        8PZ         0.00575   0.00000   0.00030   0.00000  -0.00149
  15        9PX         0.00000   0.00000   0.00000   0.00005   0.00000
  16        9PY         0.00000   0.00000   0.00000   0.00000   0.00000
  17        9PZ         0.00016   0.00000   0.00021   0.00000  -0.00015
  18       10D 0       -0.00017   0.00000  -0.00013   0.00000   0.00067
  19       10D+1        0.00000   0.00000   0.00000  -0.00010   0.00000
  20       10D-1        0.00000   0.00000   0.00000   0.00000   0.00000
  21       10D+2       -0.00008   0.00000   0.00015   0.00000  -0.00020
  22       10D-2        0.00000  -0.00009   0.00000   0.00000   0.00000
  23       11D 0       -0.00038   0.00000   0.00079   0.00000   0.00094
  24       11D+1        0.00000   0.00000   0.00000  -0.00075   0.00000
  25       11D-1        0.00000   0.00000   0.00000   0.00000   0.00000
  26       11D+2       -0.00019   0.00000  -0.00032   0.00000   0.00106
  27       11D-2        0.00000  -0.00069   0.00000   0.00000   0.00000
  28       12D 0       -0.00021   0.00000  -0.00004   0.00000  -0.00113
  29       12D+1        0.00000   0.00000   0.00000  -0.00064   0.00000
  30       12D-1        0.00000   0.00000   0.00000   0.00000   0.00000
  31       12D+2        0.00041   0.00000   0.00025   0.00000  -0.00100
  32       12D-2        0.00000   0.00012   0.00000   0.00000   0.00000
  33       13F 0       -0.00011   0.00000  -0.00029   0.00000   0.00034
  34       13F+1        0.00000   0.00000   0.00000  -0.00006   0.00000
  35       13F-1        0.00000   0.00000   0.00000   0.00000   0.00000
  36       13F+2        0.00003   0.00000   0.00001   0.00000  -0.00009
  37       13F-2        0.00000  -0.00001   0.00000   0.00000   0.00000
  38       13F+3        0.00000   0.00000   0.00000   0.00002   0.00000
  39       13F-3        0.00000   0.00000   0.00000   0.00000   0.00000
  40       14F 0        0.00049   0.00000   0.00119   0.00000  -0.00063
  41       14F+1        0.00000   0.00000   0.00000   0.00008   0.00000
  42       14F-1        0.00000   0.00000   0.00000   0.00000   0.00000
  43       14F+2       -0.00030   0.00000   0.00067   0.00000  -0.00061
  44       14F-2        0.00000   0.00021   0.00000   0.00000   0.00000
  45       14F+3        0.00000   0.00000   0.00000  -0.00036   0.00000
  46       14F-3        0.00000   0.00000   0.00000   0.00000   0.00000
  47 2   Br 1S          0.00609   0.00000   0.00222   0.00000   0.00023
  48        2S         -0.02288   0.00000  -0.00869   0.00000  -0.00007
  49        3S          0.05028   0.00000   0.02280   0.00000  -0.00862
  50        4S          0.00000   0.00000  -0.00052   0.00000   0.00094
  51        5S          0.00237   0.00000   0.00093   0.00000  -0.00060
  52        6S          0.00330   0.00000   0.00072   0.00000  -0.00085
  53        7S          0.00111   0.00000   0.00027   0.00000  -0.00110
  54        8PX         0.00000  -0.26231   0.00000  -0.26285   0.00000
  55        8PY         0.15729   0.00000   0.05032   0.00000  -0.08493
  56        8PZ        -0.20576   0.00000   0.09046   0.00000  -0.04948
  57        9PX         0.00000   0.74192   0.00000   0.74227   0.00000
  58        9PY        -0.43876   0.00000  -0.12117   0.00000   0.20171
  59        9PZ         0.58258   0.00000  -0.24281   0.00000   0.11818
  60       10PX         0.00000   0.00131   0.00000   0.00072   0.00000
  61       10PY         0.00022   0.00000   0.00056   0.00000  -0.00040
  62       10PZ         0.00134   0.00000  -0.00002   0.00000   0.00019
  63       11PX         0.00000   0.03316   0.00000   0.03283   0.00000
  64       11PY        -0.01949   0.00000  -0.00535   0.00000   0.00851
  65       11PZ         0.02587   0.00000  -0.01068   0.00000   0.00491
  66       12PX         0.00000   0.00389   0.00000   0.00272   0.00000
  67       12PY        -0.00012   0.00000   0.00024   0.00000  -0.00008
  68       12PZ         0.00319   0.00000  -0.00070   0.00000  -0.00055
  69       13PX         0.00000  -0.00032   0.00000  -0.00025   0.00000
  70       13PY         0.00029   0.00000   0.00007   0.00000  -0.00025
  71       13PZ         0.00002   0.00000   0.00004   0.00000  -0.00019
  72       14D 0       -0.00754   0.00000   0.00257   0.00000  -0.00112
  73       14D+1        0.00000   0.00114   0.00000   0.00123   0.00000
  74       14D-1       -0.00682   0.00000  -0.00795   0.00000   0.00950
  75       14D+2       -0.00291   0.00000   0.00639   0.00000  -0.00598
  76       14D-2        0.00000   0.00225   0.00000   0.00218   0.00000
  77       15D 0       -0.00041   0.00000   0.00020   0.00000  -0.00010
  78       15D+1        0.00000   0.00017   0.00000   0.00019   0.00000
  79       15D-1       -0.00041   0.00000  -0.00072   0.00000   0.00085
  80       15D+2       -0.00012   0.00000   0.00062   0.00000  -0.00059
  81       15D-2        0.00000   0.00028   0.00000   0.00034   0.00000
  82       16D 0       -0.00037   0.00000   0.00007   0.00000   0.00012
  83       16D+1        0.00000  -0.00010   0.00000  -0.00015   0.00000
  84       16D-1       -0.00010   0.00000  -0.00027   0.00000   0.00073
  85       16D+2       -0.00032   0.00000  -0.00002   0.00000  -0.00022
  86       16D-2        0.00000  -0.00017   0.00000  -0.00017   0.00000
  87       17D 0       -0.00023   0.00000  -0.00003   0.00000  -0.00011
  88       17D+1        0.00000   0.00009   0.00000  -0.00009   0.00000
  89       17D-1        0.00020   0.00000   0.00004   0.00000  -0.00022
  90       17D+2       -0.00032   0.00000  -0.00007   0.00000   0.00002
  91       17D-2        0.00000   0.00016   0.00000  -0.00023   0.00000
  92       18F 0        0.00008   0.00000   0.00008   0.00000  -0.00012
  93       18F+1        0.00000   0.00001   0.00000   0.00001   0.00000
  94       18F-1        0.00031   0.00000  -0.00007   0.00000   0.00008
  95       18F+2        0.00000   0.00000   0.00014   0.00000  -0.00022
  96       18F-2        0.00000   0.00022   0.00000   0.00025   0.00000
  97       18F+3        0.00000  -0.00018   0.00000  -0.00022   0.00000
  98       18F-3        0.00008   0.00000   0.00007   0.00000  -0.00010
  99       19F 0       -0.00008   0.00000   0.00009   0.00000  -0.00011
 100       19F+1        0.00000  -0.00001   0.00000  -0.00003   0.00000
 101       19F-1       -0.00038   0.00000  -0.00002   0.00000   0.00017
 102       19F+2        0.00003   0.00000   0.00000   0.00000  -0.00011
 103       19F-2        0.00000  -0.00017   0.00000  -0.00025   0.00000
 104       19F+3        0.00000   0.00014   0.00000   0.00024   0.00000
 105       19F-3       -0.00010   0.00000  -0.00010   0.00000   0.00000
 106 3   Br 1S          0.00609   0.00000   0.00222   0.00000   0.00023
 107        2S         -0.02288   0.00000  -0.00869   0.00000  -0.00007
 108        3S          0.05028   0.00000   0.02280   0.00000  -0.00862
 109        4S          0.00000   0.00000  -0.00052   0.00000   0.00094
 110        5S          0.00237   0.00000   0.00093   0.00000  -0.00060
 111        6S          0.00330   0.00000   0.00072   0.00000  -0.00085
 112        7S          0.00111   0.00000   0.00027   0.00000  -0.00110
 113        8PX         0.00000   0.26231   0.00000  -0.26285   0.00000
 114        8PY        -0.15729   0.00000  -0.05032   0.00000   0.08493
 115        8PZ        -0.20576   0.00000   0.09046   0.00000  -0.04948
 116        9PX         0.00000  -0.74192   0.00000   0.74227   0.00000
 117        9PY         0.43876   0.00000   0.12117   0.00000  -0.20171
 118        9PZ         0.58258   0.00000  -0.24281   0.00000   0.11818
 119       10PX         0.00000  -0.00131   0.00000   0.00072   0.00000
 120       10PY        -0.00022   0.00000  -0.00056   0.00000   0.00040
 121       10PZ         0.00134   0.00000  -0.00002   0.00000   0.00019
 122       11PX         0.00000  -0.03316   0.00000   0.03283   0.00000
 123       11PY         0.01949   0.00000   0.00535   0.00000  -0.00851
 124       11PZ         0.02587   0.00000  -0.01068   0.00000   0.00491
 125       12PX         0.00000  -0.00389   0.00000   0.00272   0.00000
 126       12PY         0.00012   0.00000  -0.00024   0.00000   0.00008
 127       12PZ         0.00319   0.00000  -0.00070   0.00000  -0.00055
 128       13PX         0.00000   0.00032   0.00000  -0.00025   0.00000
 129       13PY        -0.00029   0.00000  -0.00007   0.00000   0.00025
 130       13PZ         0.00002   0.00000   0.00004   0.00000  -0.00019
 131       14D 0       -0.00754   0.00000   0.00257   0.00000  -0.00112
 132       14D+1        0.00000  -0.00114   0.00000   0.00123   0.00000
 133       14D-1        0.00682   0.00000   0.00795   0.00000  -0.00950
 134       14D+2       -0.00291   0.00000   0.00639   0.00000  -0.00598
 135       14D-2        0.00000   0.00225   0.00000  -0.00218   0.00000
 136       15D 0       -0.00041   0.00000   0.00020   0.00000  -0.00010
 137       15D+1        0.00000  -0.00017   0.00000   0.00019   0.00000
 138       15D-1        0.00041   0.00000   0.00072   0.00000  -0.00085
 139       15D+2       -0.00012   0.00000   0.00062   0.00000  -0.00059
 140       15D-2        0.00000   0.00028   0.00000  -0.00034   0.00000
 141       16D 0       -0.00037   0.00000   0.00007   0.00000   0.00012
 142       16D+1        0.00000   0.00010   0.00000  -0.00015   0.00000
 143       16D-1        0.00010   0.00000   0.00027   0.00000  -0.00073
 144       16D+2       -0.00032   0.00000  -0.00002   0.00000  -0.00022
 145       16D-2        0.00000  -0.00017   0.00000   0.00017   0.00000
 146       17D 0       -0.00023   0.00000  -0.00003   0.00000  -0.00011
 147       17D+1        0.00000  -0.00009   0.00000  -0.00009   0.00000
 148       17D-1       -0.00020   0.00000  -0.00004   0.00000   0.00022
 149       17D+2       -0.00032   0.00000  -0.00007   0.00000   0.00002
 150       17D-2        0.00000   0.00016   0.00000   0.00023   0.00000
 151       18F 0        0.00008   0.00000   0.00008   0.00000  -0.00012
 152       18F+1        0.00000  -0.00001   0.00000   0.00001   0.00000
 153       18F-1       -0.00031   0.00000   0.00007   0.00000  -0.00008
 154       18F+2        0.00000   0.00000   0.00014   0.00000  -0.00022
 155       18F-2        0.00000   0.00022   0.00000  -0.00025   0.00000
 156       18F+3        0.00000   0.00018   0.00000  -0.00022   0.00000
 157       18F-3       -0.00008   0.00000  -0.00007   0.00000   0.00010
 158       19F 0       -0.00008   0.00000   0.00009   0.00000  -0.00011
 159       19F+1        0.00000   0.00001   0.00000  -0.00003   0.00000
 160       19F-1        0.00038   0.00000   0.00002   0.00000  -0.00017
 161       19F+2        0.00003   0.00000   0.00000   0.00000  -0.00011
 162       19F-2        0.00000  -0.00017   0.00000   0.00025   0.00000
 163       19F+3        0.00000  -0.00014   0.00000   0.00024   0.00000
 164       19F-3        0.00010   0.00000   0.00010   0.00000   0.00000
 165 4   O  1S          0.15377   0.00000   0.78769   0.00000   0.55250
 166        2S         -0.00295   0.00000  -0.01511   0.00000  -0.00911
 167        3S          0.00651   0.00000   0.03336   0.00000   0.02394
 168        4S         -0.00150   0.00000  -0.00238   0.00000  -0.00133
 169        5S         -0.00193   0.00000   0.00056   0.00000  -0.00133
 170        6PX         0.00000   0.00000   0.00000  -0.00048   0.00000
 171        6PY         0.00000   0.00000   0.00000   0.00000   0.00000
 172        6PZ        -0.00061   0.00000  -0.00399   0.00000  -0.00044
 173        7PX         0.00000   0.00000   0.00000  -0.00055   0.00000
 174        7PY         0.00000   0.00000   0.00000   0.00000   0.00000
 175        7PZ        -0.00011   0.00000  -0.00173   0.00000   0.00259
 176        8PX         0.00000   0.00000   0.00000  -0.00035   0.00000
 177        8PY         0.00000   0.00000   0.00000   0.00000   0.00000
 178        8PZ        -0.00135   0.00000  -0.00343   0.00000   0.00219
 179        9PX         0.00000   0.00000   0.00000   0.00004   0.00000
 180        9PY         0.00000   0.00000   0.00000   0.00000   0.00000
 181        9PZ         0.00067   0.00000  -0.00053   0.00000   0.00042
 182       10D 0        0.00004   0.00000   0.00022   0.00000   0.00009
 183       10D+1        0.00000   0.00000   0.00000   0.00000   0.00000
 184       10D-1        0.00000   0.00000   0.00000   0.00000   0.00000
 185       10D+2       -0.00003   0.00000  -0.00005   0.00000  -0.00002
 186       10D-2        0.00000  -0.00001   0.00000   0.00000   0.00000
 187       11D 0        0.00003   0.00000  -0.00013   0.00000  -0.00100
 188       11D+1        0.00000   0.00000   0.00000  -0.00009   0.00000
 189       11D-1        0.00000   0.00000   0.00000   0.00000   0.00000
 190       11D+2        0.00005   0.00000  -0.00013   0.00000  -0.00006
 191       11D-2        0.00000   0.00002   0.00000   0.00000   0.00000
 192       12D 0        0.00077   0.00000   0.00051   0.00000  -0.00055
 193       12D+1        0.00000   0.00000   0.00000  -0.00010   0.00000
 194       12D-1        0.00000   0.00000   0.00000   0.00000   0.00000
 195       12D+2       -0.00001   0.00000  -0.00029   0.00000   0.00040
 196       12D-2        0.00000  -0.00003   0.00000   0.00000   0.00000
 197       13F 0        0.00001   0.00000   0.00011   0.00000  -0.00012
 198       13F+1        0.00000   0.00000   0.00000   0.00000   0.00000
 199       13F-1        0.00000   0.00000   0.00000   0.00000   0.00000
 200       13F+2       -0.00001   0.00000  -0.00002   0.00000  -0.00002
 201       13F-2        0.00000   0.00000   0.00000   0.00000   0.00000
 202       13F+3        0.00000   0.00000   0.00000  -0.00001   0.00000
 203       13F-3        0.00000   0.00000   0.00000   0.00000   0.00000
 204       14F 0       -0.00008   0.00000  -0.00001   0.00000   0.00037
 205       14F+1        0.00000   0.00000   0.00000   0.00007   0.00000
 206       14F-1        0.00000   0.00000   0.00000   0.00000   0.00000
 207       14F+2        0.00002   0.00000   0.00009   0.00000  -0.00003
 208       14F-2        0.00000  -0.00003   0.00000   0.00000   0.00000
 209       14F+3        0.00000   0.00000   0.00000   0.00004   0.00000
 210       14F-3        0.00000   0.00000   0.00000   0.00000   0.00000
                          11        12        13        14        15
     Eigenvalues --     2.00000   2.00000   2.00000   2.00000   2.00000
   1 1   C  1S          0.00000  -0.00132   0.00000   0.01336   0.00000
   2        2S          0.00000   0.00005   0.00000  -0.00010   0.00000
   3        3S          0.00000  -0.00005   0.00000   0.00061   0.00000
   4        4S          0.00000   0.00037   0.00000  -0.00105   0.00000
   5        5S          0.00000   0.00019   0.00000  -0.00037   0.00000
   6        6PX         0.00000   0.00000   0.00000   0.00000   0.00001
   7        6PY        -0.00002   0.00000  -0.00001   0.00000   0.00000
   8        6PZ         0.00000   0.00001   0.00000  -0.00004   0.00000
   9        7PX         0.00000   0.00000   0.00000   0.00000   0.00000
  10        7PY         0.00006   0.00000   0.00003   0.00000   0.00000
  11        7PZ         0.00000   0.00007   0.00000   0.00010   0.00000
  12        8PX         0.00000   0.00000   0.00000   0.00000  -0.00007
  13        8PY         0.00038   0.00000   0.00061   0.00000   0.00000
  14        8PZ         0.00000  -0.00054   0.00000   0.00037   0.00000
  15        9PX         0.00000   0.00000   0.00000   0.00000   0.00000
  16        9PY        -0.00011   0.00000   0.00010   0.00000   0.00000
  17        9PZ         0.00000  -0.00001   0.00000   0.00005   0.00000
  18       10D 0        0.00000   0.00000   0.00000   0.00001   0.00000
  19       10D+1        0.00000   0.00000   0.00000   0.00000   0.00000
  20       10D-1        0.00000   0.00000   0.00000   0.00000   0.00000
  21       10D+2        0.00000   0.00000   0.00000   0.00000   0.00000
  22       10D-2        0.00000   0.00000   0.00000   0.00000   0.00000
  23       11D 0        0.00000   0.00004   0.00000   0.00001   0.00000
  24       11D+1        0.00000   0.00000   0.00000   0.00000   0.00005
  25       11D-1       -0.00008   0.00000  -0.00002   0.00000   0.00000
  26       11D+2        0.00000   0.00001   0.00000   0.00014   0.00000
  27       11D-2        0.00000   0.00000   0.00000   0.00000   0.00000
  28       12D 0        0.00000  -0.00001   0.00000   0.00008   0.00000
  29       12D+1        0.00000   0.00000   0.00000   0.00000   0.00004
  30       12D-1       -0.00018   0.00000  -0.00021   0.00000   0.00000
  31       12D+2        0.00000  -0.00005   0.00000   0.00017   0.00000
  32       12D-2        0.00000   0.00000   0.00000   0.00000   0.00000
  33       13F 0        0.00000   0.00001   0.00000   0.00000   0.00000
  34       13F+1        0.00000   0.00000   0.00000   0.00000   0.00001
  35       13F-1        0.00000   0.00000   0.00001   0.00000   0.00000
  36       13F+2        0.00000   0.00000   0.00000   0.00000   0.00000
  37       13F-2        0.00000   0.00000   0.00000   0.00000   0.00000
  38       13F+3        0.00000   0.00000   0.00000   0.00000  -0.00001
  39       13F-3        0.00000   0.00000   0.00001   0.00000   0.00000
  40       14F 0        0.00000  -0.00003   0.00000   0.00002   0.00000
  41       14F+1        0.00000   0.00000   0.00000   0.00000  -0.00001
  42       14F-1       -0.00001   0.00000  -0.00009   0.00000   0.00000
  43       14F+2        0.00000   0.00005   0.00000   0.00001   0.00000
  44       14F-2        0.00000   0.00000   0.00000   0.00000   0.00000
  45       14F+3        0.00000   0.00000   0.00000   0.00000   0.00004
  46       14F-3       -0.00002   0.00000  -0.00006   0.00000   0.00000
  47 2   Br 1S         -0.05472   0.00232  -0.01316  -0.03866   0.00000
  48        2S          0.16912  -0.00687   0.04336   0.12412   0.00000
  49        3S          0.01491  -0.00067   0.00406   0.01298   0.00000
  50        4S         -0.00012   0.00002  -0.00008  -0.00015   0.00000
  51        5S          0.00044  -0.00002   0.00011   0.00037   0.00000
  52        6S          0.00048  -0.00030   0.00050   0.00066   0.00000
  53        7S         -0.00014  -0.00013   0.00024   0.00017   0.00000
  54        8PX         0.00000   0.00000   0.00000   0.00000   0.71305
  55        8PY         0.66785  -0.40453  -0.17879   0.56941   0.00000
  56        8PZ         0.15888   0.58686   0.68810   0.39537   0.00000
  57        9PX         0.00000   0.00000   0.00000   0.00000  -0.01616
  58        9PY        -0.00013   0.00747   0.00855   0.00709   0.00000
  59        9PZ         0.00585  -0.01370  -0.01234   0.00316   0.00000
  60       10PX         0.00000   0.00000   0.00000   0.00000   0.00028
  61       10PY         0.00033  -0.00023  -0.00004   0.00032   0.00000
  62       10PZ         0.00012   0.00023   0.00036   0.00021   0.00000
  63       11PX         0.00000   0.00000   0.00000   0.00000  -0.00122
  64       11PY        -0.00057   0.00063   0.00046  -0.00023   0.00000
  65       11PZ         0.00008  -0.00101  -0.00106  -0.00022   0.00000
  66       12PX         0.00000   0.00000   0.00000   0.00000  -0.00006
  67       12PY         0.00004  -0.00012   0.00028   0.00020   0.00000
  68       12PZ         0.00008  -0.00013   0.00006   0.00020   0.00000
  69       13PX         0.00000   0.00000   0.00000   0.00000   0.00002
  70       13PY        -0.00001  -0.00003   0.00002   0.00002   0.00000
  71       13PZ        -0.00003   0.00000   0.00005   0.00002   0.00000
  72       14D 0       -0.00008   0.00033   0.00032   0.00002   0.00000
  73       14D+1        0.00000   0.00000   0.00000   0.00000  -0.00004
  74       14D-1       -0.00033   0.00018   0.00009  -0.00007   0.00000
  75       14D+2        0.00015   0.00017   0.00022   0.00009   0.00000
  76       14D-2        0.00000   0.00000   0.00000   0.00000  -0.00010
  77       15D 0        0.00000   0.00000   0.00001   0.00000   0.00000
  78       15D+1        0.00000   0.00000   0.00000   0.00000  -0.00002
  79       15D-1       -0.00005   0.00000  -0.00001  -0.00004   0.00000
  80       15D+2        0.00003   0.00000   0.00001   0.00003   0.00000
  81       15D-2        0.00000   0.00000   0.00000   0.00000  -0.00002
  82       16D 0        0.00000   0.00006   0.00007   0.00000   0.00000
  83       16D+1        0.00000   0.00000   0.00000   0.00000   0.00003
  84       16D-1        0.00008   0.00002   0.00007   0.00012   0.00000
  85       16D+2       -0.00006   0.00005   0.00000  -0.00010   0.00000
  86       16D-2        0.00000   0.00000   0.00000   0.00000   0.00004
  87       17D 0        0.00000   0.00001  -0.00002   0.00002   0.00000
  88       17D+1        0.00000   0.00000   0.00000   0.00000   0.00000
  89       17D-1        0.00002  -0.00003   0.00004   0.00006   0.00000
  90       17D+2        0.00001   0.00003  -0.00004  -0.00003   0.00000
  91       17D-2        0.00000   0.00000   0.00000   0.00000   0.00001
  92       18F 0        0.00000   0.00000   0.00000   0.00000   0.00000
  93       18F+1        0.00000   0.00000   0.00000   0.00000   0.00000
  94       18F-1        0.00000  -0.00001   0.00000   0.00000   0.00000
  95       18F+2       -0.00001   0.00000   0.00000  -0.00001   0.00000
  96       18F-2        0.00000   0.00000   0.00000   0.00000   0.00000
  97       18F+3        0.00000   0.00000   0.00000   0.00000   0.00000
  98       18F-3        0.00000   0.00000   0.00000  -0.00001   0.00000
  99       19F 0       -0.00002   0.00000   0.00000  -0.00001   0.00000
 100       19F+1        0.00000   0.00000   0.00000   0.00000   0.00000
 101       19F-1        0.00001   0.00003   0.00003   0.00001   0.00000
 102       19F+2       -0.00002   0.00000  -0.00001  -0.00004   0.00000
 103       19F-2        0.00000   0.00000   0.00000   0.00000   0.00002
 104       19F+3        0.00000   0.00000   0.00000   0.00000  -0.00002
 105       19F-3       -0.00001   0.00001   0.00001  -0.00002   0.00000
 106 3   Br 1S          0.05472   0.00233   0.01316  -0.03866   0.00000
 107        2S         -0.16912  -0.00688  -0.04336   0.12412   0.00000
 108        3S         -0.01491  -0.00067  -0.00406   0.01298   0.00000
 109        4S          0.00012   0.00002   0.00008  -0.00015   0.00000
 110        5S         -0.00044  -0.00002  -0.00011   0.00037   0.00000
 111        6S         -0.00048  -0.00030  -0.00050   0.00066   0.00000
 112        7S          0.00014  -0.00013  -0.00024   0.00017   0.00000
 113        8PX         0.00000   0.00000   0.00000   0.00000   0.71301
 114        8PY         0.66782   0.40457  -0.17882  -0.56941   0.00000
 115        8PZ        -0.15892   0.58682  -0.68812   0.39537   0.00000
 116        9PX         0.00000   0.00000   0.00000   0.00000  -0.01616
 117        9PY        -0.00013  -0.00747   0.00855  -0.00709   0.00000
 118        9PZ        -0.00585  -0.01370   0.01234   0.00316   0.00000
 119       10PX         0.00000   0.00000   0.00000   0.00000   0.00028
 120       10PY         0.00033   0.00023  -0.00004  -0.00032   0.00000
 121       10PZ        -0.00012   0.00023  -0.00036   0.00021   0.00000
 122       11PX         0.00000   0.00000   0.00000   0.00000  -0.00122
 123       11PY        -0.00057  -0.00063   0.00046   0.00023   0.00000
 124       11PZ        -0.00008  -0.00101   0.00106  -0.00022   0.00000
 125       12PX         0.00000   0.00000   0.00000   0.00000  -0.00006
 126       12PY         0.00004   0.00012   0.00028  -0.00020   0.00000
 127       12PZ        -0.00008  -0.00013  -0.00006   0.00020   0.00000
 128       13PX         0.00000   0.00000   0.00000   0.00000   0.00002
 129       13PY        -0.00001   0.00003   0.00002  -0.00002   0.00000
 130       13PZ         0.00003   0.00000  -0.00005   0.00002   0.00000
 131       14D 0        0.00008   0.00033  -0.00032   0.00002   0.00000
 132       14D+1        0.00000   0.00000   0.00000   0.00000  -0.00004
 133       14D-1       -0.00033  -0.00018   0.00009   0.00007   0.00000
 134       14D+2       -0.00015   0.00017  -0.00022   0.00009   0.00000
 135       14D-2        0.00000   0.00000   0.00000   0.00000   0.00010
 136       15D 0        0.00000   0.00000  -0.00001   0.00000   0.00000
 137       15D+1        0.00000   0.00000   0.00000   0.00000  -0.00002
 138       15D-1       -0.00005   0.00000  -0.00001   0.00004   0.00000
 139       15D+2       -0.00003   0.00000  -0.00001   0.00003   0.00000
 140       15D-2        0.00000   0.00000   0.00000   0.00000   0.00002
 141       16D 0        0.00000   0.00006  -0.00007   0.00000   0.00000
 142       16D+1        0.00000   0.00000   0.00000   0.00000   0.00003
 143       16D-1        0.00008  -0.00002   0.00007  -0.00012   0.00000
 144       16D+2        0.00006   0.00005   0.00000  -0.00010   0.00000
 145       16D-2        0.00000   0.00000   0.00000   0.00000  -0.00004
 146       17D 0        0.00000   0.00001   0.00002   0.00002   0.00000
 147       17D+1        0.00000   0.00000   0.00000   0.00000   0.00000
 148       17D-1        0.00002   0.00003   0.00004  -0.00006   0.00000
 149       17D+2       -0.00001   0.00003   0.00004  -0.00003   0.00000
 150       17D-2        0.00000   0.00000   0.00000   0.00000  -0.00001
 151       18F 0        0.00000   0.00000   0.00000   0.00000   0.00000
 152       18F+1        0.00000   0.00000   0.00000   0.00000   0.00000
 153       18F-1        0.00000   0.00001   0.00000   0.00000   0.00000
 154       18F+2        0.00001   0.00000   0.00000  -0.00001   0.00000
 155       18F-2        0.00000   0.00000   0.00000   0.00000   0.00000
 156       18F+3        0.00000   0.00000   0.00000   0.00000   0.00000
 157       18F-3        0.00000   0.00000   0.00000   0.00001   0.00000
 158       19F 0        0.00002   0.00000   0.00000  -0.00001   0.00000
 159       19F+1        0.00000   0.00000   0.00000   0.00000   0.00000
 160       19F-1        0.00001  -0.00003   0.00003  -0.00001   0.00000
 161       19F+2        0.00002   0.00000   0.00001  -0.00004   0.00000
 162       19F-2        0.00000   0.00000   0.00000   0.00000  -0.00002
 163       19F+3        0.00000   0.00000   0.00000   0.00000  -0.00002
 164       19F-3       -0.00001  -0.00001   0.00001   0.00002   0.00000
 165 4   O  1S          0.00000  -0.00048   0.00000   0.00404   0.00000
 166        2S          0.00000   0.00000   0.00000  -0.00010   0.00000
 167        3S          0.00000  -0.00002   0.00000   0.00018   0.00000
 168        4S          0.00000   0.00006   0.00000   0.00005   0.00000
 169        5S          0.00000   0.00018   0.00000  -0.00005   0.00000
 170        6PX         0.00000   0.00000   0.00000   0.00000   0.00000
 171        6PY         0.00000   0.00000   0.00000   0.00000   0.00000
 172        6PZ         0.00000   0.00000   0.00000   0.00002   0.00000
 173        7PX         0.00000   0.00000   0.00000   0.00000  -0.00001
 174        7PY         0.00001   0.00000   0.00001   0.00000   0.00000
 175        7PZ         0.00000   0.00001   0.00000   0.00006   0.00000
 176        8PX         0.00000   0.00000   0.00000   0.00000  -0.00002
 177        8PY         0.00003   0.00000   0.00000   0.00000   0.00000
 178        8PZ         0.00000   0.00011   0.00000  -0.00005   0.00000
 179        9PX         0.00000   0.00000   0.00000   0.00000  -0.00001
 180        9PY         0.00008   0.00000   0.00002   0.00000   0.00000
 181        9PZ         0.00000  -0.00007   0.00000   0.00002   0.00000
 182       10D 0        0.00000   0.00000   0.00000   0.00000   0.00000
 183       10D+1        0.00000   0.00000   0.00000   0.00000   0.00000
 184       10D-1        0.00000   0.00000   0.00000   0.00000   0.00000
 185       10D+2        0.00000   0.00000   0.00000   0.00000   0.00000
 186       10D-2        0.00000   0.00000   0.00000   0.00000   0.00000
 187       11D 0        0.00000  -0.00001   0.00000  -0.00002   0.00000
 188       11D+1        0.00000   0.00000   0.00000   0.00000   0.00001
 189       11D-1        0.00000   0.00000   0.00001   0.00000   0.00000
 190       11D+2        0.00000  -0.00001   0.00000  -0.00001   0.00000
 191       11D-2        0.00000   0.00000   0.00000   0.00000   0.00000
 192       12D 0        0.00000  -0.00007   0.00000  -0.00001   0.00000
 193       12D+1        0.00000   0.00000   0.00000   0.00000   0.00001
 194       12D-1        0.00000   0.00000   0.00002   0.00000   0.00000
 195       12D+2        0.00000  -0.00001   0.00000  -0.00004   0.00000
 196       12D-2        0.00000   0.00000   0.00000   0.00000   0.00000
 197       13F 0        0.00000   0.00000   0.00000  -0.00001   0.00000
 198       13F+1        0.00000   0.00000   0.00000   0.00000   0.00000
 199       13F-1        0.00000   0.00000   0.00000   0.00000   0.00000
 200       13F+2        0.00000   0.00000   0.00000   0.00000   0.00000
 201       13F-2        0.00000   0.00000   0.00000   0.00000   0.00000
 202       13F+3        0.00000   0.00000   0.00000   0.00000   0.00000
 203       13F-3        0.00000   0.00000   0.00000   0.00000   0.00000
 204       14F 0        0.00000   0.00001   0.00000   0.00002   0.00000
 205       14F+1        0.00000   0.00000   0.00000   0.00000  -0.00001
 206       14F-1        0.00000   0.00000  -0.00001   0.00000   0.00000
 207       14F+2        0.00000   0.00001   0.00000   0.00002   0.00000
 208       14F-2        0.00000   0.00000   0.00000   0.00000   0.00000
 209       14F+3        0.00000   0.00000   0.00000   0.00000  -0.00001
 210       14F-3        0.00000   0.00000   0.00000   0.00000   0.00000
                          16        17        18        19        20
     Eigenvalues --     2.00000   2.00000   2.00000   2.00000   2.00000
   1 1   C  1S          0.00000   0.00000   0.00150   0.00000   0.00005
   2        2S          0.00000   0.00000  -0.00001   0.00000   0.00000
   3        3S          0.00000   0.00000   0.00006   0.00000   0.00000
   4        4S          0.00000   0.00000   0.00007   0.00000   0.00001
   5        5S          0.00000   0.00000   0.00007   0.00000   0.00000
   6        6PX         0.00000   0.00000   0.00000   0.00000   0.00000
   7        6PY         0.00000   0.00000   0.00000   0.00000   0.00000
   8        6PZ         0.00000   0.00000   0.00000   0.00000   0.00000
   9        7PX         0.00000   0.00000   0.00000   0.00000   0.00000
  10        7PY         0.00000  -0.00002   0.00000   0.00000   0.00000
  11        7PZ         0.00000   0.00000  -0.00001   0.00000   0.00000
  12        8PX         0.00000   0.00000   0.00000   0.00000   0.00000
  13        8PY         0.00000   0.00001   0.00000  -0.00001   0.00000
  14        8PZ         0.00000   0.00000  -0.00001   0.00000  -0.00001
  15        9PX         0.00000   0.00000   0.00000   0.00000   0.00000
  16        9PY         0.00000   0.00002   0.00000   0.00000   0.00000
  17        9PZ         0.00000   0.00000   0.00000   0.00000   0.00000
  18       10D 0        0.00000   0.00000   0.00000   0.00000   0.00000
  19       10D+1        0.00000   0.00000   0.00000   0.00000   0.00000
  20       10D-1        0.00000   0.00000   0.00000   0.00000   0.00000
  21       10D+2        0.00000   0.00000   0.00000   0.00000   0.00000
  22       10D-2       -0.00001   0.00000   0.00000   0.00000   0.00000
  23       11D 0        0.00000   0.00000   0.00000   0.00000   0.00000
  24       11D+1        0.00000   0.00000   0.00000   0.00000   0.00000
  25       11D-1        0.00000   0.00002   0.00000   0.00000   0.00000
  26       11D+2        0.00000   0.00000  -0.00001   0.00000   0.00000
  27       11D-2        0.00004   0.00000   0.00000   0.00000   0.00000
  28       12D 0        0.00000   0.00000   0.00002   0.00000   0.00000
  29       12D+1        0.00000   0.00000   0.00000   0.00000   0.00000
  30       12D-1        0.00000   0.00004   0.00000   0.00000   0.00000
  31       12D+2        0.00000   0.00000  -0.00001   0.00000   0.00000
  32       12D-2       -0.00004   0.00000   0.00000   0.00000   0.00000
  33       13F 0        0.00000   0.00000   0.00000   0.00000   0.00000
  34       13F+1        0.00000   0.00000   0.00000   0.00000   0.00000
  35       13F-1        0.00000   0.00000   0.00000   0.00000   0.00000
  36       13F+2        0.00000   0.00000   0.00000   0.00000   0.00000
  37       13F-2        0.00000   0.00000   0.00000   0.00000   0.00000
  38       13F+3        0.00000   0.00000   0.00000   0.00000   0.00000
  39       13F-3        0.00000   0.00000   0.00000   0.00000   0.00000
  40       14F 0        0.00000   0.00000  -0.00001   0.00000   0.00000
  41       14F+1        0.00000   0.00000   0.00000   0.00000   0.00000
  42       14F-1        0.00000   0.00002   0.00000   0.00000   0.00000
  43       14F+2        0.00000   0.00000   0.00000   0.00000   0.00000
  44       14F-2       -0.00003   0.00000   0.00000   0.00000   0.00000
  45       14F+3        0.00000   0.00000   0.00000   0.00000   0.00000
  46       14F-3        0.00000   0.00001   0.00000   0.00000   0.00000
  47 2   Br 1S          0.00000  -0.21815  -0.22080   0.66431   0.74543
  48        2S          0.00000   0.70620   0.71705   0.00393   0.00309
  49        3S          0.00000   0.03013   0.03105   0.00053   0.00051
  50        4S          0.00000  -0.00020  -0.00019   0.00001   0.00001
  51        5S          0.00000   0.00071   0.00074   0.00000   0.00000
  52        6S          0.00000   0.00004   0.00003  -0.00002  -0.00001
  53        7S          0.00000   0.00004  -0.00002   0.00000   0.00000
  54        8PX         0.71317   0.00000   0.00000   0.00000   0.00000
  55        8PY         0.00000  -0.15313  -0.10700   0.00229   0.00055
  56        8PZ         0.00000  -0.08278  -0.06558   0.00028   0.00004
  57        9PX        -0.01660   0.00000   0.00000   0.00000   0.00000
  58        9PY         0.00000   0.00252   0.00305  -0.00009  -0.00015
  59        9PZ         0.00000   0.00125   0.00179  -0.00004  -0.00006
  60       10PX         0.00029   0.00000   0.00000   0.00000   0.00000
  61       10PY         0.00000  -0.00008  -0.00006   0.00000   0.00000
  62       10PZ         0.00000  -0.00005  -0.00004   0.00000   0.00000
  63       11PX        -0.00124   0.00000   0.00000   0.00000   0.00000
  64       11PY         0.00000   0.00024   0.00023   0.00000  -0.00001
  65       11PZ         0.00000   0.00013   0.00013   0.00000   0.00000
  66       12PX        -0.00013   0.00000   0.00000   0.00000   0.00000
  67       12PY         0.00000   0.00006   0.00001  -0.00001   0.00000
  68       12PZ         0.00000   0.00003   0.00002   0.00000   0.00000
  69       13PX         0.00003   0.00000   0.00000   0.00000   0.00000
  70       13PY         0.00000   0.00000  -0.00001   0.00000   0.00000
  71       13PZ         0.00000   0.00000   0.00000   0.00000   0.00000
  72       14D 0        0.00000  -0.00003  -0.00004   0.00000   0.00000
  73       14D+1       -0.00005   0.00000   0.00000   0.00000   0.00000
  74       14D-1        0.00000   0.00001   0.00000   0.00000   0.00000
  75       14D+2        0.00000   0.00007   0.00007   0.00000   0.00000
  76       14D-2       -0.00011   0.00000   0.00000   0.00000   0.00000
  77       15D 0        0.00000   0.00000   0.00000   0.00000   0.00000
  78       15D+1       -0.00001   0.00000   0.00000   0.00000   0.00000
  79       15D-1        0.00000   0.00000   0.00000   0.00000   0.00000
  80       15D+2        0.00000   0.00000   0.00000   0.00000   0.00000
  81       15D-2       -0.00002   0.00000   0.00000   0.00000   0.00000
  82       16D 0        0.00000  -0.00001   0.00000   0.00000   0.00000
  83       16D+1        0.00002   0.00000   0.00000   0.00000   0.00000
  84       16D-1        0.00000  -0.00001  -0.00001   0.00000   0.00000
  85       16D+2        0.00000   0.00001   0.00001   0.00000   0.00000
  86       16D-2        0.00003   0.00000   0.00000   0.00000   0.00000
  87       17D 0        0.00000   0.00000   0.00000   0.00000   0.00000
  88       17D+1       -0.00002   0.00000   0.00000   0.00000   0.00000
  89       17D-1        0.00000   0.00001   0.00001   0.00000   0.00000
  90       17D+2        0.00000  -0.00002   0.00000   0.00000   0.00000
  91       17D-2       -0.00002   0.00000   0.00000   0.00000   0.00000
  92       18F 0        0.00000   0.00000   0.00000   0.00000   0.00000
  93       18F+1        0.00000   0.00000   0.00000   0.00000   0.00000
  94       18F-1        0.00000   0.00000   0.00000   0.00000   0.00000
  95       18F+2        0.00000   0.00000   0.00000   0.00000   0.00000
  96       18F-2        0.00000   0.00000   0.00000   0.00000   0.00000
  97       18F+3        0.00000   0.00000   0.00000   0.00000   0.00000
  98       18F-3        0.00000   0.00000   0.00000   0.00000   0.00000
  99       19F 0        0.00000   0.00000   0.00000   0.00000   0.00000
 100       19F+1        0.00000   0.00000   0.00000   0.00000   0.00000
 101       19F-1        0.00000   0.00000   0.00000   0.00000   0.00000
 102       19F+2        0.00000   0.00000   0.00000   0.00000   0.00000
 103       19F-2        0.00001   0.00000   0.00000   0.00000   0.00000
 104       19F+3       -0.00001   0.00000   0.00000   0.00000   0.00000
 105       19F-3        0.00000   0.00000   0.00000   0.00000   0.00000
 106 3   Br 1S          0.00000   0.21821  -0.22072  -0.74507   0.66472
 107        2S          0.00000  -0.70642   0.71683  -0.00424   0.00262
 108        3S          0.00000  -0.03014   0.03104  -0.00059   0.00045
 109        4S          0.00000   0.00020  -0.00019  -0.00001   0.00001
 110        5S          0.00000  -0.00071   0.00074   0.00000   0.00000
 111        6S          0.00000  -0.00004   0.00003   0.00002  -0.00001
 112        7S          0.00000  -0.00004  -0.00002   0.00000   0.00000
 113        8PX        -0.71321   0.00000   0.00000   0.00000   0.00000
 114        8PY         0.00000  -0.15317   0.10696   0.00234  -0.00028
 115        8PZ         0.00000   0.08280  -0.06555  -0.00028   0.00001
 116        9PX         0.01661   0.00000   0.00000   0.00000   0.00000
 117        9PY         0.00000   0.00252  -0.00305  -0.00011   0.00014
 118        9PZ         0.00000  -0.00125   0.00179   0.00005  -0.00005
 119       10PX        -0.00029   0.00000   0.00000   0.00000   0.00000
 120       10PY         0.00000  -0.00008   0.00006   0.00000   0.00000
 121       10PZ         0.00000   0.00005  -0.00004   0.00000   0.00000
 122       11PX         0.00124   0.00000   0.00000   0.00000   0.00000
 123       11PY         0.00000   0.00024  -0.00023  -0.00001   0.00001
 124       11PZ         0.00000  -0.00013   0.00013   0.00000   0.00000
 125       12PX         0.00013   0.00000   0.00000   0.00000   0.00000
 126       12PY         0.00000   0.00006  -0.00001  -0.00001   0.00000
 127       12PZ         0.00000  -0.00003   0.00002   0.00000   0.00000
 128       13PX        -0.00003   0.00000   0.00000   0.00000   0.00000
 129       13PY         0.00000   0.00000   0.00001   0.00000   0.00000
 130       13PZ         0.00000   0.00000   0.00000   0.00000   0.00000
 131       14D 0        0.00000   0.00003  -0.00004   0.00000   0.00000
 132       14D+1        0.00005   0.00000   0.00000   0.00000   0.00000
 133       14D-1        0.00000   0.00001   0.00000   0.00000   0.00000
 134       14D+2        0.00000  -0.00007   0.00007   0.00000   0.00000
 135       14D-2       -0.00011   0.00000   0.00000   0.00000   0.00000
 136       15D 0        0.00000   0.00000   0.00000   0.00000   0.00000
 137       15D+1        0.00001   0.00000   0.00000   0.00000   0.00000
 138       15D-1        0.00000   0.00000   0.00000   0.00000   0.00000
 139       15D+2        0.00000   0.00000   0.00000   0.00000   0.00000
 140       15D-2       -0.00002   0.00000   0.00000   0.00000   0.00000
 141       16D 0        0.00000   0.00001   0.00000   0.00000   0.00000
 142       16D+1       -0.00002   0.00000   0.00000   0.00000   0.00000
 143       16D-1        0.00000  -0.00001   0.00001   0.00000   0.00000
 144       16D+2        0.00000  -0.00001   0.00001   0.00000   0.00000
 145       16D-2        0.00003   0.00000   0.00000   0.00000   0.00000
 146       17D 0        0.00000   0.00000   0.00000   0.00000   0.00000
 147       17D+1        0.00002   0.00000   0.00000   0.00000   0.00000
 148       17D-1        0.00000   0.00001  -0.00001   0.00000   0.00000
 149       17D+2        0.00000   0.00002   0.00000   0.00000   0.00000
 150       17D-2       -0.00002   0.00000   0.00000   0.00000   0.00000
 151       18F 0        0.00000   0.00000   0.00000   0.00000   0.00000
 152       18F+1        0.00000   0.00000   0.00000   0.00000   0.00000
 153       18F-1        0.00000   0.00000   0.00000   0.00000   0.00000
 154       18F+2        0.00000   0.00000   0.00000   0.00000   0.00000
 155       18F-2        0.00000   0.00000   0.00000   0.00000   0.00000
 156       18F+3        0.00000   0.00000   0.00000   0.00000   0.00000
 157       18F-3        0.00000   0.00000   0.00000   0.00000   0.00000
 158       19F 0        0.00000   0.00000   0.00000   0.00000   0.00000
 159       19F+1        0.00000   0.00000   0.00000   0.00000   0.00000
 160       19F-1        0.00000   0.00000   0.00000   0.00000   0.00000
 161       19F+2        0.00000   0.00000   0.00000   0.00000   0.00000
 162       19F-2        0.00001   0.00000   0.00000   0.00000   0.00000
 163       19F+3        0.00001   0.00000   0.00000   0.00000   0.00000
 164       19F-3        0.00000   0.00000   0.00000   0.00000   0.00000
 165 4   O  1S          0.00000   0.00000   0.00061   0.00000   0.00000
 166        2S          0.00000   0.00000   0.00000   0.00000   0.00000
 167        3S          0.00000   0.00000   0.00003   0.00000   0.00000
 168        4S          0.00000   0.00000  -0.00002   0.00000   0.00000
 169        5S          0.00000   0.00000  -0.00005   0.00000   0.00001
 170        6PX         0.00000   0.00000   0.00000   0.00000   0.00000
 171        6PY         0.00000   0.00000   0.00000   0.00000   0.00000
 172        6PZ         0.00000   0.00000   0.00000   0.00000   0.00000
 173        7PX         0.00000   0.00000   0.00000   0.00000   0.00000
 174        7PY         0.00000   0.00000   0.00000   0.00000   0.00000
 175        7PZ         0.00000   0.00000   0.00001   0.00000   0.00000
 176        8PX         0.00000   0.00000   0.00000   0.00000   0.00000
 177        8PY         0.00000  -0.00003   0.00000   0.00000   0.00000
 178        8PZ         0.00000   0.00000   0.00001   0.00000   0.00000
 179        9PX         0.00000   0.00000   0.00000   0.00000   0.00000
 180        9PY         0.00000  -0.00001   0.00000   0.00000   0.00000
 181        9PZ         0.00000   0.00000   0.00001   0.00000   0.00000
 182       10D 0        0.00000   0.00000   0.00000   0.00000   0.00000
 183       10D+1        0.00000   0.00000   0.00000   0.00000   0.00000
 184       10D-1        0.00000   0.00000   0.00000   0.00000   0.00000
 185       10D+2        0.00000   0.00000   0.00000   0.00000   0.00000
 186       10D-2        0.00000   0.00000   0.00000   0.00000   0.00000
 187       11D 0        0.00000   0.00000   0.00000   0.00000   0.00000
 188       11D+1        0.00000   0.00000   0.00000   0.00000   0.00000
 189       11D-1        0.00000   0.00000   0.00000   0.00000   0.00000
 190       11D+2        0.00000   0.00000   0.00000   0.00000   0.00000
 191       11D-2        0.00000   0.00000   0.00000   0.00000   0.00000
 192       12D 0        0.00000   0.00000   0.00001   0.00000   0.00000
 193       12D+1        0.00000   0.00000   0.00000   0.00000   0.00000
 194       12D-1        0.00000   0.00001   0.00000   0.00000   0.00000
 195       12D+2        0.00000   0.00000   0.00001   0.00000   0.00000
 196       12D-2        0.00002   0.00000   0.00000   0.00000   0.00000
 197       13F 0        0.00000   0.00000   0.00000   0.00000   0.00000
 198       13F+1        0.00000   0.00000   0.00000   0.00000   0.00000
 199       13F-1        0.00000   0.00000   0.00000   0.00000   0.00000
 200       13F+2        0.00000   0.00000   0.00000   0.00000   0.00000
 201       13F-2        0.00000   0.00000   0.00000   0.00000   0.00000
 202       13F+3        0.00000   0.00000   0.00000   0.00000   0.00000
[...]
 193       12D+1        0.00000   2.05966   0.00000   0.00000   0.00000
 194       12D-1        0.00000   0.00000  -0.24472   0.00000   0.00000
 195       12D+2       -0.62740   0.00000   0.00000   0.57038   0.04467
 196       12D-2        0.00000   0.00000   0.00000   0.00000   0.00000
 197       13F 0        0.01968   0.00000   0.00000   0.01719  -0.04687
 198       13F+1        0.00000   0.01996   0.00000   0.00000   0.00000
 199       13F-1        0.00000   0.00000   0.04659   0.00000   0.00000
 200       13F+2       -0.05434   0.00000   0.00000   0.02463  -0.01402
 201       13F-2        0.00000   0.00000   0.00000   0.00000   0.00000
 202       13F+3        0.00000   0.00390   0.00000   0.00000   0.00000
 203       13F-3        0.00000   0.00000  -0.02861   0.00000   0.00000
 204       14F 0       -1.26753   0.00000   0.00000   0.16939   0.01087
 205       14F+1        0.00000  -0.14825   0.00000   0.00000   0.00000
 206       14F-1        0.00000   0.00000  -0.12352   0.00000   0.00000
 207       14F+2        0.19610   0.00000   0.00000  -0.10083   0.04800
 208       14F-2        0.00000   0.00000   0.00000   0.00000   0.00000
 209       14F+3        0.00000   0.00467   0.00000   0.00000   0.00000
 210       14F-3        0.00000   0.00000   0.06000   0.00000   0.00000
                         206       207       208       209       210
     Eigenvalues --     0.00000   0.00000   0.00000   0.00000   0.00000
   1 1   C  1S          0.00000   0.00000   0.00000   0.22181   0.00345
   2        2S          0.00000   0.00000   0.00000   1.27488   0.05738
   3        3S          0.00000   0.00000   0.00000   0.01539   0.11365
   4        4S          0.00000   0.00000   0.00000   9.43454   3.62114
   5        5S          0.00000   0.00000   0.00000   3.67522  31.44611
   6        6PX         0.00512   0.00000   0.00000   0.00000   0.00000
   7        6PY         0.00000  -0.00110   0.00571   0.00000   0.00000
   8        6PZ         0.00000   0.00000   0.00000   0.01640   0.01152
   9        7PX        -0.34107   0.00000   0.00000   0.00000   0.00000
  10        7PY         0.00000  -0.25228  -0.14104   0.00000   0.00000
  11        7PZ         0.00000   0.00000   0.00000   1.36310   0.07484
  12        8PX        -0.36352   0.00000   0.00000   0.00000   0.00000
  13        8PY         0.00000  -5.69332   6.81829   0.00000   0.00000
  14        8PZ         0.00000   0.00000   0.00000   5.42617  -0.02455
  15        9PX         6.34548   0.00000   0.00000   0.00000   0.00000
  16        9PY         0.00000  -0.38891  13.94313   0.00000   0.00000
  17        9PZ         0.00000   0.00000   0.00000   5.92054  -3.81634
  18       10D 0        0.00000   0.00000   0.00000   0.08635   0.02106
  19       10D+1       -0.00844   0.00000   0.00000   0.00000   0.00000
  20       10D-1        0.00000   0.00754   0.01977   0.00000   0.00000
  21       10D+2        0.00000   0.00000   0.00000  -0.00556  -0.04818
  22       10D-2        0.00000   0.00000   0.00000   0.00000   0.00000
  23       11D 0        0.00000   0.00000   0.00000   0.59272  -0.21483
  24       11D+1       -0.45606   0.00000   0.00000   0.00000   0.00000
  25       11D-1        0.00000  -0.14241  -0.70333   0.00000   0.00000
  26       11D+2        0.00000   0.00000   0.00000   0.02042   0.18650
  27       11D-2        0.00000   0.00000   0.00000   0.00000   0.00000
  28       12D 0        0.00000   0.00000   0.00000   3.52380   0.24086
  29       12D+1        0.87451   0.00000   0.00000   0.00000   0.00000
  30       12D-1        0.00000  -0.11523  -0.43109   0.00000   0.00000
  31       12D+2        0.00000   0.00000   0.00000   1.39226  -1.02732
  32       12D-2        0.00000   0.00000   0.00000   0.00000   0.00000
  33       13F 0        0.00000   0.00000   0.00000   0.05110  -0.04582
  34       13F+1       -0.12012   0.00000   0.00000   0.00000   0.00000
  35       13F-1        0.00000  -0.01572  -0.06317   0.00000   0.00000
  36       13F+2        0.00000   0.00000   0.00000  -0.00257   0.00563
  37       13F-2        0.00000   0.00000   0.00000   0.00000   0.00000
  38       13F+3        0.05126   0.00000   0.00000   0.00000   0.00000
  39       13F-3        0.00000   0.04543  -0.00133   0.00000   0.00000
  40       14F 0        0.00000   0.00000   0.00000  -0.01406  -0.09424
  41       14F+1       -0.05287   0.00000   0.00000   0.00000   0.00000
  42       14F-1        0.00000  -0.01494  -0.01738   0.00000   0.00000
  43       14F+2        0.00000   0.00000   0.00000   0.13170  -0.17220
  44       14F-2        0.00000   0.00000   0.00000   0.00000   0.00000
  45       14F+3       -0.02677   0.00000   0.00000   0.00000   0.00000
  46       14F-3        0.00000  -0.06501  -0.10754   0.00000   0.00000
  47 2   Br 1S          0.00000   0.00226  -0.00002   0.00003   0.00012
  48        2S          0.00000   0.01719  -0.00332  -0.00094   0.00083
  49        3S          0.00000   0.08045  -0.00782  -0.00151   0.00404
  50        4S          0.00000   0.23554  -0.05448  -0.01118   0.01256
  51        5S          0.00000   0.09196  -0.15505  -0.00297  -0.00202
  52        6S          0.00000  -0.84641   1.91104   0.82233   0.03575
  53        7S          0.00000 -10.09343  14.82920   2.08030 -13.50083
  54        8PX         0.00163   0.00000   0.00000   0.00000   0.00000
  55        8PY         0.00000   0.00096   0.00057   0.00062  -0.00038
  56        8PZ         0.00000   0.00058  -0.00004   0.00041   0.00006
  57        9PX        -0.02005   0.00000   0.00000   0.00000   0.00000
  58        9PY         0.00000   0.01651   0.00355  -0.00840   0.02553
  59        9PZ         0.00000   0.00124   0.01322  -0.00961   0.01477
  60       10PX        -0.15316   0.00000   0.00000   0.00000   0.00000
  61       10PY         0.00000   0.24427   0.07154  -0.06696   0.28040
  62       10PZ         0.00000   0.04733   0.15186  -0.09150   0.17638
  63       11PX         0.04502   0.00000   0.00000   0.00000   0.00000
  64       11PY         0.00000   0.00113  -0.00452   0.01809  -0.03501
  65       11PZ         0.00000   0.01565  -0.02377   0.01404  -0.01576
  66       12PX         0.65939   0.00000   0.00000   0.00000   0.00000
  67       12PY         0.00000  -3.78054   3.70113  -0.37301  -1.68563
  68       12PZ         0.00000  -2.39544   2.51435   1.57603  -1.32020
  69       13PX        -2.45192   0.00000   0.00000   0.00000   0.00000
  70       13PY         0.00000  -3.84281   0.38252   0.83962  -3.65883
  71       13PZ         0.00000  -0.94110   2.84663  -0.93034  -2.18031
  72       14D 0        0.00000  -0.00090  -0.00060   0.00120  -0.00095
  73       14D+1        0.00232   0.00000   0.00000   0.00000   0.00000
  74       14D-1        0.00000   0.00084  -0.00017  -0.00128   0.00113
  75       14D+2        0.00000  -0.00345  -0.00108   0.00226   0.00023
  76       14D-2        0.00099   0.00000   0.00000   0.00000   0.00000
  77       15D 0        0.00000   0.01476   0.00454  -0.01479   0.01306
  78       15D+1       -0.02808   0.00000   0.00000   0.00000   0.00000
  79       15D-1        0.00000   0.00248  -0.01501   0.00876  -0.01722
  80       15D+2        0.00000   0.03669   0.02461  -0.02393  -0.00163
  81       15D-2       -0.02135   0.00000   0.00000   0.00000   0.00000
  82       16D 0        0.00000  -0.09727  -0.00624   0.08966  -0.07385
  83       16D+1        0.11265   0.00000   0.00000   0.00000   0.00000
  84       16D-1        0.00000  -0.03243   0.29947  -0.05120   0.16848
  85       16D+2        0.00000  -0.19536  -0.27230   0.14622  -0.05721
  86       16D-2        0.10116   0.00000   0.00000   0.00000   0.00000
  87       17D 0        0.00000   0.18034   0.16051   0.32921   0.03749
  88       17D+1       -0.21500   0.00000   0.00000   0.00000   0.00000
  89       17D-1        0.00000  -1.43084   1.09341   0.28956  -0.75492
  90       17D+2        0.00000   1.78792  -0.51057   0.25327   0.35087
  91       17D-2       -0.03013   0.00000   0.00000   0.00000   0.00000
  92       18F 0        0.00000   0.00416   0.01906  -0.01484  -0.00471
  93       18F+1       -0.00979   0.00000   0.00000   0.00000   0.00000
  94       18F-1        0.00000   0.02783  -0.02431   0.00076   0.00685
  95       18F+2        0.00000  -0.04228   0.01328  -0.01486  -0.00856
  96       18F-2       -0.01367   0.00000   0.00000   0.00000   0.00000
  97       18F+3        0.04974   0.00000   0.00000   0.00000   0.00000
  98       18F-3        0.00000  -0.03990   0.01439  -0.01995  -0.01226
  99       19F 0        0.00000   0.02481  -0.10665   0.03153  -0.00936
 100       19F+1        0.00819   0.00000   0.00000   0.00000   0.00000
 101       19F-1        0.00000  -0.10830   0.12973   0.02749  -0.02977
 102       19F+2        0.00000   0.17929  -0.16369   0.05285   0.01822
 103       19F-2        0.02306   0.00000   0.00000   0.00000   0.00000
 104       19F+3       -0.11045   0.00000   0.00000   0.00000   0.00000
 105       19F-3        0.00000   0.17058  -0.10683   0.09980   0.02349
 106 3   Br 1S          0.00000  -0.00226   0.00002   0.00003   0.00012
 107        2S          0.00000  -0.01719   0.00332  -0.00094   0.00083
 108        3S          0.00000  -0.08045   0.00782  -0.00151   0.00404
 109        4S          0.00000  -0.23554   0.05448  -0.01118   0.01256
 110        5S          0.00000  -0.09196   0.15505  -0.00297  -0.00202
 111        6S          0.00000   0.84641  -1.91104   0.82233   0.03575
 112        7S          0.00000  10.09343 -14.82920   2.08030 -13.50083
 113        8PX         0.00163   0.00000   0.00000   0.00000   0.00000
 114        8PY         0.00000   0.00096   0.00057  -0.00062   0.00038
 115        8PZ         0.00000  -0.00058   0.00004   0.00041   0.00006
 116        9PX        -0.02005   0.00000   0.00000   0.00000   0.00000
 117        9PY         0.00000   0.01651   0.00355   0.00840  -0.02553
 118        9PZ         0.00000  -0.00124  -0.01322  -0.00961   0.01477
 119       10PX        -0.15316   0.00000   0.00000   0.00000   0.00000
 120       10PY         0.00000   0.24427   0.07154   0.06696  -0.28040
 121       10PZ         0.00000  -0.04733  -0.15186  -0.09150   0.17638
 122       11PX         0.04502   0.00000   0.00000   0.00000   0.00000
 123       11PY         0.00000   0.00113  -0.00452  -0.01809   0.03501
 124       11PZ         0.00000  -0.01565   0.02377   0.01404  -0.01576
 125       12PX         0.65939   0.00000   0.00000   0.00000   0.00000
 126       12PY         0.00000  -3.78054   3.70113   0.37301   1.68563
 127       12PZ         0.00000   2.39544  -2.51435   1.57603  -1.32020
 128       13PX        -2.45192   0.00000   0.00000   0.00000   0.00000
 129       13PY         0.00000  -3.84281   0.38252  -0.83962   3.65883
 130       13PZ         0.00000   0.94110  -2.84663  -0.93034  -2.18031
 131       14D 0        0.00000   0.00090   0.00060   0.00120  -0.00095
 132       14D+1        0.00232   0.00000   0.00000   0.00000   0.00000
 133       14D-1        0.00000   0.00084  -0.00017   0.00128  -0.00113
 134       14D+2        0.00000   0.00345   0.00108   0.00226   0.00023
 135       14D-2       -0.00099   0.00000   0.00000   0.00000   0.00000
 136       15D 0        0.00000  -0.01476  -0.00454  -0.01479   0.01306
 137       15D+1       -0.02808   0.00000   0.00000   0.00000   0.00000
 138       15D-1        0.00000   0.00248  -0.01501  -0.00876   0.01722
 139       15D+2        0.00000  -0.03669  -0.02461  -0.02393  -0.00163
 140       15D-2        0.02135   0.00000   0.00000   0.00000   0.00000
 141       16D 0        0.00000   0.09727   0.00624   0.08966  -0.07385
 142       16D+1        0.11265   0.00000   0.00000   0.00000   0.00000
 143       16D-1        0.00000  -0.03243   0.29947   0.05120  -0.16848
 144       16D+2        0.00000   0.19536   0.27230   0.14622  -0.05721
 145       16D-2       -0.10116   0.00000   0.00000   0.00000   0.00000
 146       17D 0        0.00000  -0.18034  -0.16051   0.32921   0.03749
 147       17D+1       -0.21500   0.00000   0.00000   0.00000   0.00000
 148       17D-1        0.00000  -1.43084   1.09341  -0.28956   0.75492
 149       17D+2        0.00000  -1.78792   0.51057   0.25327   0.35087
 150       17D-2        0.03013   0.00000   0.00000   0.00000   0.00000
 151       18F 0        0.00000  -0.00416  -0.01906  -0.01484  -0.00471
 152       18F+1       -0.00979   0.00000   0.00000   0.00000   0.00000
 153       18F-1        0.00000   0.02783  -0.02431  -0.00076  -0.00685
 154       18F+2        0.00000   0.04228  -0.01328  -0.01486  -0.00856
 155       18F-2        0.01367   0.00000   0.00000   0.00000   0.00000
 156       18F+3        0.04974   0.00000   0.00000   0.00000   0.00000
 157       18F-3        0.00000  -0.03990   0.01439   0.01995   0.01226
 158       19F 0        0.00000  -0.02481   0.10665   0.03153  -0.00936
 159       19F+1        0.00819   0.00000   0.00000   0.00000   0.00000
 160       19F-1        0.00000  -0.10830   0.12973  -0.02749   0.02977
 161       19F+2        0.00000  -0.17929   0.16369   0.05285   0.01822
 162       19F-2       -0.02306   0.00000   0.00000   0.00000   0.00000
 163       19F+3       -0.11045   0.00000   0.00000   0.00000   0.00000
 164       19F-3        0.00000   0.17058  -0.10683  -0.09980  -0.02349
 165 4   O  1S          0.00000   0.00000   0.00000   0.09746   0.03165
 166        2S          0.00000   0.00000   0.00000   0.51322   0.16558
 167        3S          0.00000   0.00000   0.00000   0.00596  -0.00590
 168        4S          0.00000   0.00000   0.00000  -6.28837  -0.01462
 169        5S          0.00000   0.00000   0.00000 -15.17083  -8.10260
 170        6PX         0.01902   0.00000   0.00000   0.00000   0.00000
 171        6PY         0.00000   0.01497   0.00233   0.00000   0.00000
 172        6PZ         0.00000   0.00000   0.00000  -0.00688   0.01096
 173        7PX        -0.03156   0.00000   0.00000   0.00000   0.00000
 174        7PY         0.00000  -0.07748   0.03965   0.00000   0.00000
 175        7PZ         0.00000   0.00000   0.00000   0.15779  -0.13443
 176        8PX         0.84389   0.00000   0.00000   0.00000   0.00000
 177        8PY         0.00000   1.03501   0.15250   0.00000   0.00000
 178        8PZ         0.00000   0.00000   0.00000   3.74016   0.70148
 179        9PX        -3.45003   0.00000   0.00000   0.00000   0.00000
 180        9PY         0.00000  -0.82739  -3.66470   0.00000   0.00000
 181        9PZ         0.00000   0.00000   0.00000   0.20233   1.64597
 182       10D 0        0.00000   0.00000   0.00000   0.05381   0.01322
 183       10D+1        0.03416   0.00000   0.00000   0.00000   0.00000
 184       10D-1        0.00000   0.00228   0.03600   0.00000   0.00000
 185       10D+2        0.00000   0.00000   0.00000  -0.02656  -0.01060
 186       10D-2        0.00000   0.00000   0.00000   0.00000   0.00000
 187       11D 0        0.00000   0.00000   0.00000  -0.40484  -0.03364
 188       11D+1       -0.23902   0.00000   0.00000   0.00000   0.00000
 189       11D-1        0.00000  -0.03947  -0.20783   0.00000   0.00000
 190       11D+2        0.00000   0.00000   0.00000   0.07595   0.03395
 191       11D-2        0.00000   0.00000   0.00000   0.00000   0.00000
 192       12D 0        0.00000   0.00000   0.00000  -0.48180  -0.19385
 193       12D+1       -0.12247   0.00000   0.00000   0.00000   0.00000
 194       12D-1        0.00000  -0.31363   0.13858   0.00000   0.00000
 195       12D+2        0.00000   0.00000   0.00000  -0.38135   0.05924
 196       12D-2        0.00000   0.00000   0.00000   0.00000   0.00000
 197       13F 0        0.00000   0.00000   0.00000   0.01909  -0.01305
 198       13F+1       -0.00481   0.00000   0.00000   0.00000   0.00000
 199       13F-1        0.00000  -0.01532  -0.00223   0.00000   0.00000
 200       13F+2        0.00000   0.00000   0.00000  -0.01304   0.01461
 201       13F-2        0.00000   0.00000   0.00000   0.00000   0.00000
 202       13F+3        0.01415   0.00000   0.00000   0.00000   0.00000
 203       13F-3        0.00000  -0.00975   0.01581   0.00000   0.00000
 204       14F 0        0.00000   0.00000   0.00000   0.14020   0.06564
 205       14F+1        0.17191   0.00000   0.00000   0.00000   0.00000
 206       14F-1        0.00000   0.07508   0.09822   0.00000   0.00000
 207       14F+2        0.00000   0.00000   0.00000   0.05947  -0.03777
 208       14F-2        0.00000   0.00000   0.00000   0.00000   0.00000
 209       14F+3       -0.02623   0.00000   0.00000   0.00000   0.00000
 210       14F-3        0.00000   0.02469  -0.02738   0.00000   0.00000
          Condensed to atoms (all electrons):
              1          2          3          4
     1  C    5.548049   0.027482   0.027482   0.246508
     2  Br   0.027482  35.049718  -0.119594  -0.058465
     3  Br   0.027482  -0.119594  35.049718  -0.058465
     4  O    0.246508  -0.058465  -0.058465   8.222621
 Mulliken atomic charges:
              1
     1  C    0.150478
     2  Br   0.100860
     3  Br   0.100860
     4  O   -0.352198
 Sum of Mulliken atomic charges =   0.00000
 Mulliken charges with hydrogens summed into heavy atoms:
              1
     1  C    0.150478
     2  Br   0.100860
     3  Br   0.100860
     4  O   -0.352198
 Sum of Mulliken charges with hydrogens summed into heavy atoms =   0.00000
 Electronic spatial extent (au):  <R**2>=           1355.3004
 Charge=              0.0000 electrons
 Dipole moment (field-independent basis, Debye):
    X=              0.0000    Y=              0.0000    Z=             -1.1781  Tot=              1.1781
 Quadrupole moment (field-independent basis, Debye-Ang):
   XX=            -46.9490   YY=            -45.0094   ZZ=            -47.5633
   XY=              0.0000   XZ=              0.0000   YZ=              0.0000
 Traceless Quadrupole moment (field-independent basis, Debye-Ang):
   XX=             -0.4418   YY=              1.4979   ZZ=             -1.0561
   XY=              0.0000   XZ=              0.0000   YZ=              0.0000
 Octapole moment (field-independent basis, Debye-Ang**2):
  XXX=              0.0000  YYY=              0.0000  ZZZ=            165.1989  XYY=              0.0000
  XXY=              0.0000  XXZ=             56.4105  XZZ=              0.0000  YZZ=              0.0000
  YYZ=             45.9600  XYZ=              0.0000
 Hexadecapole moment (field-independent basis, Debye-Ang**3):
 XXXX=            -53.6961 YYYY=           -571.5626 ZZZZ=           -597.0997 XXXY=              0.0000
 XXXZ=              0.0000 YYYX=              0.0000 YYYZ=              0.0000 ZZZX=              0.0000
 ZZZY=              0.0000 XXYY=           -111.4306 XXZZ=           -110.3889 YYZZ=           -175.3719
 XXYZ=              0.0000 YYXZ=              0.0000 ZZXY=              0.0000
 N-N= 4.497388208599D+02 E-N=-1.347129649943D+04  KE= 5.257277853703D+03
 1\1\GINC-TRAPISTA\SP\RQCISD-FC\Aug-CC-pVTZ\C1Br2O1\BRUNS\28-Nov-2021\0
 \\# qcisd/aug-cc-pvtz nosymm density=current output=wfn\\br2co-wavefun
 ction\\0,1\C,0,0.,0.,-0.491759\Br,0,0.,-1.594181,-1.54682\Br,0,0.,1.59
 4181,-1.54682\O,0,0.,0.,0.6745\\Version=EM64L-G09RevB.01\HF=-5257.6854
 051\MP2=-5258.5482004\MP3=-5258.548608\MP4D=-5258.5695556\MP4DQ=-5258.
 5481775\MP4SDQ=-5258.5599326\QCISD=-5258.5575954\RMSD=8.811e-09\Dipole
 =0.,0.,-0.4635164\Quadrupole=-0.3284451,1.1136188,-0.7851737,0.,0.,0.\
 PG=C02V [C2(C1O1),SGV(Br2)]\\@

 Writing a WFN file to GAUSSIAN.wfn.


 CHILDREN YOU ARE VERY LITTLE,
 AND YOUR BONES ARE VERY BRITTLE;
 IF YOU WOULD GROW GREAT AND STATELY
 YOU MUST TRY TO WALK SEDATELY.
 YOU MUST STILL BE BRIGHT AND QUIET,
 AND CONTENT WITH SIMPLE DIET;
 AND REMAIN, THROUGH ALL BEWILD'RING
 INNOCENT AND HONEST CHILDREN.
     -- A CHILD'S GARDEN OF VERSE,
        ROBERT LOUIS STEVENSON
 Job cpu time:  0 days  5 hours 13 minutes 27.6 seconds.
 File lengths (MBytes):  RWF=  23799 Int=      0 D2E=      0 Chk=      4 Scr=      1
 Normal termination of Gaussian 09 at Sun Nov 28 23:14:24 2021.
