 br2co-wavefunction
GAUSSIAN            210 MOL ORBITALS    578 PRIMITIVES        4 NUCLEI
  C    1    (CENTRE  1)   0.00000000  0.00000000 -0.92928983  CHARGE =  6.0
  Br   2    (CENTRE  2)   0.00000000 -3.01256550 -2.92306618  CHARGE = 35.0
  Br   3    (CENTRE  3)   0.00000000  3.01256550 -2.92306618  CHARGE = 35.0
  O    4    (CENTRE  4)   0.00000000  0.00000000  1.29351754  CHARGE =  8.0
CENTRE ASSIGNMENTS    1  1  1  1  1  1  1  1  1  1  1  1  1  1  1  1  1  1  1  1
CENTRE ASSIGNMENTS    1  1  1  1  1  1  1  1  1  1  1  1  1  1  1  1  1  1  1  1
CENTRE ASSIGNMENTS    1  1  1  1  1  1  1  1  1  1  1  1  1  1  1  1  1  1  1  1
CENTRE ASSIGNMENTS    1  1  1  1  1  1  1  1  1  1  1  1  2  2  2  2  2  2  2  2
CENTRE ASSIGNMENTS    2  2  2  2  2  2  2  2  2  2  2  2  2  2  2  2  2  2  2  2
CENTRE ASSIGNMENTS    2  2  2  2  2  2  2  2  2  2  2  2  2  2  2  2  2  2  2  2
CENTRE ASSIGNMENTS    2  2  2  2  2  2  2  2  2  2  2  2  2  2  2  2  2  2  2  2
CENTRE ASSIGNMENTS    2  2  2  2  2  2  2  2  2  2  2  2  2  2  2  2  2  2  2  2
CENTRE ASSIGNMENTS    2  2  2  2  2  2  2  2  2  2  2  2  2  2  2  2  2  2  2  2
CENTRE ASSIGNMENTS    2  2  2  2  2  2  2  2  2  2  2  2  2  2  2  2  2  2  2  2
CENTRE ASSIGNMENTS    2  2  2  2  2  2  2  2  2  2  2  2  2  2  2  2  2  2  2  2
CENTRE ASSIGNMENTS    2  2  2  2  2  2  2  2  2  2  2  2  2  2  2  2  2  2  2  2
CENTRE ASSIGNMENTS    2  2  2  2  2  2  2  2  2  2  2  2  2  2  2  2  2  2  2  2
CENTRE ASSIGNMENTS    2  2  2  2  2  2  2  2  2  2  2  2  2  2  2  2  2  2  2  2
CENTRE ASSIGNMENTS    2  2  2  2  2  2  2  2  2  3  3  3  3  3  3  3  3  3  3  3
CENTRE ASSIGNMENTS    3  3  3  3  3  3  3  3  3  3  3  3  3  3  3  3  3  3  3  3
CENTRE ASSIGNMENTS    3  3  3  3  3  3  3  3  3  3  3  3  3  3  3  3  3  3  3  3
CENTRE ASSIGNMENTS    3  3  3  3  3  3  3  3  3  3  3  3  3  3  3  3  3  3  3  3
CENTRE ASSIGNMENTS    3  3  3  3  3  3  3  3  3  3  3  3  3  3  3  3  3  3  3  3
CENTRE ASSIGNMENTS    3  3  3  3  3  3  3  3  3  3  3  3  3  3  3  3  3  3  3  3
CENTRE ASSIGNMENTS    3  3  3  3  3  3  3  3  3  3  3  3  3  3  3  3  3  3  3  3
CENTRE ASSIGNMENTS    3  3  3  3  3  3  3  3  3  3  3  3  3  3  3  3  3  3  3  3
CENTRE ASSIGNMENTS    3  3  3  3  3  3  3  3  3  3  3  3  3  3  3  3  3  3  3  3
CENTRE ASSIGNMENTS    3  3  3  3  3  3  3  3  3  3  3  3  3  3  3  3  3  3  3  3
CENTRE ASSIGNMENTS    3  3  3  3  3  3  3  3  3  3  3  3  3  3  3  3  3  3  3  3
CENTRE ASSIGNMENTS    3  3  3  3  3  3  4  4  4  4  4  4  4  4  4  4  4  4  4  4
CENTRE ASSIGNMENTS    4  4  4  4  4  4  4  4  4  4  4  4  4  4  4  4  4  4  4  4
CENTRE ASSIGNMENTS    4  4  4  4  4  4  4  4  4  4  4  4  4  4  4  4  4  4  4  4
CENTRE ASSIGNMENTS    4  4  4  4  4  4  4  4  4  4  4  4  4  4  4  4  4  4
TYPE ASSIGNMENTS      1  1  1  1  1  1  1  1  1  1  1  1  1  1  1  1  2  2  2  3
TYPE ASSIGNMENTS      3  3  4  4  4  2  3  4  2  3  4  2  3  4  5  6  7  8  9 10
TYPE ASSIGNMENTS      5  6  7  8  9 10  5  6  7  8  9 10 11 12 13 17 14 15 18 19
TYPE ASSIGNMENTS     16 20 11 12 13 17 14 15 18 19 16 20  1  1  1  1  1  1  1  1
TYPE ASSIGNMENTS      1  1  1  1  1  1  1  1  1  1  1  1  1  1  1  1  1  1  1  1
TYPE ASSIGNMENTS      1  1  1  1  1  1  1  1  1  1  1  1  1  1  1  1  1  1  1  1
TYPE ASSIGNMENTS      1  1  2  2  2  2  2  2  2  2  2  3  3  3  3  3  3  3  3  3
TYPE ASSIGNMENTS      4  4  4  4  4  4  4  4  4  2  2  2  2  2  2  2  2  2  3  3
TYPE ASSIGNMENTS      3  3  3  3  3  3  3  4  4  4  4  4  4  4  4  4  2  2  2  2
TYPE ASSIGNMENTS      2  2  2  2  3  3  3  3  3  3  3  3  4  4  4  4  4  4  4  4
TYPE ASSIGNMENTS      2  3  4  2  3  4  2  3  4  5  5  5  5  5  5  5  6  6  6  6
TYPE ASSIGNMENTS      6  6  6  7  7  7  7  7  7  7  8  8  8  8  8  8  8  9  9  9
TYPE ASSIGNMENTS      9  9  9  9 10 10 10 10 10 10 10  5  6  7  8  9 10  5  6  7
TYPE ASSIGNMENTS      8  9 10  5  6  7  8  9 10 11 12 13 17 14 15 18 19 16 20 11
TYPE ASSIGNMENTS     12 13 17 14 15 18 19 16 20  1  1  1  1  1  1  1  1  1  1  1
TYPE ASSIGNMENTS      1  1  1  1  1  1  1  1  1  1  1  1  1  1  1  1  1  1  1  1
TYPE ASSIGNMENTS      1  1  1  1  1  1  1  1  1  1  1  1  1  1  1  1  1  1  1  2
TYPE ASSIGNMENTS      2  2  2  2  2  2  2  2  3  3  3  3  3  3  3  3  3  4  4  4
TYPE ASSIGNMENTS      4  4  4  4  4  4  2  2  2  2  2  2  2  2  2  3  3  3  3  3
TYPE ASSIGNMENTS      3  3  3  3  4  4  4  4  4  4  4  4  4  2  2  2  2  2  2  2
TYPE ASSIGNMENTS      2  3  3  3  3  3  3  3  3  4  4  4  4  4  4  4  4  2  3  4
TYPE ASSIGNMENTS      2  3  4  2  3  4  5  5  5  5  5  5  5  6  6  6  6  6  6  6
TYPE ASSIGNMENTS      7  7  7  7  7  7  7  8  8  8  8  8  8  8  9  9  9  9  9  9
TYPE ASSIGNMENTS      9 10 10 10 10 10 10 10  5  6  7  8  9 10  5  6  7  8  9 10
TYPE ASSIGNMENTS      5  6  7  8  9 10 11 12 13 17 14 15 18 19 16 20 11 12 13 17
TYPE ASSIGNMENTS     14 15 18 19 16 20  1  1  1  1  1  1  1  1  1  1  1  1  1  1
TYPE ASSIGNMENTS      1  1  2  2  2  3  3  3  4  4  4  2  3  4  2  3  4  2  3  4
TYPE ASSIGNMENTS      5  6  7  8  9 10  5  6  7  8  9 10  5  6  7  8  9 10 11 12
TYPE ASSIGNMENTS     13 17 14 15 18 19 16 20 11 12 13 17 14 15 18 19 16 20
EXPONENTS  0.8236000D+04 0.1235000D+04 0.2808000D+03 0.7927000D+02 0.2559000D+02
EXPONENTS  0.8997000D+01 0.3319000D+01 0.2808000D+03 0.7927000D+02 0.2559000D+02
EXPONENTS  0.8997000D+01 0.3319000D+01 0.3643000D+00 0.9059000D+00 0.1285000D+00
EXPONENTS  0.4402000D-01 0.1871000D+02 0.4133000D+01 0.1200000D+01 0.1871000D+02
EXPONENTS  0.4133000D+01 0.1200000D+01 0.1871000D+02 0.4133000D+01 0.1200000D+01
EXPONENTS  0.3827000D+00 0.3827000D+00 0.3827000D+00 0.1209000D+00 0.1209000D+00
EXPONENTS  0.1209000D+00 0.3569000D-01 0.3569000D-01 0.3569000D-01 0.1097000D+01
EXPONENTS  0.1097000D+01 0.1097000D+01 0.1097000D+01 0.1097000D+01 0.1097000D+01
EXPONENTS  0.3180000D+00 0.3180000D+00 0.3180000D+00 0.3180000D+00 0.3180000D+00
EXPONENTS  0.3180000D+00 0.1000000D+00 0.1000000D+00 0.1000000D+00 0.1000000D+00
EXPONENTS  0.1000000D+00 0.1000000D+00 0.7610000D+00 0.7610000D+00 0.7610000D+00
EXPONENTS  0.7610000D+00 0.7610000D+00 0.7610000D+00 0.7610000D+00 0.7610000D+00
EXPONENTS  0.7610000D+00 0.7610000D+00 0.2680000D+00 0.2680000D+00 0.2680000D+00
EXPONENTS  0.2680000D+00 0.2680000D+00 0.2680000D+00 0.2680000D+00 0.2680000D+00
EXPONENTS  0.2680000D+00 0.2680000D+00 0.1063900D+08 0.1593400D+07 0.3626100D+06
EXPONENTS  0.1027000D+06 0.3350100D+05 0.1209300D+05 0.4715900D+04 0.1955600D+04
EXPONENTS  0.8526100D+03 0.3876700D+03 0.1826800D+03 0.8824500D+02 0.3926300D+02
EXPONENTS  0.9405700D+01 0.1899500D+01 0.3350100D+05 0.1209300D+05 0.4715900D+04
EXPONENTS  0.1955600D+04 0.8526100D+03 0.3876700D+03 0.1826800D+03 0.8824500D+02
EXPONENTS  0.3926300D+02 0.1923400D+02 0.9405700D+01 0.1899500D+01 0.4715900D+04
EXPONENTS  0.8526100D+03 0.3876700D+03 0.1826800D+03 0.8824500D+02 0.3926300D+02
EXPONENTS  0.1923400D+02 0.9405700D+01 0.4160100D+01 0.1899500D+01 0.4715900D+04
EXPONENTS  0.8526100D+03 0.3876700D+03 0.8824500D+02 0.3926300D+02 0.1923400D+02
EXPONENTS  0.9405700D+01 0.4160100D+01 0.1899500D+01 0.3011400D+00 0.6047200D+00
EXPONENTS  0.1251500D+00 0.4559300D-01 0.8676500D+04 0.2055900D+04 0.6662300D+03
EXPONENTS  0.2531000D+03 0.1061200D+03 0.4724200D+02 0.2182500D+02 0.9968400D+01
EXPONENTS  0.1998200D+01 0.8676500D+04 0.2055900D+04 0.6662300D+03 0.2531000D+03
EXPONENTS  0.1061200D+03 0.4724200D+02 0.2182500D+02 0.9968400D+01 0.1998200D+01
EXPONENTS  0.8676500D+04 0.2055900D+04 0.6662300D+03 0.2531000D+03 0.1061200D+03
EXPONENTS  0.4724200D+02 0.2182500D+02 0.9968400D+01 0.1998200D+01 0.8676500D+04
EXPONENTS  0.6662300D+03 0.2531000D+03 0.1061200D+03 0.4724200D+02 0.2182500D+02
EXPONENTS  0.9968400D+01 0.4517100D+01 0.1998200D+01 0.8676500D+04 0.6662300D+03
EXPONENTS  0.2531000D+03 0.1061200D+03 0.4724200D+02 0.2182500D+02 0.9968400D+01
EXPONENTS  0.4517100D+01 0.1998200D+01 0.8676500D+04 0.6662300D+03 0.2531000D+03
EXPONENTS  0.1061200D+03 0.4724200D+02 0.2182500D+02 0.9968400D+01 0.4517100D+01
EXPONENTS  0.1998200D+01 0.6662300D+03 0.1061200D+03 0.4724200D+02 0.2182500D+02
EXPONENTS  0.9968400D+01 0.4517100D+01 0.1998200D+01 0.2814500D+00 0.6662300D+03
EXPONENTS  0.1061200D+03 0.4724200D+02 0.2182500D+02 0.9968400D+01 0.4517100D+01
EXPONENTS  0.1998200D+01 0.2814500D+00 0.6662300D+03 0.1061200D+03 0.4724200D+02
EXPONENTS  0.2182500D+02 0.9968400D+01 0.4517100D+01 0.1998200D+01 0.2814500D+00
EXPONENTS  0.7098800D+00 0.7098800D+00 0.7098800D+00 0.1020400D+00 0.1020400D+00
EXPONENTS  0.1020400D+00 0.3514200D-01 0.3514200D-01 0.3514200D-01 0.4038300D+03
EXPONENTS  0.1211700D+03 0.4634500D+02 0.1972100D+02 0.8862400D+01 0.3996200D+01
EXPONENTS  0.1763600D+01 0.4038300D+03 0.1211700D+03 0.4634500D+02 0.1972100D+02
EXPONENTS  0.8862400D+01 0.3996200D+01 0.1763600D+01 0.4038300D+03 0.1211700D+03
EXPONENTS  0.4634500D+02 0.1972100D+02 0.8862400D+01 0.3996200D+01 0.1763600D+01
EXPONENTS  0.4038300D+03 0.1211700D+03 0.4634500D+02 0.1972100D+02 0.8862400D+01
EXPONENTS  0.3996200D+01 0.1763600D+01 0.4038300D+03 0.1211700D+03 0.4634500D+02
EXPONENTS  0.1972100D+02 0.8862400D+01 0.3996200D+01 0.1763600D+01 0.4038300D+03
EXPONENTS  0.1211700D+03 0.4634500D+02 0.1972100D+02 0.8862400D+01 0.3996200D+01
EXPONENTS  0.1763600D+01 0.7061900D+00 0.7061900D+00 0.7061900D+00 0.7061900D+00
EXPONENTS  0.7061900D+00 0.7061900D+00 0.2639000D+00 0.2639000D+00 0.2639000D+00
EXPONENTS  0.2639000D+00 0.2639000D+00 0.2639000D+00 0.1047000D+00 0.1047000D+00
EXPONENTS  0.1047000D+00 0.1047000D+00 0.1047000D+00 0.1047000D+00 0.5515000D+00
EXPONENTS  0.5515000D+00 0.5515000D+00 0.5515000D+00 0.5515000D+00 0.5515000D+00
EXPONENTS  0.5515000D+00 0.5515000D+00 0.5515000D+00 0.5515000D+00 0.2580000D+00
EXPONENTS  0.2580000D+00 0.2580000D+00 0.2580000D+00 0.2580000D+00 0.2580000D+00
EXPONENTS  0.2580000D+00 0.2580000D+00 0.2580000D+00 0.2580000D+00 0.1063900D+08
EXPONENTS  0.1593400D+07 0.3626100D+06 0.1027000D+06 0.3350100D+05 0.1209300D+05
EXPONENTS  0.4715900D+04 0.1955600D+04 0.8526100D+03 0.3876700D+03 0.1826800D+03
EXPONENTS  0.8824500D+02 0.3926300D+02 0.9405700D+01 0.1899500D+01 0.3350100D+05
EXPONENTS  0.1209300D+05 0.4715900D+04 0.1955600D+04 0.8526100D+03 0.3876700D+03
EXPONENTS  0.1826800D+03 0.8824500D+02 0.3926300D+02 0.1923400D+02 0.9405700D+01
EXPONENTS  0.1899500D+01 0.4715900D+04 0.8526100D+03 0.3876700D+03 0.1826800D+03
EXPONENTS  0.8824500D+02 0.3926300D+02 0.1923400D+02 0.9405700D+01 0.4160100D+01
EXPONENTS  0.1899500D+01 0.4715900D+04 0.8526100D+03 0.3876700D+03 0.8824500D+02
EXPONENTS  0.3926300D+02 0.1923400D+02 0.9405700D+01 0.4160100D+01 0.1899500D+01
EXPONENTS  0.3011400D+00 0.6047200D+00 0.1251500D+00 0.4559300D-01 0.8676500D+04
EXPONENTS  0.2055900D+04 0.6662300D+03 0.2531000D+03 0.1061200D+03 0.4724200D+02
EXPONENTS  0.2182500D+02 0.9968400D+01 0.1998200D+01 0.8676500D+04 0.2055900D+04
EXPONENTS  0.6662300D+03 0.2531000D+03 0.1061200D+03 0.4724200D+02 0.2182500D+02
EXPONENTS  0.9968400D+01 0.1998200D+01 0.8676500D+04 0.2055900D+04 0.6662300D+03
EXPONENTS  0.2531000D+03 0.1061200D+03 0.4724200D+02 0.2182500D+02 0.9968400D+01
EXPONENTS  0.1998200D+01 0.8676500D+04 0.6662300D+03 0.2531000D+03 0.1061200D+03
EXPONENTS  0.4724200D+02 0.2182500D+02 0.9968400D+01 0.4517100D+01 0.1998200D+01
EXPONENTS  0.8676500D+04 0.6662300D+03 0.2531000D+03 0.1061200D+03 0.4724200D+02
EXPONENTS  0.2182500D+02 0.9968400D+01 0.4517100D+01 0.1998200D+01 0.8676500D+04
EXPONENTS  0.6662300D+03 0.2531000D+03 0.1061200D+03 0.4724200D+02 0.2182500D+02
EXPONENTS  0.9968400D+01 0.4517100D+01 0.1998200D+01 0.6662300D+03 0.1061200D+03
EXPONENTS  0.4724200D+02 0.2182500D+02 0.9968400D+01 0.4517100D+01 0.1998200D+01
EXPONENTS  0.2814500D+00 0.6662300D+03 0.1061200D+03 0.4724200D+02 0.2182500D+02
EXPONENTS  0.9968400D+01 0.4517100D+01 0.1998200D+01 0.2814500D+00 0.6662300D+03
EXPONENTS  0.1061200D+03 0.4724200D+02 0.2182500D+02 0.9968400D+01 0.4517100D+01
EXPONENTS  0.1998200D+01 0.2814500D+00 0.7098800D+00 0.7098800D+00 0.7098800D+00
EXPONENTS  0.1020400D+00 0.1020400D+00 0.1020400D+00 0.3514200D-01 0.3514200D-01
EXPONENTS  0.3514200D-01 0.4038300D+03 0.1211700D+03 0.4634500D+02 0.1972100D+02
EXPONENTS  0.8862400D+01 0.3996200D+01 0.1763600D+01 0.4038300D+03 0.1211700D+03
EXPONENTS  0.4634500D+02 0.1972100D+02 0.8862400D+01 0.3996200D+01 0.1763600D+01
EXPONENTS  0.4038300D+03 0.1211700D+03 0.4634500D+02 0.1972100D+02 0.8862400D+01
EXPONENTS  0.3996200D+01 0.1763600D+01 0.4038300D+03 0.1211700D+03 0.4634500D+02
EXPONENTS  0.1972100D+02 0.8862400D+01 0.3996200D+01 0.1763600D+01 0.4038300D+03
EXPONENTS  0.1211700D+03 0.4634500D+02 0.1972100D+02 0.8862400D+01 0.3996200D+01
EXPONENTS  0.1763600D+01 0.4038300D+03 0.1211700D+03 0.4634500D+02 0.1972100D+02
EXPONENTS  0.8862400D+01 0.3996200D+01 0.1763600D+01 0.7061900D+00 0.7061900D+00
EXPONENTS  0.7061900D+00 0.7061900D+00 0.7061900D+00 0.7061900D+00 0.2639000D+00
EXPONENTS  0.2639000D+00 0.2639000D+00 0.2639000D+00 0.2639000D+00 0.2639000D+00
EXPONENTS  0.1047000D+00 0.1047000D+00 0.1047000D+00 0.1047000D+00 0.1047000D+00
EXPONENTS  0.1047000D+00 0.5515000D+00 0.5515000D+00 0.5515000D+00 0.5515000D+00
EXPONENTS  0.5515000D+00 0.5515000D+00 0.5515000D+00 0.5515000D+00 0.5515000D+00
EXPONENTS  0.5515000D+00 0.2580000D+00 0.2580000D+00 0.2580000D+00 0.2580000D+00
EXPONENTS  0.2580000D+00 0.2580000D+00 0.2580000D+00 0.2580000D+00 0.2580000D+00
EXPONENTS  0.2580000D+00 0.1533000D+05 0.2299000D+04 0.5224000D+03 0.1473000D+03
EXPONENTS  0.4755000D+02 0.1676000D+02 0.6207000D+01 0.5224000D+03 0.1473000D+03
EXPONENTS  0.4755000D+02 0.1676000D+02 0.6207000D+01 0.6882000D+00 0.1752000D+01
EXPONENTS  0.2384000D+00 0.7376000D-01 0.3446000D+02 0.7749000D+01 0.2280000D+01
EXPONENTS  0.3446000D+02 0.7749000D+01 0.2280000D+01 0.3446000D+02 0.7749000D+01
EXPONENTS  0.2280000D+01 0.7156000D+00 0.7156000D+00 0.7156000D+00 0.2140000D+00
EXPONENTS  0.2140000D+00 0.2140000D+00 0.5974000D-01 0.5974000D-01 0.5974000D-01
EXPONENTS  0.2314000D+01 0.2314000D+01 0.2314000D+01 0.2314000D+01 0.2314000D+01
EXPONENTS  0.2314000D+01 0.6450000D+00 0.6450000D+00 0.6450000D+00 0.6450000D+00
EXPONENTS  0.6450000D+00 0.6450000D+00 0.2140000D+00 0.2140000D+00 0.2140000D+00
EXPONENTS  0.2140000D+00 0.2140000D+00 0.2140000D+00 0.1428000D+01 0.1428000D+01
EXPONENTS  0.1428000D+01 0.1428000D+01 0.1428000D+01 0.1428000D+01 0.1428000D+01
EXPONENTS  0.1428000D+01 0.1428000D+01 0.1428000D+01 0.5000000D+00 0.5000000D+00
EXPONENTS  0.5000000D+00 0.5000000D+00 0.5000000D+00 0.5000000D+00 0.5000000D+00
EXPONENTS  0.5000000D+00 0.5000000D+00 0.5000000D+00
MO    1     MO 0.0        OCC NO =    2.0000166  ORB. ENERGY =    0.000000
  0.12314617D+00  0.22956927D+00  0.38800334D+00  0.58324140D+00  0.71640759D+00
  0.60462273D+00  0.22735394D+00  0.29320037D-04  0.21914911D-03  0.81901027D-03
  0.22849111D-02  0.30611509D-02 -0.36146485D-02  0.94443676D-02 -0.19936763D-02
 -0.30928934D-03 -0.21956767D-12 -0.20585865D-12 -0.14658362D-12  0.24412226D-10
  0.22888014D-10  0.16297629D-10  0.36723630D-02  0.34430738D-02  0.24516736D-02
 -0.63498773D-13  0.82412373D-11  0.19864227D-02 -0.15247184D-13  0.17031435D-11
  0.38478753D-03  0.21214679D-15 -0.68702083D-13  0.48957975D-05 -0.97162868D-04
 -0.49940230D-03  0.59656517D-03  0.10394537D-13  0.51381351D-13 -0.60517468D-11
  0.33696008D-03 -0.32305397D-03 -0.13906108D-04  0.13453731D-13  0.56300863D-13
 -0.25686846D-11  0.30927565D-04 -0.18828223D-04 -0.12099342D-04  0.24853768D-14
  0.52643300D-14 -0.50502849D-12 -0.68423929D-14 -0.22833937D-12  0.12402476D-03
 -0.73521507D-15  0.61152333D-12 -0.16601877D-03  0.21262394D-13  0.73494776D-13
 -0.20605552D-03  0.49589165D-14  0.34184881D-14  0.18685644D-12 -0.14093486D-04
 -0.94856280D-14 -0.25635607D-13  0.25093411D-05 -0.76983628D-15 -0.53493372D-12
  0.39771118D-04 -0.35566361D-14 -0.34889111D-01 -0.65631673D-01 -0.11361178D+00
 -0.18623152D+00 -0.29173451D+00 -0.43850071D+00 -0.62672060D+00 -0.83197024D+00
 -0.96888944D+00 -0.88981286D+00 -0.52015404D+00 -0.13648539D+00 -0.77599524D-02
 -0.13540283D-03 -0.13629835D-04 -0.16554357D-02 -0.47821722D-02 -0.21917819D-01
 -0.64881517D-01 -0.18815829D+00 -0.39110438D+00 -0.55947946D+00 -0.16042063D+00
  0.64106232D+00  0.61984525D+00  0.13529070D+00 -0.19582920D-02 -0.10125311D-02
 -0.47236670D-02 -0.95863316D-02 -0.37570501D-01 -0.26364110D-01  0.17169306D+00
  0.53201786D+00  0.65077698D-01 -0.46506435D+00 -0.21825468D+00 -0.11093310D-05
 -0.15208047D-05  0.29157506D-05  0.61969287D-05 -0.23426124D-04 -0.75754135D-04
 -0.26346136D-04  0.25769390D-03  0.57479099D-03 -0.38141381D-03 -0.90592825D-02
  0.53773992D-03  0.15414638D-03  0.40076765D-08  0.57504176D-08  0.76140843D-08
  0.87929421D-08  0.81527155D-08  0.52795891D-08  0.18629516D-08  0.21465648D-09
 -0.35068274D-12  0.10012799D+02  0.14366871D+02  0.19023065D+02  0.21968329D+02
  0.20368784D+02  0.13190551D+02  0.46544074D+01  0.53629879D+00 -0.87614746D-03
  0.62281732D+01  0.89364989D+01  0.11832750D+02  0.13664767D+02  0.12669816D+02
  0.82048028D+01  0.28951402D+01  0.33358923D+00 -0.54498231D-03 -0.18089145D-10
  0.51575374D-10  0.25174604D-09  0.52166566D-09  0.65463891D-09  0.10381396D-09
 -0.84033890D-09 -0.73289736D-09 -0.18840217D-09 -0.59674377D-01  0.17014228D+00
  0.83048635D+00  0.17209256D+01  0.21595918D+01  0.34247242D+00 -0.27721985D+01
 -0.24177590D+01 -0.62152094D+00 -0.37198793D-01  0.10606039D+00  0.51769439D+00
  0.10727612D+01  0.13462094D+01  0.21348460D+00 -0.17280857D+01 -0.15071413D+01
 -0.38743310D+00  0.16176582D-13  0.22853287D-13 -0.10633515D-13  0.21309664D-13
  0.23393242D-13  0.63145691D-13  0.19898876D-13 -0.42723309D-13 -0.25820640D-03
 -0.36477823D-03  0.16972940D-03 -0.34013933D-03 -0.37339685D-03 -0.10079151D-02
 -0.31762069D-03  0.68193836D-03 -0.14273315D-03 -0.20164467D-03  0.93824213D-04
 -0.18802461D-03 -0.20640894D-03 -0.55716241D-03 -0.17557660D-03  0.37696668D-03
 -0.62393744D-11 -0.22011569D-01 -0.13840662D-01 -0.46679025D-13  0.12526826D-03
  0.60006623D-04  0.11577233D-14  0.87761833D-05  0.66723054D-05  0.10215690D+01
  0.10689619D+01  0.91081277D+00  0.59983906D+00  0.27644797D+00  0.82782791D-01
  0.14084790D-01 -0.12443944D+01 -0.13021246D+01 -0.11094799D+01 -0.73067637D+00
 -0.33674699D+00 -0.10083943D+00 -0.17156974D-01  0.22282534D+00  0.23316271D+00
  0.19866711D+00  0.13083731D+00  0.60299020D-01  0.18056639D-01  0.30721841D-02
 -0.10116989D-09 -0.10586338D-09 -0.90201270D-10 -0.59404356D-10 -0.27377699D-10
 -0.81982962D-11 -0.13948706D-11 -0.12723991D-10 -0.13314286D-10 -0.11344484D-10
 -0.74712003D-11 -0.34432538D-11 -0.10310879D-11 -0.17543087D-12 -0.37500058D+01
 -0.39239771D+01 -0.33434385D+01 -0.22019070D+01 -0.10147934D+01 -0.30388152D+00
 -0.51702864D-01  0.11370258D-02 -0.13745506D-02  0.23752480D-03 -0.12903921D-12
 -0.38644589D-13 -0.38087457D-02 -0.11624250D-03  0.11049840D-03  0.57441047D-05
  0.11040531D-13  0.86874888D-14  0.30458605D-03 -0.13577610D-04  0.15150013D-04
 -0.15724034D-05  0.20653868D-14  0.13080466D-14  0.28802815D-04  0.14345673D-13
 -0.40122452D-04  0.91948045D-04 -0.40104507D-13  0.20898928D-03  0.14526552D-03
 -0.29325112D-14 -0.88621924D-04 -0.42110966D-03 -0.75889916D-13 -0.30458070D-14
  0.97210850D-05 -0.20870585D-04  0.75265001D-14 -0.68893173D-04 -0.54608994D-04
  0.16109210D-14  0.39729918D-04  0.11722075D-03  0.14501403D-13 -0.34889111D-01
 -0.65631672D-01 -0.11361178D+00 -0.18623152D+00 -0.29173451D+00 -0.43850071D+00
 -0.62672060D+00 -0.83197023D+00 -0.96888944D+00 -0.88981286D+00 -0.52015404D+00
 -0.13648539D+00 -0.77599523D-02 -0.13540282D-03 -0.13629835D-04 -0.16554357D-02
 -0.47821721D-02 -0.21917818D-01 -0.64881516D-01 -0.18815829D+00 -0.39110437D+00
 -0.55947945D+00 -0.16042063D+00  0.64106232D+00  0.61984524D+00  0.13529070D+00
 -0.19582919D-02 -0.10125311D-02 -0.47236669D-02 -0.95863315D-02 -0.37570500D-01
 -0.26364110D-01  0.17169306D+00  0.53201785D+00  0.65077698D-01 -0.46506434D+00
 -0.21825468D+00 -0.11093310D-05 -0.15208047D-05  0.29157505D-05  0.61969286D-05
 -0.23426124D-04 -0.75754135D-04 -0.26346136D-04  0.25769390D-03  0.57479099D-03
 -0.38141381D-03 -0.90592824D-02  0.53773992D-03  0.15414638D-03  0.40902191D-08
  0.58688539D-08  0.77709049D-08  0.89740426D-08  0.83206298D-08  0.53883282D-08
  0.19013212D-08  0.21907757D-09 -0.35790544D-12 -0.10012798D+02 -0.14366871D+02
 -0.19023065D+02 -0.21968329D+02 -0.20368784D+02 -0.13190551D+02 -0.46544074D+01
 -0.53629878D+00  0.87614745D-03  0.62281731D+01  0.89364988D+01  0.11832750D+02
  0.13664767D+02  0.12669816D+02  0.82048027D+01  0.28951402D+01  0.33358922D+00
 -0.54498230D-03 -0.10708436D-10  0.30531657D-10  0.14902895D-09  0.30881631D-09
  0.38753399D-09  0.61455921D-10 -0.49746492D-09 -0.43386153D-09 -0.11153056D-09
  0.59674376D-01 -0.17014228D+00 -0.83048634D+00 -0.17209256D+01 -0.21595918D+01
 -0.34247242D+00  0.27721985D+01  0.24177590D+01  0.62152093D+00 -0.37198793D-01
  0.10606039D+00  0.51769438D+00  0.10727612D+01  0.13462094D+01  0.21348460D+00
 -0.17280857D+01 -0.15071413D+01 -0.38743310D+00  0.49749795D-14  0.70283470D-14
 -0.32702532D-14  0.65536182D-14  0.71944059D-14  0.19419956D-13  0.61197414D-14
 -0.13139215D-13  0.25820640D-03  0.36477823D-03 -0.16972940D-03  0.34013933D-03
  0.37339685D-03  0.10079151D-02  0.31762069D-03 -0.68193836D-03 -0.14273315D-03
 -0.20164467D-03  0.93824213D-04 -0.18802461D-03 -0.20640893D-03 -0.55716241D-03
 -0.17557660D-03  0.37696668D-03 -0.37012669D-11  0.22011568D-01 -0.13840662D-01
 -0.27463021D-13 -0.12526826D-03  0.60006623D-04  0.42342294D-15 -0.87761833D-05
  0.66723054D-05  0.10215690D+01  0.10689619D+01  0.91081276D+00  0.59983906D+00
  0.27644796D+00  0.82782790D-01  0.14084790D-01 -0.12443944D+01 -0.13021246D+01
 -0.11094799D+01 -0.73067636D+00 -0.33674698D+00 -0.10083943D+00 -0.17156974D-01
  0.22282534D+00  0.23316270D+00  0.19866710D+00  0.13083731D+00  0.60299019D-01
  0.18056639D-01  0.30721840D-02  0.84351332D-10  0.88264581D-10  0.75206147D-10
  0.49528933D-10  0.22826411D-10  0.68354056D-11  0.11629863D-11 -0.37805067D-10
 -0.39558930D-10 -0.33706325D-10 -0.22198163D-10 -0.10230473D-10 -0.30635316D-11
 -0.52123393D-12  0.37500058D+01  0.39239770D+01  0.33434385D+01  0.22019070D+01
  0.10147934D+01  0.30388152D+00  0.51702864D-01  0.11370258D-02 -0.13745506D-02
  0.23752479D-03  0.10177934D-12 -0.48964131D-13  0.38087457D-02 -0.11624250D-03
  0.11049840D-03  0.57441044D-05 -0.55235628D-14  0.58847195D-14 -0.30458605D-03
 -0.13577610D-04  0.15150013D-04 -0.15724034D-05 -0.92031350D-15 -0.33625906D-15
 -0.28802815D-04  0.84549498D-14  0.40122452D-04  0.91948044D-04 -0.25155896D-13
 -0.20898928D-03  0.14526552D-03 -0.20895308D-15  0.88621923D-04 -0.42110965D-03
  0.42414936D-13 -0.17030970D-14 -0.97210850D-05 -0.20870584D-04  0.48769376D-14
  0.68893172D-04 -0.54608993D-04  0.23235343D-15 -0.39729917D-04  0.11722075D-03
 -0.72947619D-14 -0.35429344D-01 -0.66034473D-01 -0.11197073D+00 -0.16945579D+00
 -0.21138274D+00 -0.18139784D+00 -0.69465736D-01 -0.34368052D-05 -0.36874664D-04
 -0.13592695D-03 -0.39744244D-03 -0.47893747D-03  0.57693093D-03 -0.31474943D-02
  0.29524038D-03  0.68440848D-04  0.37319040D-12  0.36186916D-12  0.24411480D-12
 -0.13426047D-10 -0.13018750D-10 -0.87823716D-11  0.27614390D-02  0.26776669D-02
  0.18063383D-02  0.80460915D-13 -0.29901742D-11  0.61965317D-03  0.20055487D-14
  0.18616552D-12  0.77188333D-04 -0.90058459D-15  0.10398789D-12  0.74412093D-05
  0.28557740D-03 -0.50271158D-04 -0.23530625D-03  0.15335752D-14 -0.22065620D-13
 -0.15879417D-11  0.32279450D-04  0.15425616D-03 -0.18653561D-03  0.32869860D-14
  0.28515468D-13 -0.84809094D-12  0.24664087D-05  0.45661250D-04 -0.48127659D-04
 -0.26273017D-14  0.78943739D-14 -0.26969699D-12 -0.13712315D-13 -0.22987906D-12
 -0.29156114D-03  0.37593182D-13  0.52165680D-12  0.43149911D-03  0.35437619D-14
  0.16798038D-12  0.44318432D-03 -0.13141311D-14  0.28412585D-14  0.57637890D-14
  0.79503359D-04  0.60984092D-14 -0.22114008D-12 -0.39822369D-04 -0.14622185D-13
  0.20384871D-12 -0.19868771D-03  0.56236617D-14
MO    2     MO 0.0        OCC NO =    2.0000158  ORB. ENERGY =    0.000000
  0.53312850D-09  0.99385893D-09  0.16797570D-08  0.25249881D-08  0.31014956D-08
  0.26175529D-08  0.98426823D-09  0.12419374D-12  0.92827125D-12  0.34691616D-11
  0.96784208D-11  0.12966415D-10 -0.15310919D-10  0.40995854D-10 -0.79000596D-11
 -0.12022953D-11 -0.11188583D-13 -0.10490008D-13 -0.74695103D-14 -0.58460558D-02
 -0.54810489D-02 -0.39028333D-02  0.14949367D-10  0.14015982D-10  0.99802139D-11
  0.66830199D-14 -0.19746448D-02  0.83543773D-11  0.57205640D-15 -0.45257953D-03
  0.15053772D-11 -0.22467849D-15  0.16156042D-04  0.18818028D-13 -0.38622088D-12
 -0.22070685D-11  0.25932894D-11  0.15358601D-12  0.52601145D-14  0.14552770D-02
  0.13810539D-11 -0.13706146D-11 -0.10439290D-13  0.13506710D-12  0.74961452D-14
  0.62723220D-03  0.12267767D-12 -0.86765929D-13 -0.35911745D-13 -0.27156021D-14
  0.10680179D-14  0.13323033D-03 -0.25818996D-15  0.55435170D-04  0.55332226D-12
 -0.12201959D-14 -0.14627511D-03 -0.79003415D-12  0.19947658D-14 -0.20030401D-04
 -0.86993264D-12  0.96231332D-14 -0.33462039D-15 -0.45932593D-04 -0.61593654D-13
  0.83915468D-16  0.95104696D-05  0.34544931D-13  0.91994571D-15  0.12828731D-03
  0.15023603D-12 -0.28263187D-13  0.31197116D-01  0.58686473D-01  0.10158928D+00
  0.16652434D+00  0.26086292D+00  0.39209819D+00  0.56040049D+00  0.74393043D+00
  0.86636073D+00  0.79565210D+00  0.46511090D+00  0.12204239D+00  0.69387876D-02
  0.12107438D-03  0.12187514D-04  0.14800104D-02  0.42754088D-02  0.19595203D-01
  0.58006069D-01  0.16821929D+00  0.34965933D+00  0.50019182D+00  0.14342097D+00
 -0.57312941D+00 -0.55416069D+00 -0.12095404D+00  0.17507732D-02  0.90059871D-03
  0.42014793D-02  0.85265904D-02  0.33417191D-01  0.23449634D-01 -0.15271289D+00
 -0.47320482D+00 -0.57883547D-01  0.41365283D+00  0.19412726D+00  0.98194377D-06
  0.13461670D-05 -0.25809277D-05 -0.54853200D-05  0.20736045D-04  0.67055101D-04
  0.23320744D-04 -0.22810228D-03 -0.50878632D-03  0.33761512D-03  0.80828246D-02
 -0.40018435D-03  0.28415871D-04  0.42739753D-08  0.61325166D-08  0.81200187D-08
  0.93772082D-08  0.86944404D-08  0.56304029D-08  0.19867395D-08  0.22891979D-09
 -0.37398461D-12 -0.11512248D+02 -0.16518358D+02 -0.21871832D+02 -0.25258159D+02
 -0.23419077D+02 -0.15165880D+02 -0.53514203D+01 -0.61661130D+00  0.10073534D-02
 -0.68608537D+01 -0.98443009D+01 -0.13034764D+02 -0.15052884D+02 -0.13956862D+02
 -0.90382765D+01 -0.31892391D+01 -0.36747643D+00  0.60034360D-03 -0.45546781D-10
  0.12986199D-09  0.63387306D-09  0.13135055D-08  0.16483198D-08  0.26139387D-09
 -0.21158950D-08 -0.18453673D-08 -0.47437911D-09  0.68960423D-01 -0.19661845D+00
 -0.95971994D+00 -0.19887222D+01 -0.24956501D+01 -0.39576522D+00  0.32035857D+01
  0.27939912D+01  0.71823702D+00  0.41036062D-01 -0.11700112D+00 -0.57109753D+00
 -0.11834227D+01 -0.14850786D+01 -0.23550676D+00  0.19063477D+01  0.16626116D+01
  0.42739904D+00  0.78528346D-13  0.11094005D-12 -0.51619825D-13  0.10344662D-12
  0.11356123D-12  0.30653735D-12  0.96598019D-13 -0.20739800D-12  0.78337617D-04
  0.11067060D-03 -0.51494451D-04  0.10319537D-03  0.11328541D-03  0.30579284D-03
  0.96363403D-04 -0.20689427D-03  0.10396628D-03  0.14687721D-03 -0.68341199D-04
  0.13695641D-03  0.15034748D-03  0.40583497D-03  0.12788932D-03 -0.27458109D-03
 -0.15785896D-10  0.25437291D-01  0.15206846D-01 -0.16271280D-12  0.98679769D-04
  0.18074400D-04  0.36399418D-14 -0.16840618D-05  0.14101154D-06 -0.11590881D+01
 -0.12128608D+01 -0.10334224D+01 -0.68058675D+00 -0.31366217D+00 -0.93926644D-01
 -0.15980822D-01  0.14146611D+01  0.14802904D+01  0.12612866D+01  0.83065259D+00
  0.38282305D+00  0.11463698D+00  0.19504511D-01 -0.25557292D+00 -0.26742952D+00
 -0.22786426D+00 -0.15006584D+00 -0.69160880D-01 -0.20710337D-01 -0.35236883D-02
 -0.23918532D-09 -0.25028167D-09 -0.21325338D-09 -0.14044347D-09 -0.64726215D-10
 -0.19382370D-10 -0.32977459D-11 -0.11340628D-09 -0.11866746D-09 -0.10111102D-09
 -0.66589253D-10 -0.30689004D-10 -0.91898720D-11 -0.15635788D-11  0.42108199D+01
  0.44061693D+01  0.37542921D+01  0.24724851D+01  0.11394948D+01  0.34122356D+00
  0.58056296D-01 -0.11867001D-02  0.13742722D-02 -0.18757207D-03 -0.26854866D-12
 -0.14901941D-12  0.40808234D-02  0.68689344D-04 -0.35342910D-04 -0.33346434D-04
  0.21935842D-13  0.12094000D-13 -0.17575980D-03 -0.38732939D-05  0.29594020D-05
  0.91389186D-06 -0.38299404D-14 -0.21729054D-14 -0.18953578D-04  0.30686003D-13
  0.40035858D-04 -0.11327846D-03 -0.85787760D-13 -0.23459501D-03 -0.14319167D-03
 -0.62702498D-14  0.11448744D-03  0.48302706D-03 -0.17479257D-12 -0.41561717D-14
  0.30680162D-05  0.20656902D-04  0.11279994D-13  0.40954329D-04  0.31487417D-04
  0.11885207D-14 -0.50158378D-04 -0.93458124D-04  0.24084941D-13 -0.31197116D-01
 -0.58686474D-01 -0.10158928D+00 -0.16652434D+00 -0.26086292D+00 -0.39209819D+00
 -0.56040050D+00 -0.74393044D+00 -0.86636074D+00 -0.79565211D+00 -0.46511090D+00
 -0.12204239D+00 -0.69387877D-02 -0.12107438D-03 -0.12187514D-04 -0.14800104D-02
 -0.42754089D-02 -0.19595203D-01 -0.58006069D-01 -0.16821929D+00 -0.34965933D+00
 -0.50019183D+00 -0.14342097D+00  0.57312941D+00  0.55416069D+00  0.12095404D+00
 -0.17507732D-02 -0.90059872D-03 -0.42014793D-02 -0.85265905D-02 -0.33417191D-01
 -0.23449634D-01  0.15271289D+00  0.47320483D+00  0.57883548D-01 -0.41365284D+00
 -0.19412726D+00 -0.98194378D-06 -0.13461670D-05  0.25809277D-05  0.54853201D-05
 -0.20736045D-04 -0.67055101D-04 -0.23320744D-04  0.22810228D-03  0.50878633D-03
 -0.33761512D-03 -0.80828247D-02  0.40018436D-03 -0.28415869D-04 -0.12881749D-07
 -0.18483387D-07 -0.24473713D-07 -0.28262879D-07 -0.26205018D-07 -0.16970018D-07
 -0.59880271D-08 -0.68996360D-09  0.11271885D-11 -0.11512248D+02 -0.16518358D+02
 -0.21871832D+02 -0.25258159D+02 -0.23419077D+02 -0.15165880D+02 -0.53514203D+01
 -0.61661130D+00  0.10073534D-02  0.68608537D+01  0.98443010D+01  0.13034764D+02
  0.15052884D+02  0.13956862D+02  0.90382766D+01  0.31892391D+01  0.36747644D+00
 -0.60034360D-03  0.45272578D-10 -0.12908019D-09 -0.63005699D-09 -0.13055979D-08