 Entering Gaussian System, Link 0=/home/bruns/programas/chemistry/gaussian/g09/g09
 Input=GAUSSIAN.com
 Output=GAUSSIAN.log
 Initial command:
 /home/bruns/programas/chemistry/gaussian/g09/l1.exe /home/bruns/programas/chemistry/gaussian/work/Gau-74415.inp -scrdir=/home/bruns/programas/chemistry/gaussian/work/
 Entering Link 1 = /home/bruns/programas/chemistry/gaussian/g09/l1.exe PID=     74417.
  
 Copyright (c) 1988,1990,1992,1993,1995,1998,2003,2009,2010,
            Gaussian, Inc.  All Rights Reserved.
  
 This is part of the Gaussian(R) 09 program.  It is based on
 the Gaussian(R) 03 system (copyright 2003, Gaussian, Inc.),
 the Gaussian(R) 98 system (copyright 1998, Gaussian, Inc.),
 the Gaussian(R) 94 system (copyright 1995, Gaussian, Inc.),
 the Gaussian 92(TM) system (copyright 1992, Gaussian, Inc.),
 the Gaussian 90(TM) system (copyright 1990, Gaussian, Inc.),
 the Gaussian 88(TM) system (copyright 1988, Gaussian, Inc.),
 the Gaussian 86(TM) system (copyright 1986, Carnegie Mellon
 University), and the Gaussian 82(TM) system (copyright 1983,
 Carnegie Mellon University). Gaussian is a federally registered
 trademark of Gaussian, Inc.
  
 This software contains proprietary and confidential information,
 including trade secrets, belonging to Gaussian, Inc.
  
 This software is provided under written license and may be
 used, copied, transmitted, or stored only in accord with that
 written license.
  
 The following legend is applicable only to US Government
 contracts under FAR:
  
                    RESTRICTED RIGHTS LEGEND
  
 Use, reproduction and disclosure by the US Government is
 subject to restrictions as set forth in subparagraphs (a)
 and (c) of the Commercial Computer Software - Restricted
 Rights clause in FAR 52.227-19.
  
 Gaussian, Inc.
 340 Quinnipiac St., Bldg. 40, Wallingford CT 06492
  
  
 ---------------------------------------------------------------
 Warning -- This program may not be used in any manner that
 competes with the business of Gaussian, Inc. or will provide
 assistance to any competitor of Gaussian, Inc.  The licensee
 of this program is prohibited from giving any competitor of
 Gaussian, Inc. access to this program.  By using this program,
 the user acknowledges that Gaussian, Inc. is engaged in the
 business of creating and licensing software in the field of
 computational chemistry and represents and warrants to the
 licensee that it is not a competitor of Gaussian, Inc. and that
 it will not use this program in any manner prohibited above.
 ---------------------------------------------------------------
  

 Cite this work as:
 Gaussian 09, Revision B.01,
 M. J. Frisch, G. W. Trucks, H. B. Schlegel, G. E. Scuseria, 
 M. A. Robb, J. R. Cheeseman, G. Scalmani, V. Barone, B. Mennucci, 
 G. A. Petersson, H. Nakatsuji, M. Caricato, X. Li, H. P. Hratchian, 
 A. F. Izmaylov, J. Bloino, G. Zheng, J. L. Sonnenberg, M. Hada, 
 M. Ehara, K. Toyota, R. Fukuda, J. Hasegawa, M. Ishida, T. Nakajima, 
 Y. Honda, O. Kitao, H. Nakai, T. Vreven, J. A. Montgomery, Jr., 
 J. E. Peralta, F. Ogliaro, M. Bearpark, J. J. Heyd, E. Brothers, 
 K. N. Kudin, V. N. Staroverov, T. Keith, R. Kobayashi, J. Normand, 
 K. Raghavachari, A. Rendell, J. C. Burant, S. S. Iyengar, J. Tomasi, 
 M. Cossi, N. Rega, J. M. Millam, M. Klene, J. E. Knox, J. B. Cross, 
 V. Bakken, C. Adamo, J. Jaramillo, R. Gomperts, R. E. Stratmann, 
 O. Yazyev, A. J. Austin, R. Cammi, C. Pomelli, J. W. Ochterski, 
 R. L. Martin, K. Morokuma, V. G. Zakrzewski, G. A. Voth, 
 P. Salvador, J. J. Dannenberg, S. Dapprich, A. D. Daniels, 
 O. Farkas, J. B. Foresman, J. V. Ortiz, J. Cioslowski, 
 and D. J. Fox, Gaussian, Inc., Wallingford CT, 2010.
 
 ******************************************
 Gaussian 09:  EM64L-G09RevB.01 12-Aug-2010
                28-Nov-2021 
 ******************************************
 %nproc=8
 Will use up to    8 processors via shared memory.
 %mem=8GB
 -----------------------------------------------------
 # qcisd/aug-cc-pvtz nosymm density=current output=wfn
 -----------------------------------------------------
 1/30=1,38=1/1;
 2/12=2,15=1,17=6,18=5,40=1/2;
 3/5=16,6=1,7=10,11=9,16=1,25=1,30=1,71=1/1,2,3;
 4//1;
 5/5=2,38=5/2;
 8/6=4,9=120000,10=1/1,4;
 9/5=8,15=1/13;
 11/28=-7,31=1,32=3,42=3/11;
 10/5=6,13=10,31=1/2;
 6/7=2,8=2,9=2,10=2,22=-1,31=1/1;
 99/5=1,6=1100,9=1/99;
 ------------------
 br2co-wavefunction
 ------------------
 Symbolic Z-matrix:
 Charge =  0 Multiplicity = 1
 C                     0.        0.       -0.49176 
 Br                    0.       -1.60418  -1.54682 
 Br                    0.        1.59418  -1.54682 
 O                     0.        0.        0.6845 
 
                          Input orientation:                          
 ---------------------------------------------------------------------
 Center     Atomic      Atomic             Coordinates (Angstroms)
 Number     Number       Type             X           Y           Z
 ---------------------------------------------------------------------
      1          6           0        0.000000    0.000000   -0.491759
      2         35           0        0.000000   -1.604181   -1.546820
      3         35           0        0.000000    1.594181   -1.546820
      4          8           0        0.000000    0.000000    0.684500
 ---------------------------------------------------------------------
                    Distance matrix (angstroms):
                    1          2          3          4
     1  C    0.000000
     2  Br   1.920039   0.000000
     3  Br   1.911692   3.198362   0.000000
     4  O    1.176259   2.748124   2.742299   0.000000
 Symmetry turned off by external request.
 Stoichiometry    CBr2O
 Framework group  CS[SG(CBr2O)]
 Deg. of freedom     5
 Full point group                 CS      NOp   2
 Rotational constants (GHZ):      6.2847951      1.2520257      1.0440377
 Standard basis: Aug-CC-pVTZ (5D, 7F)
 Integral buffers will be    131072 words long.
 Raffenetti 1 integral format.
 Two-electron integral symmetry is turned off.
   210 basis functions,   578 primitive gaussians,   248 cartesian basis functions
    42 alpha electrons       42 beta electrons
       nuclear repulsion energy       448.2293916174 Hartrees.
 NAtoms=    4 NActive=    4 NUniq=    4 SFac= 1.00D+00 NAtFMM=   50 NAOKFM=F Big=F
 One-electron integrals computed using PRISM.
 NBasis=   210 RedAO= T  NBF=   210
 NBsUse=   210 1.00D-06 NBFU=   210
 Harris functional with IExCor=  205 diagonalized for initial guess.
 ExpMin= 3.51D-02 ExpMax= 1.06D+07 ExpMxC= 1.21D+04 IAcc=3 IRadAn=         0 AccDes= 0.00D+00
 HarFok:  IExCor=  205 AccDes= 0.00D+00 IRadAn=         0 IDoV= 1
 ScaDFX=  1.000000  1.000000  1.000000  1.000000
 FoFCou: FMM=F IPFlag=           0 FMFlag=      100000 FMFlg1=           0
         NFxFlg=           0 DoJE=T BraDBF=F KetDBF=T FulRan=T
         Omega=  0.000000  0.000000  1.000000  0.000000  0.000000 ICntrl=     500 IOpCl=  0
         NMat0=    1 NMatS0=    1 NMatT0=    0 NMatD0=    1 NMtDS0=    0 NMtDT0=    0
         I1Cent=           4 NGrid=           0.
 Symmetry not used in FoFCou.
 Requested convergence on RMS density matrix=1.00D-08 within 128 cycles.
 Requested convergence on MAX density matrix=1.00D-06.
 Requested convergence on             energy=1.00D-06.
 No special actions if energy rises.
 Keep R1 ints in memory in canonical form, NReq=484604278.
 SCF Done:  E(RHF) =  -5257.68449832     A.U. after   12 cycles
             Convg  =    0.9243D-08             -V/T =  2.0000
 ExpMin= 3.51D-02 ExpMax= 1.06D+07 ExpMxC= 1.21D+04 IAcc=3 IRadAn=         5 AccDes= 0.00D+00
 HarFok:  IExCor=  205 AccDes= 0.00D+00 IRadAn=         5 IDoV=-2
 ScaDFX=  1.000000  1.000000  1.000000  1.000000
 DSYEVD returned Info=          93 IAlg= 4 N=    46 NDim=    46 NE2=    18196533 trying DSYEV.
 Range of M.O.s used for correlation:    21   210
 NBasis=   210 NAE=    42 NBE=    42 NFC=    20 NFV=     0
 NROrb=    190 NOA=    22 NOB=    22 NVA=   168 NVB=   168

 **** Warning!!: The largest alpha MO coefficient is  0.28065594D+02

 Semi-Direct transformation.
 ModeAB=           2 MOrb=            22 LenV=    1072497347
 LASXX=     69628944 LTotXX=    69628944 LenRXX=    69628944
 LTotAB=    70719517 MaxLAS=   129061680 LenRXY=   129061680
 NonZer=   139257888 LenScr=   209707008 LnRSAI=           0
 LnScr1=           0 LExtra=           0 Total=    408397632
 MaxDsk=          -1 SrtSym=           F ITran=            4
 JobTyp=0 Pass  1:  I=   1 to  22.
 (rs|ai) integrals will be sorted in core.
 Spin components of T(2) and E(2):
     alpha-alpha T2 =       0.3834105208D-01 E2=     -0.1232453293D+00
     alpha-beta  T2 =       0.1927029500D+00 E2=     -0.6175576074D+00
     beta-beta   T2 =       0.3834105208D-01 E2=     -0.1232453293D+00
 ANorm=    0.1126669896D+01
 E2 =    -0.8640482660D+00 EUMP2 =    -0.52585485465843D+04
 R2 and R3 integrals will be kept in memory, NReq=   961077252.
 Iterations=  50 Convergence= 0.100D-07
 Iteration Nr.   1
 **********************
 DD1Dir will call FoFMem   1 times, MxPair=       506
 NAB=   253 NAA=     0 NBB=     0.
 MP4(R+Q)=  0.21510103D-01
 E3=        0.11618995D-03        EUMP3=      -0.52585484304D+04
 E4(DQ)=    0.26756702D-03        UMP4(DQ)=   -0.52585481628D+04
 E4(SDQ)=  -0.11721152D-01        UMP4(SDQ)=  -0.52585601515D+04
 DE(Corr)= -0.84242197     E(Corr)=     -5258.5269203    
 NORM(A)=   0.11249726D+01
 Iteration Nr.   2
 **********************
 DD1Dir will call FoFMem   1 times, MxPair=       506
 NAB=   253 NAA=     0 NBB=     0.
 DE(Corr)= -0.87236367     E(CORR)=     -5258.5568620     Delta=-2.99D-02
 NORM(A)=   0.11353999D+01
 Iteration Nr.   3
 **********************
 DD1Dir will call FoFMem   1 times, MxPair=       506
 NAB=   253 NAA=     0 NBB=     0.
 DE(Corr)= -0.87025084     E(CORR)=     -5258.5547492     Delta= 2.11D-03
 NORM(A)=   0.11381754D+01
 Iteration Nr.   4
 **********************
 DD1Dir will call FoFMem   1 times, MxPair=       506
 NAB=   253 NAA=     0 NBB=     0.
 DE(Corr)= -0.87279048     E(CORR)=     -5258.5572888     Delta=-2.54D-03
 NORM(A)=   0.11394949D+01
 Iteration Nr.   5
 **********************
 DD1Dir will call FoFMem   1 times, MxPair=       506
 NAB=   253 NAA=     0 NBB=     0.
 DE(Corr)= -0.87316661     E(CORR)=     -5258.5576649     Delta=-3.76D-04
 NORM(A)=   0.11400133D+01
 Iteration Nr.   6
 **********************
 DD1Dir will call FoFMem   1 times, MxPair=       506
 NAB=   253 NAA=     0 NBB=     0.
 DE(Corr)= -0.87323129     E(CORR)=     -5258.5577296     Delta=-6.47D-05
 NORM(A)=   0.11401182D+01
 Iteration Nr.   7
 **********************
 DD1Dir will call FoFMem   1 times, MxPair=       506
 NAB=   253 NAA=     0 NBB=     0.
 DE(Corr)= -0.87324572     E(CORR)=     -5258.5577440     Delta=-1.44D-05
 NORM(A)=   0.11401273D+01
 Iteration Nr.   8
 **********************
 DD1Dir will call FoFMem   1 times, MxPair=       506
 NAB=   253 NAA=     0 NBB=     0.
 DE(Corr)= -0.87324605     E(CORR)=     -5258.5577444     Delta=-3.28D-07
 NORM(A)=   0.11401425D+01
 Iteration Nr.   9
 **********************
 DD1Dir will call FoFMem   1 times, MxPair=       506
 NAB=   253 NAA=     0 NBB=     0.
 DE(Corr)= -0.87324413     E(CORR)=     -5258.5577424     Delta= 1.92D-06
 NORM(A)=   0.11401425D+01
 Iteration Nr.  10
 **********************
 DD1Dir will call FoFMem   1 times, MxPair=       506
 NAB=   253 NAA=     0 NBB=     0.
 DE(Corr)= -0.87324554     E(CORR)=     -5258.5577439     Delta=-1.41D-06
 NORM(A)=   0.11401453D+01
 Iteration Nr.  11
 **********************
 DD1Dir will call FoFMem   1 times, MxPair=       506
 NAB=   253 NAA=     0 NBB=     0.
 DE(Corr)= -0.87324669     E(CORR)=     -5258.5577450     Delta=-1.15D-06
 NORM(A)=   0.11401471D+01
 Iteration Nr.  12
 **********************
 DD1Dir will call FoFMem   1 times, MxPair=       506
 NAB=   253 NAA=     0 NBB=     0.
 DE(Corr)= -0.87324700     E(CORR)=     -5258.5577453     Delta=-3.15D-07
 NORM(A)=   0.11401481D+01
 Iteration Nr.  13
 **********************
 DD1Dir will call FoFMem   1 times, MxPair=       506
 NAB=   253 NAA=     0 NBB=     0.
 DE(Corr)= -0.87324748     E(CORR)=     -5258.5577458     Delta=-4.74D-07
 NORM(A)=   0.11401488D+01
 Iteration Nr.  14
 **********************
 DD1Dir will call FoFMem   1 times, MxPair=       506
 NAB=   253 NAA=     0 NBB=     0.
 DE(Corr)= -0.87324759     E(CORR)=     -5258.5577459     Delta=-1.09D-07
 NORM(A)=   0.11401492D+01
 Iteration Nr.  15
 **********************
 DD1Dir will call FoFMem   1 times, MxPair=       506
 NAB=   253 NAA=     0 NBB=     0.
 DE(Corr)= -0.87324766     E(CORR)=     -5258.5577460     Delta=-7.07D-08
 NORM(A)=   0.11401493D+01
 Iteration Nr.  16
 **********************
 DD1Dir will call FoFMem   1 times, MxPair=       506
 NAB=   253 NAA=     0 NBB=     0.
 DE(Corr)= -0.87324769     E(CORR)=     -5258.5577460     Delta=-3.05D-08
 NORM(A)=   0.11401494D+01
 Iteration Nr.  17
 **********************
 DD1Dir will call FoFMem   1 times, MxPair=       506
 NAB=   253 NAA=     0 NBB=     0.
 DE(Corr)= -0.87324768     E(CORR)=     -5258.5577460     Delta= 3.43D-09
 NORM(A)=   0.11401494D+01
 Iteration Nr.  18
 **********************
 DD1Dir will call FoFMem   1 times, MxPair=       506
 NAB=   253 NAA=     0 NBB=     0.
 DE(Corr)= -0.87324769     E(CORR)=     -5258.5577460     Delta=-3.54D-09
 NORM(A)=   0.11401494D+01
 Iteration Nr.  19
 **********************
 DD1Dir will call FoFMem   1 times, MxPair=       506
 NAB=   253 NAA=     0 NBB=     0.
 DE(Corr)= -0.87324769     E(CORR)=     -5258.5577460     Delta= 5.71D-11
 NORM(A)=   0.11401494D+01
 Iteration Nr.  20
 **********************
 DD1Dir will call FoFMem   1 times, MxPair=       506
 NAB=   253 NAA=     0 NBB=     0.
 DE(Corr)= -0.87324769     E(CORR)=     -5258.5577460     Delta=-2.88D-09
 NORM(A)=   0.11401495D+01
 Iteration Nr.  21
 **********************
 DD1Dir will call FoFMem   1 times, MxPair=       506
 NAB=   253 NAA=     0 NBB=     0.
 DE(Corr)= -0.87324770     E(CORR)=     -5258.5577460     Delta=-5.74D-09
 NORM(A)=   0.11401493D+01
 Iteration Nr.  22
 **********************
 DD1Dir will call FoFMem   1 times, MxPair=       506
 NAB=   253 NAA=     0 NBB=     0.
 DE(Corr)= -0.87324768     E(CORR)=     -5258.5577460     Delta= 1.21D-08
 NORM(A)=   0.11401494D+01
 Iteration Nr.  23
 **********************
 DD1Dir will call FoFMem   1 times, MxPair=       506
 NAB=   253 NAA=     0 NBB=     0.
 DE(Corr)= -0.87324769     E(CORR)=     -5258.5577460     Delta=-5.40D-09
 NORM(A)=   0.11401494D+01
 Largest amplitude= 4.29D-02

 Z-AMPLITUDE ITERATIONS

 Iteration Nr.   1
 **********************
 DD1Dir will call FoFMem   1 times, MxPair=       506
 NAB=   253 NAA=     0 NBB=     0.
 DE(Z)  -0.84602022D+00          E(Z)=    -0.52585305185D+04
 NORM(A)=   0.11401007D+01
 Iteration Nr.   2
 **********************
 DD1Dir will call FoFMem   1 times, MxPair=       506
 NAB=   253 NAA=     0 NBB=     0.
 DE(Z)  -0.84602015D+00          E(Z)=    -0.52585305185D+04
 NORM(A)=   0.11400027D+01
 Iteration Nr.   3
 **********************
 DD1Dir will call FoFMem   1 times, MxPair=       506
 NAB=   253 NAA=     0 NBB=     0.
 DE(Z)  -0.84602005D+00          E(Z)=    -0.52585305184D+04
 NORM(A)=   0.11399646D+01
 Iteration Nr.   4
 **********************
 DD1Dir will call FoFMem   1 times, MxPair=       506
 NAB=   253 NAA=     0 NBB=     0.
 DE(Z)  -0.84602006D+00          E(Z)=    -0.52585305184D+04
 NORM(A)=   0.10815773D+01
 Iteration Nr.   5
 **********************
 DD1Dir will call FoFMem   1 times, MxPair=       506
 NAB=   253 NAA=     0 NBB=     0.
 DE(Z)  -0.84575888D+00          E(Z)=    -0.52585302572D+04
 NORM(A)=   0.11302616D+01
 Iteration Nr.   6
 **********************
 DD1Dir will call FoFMem   1 times, MxPair=       506
 NAB=   253 NAA=     0 NBB=     0.
 DE(Z)  -0.84599208D+00          E(Z)=    -0.52585304904D+04
 NORM(A)=   0.11302635D+01
 Iteration Nr.   7
 **********************
 DD1Dir will call FoFMem   1 times, MxPair=       506
 NAB=   253 NAA=     0 NBB=     0.
 DE(Z)  -0.84598850D+00          E(Z)=    -0.52585304868D+04
 NORM(A)=   0.11302623D+01
 Iteration Nr.   8
 **********************
 DD1Dir will call FoFMem   1 times, MxPair=       506
 NAB=   253 NAA=     0 NBB=     0.
 DE(Z)  -0.84599004D+00          E(Z)=    -0.52585304884D+04
 NORM(A)=   0.11302628D+01
 Iteration Nr.   9
 **********************
 DD1Dir will call FoFMem   1 times, MxPair=       506
 NAB=   253 NAA=     0 NBB=     0.
 DE(Z)  -0.84599004D+00          E(Z)=    -0.52585304884D+04
 NORM(A)=   0.11302630D+01
 Iteration Nr.  10
 **********************
 DD1Dir will call FoFMem   1 times, MxPair=       506
 NAB=   253 NAA=     0 NBB=     0.
 DE(Z)  -0.84598992D+00          E(Z)=    -0.52585304882D+04
 NORM(A)=   0.11302632D+01
 Iteration Nr.  11
 **********************
 DD1Dir will call FoFMem   1 times, MxPair=       506
 NAB=   253 NAA=     0 NBB=     0.
 DE(Z)  -0.84599000D+00          E(Z)=    -0.52585304883D+04
 NORM(A)=   0.11302632D+01
 Iteration Nr.  12
 **********************
 DD1Dir will call FoFMem   1 times, MxPair=       506
 NAB=   253 NAA=     0 NBB=     0.
 DE(Z)  -0.84599000D+00          E(Z)=    -0.52585304883D+04
 NORM(A)=   0.11302632D+01
 Iteration Nr.  13
 **********************
 DD1Dir will call FoFMem   1 times, MxPair=       506
 NAB=   253 NAA=     0 NBB=     0.
 DE(Z)  -0.84599001D+00          E(Z)=    -0.52585304883D+04
 NORM(A)=   0.11302632D+01
 Iteration Nr.  14
 **********************
 DD1Dir will call FoFMem   1 times, MxPair=       506
 NAB=   253 NAA=     0 NBB=     0.
 DE(Z)  -0.84599001D+00          E(Z)=    -0.52585304883D+04
 NORM(A)=   0.11302632D+01
 Discarding MO integrals.
          Differentiating once with respect to electric field.
                with respect to dipole field.
          Electric field/nuclear overlap derivatives assumed to be zero.
          Keep R1 ints in memory in canonical form, NReq=478620341.
          There are     1 degrees of freedom in the 1st order CPHF.  IDoFFX=0.
 LinEq1:  Iter=  0 NonCon=     1 RMS=1.95D-03 Max=5.62D-02
 AX will form     1 AO Fock derivatives at one time.
 LinEq1:  Iter=  1 NonCon=     1 RMS=7.42D-04 Max=2.60D-02
 LinEq1:  Iter=  2 NonCon=     1 RMS=3.10D-04 Max=9.39D-03
 LinEq1:  Iter=  3 NonCon=     1 RMS=1.03D-04 Max=2.99D-03
 LinEq1:  Iter=  4 NonCon=     1 RMS=5.36D-05 Max=1.65D-03
 LinEq1:  Iter=  5 NonCon=     1 RMS=1.65D-05 Max=4.70D-04
 LinEq1:  Iter=  6 NonCon=     1 RMS=6.31D-06 Max=1.31D-04
 LinEq1:  Iter=  7 NonCon=     1 RMS=1.35D-06 Max=2.12D-05
 LinEq1:  Iter=  8 NonCon=     1 RMS=2.69D-07 Max=4.28D-06
 LinEq1:  Iter=  9 NonCon=     1 RMS=6.48D-08 Max=1.21D-06
 LinEq1:  Iter= 10 NonCon=     1 RMS=1.38D-08 Max=2.12D-07
 LinEq1:  Iter= 11 NonCon=     1 RMS=3.91D-09 Max=9.83D-08
 LinEq1:  Iter= 12 NonCon=     1 RMS=7.24D-10 Max=1.62D-08
 LinEq1:  Iter= 13 NonCon=     1 RMS=1.25D-10 Max=2.68D-09
 LinEq1:  Iter= 14 NonCon=     0 RMS=2.82D-11 Max=5.61D-10
 Linear equations converged to 1.000D-10 1.000D-09 after    14 iterations.
 End of Minotr Frequency-dependent properties file   721 does not exist.
 End of Minotr Frequency-dependent properties file   722 does not exist.

 **********************************************************************

            Population analysis using the QCI/CC density.

 **********************************************************************

     Natural Orbital Coefficients:
                           1         2         3         4         5
     Eigenvalues --     2.00002   2.00002   2.00001   2.00001   2.00001
   1 1   C  1S          0.36502  -0.07482  -0.00973  -0.22965  -0.00483
   2        2S         -0.00990   0.00195   0.00008   0.00248   0.00006
   3        3S          0.01414  -0.00293  -0.00041  -0.00957  -0.00020
   4        4S         -0.01271   0.00251   0.00020   0.00305  -0.00021
   5        5S         -0.00440   0.00089  -0.00015  -0.00269  -0.00010
   6        6PX         0.00000   0.00000   0.00000   0.00000   0.00000
   7        6PY        -0.00053  -0.00260  -0.00001  -0.00002  -0.00022
   8        6PZ         0.00164  -0.00030   0.00001   0.00013   0.00001
   9        7PX         0.00000   0.00000   0.00000   0.00000   0.00000
  10        7PY        -0.00092  -0.00448  -0.00023  -0.00001  -0.00041
  11        7PZ         0.00452  -0.00087  -0.00003  -0.00083  -0.00001
  12        8PX         0.00000   0.00000   0.00000   0.00000   0.00000
  13        8PY        -0.00086  -0.00443   0.00124  -0.00009  -0.00546
  14        8PZ         0.00370  -0.00073  -0.00006  -0.00072   0.00034
  15        9PX         0.00000   0.00000   0.00000   0.00000   0.00000
  16        9PY         0.00015   0.00071  -0.00166   0.00010  -0.00171
  17        9PZ         0.00022  -0.00004   0.00003   0.00050   0.00001
  18       10D 0        0.00030  -0.00006  -0.00001  -0.00019  -0.00001
  19       10D+1        0.00000   0.00000   0.00000   0.00000   0.00000
  20       10D-1        0.00009   0.00042   0.00008   0.00000  -0.00004
  21       10D+2        0.00012  -0.00002   0.00001   0.00016   0.00000
  22       10D-2        0.00000   0.00000   0.00000   0.00000   0.00000
  23       11D 0       -0.00006   0.00002   0.00001   0.00009  -0.00002
  24       11D+1        0.00000   0.00000   0.00000   0.00000   0.00000
  25       11D-1        0.00033   0.00160  -0.00028   0.00002  -0.00033
  26       11D+2        0.00169  -0.00034  -0.00003  -0.00052  -0.00001
  27       11D-2        0.00000   0.00000   0.00000   0.00000   0.00000
  28       12D 0       -0.00039   0.00008   0.00001   0.00014  -0.00001
  29       12D+1        0.00000   0.00000   0.00000   0.00000   0.00000
  30       12D-1        0.00052   0.00260  -0.00133   0.00009   0.00129
  31       12D+2        0.00097  -0.00020  -0.00001  -0.00009   0.00002
  32       12D-2        0.00000   0.00000   0.00000   0.00000   0.00000
  33       13F 0        0.00015  -0.00003  -0.00001  -0.00015  -0.00001
  34       13F+1        0.00000   0.00000   0.00000   0.00000   0.00000
  35       13F-1        0.00000  -0.00001  -0.00006   0.00000   0.00000
  36       13F+2        0.00001   0.00000   0.00000  -0.00004   0.00000
  37       13F-2        0.00000   0.00000   0.00000   0.00000   0.00000
  38       13F+3        0.00000   0.00000   0.00000   0.00000   0.00000
  39       13F-3       -0.00002  -0.00008   0.00003   0.00000  -0.00004
  40       14F 0       -0.00019   0.00004   0.00003   0.00053   0.00003
  41       14F+1        0.00000   0.00000   0.00000   0.00000   0.00000
  42       14F-1        0.00014   0.00066  -0.00003   0.00000  -0.00006
  43       14F+2       -0.00013   0.00003   0.00002   0.00040  -0.00002
  44       14F-2        0.00000   0.00000   0.00000   0.00000   0.00000
  45       14F+3        0.00000   0.00000   0.00000   0.00000   0.00000
  46       14F-3        0.00004   0.00023  -0.00012   0.00001   0.00028
  47 2   Br 1S         -0.03624   0.04861   0.07832  -0.08502  -0.00117
  48        2S          0.13420  -0.17998  -0.29170   0.31671   0.00444
  49        3S         -0.28322   0.37791   0.62905  -0.68340  -0.00958
  50        4S         -0.00090   0.00118   0.00184  -0.00231   0.00016
  51        5S         -0.01506   0.02014   0.03044  -0.03288  -0.00042
  52        6S          0.00290  -0.00323   0.00702  -0.00721  -0.00324
  53        7S          0.00221  -0.00005  -0.00256   0.00153  -0.00300
  54        8PX         0.00000   0.00000   0.00000   0.00000   0.00000
  55        8PY         0.14431  -0.25310   0.09416  -0.08850   0.14006
  56        8PZ         0.09014  -0.15047   0.04883  -0.07661  -0.23955
  57        9PX         0.00000   0.00000   0.00000   0.00000   0.00000
  58        9PY        -0.37500   0.66158  -0.26402   0.24740  -0.39622
  59        9PZ        -0.23500   0.39290  -0.13623   0.21483   0.67487
  60       10PX         0.00000   0.00000   0.00000   0.00000   0.00000
  61       10PY         0.00211  -0.00116   0.00006  -0.00078  -0.00121
  62       10PZ         0.00106  -0.00116   0.00017  -0.00029   0.00107
  63       11PX         0.00000   0.00000   0.00000   0.00000   0.00000
  64       11PY        -0.01779   0.03138  -0.01210   0.01126  -0.01761
  65       11PZ        -0.01126   0.01874  -0.00620   0.00980   0.03007
  66       12PX         0.00000   0.00000   0.00000   0.00000   0.00000
  67       12PY         0.00170   0.00088  -0.00133   0.00044  -0.00405
  68       12PZ         0.00076   0.00008  -0.00060   0.00065   0.00208
  69       13PX         0.00000   0.00000   0.00000   0.00000   0.00000
  70       13PY         0.00038  -0.00016  -0.00023   0.00022  -0.00019
  71       13PZ         0.00030  -0.00005  -0.00031   0.00008  -0.00063
  72       14D 0        0.00193  -0.00336   0.00107  -0.00208  -0.00834
  73       14D+1        0.00000   0.00000   0.00000   0.00000   0.00000
  74       14D-1       -0.01750   0.02988  -0.00515   0.00501  -0.00445
  75       14D+2        0.01060  -0.01834   0.00359  -0.00437  -0.00472
  76       14D-2        0.00000   0.00000   0.00000   0.00000   0.00000
  77       15D 0        0.00023  -0.00027   0.00006  -0.00015  -0.00051
  78       15D+1        0.00000   0.00000   0.00000   0.00000   0.00000
  79       15D-1       -0.00183   0.00296  -0.00027   0.00030  -0.00027
  80       15D+2        0.00124  -0.00189   0.00020  -0.00025  -0.00029
  81       15D-2        0.00000   0.00000   0.00000   0.00000   0.00000
  82       16D 0       -0.00001  -0.00020   0.00003  -0.00002  -0.00029
  83       16D+1        0.00000   0.00000   0.00000   0.00000   0.00000
  84       16D-1        0.00095  -0.00084  -0.00013  -0.00026  -0.00026
  85       16D+2       -0.00073   0.00053   0.00005   0.00007  -0.00012
  86       16D-2        0.00000   0.00000   0.00000   0.00000   0.00000
  87       17D 0       -0.00004   0.00004  -0.00006  -0.00003   0.00004
  88       17D+1        0.00000   0.00000   0.00000   0.00000   0.00000
  89       17D-1        0.00044  -0.00043  -0.00004  -0.00003  -0.00043
  90       17D+2       -0.00053  -0.00002   0.00021   0.00007   0.00030
  91       17D-2        0.00000   0.00000   0.00000   0.00000   0.00000
  92       18F 0        0.00017  -0.00033   0.00008  -0.00007   0.00004
  93       18F+1        0.00000   0.00000   0.00000   0.00000   0.00000
  94       18F-1       -0.00006   0.00013  -0.00002   0.00003   0.00035
  95       18F+2        0.00028  -0.00047   0.00010  -0.00009  -0.00002
  96       18F-2        0.00000   0.00000   0.00000   0.00000   0.00000
  97       18F+3        0.00000   0.00000   0.00000   0.00000   0.00000
  98       18F-3        0.00015  -0.00025   0.00003  -0.00004   0.00014
  99       19F 0       -0.00023   0.00035  -0.00006   0.00015  -0.00006
 100       19F+1        0.00000   0.00000   0.00000   0.00000   0.00000
 101       19F-1        0.00016  -0.00032   0.00001  -0.00010  -0.00034
 102       19F+2       -0.00053   0.00057  -0.00004   0.00019   0.00002
 103       19F-2        0.00000   0.00000   0.00000   0.00000   0.00000
 104       19F+3        0.00000   0.00000   0.00000   0.00000   0.00000
 105       19F-3       -0.00032   0.00023   0.00004   0.00005  -0.00017
 106 3   Br 1S         -0.05136  -0.03011  -0.08802  -0.07584   0.00196
 107        2S          0.19013   0.11146   0.32784   0.28249  -0.00740
 108        3S         -0.40031  -0.23323  -0.70699  -0.60950   0.01607
 109        4S         -0.00128  -0.00074  -0.00212  -0.00212  -0.00016
 110        5S         -0.02136  -0.01250  -0.03420  -0.02933   0.00072
 111        6S          0.00406   0.00197  -0.00784  -0.00636   0.00363
 112        7S          0.00207  -0.00081   0.00272   0.00123   0.00314
 113        8PX         0.00000   0.00000   0.00000   0.00000   0.00000
 114        8PY        -0.23120  -0.17967   0.10302   0.07427   0.12251
 115        8PZ         0.14274   0.10568  -0.05641  -0.06926   0.21520
 116        9PX         0.00000   0.00000   0.00000   0.00000   0.00000
 117        9PY         0.60215   0.47045  -0.28903  -0.20803  -0.34733
 118        9PZ        -0.37236  -0.27605   0.15767   0.19467  -0.60607
 119       10PX         0.00000   0.00000   0.00000   0.00000   0.00000
 120       10PY        -0.00239  -0.00025   0.00014   0.00077  -0.00123
 121       10PZ         0.00142   0.00067  -0.00020  -0.00026  -0.00091
 122       11PX         0.00000   0.00000   0.00000   0.00000   0.00000
 123       11PY         0.02858   0.02232  -0.01322  -0.00944  -0.01544
 124       11PZ        -0.01781  -0.01315   0.00718   0.00888  -0.02702
 125       12PX         0.00000   0.00000   0.00000   0.00000   0.00000
 126       12PY        -0.00126   0.00146  -0.00137  -0.00026  -0.00403
 127       12PZ         0.00068  -0.00035   0.00066   0.00057  -0.00169
 128       13PX         0.00000   0.00000   0.00000   0.00000   0.00000
 129       13PY        -0.00041   0.00000  -0.00025  -0.00020  -0.00022
 130       13PZ         0.00030  -0.00007   0.00032   0.00004   0.00064
 131       14D 0        0.00301   0.00232  -0.00125  -0.00189   0.00741
 132       14D+1        0.00000   0.00000   0.00000   0.00000   0.00000
 133       14D-1        0.02855   0.02162  -0.00578  -0.00424  -0.00357
 134       14D+2        0.01737   0.01331  -0.00412  -0.00385   0.00440
 135       14D-2        0.00000   0.00000   0.00000   0.00000   0.00000
 136       15D 0        0.00031   0.00016  -0.00007  -0.00014   0.00046
 137       15D+1        0.00000   0.00000   0.00000   0.00000   0.00000
 138       15D-1        0.00292   0.00210  -0.00031  -0.00025  -0.00022
 139       15D+2        0.00192   0.00131  -0.00022  -0.00022   0.00028
 140       15D-2        0.00000   0.00000   0.00000   0.00000   0.00000
 141       16D 0        0.00007   0.00020  -0.00003  -0.00001   0.00026
 142       16D+1        0.00000   0.00000   0.00000   0.00000   0.00000
 143       16D-1       -0.00121  -0.00040  -0.00010   0.00027  -0.00024
 144       16D+2       -0.00088  -0.00020  -0.00004   0.00007   0.00008
 145       16D-2        0.00000   0.00000   0.00000   0.00000   0.00000
 146       17D 0       -0.00005  -0.00002   0.00005  -0.00003  -0.00006
 147       17D+1        0.00000   0.00000   0.00000   0.00000   0.00000
 148       17D-1       -0.00058  -0.00024  -0.00003   0.00004  -0.00045
 149       17D+2       -0.00049   0.00022  -0.00020   0.00010  -0.00033
 150       17D-2        0.00000   0.00000   0.00000   0.00000   0.00000
 151       18F 0        0.00029   0.00024  -0.00009  -0.00005  -0.00004
 152       18F+1        0.00000   0.00000   0.00000   0.00000   0.00000
 153       18F-1        0.00011   0.00010  -0.00002  -0.00003   0.00032
 154       18F+2        0.00045   0.00034  -0.00010  -0.00008   0.00002
 155       18F-2        0.00000   0.00000   0.00000   0.00000   0.00000
 156       18F+3        0.00000   0.00000   0.00000   0.00000   0.00000
 157       18F-3       -0.00024  -0.00018   0.00003   0.00004   0.00013
 158       19F 0       -0.00035  -0.00023   0.00007   0.00014   0.00005
 159       19F+1        0.00000   0.00000   0.00000   0.00000   0.00000
 160       19F-1       -0.00028  -0.00024   0.00002   0.00010  -0.00029
 161       19F+2       -0.00072  -0.00033   0.00005   0.00018  -0.00002
 162       19F-2        0.00000   0.00000   0.00000   0.00000   0.00000
 163       19F+3        0.00000   0.00000   0.00000   0.00000   0.00000
 164       19F-3        0.00038   0.00010   0.00004  -0.00005  -0.00016
 165 4   O  1S         -0.06920   0.01528   0.00236   0.07170   0.00938
 166        2S          0.00100  -0.00023  -0.00006  -0.00160  -0.00018
 167        3S         -0.00289   0.00064   0.00010   0.00297   0.00040
 168        4S          0.00119  -0.00026  -0.00003  -0.00065  -0.00009
 169        5S          0.00065  -0.00014   0.00006   0.00104  -0.00011
 170        6PX         0.00000   0.00000   0.00000   0.00000   0.00000
 171        6PY         0.00012   0.00062  -0.00030   0.00002   0.00016
 172        6PZ         0.00056  -0.00013  -0.00002  -0.00050  -0.00004
 173        7PX         0.00000   0.00000   0.00000   0.00000   0.00000
 174        7PY         0.00014   0.00073  -0.00033   0.00003   0.00032
 175        7PZ         0.00066  -0.00014  -0.00002  -0.00047  -0.00001
 176        8PX         0.00000   0.00000   0.00000   0.00000   0.00000
 177        8PY        -0.00007  -0.00022   0.00010   0.00000   0.00110
 178        8PZ         0.00037  -0.00007  -0.00003  -0.00086  -0.00008
 179        9PX         0.00000   0.00000   0.00000   0.00000   0.00000
 180        9PY        -0.00014  -0.00069   0.00065  -0.00004   0.00017
 181        9PZ         0.00017  -0.00003  -0.00002  -0.00039   0.00004
 182       10D 0       -0.00003   0.00001   0.00000   0.00002   0.00000
 183       10D+1        0.00000   0.00000   0.00000   0.00000   0.00000
 184       10D-1        0.00001   0.00003   0.00002   0.00000   0.00001
 185       10D+2        0.00003  -0.00001   0.00000   0.00000   0.00000
 186       10D-2        0.00000   0.00000   0.00000   0.00000   0.00000
 187       11D 0       -0.00024   0.00005   0.00001   0.00016   0.00000
 188       11D+1        0.00000   0.00000   0.00000   0.00000   0.00000
 189       11D-1        0.00003   0.00015  -0.00010   0.00001  -0.00008
 190       11D+2       -0.00009   0.00002   0.00000  -0.00003   0.00000
 191       11D-2        0.00000   0.00000   0.00000   0.00000   0.00000
 192       12D 0       -0.00042   0.00008   0.00001   0.00029   0.00005
 193       12D+1        0.00000   0.00000   0.00000   0.00000   0.00000
 194       12D-1        0.00007   0.00029  -0.00009   0.00000  -0.00034
 195       12D+2       -0.00022   0.00004  -0.00001  -0.00012   0.00000
 196       12D-2        0.00000   0.00000   0.00000   0.00000   0.00000
 197       13F 0       -0.00009   0.00002   0.00000   0.00004   0.00000
 198       13F+1        0.00000   0.00000   0.00000   0.00000   0.00000
 199       13F-1        0.00000  -0.00001   0.00000   0.00000   0.00003
 200       13F+2        0.00000   0.00000   0.00000  -0.00001   0.00000
 201       13F-2        0.00000   0.00000   0.00000   0.00000   0.00000
 202       13F+3        0.00000   0.00000   0.00000   0.00000   0.00000
 203       13F-3        0.00000  -0.00002  -0.00001   0.00000  -0.00001
 204       14F 0        0.00025  -0.00005   0.00000  -0.00008  -0.00001
 205       14F+1        0.00000   0.00000   0.00000   0.00000   0.00000
 206       14F-1       -0.00001  -0.00006   0.00005   0.00000  -0.00003
 207       14F+2        0.00013  -0.00003   0.00000   0.00003   0.00000
 208       14F-2        0.00000   0.00000   0.00000   0.00000   0.00000
 209       14F+3        0.00000   0.00000   0.00000   0.00000   0.00000
 210       14F-3        0.00001   0.00005   0.00003   0.00000   0.00001
                           6         7         8         9        10
     Eigenvalues --     2.00001   2.00001   2.00001   2.00001   2.00000
   1 1   C  1S         -0.06655   0.00000   0.44197   0.00000   0.75547
   2        2S          0.00069   0.00000  -0.00524   0.00000  -0.00716
   3        3S         -0.00284   0.00000   0.01844   0.00000   0.03172
   4        4S         -0.00334   0.00000   0.00158   0.00000   0.00283
   5        5S         -0.00152   0.00000   0.00076   0.00000   0.00269
   6        6PX         0.00000   0.00000   0.00000   0.00062   0.00000
   7        6PY         0.00002   0.00000  -0.00001   0.00000   0.00000
   8        6PZ         0.00029   0.00000  -0.00086   0.00000  -0.00115
   9        7PX         0.00000   0.00001   0.00000   0.00103   0.00000
  10        7PY         0.00004   0.00000  -0.00002   0.00000  -0.00002
  11        7PZ        -0.00001   0.00000  -0.00083   0.00000   0.00317
  12        8PX         0.00000   0.00000   0.00000   0.00129   0.00000
  13        8PY         0.00033   0.00000  -0.00001   0.00000   0.00000
  14        8PZ         0.00568   0.00000  -0.00024   0.00000  -0.00152
  15        9PX         0.00000   0.00000   0.00000   0.00005   0.00000
  16        9PY         0.00010   0.00000   0.00001   0.00000   0.00001
  17        9PZ         0.00015   0.00000  -0.00020   0.00000  -0.00014
  18       10D 0       -0.00016   0.00000   0.00009   0.00000   0.00067
  19       10D+1        0.00000   0.00000   0.00000  -0.00009   0.00000
  20       10D-1        0.00000   0.00000   0.00000   0.00000   0.00000
  21       10D+2       -0.00008   0.00000  -0.00015   0.00000  -0.00020
  22       10D-2        0.00000   0.00009   0.00000   0.00000   0.00000
  23       11D 0       -0.00036   0.00000  -0.00087   0.00000   0.00096
  24       11D+1        0.00000   0.00000   0.00000  -0.00074   0.00000
  25       11D-1        0.00002   0.00000   0.00001   0.00000   0.00002
  26       11D+2       -0.00018   0.00000   0.00029   0.00000   0.00104
  27       11D-2        0.00000   0.00069   0.00000   0.00001   0.00000
  28       12D 0       -0.00021   0.00000   0.00003   0.00000  -0.00114
  29       12D+1        0.00000   0.00000   0.00000  -0.00063   0.00000
  30       12D-1       -0.00008   0.00000   0.00002   0.00000   0.00001
  31       12D+2        0.00040   0.00000  -0.00023   0.00000  -0.00103
  32       12D-2        0.00000  -0.00012   0.00000   0.00001   0.00000
  33       13F 0       -0.00011   0.00000   0.00026   0.00000   0.00036
  34       13F+1        0.00000   0.00000   0.00000  -0.00006   0.00000
  35       13F-1        0.00000   0.00000   0.00000   0.00000   0.00000
  36       13F+2        0.00003   0.00000   0.00000   0.00000  -0.00009
  37       13F-2        0.00000   0.00001   0.00000   0.00000   0.00000
  38       13F+3        0.00000   0.00000   0.00000   0.00002   0.00000
  39       13F-3        0.00000   0.00000   0.00000   0.00000   0.00000
  40       14F 0        0.00049   0.00000  -0.00117   0.00000  -0.00064
  41       14F+1        0.00000   0.00000   0.00000   0.00008   0.00000
  42       14F-1        0.00001   0.00000   0.00000   0.00000   0.00001
  43       14F+2       -0.00030   0.00000  -0.00067   0.00000  -0.00061
  44       14F-2        0.00000  -0.00021   0.00000   0.00000   0.00000
  45       14F+3        0.00000   0.00000   0.00000  -0.00036   0.00000
  46       14F-3       -0.00002   0.00000   0.00000   0.00000   0.00000
  47 2   Br 1S          0.00654   0.00000  -0.00217   0.00000   0.00032
  48        2S         -0.02457   0.00000   0.00851   0.00000  -0.00038
  49        3S          0.05399   0.00000  -0.02231   0.00000  -0.00811
  50        4S         -0.00001   0.00000   0.00049   0.00000   0.00092
  51        5S          0.00253   0.00000  -0.00090   0.00000  -0.00055
  52        6S          0.00348   0.00000  -0.00068   0.00000  -0.00096
  53        7S          0.00124   0.00000  -0.00019   0.00000  -0.00111
  54        8PX         0.00000   0.26310   0.00000  -0.26202   0.00000
  55        8PY         0.14988   0.00000  -0.04928   0.00000  -0.08775
  56        8PZ        -0.19140   0.00000  -0.09201   0.00000  -0.05128
  57        9PX         0.00000  -0.74422   0.00000   0.73998   0.00000
  58        9PY        -0.41766   0.00000   0.11870   0.00000   0.20928
  59        9PZ         0.54218   0.00000   0.24748   0.00000   0.12303
  60       10PX         0.00000  -0.00131   0.00000   0.00072   0.00000
  61       10PY         0.00029   0.00000  -0.00055   0.00000  -0.00046
  62       10PZ         0.00128   0.00000   0.00002   0.00000   0.00014
  63       11PX         0.00000  -0.03325   0.00000   0.03272   0.00000
  64       11PY        -0.01856   0.00000   0.00526   0.00000   0.00885
  65       11PZ         0.02406   0.00000   0.01090   0.00000   0.00513
  66       12PX         0.00000  -0.00390   0.00000   0.00272   0.00000
  67       12PY         0.00010   0.00000  -0.00019   0.00000  -0.00010
  68       12PZ         0.00306   0.00000   0.00074   0.00000  -0.00057
  69       13PX         0.00000   0.00032   0.00000  -0.00025   0.00000
  70       13PY         0.00030   0.00000  -0.00006   0.00000  -0.00025
  71       13PZ         0.00005   0.00000  -0.00004   0.00000  -0.00019
  72       14D 0       -0.00704   0.00000  -0.00267   0.00000  -0.00121
  73       14D+1        0.00000  -0.00101   0.00000   0.00109   0.00000
  74       14D-1       -0.00667   0.00000   0.00765   0.00000   0.00958
  75       14D+2       -0.00254   0.00000  -0.00630   0.00000  -0.00609
  76       14D-2        0.00000  -0.00209   0.00000   0.00202   0.00000
  77       15D 0       -0.00039   0.00000  -0.00020   0.00000  -0.00011
  78       15D+1        0.00000  -0.00016   0.00000   0.00017   0.00000
  79       15D-1       -0.00041   0.00000   0.00070   0.00000   0.00085
  80       15D+2       -0.00010   0.00000  -0.00061   0.00000  -0.00060
  81       15D-2        0.00000  -0.00027   0.00000   0.00032   0.00000
  82       16D 0       -0.00035   0.00000  -0.00009   0.00000   0.00011
  83       16D+1        0.00000   0.00009   0.00000  -0.00015   0.00000
  84       16D-1       -0.00008   0.00000   0.00024   0.00000   0.00071
  85       16D+2       -0.00032   0.00000   0.00001   0.00000  -0.00020
  86       16D-2        0.00000   0.00017   0.00000  -0.00017   0.00000
  87       17D 0       -0.00023   0.00000   0.00002   0.00000  -0.00011
  88       17D+1        0.00000  -0.00009   0.00000  -0.00009   0.00000
  89       17D-1        0.00022   0.00000  -0.00004   0.00000  -0.00023
  90       17D+2       -0.00034   0.00000   0.00006   0.00000   0.00002
  91       17D-2        0.00000  -0.00016   0.00000  -0.00022   0.00000
  92       18F 0        0.00008   0.00000  -0.00008   0.00000  -0.00012
  93       18F+1        0.00000  -0.00001   0.00000   0.00001   0.00000
  94       18F-1        0.00029   0.00000   0.00007   0.00000   0.00007
  95       18F+2        0.00000   0.00000  -0.00014   0.00000  -0.00022
  96       18F-2        0.00000  -0.00022   0.00000   0.00024   0.00000
  97       18F+3        0.00000   0.00018   0.00000  -0.00022   0.00000
  98       18F-3        0.00007   0.00000  -0.00007   0.00000  -0.00011
  99       19F 0       -0.00008   0.00000  -0.00009   0.00000  -0.00011
 100       19F+1        0.00000   0.00001   0.00000  -0.00003   0.00000
 101       19F-1       -0.00036   0.00000   0.00000   0.00000   0.00017
 102       19F+2        0.00003   0.00000   0.00000   0.00000  -0.00010
 103       19F-2        0.00000   0.00017   0.00000  -0.00025   0.00000
 104       19F+3        0.00000  -0.00013   0.00000   0.00024   0.00000
 105       19F-3       -0.00009   0.00000   0.00010   0.00000   0.00001
 106 3   Br 1S          0.00614   0.00000  -0.00203   0.00000   0.00039
 107        2S         -0.02306   0.00000   0.00799   0.00000  -0.00065
 108        3S          0.05071   0.00000  -0.02118   0.00000  -0.00760
 109        4S          0.00002   0.00000   0.00050   0.00000   0.00094
 110        5S          0.00238   0.00000  -0.00085   0.00000  -0.00054
 111        6S          0.00308   0.00000  -0.00064   0.00000  -0.00094
 112        7S          0.00090   0.00000  -0.00023   0.00000  -0.00114
 113        8PX         0.00000  -0.26148   0.00000  -0.26365   0.00000
 114        8PY        -0.16481   0.00000   0.04726   0.00000   0.08696
 115        8PZ        -0.21794   0.00000  -0.09090   0.00000  -0.05073
 116        9PX         0.00000   0.73963   0.00000   0.74456   0.00000
 117        9PY         0.46008   0.00000  -0.11304   0.00000  -0.20639
 118        9PZ         0.61704   0.00000   0.24436   0.00000   0.12103
 119       10PX         0.00000   0.00130   0.00000   0.00072   0.00000
 120       10PY        -0.00015   0.00000   0.00055   0.00000   0.00046
 121       10PZ         0.00139   0.00000   0.00002   0.00000   0.00016
 122       11PX         0.00000   0.03305   0.00000   0.03293   0.00000
 123       11PY         0.02044   0.00000  -0.00499   0.00000  -0.00871
 124       11PZ         0.02740   0.00000   0.01076   0.00000   0.00504
 125       12PX         0.00000   0.00387   0.00000   0.00272   0.00000
 126       12PY         0.00036   0.00000   0.00023   0.00000   0.00012
 127       12PZ         0.00327   0.00000   0.00073   0.00000  -0.00058
 128       13PX         0.00000  -0.00032   0.00000  -0.00025   0.00000
 129       13PY        -0.00027   0.00000   0.00006   0.00000   0.00025
 130       13PZ        -0.00003   0.00000  -0.00004   0.00000  -0.00019
 131       14D 0       -0.00792   0.00000  -0.00260   0.00000  -0.00116
 132       14D+1        0.00000   0.00113   0.00000   0.00122   0.00000
 133       14D-1        0.00703   0.00000  -0.00772   0.00000  -0.00974
 134       14D+2       -0.00310   0.00000  -0.00632   0.00000  -0.00617
 135       14D-2        0.00000  -0.00226   0.00000  -0.00221   0.00000
 136       15D 0       -0.00044   0.00000  -0.00020   0.00000  -0.00010
 137       15D+1        0.00000   0.00017   0.00000   0.00019   0.00000
 138       15D-1        0.00043   0.00000  -0.00071   0.00000  -0.00087
 139       15D+2       -0.00013   0.00000  -0.00061   0.00000  -0.00061
 140       15D-2        0.00000  -0.00028   0.00000  -0.00034   0.00000
 141       16D 0       -0.00038   0.00000  -0.00008   0.00000   0.00012
 142       16D+1        0.00000  -0.00010   0.00000  -0.00015   0.00000
 143       16D-1        0.00011   0.00000  -0.00024   0.00000  -0.00072
 144       16D+2       -0.00033   0.00000   0.00001   0.00000  -0.00020
 145       16D-2        0.00000   0.00017   0.00000   0.00017   0.00000
 146       17D 0       -0.00023   0.00000   0.00002   0.00000  -0.00011
 147       17D+1        0.00000   0.00009   0.00000  -0.00009   0.00000
 148       17D-1       -0.00017   0.00000   0.00004   0.00000   0.00023
 149       17D+2       -0.00030   0.00000   0.00007   0.00000   0.00002
 150       17D-2        0.00000  -0.00015   0.00000   0.00023   0.00000
 151       18F 0        0.00008   0.00000  -0.00008   0.00000  -0.00012
 152       18F+1        0.00000   0.00001   0.00000   0.00001   0.00000
 153       18F-1       -0.00033   0.00000  -0.00007   0.00000  -0.00008
 154       18F+2        0.00000   0.00000  -0.00014   0.00000  -0.00022
 155       18F-2        0.00000  -0.00022   0.00000  -0.00025   0.00000
 156       18F+3        0.00000  -0.00018   0.00000  -0.00022   0.00000
 157       18F-3       -0.00009   0.00000   0.00006   0.00000   0.00011
 158       19F 0       -0.00008   0.00000  -0.00009   0.00000  -0.00011
 159       19F+1        0.00000  -0.00001   0.00000  -0.00003   0.00000
 160       19F-1        0.00040   0.00000   0.00000   0.00000  -0.00017
 161       19F+2        0.00003   0.00000   0.00000   0.00000  -0.00011
 162       19F-2        0.00000   0.00017   0.00000   0.00025   0.00000
 163       19F+3        0.00000   0.00014   0.00000   0.00024   0.00000
 164       19F-3        0.00011   0.00000  -0.00010   0.00000  -0.00001
 165 4   O  1S          0.16114   0.00000  -0.79687   0.00000   0.53682
 166        2S         -0.00309   0.00000   0.01535   0.00000  -0.00885
 167        3S          0.00681   0.00000  -0.03371   0.00000   0.02326
 168        4S         -0.00155   0.00000   0.00256   0.00000  -0.00139
 169        5S         -0.00191   0.00000  -0.00045   0.00000  -0.00137
 170        6PX         0.00000   0.00000   0.00000  -0.00048   0.00000
 171        6PY        -0.00001   0.00000   0.00001   0.00000   0.00001
 172        6PZ        -0.00063   0.00000   0.00396   0.00000  -0.00039
 173        7PX         0.00000   0.00000   0.00000  -0.00056   0.00000
 174        7PY        -0.00003   0.00000   0.00001   0.00000   0.00001
 175        7PZ        -0.00010   0.00000   0.00160   0.00000   0.00261
 176        8PX         0.00000   0.00000   0.00000  -0.00036   0.00000
 177        8PY        -0.00007   0.00000   0.00000   0.00000  -0.00001
 178        8PZ        -0.00132   0.00000   0.00332   0.00000   0.00226
 179        9PX         0.00000   0.00000   0.00000   0.00003   0.00000
 180        9PY        -0.00001   0.00000  -0.00001   0.00000  -0.00001
 181        9PZ         0.00065   0.00000   0.00052   0.00000   0.00042
 182       10D 0        0.00004   0.00000  -0.00021   0.00000   0.00008
 183       10D+1        0.00000   0.00000   0.00000   0.00000   0.00000
 184       10D-1        0.00000   0.00000   0.00000   0.00000   0.00000
 185       10D+2       -0.00003   0.00000   0.00005   0.00000  -0.00002
 186       10D-2        0.00000   0.00001   0.00000   0.00000   0.00000
 187       11D 0        0.00003   0.00000   0.00016   0.00000  -0.00101
 188       11D+1        0.00000   0.00000   0.00000  -0.00008   0.00000
 189       11D-1        0.00001   0.00000   0.00000   0.00000   0.00000
 190       11D+2        0.00005   0.00000   0.00014   0.00000  -0.00006
 191       11D-2        0.00000  -0.00002   0.00000   0.00000   0.00000
 192       12D 0        0.00077   0.00000  -0.00050   0.00000  -0.00056
 193       12D+1        0.00000   0.00000   0.00000  -0.00010   0.00000
 194       12D-1        0.00002   0.00000   0.00000   0.00000   0.00001
 195       12D+2       -0.00001   0.00000   0.00029   0.00000   0.00041
 196       12D-2        0.00000   0.00003   0.00000   0.00000   0.00000
 197       13F 0        0.00001   0.00000  -0.00010   0.00000  -0.00010
 198       13F+1        0.00000   0.00000   0.00000   0.00000   0.00000
 199       13F-1        0.00000   0.00000   0.00000   0.00000   0.00000
 200       13F+2       -0.00001   0.00000   0.00002   0.00000  -0.00001
 201       13F-2        0.00000   0.00000   0.00000   0.00000   0.00000
 202       13F+3        0.00000   0.00000   0.00000  -0.00001   0.00000
 203       13F-3        0.00000   0.00000   0.00000   0.00000   0.00000
 204       14F 0       -0.00008   0.00000   0.00000   0.00000   0.00036
 205       14F+1        0.00000   0.00000   0.00000   0.00007   0.00000
 206       14F-1        0.00000   0.00000   0.00000   0.00000   0.00000
 207       14F+2        0.00002   0.00000  -0.00010   0.00000  -0.00004
 208       14F-2        0.00000   0.00003   0.00000   0.00000   0.00000
 209       14F+3        0.00000   0.00000   0.00000   0.00004   0.00000
 210       14F-3        0.00000   0.00000   0.00000   0.00000   0.00000
                          11        12        13        14        15
     Eigenvalues --     2.00000   2.00000   2.00000   2.00000   2.00000
   1 1   C  1S         -0.00030  -0.00121  -0.00011   0.01342   0.00000
   2        2S          0.00000   0.00005   0.00000  -0.00010   0.00000
   3        3S         -0.00001  -0.00005   0.00000   0.00062   0.00000
   4        4S          0.00000   0.00036   0.00001  -0.00105   0.00000
   5        5S          0.00000   0.00019   0.00000  -0.00037   0.00000
   6        6PX         0.00000   0.00000   0.00000   0.00000   0.00001
   7        6PY        -0.00003   0.00000  -0.00001   0.00000   0.00000
   8        6PZ         0.00000   0.00001   0.00000  -0.00004   0.00000
   9        7PX         0.00000   0.00000   0.00000   0.00000   0.00000
  10        7PY         0.00006   0.00000   0.00003   0.00000   0.00000
  11        7PZ         0.00000   0.00007   0.00000   0.00009   0.00000
  12        8PX         0.00000   0.00000   0.00000   0.00000  -0.00006
  13        8PY         0.00039  -0.00001   0.00061   0.00000   0.00000
  14        8PZ         0.00000  -0.00053  -0.00001   0.00038   0.00000
  15        9PX         0.00000   0.00000   0.00000   0.00000   0.00000
  16        9PY        -0.00010   0.00000   0.00010   0.00000   0.00000
  17        9PZ         0.00000  -0.00001   0.00000   0.00005   0.00000
  18       10D 0        0.00000   0.00000   0.00000   0.00001   0.00000
  19       10D+1        0.00000   0.00000   0.00000   0.00000   0.00000
  20       10D-1        0.00000   0.00000   0.00000   0.00000   0.00000
  21       10D+2        0.00000   0.00000   0.00000   0.00000   0.00000
  22       10D-2        0.00000   0.00000   0.00000   0.00000   0.00000
  23       11D 0        0.00000   0.00004   0.00000   0.00001   0.00000
  24       11D+1        0.00000   0.00000   0.00000   0.00000   0.00005
  25       11D-1       -0.00008   0.00000  -0.00002   0.00000   0.00000
  26       11D+2        0.00000   0.00001   0.00000   0.00014   0.00000
  27       11D-2        0.00000   0.00000   0.00000   0.00000  -0.00001
  28       12D 0        0.00000  -0.00001   0.00000   0.00008   0.00000
  29       12D+1        0.00000   0.00000   0.00000   0.00000   0.00003
  30       12D-1       -0.00019   0.00000  -0.00020   0.00000   0.00000
  31       12D+2        0.00000  -0.00005   0.00000   0.00017   0.00000
  32       12D-2        0.00000   0.00000   0.00000   0.00000   0.00001
  33       13F 0        0.00000   0.00001   0.00000   0.00000   0.00000
  34       13F+1        0.00000   0.00000   0.00000   0.00000   0.00001
  35       13F-1        0.00000   0.00000   0.00001   0.00000   0.00000
  36       13F+2        0.00000   0.00000   0.00000   0.00000   0.00000
  37       13F-2        0.00000   0.00000   0.00000   0.00000   0.00000
  38       13F+3        0.00000   0.00000   0.00000   0.00000   0.00000
  39       13F-3        0.00000   0.00000   0.00001   0.00000   0.00000
  40       14F 0        0.00000  -0.00003   0.00000   0.00002   0.00000
  41       14F+1        0.00000   0.00000   0.00000   0.00000  -0.00001
  42       14F-1       -0.00001   0.00000  -0.00008   0.00000   0.00000
  43       14F+2        0.00000   0.00005   0.00000   0.00001   0.00000
  44       14F-2        0.00000   0.00000   0.00000   0.00000   0.00001
  45       14F+3        0.00000   0.00000   0.00000   0.00000   0.00004
  46       14F-3       -0.00002   0.00000  -0.00006   0.00000   0.00000
  47 2   Br 1S         -0.05558   0.00266  -0.01239  -0.03963   0.00000
  48        2S          0.17198  -0.00785   0.04107   0.12708   0.00000
  49        3S          0.01495  -0.00075   0.00381   0.01312   0.00000
  50        4S         -0.00012   0.00003  -0.00007  -0.00015   0.00000
  51        5S          0.00044  -0.00002   0.00011   0.00038   0.00000
  52        6S          0.00048  -0.00030   0.00048   0.00066   0.00000
  53        7S         -0.00014  -0.00013   0.00024   0.00017   0.00000
  54        8PX         0.00000   0.00000   0.00000   0.00001   0.58971
  55        8PY         0.66087  -0.39742  -0.19268   0.57674  -0.00001
  56        8PZ         0.16245   0.57784   0.69607   0.39322   0.00000
  57        9PX         0.00000   0.00000   0.00000   0.00000  -0.01331
  58        9PY        -0.00015   0.00734   0.00862   0.00713   0.00000
  59        9PZ         0.00563  -0.01349  -0.01267   0.00328   0.00000
  60       10PX         0.00000   0.00000   0.00000   0.00000   0.00023
  61       10PY         0.00033  -0.00022  -0.00005   0.00032   0.00000
  62       10PZ         0.00012   0.00023   0.00036   0.00021   0.00000
  63       11PX         0.00000   0.00000   0.00000   0.00000  -0.00101
  64       11PY        -0.00057   0.00062   0.00048  -0.00024   0.00000
  65       11PZ         0.00006  -0.00100  -0.00108  -0.00022   0.00000
  66       12PX         0.00000   0.00000   0.00000   0.00000  -0.00004
  67       12PY         0.00005  -0.00012   0.00028   0.00020   0.00000
  68       12PZ         0.00008  -0.00013   0.00006   0.00020   0.00000
  69       13PX         0.00000   0.00000   0.00000   0.00000   0.00002
  70       13PY        -0.00001  -0.00003   0.00002   0.00002   0.00000
  71       13PZ        -0.00003   0.00000   0.00005   0.00001   0.00000
  72       14D 0       -0.00007   0.00032   0.00032   0.00002   0.00000
  73       14D+1        0.00000   0.00000   0.00000   0.00000  -0.00003
  74       14D-1       -0.00032   0.00018   0.00010  -0.00007   0.00000
  75       14D+2        0.00015   0.00016   0.00022   0.00009   0.00000
  76       14D-2        0.00000   0.00000   0.00000   0.00000  -0.00008
  77       15D 0        0.00000   0.00000   0.00001   0.00000   0.00000
  78       15D+1        0.00000   0.00000   0.00000   0.00000  -0.00001
  79       15D-1       -0.00005   0.00000  -0.00001  -0.00004   0.00000
  80       15D+2        0.00003   0.00000   0.00001   0.00003   0.00000
  81       15D-2        0.00000   0.00000   0.00000   0.00000  -0.00002
  82       16D 0        0.00000   0.00006   0.00007   0.00000   0.00000
  83       16D+1        0.00000   0.00000   0.00000   0.00000   0.00002
  84       16D-1        0.00008   0.00002   0.00007   0.00012   0.00000
  85       16D+2       -0.00005   0.00005   0.00000  -0.00010   0.00000
  86       16D-2        0.00000   0.00000   0.00000   0.00000   0.00003
  87       17D 0        0.00000   0.00001  -0.00002   0.00002   0.00000
  88       17D+1        0.00000   0.00000   0.00000   0.00000   0.00001
  89       17D-1        0.00002  -0.00003   0.00004   0.00006   0.00000
  90       17D+2        0.00001   0.00003  -0.00004  -0.00003   0.00000
  91       17D-2        0.00000   0.00000   0.00000   0.00000   0.00002
  92       18F 0        0.00000   0.00000   0.00000   0.00000   0.00000
  93       18F+1        0.00000   0.00000   0.00000   0.00000   0.00000
  94       18F-1        0.00000  -0.00001   0.00000   0.00000   0.00000
  95       18F+2       -0.00001   0.00000   0.00000  -0.00001   0.00000
  96       18F-2        0.00000   0.00000   0.00000   0.00000   0.00000
  97       18F+3        0.00000   0.00000   0.00000   0.00000   0.00000
  98       18F-3        0.00000   0.00000   0.00000  -0.00001   0.00000
  99       19F 0       -0.00002   0.00000   0.00000  -0.00001   0.00000
 100       19F+1        0.00000   0.00000   0.00000   0.00000   0.00000
 101       19F-1        0.00001   0.00003   0.00003   0.00001   0.00000
 102       19F+2       -0.00002   0.00000  -0.00001  -0.00004   0.00000
 103       19F-2        0.00000   0.00000   0.00000   0.00000   0.00002
 104       19F+3        0.00000   0.00000   0.00000   0.00000  -0.00002
 105       19F-3       -0.00001   0.00001   0.00001  -0.00002   0.00000
 106 3   Br 1S          0.05512   0.00188   0.01258  -0.03787   0.00000
 107        2S         -0.17057  -0.00533  -0.04170   0.12167   0.00000
 108        3S         -0.01507  -0.00052  -0.00393   0.01285   0.00000
 109        4S          0.00012   0.00002   0.00007  -0.00015   0.00000
 110        5S         -0.00045  -0.00001  -0.00011   0.00037   0.00000
 111        6S         -0.00049  -0.00028  -0.00050   0.00065   0.00000
 112        7S          0.00014  -0.00012  -0.00024   0.00018   0.00000
 113        8PX         0.00000   0.00000   0.00000   0.00001   0.81799
 114        8PY         0.67069   0.40264  -0.17679  -0.56802   0.00001
 115        8PZ        -0.16734   0.60181  -0.67713   0.38850   0.00000
 116        9PX         0.00000   0.00000   0.00000   0.00000  -0.01863
 117        9PY         0.00008  -0.00771   0.00850  -0.00711   0.00000
 118        9PZ        -0.00587  -0.01393   0.01216   0.00330   0.00000
 119       10PX         0.00000   0.00000   0.00000   0.00000   0.00032
 120       10PY         0.00033   0.00022  -0.00004  -0.00032   0.00000
 121       10PZ        -0.00012   0.00024  -0.00035   0.00021   0.00000
 122       11PX         0.00000   0.00000   0.00000   0.00000  -0.00141
 123       11PY        -0.00057  -0.00064   0.00046   0.00023   0.00000
 124       11PZ        -0.00007  -0.00103   0.00105  -0.00021   0.00000
 125       12PX         0.00000   0.00000   0.00000   0.00000  -0.00008
 126       12PY         0.00005   0.00011   0.00028  -0.00020   0.00000
 127       12PZ        -0.00008  -0.00013  -0.00007   0.00020   0.00000
 128       13PX         0.00000   0.00000   0.00000   0.00000   0.00003
 129       13PY        -0.00001   0.00003   0.00002  -0.00002   0.00000
 130       13PZ         0.00003   0.00000  -0.00005   0.00002   0.00000
 131       14D 0        0.00008   0.00033  -0.00031   0.00002   0.00000
 132       14D+1        0.00000   0.00000   0.00000   0.00000  -0.00005
 133       14D-1       -0.00032  -0.00018   0.00009   0.00007   0.00000
 134       14D+2       -0.00015   0.00017  -0.00022   0.00008   0.00000
 135       14D-2        0.00000   0.00000   0.00000   0.00000   0.00011
 136       15D 0        0.00000   0.00000  -0.00001   0.00000   0.00000
 137       15D+1        0.00000   0.00000   0.00000   0.00000  -0.00002
 138       15D-1       -0.00005   0.00000  -0.00001   0.00004   0.00000
 139       15D+2       -0.00003   0.00000  -0.00001   0.00003   0.00000
 140       15D-2        0.00000   0.00000   0.00000   0.00000   0.00003
 141       16D 0        0.00000   0.00006  -0.00007   0.00000   0.00000
 142       16D+1        0.00000   0.00000   0.00000   0.00000   0.00003
 143       16D-1        0.00008  -0.00002   0.00007  -0.00012   0.00000
 144       16D+2        0.00006   0.00005   0.00000  -0.00010   0.00000
 145       16D-2        0.00000   0.00000   0.00000   0.00000  -0.00004
 146       17D 0        0.00000   0.00001   0.00002   0.00002   0.00000
 147       17D+1        0.00000   0.00000   0.00000   0.00000   0.00000
 148       17D-1        0.00002   0.00003   0.00004  -0.00006   0.00000
 149       17D+2       -0.00001   0.00002   0.00004  -0.00003   0.00000
 150       17D-2        0.00000   0.00000   0.00000   0.00000  -0.00001
 151       18F 0        0.00000   0.00000   0.00000   0.00000   0.00000
 152       18F+1        0.00000   0.00000   0.00000   0.00000   0.00000
 153       18F-1        0.00000   0.00001   0.00000   0.00000   0.00000
 154       18F+2        0.00001   0.00000   0.00000  -0.00001   0.00000
 155       18F-2        0.00000   0.00000   0.00000   0.00000   0.00001
 156       18F+3        0.00000   0.00000   0.00000   0.00000   0.00000
 157       18F-3        0.00000   0.00000   0.00000   0.00001   0.00000
 158       19F 0        0.00002   0.00000   0.00000  -0.00001   0.00000
 159       19F+1        0.00000   0.00000   0.00000   0.00000   0.00000
 160       19F-1        0.00001  -0.00003   0.00003  -0.00001   0.00000
 161       19F+2        0.00002   0.00000   0.00001  -0.00004   0.00000
 162       19F-2        0.00000   0.00000   0.00000   0.00000  -0.00002
 163       19F+3        0.00000   0.00000   0.00000   0.00000  -0.00002
 164       19F-3       -0.00001  -0.00001   0.00001   0.00002   0.00000
 165 4   O  1S         -0.00009  -0.00044  -0.00003   0.00402   0.00000
 166        2S          0.00000   0.00000   0.00000  -0.00010   0.00000
 167        3S          0.00000  -0.00002   0.00000   0.00018   0.00000
 168        4S          0.00000   0.00006   0.00000   0.00005   0.00000
 169        5S          0.00000   0.00018   0.00000  -0.00005   0.00000
 170        6PX         0.00000   0.00000   0.00000   0.00000   0.00000
 171        6PY         0.00000   0.00000   0.00000   0.00000   0.00000
 172        6PZ         0.00000   0.00000   0.00000   0.00002   0.00000
 173        7PX         0.00000   0.00000   0.00000   0.00000  -0.00001
 174        7PY         0.00001   0.00000   0.00001   0.00000   0.00000
 175        7PZ         0.00000   0.00001   0.00000   0.00006   0.00000
 176        8PX         0.00000   0.00000   0.00000   0.00000  -0.00002
 177        8PY         0.00003   0.00000   0.00000   0.00000   0.00000
 178        8PZ         0.00000   0.00010   0.00000  -0.00005   0.00000
 179        9PX         0.00000   0.00000   0.00000   0.00000  -0.00001
 180        9PY         0.00008   0.00000   0.00002   0.00000   0.00000
 181        9PZ         0.00000  -0.00006   0.00000   0.00002   0.00000
 182       10D 0        0.00000   0.00000   0.00000   0.00000   0.00000
 183       10D+1        0.00000   0.00000   0.00000   0.00000   0.00000
 184       10D-1        0.00000   0.00000   0.00000   0.00000   0.00000
 185       10D+2        0.00000   0.00000   0.00000   0.00000   0.00000
 186       10D-2        0.00000   0.00000   0.00000   0.00000   0.00000
 187       11D 0        0.00000  -0.00001   0.00000  -0.00002   0.00000
 188       11D+1        0.00000   0.00000   0.00000   0.00000   0.00001
 189       11D-1        0.00000   0.00000   0.00000   0.00000   0.00000
 190       11D+2        0.00000  -0.00001   0.00000  -0.00001   0.00000
 191       11D-2        0.00000   0.00000   0.00000   0.00000   0.00000
 192       12D 0        0.00000  -0.00007   0.00000   0.00000   0.00000
 193       12D+1        0.00000   0.00000   0.00000   0.00000   0.00001
 194       12D-1        0.00000   0.00000   0.00002   0.00000   0.00000
 195       12D+2        0.00000  -0.00001   0.00000  -0.00004   0.00000
 196       12D-2        0.00000   0.00000   0.00000   0.00000   0.00000
 197       13F 0        0.00000   0.00000   0.00000   0.00000   0.00000
 198       13F+1        0.00000   0.00000   0.00000   0.00000   0.00000
 199       13F-1        0.00000   0.00000   0.00000   0.00000   0.00000
 200       13F+2        0.00000   0.00000   0.00000   0.00000   0.00000
 201       13F-2        0.00000   0.00000   0.00000   0.00000   0.00000
 202       13F+3        0.00000   0.00000   0.00000   0.00000   0.00000
 203       13F-3        0.00000   0.00000   0.00000   0.00000   0.00000
 204       14F 0        0.00000   0.00001   0.00000   0.00002   0.00000
 205       14F+1        0.00000   0.00000   0.00000   0.00000  -0.00001
 206       14F-1        0.00000   0.00000  -0.00001   0.00000   0.00000
 207       14F+2        0.00000   0.00001   0.00000   0.00002   0.00000
 208       14F-2        0.00000   0.00000   0.00000   0.00000   0.00000
 209       14F+3        0.00000   0.00000   0.00000   0.00000  -0.00001
 210       14F-3        0.00000   0.00000   0.00000   0.00000   0.00000
                          16        17        18        19        20
     Eigenvalues --     2.00000   2.00000   2.00000   2.00000   2.00000
   1 1   C  1S          0.00000  -0.00021   0.00151   0.00000   0.00005
   2        2S          0.00000   0.00000  -0.00001   0.00000   0.00000
   3        3S          0.00000  -0.00001   0.00006   0.00000   0.00000
   4        4S          0.00000  -0.00001   0.00007   0.00000   0.00001
   5        5S          0.00000  -0.00001   0.00007   0.00000   0.00000
   6        6PX         0.00000   0.00000   0.00000   0.00000   0.00000
   7        6PY         0.00000   0.00000   0.00000   0.00000   0.00000
   8        6PZ         0.00000   0.00000   0.00000   0.00000   0.00000
   9        7PX         0.00000   0.00000   0.00000   0.00000   0.00000
  10        7PY         0.00000   0.00002   0.00000   0.00000   0.00000
  11        7PZ         0.00000   0.00000  -0.00001   0.00000   0.00000
  12        8PX         0.00001   0.00000   0.00000   0.00000   0.00000
  13        8PY         0.00000  -0.00001   0.00000  -0.00001   0.00000
  14        8PZ         0.00000   0.00000  -0.00001   0.00000  -0.00001
  15        9PX         0.00000   0.00000   0.00000   0.00000   0.00000
  16        9PY         0.00000  -0.00002   0.00000   0.00000   0.00000
  17        9PZ         0.00000   0.00000   0.00000   0.00000   0.00000
  18       10D 0        0.00000   0.00000   0.00000   0.00000   0.00000
  19       10D+1        0.00000   0.00000   0.00000   0.00000   0.00000
  20       10D-1        0.00000   0.00000   0.00000   0.00000   0.00000
  21       10D+2        0.00000   0.00000   0.00000   0.00000   0.00000
  22       10D-2        0.00000   0.00000   0.00000   0.00000   0.00000
  23       11D 0        0.00000   0.00000   0.00000   0.00000   0.00000
  24       11D+1       -0.00001   0.00000   0.00000   0.00000   0.00000
  25       11D-1        0.00000  -0.00002   0.00000   0.00000   0.00000
  26       11D+2        0.00000   0.00000  -0.00001   0.00000   0.00000
  27       11D-2       -0.00004   0.00000   0.00000   0.00000   0.00000
  28       12D 0        0.00000   0.00000   0.00002   0.00000   0.00000
  29       12D+1       -0.00001   0.00000   0.00000   0.00000   0.00000
  30       12D-1        0.00000  -0.00004   0.00000   0.00000   0.00000
  31       12D+2        0.00000   0.00000  -0.00001   0.00000   0.00000
  32       12D-2        0.00004   0.00000   0.00000   0.00000   0.00000
  33       13F 0        0.00000   0.00000   0.00000   0.00000   0.00000
  34       13F+1        0.00000   0.00000   0.00000   0.00000   0.00000
  35       13F-1        0.00000   0.00000   0.00000   0.00000   0.00000
  36       13F+2        0.00000   0.00000   0.00000   0.00000   0.00000
  37       13F-2        0.00000   0.00000   0.00000   0.00000   0.00000
  38       13F+3        0.00000   0.00000   0.00000   0.00000   0.00000
  39       13F-3        0.00000   0.00000   0.00000   0.00000   0.00000
  40       14F 0        0.00000   0.00000  -0.00001   0.00000   0.00000
  41       14F+1        0.00000   0.00000   0.00000   0.00000   0.00000
  42       14F-1        0.00000  -0.00002   0.00000   0.00000   0.00000
  43       14F+2        0.00000   0.00000   0.00000   0.00000   0.00000
  44       14F-2        0.00003   0.00000   0.00000   0.00000   0.00000
  45       14F+3       -0.00001   0.00000   0.00000   0.00000   0.00000
  46       14F-3        0.00000  -0.00001   0.00000   0.00000   0.00000
  47 2   Br 1S          0.00000   0.24690  -0.18747   0.70755   0.70458
  48        2S          0.00000  -0.79998   0.60945   0.00401   0.00274
  49        3S          0.00000  -0.03413   0.02641   0.00056   0.00048
  50        4S          0.00000   0.00023  -0.00016   0.00001   0.00001
  51        5S          0.00000  -0.00080   0.00063   0.00000   0.00000
  52        6S          0.00000  -0.00004   0.00002  -0.00002  -0.00001
  53        7S          0.00000  -0.00004  -0.00003   0.00000   0.00000
  54        8PX        -0.81812   0.00000   0.00000   0.00000   0.00000
  55        8PY         0.00000   0.17009  -0.08583   0.00233   0.00047
  56        8PZ         0.00000   0.09163  -0.05307   0.00026   0.00003
  57        9PX         0.01901   0.00000   0.00000   0.00000   0.00000
  58        9PY         0.00000  -0.00294   0.00270  -0.00010  -0.00015
  59        9PZ         0.00000  -0.00145   0.00158  -0.00005  -0.00006
  60       10PX        -0.00033   0.00000   0.00000   0.00000   0.00000
  61       10PY         0.00000   0.00009  -0.00005   0.00000   0.00000
  62       10PZ         0.00000   0.00005  -0.00003   0.00000   0.00000
  63       11PX         0.00142   0.00000   0.00000   0.00000   0.00000
  64       11PY         0.00000  -0.00027   0.00019  -0.00001  -0.00001
  65       11PZ         0.00000  -0.00014   0.00011   0.00000   0.00000
  66       12PX         0.00014   0.00000   0.00000   0.00000   0.00000
  67       12PY         0.00000  -0.00006   0.00000  -0.00001   0.00000
  68       12PZ         0.00000  -0.00003   0.00001   0.00000   0.00000
  69       13PX        -0.00004   0.00000   0.00000   0.00000   0.00000
  70       13PY         0.00000   0.00000  -0.00001   0.00000   0.00000
  71       13PZ         0.00000   0.00000   0.00000   0.00000   0.00000
  72       14D 0        0.00000   0.00004  -0.00003   0.00000   0.00000
  73       14D+1        0.00005   0.00000   0.00000   0.00000   0.00000
  74       14D-1        0.00000   0.00000   0.00000   0.00000   0.00000
  75       14D+2        0.00000  -0.00008   0.00006   0.00000   0.00000
  76       14D-2        0.00011   0.00000   0.00000   0.00000   0.00000
  77       15D 0        0.00000   0.00000   0.00000   0.00000   0.00000
  78       15D+1        0.00002   0.00000   0.00000   0.00000   0.00000
  79       15D-1        0.00000   0.00000   0.00000   0.00000   0.00000
  80       15D+2        0.00000   0.00000   0.00000   0.00000   0.00000
  81       15D-2        0.00003   0.00000   0.00000   0.00000   0.00000
  82       16D 0        0.00000   0.00001   0.00000   0.00000   0.00000
  83       16D+1       -0.00002   0.00000   0.00000   0.00000   0.00000
  84       16D-1        0.00000   0.00002  -0.00001   0.00000   0.00000
  85       16D+2        0.00000  -0.00001   0.00001   0.00000   0.00000
  86       16D-2       -0.00004   0.00000   0.00000   0.00000   0.00000
  87       17D 0        0.00000   0.00000   0.00000   0.00000   0.00000
  88       17D+1        0.00002   0.00000   0.00000   0.00000   0.00000
  89       17D-1        0.00000  -0.00001   0.00001   0.00000   0.00000
  90       17D+2        0.00000   0.00002   0.00000   0.00000   0.00000
  91       17D-2        0.00002   0.00000   0.00000   0.00000   0.00000
  92       18F 0        0.00000   0.00000   0.00000   0.00000   0.00000
  93       18F+1        0.00000   0.00000   0.00000   0.00000   0.00000
  94       18F-1        0.00000   0.00000   0.00000   0.00000   0.00000
  95       18F+2        0.00000   0.00000   0.00000   0.00000   0.00000
  96       18F-2        0.00000   0.00000   0.00000   0.00000   0.00000
  97       18F+3        0.00000   0.00000   0.00000   0.00000   0.00000
  98       18F-3        0.00000   0.00000   0.00000   0.00000   0.00000
  99       19F 0        0.00000   0.00000   0.00000   0.00000   0.00000
 100       19F+1        0.00000   0.00000   0.00000   0.00000   0.00000
 101       19F-1        0.00000   0.00000   0.00000   0.00000   0.00000
 102       19F+2        0.00000   0.00000   0.00000   0.00000   0.00000
 103       19F-2       -0.00001   0.00000   0.00000   0.00000   0.00000
 104       19F+3        0.00001   0.00000   0.00000   0.00000   0.00000
 105       19F-3        0.00000   0.00000   0.00000   0.00000   0.00000
 106 3   Br 1S          0.00000  -0.18460  -0.24938  -0.70420   0.70794
 107        2S          0.00000   0.59755   0.81002  -0.00396   0.00275
 108        3S          0.00000   0.02539   0.03499  -0.00055   0.00048
 109        4S          0.00000  -0.00017  -0.00021  -0.00001   0.00001
 110        5S          0.00000   0.00060   0.00083   0.00000   0.00000
 111        6S          0.00000   0.00004   0.00003   0.00002  -0.00001
 112        7S          0.00000   0.00005  -0.00002   0.00000   0.00000
 113        8PX         0.58989   0.00000   0.00000   0.00000   0.00000
 114        8PY         0.00000   0.13710   0.12669   0.00229  -0.00045
 115        8PZ         0.00000  -0.07237  -0.07573  -0.00023   0.00001
 116        9PX        -0.01383   0.00000   0.00000   0.00000   0.00000
 117        9PY         0.00000  -0.00207  -0.00341  -0.00010   0.00015
 118        9PZ         0.00000   0.00096   0.00195   0.00005  -0.00006
 119       10PX         0.00024   0.00000   0.00000   0.00000   0.00000
 120       10PY         0.00000   0.00007   0.00007   0.00000   0.00000
 121       10PZ         0.00000  -0.00004  -0.00004   0.00000   0.00000
 122       11PX        -0.00103   0.00000   0.00000   0.00000   0.00000
 123       11PY         0.00000  -0.00021  -0.00026  -0.00001   0.00001
 124       11PZ         0.00000   0.00011   0.00015   0.00000   0.00000
 125       12PX        -0.00012   0.00000   0.00000   0.00000   0.00000
 126       12PY         0.00000  -0.00006  -0.00002  -0.00001   0.00000
 127       12PZ         0.00000   0.00002   0.00002   0.00000   0.00000
 128       13PX         0.00003   0.00000   0.00000   0.00000   0.00000
 129       13PY         0.00000   0.00000   0.00000   0.00000   0.00000
 130       13PZ         0.00000   0.00000   0.00000   0.00000   0.00000
 131       14D 0        0.00000  -0.00003  -0.00004   0.00000   0.00000
 132       14D+1       -0.00004   0.00000   0.00000   0.00000   0.00000
 133       14D-1        0.00000  -0.00001   0.00000   0.00000   0.00000
 134       14D+2        0.00000   0.00006   0.00007   0.00000   0.00000
 135       14D-2        0.00009   0.00000   0.00000   0.00000   0.00000
 136       15D 0        0.00000   0.00000   0.00000   0.00000   0.00000
 137       15D+1       -0.00001   0.00000   0.00000   0.00000   0.00000
 138       15D-1        0.00000   0.00000   0.00000   0.00000   0.00000
 139       15D+2        0.00000   0.00000   0.00000   0.00000   0.00000
 140       15D-2        0.00002   0.00000   0.00000   0.00000   0.00000
 141       16D 0        0.00000  -0.00001   0.00000   0.00000   0.00000
 142       16D+1        0.00002   0.00000   0.00000   0.00000   0.00000
 143       16D-1        0.00000   0.00001   0.00001   0.00000   0.00000
 144       16D+2        0.00000   0.00000   0.00001   0.00000   0.00000
 145       16D-2       -0.00003   0.00000   0.00000   0.00000   0.00000
 146       17D 0        0.00000   0.00000   0.00000   0.00000   0.00000
 147       17D+1       -0.00002   0.00000   0.00000   0.00000   0.00000
 148       17D-1        0.00000  -0.00001  -0.00001   0.00000   0.00000
 149       17D+2        0.00000  -0.00002   0.00000   0.00000   0.00000
 150       17D-2        0.00003   0.00000   0.00000   0.00000   0.00000
 151       18F 0        0.00000   0.00000   0.00000   0.00000   0.00000
 152       18F+1        0.00000   0.00000   0.00000   0.00000   0.00000
 153       18F-1        0.00000   0.00000   0.00000   0.00000   0.00000
 154       18F+2        0.00000   0.00000   0.00000   0.00000   0.00000
 155       18F-2        0.00000   0.00000   0.00000   0.00000   0.00000
 156       18F+3        0.00000   0.00000   0.00000   0.00000   0.00000
 157       18F-3        0.00000   0.00000   0.00000   0.00000   0.00000
 158       19F 0        0.00000   0.00000   0.00000   0.00000   0.00000
 159       19F+1        0.00000   0.00000   0.00000   0.00000   0.00000
 160       19F-1        0.00000   0.00000   0.00000   0.00000   0.00000
 161       19F+2        0.00000   0.00000   0.00000   0.00000   0.00000
 162       19F-2       -0.00001   0.00000   0.00000   0.00000   0.00000
 163       19F+3       -0.00001   0.00000   0.00000   0.00000   0.00000
 164       19F-3        0.00000   0.00000   0.00000   0.00000   0.00000
 165 4   O  1S          0.00000  -0.00008   0.00061   0.00000   0.00000
 166        2S          0.00000   0.00000   0.00000   0.00000   0.00000
 167        3S          0.00000   0.00000   0.00003   0.00000   0.00000
 168        4S          0.00000   0.00000  -0.00002   0.00000   0.00000
 169        5S          0.00000   0.00001  -0.00005   0.00000   0.00001
 170        6PX         0.00000   0.00000   0.00000   0.00000   0.00000
 171        6PY         0.00000   0.00000   0.00000   0.00000   0.00000
 172        6PZ         0.00000   0.00000   0.00000   0.00000   0.00000
 173        7PX         0.00000   0.00000   0.00000   0.00000   0.00000
 174        7PY         0.00000   0.00000   0.00000   0.00000   0.00000
 175        7PZ         0.00000   0.00000   0.00001   0.00000   0.00000
 176        8PX         0.00000   0.00000   0.00000   0.00000   0.00000
 177        8PY         0.00000   0.00003   0.00000   0.00000   0.00000
 178        8PZ         0.00000   0.00000   0.00001   0.00000   0.00000
 179        9PX         0.00000   0.00000   0.00000   0.00000   0.00000
 180        9PY         0.00000   0.00001   0.00000   0.00000   0.00000
 181        9PZ         0.00000   0.00000   0.00001   0.00000   0.00000
 182       10D 0        0.00000   0.00000   0.00000   0.00000   0.00000
 183       10D+1        0.00000   0.00000   0.00000   0.00000   0.00000
 184       10D-1        0.00000   0.00000   0.00000   0.00000   0.00000
 185       10D+2        0.00000   0.00000   0.00000   0.00000   0.00000
 186       10D-2        0.00000   0.00000   0.00000   0.00000   0.00000
 187       11D 0        0.00000   0.00000   0.00000   0.00000   0.00000
 188       11D+1        0.00000   0.00000   0.00000   0.00000   0.00000
 189       11D-1        0.00000   0.00000   0.00000   0.00000   0.00000
 190       11D+2        0.00000   0.00000   0.00000   0.00000   0.00000
 191       11D-2        0.00000   0.00000   0.00000   0.00000   0.00000
 192       12D 0        0.00000   0.00000   0.00001   0.00000   0.00000
 193       12D+1        0.00000   0.00000   0.00000   0.00000   0.00000
 194       12D-1        0.00000  -0.00001   0.00000   0.00000   0.00000
 195       12D+2        0.00000   0.00000   0.00001   0.00000   0.00000
 196       12D-2       -0.00002   0.00000   0.00000   0.00000   0.00000
 197       13F 0        0.00000   0.00000   0.00000   0.00000   0.00000
 198       13F+1        0.00000   0.00000   0.00000   0.00000   0.00000
 199       13F-1        0.00000   0.00000   0.00000   0.00000   0.00000
 200       13F+2        0.00000   0.00000   0.00000   0.00000   0.00000
 201       13F-2        0.00000   0.00000   0.00000   0.00000   0.00000
 202       13F+3        0.00000   0.00000   0.00000   0.00000   0.00000
 203       13F-3        0.00000   0.00000   0.00000   0.00000   0.00000
[...]
 189       11D-1       -0.00417   0.00000   0.15675   0.03419   0.00057
 190       11D+2       -0.00813   0.00000   0.02169  -0.09761  -0.03515
 191       11D-2        0.00000   0.00033   0.00000   0.00000   0.00000
 192       12D 0        4.58305   0.00000   0.26308  -1.25591   0.80715
 193       12D+1        0.00000   2.07058   0.00000   0.00000   0.00000
 194       12D-1       -0.01653   0.00000  -0.22964  -0.04881  -0.00030
 195       12D+2       -0.53416   0.00000  -0.12401   0.55448   0.04380
 196       12D-2        0.00000  -0.00136   0.00000   0.00000   0.00000
 197       13F 0        0.02043   0.00000  -0.00296   0.01485  -0.04654
 198       13F+1        0.00000   0.01915   0.00000   0.00000   0.00000
 199       13F-1       -0.00068   0.00000   0.04750   0.00979   0.00050
 200       13F+2       -0.05337   0.00000  -0.00517   0.02397  -0.01357
 201       13F-2        0.00000   0.00009   0.00000   0.00000   0.00000
 202       13F+3        0.00000   0.00401   0.00000   0.00000   0.00000
 203       13F-3       -0.00024   0.00000  -0.02798  -0.00583  -0.00021
 204       14F 0       -1.28640   0.00000  -0.03726   0.16893   0.00818
 205       14F+1        0.00000  -0.15356   0.00000   0.00000   0.00000
 206       14F-1        0.00376   0.00000  -0.12684  -0.02630  -0.00102
 207       14F+2        0.19123   0.00000   0.02138  -0.09791   0.04671
 208       14F-2        0.00000  -0.00014   0.00000   0.00000   0.00000
 209       14F+3        0.00000   0.00363   0.00000   0.00000   0.00000
 210       14F-3        0.00058   0.00000   0.05814   0.01204   0.00042
                         206       207       208       209       210
     Eigenvalues --     0.00000   0.00000   0.00000   0.00000   0.00000
   1 1   C  1S          0.00000  -0.00541  -0.00056   0.21965   0.00188
   2        2S          0.00000  -0.02924  -0.00344   1.25950   0.04825
   3        3S          0.00000   0.00077  -0.00132   0.00754   0.11020
   4        4S          0.00000   0.03993   0.06997   9.30580   3.50890
   5        5S          0.00000   0.30953  -0.02439   3.63974  31.26923
   6        6PX         0.00343   0.00000   0.00000   0.00000   0.00000
   7        6PY         0.00000  -0.00108   0.00580   0.00001   0.00014
   8        6PZ         0.00000  -0.00003  -0.00009   0.01350   0.01081
   9        7PX        -0.31384   0.00000   0.00000   0.00000   0.00000
  10        7PY         0.00000  -0.24455  -0.13402  -0.00134  -0.00024
  11        7PZ         0.00000  -0.00399  -0.00548   1.35505   0.07094
  12        8PX        -0.29789   0.00000   0.00000   0.00000   0.00000
  13        8PY         0.00000  -5.60803   6.78122   0.02520   0.02419
  14        8PZ         0.00000  -0.07009  -0.03843   5.44841  -0.01234
  15        9PX         6.33532   0.00000   0.00000   0.00000   0.00000
  16        9PY         0.00000  -0.44625  13.98193   0.06075   0.07774
  17        9PZ         0.00000  -0.05296  -0.03879   5.89492  -3.81665
  18       10D 0        0.00000  -0.00039  -0.00042   0.08546   0.02126
  19       10D+1       -0.00701   0.00000   0.00000   0.00000   0.00000
  20       10D-1        0.00000   0.00771   0.02139   0.00026  -0.00002
  21       10D+2        0.00000   0.00071   0.00028  -0.00554  -0.04842
  22       10D-2       -0.00029   0.00000   0.00000   0.00000   0.00000
  23       11D 0        0.00000  -0.00314   0.00117   0.59272  -0.21183
  24       11D+1       -0.43797   0.00000   0.00000   0.00000   0.00000
  25       11D-1        0.00000  -0.13172  -0.69506  -0.00698   0.00048
  26       11D+2        0.00000  -0.00685  -0.00333   0.01953   0.18826
  27       11D-2        0.00029   0.00000   0.00000   0.00000   0.00000
  28       12D 0        0.00000  -0.03140  -0.01410   3.51154   0.22349
  29       12D+1        0.91428   0.00000   0.00000   0.00000   0.00000
  30       12D-1        0.00000  -0.17802  -0.38527  -0.01330   0.01127
  31       12D+2        0.00000  -0.06974  -0.00127   1.39918  -1.03214
  32       12D-2       -0.00544   0.00000   0.00000   0.00000   0.00000
  33       13F 0        0.00000  -0.00110   0.00041   0.05116  -0.04520
  34       13F+1       -0.12082   0.00000   0.00000   0.00000   0.00000
  35       13F-1        0.00000  -0.01591  -0.06255  -0.00043   0.00016
  36       13F+2        0.00000   0.00030   0.00024  -0.00232   0.00541
  37       13F-2        0.00000   0.00000   0.00000   0.00000   0.00000
  38       13F+3        0.05277   0.00000   0.00000   0.00000   0.00000
  39       13F-3        0.00000   0.04674  -0.00081   0.00024  -0.00015
  40       14F 0        0.00000   0.00447   0.00032  -0.01504  -0.09257
  41       14F+1       -0.04458   0.00000   0.00000   0.00000   0.00000
  42       14F-1        0.00000  -0.00996  -0.02005   0.00082  -0.00188
  43       14F+2        0.00000   0.00404   0.00019   0.12662  -0.17256
  44       14F-2       -0.00077   0.00000   0.00000   0.00000   0.00000
  45       14F+3       -0.03253   0.00000   0.00000   0.00000   0.00000
  46       14F-3        0.00000  -0.06728  -0.10869  -0.00133  -0.00019
  47 2   Br 1S          0.00000   0.00221   0.00003  -0.00003   0.00006
  48        2S          0.00000   0.01693  -0.00298  -0.00131   0.00048
  49        3S          0.00000   0.07895  -0.00607  -0.00355   0.00224
  50        4S          0.00000   0.23206  -0.05000  -0.01629   0.00770
  51        5S          0.00000   0.09332  -0.15344  -0.00429  -0.00348
  52        6S          0.00000  -0.82010   1.80267   0.88298   0.05319
  53        7S          0.00000 -10.16616  14.78419   2.15190 -13.29619
  54        8PX         0.00165   0.00000   0.00000   0.00000   0.00000
  55        8PY         0.00000   0.00095   0.00057   0.00062  -0.00039
  56        8PZ         0.00000   0.00058  -0.00004   0.00043   0.00004
  57        9PX        -0.02033   0.00000   0.00000   0.00000   0.00000
  58        9PY         0.00000   0.01634   0.00289  -0.00777   0.02537
  59        9PZ         0.00000   0.00132   0.01258  -0.00954   0.01473
  60       10PX        -0.15533   0.00000   0.00000   0.00000   0.00000
  61       10PY         0.00000   0.24141   0.06330  -0.05968   0.27823
  62       10PZ         0.00000   0.04809   0.14415  -0.08989   0.17510
  63       11PX         0.04575   0.00000   0.00000   0.00000   0.00000
  64       11PY         0.00000   0.00109  -0.00432   0.01757  -0.03528
  65       11PZ         0.00000   0.01551  -0.02333   0.01435  -0.01615
  66       12PX         0.65289   0.00000   0.00000   0.00000   0.00000
  67       12PY         0.00000  -3.75514   3.64681  -0.30636  -1.64869
  68       12PZ         0.00000  -2.41831   2.47381   1.59801  -1.29592
  69       13PX        -2.44225   0.00000   0.00000   0.00000   0.00000
  70       13PY         0.00000  -3.83296   0.40394   0.83007  -3.65519
  71       13PZ         0.00000  -0.95670   2.85217  -0.91011  -2.13907
  72       14D 0        0.00000  -0.00092  -0.00061   0.00118  -0.00098
  73       14D+1        0.00233   0.00000   0.00000   0.00000   0.00000
  74       14D-1        0.00000   0.00087  -0.00024  -0.00126   0.00117
  75       14D+2        0.00000  -0.00344  -0.00111   0.00224   0.00016
  76       14D-2        0.00100   0.00000   0.00000   0.00000   0.00000
  77       15D 0        0.00000   0.01489   0.00472  -0.01460   0.01345
  78       15D+1       -0.02794   0.00000   0.00000   0.00000   0.00000
  79       15D-1        0.00000   0.00247  -0.01467   0.00835  -0.01790
  80       15D+2        0.00000   0.03629   0.02518  -0.02352  -0.00059
  81       15D-2       -0.02131   0.00000   0.00000   0.00000   0.00000
  82       16D 0        0.00000  -0.09752  -0.00681   0.08728  -0.07566
  83       16D+1        0.11141   0.00000   0.00000   0.00000   0.00000
  84       16D-1        0.00000  -0.03719   0.29344  -0.04595   0.17121
  85       16D+2        0.00000  -0.19032  -0.27151   0.14021  -0.06198
  86       16D-2        0.10019   0.00000   0.00000   0.00000   0.00000
  87       17D 0        0.00000   0.16486   0.15920   0.32791   0.04169
  88       17D+1       -0.22271   0.00000   0.00000   0.00000   0.00000
  89       17D-1        0.00000  -1.43510   1.08529   0.30502  -0.74677
  90       17D+2        0.00000   1.77401  -0.50074   0.24404   0.34721
  91       17D-2       -0.03312   0.00000   0.00000   0.00000   0.00000
  92       18F 0        0.00000   0.00483   0.01974  -0.01473  -0.00450
  93       18F+1       -0.00915   0.00000   0.00000   0.00000   0.00000
  94       18F-1        0.00000   0.02825  -0.02403   0.00008   0.00688
  95       18F+2        0.00000  -0.04227   0.01316  -0.01450  -0.00803
  96       18F-2       -0.01271   0.00000   0.00000   0.00000   0.00000
  97       18F+3        0.05048   0.00000   0.00000   0.00000   0.00000
  98       18F-3        0.00000  -0.04042   0.01444  -0.02028  -0.01133
  99       19F 0        0.00000   0.02441  -0.10767   0.03011  -0.01014
 100       19F+1        0.00567   0.00000   0.00000   0.00000   0.00000
 101       19F-1        0.00000  -0.11146   0.12896   0.02936  -0.02948
 102       19F+2        0.00000   0.18178  -0.16307   0.05007   0.01580
 103       19F-2        0.01950   0.00000   0.00000   0.00000   0.00000
 104       19F+3       -0.11158   0.00000   0.00000   0.00000   0.00000
 105       19F-3        0.00000   0.17203  -0.10694   0.09937   0.02051
 106 3   Br 1S          0.00000  -0.00211   0.00001  -0.00001   0.00009
 107        2S          0.00000  -0.01622   0.00324  -0.00113   0.00066
 108        3S          0.00000  -0.07550   0.00744  -0.00266   0.00302
 109        4S          0.00000  -0.22242   0.05350  -0.01368   0.01014
 110        5S          0.00000  -0.08831   0.15503  -0.00230  -0.00220
 111        6S          0.00000   0.66738  -1.88756   0.83552   0.05733
 112        7S          0.00000   9.87670 -14.81587   2.04802 -13.55979
 113        8PX         0.00164   0.00000   0.00000   0.00000   0.00000
 114        8PY         0.00000   0.00104   0.00058  -0.00063   0.00038
 115        8PZ         0.00000  -0.00061   0.00002   0.00044   0.00006
 116        9PX        -0.02031   0.00000   0.00000   0.00000   0.00000
 117        9PY         0.00000   0.01643   0.00355   0.00836  -0.02574
 118        9PZ         0.00000  -0.00148  -0.01295  -0.00986   0.01476
 119       10PX        -0.15558   0.00000   0.00000   0.00000   0.00000
 120       10PY         0.00000   0.24748   0.07193   0.06589  -0.28306
 121       10PZ         0.00000  -0.05163  -0.14989  -0.09331   0.17663
 122       11PX         0.04554   0.00000   0.00000   0.00000   0.00000
 123       11PY         0.00000   0.00240  -0.00455  -0.01837   0.03527
 124       11PZ         0.00000  -0.01586   0.02328   0.01475  -0.01559
 125       12PX         0.66213   0.00000   0.00000   0.00000   0.00000
 126       12PY         0.00000  -3.65680   3.67190   0.36651   1.67833
 127       12PZ         0.00000   2.31352  -2.52678   1.58415  -1.32799
 128       13PX        -2.45227   0.00000   0.00000   0.00000   0.00000
 129       13PY         0.00000  -3.80889   0.36426  -0.83971   3.66920
 130       13PZ         0.00000   0.93993  -2.82663  -0.93699  -2.19047
 131       14D 0        0.00000   0.00089   0.00059   0.00118  -0.00097
 132       14D+1        0.00232   0.00000   0.00000   0.00000   0.00000
 133       14D-1        0.00000   0.00087  -0.00020   0.00128  -0.00113
 134       14D+2        0.00000   0.00347   0.00110   0.00225   0.00020
 135       14D-2       -0.00098   0.00000   0.00000   0.00000   0.00000
 136       15D 0        0.00000  -0.01487  -0.00435  -0.01459   0.01332
 137       15D+1       -0.02793   0.00000   0.00000   0.00000   0.00000
 138       15D-1        0.00000   0.00202  -0.01515  -0.00880   0.01727
 139       15D+2        0.00000  -0.03716  -0.02496  -0.02388  -0.00125
 140       15D-2        0.02121   0.00000   0.00000   0.00000   0.00000
 141       16D 0        0.00000   0.09840   0.00411   0.08842  -0.07591
 142       16D+1        0.11090   0.00000   0.00000   0.00000   0.00000
 143       16D-1        0.00000  -0.02535   0.30156   0.05131  -0.16936
 144       16D+2        0.00000   0.20167   0.27374   0.14574  -0.06004
 145       16D-2       -0.09897   0.00000   0.00000   0.00000   0.00000
 146       17D 0        0.00000  -0.18086  -0.16765   0.33201   0.03310
 147       17D+1       -0.21902   0.00000   0.00000   0.00000   0.00000
 148       17D-1        0.00000  -1.41657   1.09110  -0.29343   0.75850
 149       17D+2        0.00000  -1.77536   0.49792   0.25164   0.35065
 150       17D-2        0.02760   0.00000   0.00000   0.00000   0.00000
 151       18F 0        0.00000  -0.00399  -0.01939  -0.01478  -0.00452
 152       18F+1       -0.00933   0.00000   0.00000   0.00000   0.00000
 153       18F-1        0.00000   0.02843  -0.02446  -0.00071  -0.00719
 154       18F+2        0.00000   0.04255  -0.01294  -0.01445  -0.00874
 155       18F-2        0.01286   0.00000   0.00000   0.00000   0.00000
 156       18F+3        0.05044   0.00000   0.00000   0.00000   0.00000
 157       18F-3        0.00000  -0.04020   0.01416   0.01989   0.01212
 158       19F 0        0.00000  -0.02466   0.10714   0.03140  -0.01030
 159       19F+1        0.00624   0.00000   0.00000   0.00000   0.00000
 160       19F-1        0.00000  -0.10994   0.13167  -0.02762   0.03145
 161       19F+2        0.00000  -0.17944   0.16345   0.05207   0.01828
 162       19F-2       -0.01989   0.00000   0.00000   0.00000   0.00000
 163       19F+3       -0.11139   0.00000   0.00000   0.00000   0.00000
 164       19F-3        0.00000   0.17054  -0.10605  -0.10006  -0.02256
 165 4   O  1S          0.00000  -0.00115  -0.00030   0.09969   0.02935
 166        2S          0.00000  -0.00524  -0.00172   0.52422   0.15376
 167        3S          0.00000   0.00077  -0.00013   0.00475  -0.00556
 168        4S          0.00000   0.02924   0.00991  -6.19847   0.02485
 169        5S          0.00000   0.01537   0.07039 -15.16143  -8.00758
 170        6PX         0.01945   0.00000   0.00000   0.00000   0.00000
 171        6PY         0.00000   0.01525   0.00280   0.00012  -0.00003
 172        6PZ         0.00000   0.00045  -0.00007  -0.00527   0.01148
 173        7PX        -0.03540   0.00000   0.00000   0.00000   0.00000
 174        7PY         0.00000  -0.08013   0.03630  -0.00043   0.00033
 175        7PZ         0.00000  -0.00286   0.00076   0.14034  -0.13501
 176        8PX         0.78212   0.00000   0.00000   0.00000   0.00000
 177        8PY         0.00000   1.01648   0.13762   0.00732  -0.00169
 178        8PZ         0.00000  -0.00713  -0.00851   3.76571   0.67429
 179        9PX        -3.48153   0.00000   0.00000   0.00000   0.00000
 180        9PY         0.00000  -0.76959  -3.70314  -0.00840  -0.02200
 181        9PZ         0.00000  -0.01886   0.00377   0.28617   1.67222
 182       10D 0        0.00000   0.00035  -0.00030   0.05471   0.01245
 183       10D+1        0.03549   0.00000   0.00000   0.00000   0.00000
 184       10D-1        0.00000   0.00137   0.03702   0.00003  -0.00002
 185       10D+2        0.00000   0.00043   0.00014  -0.02688  -0.01064
 186       10D-2        0.00012   0.00000   0.00000   0.00000   0.00000
 187       11D 0        0.00000   0.00066   0.00138  -0.40229  -0.02882
 188       11D+1       -0.23774   0.00000   0.00000   0.00000   0.00000
 189       11D-1        0.00000  -0.03498  -0.20796  -0.00082  -0.00004
 190       11D+2        0.00000  -0.00164  -0.00031   0.07700   0.03389
 191       11D-2       -0.00035   0.00000   0.00000   0.00000   0.00000
 192       12D 0        0.00000   0.00576   0.00080  -0.50141  -0.18981
 193       12D+1       -0.08645   0.00000   0.00000   0.00000   0.00000
 194       12D-1        0.00000  -0.30794   0.15249  -0.00311   0.00057
 195       12D+2        0.00000   0.00683   0.00081  -0.37627   0.05959
 196       12D-2        0.00169   0.00000   0.00000   0.00000   0.00000
 197       13F 0        0.00000  -0.00055   0.00018   0.01815  -0.01323
 198       13F+1       -0.00512   0.00000   0.00000   0.00000   0.00000
 199       13F-1        0.00000  -0.01467  -0.00261  -0.00016  -0.00005
 200       13F+2        0.00000   0.00003   0.00000  -0.01301   0.01486
 201       13F-2       -0.00005   0.00000   0.00000   0.00000   0.00000
 202       13F+3        0.01414   0.00000   0.00000   0.00000   0.00000
 203       13F-3        0.00000  -0.01017   0.01637  -0.00001  -0.00002
 204       14F 0        0.00000   0.00000  -0.00117   0.14421   0.06392
 205       14F+1        0.16884   0.00000   0.00000   0.00000   0.00000
 206       14F-1        0.00000   0.07234   0.09753   0.00133   0.00006
 207       14F+2        0.00000  -0.00018  -0.00009   0.05839  -0.03858
 208       14F-2       -0.00009   0.00000   0.00000   0.00000   0.00000
 209       14F+3       -0.02569   0.00000   0.00000   0.00000   0.00000
 210       14F-3        0.00000   0.02560  -0.02856   0.00009   0.00004
          Condensed to atoms (all electrons):
              1          2          3          4
     1  C    5.553822   0.030215   0.023986   0.238747
     2  Br   0.030215  35.045266  -0.116772  -0.055098
     3  Br   0.023986  -0.116772  35.041910  -0.055763
     4  O    0.238747  -0.055098  -0.055763   8.228372
 Mulliken atomic charges:
              1
     1  C    0.153231
     2  Br   0.096389
     3  Br   0.106639
     4  O   -0.356259
 Sum of Mulliken atomic charges =   0.00000
 Mulliken charges with hydrogens summed into heavy atoms:
              1
     1  C    0.153231
     2  Br   0.096389
     3  Br   0.106639
     4  O   -0.356259
 Sum of Mulliken charges with hydrogens summed into heavy atoms =   0.00000
 Electronic spatial extent (au):  <R**2>=           1359.6413
 Charge=              0.0000 electrons
 Dipole moment (field-independent basis, Debye):
    X=              0.0000    Y=              0.0370    Z=             -1.2269  Tot=              1.2274
 Quadrupole moment (field-independent basis, Debye-Ang):
   XX=            -46.9795   YY=            -44.9306   ZZ=            -47.5513
   XY=              0.0000   XZ=              0.0000   YZ=             -0.0603
 Traceless Quadrupole moment (field-independent basis, Debye-Ang):
   XX=             -0.4924   YY=              1.5566   ZZ=             -1.0641
   XY=              0.0000   XZ=              0.0000   YZ=             -0.0603
 Octapole moment (field-independent basis, Debye-Ang**2):
  XXX=              0.0000  YYY=              0.6710  ZZZ=            164.9261  XYY=              0.0000
  XXY=              0.2295  XXZ=             56.3403  XZZ=              0.0000  YZZ=              0.3231
  YYZ=             45.7002  XYZ=              0.0000
 Hexadecapole moment (field-independent basis, Debye-Ang**3):
 XXXX=            -53.7443 YYYY=           -574.0378 ZZZZ=           -597.4144 XXXY=              0.0000
 XXXZ=              0.0000 YYYX=              0.0000 YYYZ=             -0.9756 ZZZX=              0.0000
 ZZZY=             -1.2128 XXYY=           -111.9863 XXZZ=           -110.4650 YYZZ=           -175.6669
 XXYZ=             -0.3545 YYXZ=              0.0000 ZZXY=              0.0000
 N-N= 4.482293916174D+02 E-N=-1.346820564410D+04  KE= 5.257216570613D+03
 1\1\GINC-TRAPISTA\SP\RQCISD-FC\Aug-CC-pVTZ\C1Br2O1\BRUNS\28-Nov-2021\0
 \\# qcisd/aug-cc-pvtz nosymm density=current output=wfn\\br2co-wavefun
 ction\\0,1\C,0,0.,0.,-0.491759\Br,0,0.,-1.604181,-1.54682\Br,0,0.,1.59
 4181,-1.54682\O,0,0.,0.,0.6845\\Version=EM64L-G09RevB.01\HF=-5257.6844
 983\MP2=-5258.5485466\MP3=-5258.5484304\MP4D=-5258.5696729\MP4DQ=-5258
 .5481628\MP4SDQ=-5258.5601515\QCISD=-5258.557746\RMSD=9.243e-09\Dipole
 =0.,0.0145644,-0.4826862\Quadrupole=-0.366096,1.1572602,-0.7911642,0.,
 0.,-0.0448356\PG=CS [SG(C1Br2O1)]\\@

 Writing a WFN file to GAUSSIAN.wfn.


 THE DIFFERENCE BETWEEN A NOOSE AND A HALO IS ONLY 12 INCHES.
 Job cpu time:  0 days  5 hours 12 minutes  6.5 seconds.
 File lengths (MBytes):  RWF=  23799 Int=      0 D2E=      0 Chk=      4 Scr=      1
 Normal termination of Gaussian 09 at Sun Nov 28 12:46:26 2021.
