 br2co-wavefunction
GAUSSIAN            210 MOL ORBITALS    578 PRIMITIVES        4 NUCLEI
  C    1    (CENTRE  1)   0.01889726  0.00000000 -0.92928983  CHARGE =  6.0
  Br   2    (CENTRE  2)   0.00000000 -3.01256550 -2.92306618  CHARGE = 35.0
  Br   3    (CENTRE  3)   0.00000000  3.01256550 -2.92306618  CHARGE = 35.0
  O    4    (CENTRE  4)   0.00000000  0.00000000  1.29351754  CHARGE =  8.0
CENTRE ASSIGNMENTS    1  1  1  1  1  1  1  1  1  1  1  1  1  1  1  1  1  1  1  1
CENTRE ASSIGNMENTS    1  1  1  1  1  1  1  1  1  1  1  1  1  1  1  1  1  1  1  1
CENTRE ASSIGNMENTS    1  1  1  1  1  1  1  1  1  1  1  1  1  1  1  1  1  1  1  1
CENTRE ASSIGNMENTS    1  1  1  1  1  1  1  1  1  1  1  1  2  2  2  2  2  2  2  2
CENTRE ASSIGNMENTS    2  2  2  2  2  2  2  2  2  2  2  2  2  2  2  2  2  2  2  2
CENTRE ASSIGNMENTS    2  2  2  2  2  2  2  2  2  2  2  2  2  2  2  2  2  2  2  2
CENTRE ASSIGNMENTS    2  2  2  2  2  2  2  2  2  2  2  2  2  2  2  2  2  2  2  2
CENTRE ASSIGNMENTS    2  2  2  2  2  2  2  2  2  2  2  2  2  2  2  2  2  2  2  2
CENTRE ASSIGNMENTS    2  2  2  2  2  2  2  2  2  2  2  2  2  2  2  2  2  2  2  2
CENTRE ASSIGNMENTS    2  2  2  2  2  2  2  2  2  2  2  2  2  2  2  2  2  2  2  2
CENTRE ASSIGNMENTS    2  2  2  2  2  2  2  2  2  2  2  2  2  2  2  2  2  2  2  2
CENTRE ASSIGNMENTS    2  2  2  2  2  2  2  2  2  2  2  2  2  2  2  2  2  2  2  2
CENTRE ASSIGNMENTS    2  2  2  2  2  2  2  2  2  2  2  2  2  2  2  2  2  2  2  2
CENTRE ASSIGNMENTS    2  2  2  2  2  2  2  2  2  2  2  2  2  2  2  2  2  2  2  2
CENTRE ASSIGNMENTS    2  2  2  2  2  2  2  2  2  3  3  3  3  3  3  3  3  3  3  3
CENTRE ASSIGNMENTS    3  3  3  3  3  3  3  3  3  3  3  3  3  3  3  3  3  3  3  3
CENTRE ASSIGNMENTS    3  3  3  3  3  3  3  3  3  3  3  3  3  3  3  3  3  3  3  3
CENTRE ASSIGNMENTS    3  3  3  3  3  3  3  3  3  3  3  3  3  3  3  3  3  3  3  3
CENTRE ASSIGNMENTS    3  3  3  3  3  3  3  3  3  3  3  3  3  3  3  3  3  3  3  3
CENTRE ASSIGNMENTS    3  3  3  3  3  3  3  3  3  3  3  3  3  3  3  3  3  3  3  3
CENTRE ASSIGNMENTS    3  3  3  3  3  3  3  3  3  3  3  3  3  3  3  3  3  3  3  3
CENTRE ASSIGNMENTS    3  3  3  3  3  3  3  3  3  3  3  3  3  3  3  3  3  3  3  3
CENTRE ASSIGNMENTS    3  3  3  3  3  3  3  3  3  3  3  3  3  3  3  3  3  3  3  3
CENTRE ASSIGNMENTS    3  3  3  3  3  3  3  3  3  3  3  3  3  3  3  3  3  3  3  3
CENTRE ASSIGNMENTS    3  3  3  3  3  3  3  3  3  3  3  3  3  3  3  3  3  3  3  3
CENTRE ASSIGNMENTS    3  3  3  3  3  3  4  4  4  4  4  4  4  4  4  4  4  4  4  4
CENTRE ASSIGNMENTS    4  4  4  4  4  4  4  4  4  4  4  4  4  4  4  4  4  4  4  4
CENTRE ASSIGNMENTS    4  4  4  4  4  4  4  4  4  4  4  4  4  4  4  4  4  4  4  4
CENTRE ASSIGNMENTS    4  4  4  4  4  4  4  4  4  4  4  4  4  4  4  4  4  4
TYPE ASSIGNMENTS      1  1  1  1  1  1  1  1  1  1  1  1  1  1  1  1  2  2  2  3
TYPE ASSIGNMENTS      3  3  4  4  4  2  3  4  2  3  4  2  3  4  5  6  7  8  9 10
TYPE ASSIGNMENTS      5  6  7  8  9 10  5  6  7  8  9 10 11 12 13 17 14 15 18 19
TYPE ASSIGNMENTS     16 20 11 12 13 17 14 15 18 19 16 20  1  1  1  1  1  1  1  1
TYPE ASSIGNMENTS      1  1  1  1  1  1  1  1  1  1  1  1  1  1  1  1  1  1  1  1
TYPE ASSIGNMENTS      1  1  1  1  1  1  1  1  1  1  1  1  1  1  1  1  1  1  1  1
TYPE ASSIGNMENTS      1  1  2  2  2  2  2  2  2  2  2  3  3  3  3  3  3  3  3  3
TYPE ASSIGNMENTS      4  4  4  4  4  4  4  4  4  2  2  2  2  2  2  2  2  2  3  3
TYPE ASSIGNMENTS      3  3  3  3  3  3  3  4  4  4  4  4  4  4  4  4  2  2  2  2
TYPE ASSIGNMENTS      2  2  2  2  3  3  3  3  3  3  3  3  4  4  4  4  4  4  4  4
TYPE ASSIGNMENTS      2  3  4  2  3  4  2  3  4  5  5  5  5  5  5  5  6  6  6  6
TYPE ASSIGNMENTS      6  6  6  7  7  7  7  7  7  7  8  8  8  8  8  8  8  9  9  9
TYPE ASSIGNMENTS      9  9  9  9 10 10 10 10 10 10 10  5  6  7  8  9 10  5  6  7
TYPE ASSIGNMENTS      8  9 10  5  6  7  8  9 10 11 12 13 17 14 15 18 19 16 20 11
TYPE ASSIGNMENTS     12 13 17 14 15 18 19 16 20  1  1  1  1  1  1  1  1  1  1  1
TYPE ASSIGNMENTS      1  1  1  1  1  1  1  1  1  1  1  1  1  1  1  1  1  1  1  1
TYPE ASSIGNMENTS      1  1  1  1  1  1  1  1  1  1  1  1  1  1  1  1  1  1  1  2
TYPE ASSIGNMENTS      2  2  2  2  2  2  2  2  3  3  3  3  3  3  3  3  3  4  4  4
TYPE ASSIGNMENTS      4  4  4  4  4  4  2  2  2  2  2  2  2  2  2  3  3  3  3  3
TYPE ASSIGNMENTS      3  3  3  3  4  4  4  4  4  4  4  4  4  2  2  2  2  2  2  2
TYPE ASSIGNMENTS      2  3  3  3  3  3  3  3  3  4  4  4  4  4  4  4  4  2  3  4
TYPE ASSIGNMENTS      2  3  4  2  3  4  5  5  5  5  5  5  5  6  6  6  6  6  6  6
TYPE ASSIGNMENTS      7  7  7  7  7  7  7  8  8  8  8  8  8  8  9  9  9  9  9  9
TYPE ASSIGNMENTS      9 10 10 10 10 10 10 10  5  6  7  8  9 10  5  6  7  8  9 10
TYPE ASSIGNMENTS      5  6  7  8  9 10 11 12 13 17 14 15 18 19 16 20 11 12 13 17
TYPE ASSIGNMENTS     14 15 18 19 16 20  1  1  1  1  1  1  1  1  1  1  1  1  1  1
TYPE ASSIGNMENTS      1  1  2  2  2  3  3  3  4  4  4  2  3  4  2  3  4  2  3  4
TYPE ASSIGNMENTS      5  6  7  8  9 10  5  6  7  8  9 10  5  6  7  8  9 10 11 12
TYPE ASSIGNMENTS     13 17 14 15 18 19 16 20 11 12 13 17 14 15 18 19 16 20
EXPONENTS  0.8236000D+04 0.1235000D+04 0.2808000D+03 0.7927000D+02 0.2559000D+02
EXPONENTS  0.8997000D+01 0.3319000D+01 0.2808000D+03 0.7927000D+02 0.2559000D+02
EXPONENTS  0.8997000D+01 0.3319000D+01 0.3643000D+00 0.9059000D+00 0.1285000D+00
EXPONENTS  0.4402000D-01 0.1871000D+02 0.4133000D+01 0.1200000D+01 0.1871000D+02
EXPONENTS  0.4133000D+01 0.1200000D+01 0.1871000D+02 0.4133000D+01 0.1200000D+01
EXPONENTS  0.3827000D+00 0.3827000D+00 0.3827000D+00 0.1209000D+00 0.1209000D+00
EXPONENTS  0.1209000D+00 0.3569000D-01 0.3569000D-01 0.3569000D-01 0.1097000D+01
EXPONENTS  0.1097000D+01 0.1097000D+01 0.1097000D+01 0.1097000D+01 0.1097000D+01
EXPONENTS  0.3180000D+00 0.3180000D+00 0.3180000D+00 0.3180000D+00 0.3180000D+00
EXPONENTS  0.3180000D+00 0.1000000D+00 0.1000000D+00 0.1000000D+00 0.1000000D+00
EXPONENTS  0.1000000D+00 0.1000000D+00 0.7610000D+00 0.7610000D+00 0.7610000D+00
EXPONENTS  0.7610000D+00 0.7610000D+00 0.7610000D+00 0.7610000D+00 0.7610000D+00
EXPONENTS  0.7610000D+00 0.7610000D+00 0.2680000D+00 0.2680000D+00 0.2680000D+00
EXPONENTS  0.2680000D+00 0.2680000D+00 0.2680000D+00 0.2680000D+00 0.2680000D+00
EXPONENTS  0.2680000D+00 0.2680000D+00 0.1063900D+08 0.1593400D+07 0.3626100D+06
EXPONENTS  0.1027000D+06 0.3350100D+05 0.1209300D+05 0.4715900D+04 0.1955600D+04
EXPONENTS  0.8526100D+03 0.3876700D+03 0.1826800D+03 0.8824500D+02 0.3926300D+02
EXPONENTS  0.9405700D+01 0.1899500D+01 0.3350100D+05 0.1209300D+05 0.4715900D+04
EXPONENTS  0.1955600D+04 0.8526100D+03 0.3876700D+03 0.1826800D+03 0.8824500D+02
EXPONENTS  0.3926300D+02 0.1923400D+02 0.9405700D+01 0.1899500D+01 0.4715900D+04
EXPONENTS  0.8526100D+03 0.3876700D+03 0.1826800D+03 0.8824500D+02 0.3926300D+02
EXPONENTS  0.1923400D+02 0.9405700D+01 0.4160100D+01 0.1899500D+01 0.4715900D+04
EXPONENTS  0.8526100D+03 0.3876700D+03 0.8824500D+02 0.3926300D+02 0.1923400D+02
EXPONENTS  0.9405700D+01 0.4160100D+01 0.1899500D+01 0.3011400D+00 0.6047200D+00
EXPONENTS  0.1251500D+00 0.4559300D-01 0.8676500D+04 0.2055900D+04 0.6662300D+03
EXPONENTS  0.2531000D+03 0.1061200D+03 0.4724200D+02 0.2182500D+02 0.9968400D+01
EXPONENTS  0.1998200D+01 0.8676500D+04 0.2055900D+04 0.6662300D+03 0.2531000D+03
EXPONENTS  0.1061200D+03 0.4724200D+02 0.2182500D+02 0.9968400D+01 0.1998200D+01
EXPONENTS  0.8676500D+04 0.2055900D+04 0.6662300D+03 0.2531000D+03 0.1061200D+03
EXPONENTS  0.4724200D+02 0.2182500D+02 0.9968400D+01 0.1998200D+01 0.8676500D+04
EXPONENTS  0.6662300D+03 0.2531000D+03 0.1061200D+03 0.4724200D+02 0.2182500D+02
EXPONENTS  0.9968400D+01 0.4517100D+01 0.1998200D+01 0.8676500D+04 0.6662300D+03
EXPONENTS  0.2531000D+03 0.1061200D+03 0.4724200D+02 0.2182500D+02 0.9968400D+01
EXPONENTS  0.4517100D+01 0.1998200D+01 0.8676500D+04 0.6662300D+03 0.2531000D+03
EXPONENTS  0.1061200D+03 0.4724200D+02 0.2182500D+02 0.9968400D+01 0.4517100D+01
EXPONENTS  0.1998200D+01 0.6662300D+03 0.1061200D+03 0.4724200D+02 0.2182500D+02
EXPONENTS  0.9968400D+01 0.4517100D+01 0.1998200D+01 0.2814500D+00 0.6662300D+03
EXPONENTS  0.1061200D+03 0.4724200D+02 0.2182500D+02 0.9968400D+01 0.4517100D+01
EXPONENTS  0.1998200D+01 0.2814500D+00 0.6662300D+03 0.1061200D+03 0.4724200D+02
EXPONENTS  0.2182500D+02 0.9968400D+01 0.4517100D+01 0.1998200D+01 0.2814500D+00
EXPONENTS  0.7098800D+00 0.7098800D+00 0.7098800D+00 0.1020400D+00 0.1020400D+00
EXPONENTS  0.1020400D+00 0.3514200D-01 0.3514200D-01 0.3514200D-01 0.4038300D+03
EXPONENTS  0.1211700D+03 0.4634500D+02 0.1972100D+02 0.8862400D+01 0.3996200D+01
EXPONENTS  0.1763600D+01 0.4038300D+03 0.1211700D+03 0.4634500D+02 0.1972100D+02
EXPONENTS  0.8862400D+01 0.3996200D+01 0.1763600D+01 0.4038300D+03 0.1211700D+03
EXPONENTS  0.4634500D+02 0.1972100D+02 0.8862400D+01 0.3996200D+01 0.1763600D+01
EXPONENTS  0.4038300D+03 0.1211700D+03 0.4634500D+02 0.1972100D+02 0.8862400D+01
EXPONENTS  0.3996200D+01 0.1763600D+01 0.4038300D+03 0.1211700D+03 0.4634500D+02
EXPONENTS  0.1972100D+02 0.8862400D+01 0.3996200D+01 0.1763600D+01 0.4038300D+03
EXPONENTS  0.1211700D+03 0.4634500D+02 0.1972100D+02 0.8862400D+01 0.3996200D+01
EXPONENTS  0.1763600D+01 0.7061900D+00 0.7061900D+00 0.7061900D+00 0.7061900D+00
EXPONENTS  0.7061900D+00 0.7061900D+00 0.2639000D+00 0.2639000D+00 0.2639000D+00
EXPONENTS  0.2639000D+00 0.2639000D+00 0.2639000D+00 0.1047000D+00 0.1047000D+00
EXPONENTS  0.1047000D+00 0.1047000D+00 0.1047000D+00 0.1047000D+00 0.5515000D+00
EXPONENTS  0.5515000D+00 0.5515000D+00 0.5515000D+00 0.5515000D+00 0.5515000D+00
EXPONENTS  0.5515000D+00 0.5515000D+00 0.5515000D+00 0.5515000D+00 0.2580000D+00
EXPONENTS  0.2580000D+00 0.2580000D+00 0.2580000D+00 0.2580000D+00 0.2580000D+00
EXPONENTS  0.2580000D+00 0.2580000D+00 0.2580000D+00 0.2580000D+00 0.1063900D+08
EXPONENTS  0.1593400D+07 0.3626100D+06 0.1027000D+06 0.3350100D+05 0.1209300D+05
EXPONENTS  0.4715900D+04 0.1955600D+04 0.8526100D+03 0.3876700D+03 0.1826800D+03
EXPONENTS  0.8824500D+02 0.3926300D+02 0.9405700D+01 0.1899500D+01 0.3350100D+05
EXPONENTS  0.1209300D+05 0.4715900D+04 0.1955600D+04 0.8526100D+03 0.3876700D+03
EXPONENTS  0.1826800D+03 0.8824500D+02 0.3926300D+02 0.1923400D+02 0.9405700D+01
EXPONENTS  0.1899500D+01 0.4715900D+04 0.8526100D+03 0.3876700D+03 0.1826800D+03
EXPONENTS  0.8824500D+02 0.3926300D+02 0.1923400D+02 0.9405700D+01 0.4160100D+01
EXPONENTS  0.1899500D+01 0.4715900D+04 0.8526100D+03 0.3876700D+03 0.8824500D+02
EXPONENTS  0.3926300D+02 0.1923400D+02 0.9405700D+01 0.4160100D+01 0.1899500D+01
EXPONENTS  0.3011400D+00 0.6047200D+00 0.1251500D+00 0.4559300D-01 0.8676500D+04
EXPONENTS  0.2055900D+04 0.6662300D+03 0.2531000D+03 0.1061200D+03 0.4724200D+02
EXPONENTS  0.2182500D+02 0.9968400D+01 0.1998200D+01 0.8676500D+04 0.2055900D+04
EXPONENTS  0.6662300D+03 0.2531000D+03 0.1061200D+03 0.4724200D+02 0.2182500D+02
EXPONENTS  0.9968400D+01 0.1998200D+01 0.8676500D+04 0.2055900D+04 0.6662300D+03
EXPONENTS  0.2531000D+03 0.1061200D+03 0.4724200D+02 0.2182500D+02 0.9968400D+01
EXPONENTS  0.1998200D+01 0.8676500D+04 0.6662300D+03 0.2531000D+03 0.1061200D+03
EXPONENTS  0.4724200D+02 0.2182500D+02 0.9968400D+01 0.4517100D+01 0.1998200D+01
EXPONENTS  0.8676500D+04 0.6662300D+03 0.2531000D+03 0.1061200D+03 0.4724200D+02
EXPONENTS  0.2182500D+02 0.9968400D+01 0.4517100D+01 0.1998200D+01 0.8676500D+04
EXPONENTS  0.6662300D+03 0.2531000D+03 0.1061200D+03 0.4724200D+02 0.2182500D+02
EXPONENTS  0.9968400D+01 0.4517100D+01 0.1998200D+01 0.6662300D+03 0.1061200D+03
EXPONENTS  0.4724200D+02 0.2182500D+02 0.9968400D+01 0.4517100D+01 0.1998200D+01
EXPONENTS  0.2814500D+00 0.6662300D+03 0.1061200D+03 0.4724200D+02 0.2182500D+02
EXPONENTS  0.9968400D+01 0.4517100D+01 0.1998200D+01 0.2814500D+00 0.6662300D+03
EXPONENTS  0.1061200D+03 0.4724200D+02 0.2182500D+02 0.9968400D+01 0.4517100D+01
EXPONENTS  0.1998200D+01 0.2814500D+00 0.7098800D+00 0.7098800D+00 0.7098800D+00
EXPONENTS  0.1020400D+00 0.1020400D+00 0.1020400D+00 0.3514200D-01 0.3514200D-01
EXPONENTS  0.3514200D-01 0.4038300D+03 0.1211700D+03 0.4634500D+02 0.1972100D+02
EXPONENTS  0.8862400D+01 0.3996200D+01 0.1763600D+01 0.4038300D+03 0.1211700D+03
EXPONENTS  0.4634500D+02 0.1972100D+02 0.8862400D+01 0.3996200D+01 0.1763600D+01
EXPONENTS  0.4038300D+03 0.1211700D+03 0.4634500D+02 0.1972100D+02 0.8862400D+01
EXPONENTS  0.3996200D+01 0.1763600D+01 0.4038300D+03 0.1211700D+03 0.4634500D+02
EXPONENTS  0.1972100D+02 0.8862400D+01 0.3996200D+01 0.1763600D+01 0.4038300D+03
EXPONENTS  0.1211700D+03 0.4634500D+02 0.1972100D+02 0.8862400D+01 0.3996200D+01
EXPONENTS  0.1763600D+01 0.4038300D+03 0.1211700D+03 0.4634500D+02 0.1972100D+02
EXPONENTS  0.8862400D+01 0.3996200D+01 0.1763600D+01 0.7061900D+00 0.7061900D+00
EXPONENTS  0.7061900D+00 0.7061900D+00 0.7061900D+00 0.7061900D+00 0.2639000D+00
EXPONENTS  0.2639000D+00 0.2639000D+00 0.2639000D+00 0.2639000D+00 0.2639000D+00
EXPONENTS  0.1047000D+00 0.1047000D+00 0.1047000D+00 0.1047000D+00 0.1047000D+00
EXPONENTS  0.1047000D+00 0.5515000D+00 0.5515000D+00 0.5515000D+00 0.5515000D+00
EXPONENTS  0.5515000D+00 0.5515000D+00 0.5515000D+00 0.5515000D+00 0.5515000D+00
EXPONENTS  0.5515000D+00 0.2580000D+00 0.2580000D+00 0.2580000D+00 0.2580000D+00
EXPONENTS  0.2580000D+00 0.2580000D+00 0.2580000D+00 0.2580000D+00 0.2580000D+00
EXPONENTS  0.2580000D+00 0.1533000D+05 0.2299000D+04 0.5224000D+03 0.1473000D+03
EXPONENTS  0.4755000D+02 0.1676000D+02 0.6207000D+01 0.5224000D+03 0.1473000D+03
EXPONENTS  0.4755000D+02 0.1676000D+02 0.6207000D+01 0.6882000D+00 0.1752000D+01
EXPONENTS  0.2384000D+00 0.7376000D-01 0.3446000D+02 0.7749000D+01 0.2280000D+01
EXPONENTS  0.3446000D+02 0.7749000D+01 0.2280000D+01 0.3446000D+02 0.7749000D+01
EXPONENTS  0.2280000D+01 0.7156000D+00 0.7156000D+00 0.7156000D+00 0.2140000D+00
EXPONENTS  0.2140000D+00 0.2140000D+00 0.5974000D-01 0.5974000D-01 0.5974000D-01
EXPONENTS  0.2314000D+01 0.2314000D+01 0.2314000D+01 0.2314000D+01 0.2314000D+01
EXPONENTS  0.2314000D+01 0.6450000D+00 0.6450000D+00 0.6450000D+00 0.6450000D+00
EXPONENTS  0.6450000D+00 0.6450000D+00 0.2140000D+00 0.2140000D+00 0.2140000D+00
EXPONENTS  0.2140000D+00 0.2140000D+00 0.2140000D+00 0.1428000D+01 0.1428000D+01
EXPONENTS  0.1428000D+01 0.1428000D+01 0.1428000D+01 0.1428000D+01 0.1428000D+01
EXPONENTS  0.1428000D+01 0.1428000D+01 0.1428000D+01 0.5000000D+00 0.5000000D+00
EXPONENTS  0.5000000D+00 0.5000000D+00 0.5000000D+00 0.5000000D+00 0.5000000D+00
EXPONENTS  0.5000000D+00 0.5000000D+00 0.5000000D+00
MO    1     MO 0.0        OCC NO =    2.0000166  ORB. ENERGY =    0.000000
  0.12316434D+00  0.22960315D+00  0.38806060D+00  0.58332746D+00  0.71651330D+00
  0.60471195D+00  0.22738748D+00  0.29320663D-04  0.21915379D-03  0.81902775D-03
  0.22849599D-02  0.30612163D-02 -0.36147257D-02  0.94457735D-02 -0.19934425D-02
 -0.30911972D-03  0.93855263D-05  0.87995275D-05  0.62657878D-05  0.17686901D-11
  0.16582594D-11  0.11807795D-11  0.36720107D-02  0.34427434D-02  0.24514384D-02
 -0.33076303D-06  0.55535346D-12  0.19862506D-02  0.31298594D-05  0.22700540D-12
  0.38485965D-03 -0.25978202D-06 -0.13897308D-13  0.48942084D-05 -0.97161101D-04
 -0.49938216D-03  0.59654326D-03 -0.92536544D-13 -0.17657237D-04 -0.46515897D-12
  0.33695635D-03 -0.32300498D-03 -0.13951371D-04 -0.82810872D-13 -0.86866264D-05
 -0.23315773D-12  0.30920730D-04 -0.18797357D-04 -0.12123374D-04  0.17612495D-14
 -0.12360803D-05 -0.73204863D-13  0.27786083D-05  0.15204364D-13  0.12399238D-03
  0.20106028D-05  0.63940762D-13 -0.16591080D-03 -0.10346428D-04 -0.10955385D-12
 -0.20606634D-03 -0.10801781D-13 -0.63209795D-06 -0.60227272D-14 -0.14112042D-04
  0.10272758D-05 -0.60077865D-14  0.24945046D-05  0.86901804D-06  0.24075968D-13
  0.39841621D-04  0.17534582D-13 -0.34893507D-01 -0.65639942D-01 -0.11362609D+00
 -0.18625498D+00 -0.29177127D+00 -0.43855596D+00 -0.62679956D+00 -0.83207506D+00
 -0.96901152D+00 -0.88992497D+00 -0.52021958D+00 -0.13650258D+00 -0.77609301D-02
 -0.13541988D-03 -0.13631552D-04 -0.16556466D-02 -0.47827814D-02 -0.21920611D-01
 -0.64889783D-01 -0.18818226D+00 -0.39115420D+00 -0.55955073D+00 -0.16044107D+00
  0.64114399D+00  0.61992421D+00  0.13530793D+00 -0.19585414D-02 -0.10126649D-02
 -0.47242911D-02 -0.95875983D-02 -0.37575465D-01 -0.26367594D-01  0.17171575D+00
  0.53208815D+00  0.65086297D-01 -0.46512580D+00 -0.21828352D+00 -0.11090794D-05
 -0.15204598D-05  0.29150893D-05  0.61955232D-05 -0.23420812D-04 -0.75736955D-04
 -0.26340161D-04  0.25763546D-03  0.57466063D-03 -0.38132731D-03 -0.90603348D-02
  0.53754080D-03  0.15407416D-03  0.82198171D-01  0.11794211D+00  0.15616625D+00
  0.18034483D+00  0.16721367D+00  0.10828533D+00  0.38209475D-01  0.44026432D-02
 -0.71925664D-05  0.10012021D+02  0.14365756D+02  0.19021588D+02  0.21966624D+02
  0.20367203D+02  0.13189527D+02  0.46540461D+01  0.53625715D+00 -0.87607943D-03
  0.62270762D+01  0.89349248D+01  0.11830666D+02  0.13662360D+02  0.12667584D+02
  0.82033576D+01  0.28946303D+01  0.33353047D+00 -0.54488632D-03 -0.48531154D-03
  0.13837097D-02  0.67540648D-02  0.13995707D-01  0.17563230D-01  0.27852124D-02
 -0.22545354D-01 -0.19662817D-01 -0.50546197D-02 -0.59669830D-01  0.17012932D+00
  0.83042307D+00  0.17207945D+01  0.21594273D+01  0.34244633D+00 -0.27719873D+01
 -0.24175748D+01 -0.62147358D+00 -0.37192192D-01  0.10604157D+00  0.51760252D+00
  0.10725708D+01  0.13459705D+01  0.21344672D+00 -0.17277791D+01 -0.15068739D+01
 -0.38736435D+00 -0.18751285D-05 -0.26490669D-05  0.12325970D-05 -0.24701360D-05
 -0.27116565D-05 -0.73196108D-05 -0.23066027D-05  0.49523251D-05 -0.25820536D-03
 -0.36477675D-03  0.16972871D-03 -0.34013794D-03 -0.37339533D-03 -0.10079110D-02
 -0.31761940D-03  0.68193559D-03 -0.14273721D-03 -0.20165040D-03  0.93826878D-04
 -0.18802995D-03 -0.20641480D-03 -0.55717824D-03 -0.17558158D-03  0.37697739D-03
 -0.17827922D-03 -0.22009914D-01 -0.13838272D-01 -0.11111363D-07  0.12525940D-03
  0.59943476D-04  0.17400356D-06  0.87722226D-05  0.66693094D-05  0.10210366D+01
  0.10684048D+01  0.91033810D+00  0.59952646D+00  0.27630390D+00  0.82739649D-01
  0.14077450D-01 -0.12438087D+01 -0.13015118D+01 -0.11089577D+01 -0.73033247D+00
 -0.33658849D+00 -0.10079197D+00 -0.17148899D-01  0.22277204D+00  0.23310693D+00
  0.19861958D+00  0.13080601D+00  0.60284596D-01  0.18052320D-01  0.30714492D-02
 -0.44937181D-01 -0.47021919D-01 -0.40065191D-01 -0.26385957D-01 -0.12160502D-01
 -0.36414821D-02 -0.61956730D-03 -0.27496950D-01 -0.28772595D-01 -0.24515791D-01
 -0.16145502D-01 -0.74409811D-02 -0.22282138D-02 -0.37911170D-03 -0.37489715D+01
 -0.39228947D+01 -0.33425163D+01 -0.22012997D+01 -0.10145135D+01 -0.30379770D+00
 -0.51688603D-01  0.11365361D-02 -0.13740498D-02  0.23751371D-03 -0.43820795D-04
 -0.27107855D-04 -0.38077681D-02 -0.11622964D-03  0.11050999D-03  0.57196492D-05
  0.20275607D-05  0.17034080D-05  0.30455231D-03 -0.13574714D-04  0.15155555D-04
 -0.15808417D-05  0.17509526D-06  0.24369918D-06  0.28790910D-04  0.19964607D-05
 -0.40110513D-04  0.91939433D-04 -0.45116332D-05  0.20890491D-03  0.14520433D-03
 -0.14777489D-05 -0.88573368D-04 -0.42102263D-03 -0.89104194D-05 -0.52617722D-06
  0.97229627D-05 -0.20873017D-04  0.91915022D-06 -0.68876408D-04 -0.54589677D-04
  0.65938144D-06  0.39707520D-04  0.11720873D-03  0.22852421D-05 -0.34893507D-01
 -0.65639942D-01 -0.11362609D+00 -0.18625498D+00 -0.29177127D+00 -0.43855596D+00
 -0.62679956D+00 -0.83207506D+00 -0.96901152D+00 -0.88992497D+00 -0.52021958D+00
 -0.13650258D+00 -0.77609301D-02 -0.13541988D-03 -0.13631552D-04 -0.16556466D-02
 -0.47827814D-02 -0.21920611D-01 -0.64889783D-01 -0.18818226D+00 -0.39115420D+00
 -0.55955073D+00 -0.16044107D+00  0.64114399D+00  0.61992421D+00  0.13530794D+00
 -0.19585414D-02 -0.10126649D-02 -0.47242911D-02 -0.95875983D-02 -0.37575465D-01
 -0.26367594D-01  0.17171575D+00  0.53208815D+00  0.65086297D-01 -0.46512580D+00
 -0.21828352D+00 -0.11090794D-05 -0.15204598D-05  0.29150893D-05  0.61955232D-05
 -0.23420812D-04 -0.75736955D-04 -0.26340161D-04  0.25763546D-03  0.57466063D-03
 -0.38132731D-03 -0.90603348D-02  0.53754080D-03  0.15407416D-03  0.82198185D-01
  0.11794213D+00  0.15616627D+00  0.18034487D+00  0.16721370D+00  0.10828535D+00
  0.38209482D-01  0.44026440D-02 -0.71925677D-05 -0.10012021D+02 -0.14365756D+02
 -0.19021588D+02 -0.21966624D+02 -0.20367203D+02 -0.13189527D+02 -0.46540461D+01
 -0.53625715D+00  0.87607943D-03  0.62270762D+01  0.89349248D+01  0.11830666D+02
  0.13662360D+02  0.12667584D+02  0.82033576D+01  0.28946303D+01  0.33353047D+00
 -0.54488632D-03 -0.48531159D-03  0.13837098D-02  0.67540655D-02  0.13995708D-01
  0.17563232D-01  0.27852128D-02 -0.22545356D-01 -0.19662819D-01 -0.50546203D-02
  0.59669830D-01 -0.17012932D+00 -0.83042307D+00 -0.17207945D+01 -0.21594273D+01
 -0.34244633D+00  0.27719873D+01  0.24175748D+01  0.62147358D+00 -0.37192192D-01
  0.10604157D+00  0.51760252D+00  0.10725708D+01  0.13459705D+01  0.21344672D+00
 -0.17277791D+01 -0.15068739D+01 -0.38736435D+00 -0.18751284D-05 -0.26490668D-05
  0.12325969D-05 -0.24701359D-05 -0.27116563D-05 -0.73196104D-05 -0.23066026D-05
  0.49523249D-05  0.25820536D-03  0.36477675D-03 -0.16972871D-03  0.34013794D-03
  0.37339533D-03  0.10079110D-02  0.31761940D-03 -0.68193559D-03 -0.14273721D-03
 -0.20165040D-03  0.93826878D-04 -0.18802995D-03 -0.20641480D-03 -0.55717824D-03
 -0.17558158D-03  0.37697739D-03 -0.17827924D-03  0.22009914D-01 -0.13838272D-01
 -0.11111561D-07 -0.12525940D-03  0.59943476D-04  0.17400356D-06 -0.87722226D-05
  0.66693094D-05  0.10210366D+01  0.10684048D+01  0.91033810D+00  0.59952646D+00
  0.27630390D+00  0.82739649D-01  0.14077450D-01 -0.12438087D+01 -0.13015118D+01
 -0.11089577D+01 -0.73033247D+00 -0.33658849D+00 -0.10079197D+00 -0.17148899D-01
  0.22277204D+00  0.23310693D+00  0.19861958D+00  0.13080601D+00  0.60284596D-01
  0.18052320D-01  0.30714492D-02  0.44937182D-01  0.47021919D-01  0.40065191D-01
  0.26385958D-01  0.12160502D-01  0.36414821D-02  0.61956730D-03 -0.27496950D-01
 -0.28772596D-01 -0.24515791D-01 -0.16145502D-01 -0.74409812D-02 -0.22282139D-02
 -0.37911170D-03  0.37489715D+01  0.39228947D+01  0.33425163D+01  0.22012997D+01
  0.10145135D+01  0.30379770D+00  0.51688603D-01  0.11365361D-02 -0.13740498D-02
  0.23751371D-03  0.43820795D-04 -0.27107855D-04  0.38077681D-02 -0.11622964D-03
  0.11050999D-03  0.57196492D-05 -0.20275607D-05  0.17034080D-05 -0.30455231D-03
 -0.13574714D-04  0.15155555D-04 -0.15808417D-05 -0.17509526D-06  0.24369917D-06
 -0.28790910D-04  0.19964607D-05  0.40110513D-04  0.91939433D-04 -0.45116333D-05
 -0.20890491D-03  0.14520433D-03 -0.14777489D-05  0.88573368D-04 -0.42102263D-03
  0.89104196D-05 -0.52617722D-06 -0.97229627D-05 -0.20873017D-04  0.91915023D-06
  0.68876408D-04 -0.54589677D-04  0.65938144D-06 -0.39707520D-04  0.11720873D-03
 -0.22852421D-05 -0.35437161D-01 -0.66049041D-01 -0.11199543D+00 -0.16949318D+00
 -0.21142938D+00 -0.18143786D+00 -0.69481062D-01 -0.34385236D-05 -0.36893102D-04
 -0.13599492D-03 -0.39764117D-03 -0.47917694D-03  0.57721941D-03 -0.31481377D-02
  0.29516965D-03  0.68380332D-04  0.21414211D-05  0.20764582D-05  0.14007664D-05
 -0.88312805D-12 -0.85633714D-12 -0.57767998D-12  0.27620879D-02  0.26782961D-02
  0.18067628D-02  0.76792912D-06 -0.24138217D-12  0.61981082D-03  0.56287751D-05
 -0.32871303D-14  0.77279638D-04  0.85373020D-06  0.23968714D-13  0.74414670D-05
  0.28557491D-03 -0.50164677D-04 -0.23541023D-03 -0.44864912D-13  0.88642917D-05
 -0.48728289D-13  0.32373496D-04  0.15424980D-03 -0.18662330D-03  0.10576282D-13
 -0.28416720D-05 -0.11930416D-12  0.25016126D-05  0.45619691D-04 -0.48121304D-04
  0.53168563D-16 -0.21258671D-05 -0.31353549D-14 -0.82010180D-06 -0.37654501D-13
 -0.29132036D-03 -0.80787349D-05  0.87582534D-14  0.43122545D-03  0.10539040D-04
  0.10420525D-12  0.44273563D-03 -0.62877362D-15 -0.11469147D-05 -0.38056141D-14
  0.79494324D-04  0.19131174D-05 -0.21516387D-13 -0.39919721D-04  0.15276266D-05
  0.32933229D-13 -0.19856325D-03 -0.15557186D-13
MO    2     MO 0.0        OCC NO =    2.0000158  ORB. ENERGY =    0.000000
  0.75543141D-10  0.14082763D-09  0.23801789D-09  0.35778528D-09  0.43947513D-09
  0.37090151D-09  0.13946865D-09  0.12318186D-13  0.92070810D-13  0.34408964D-12
  0.95995652D-12  0.12860771D-11 -0.15186172D-11  0.60508654D-11 -0.28350172D-12
  0.11731798D-12  0.16644255D-12  0.15605047D-12  0.11111723D-12 -0.58456848D-02
 -0.54807011D-02 -0.39025857D-02  0.80404178D-12  0.75384028D-12  0.53677919D-12
  0.60346995D-13 -0.19747608D-02  0.77292476D-12  0.23311596D-13 -0.45294105D-03
 -0.10268572D-12  0.43071122D-15  0.16104917D-04 -0.11424493D-13 -0.15728464D-12
 -0.20748897D-12  0.36477361D-12  0.84800173D-05 -0.45087485D-13  0.14553717D-02
  0.12090878D-12 -0.11775924D-12 -0.31495393D-14  0.40470284D-05 -0.29844229D-13
  0.62683391D-03  0.43470594D-14  0.55297247D-14 -0.98767840D-14  0.84035388D-06
 -0.31245995D-14  0.13314712D-03  0.71951957D-14  0.55479888D-04  0.95399067D-13
 -0.45067509D-14 -0.14623703D-03 -0.15077337D-12 -0.17078836D-13 -0.20202632D-04
 -0.13542383D-12  0.27217799D-05 -0.41508833D-14 -0.45915647D-04 -0.23426325D-13
  0.83033614D-14  0.95157252D-05  0.27856289D-13  0.41492885D-14  0.12823121D-03
  0.42422685D-13  0.56734673D-05  0.31203716D-01  0.58698890D-01  0.10161078D+00
  0.16655957D+00  0.26091811D+00  0.39218115D+00  0.56051906D+00  0.74408784D+00
  0.86654404D+00  0.79582045D+00  0.46520931D+00  0.12206821D+00  0.69402557D-02
  0.12110000D-03  0.12190093D-04  0.14803253D-02  0.42763187D-02  0.19599373D-01
  0.58018414D-01  0.16825509D+00  0.34973374D+00  0.50029827D+00  0.14345149D+00
 -0.57325138D+00 -0.55427862D+00 -0.12097978D+00  0.17511457D-02  0.90079781D-03
  0.42024081D-02  0.85284754D-02  0.33424578D-01  0.23454818D-01 -0.15274665D+00
 -0.47330944D+00 -0.57896344D-01  0.41374428D+00  0.19417018D+00  0.98244761D-06
  0.13468577D-05 -0.25822520D-05 -0.54881346D-05  0.20746684D-04  0.67089507D-04
  0.23332710D-04 -0.22821932D-03 -0.50904738D-03  0.33778835D-03  0.80843854D-02
 -0.40012195D-03  0.28242375D-04 -0.98716354D-01 -0.14164323D+00 -0.18754873D+00
 -0.21658614D+00 -0.20081620D+00 -0.13004587D+00 -0.45887883D-01 -0.52873790D-02
  0.86379529D-05 -0.11511749D+02 -0.16517642D+02 -0.21870884D+02 -0.25257064D+02
 -0.23418062D+02 -0.15165222D+02 -0.53511883D+01 -0.61658457D+00  0.10073098D-02
 -0.68597691D+01 -0.98427448D+01 -0.13032704D+02 -0.15050504D+02 -0.13954656D+02
 -0.90368478D+01 -0.31887349D+01 -0.36741835D+00  0.60024870D-03  0.58851249D-03
 -0.16779540D-02 -0.81903091D-02 -0.16971878D-01 -0.21298031D-01 -0.33774847D-02
  0.27339598D-01  0.23844093D-01  0.61294790D-02  0.68957491D-01 -0.19661009D+00
 -0.95967914D+00 -0.19886377D+01 -0.24955440D+01 -0.39574839D+00  0.32034495D+01
  0.27938724D+01  0.71820649D+00  0.41029471D-01 -0.11698233D+00 -0.57100580D+00
 -0.11832326D+01 -0.14848401D+01 -0.23546894D+00  0.19060415D+01  0.16623445D+01
  0.42733040D+00  0.16789616D-05  0.23719344D-05 -0.11036487D-05  0.22117223D-05
  0.24279761D-05  0.65538684D-05  0.20652971D-05 -0.44342368D-05  0.78326112D-04
  0.11065434D-03 -0.51486888D-04  0.10318021D-03  0.11326878D-03  0.30574793D-03
  0.96349250D-04 -0.20686389D-03  0.10397419D-03  0.14688838D-03 -0.68346395D-04
  0.13696682D-03  0.15035891D-03  0.40586583D-03  0.12789905D-03 -0.27460197D-03
  0.21916540D-03  0.25436150D-01  0.15204526D-01  0.74766174D-06  0.98629763D-04
  0.17960725D-04  0.37701845D-07 -0.16853243D-05  0.13335671D-06 -0.11585274D+01
 -0.12122741D+01 -0.10329224D+01 -0.68025750D+00 -0.31351043D+00 -0.93881205D-01
 -0.15973091D-01  0.14140391D+01  0.14796396D+01  0.12607321D+01  0.83028740D+00
  0.38265474D+00  0.11458658D+00  0.19495936D-01 -0.25551170D+00 -0.26736547D+00
 -0.22780969D+00 -0.15002990D+00 -0.69144315D-01 -0.20705377D-01 -0.35228443D-02
  0.50014831D-01  0.52335132D-01  0.44592333D-01  0.29367423D-01  0.13534571D-01
  0.40529491D-02  0.68957493D-03  0.30384628D-01  0.31794239D-01  0.27090393D-01
  0.17841072D-01  0.82224189D-02  0.24622167D-02  0.41892529D-03  0.42098384D+01
  0.44051422D+01  0.37534170D+01  0.24719088D+01  0.11392292D+01  0.34114402D+00
  0.58042763D-01 -0.11862458D-02  0.13737621D-02 -0.18751632D-03  0.47488658D-04
  0.29598530D-04  0.40800742D-02  0.68678697D-04 -0.35324285D-04 -0.33354412D-04
 -0.29361369D-05 -0.21966483D-05 -0.17575612D-03 -0.38673415D-05  0.29632818D-05
  0.90405970D-06 -0.14104532D-06  0.24186700D-06 -0.18973134D-04 -0.16184378D-05
  0.40020432D-04 -0.11327169D-03  0.51839814D-05 -0.23452816D-03 -0.14316174D-03
 -0.32866812D-06  0.11446686D-03  0.48297682D-03  0.85926161D-05  0.32785659D-06
  0.30766417D-05  0.20651447D-04 -0.13352356D-05  0.40932909D-04  0.31484248D-04
  0.35166579D-06 -0.50162834D-04 -0.93438589D-04 -0.20278461D-05 -0.31203716D-01
 -0.58698890D-01 -0.10161078D+00 -0.16655957D+00 -0.26091811D+00 -0.39218115D+00
 -0.56051906D+00 -0.74408784D+00 -0.86654404D+00 -0.79582045D+00 -0.46520931D+00
 -0.12206821D+00 -0.69402557D-02 -0.12110000D-03 -0.12190093D-04 -0.14803253D-02
 -0.42763187D-02 -0.19599373D-01 -0.58018414D-01 -0.16825509D+00 -0.34973374D+00
 -0.50029827D+00 -0.14345149D+00  0.57325138D+00  0.55427862D+00  0.12097978D+00
 -0.17511458D-02 -0.90079781D-03 -0.42024081D-02 -0.85284754D-02 -0.33424578D-01
 -0.23454818D-01  0.15274665D+00  0.47330944D+00  0.57896344D-01 -0.41374428D+00
 -0.19417018D+00 -0.98244761D-06 -0.13468577D-05  0.25822520D-05  0.54881346D-05
 -0.20746684D-04 -0.67089507D-04 -0.23332710D-04  0.22821932D-03  0.50904738D-03
 -0.33778835D-03 -0.80843854D-02  0.40012195D-03 -0.28242375D-04  0.98716348D-01
  0.14164323D+00  0.18754872D+00  0.21658613D+00  0.20081618D+00  0.13004587D+00
  0.45887881D-01  0.52873787D-02 -0.86379524D-05 -0.11511749D+02 -0.16517642D+02
 -0.21870884D+02 -0.25257064D+02 -0.23418062D+02 -0.15165222D+02 -0.53511883D+01
 -0.61658457D+00  0.10073098D-02  0.68597692D+01  0.98427448D+01  0.13032704D+02
  0.15050504D+02  0.13954656D+02  0.90368478D+01  0.31887349D+01  0.36741835D+00
 -0.60024870D-03 -0.58851247D-03  0.16779539D-02  0.81903088D-02  0.16971877D-01