 Entering Gaussian System, Link 0=/home/bruns/programas/chemistry/gaussian/g09/g09
 Input=GAUSSIAN.com
 Output=GAUSSIAN.log
 Initial command:
 /home/bruns/programas/chemistry/gaussian/g09/l1.exe /home/bruns/programas/chemistry/gaussian/work/Gau-75811.inp -scrdir=/home/bruns/programas/chemistry/gaussian/work/
 Entering Link 1 = /home/bruns/programas/chemistry/gaussian/g09/l1.exe PID=     75813.
  
 Copyright (c) 1988,1990,1992,1993,1995,1998,2003,2009,2010,
            Gaussian, Inc.  All Rights Reserved.
  
 This is part of the Gaussian(R) 09 program.  It is based on
 the Gaussian(R) 03 system (copyright 2003, Gaussian, Inc.),
 the Gaussian(R) 98 system (copyright 1998, Gaussian, Inc.),
 the Gaussian(R) 94 system (copyright 1995, Gaussian, Inc.),
 the Gaussian 92(TM) system (copyright 1992, Gaussian, Inc.),
 the Gaussian 90(TM) system (copyright 1990, Gaussian, Inc.),
 the Gaussian 88(TM) system (copyright 1988, Gaussian, Inc.),
 the Gaussian 86(TM) system (copyright 1986, Carnegie Mellon
 University), and the Gaussian 82(TM) system (copyright 1983,
 Carnegie Mellon University). Gaussian is a federally registered
 trademark of Gaussian, Inc.
  
 This software contains proprietary and confidential information,
 including trade secrets, belonging to Gaussian, Inc.
  
 This software is provided under written license and may be
 used, copied, transmitted, or stored only in accord with that
 written license.
  
 The following legend is applicable only to US Government
 contracts under FAR:
  
                    RESTRICTED RIGHTS LEGEND
  
 Use, reproduction and disclosure by the US Government is
 subject to restrictions as set forth in subparagraphs (a)
 and (c) of the Commercial Computer Software - Restricted
 Rights clause in FAR 52.227-19.
  
 Gaussian, Inc.
 340 Quinnipiac St., Bldg. 40, Wallingford CT 06492
  
  
 ---------------------------------------------------------------
 Warning -- This program may not be used in any manner that
 competes with the business of Gaussian, Inc. or will provide
 assistance to any competitor of Gaussian, Inc.  The licensee
 of this program is prohibited from giving any competitor of
 Gaussian, Inc. access to this program.  By using this program,
 the user acknowledges that Gaussian, Inc. is engaged in the
 business of creating and licensing software in the field of
 computational chemistry and represents and warrants to the
 licensee that it is not a competitor of Gaussian, Inc. and that
 it will not use this program in any manner prohibited above.
 ---------------------------------------------------------------
  

 Cite this work as:
 Gaussian 09, Revision B.01,
 M. J. Frisch, G. W. Trucks, H. B. Schlegel, G. E. Scuseria, 
 M. A. Robb, J. R. Cheeseman, G. Scalmani, V. Barone, B. Mennucci, 
 G. A. Petersson, H. Nakatsuji, M. Caricato, X. Li, H. P. Hratchian, 
 A. F. Izmaylov, J. Bloino, G. Zheng, J. L. Sonnenberg, M. Hada, 
 M. Ehara, K. Toyota, R. Fukuda, J. Hasegawa, M. Ishida, T. Nakajima, 
 Y. Honda, O. Kitao, H. Nakai, T. Vreven, J. A. Montgomery, Jr., 
 J. E. Peralta, F. Ogliaro, M. Bearpark, J. J. Heyd, E. Brothers, 
 K. N. Kudin, V. N. Staroverov, T. Keith, R. Kobayashi, J. Normand, 
 K. Raghavachari, A. Rendell, J. C. Burant, S. S. Iyengar, J. Tomasi, 
 M. Cossi, N. Rega, J. M. Millam, M. Klene, J. E. Knox, J. B. Cross, 
 V. Bakken, C. Adamo, J. Jaramillo, R. Gomperts, R. E. Stratmann, 
 O. Yazyev, A. J. Austin, R. Cammi, C. Pomelli, J. W. Ochterski, 
 R. L. Martin, K. Morokuma, V. G. Zakrzewski, G. A. Voth, 
 P. Salvador, J. J. Dannenberg, S. Dapprich, A. D. Daniels, 
 O. Farkas, J. B. Foresman, J. V. Ortiz, J. Cioslowski, 
 and D. J. Fox, Gaussian, Inc., Wallingford CT, 2010.
 
 ******************************************
 Gaussian 09:  EM64L-G09RevB.01 12-Aug-2010
                28-Nov-2021 
 ******************************************
 %nproc=8
 Will use up to    8 processors via shared memory.
 %mem=8GB
 -----------------------------------------------------
 # qcisd/aug-cc-pvtz nosymm density=current output=wfn
 -----------------------------------------------------
 1/30=1,38=1/1;
 2/12=2,15=1,17=6,18=5,40=1/2;
 3/5=16,6=1,7=10,11=9,16=1,25=1,30=1,71=1/1,2,3;
 4//1;
 5/5=2,38=5/2;
 8/6=4,9=120000,10=1/1,4;
 9/5=8,15=1/13;
 11/28=-7,31=1,32=3,42=3/11;
 10/5=6,13=10,31=1/2;
 6/7=2,8=2,9=2,10=2,22=-1,31=1/1;
 99/5=1,6=1100,9=1/99;
 ------------------
 br2co-wavefunction
 ------------------
 Symbolic Z-matrix:
 Charge =  0 Multiplicity = 1
 C                     0.        0.       -0.49176 
 Br                    0.       -1.59418  -1.55682 
 Br                    0.        1.59418  -1.54682 
 O                     0.        0.        0.6845 
 
                          Input orientation:                          
 ---------------------------------------------------------------------
 Center     Atomic      Atomic             Coordinates (Angstroms)
 Number     Number       Type             X           Y           Z
 ---------------------------------------------------------------------
      1          6           0        0.000000    0.000000   -0.491759
      2         35           0        0.000000   -1.594181   -1.556820
      3         35           0        0.000000    1.594181   -1.546820
      4          8           0        0.000000    0.000000    0.684500
 ---------------------------------------------------------------------
                    Distance matrix (angstroms):
                    1          2          3          4
     1  C    0.000000
     2  Br   1.917229   0.000000
     3  Br   1.911692   3.188378   0.000000
     4  O    1.176259   2.750441   2.742299   0.000000
 Symmetry turned off by external request.
 Stoichiometry    CBr2O
 Framework group  CS[SG(CBr2O)]
 Deg. of freedom     5
 Full point group                 CS      NOp   2
 Rotational constants (GHZ):      6.2528829      1.2598785      1.0485988
 Standard basis: Aug-CC-pVTZ (5D, 7F)
 Integral buffers will be    131072 words long.
 Raffenetti 1 integral format.
 Two-electron integral symmetry is turned off.
   210 basis functions,   578 primitive gaussians,   248 cartesian basis functions
    42 alpha electrons       42 beta electrons
       nuclear repulsion energy       448.9034735344 Hartrees.
 NAtoms=    4 NActive=    4 NUniq=    4 SFac= 1.00D+00 NAtFMM=   50 NAOKFM=F Big=F
 One-electron integrals computed using PRISM.
 NBasis=   210 RedAO= T  NBF=   210
 NBsUse=   210 1.00D-06 NBFU=   210
 Harris functional with IExCor=  205 diagonalized for initial guess.
 ExpMin= 3.51D-02 ExpMax= 1.06D+07 ExpMxC= 1.21D+04 IAcc=3 IRadAn=         0 AccDes= 0.00D+00
 HarFok:  IExCor=  205 AccDes= 0.00D+00 IRadAn=         0 IDoV= 1
 ScaDFX=  1.000000  1.000000  1.000000  1.000000
 FoFCou: FMM=F IPFlag=           0 FMFlag=      100000 FMFlg1=           0
         NFxFlg=           0 DoJE=T BraDBF=F KetDBF=T FulRan=T
         Omega=  0.000000  0.000000  1.000000  0.000000  0.000000 ICntrl=     500 IOpCl=  0
         NMat0=    1 NMatS0=    1 NMatT0=    0 NMatD0=    1 NMtDS0=    0 NMtDT0=    0
         I1Cent=           4 NGrid=           0.
 Symmetry not used in FoFCou.
 Requested convergence on RMS density matrix=1.00D-08 within 128 cycles.
 Requested convergence on MAX density matrix=1.00D-06.
 Requested convergence on             energy=1.00D-06.
 No special actions if energy rises.
 Keep R1 ints in memory in canonical form, NReq=484604278.
 SCF Done:  E(RHF) =  -5257.68447364     A.U. after   12 cycles
             Convg  =    0.9228D-08             -V/T =  2.0000
 ExpMin= 3.51D-02 ExpMax= 1.06D+07 ExpMxC= 1.21D+04 IAcc=3 IRadAn=         5 AccDes= 0.00D+00
 HarFok:  IExCor=  205 AccDes= 0.00D+00 IRadAn=         5 IDoV=-2
 ScaDFX=  1.000000  1.000000  1.000000  1.000000
 DSYEVD returned Info=          89 IAlg= 4 N=    59 NDim=    59 NE2=    18196533 trying DSYEV.
 Range of M.O.s used for correlation:    21   210
 NBasis=   210 NAE=    42 NBE=    42 NFC=    20 NFV=     0
 NROrb=    190 NOA=    22 NOB=    22 NVA=   168 NVB=   168

 **** Warning!!: The largest alpha MO coefficient is  0.28025248D+02

 Semi-Direct transformation.
 ModeAB=           2 MOrb=            22 LenV=    1072497319
 LASXX=     69628944 LTotXX=    69628944 LenRXX=    69628944
 LTotAB=    70719517 MaxLAS=   129061680 LenRXY=   129061680
 NonZer=   139257888 LenScr=   209707008 LnRSAI=           0
 LnScr1=           0 LExtra=           0 Total=    408397632
 MaxDsk=          -1 SrtSym=           F ITran=            4
 JobTyp=0 Pass  1:  I=   1 to  22.
 (rs|ai) integrals will be sorted in core.
 Spin components of T(2) and E(2):
     alpha-alpha T2 =       0.3834434903D-01 E2=     -0.1232737726D+00
     alpha-beta  T2 =       0.1926515588D+00 E2=     -0.6175791246D+00
     beta-beta   T2 =       0.3834434903D-01 E2=     -0.1232737726D+00
 ANorm=    0.1126650015D+01
 E2 =    -0.8641266698D+00 EUMP2 =    -0.52585486003126D+04
 R2 and R3 integrals will be kept in memory, NReq=   961077252.
 Iterations=  50 Convergence= 0.100D-07
 Iteration Nr.   1
 **********************
 DD1Dir will call FoFMem   1 times, MxPair=       506
 NAB=   253 NAA=     0 NBB=     0.
 MP4(R+Q)=  0.21502123D-01
 E3=        0.16047836D-03        EUMP3=      -0.52585484398D+04
 E4(DQ)=    0.26457670D-03        UMP4(DQ)=   -0.52585481753D+04
 E4(SDQ)=  -0.11724207D-01        UMP4(SDQ)=  -0.52585601640D+04
 DE(Corr)= -0.84246407     E(Corr)=     -5258.5269377    
 NORM(A)=   0.11249349D+01
 Iteration Nr.   2
 **********************
 DD1Dir will call FoFMem   1 times, MxPair=       506
 NAB=   253 NAA=     0 NBB=     0.
 DE(Corr)= -0.87240461     E(CORR)=     -5258.5568783     Delta=-2.99D-02
 NORM(A)=   0.11353536D+01
 Iteration Nr.   3
 **********************
 DD1Dir will call FoFMem   1 times, MxPair=       506
 NAB=   253 NAA=     0 NBB=     0.
 DE(Corr)= -0.87028912     E(CORR)=     -5258.5547628     Delta= 2.12D-03
 NORM(A)=   0.11381252D+01
 Iteration Nr.   4
 **********************
 DD1Dir will call FoFMem   1 times, MxPair=       506
 NAB=   253 NAA=     0 NBB=     0.
 DE(Corr)= -0.87282693     E(CORR)=     -5258.5573006     Delta=-2.54D-03
 NORM(A)=   0.11394424D+01
 Iteration Nr.   5
 **********************
 DD1Dir will call FoFMem   1 times, MxPair=       506
 NAB=   253 NAA=     0 NBB=     0.
 DE(Corr)= -0.87320258     E(CORR)=     -5258.5576762     Delta=-3.76D-04
 NORM(A)=   0.11399592D+01
 Iteration Nr.   6
 **********************
 DD1Dir will call FoFMem   1 times, MxPair=       506
 NAB=   253 NAA=     0 NBB=     0.
 DE(Corr)= -0.87326705     E(CORR)=     -5258.5577407     Delta=-6.45D-05
 NORM(A)=   0.11400637D+01
 Iteration Nr.   7
 **********************
 DD1Dir will call FoFMem   1 times, MxPair=       506
 NAB=   253 NAA=     0 NBB=     0.
 DE(Corr)= -0.87328142     E(CORR)=     -5258.5577551     Delta=-1.44D-05
 NORM(A)=   0.11400727D+01
 Iteration Nr.   8
 **********************
 DD1Dir will call FoFMem   1 times, MxPair=       506
 NAB=   253 NAA=     0 NBB=     0.
 DE(Corr)= -0.87328176     E(CORR)=     -5258.5577554     Delta=-3.40D-07
 NORM(A)=   0.11400878D+01
 Iteration Nr.   9
 **********************
 DD1Dir will call FoFMem   1 times, MxPair=       506
 NAB=   253 NAA=     0 NBB=     0.
 DE(Corr)= -0.87327983     E(CORR)=     -5258.5577535     Delta= 1.93D-06
 NORM(A)=   0.11400878D+01
 Iteration Nr.  10
 **********************
 DD1Dir will call FoFMem   1 times, MxPair=       506
 NAB=   253 NAA=     0 NBB=     0.
 DE(Corr)= -0.87328124     E(CORR)=     -5258.5577549     Delta=-1.41D-06
 NORM(A)=   0.11400905D+01
 Iteration Nr.  11
 **********************
 DD1Dir will call FoFMem   1 times, MxPair=       506
 NAB=   253 NAA=     0 NBB=     0.
 DE(Corr)= -0.87328238     E(CORR)=     -5258.5577560     Delta=-1.14D-06
 NORM(A)=   0.11400924D+01
 Iteration Nr.  12
 **********************
 DD1Dir will call FoFMem   1 times, MxPair=       506
 NAB=   253 NAA=     0 NBB=     0.
 DE(Corr)= -0.87328269     E(CORR)=     -5258.5577563     Delta=-3.15D-07
 NORM(A)=   0.11400934D+01
 Iteration Nr.  13
 **********************
 DD1Dir will call FoFMem   1 times, MxPair=       506
 NAB=   253 NAA=     0 NBB=     0.
 DE(Corr)= -0.87328316     E(CORR)=     -5258.5577568     Delta=-4.71D-07
 NORM(A)=   0.11400941D+01
 Iteration Nr.  14
 **********************
 DD1Dir will call FoFMem   1 times, MxPair=       506
 NAB=   253 NAA=     0 NBB=     0.
 DE(Corr)= -0.87328327     E(CORR)=     -5258.5577569     Delta=-1.09D-07
 NORM(A)=   0.11400944D+01
 Iteration Nr.  15
 **********************
 DD1Dir will call FoFMem   1 times, MxPair=       506
 NAB=   253 NAA=     0 NBB=     0.
 DE(Corr)= -0.87328334     E(CORR)=     -5258.5577570     Delta=-7.04D-08
 NORM(A)=   0.11400946D+01
 Iteration Nr.  16
 **********************
 DD1Dir will call FoFMem   1 times, MxPair=       506
 NAB=   253 NAA=     0 NBB=     0.
 DE(Corr)= -0.87328337     E(CORR)=     -5258.5577570     Delta=-2.98D-08
 NORM(A)=   0.11400946D+01
 Iteration Nr.  17
 **********************
 DD1Dir will call FoFMem   1 times, MxPair=       506
 NAB=   253 NAA=     0 NBB=     0.
 DE(Corr)= -0.87328337     E(CORR)=     -5258.5577570     Delta= 3.33D-09
 NORM(A)=   0.11400946D+01
 Iteration Nr.  18
 **********************
 DD1Dir will call FoFMem   1 times, MxPair=       506
 NAB=   253 NAA=     0 NBB=     0.
 DE(Corr)= -0.87328337     E(CORR)=     -5258.5577570     Delta=-5.55D-09
 NORM(A)=   0.11400946D+01
 Iteration Nr.  19
 **********************
 DD1Dir will call FoFMem   1 times, MxPair=       506
 NAB=   253 NAA=     0 NBB=     0.
 DE(Corr)= -0.87328337     E(CORR)=     -5258.5577570     Delta= 2.16D-09
 NORM(A)=   0.11400946D+01
 Iteration Nr.  20
 **********************
 DD1Dir will call FoFMem   1 times, MxPair=       506
 NAB=   253 NAA=     0 NBB=     0.
 DE(Corr)= -0.87328337     E(CORR)=     -5258.5577570     Delta=-2.24D-09
 NORM(A)=   0.11400947D+01
 Iteration Nr.  21
 **********************
 DD1Dir will call FoFMem   1 times, MxPair=       506
 NAB=   253 NAA=     0 NBB=     0.
 DE(Corr)= -0.87328338     E(CORR)=     -5258.5577570     Delta=-3.80D-09
 NORM(A)=   0.11400947D+01
 Iteration Nr.  22
 **********************
 DD1Dir will call FoFMem   1 times, MxPair=       506
 NAB=   253 NAA=     0 NBB=     0.
 DE(Corr)= -0.87328338     E(CORR)=     -5258.5577570     Delta=-3.24D-09
 NORM(A)=   0.11400947D+01
 Iteration Nr.  23
 **********************
 DD1Dir will call FoFMem   1 times, MxPair=       506
 NAB=   253 NAA=     0 NBB=     0.
 DE(Corr)= -0.87328338     E(CORR)=     -5258.5577570     Delta=-1.08D-10
 NORM(A)=   0.11400947D+01
 Iteration Nr.  24
 **********************
 DD1Dir will call FoFMem   1 times, MxPair=       506
 NAB=   253 NAA=     0 NBB=     0.
 DE(Corr)= -0.87328338     E(CORR)=     -5258.5577570     Delta= 1.95D-09
 NORM(A)=   0.11400947D+01
 Iteration Nr.  25
 **********************
 DD1Dir will call FoFMem   1 times, MxPair=       506
 NAB=   253 NAA=     0 NBB=     0.
 DE(Corr)= -0.87328338     E(CORR)=     -5258.5577570     Delta= 1.27D-09
 NORM(A)=   0.11400947D+01
 Iteration Nr.  26
 **********************
 DD1Dir will call FoFMem   1 times, MxPair=       506
 NAB=   253 NAA=     0 NBB=     0.
 DE(Corr)= -0.87328338     E(CORR)=     -5258.5577570     Delta= 1.06D-09
 NORM(A)=   0.11400947D+01
 Largest amplitude= 4.27D-02

 Z-AMPLITUDE ITERATIONS

 Iteration Nr.   1
 **********************
 DD1Dir will call FoFMem   1 times, MxPair=       506
 NAB=   253 NAA=     0 NBB=     0.
 DE(Z)  -0.84607286D+00          E(Z)=    -0.52585305465D+04
 NORM(A)=   0.11395097D+01
 Iteration Nr.   2
 **********************
 DD1Dir will call FoFMem   1 times, MxPair=       506
 NAB=   253 NAA=     0 NBB=     0.
 DE(Z)  -0.84607201D+00          E(Z)=    -0.52585305457D+04
 NORM(A)=   0.11394135D+01
 Iteration Nr.   3
 **********************
 DD1Dir will call FoFMem   1 times, MxPair=       506
 NAB=   253 NAA=     0 NBB=     0.
 DE(Z)  -0.84607207D+00          E(Z)=    -0.52585305457D+04
 NORM(A)=   0.11374391D+01
 Iteration Nr.   4
 **********************
 DD1Dir will call FoFMem   1 times, MxPair=       506
 NAB=   253 NAA=     0 NBB=     0.
 DE(Z)  -0.84607048D+00          E(Z)=    -0.52585305441D+04
 NORM(A)=   0.11382332D+01
 Iteration Nr.   5
 **********************
 DD1Dir will call FoFMem   1 times, MxPair=       506
 NAB=   253 NAA=     0 NBB=     0.
 DE(Z)  -0.84606582D+00          E(Z)=    -0.52585305395D+04
 NORM(A)=   0.11302184D+01
 Iteration Nr.   6
 **********************
 DD1Dir will call FoFMem   1 times, MxPair=       506
 NAB=   253 NAA=     0 NBB=     0.
 DE(Z)  -0.84604469D+00          E(Z)=    -0.52585305183D+04
 NORM(A)=   0.11302188D+01
 Iteration Nr.   7
 **********************
 DD1Dir will call FoFMem   1 times, MxPair=       506
 NAB=   253 NAA=     0 NBB=     0.
 DE(Z)  -0.84604235D+00          E(Z)=    -0.52585305160D+04
 NORM(A)=   0.11302195D+01
 Iteration Nr.   8
 **********************
 DD1Dir will call FoFMem   1 times, MxPair=       506
 NAB=   253 NAA=     0 NBB=     0.
 DE(Z)  -0.84604295D+00          E(Z)=    -0.52585305166D+04
 NORM(A)=   0.11302196D+01
 Iteration Nr.   9
 **********************
 DD1Dir will call FoFMem   1 times, MxPair=       506
 NAB=   253 NAA=     0 NBB=     0.
 DE(Z)  -0.84604252D+00          E(Z)=    -0.52585305162D+04
 NORM(A)=   0.11302198D+01
 Iteration Nr.  10
 **********************
 DD1Dir will call FoFMem   1 times, MxPair=       506
 NAB=   253 NAA=     0 NBB=     0.
 DE(Z)  -0.84604260D+00          E(Z)=    -0.52585305162D+04
 NORM(A)=   0.11302199D+01
 Iteration Nr.  11
 **********************
 DD1Dir will call FoFMem   1 times, MxPair=       506
 NAB=   253 NAA=     0 NBB=     0.
 DE(Z)  -0.84604261D+00          E(Z)=    -0.52585305163D+04
 NORM(A)=   0.11302199D+01
 Iteration Nr.  12
 **********************
 DD1Dir will call FoFMem   1 times, MxPair=       506
 NAB=   253 NAA=     0 NBB=     0.
 DE(Z)  -0.84604262D+00          E(Z)=    -0.52585305163D+04
 NORM(A)=   0.11302199D+01
 Iteration Nr.  13
 **********************
 DD1Dir will call FoFMem   1 times, MxPair=       506
 NAB=   253 NAA=     0 NBB=     0.
 DE(Z)  -0.84604261D+00          E(Z)=    -0.52585305163D+04
 NORM(A)=   0.11302200D+01
 Iteration Nr.  14
 **********************
 DD1Dir will call FoFMem   1 times, MxPair=       506
 NAB=   253 NAA=     0 NBB=     0.
 DE(Z)  -0.84604262D+00          E(Z)=    -0.52585305163D+04
 NORM(A)=   0.11302200D+01
 Iteration Nr.  15
 **********************
 DD1Dir will call FoFMem   1 times, MxPair=       506
 NAB=   253 NAA=     0 NBB=     0.
 DE(Z)  -0.84604262D+00          E(Z)=    -0.52585305163D+04
 NORM(A)=   0.11302200D+01
 Iteration Nr.  16
 **********************
 DD1Dir will call FoFMem   1 times, MxPair=       506
 NAB=   253 NAA=     0 NBB=     0.
 DE(Z)  -0.84604262D+00          E(Z)=    -0.52585305163D+04
 NORM(A)=   0.11302200D+01
 Discarding MO integrals.
          Differentiating once with respect to electric field.
                with respect to dipole field.
          Electric field/nuclear overlap derivatives assumed to be zero.
          Keep R1 ints in memory in canonical form, NReq=478620341.
          There are     1 degrees of freedom in the 1st order CPHF.  IDoFFX=0.
 LinEq1:  Iter=  0 NonCon=     1 RMS=1.95D-03 Max=5.63D-02
 AX will form     1 AO Fock derivatives at one time.
 LinEq1:  Iter=  1 NonCon=     1 RMS=7.41D-04 Max=2.60D-02
 LinEq1:  Iter=  2 NonCon=     1 RMS=3.10D-04 Max=9.40D-03
 LinEq1:  Iter=  3 NonCon=     1 RMS=1.03D-04 Max=2.99D-03
 LinEq1:  Iter=  4 NonCon=     1 RMS=5.35D-05 Max=1.65D-03
 LinEq1:  Iter=  5 NonCon=     1 RMS=1.65D-05 Max=4.70D-04
 LinEq1:  Iter=  6 NonCon=     1 RMS=6.31D-06 Max=1.31D-04
 LinEq1:  Iter=  7 NonCon=     1 RMS=1.35D-06 Max=2.13D-05
 LinEq1:  Iter=  8 NonCon=     1 RMS=2.70D-07 Max=4.30D-06
 LinEq1:  Iter=  9 NonCon=     1 RMS=6.51D-08 Max=1.22D-06
 LinEq1:  Iter= 10 NonCon=     1 RMS=1.39D-08 Max=2.08D-07
 LinEq1:  Iter= 11 NonCon=     1 RMS=3.90D-09 Max=9.66D-08
 LinEq1:  Iter= 12 NonCon=     1 RMS=7.22D-10 Max=1.61D-08
 LinEq1:  Iter= 13 NonCon=     1 RMS=1.26D-10 Max=2.63D-09
 LinEq1:  Iter= 14 NonCon=     0 RMS=3.14D-11 Max=6.03D-10
 Linear equations converged to 1.000D-10 1.000D-09 after    14 iterations.
 End of Minotr Frequency-dependent properties file   721 does not exist.
 End of Minotr Frequency-dependent properties file   722 does not exist.

 **********************************************************************

            Population analysis using the QCI/CC density.

 **********************************************************************

     Natural Orbital Coefficients:
                           1         2         3         4         5
     Eigenvalues --     2.00002   2.00002   2.00001   2.00001   2.00001
   1 1   C  1S          0.36790  -0.04889  -0.00734  -0.22973   0.00204
   2        2S         -0.01000   0.00128   0.00006   0.00248  -0.00002
   3        3S          0.01425  -0.00191  -0.00031  -0.00958   0.00009
   4        4S         -0.01288   0.00164   0.00014   0.00309   0.00006
   5        5S         -0.00446   0.00057  -0.00010  -0.00268   0.00003
   6        6PX         0.00000   0.00000   0.00000   0.00000   0.00000
   7        6PY        -0.00035  -0.00263  -0.00001  -0.00001   0.00022
   8        6PZ         0.00166  -0.00020   0.00001   0.00013   0.00000
   9        7PX         0.00000   0.00000   0.00000   0.00000   0.00000
  10        7PY        -0.00061  -0.00454  -0.00023   0.00000   0.00041
  11        7PZ         0.00458  -0.00058  -0.00002  -0.00084   0.00001
  12        8PX         0.00000   0.00000   0.00000   0.00000   0.00000
  13        8PY        -0.00056  -0.00441   0.00124  -0.00007   0.00548
  14        8PZ         0.00376  -0.00049  -0.00003  -0.00072  -0.00006
  15        9PX         0.00000   0.00000   0.00000   0.00000   0.00000
  16        9PY         0.00009   0.00073  -0.00166   0.00007   0.00171
  17        9PZ         0.00022  -0.00003   0.00001   0.00050   0.00000
  18       10D 0        0.00031  -0.00004  -0.00001  -0.00019   0.00000
  19       10D+1        0.00000   0.00000   0.00000   0.00000   0.00000
  20       10D-1        0.00006   0.00043   0.00008   0.00000   0.00005
  21       10D+2        0.00012  -0.00001   0.00001   0.00016   0.00000
  22       10D-2        0.00000   0.00000   0.00000   0.00000   0.00000
  23       11D 0       -0.00007   0.00002   0.00000   0.00010   0.00001
  24       11D+1        0.00000   0.00000   0.00000   0.00000   0.00000
  25       11D-1        0.00021   0.00163  -0.00028   0.00001   0.00033
  26       11D+2        0.00170  -0.00022  -0.00002  -0.00052   0.00001
  27       11D-2        0.00000   0.00000   0.00000   0.00000   0.00000
  28       12D 0       -0.00041   0.00006   0.00000   0.00015   0.00000
  29       12D+1        0.00000   0.00000   0.00000   0.00000   0.00000
  30       12D-1        0.00033   0.00261  -0.00133   0.00006  -0.00131
  31       12D+2        0.00097  -0.00013  -0.00001  -0.00009   0.00000
  32       12D-2        0.00000   0.00000   0.00000   0.00000   0.00000
  33       13F 0        0.00015  -0.00002   0.00000  -0.00015   0.00000
  34       13F+1        0.00000   0.00000   0.00000   0.00000   0.00000
  35       13F-1        0.00000  -0.00001  -0.00006   0.00000   0.00000
  36       13F+2        0.00001   0.00000   0.00000  -0.00004   0.00000
  37       13F-2        0.00000   0.00000   0.00000   0.00000   0.00000
  38       13F+3        0.00000   0.00000   0.00000   0.00000   0.00000
  39       13F-3       -0.00001  -0.00008   0.00003   0.00000   0.00004
  40       14F 0       -0.00019   0.00003   0.00002   0.00053  -0.00001
  41       14F+1        0.00000   0.00000   0.00000   0.00000   0.00000
  42       14F-1        0.00009   0.00069  -0.00002   0.00000   0.00005
  43       14F+2       -0.00013   0.00002   0.00001   0.00040   0.00000
  44       14F-2        0.00000   0.00000   0.00000   0.00000   0.00000
  45       14F+3        0.00000   0.00000   0.00000   0.00000   0.00000
  46       14F-3        0.00003   0.00023  -0.00012   0.00001  -0.00028
  47 2   Br 1S         -0.03941   0.04582   0.07987  -0.08373   0.00165
  48        2S          0.14590  -0.16963  -0.29747   0.31191  -0.00622
  49        3S         -0.30774   0.35601   0.64147  -0.67301   0.01349
  50        4S         -0.00098   0.00112   0.00189  -0.00230  -0.00015
  51        5S         -0.01638   0.01900   0.03104  -0.03239   0.00060
  52        6S          0.00315  -0.00303   0.00715  -0.00711   0.00341
  53        7S          0.00221   0.00014  -0.00260   0.00149   0.00305
  54        8PX         0.00000   0.00000   0.00000   0.00000   0.00000
  55        8PY         0.16085  -0.24177   0.09556  -0.08610  -0.13530
  56        8PZ         0.10174  -0.14618   0.05026  -0.07568   0.22995
  57        9PX         0.00000   0.00000   0.00000   0.00000   0.00000
  58        9PY        -0.41825   0.63209  -0.26796   0.24078   0.38300
  59        9PZ        -0.26523   0.38171  -0.14031   0.21234  -0.64772
  60       10PX         0.00000   0.00000   0.00000   0.00000   0.00000
  61       10PY         0.00218  -0.00099   0.00007  -0.00078   0.00123
  62       10PZ         0.00115  -0.00109   0.00018  -0.00030  -0.00100
  63       11PX         0.00000   0.00000   0.00000   0.00000   0.00000
  64       11PY        -0.01984   0.02999  -0.01227   0.01095   0.01703
  65       11PZ        -0.01270   0.01821  -0.00639   0.00969  -0.02887
  66       12PX         0.00000   0.00000   0.00000   0.00000   0.00000
  67       12PY         0.00165   0.00101  -0.00135   0.00041   0.00405
  68       12PZ         0.00075   0.00013  -0.00061   0.00064  -0.00191
  69       13PX         0.00000   0.00000   0.00000   0.00000   0.00000
  70       13PY         0.00039  -0.00012  -0.00024   0.00022   0.00020
  71       13PZ         0.00031  -0.00003  -0.00031   0.00008   0.00064
  72       14D 0        0.00180  -0.00271   0.00097  -0.00192   0.00803
  73       14D+1        0.00000   0.00000   0.00000   0.00000   0.00000
  74       14D-1       -0.01987   0.02913  -0.00536   0.00501   0.00406
  75       14D+2        0.01174  -0.01743   0.00357  -0.00418   0.00468
  76       14D-2        0.00000   0.00000   0.00000   0.00000   0.00000
  77       15D 0        0.00021  -0.00021   0.00006  -0.00014   0.00049
  78       15D+1        0.00000   0.00000   0.00000   0.00000   0.00000
  79       15D-1       -0.00207   0.00288  -0.00028   0.00030   0.00025
  80       15D+2        0.00135  -0.00179   0.00019  -0.00024   0.00029
  81       15D-2        0.00000   0.00000   0.00000   0.00000   0.00000
  82       16D 0        0.00001  -0.00022   0.00003  -0.00002   0.00029
  83       16D+1        0.00000   0.00000   0.00000   0.00000   0.00000
  84       16D-1        0.00101  -0.00077  -0.00013  -0.00026   0.00025
  85       16D+2       -0.00076   0.00047   0.00005   0.00007   0.00011
  86       16D-2        0.00000   0.00000   0.00000   0.00000   0.00000
  87       17D 0       -0.00004   0.00003  -0.00005  -0.00003  -0.00004
  88       17D+1        0.00000   0.00000   0.00000   0.00000   0.00000
  89       17D-1        0.00047  -0.00041  -0.00004  -0.00004   0.00044
  90       17D+2       -0.00053  -0.00006   0.00021   0.00008  -0.00031
  91       17D-2        0.00000   0.00000   0.00000   0.00000   0.00000
  92       18F 0        0.00019  -0.00032   0.00008  -0.00006  -0.00005
  93       18F+1        0.00000   0.00000   0.00000   0.00000   0.00000
  94       18F-1       -0.00008   0.00014  -0.00002   0.00004  -0.00034
  95       18F+2        0.00032  -0.00046   0.00010  -0.00009   0.00001
  96       18F-2        0.00000   0.00000   0.00000   0.00000   0.00000
  97       18F+3        0.00000   0.00000   0.00000   0.00000   0.00000
  98       18F-3        0.00017  -0.00024   0.00003  -0.00004  -0.00014
  99       19F 0       -0.00025   0.00032  -0.00006   0.00014   0.00006
 100       19F+1        0.00000   0.00000   0.00000   0.00000   0.00000
 101       19F-1        0.00020  -0.00033   0.00001  -0.00010   0.00032
 102       19F+2       -0.00057   0.00053  -0.00004   0.00019  -0.00002
 103       19F-2        0.00000   0.00000   0.00000   0.00000   0.00000
 104       19F+3        0.00000   0.00000   0.00000   0.00000   0.00000
 105       19F-3       -0.00032   0.00021   0.00004   0.00005   0.00017
 106 3   Br 1S         -0.04936  -0.03378  -0.08658  -0.07728  -0.00181
 107        2S          0.18273   0.12502   0.32246   0.28785   0.00684
 108        3S         -0.38486  -0.26185  -0.69536  -0.62105  -0.01484
 109        4S         -0.00123  -0.00083  -0.00209  -0.00216   0.00015
 110        5S         -0.02052  -0.01401  -0.03364  -0.02989  -0.00067
 111        6S          0.00388   0.00219  -0.00772  -0.00650  -0.00350
 112        7S          0.00212  -0.00069   0.00270   0.00127  -0.00308
 113        8PX         0.00000   0.00000   0.00000   0.00000   0.00000
 114        8PY        -0.21831  -0.19465   0.10207   0.07691  -0.12937
 115        8PZ         0.13494   0.11516  -0.05517  -0.07026  -0.22454
 116        9PX         0.00000   0.00000   0.00000   0.00000   0.00000
 117        9PY         0.56844   0.50943  -0.28631  -0.21532   0.36645
 118        9PZ        -0.35195  -0.30079   0.15419   0.19742   0.63241
 119       10PX         0.00000   0.00000   0.00000   0.00000   0.00000
 120       10PY        -0.00236  -0.00040   0.00013   0.00076   0.00122
 121       10PZ         0.00137   0.00076  -0.00020  -0.00028   0.00097
 122       11PX         0.00000   0.00000   0.00000   0.00000   0.00000
 123       11PY         0.02698   0.02417  -0.01310  -0.00978   0.01630
 124       11PZ        -0.01684  -0.01433   0.00702   0.00900   0.02819
 125       12PX         0.00000   0.00000   0.00000   0.00000   0.00000
 126       12PY        -0.00135   0.00139  -0.00138  -0.00029   0.00403
 127       12PZ         0.00069  -0.00031   0.00064   0.00058   0.00184
 128       13PX         0.00000   0.00000   0.00000   0.00000   0.00000
 129       13PY        -0.00041  -0.00002  -0.00025  -0.00020   0.00021
 130       13PZ         0.00030  -0.00005   0.00032   0.00005  -0.00064
 131       14D 0        0.00275   0.00245  -0.00116  -0.00187  -0.00779
 132       14D+1        0.00000   0.00000   0.00000   0.00000   0.00000
 133       14D-1        0.02703   0.02352  -0.00574  -0.00442   0.00391
 134       14D+2        0.01630   0.01435  -0.00397  -0.00388  -0.00458
 135       14D-2        0.00000   0.00000   0.00000   0.00000   0.00000
 136       15D 0        0.00029   0.00017  -0.00007  -0.00014  -0.00048
 137       15D+1        0.00000   0.00000   0.00000   0.00000   0.00000
 138       15D-1        0.00277   0.00230  -0.00030  -0.00026   0.00024
 139       15D+2        0.00181   0.00143  -0.00021  -0.00022  -0.00029
 140       15D-2        0.00000   0.00000   0.00000   0.00000   0.00000
 141       16D 0        0.00006   0.00021  -0.00003  -0.00002  -0.00028
 142       16D+1        0.00000   0.00000   0.00000   0.00000   0.00000
 143       16D-1       -0.00117  -0.00049  -0.00011   0.00027   0.00025
 144       16D+2       -0.00086  -0.00027  -0.00004   0.00007  -0.00011
 145       16D-2        0.00000   0.00000   0.00000   0.00000   0.00000
 146       17D 0       -0.00005  -0.00002   0.00005  -0.00003   0.00005
 147       17D+1        0.00000   0.00000   0.00000   0.00000   0.00000
 148       17D-1       -0.00056  -0.00028  -0.00003   0.00004   0.00044
 149       17D+2       -0.00050   0.00019  -0.00021   0.00009   0.00031
 150       17D-2        0.00000   0.00000   0.00000   0.00000   0.00000
 151       18F 0        0.00027   0.00026  -0.00009  -0.00005   0.00004
 152       18F+1        0.00000   0.00000   0.00000   0.00000   0.00000
 153       18F-1        0.00011   0.00011  -0.00002  -0.00003  -0.00033
 154       18F+2        0.00043   0.00037  -0.00010  -0.00008  -0.00002
 155       18F-2        0.00000   0.00000   0.00000   0.00000   0.00000
 156       18F+3        0.00000   0.00000   0.00000   0.00000   0.00000
 157       18F-3       -0.00023  -0.00020   0.00003   0.00004  -0.00014
 158       19F 0       -0.00033  -0.00025   0.00007   0.00014  -0.00006
 159       19F+1        0.00000   0.00000   0.00000   0.00000   0.00000
 160       19F-1       -0.00027  -0.00026   0.00002   0.00010   0.00031
 161       19F+2       -0.00069  -0.00038   0.00005   0.00018   0.00002
 162       19F-2        0.00000   0.00000   0.00000   0.00000   0.00000
 163       19F+3        0.00000   0.00000   0.00000   0.00000   0.00000
 164       19F-3        0.00037   0.00012   0.00004  -0.00005   0.00016
 165 4   O  1S         -0.06962   0.00980   0.00191   0.07143  -0.00283
 166        2S          0.00101  -0.00015  -0.00005  -0.00160   0.00005
 167        3S         -0.00291   0.00041   0.00008   0.00296  -0.00012
 168        4S          0.00122  -0.00017  -0.00002  -0.00066   0.00002
 169        5S          0.00068  -0.00009   0.00004   0.00104   0.00002
 170        6PX         0.00000   0.00000   0.00000   0.00000   0.00000
 171        6PY         0.00008   0.00063  -0.00030   0.00002  -0.00016
 172        6PZ         0.00057  -0.00008  -0.00001  -0.00050   0.00001
 173        7PX         0.00000   0.00000   0.00000   0.00000   0.00000
 174        7PY         0.00009   0.00073  -0.00033   0.00002  -0.00032
 175        7PZ         0.00066  -0.00009  -0.00001  -0.00047   0.00001
 176        8PX         0.00000   0.00000   0.00000   0.00000   0.00000
 177        8PY        -0.00005  -0.00025   0.00009   0.00001  -0.00110
 178        8PZ         0.00036  -0.00005  -0.00002  -0.00087   0.00002
 179        9PX         0.00000   0.00000   0.00000   0.00000   0.00000
 180        9PY        -0.00009  -0.00070   0.00065  -0.00003  -0.00016
 181        9PZ         0.00017  -0.00003  -0.00001  -0.00039  -0.00001
 182       10D 0       -0.00003   0.00000   0.00000   0.00002   0.00000
 183       10D+1        0.00000   0.00000   0.00000   0.00000   0.00000
 184       10D-1        0.00000   0.00003   0.00002   0.00000  -0.00002
 185       10D+2        0.00003   0.00000   0.00000   0.00000   0.00000
 186       10D-2        0.00000   0.00000   0.00000   0.00000   0.00000
 187       11D 0       -0.00024   0.00003   0.00001   0.00016   0.00000
 188       11D+1        0.00000   0.00000   0.00000   0.00000   0.00000
 189       11D-1        0.00002   0.00016  -0.00010   0.00000   0.00008
 190       11D+2       -0.00009   0.00001   0.00000  -0.00003   0.00000
 191       11D-2        0.00000   0.00000   0.00000   0.00000   0.00000
 192       12D 0       -0.00043   0.00005   0.00001   0.00029  -0.00001
 193       12D+1        0.00000   0.00000   0.00000   0.00000   0.00000
 194       12D-1        0.00005   0.00031  -0.00009   0.00000   0.00035
 195       12D+2       -0.00022   0.00003   0.00000  -0.00012   0.00000
 196       12D-2        0.00000   0.00000   0.00000   0.00000   0.00000
 197       13F 0       -0.00009   0.00001   0.00000   0.00004   0.00000
 198       13F+1        0.00000   0.00000   0.00000   0.00000   0.00000
 199       13F-1        0.00000  -0.00001   0.00000   0.00000  -0.00003
 200       13F+2        0.00000   0.00000   0.00000  -0.00001   0.00000
 201       13F-2        0.00000   0.00000   0.00000   0.00000   0.00000
 202       13F+3        0.00000   0.00000   0.00000   0.00000   0.00000
 203       13F-3        0.00000  -0.00002  -0.00001   0.00000   0.00000
 204       14F 0        0.00026  -0.00003   0.00000  -0.00008   0.00000
 205       14F+1        0.00000   0.00000   0.00000   0.00000   0.00000
 206       14F-1       -0.00001  -0.00006   0.00005   0.00000   0.00002
 207       14F+2        0.00013  -0.00002   0.00000   0.00003   0.00000
 208       14F-2        0.00000   0.00000   0.00000   0.00000   0.00000
 209       14F+3        0.00000   0.00000   0.00000   0.00000   0.00000
 210       14F-3        0.00001   0.00005   0.00003   0.00000  -0.00001
                           6         7         8         9        10
     Eigenvalues --     2.00001   2.00001   2.00001   2.00001   2.00000
   1 1   C  1S         -0.07227   0.00000   0.44191   0.00000   0.75572
   2        2S          0.00076   0.00000  -0.00524   0.00000  -0.00716
   3        3S         -0.00308   0.00000   0.01844   0.00000   0.03174
   4        4S         -0.00333   0.00000   0.00157   0.00000   0.00282
   5        5S         -0.00153   0.00000   0.00076   0.00000   0.00269
   6        6PX         0.00000   0.00000   0.00000   0.00062   0.00000
   7        6PY         0.00001   0.00000   0.00000   0.00000   0.00000
   8        6PZ         0.00030   0.00000  -0.00086   0.00000  -0.00115
   9        7PX         0.00000   0.00000   0.00000   0.00103   0.00000
  10        7PY         0.00001   0.00000  -0.00001   0.00000  -0.00001
  11        7PZ        -0.00002   0.00000  -0.00082   0.00000   0.00319
  12        8PX         0.00000   0.00000   0.00000   0.00130   0.00000
  13        8PY         0.00006   0.00000   0.00000   0.00000   0.00001
  14        8PZ         0.00570   0.00000  -0.00024   0.00000  -0.00155
  15        9PX         0.00000   0.00000   0.00000   0.00004   0.00000
  16        9PY         0.00002   0.00000   0.00001   0.00000   0.00001
  17        9PZ         0.00016   0.00000  -0.00020   0.00000  -0.00015
  18       10D 0       -0.00016   0.00000   0.00009   0.00000   0.00067
  19       10D+1        0.00000   0.00000   0.00000  -0.00010   0.00000
  20       10D-1        0.00000   0.00000   0.00000   0.00000   0.00000
  21       10D+2       -0.00007   0.00000  -0.00015   0.00000  -0.00020
  22       10D-2        0.00000   0.00009   0.00000   0.00000   0.00000
  23       11D 0       -0.00036   0.00000  -0.00087   0.00000   0.00095
  24       11D+1        0.00000   0.00000   0.00000  -0.00074   0.00000
  25       11D-1        0.00000   0.00000   0.00001   0.00000   0.00001
  26       11D+2       -0.00019   0.00000   0.00029   0.00000   0.00104
  27       11D-2        0.00000   0.00069   0.00000   0.00000   0.00000
  28       12D 0       -0.00022   0.00000   0.00004   0.00000  -0.00111
  29       12D+1        0.00000   0.00000   0.00000  -0.00063   0.00000
  30       12D-1       -0.00001   0.00000   0.00001   0.00000   0.00002
  31       12D+2        0.00039   0.00000  -0.00022   0.00000  -0.00101
  32       12D-2        0.00000  -0.00012   0.00000   0.00001   0.00000
  33       13F 0       -0.00011   0.00000   0.00026   0.00000   0.00036
  34       13F+1        0.00000   0.00000   0.00000  -0.00006   0.00000
  35       13F-1        0.00000   0.00000   0.00000   0.00000   0.00000
  36       13F+2        0.00003   0.00000   0.00000   0.00000  -0.00009
  37       13F-2        0.00000   0.00001   0.00000   0.00000   0.00000
  38       13F+3        0.00000   0.00000   0.00000   0.00002   0.00000
  39       13F-3        0.00000   0.00000   0.00000   0.00000   0.00000
  40       14F 0        0.00051   0.00000  -0.00117   0.00000  -0.00065
  41       14F+1        0.00000   0.00000   0.00000   0.00008   0.00000
  42       14F-1        0.00000   0.00000   0.00001   0.00000   0.00002
  43       14F+2       -0.00029   0.00000  -0.00067   0.00000  -0.00061
  44       14F-2        0.00000  -0.00021   0.00000   0.00000   0.00000
  45       14F+3        0.00000   0.00000   0.00000  -0.00035   0.00000
  46       14F-3        0.00000   0.00000   0.00000   0.00000   0.00000
  47 2   Br 1S          0.00630   0.00000  -0.00215   0.00000   0.00032
  48        2S         -0.02369   0.00000   0.00842   0.00000  -0.00037
  49        3S          0.05209   0.00000  -0.02211   0.00000  -0.00813
  50        4S          0.00000   0.00000   0.00050   0.00000   0.00092
  51        5S          0.00245   0.00000  -0.00089   0.00000  -0.00056
  52        6S          0.00330   0.00000  -0.00067   0.00000  -0.00094
  53        7S          0.00111   0.00000  -0.00020   0.00000  -0.00111
  54        8PX         0.00000   0.26246   0.00000  -0.26269   0.00000
  55        8PY         0.15738   0.00000  -0.04679   0.00000  -0.08666
  56        8PZ        -0.19990   0.00000  -0.09354   0.00000  -0.05223
  57        9PX         0.00000  -0.74238   0.00000   0.74182   0.00000
  58        9PY        -0.43880   0.00000   0.11184   0.00000   0.20623
  59        9PZ         0.56622   0.00000   0.25171   0.00000   0.12543
  60       10PX         0.00000  -0.00131   0.00000   0.00072   0.00000
  61       10PY         0.00022   0.00000  -0.00056   0.00000  -0.00046
  62       10PZ         0.00131   0.00000   0.00003   0.00000   0.00015
  63       11PX         0.00000  -0.03317   0.00000   0.03280   0.00000
  64       11PY        -0.01949   0.00000   0.00495   0.00000   0.00872
  65       11PZ         0.02513   0.00000   0.01109   0.00000   0.00523
  66       12PX         0.00000  -0.00389   0.00000   0.00272   0.00000
  67       12PY        -0.00010   0.00000  -0.00022   0.00000  -0.00011
  68       12PZ         0.00313   0.00000   0.00076   0.00000  -0.00055
  69       13PX         0.00000   0.00032   0.00000  -0.00025   0.00000
  70       13PY         0.00029   0.00000  -0.00006   0.00000  -0.00025
  71       13PZ         0.00002   0.00000  -0.00004   0.00000  -0.00019
  72       14D 0       -0.00744   0.00000  -0.00257   0.00000  -0.00105
  73       14D+1        0.00000  -0.00111   0.00000   0.00120   0.00000
  74       14D-1       -0.00683   0.00000   0.00770   0.00000   0.00969
  75       14D+2       -0.00282   0.00000  -0.00624   0.00000  -0.00601
  76       14D-2        0.00000  -0.00212   0.00000   0.00205   0.00000
  77       15D 0       -0.00041   0.00000  -0.00019   0.00000  -0.00009
  78       15D+1        0.00000  -0.00017   0.00000   0.00019   0.00000
  79       15D-1       -0.00042   0.00000   0.00071   0.00000   0.00086
  80       15D+2       -0.00011   0.00000  -0.00060   0.00000  -0.00059
  81       15D-2        0.00000  -0.00027   0.00000   0.00032   0.00000
  82       16D 0       -0.00036   0.00000  -0.00008   0.00000   0.00012
  83       16D+1        0.00000   0.00010   0.00000  -0.00015   0.00000
  84       16D-1       -0.00009   0.00000   0.00024   0.00000   0.00071
  85       16D+2       -0.00032   0.00000   0.00001   0.00000  -0.00020
  86       16D-2        0.00000   0.00017   0.00000  -0.00017   0.00000
  87       17D 0       -0.00023   0.00000   0.00002   0.00000  -0.00011
  88       17D+1        0.00000  -0.00009   0.00000  -0.00009   0.00000
  89       17D-1        0.00020   0.00000  -0.00004   0.00000  -0.00022
  90       17D+2       -0.00032   0.00000   0.00006   0.00000   0.00002
  91       17D-2        0.00000  -0.00016   0.00000  -0.00022   0.00000
  92       18F 0        0.00008   0.00000  -0.00008   0.00000  -0.00012
  93       18F+1        0.00000  -0.00001   0.00000   0.00001   0.00000
  94       18F-1        0.00030   0.00000   0.00008   0.00000   0.00008
  95       18F+2        0.00001   0.00000  -0.00014   0.00000  -0.00022
  96       18F-2        0.00000  -0.00022   0.00000   0.00025   0.00000
  97       18F+3        0.00000   0.00018   0.00000  -0.00022   0.00000
  98       18F-3        0.00008   0.00000  -0.00006   0.00000  -0.00010
  99       19F 0       -0.00008   0.00000  -0.00009   0.00000  -0.00011
 100       19F+1        0.00000   0.00001   0.00000  -0.00003   0.00000
 101       19F-1       -0.00037   0.00000   0.00000   0.00000   0.00017
 102       19F+2        0.00002   0.00000   0.00000   0.00000  -0.00010
 103       19F-2        0.00000   0.00017   0.00000  -0.00025   0.00000
 104       19F+3        0.00000  -0.00013   0.00000   0.00024   0.00000
 105       19F-3       -0.00010   0.00000   0.00010   0.00000   0.00001
 106 3   Br 1S          0.00619   0.00000  -0.00208   0.00000   0.00033
 107        2S         -0.02327   0.00000   0.00818   0.00000  -0.00041
 108        3S          0.05118   0.00000  -0.02157   0.00000  -0.00808
 109        4S          0.00001   0.00000   0.00050   0.00000   0.00094
 110        5S          0.00241   0.00000  -0.00086   0.00000  -0.00056
 111        6S          0.00322   0.00000  -0.00064   0.00000  -0.00094
 112        7S          0.00104   0.00000  -0.00022   0.00000  -0.00114
 113        8PX         0.00000  -0.26214   0.00000  -0.26301   0.00000
 114        8PY        -0.15987   0.00000   0.04634   0.00000   0.08650
 115        8PZ        -0.20781   0.00000  -0.09230   0.00000  -0.05118
 116        9PX         0.00000   0.74147   0.00000   0.74273   0.00000
 117        9PY         0.44588   0.00000  -0.11050   0.00000  -0.20526
 118        9PZ         0.58850   0.00000   0.24834   0.00000   0.12247
 119       10PX         0.00000   0.00130   0.00000   0.00072   0.00000
 120       10PY        -0.00020   0.00000   0.00055   0.00000   0.00046
 121       10PZ         0.00135   0.00000   0.00003   0.00000   0.00016
 122       11PX         0.00000   0.03314   0.00000   0.03285   0.00000
 123       11PY         0.01980   0.00000  -0.00488   0.00000  -0.00867
 124       11PZ         0.02613   0.00000   0.01093   0.00000   0.00510
 125       12PX         0.00000   0.00388   0.00000   0.00271   0.00000
 126       12PY         0.00019   0.00000   0.00023   0.00000   0.00013
 127       12PZ         0.00318   0.00000   0.00075   0.00000  -0.00056
 128       13PX         0.00000  -0.00032   0.00000  -0.00025   0.00000
 129       13PY        -0.00028   0.00000   0.00006   0.00000   0.00025
 130       13PZ         0.00000   0.00000  -0.00004   0.00000  -0.00019
 131       14D 0       -0.00763   0.00000  -0.00263   0.00000  -0.00114
 132       14D+1        0.00000   0.00115   0.00000   0.00124   0.00000
 133       14D-1        0.00700   0.00000  -0.00768   0.00000  -0.00973
 134       14D+2       -0.00292   0.00000  -0.00631   0.00000  -0.00612
 135       14D-2        0.00000  -0.00223   0.00000  -0.00217   0.00000
 136       15D 0       -0.00042   0.00000  -0.00020   0.00000  -0.00010
 137       15D+1        0.00000   0.00017   0.00000   0.00019   0.00000
 138       15D-1        0.00043   0.00000  -0.00070   0.00000  -0.00087
 139       15D+2       -0.00012   0.00000  -0.00061   0.00000  -0.00060
 140       15D-2        0.00000  -0.00028   0.00000  -0.00033   0.00000
 141       16D 0       -0.00037   0.00000  -0.00008   0.00000   0.00012
 142       16D+1        0.00000  -0.00010   0.00000  -0.00015   0.00000
 143       16D-1        0.00011   0.00000  -0.00025   0.00000  -0.00072
 144       16D+2       -0.00032   0.00000   0.00001   0.00000  -0.00020
 145       16D-2        0.00000   0.00017   0.00000   0.00017   0.00000
 146       17D 0       -0.00023   0.00000   0.00002   0.00000  -0.00010
 147       17D+1        0.00000   0.00009   0.00000  -0.00009   0.00000
 148       17D-1       -0.00019   0.00000   0.00004   0.00000   0.00023
 149       17D+2       -0.00031   0.00000   0.00006   0.00000   0.00003
 150       17D-2        0.00000  -0.00016   0.00000   0.00023   0.00000
 151       18F 0        0.00008   0.00000  -0.00008   0.00000  -0.00012
 152       18F+1        0.00000   0.00001   0.00000   0.00001   0.00000
 153       18F-1       -0.00032   0.00000  -0.00008   0.00000  -0.00008
 154       18F+2        0.00000   0.00000  -0.00014   0.00000  -0.00022
 155       18F-2        0.00000  -0.00022   0.00000  -0.00025   0.00000
 156       18F+3        0.00000  -0.00018   0.00000  -0.00022   0.00000
 157       18F-3       -0.00008   0.00000   0.00006   0.00000   0.00010
 158       19F 0       -0.00008   0.00000  -0.00009   0.00000  -0.00011
 159       19F+1        0.00000  -0.00001   0.00000  -0.00003   0.00000
 160       19F-1        0.00038   0.00000   0.00000   0.00000  -0.00018
 161       19F+2        0.00003   0.00000   0.00000   0.00000  -0.00011
 162       19F-2        0.00000   0.00017   0.00000   0.00025   0.00000
 163       19F+3        0.00000   0.00014   0.00000   0.00024   0.00000
 164       19F-3        0.00010   0.00000  -0.00010   0.00000  -0.00001
 165 4   O  1S          0.16580   0.00000  -0.79584   0.00000   0.53711
 166        2S         -0.00319   0.00000   0.01533   0.00000  -0.00885
 167        3S          0.00701   0.00000  -0.03366   0.00000   0.02327
 168        4S         -0.00157   0.00000   0.00256   0.00000  -0.00139
 169        5S         -0.00190   0.00000  -0.00046   0.00000  -0.00138
 170        6PX         0.00000   0.00000   0.00000  -0.00048   0.00000
 171        6PY         0.00000   0.00000   0.00001   0.00000   0.00001
 172        6PZ        -0.00066   0.00000   0.00396   0.00000  -0.00039
 173        7PX         0.00000   0.00000   0.00000  -0.00056   0.00000
 174        7PY        -0.00001   0.00000   0.00000   0.00000   0.00001
 175        7PZ        -0.00012   0.00000   0.00160   0.00000   0.00261
 176        8PX         0.00000   0.00000   0.00000  -0.00036   0.00000
 177        8PY        -0.00001   0.00000   0.00000   0.00000  -0.00002
 178        8PZ        -0.00135   0.00000   0.00332   0.00000   0.00227
 179        9PX         0.00000   0.00000   0.00000   0.00004   0.00000
 180        9PY         0.00000   0.00000  -0.00001   0.00000  -0.00001
 181        9PZ         0.00065   0.00000   0.00052   0.00000   0.00042
 182       10D 0        0.00004   0.00000  -0.00021   0.00000   0.00008
 183       10D+1        0.00000   0.00000   0.00000   0.00000   0.00000
 184       10D-1        0.00000   0.00000   0.00000   0.00000   0.00000
 185       10D+2       -0.00003   0.00000   0.00005   0.00000  -0.00002
 186       10D-2        0.00000   0.00001   0.00000   0.00000   0.00000
 187       11D 0        0.00003   0.00000   0.00016   0.00000  -0.00102
 188       11D+1        0.00000   0.00000   0.00000  -0.00009   0.00000
 189       11D-1        0.00000   0.00000   0.00000   0.00000   0.00000
 190       11D+2        0.00005   0.00000   0.00014   0.00000  -0.00006
 191       11D-2        0.00000  -0.00002   0.00000   0.00000   0.00000
 192       12D 0        0.00078   0.00000  -0.00050   0.00000  -0.00056
 193       12D+1        0.00000   0.00000   0.00000  -0.00009   0.00000
 194       12D-1        0.00000   0.00000   0.00000   0.00000   0.00001
 195       12D+2       -0.00001   0.00000   0.00029   0.00000   0.00040
 196       12D-2        0.00000   0.00003   0.00000   0.00000   0.00000
 197       13F 0        0.00001   0.00000  -0.00010   0.00000  -0.00010
 198       13F+1        0.00000   0.00000   0.00000   0.00000   0.00000
 199       13F-1        0.00000   0.00000   0.00000   0.00000   0.00000
 200       13F+2       -0.00001   0.00000   0.00002   0.00000  -0.00001
 201       13F-2        0.00000   0.00000   0.00000   0.00000   0.00000
 202       13F+3        0.00000   0.00000   0.00000  -0.00001   0.00000
 203       13F-3        0.00000   0.00000   0.00000   0.00000   0.00000
 204       14F 0       -0.00008   0.00000   0.00000   0.00000   0.00036
 205       14F+1        0.00000   0.00000   0.00000   0.00007   0.00000
 206       14F-1        0.00000   0.00000   0.00000   0.00000   0.00000
 207       14F+2        0.00002   0.00000  -0.00010   0.00000  -0.00004
 208       14F-2        0.00000   0.00003   0.00000   0.00000   0.00000
 209       14F+3        0.00000   0.00000   0.00000   0.00004   0.00000
 210       14F-3        0.00000   0.00000   0.00000   0.00000   0.00000
                          11        12        13        14        15
     Eigenvalues --     2.00000   2.00000   2.00000   2.00000   2.00000
   1 1   C  1S         -0.00019  -0.00133   0.00019  -0.01343   0.00000
   2        2S          0.00000   0.00005   0.00000   0.00010   0.00000
   3        3S         -0.00001  -0.00005   0.00001  -0.00062   0.00000
   4        4S          0.00001   0.00036  -0.00003   0.00105   0.00000
   5        5S          0.00000   0.00019  -0.00002   0.00038   0.00000
   6        6PX         0.00000   0.00000   0.00000   0.00000   0.00001
   7        6PY        -0.00002   0.00000   0.00001   0.00000   0.00000
   8        6PZ         0.00000   0.00001   0.00000   0.00004   0.00000
   9        7PX         0.00000   0.00000   0.00000   0.00000   0.00000
  10        7PY         0.00006   0.00000  -0.00004   0.00000   0.00000
  11        7PZ         0.00000   0.00007   0.00000  -0.00009   0.00000
  12        8PX         0.00000   0.00000   0.00000   0.00000  -0.00007
  13        8PY         0.00035  -0.00005  -0.00063   0.00000   0.00000
  14        8PZ        -0.00001  -0.00053   0.00004  -0.00038   0.00000
  15        9PX         0.00000   0.00000   0.00000   0.00000   0.00000
  16        9PY        -0.00011  -0.00001  -0.00010   0.00000   0.00000
  17        9PZ         0.00000  -0.00001   0.00000  -0.00005   0.00000
  18       10D 0        0.00000   0.00000   0.00000  -0.00001   0.00000
  19       10D+1        0.00000   0.00000   0.00000   0.00000   0.00000
  20       10D-1        0.00000   0.00000   0.00000   0.00000   0.00000
  21       10D+2        0.00000   0.00000   0.00000   0.00000   0.00000
  22       10D-2        0.00000   0.00000   0.00000   0.00000   0.00000
  23       11D 0        0.00000   0.00004   0.00000  -0.00001   0.00000
  24       11D+1        0.00000   0.00000   0.00000   0.00000   0.00005
  25       11D-1       -0.00008   0.00000   0.00003   0.00000   0.00000
  26       11D+2        0.00000   0.00001   0.00000  -0.00014   0.00000
  27       11D-2        0.00000   0.00000   0.00000   0.00000   0.00000
  28       12D 0        0.00000  -0.00001   0.00000  -0.00008   0.00000
  29       12D+1        0.00000   0.00000   0.00000   0.00000   0.00004
  30       12D-1       -0.00017   0.00002   0.00021   0.00000   0.00000
  31       12D+2        0.00000  -0.00005   0.00000  -0.00017   0.00000
  32       12D-2        0.00000   0.00000   0.00000   0.00000   0.00000
  33       13F 0        0.00000   0.00001   0.00000   0.00000   0.00000
  34       13F+1        0.00000   0.00000   0.00000   0.00000   0.00001
  35       13F-1        0.00000   0.00000  -0.00001   0.00000   0.00000
  36       13F+2        0.00000   0.00000   0.00000   0.00000   0.00000
  37       13F-2        0.00000   0.00000   0.00000   0.00000   0.00000
  38       13F+3        0.00000   0.00000   0.00000   0.00000  -0.00001
  39       13F-3        0.00000   0.00000  -0.00001   0.00000   0.00000
  40       14F 0        0.00000  -0.00003   0.00000  -0.00002   0.00000
  41       14F+1        0.00000   0.00000   0.00000   0.00000  -0.00001
  42       14F-1       -0.00001   0.00001   0.00008   0.00000   0.00000
  43       14F+2        0.00000   0.00005   0.00000  -0.00001   0.00000
  44       14F-2        0.00000   0.00000   0.00000   0.00000   0.00000
  45       14F+3        0.00000   0.00000   0.00000   0.00000   0.00004
  46       14F-3       -0.00002   0.00000   0.00006   0.00000   0.00000
  47 2   Br 1S         -0.05442   0.00382   0.01561   0.03932   0.00000
  48        2S          0.16822  -0.01169  -0.05105  -0.12610   0.00000
  49        3S          0.01470  -0.00114  -0.00465  -0.01309   0.00000
  50        4S         -0.00012   0.00003   0.00008   0.00015   0.00000
  51        5S          0.00044  -0.00003  -0.00013  -0.00038   0.00000
  52        6S          0.00045  -0.00033  -0.00049  -0.00066   0.00000
  53        7S         -0.00016  -0.00014  -0.00022  -0.00017   0.00000
  54        8PX         0.00000   0.00000   0.00000   0.00000   0.62918
  55        8PY         0.66791  -0.40108   0.18620  -0.56926   0.00000
  56        8PZ         0.13516   0.52857  -0.73468  -0.40157   0.00000
  57        9PX         0.00000   0.00000   0.00000   0.00000  -0.01422
  58        9PY        -0.00057   0.00688  -0.00914  -0.00714   0.00000
  59        9PZ         0.00625  -0.01277   0.01305  -0.00326   0.00000
  60       10PX         0.00000   0.00000   0.00000   0.00000   0.00025
  61       10PY         0.00033  -0.00023   0.00005  -0.00032   0.00000
  62       10PZ         0.00011   0.00020  -0.00038  -0.00022   0.00000
  63       11PX         0.00000   0.00000   0.00000   0.00000  -0.00108
  64       11PY        -0.00059   0.00061  -0.00049   0.00023   0.00000
  65       11PZ         0.00011  -0.00093   0.00113   0.00023   0.00000
  66       12PX         0.00000   0.00000   0.00000   0.00000  -0.00004
  67       12PY         0.00003  -0.00014  -0.00027  -0.00020   0.00000
  68       12PZ         0.00007  -0.00014  -0.00006  -0.00020   0.00000
  69       13PX         0.00000   0.00000   0.00000   0.00000   0.00002
  70       13PY        -0.00001  -0.00003  -0.00001  -0.00002   0.00000
  71       13PZ        -0.00003  -0.00001  -0.00005  -0.00002   0.00000
  72       14D 0       -0.00009   0.00030  -0.00034  -0.00002   0.00000
  73       14D+1        0.00000   0.00000   0.00000   0.00000  -0.00004
  74       14D-1       -0.00033   0.00017  -0.00009   0.00007   0.00000
  75       14D+2        0.00013   0.00015  -0.00024  -0.00009   0.00000
  76       14D-2        0.00000   0.00000   0.00000   0.00000  -0.00008
  77       15D 0        0.00000   0.00000  -0.00001   0.00000   0.00000
  78       15D+1        0.00000   0.00000   0.00000   0.00000  -0.00001
  79       15D-1       -0.00005   0.00000   0.00001   0.00004   0.00000
  80       15D+2        0.00003   0.00000  -0.00001  -0.00003   0.00000
  81       15D-2        0.00000   0.00000   0.00000   0.00000  -0.00002
  82       16D 0        0.00000   0.00005  -0.00007   0.00000   0.00000
  83       16D+1        0.00000   0.00000   0.00000   0.00000   0.00002
  84       16D-1        0.00007   0.00001  -0.00007  -0.00012   0.00000
  85       16D+2       -0.00005   0.00005  -0.00001   0.00010   0.00000
  86       16D-2        0.00000   0.00000   0.00000   0.00000   0.00003
  87       17D 0        0.00000   0.00001   0.00002  -0.00002   0.00000
  88       17D+1        0.00000   0.00000   0.00000   0.00000   0.00001
  89       17D-1        0.00002  -0.00003  -0.00004  -0.00006   0.00000
  90       17D+2        0.00002   0.00003   0.00004   0.00003   0.00000
  91       17D-2        0.00000   0.00000   0.00000   0.00000   0.00002
  92       18F 0        0.00000   0.00000   0.00000   0.00000   0.00000
  93       18F+1        0.00000   0.00000   0.00000   0.00000   0.00000
  94       18F-1        0.00000  -0.00001   0.00000   0.00000   0.00000
  95       18F+2        0.00000   0.00000   0.00000   0.00001   0.00000
  96       18F-2        0.00000   0.00000   0.00000   0.00000   0.00000
  97       18F+3        0.00000   0.00000   0.00000   0.00000   0.00000
  98       18F-3        0.00000   0.00000   0.00000   0.00001   0.00000
  99       19F 0       -0.00002   0.00000   0.00000   0.00001   0.00000
 100       19F+1        0.00000   0.00000   0.00000   0.00000   0.00000
 101       19F-1        0.00001   0.00003  -0.00004  -0.00002   0.00000
 102       19F+2       -0.00002   0.00000   0.00001   0.00004   0.00000
 103       19F-2        0.00000   0.00000   0.00000   0.00000   0.00002
 104       19F+3        0.00000   0.00000   0.00000   0.00000  -0.00002
 105       19F-3       -0.00001   0.00001  -0.00001   0.00002   0.00000
 106 3   Br 1S          0.05414   0.00053  -0.01589   0.03809   0.00000
 107        2S         -0.16731  -0.00112   0.05186  -0.12230   0.00000
 108        3S         -0.01478  -0.00017   0.00481  -0.01289   0.00000
 109        4S          0.00012   0.00002  -0.00008   0.00015   0.00000
 110        5S         -0.00044   0.00000   0.00014  -0.00037   0.00000
 111        6S         -0.00046  -0.00025   0.00054  -0.00065   0.00000
 112        7S          0.00015  -0.00011   0.00024  -0.00018   0.00000
 113        8PX         0.00000   0.00000   0.00000   0.00000   0.78802
 114        8PY         0.68113   0.40926   0.11666   0.56664   0.00000
 115        8PZ        -0.12511   0.63897   0.64876  -0.39312   0.00000
 116        9PX         0.00000   0.00000   0.00000   0.00000  -0.01791
 117        9PY        -0.00049  -0.00811  -0.00801   0.00712   0.00000
 118        9PZ        -0.00659  -0.01454  -0.01097  -0.00323   0.00000
 119       10PX         0.00000   0.00000   0.00000   0.00000   0.00031
 120       10PY         0.00034   0.00022   0.00001   0.00032   0.00000
 121       10PZ        -0.00010   0.00026   0.00034  -0.00021   0.00000
 122       11PX         0.00000   0.00000   0.00000   0.00000  -0.00135
 123       11PY        -0.00060  -0.00066  -0.00039  -0.00023   0.00000
 124       11PZ        -0.00013  -0.00109  -0.00098   0.00022   0.00000
 125       12PX         0.00000   0.00000   0.00000   0.00000  -0.00007
 126       12PY         0.00003   0.00010  -0.00029   0.00020   0.00000
 127       12PZ        -0.00008  -0.00013   0.00008  -0.00020   0.00000
 128       13PX         0.00000   0.00000   0.00000   0.00000   0.00003
 129       13PY        -0.00001   0.00003  -0.00002   0.00002   0.00000
 130       13PZ         0.00003   0.00000   0.00005  -0.00002   0.00000
 131       14D 0        0.00010   0.00035   0.00029  -0.00002   0.00000
 132       14D+1        0.00000   0.00000   0.00000   0.00000  -0.00005
 133       14D-1       -0.00033  -0.00018  -0.00006  -0.00007   0.00000
 134       14D+2       -0.00013   0.00019   0.00021  -0.00009   0.00000
 135       14D-2        0.00000   0.00000   0.00000   0.00000   0.00011
 136       15D 0        0.00000   0.00000   0.00001   0.00000   0.00000
 137       15D+1        0.00000   0.00000   0.00000   0.00000  -0.00002
 138       15D-1       -0.00005   0.00000   0.00001  -0.00004   0.00000
 139       15D+2       -0.00003   0.00000   0.00001  -0.00003   0.00000
 140       15D-2        0.00000   0.00000   0.00000   0.00000   0.00003
 141       16D 0        0.00000   0.00006   0.00006   0.00000   0.00000
 142       16D+1        0.00000   0.00000   0.00000   0.00000   0.00003
 143       16D-1        0.00007  -0.00003  -0.00007   0.00012   0.00000
 144       16D+2        0.00006   0.00005   0.00000   0.00010   0.00000
 145       16D-2        0.00000   0.00000   0.00000   0.00000  -0.00004
 146       17D 0        0.00000   0.00001  -0.00002  -0.00002   0.00000
 147       17D+1        0.00000   0.00000   0.00000   0.00000   0.00000
 148       17D-1        0.00002   0.00002  -0.00004   0.00006   0.00000
 149       17D+2       -0.00002   0.00002  -0.00004   0.00003   0.00000
 150       17D-2        0.00000   0.00000   0.00000   0.00000  -0.00001
 151       18F 0        0.00000   0.00000   0.00000   0.00000   0.00000
 152       18F+1        0.00000   0.00000   0.00000   0.00000   0.00000
 153       18F-1        0.00001   0.00001   0.00000   0.00000   0.00000
 154       18F+2        0.00001   0.00000   0.00000   0.00001   0.00000
 155       18F-2        0.00000   0.00000   0.00000   0.00000   0.00001
 156       18F+3        0.00000   0.00000   0.00000   0.00000   0.00000
 157       18F-3        0.00000   0.00000   0.00001  -0.00001   0.00000
 158       19F 0        0.00002   0.00000   0.00000   0.00001   0.00000
 159       19F+1        0.00000   0.00000   0.00000   0.00000   0.00000
 160       19F-1        0.00001  -0.00003  -0.00003   0.00001   0.00000
 161       19F+2        0.00002   0.00000  -0.00001   0.00004   0.00000
 162       19F-2        0.00000   0.00000   0.00000   0.00000  -0.00002
 163       19F+3        0.00000   0.00000   0.00000   0.00000  -0.00002
 164       19F-3       -0.00001  -0.00001  -0.00001  -0.00002   0.00000
 165 4   O  1S         -0.00006  -0.00048   0.00006  -0.00402   0.00000
 166        2S          0.00000   0.00000   0.00000   0.00010   0.00000
 167        3S          0.00000  -0.00002   0.00000  -0.00018   0.00000
 168        4S          0.00000   0.00006  -0.00001  -0.00005   0.00000
 169        5S          0.00000   0.00018  -0.00001   0.00005   0.00000
 170        6PX         0.00000   0.00000   0.00000   0.00000   0.00000
 171        6PY         0.00000   0.00000   0.00000   0.00000   0.00000
 172        6PZ         0.00000   0.00000   0.00000  -0.00002   0.00000
 173        7PX         0.00000   0.00000   0.00000   0.00000  -0.00001
 174        7PY         0.00001   0.00000  -0.00002   0.00000   0.00000
 175        7PZ         0.00000   0.00001   0.00000  -0.00006   0.00000
 176        8PX         0.00000   0.00000   0.00000   0.00000  -0.00002
 177        8PY         0.00003   0.00000   0.00000   0.00000   0.00000
 178        8PZ         0.00000   0.00011  -0.00001   0.00005   0.00000
 179        9PX         0.00000   0.00000   0.00000   0.00000  -0.00001
 180        9PY         0.00007   0.00000  -0.00003   0.00000   0.00000
 181        9PZ         0.00000  -0.00006   0.00000  -0.00002   0.00000
 182       10D 0        0.00000   0.00000   0.00000   0.00000   0.00000
 183       10D+1        0.00000   0.00000   0.00000   0.00000   0.00000
 184       10D-1        0.00000   0.00000   0.00000   0.00000   0.00000
 185       10D+2        0.00000   0.00000   0.00000   0.00000   0.00000
 186       10D-2        0.00000   0.00000   0.00000   0.00000   0.00000
 187       11D 0        0.00000  -0.00001   0.00000   0.00002   0.00000
 188       11D+1        0.00000   0.00000   0.00000   0.00000   0.00001
 189       11D-1        0.00000   0.00000   0.00000   0.00000   0.00000
 190       11D+2        0.00000  -0.00001   0.00000   0.00001   0.00000
 191       11D-2        0.00000   0.00000   0.00000   0.00000   0.00000
 192       12D 0        0.00000  -0.00007   0.00000   0.00000   0.00000
 193       12D+1        0.00000   0.00000   0.00000   0.00000   0.00001
 194       12D-1        0.00000   0.00000  -0.00002   0.00000   0.00000
 195       12D+2        0.00000  -0.00001   0.00000   0.00004   0.00000
 196       12D-2        0.00000   0.00000   0.00000   0.00000   0.00000
 197       13F 0        0.00000   0.00000   0.00000   0.00000   0.00000
 198       13F+1        0.00000   0.00000   0.00000   0.00000   0.00000
 199       13F-1        0.00000   0.00000   0.00000   0.00000   0.00000
 200       13F+2        0.00000   0.00000   0.00000   0.00000   0.00000
 201       13F-2        0.00000   0.00000   0.00000   0.00000   0.00000
 202       13F+3        0.00000   0.00000   0.00000   0.00000   0.00000
 203       13F-3        0.00000   0.00000   0.00000   0.00000   0.00000
 204       14F 0        0.00000   0.00001   0.00000  -0.00002   0.00000
 205       14F+1        0.00000   0.00000   0.00000   0.00000  -0.00001
 206       14F-1        0.00000   0.00000   0.00001   0.00000   0.00000
 207       14F+2        0.00000   0.00001   0.00000  -0.00002   0.00000
 208       14F-2        0.00000   0.00000   0.00000   0.00000   0.00000
 209       14F+3        0.00000   0.00000   0.00000   0.00000  -0.00001
 210       14F-3        0.00000   0.00000   0.00000   0.00000   0.00000
                          16        17        18        19        20
     Eigenvalues --     2.00000   2.00000   2.00000   2.00000   2.00000
   1 1   C  1S          0.00000  -0.00015   0.00151  -0.00001   0.00005
   2        2S          0.00000   0.00000  -0.00001   0.00000   0.00000
   3        3S          0.00000  -0.00001   0.00006   0.00000   0.00000
   4        4S          0.00000  -0.00001   0.00007   0.00000   0.00001
   5        5S          0.00000  -0.00001   0.00007   0.00000   0.00000
   6        6PX         0.00000   0.00000   0.00000   0.00000   0.00000
   7        6PY         0.00000   0.00000   0.00000   0.00000   0.00000
   8        6PZ         0.00000   0.00000   0.00000   0.00000   0.00000
   9        7PX         0.00000   0.00000   0.00000   0.00000   0.00000
  10        7PY         0.00000   0.00002   0.00000   0.00000   0.00000
  11        7PZ         0.00000   0.00000  -0.00001   0.00000   0.00000
  12        8PX         0.00001   0.00000   0.00000   0.00000   0.00000
  13        8PY         0.00000  -0.00001   0.00000   0.00001   0.00000
  14        8PZ         0.00000   0.00000  -0.00001   0.00000  -0.00001
  15        9PX         0.00000   0.00000   0.00000   0.00000   0.00000
  16        9PY         0.00000  -0.00002   0.00000   0.00000   0.00000
  17        9PZ         0.00000   0.00000   0.00000   0.00000   0.00000
  18       10D 0        0.00000   0.00000   0.00000   0.00000   0.00000
  19       10D+1        0.00000   0.00000   0.00000   0.00000   0.00000
  20       10D-1        0.00000   0.00000   0.00000   0.00000   0.00000
  21       10D+2        0.00000   0.00000   0.00000   0.00000   0.00000
  22       10D-2        0.00000   0.00000   0.00000   0.00000   0.00000
  23       11D 0        0.00000   0.00000   0.00000   0.00000   0.00000
  24       11D+1       -0.00001   0.00000   0.00000   0.00000   0.00000
  25       11D-1        0.00000  -0.00002   0.00000   0.00000   0.00000
  26       11D+2        0.00000   0.00000  -0.00001   0.00000   0.00000
  27       11D-2       -0.00004   0.00000   0.00000   0.00000   0.00000
  28       12D 0        0.00000   0.00000   0.00002   0.00000   0.00000
  29       12D+1        0.00000   0.00000   0.00000   0.00000   0.00000
  30       12D-1        0.00000  -0.00004   0.00000   0.00000   0.00000
  31       12D+2        0.00000   0.00000  -0.00001   0.00000   0.00000
  32       12D-2        0.00004   0.00000   0.00000   0.00000   0.00000
  33       13F 0        0.00000   0.00000   0.00000   0.00000   0.00000
  34       13F+1        0.00000   0.00000   0.00000   0.00000   0.00000
  35       13F-1        0.00000   0.00000   0.00000   0.00000   0.00000
  36       13F+2        0.00000   0.00000   0.00000   0.00000   0.00000
  37       13F-2        0.00000   0.00000   0.00000   0.00000   0.00000
  38       13F+3        0.00000   0.00000   0.00000   0.00000   0.00000
  39       13F-3        0.00000   0.00000   0.00000   0.00000   0.00000
  40       14F 0        0.00000   0.00000  -0.00001   0.00000   0.00000
  41       14F+1        0.00000   0.00000   0.00000   0.00000   0.00000
  42       14F-1        0.00000  -0.00002   0.00000   0.00000   0.00000
  43       14F+2        0.00000   0.00000   0.00000   0.00000   0.00000
  44       14F-2        0.00003   0.00000   0.00000   0.00000   0.00000
  45       14F+3        0.00000   0.00000   0.00000   0.00000   0.00000
  46       14F-3        0.00000  -0.00001   0.00000   0.00000   0.00000
  47 2   Br 1S          0.00000   0.23864  -0.19807  -0.86643   0.49632
  48        2S          0.00000  -0.77305   0.64367  -0.00461   0.00163
  49        3S          0.00000  -0.03298   0.02788  -0.00067   0.00032
  50        4S          0.00000   0.00022  -0.00017  -0.00002   0.00001
  51        5S          0.00000  -0.00078   0.00066   0.00000   0.00000
  52        6S          0.00000  -0.00004   0.00002   0.00002  -0.00001
  53        7S          0.00000  -0.00004  -0.00003   0.00000   0.00000
  54        8PX        -0.78816   0.00000   0.00000   0.00000   0.00000
  55        8PY         0.00000   0.16371  -0.09160  -0.00236  -0.00017
  56        8PZ         0.00000   0.09153  -0.05858  -0.00030  -0.00002
  57        9PX         0.01832   0.00000   0.00000   0.00000   0.00000
  58        9PY         0.00000  -0.00279   0.00279   0.00013  -0.00012
  59        9PZ         0.00000  -0.00144   0.00169   0.00006  -0.00004
  60       10PX        -0.00032   0.00000   0.00000   0.00000   0.00000
  61       10PY         0.00000   0.00008  -0.00005   0.00000   0.00000
  62       10PZ         0.00000   0.00005  -0.00003   0.00000   0.00000
  63       11PX         0.00137   0.00000   0.00000   0.00000   0.00000
  64       11PY         0.00000  -0.00026   0.00020   0.00001   0.00000
  65       11PZ         0.00000  -0.00014   0.00012   0.00000   0.00000
  66       12PX         0.00014   0.00000   0.00000   0.00000   0.00000
  67       12PY         0.00000  -0.00006   0.00000   0.00001   0.00000
  68       12PZ         0.00000  -0.00003   0.00002   0.00000   0.00000
  69       13PX        -0.00004   0.00000   0.00000   0.00000   0.00000
  70       13PY         0.00000   0.00000  -0.00001   0.00000   0.00000
  71       13PZ         0.00000   0.00000   0.00000   0.00000   0.00000
  72       14D 0        0.00000   0.00003  -0.00003   0.00000   0.00000
  73       14D+1        0.00005   0.00000   0.00000   0.00000   0.00000
  74       14D-1        0.00000   0.00000   0.00000   0.00000   0.00000
  75       14D+2        0.00000  -0.00008   0.00006   0.00000   0.00000
  76       14D-2        0.00011   0.00000   0.00000   0.00000   0.00000
  77       15D 0        0.00000   0.00000   0.00000   0.00000   0.00000
  78       15D+1        0.00002   0.00000   0.00000   0.00000   0.00000
  79       15D-1        0.00000   0.00000   0.00000   0.00000   0.00000
  80       15D+2        0.00000   0.00000   0.00000   0.00000   0.00000
  81       15D-2        0.00003   0.00000   0.00000   0.00000   0.00000
  82       16D 0        0.00000   0.00001   0.00000   0.00000   0.00000
  83       16D+1       -0.00002   0.00000   0.00000   0.00000   0.00000
  84       16D-1        0.00000   0.00002  -0.00001   0.00000   0.00000
  85       16D+2        0.00000  -0.00001   0.00001   0.00000   0.00000
  86       16D-2       -0.00004   0.00000   0.00000   0.00000   0.00000
  87       17D 0        0.00000   0.00000   0.00000   0.00000   0.00000
  88       17D+1        0.00002   0.00000   0.00000   0.00000   0.00000
  89       17D-1        0.00000  -0.00001   0.00001   0.00000   0.00000
  90       17D+2        0.00000   0.00002   0.00000   0.00000   0.00000
  91       17D-2        0.00002   0.00000   0.00000   0.00000   0.00000
  92       18F 0        0.00000   0.00000   0.00000   0.00000   0.00000
  93       18F+1        0.00000   0.00000   0.00000   0.00000   0.00000
  94       18F-1        0.00000   0.00000   0.00000   0.00000   0.00000
  95       18F+2        0.00000   0.00000   0.00000   0.00000   0.00000
  96       18F-2        0.00000   0.00000   0.00000   0.00000   0.00000
  97       18F+3        0.00000   0.00000   0.00000   0.00000   0.00000
  98       18F-3        0.00000   0.00000   0.00000   0.00000   0.00000
  99       19F 0        0.00000   0.00000   0.00000   0.00000   0.00000
 100       19F+1        0.00000   0.00000   0.00000   0.00000   0.00000
 101       19F-1        0.00000   0.00000   0.00000   0.00000   0.00000
 102       19F+2        0.00000   0.00000   0.00000   0.00000   0.00000
 103       19F-2       -0.00001   0.00000   0.00000   0.00000   0.00000
 104       19F+3        0.00001   0.00000   0.00000   0.00000   0.00000
 105       19F-3        0.00000   0.00000   0.00000   0.00000   0.00000
 106 3   Br 1S          0.00000  -0.19531  -0.24119   0.49585   0.86669
 107        2S          0.00000   0.63219   0.78329   0.00314   0.00376
 108        3S          0.00000   0.02691   0.03386   0.00041   0.00061
 109        4S          0.00000  -0.00018  -0.00021   0.00001   0.00001
 110        5S          0.00000   0.00063   0.00080   0.00000   0.00000
 111        6S          0.00000   0.00004   0.00003  -0.00001  -0.00002
 112        7S          0.00000   0.00005  -0.00002   0.00000   0.00000
 113        8PX         0.62935   0.00000   0.00000   0.00000   0.00000
 114        8PY         0.00000   0.14177   0.12037  -0.00210  -0.00102
 115        8PZ         0.00000  -0.07636  -0.07330   0.00024   0.00011
 116        9PX        -0.01471   0.00000   0.00000   0.00000   0.00000
 117        9PY         0.00000  -0.00220  -0.00329   0.00006   0.00017
 118        9PZ         0.00000   0.00107   0.00192  -0.00003  -0.00007
 119       10PX         0.00026   0.00000   0.00000   0.00000   0.00000
 120       10PY         0.00000   0.00007   0.00007   0.00000   0.00000
 121       10PZ         0.00000  -0.00004  -0.00004   0.00000   0.00000
 122       11PX        -0.00110   0.00000   0.00000   0.00000   0.00000
 123       11PY         0.00000  -0.00022  -0.00025   0.00000   0.00001
 124       11PZ         0.00000   0.00011   0.00015   0.00000   0.00000
 125       12PX        -0.00012   0.00000   0.00000   0.00000   0.00000
 126       12PY         0.00000  -0.00006  -0.00001   0.00001   0.00000
 127       12PZ         0.00000   0.00002   0.00002   0.00000   0.00000
 128       13PX         0.00003   0.00000   0.00000   0.00000   0.00000
 129       13PY         0.00000   0.00000   0.00000   0.00000   0.00000
 130       13PZ         0.00000   0.00000   0.00000   0.00000   0.00000
 131       14D 0        0.00000  -0.00003  -0.00004   0.00000   0.00000
 132       14D+1       -0.00004   0.00000   0.00000   0.00000   0.00000
 133       14D-1        0.00000  -0.00001   0.00000   0.00000   0.00000
 134       14D+2        0.00000   0.00006   0.00007   0.00000   0.00000
 135       14D-2        0.00009   0.00000   0.00000   0.00000   0.00000
 136       15D 0        0.00000   0.00000   0.00000   0.00000   0.00000
 137       15D+1       -0.00001   0.00000   0.00000   0.00000   0.00000
 138       15D-1        0.00000   0.00000   0.00000   0.00000   0.00000
 139       15D+2        0.00000   0.00000   0.00000   0.00000   0.00000
 140       15D-2        0.00002   0.00000   0.00000   0.00000   0.00000
 141       16D 0        0.00000  -0.00001   0.00000   0.00000   0.00000
 142       16D+1        0.00002   0.00000   0.00000   0.00000   0.00000
 143       16D-1        0.00000   0.00001   0.00001   0.00000   0.00000
 144       16D+2        0.00000   0.00000   0.00001   0.00000   0.00000
 145       16D-2       -0.00003   0.00000   0.00000   0.00000   0.00000
 146       17D 0        0.00000   0.00000   0.00000   0.00000   0.00000
 147       17D+1       -0.00002   0.00000   0.00000   0.00000   0.00000
 148       17D-1        0.00000  -0.00001  -0.00001   0.00000   0.00000
 149       17D+2        0.00000  -0.00002   0.00000   0.00000   0.00000
 150       17D-2        0.00002   0.00000   0.00000   0.00000   0.00000
 151       18F 0        0.00000   0.00000   0.00000   0.00000   0.00000
 152       18F+1        0.00000   0.00000   0.00000   0.00000   0.00000
 153       18F-1        0.00000   0.00000   0.00000   0.00000   0.00000
 154       18F+2        0.00000   0.00000   0.00000   0.00000   0.00000
 155       18F-2        0.00000   0.00000   0.00000   0.00000   0.00000
 156       18F+3        0.00000   0.00000   0.00000   0.00000   0.00000
 157       18F-3        0.00000   0.00000   0.00000   0.00000   0.00000
 158       19F 0        0.00000   0.00000   0.00000   0.00000   0.00000
 159       19F+1        0.00000   0.00000   0.00000   0.00000   0.00000
 160       19F-1        0.00000   0.00000   0.00000   0.00000   0.00000
 161       19F+2        0.00000   0.00000   0.00000   0.00000   0.00000
 162       19F-2       -0.00001   0.00000   0.00000   0.00000   0.00000
 163       19F+3       -0.00001   0.00000   0.00000   0.00000   0.00000
 164       19F-3        0.00000   0.00000   0.00000   0.00000   0.00000
 165 4   O  1S          0.00000  -0.00006   0.00061   0.00000   0.00000
 166        2S          0.00000   0.00000   0.00000   0.00000   0.00000
 167        3S          0.00000   0.00000   0.00003   0.00000   0.00000
 168        4S          0.00000   0.00000  -0.00002   0.00000   0.00000
 169        5S          0.00000   0.00001  -0.00005   0.00000   0.00001
 170        6PX         0.00000   0.00000   0.00000   0.00000   0.00000
 171        6PY         0.00000   0.00000   0.00000   0.00000   0.00000
 172        6PZ         0.00000   0.00000   0.00000   0.00000   0.00000
 173        7PX         0.00000   0.00000   0.00000   0.00000   0.00000
 174        7PY         0.00000   0.00000   0.00000   0.00000   0.00000
 175        7PZ         0.00000   0.00000   0.00001   0.00000   0.00000
 176        8PX         0.00000   0.00000   0.00000   0.00000   0.00000
 177        8PY         0.00000   0.00003   0.00000   0.00000   0.00000
 178        8PZ         0.00000   0.00000   0.00001   0.00000   0.00000
 179        9PX         0.00000   0.00000   0.00000   0.00000   0.00000
 180        9PY         0.00000   0.00001   0.00000   0.00000   0.00000
 181        9PZ         0.00000   0.00000   0.00001   0.00000   0.00000
 182       10D 0        0.00000   0.00000   0.00000   0.00000   0.00000
 183       10D+1        0.00000   0.00000   0.00000   0.00000   0.00000
 184       10D-1        0.00000   0.00000   0.00000   0.00000   0.00000
 185       10D+2        0.00000   0.00000   0.00000   0.00000   0.00000
 186       10D-2        0.00000   0.00000   0.00000   0.00000   0.00000
 187       11D 0        0.00000   0.00000   0.00000   0.00000   0.00000
[...]
 190       11D+2       -0.01177   0.00000   0.01643  -0.09860  -0.03755
 191       11D-2        0.00000  -0.00037   0.00000   0.00000   0.00000
 192       12D 0        4.54060   0.00000   0.21597  -1.28314   0.77965
 193       12D+1        0.00000   2.06870   0.00000   0.00000   0.00000
 194       12D-1       -0.01513   0.00000  -0.23463  -0.04005  -0.00452
 195       12D+2       -0.51179   0.00000  -0.09278   0.55227   0.05019
 196       12D-2        0.00000  -0.00101   0.00000   0.00000   0.00000
 197       13F 0        0.01835   0.00000  -0.00234   0.01548  -0.04623
 198       13F+1        0.00000   0.01865   0.00000   0.00000   0.00000
 199       13F-1       -0.00048   0.00000   0.04773   0.00788  -0.00007
 200       13F+2       -0.05247   0.00000  -0.00406   0.02396  -0.01380
 201       13F-2        0.00000   0.00003   0.00000   0.00000   0.00000
 202       13F+3        0.00000   0.00428   0.00000   0.00000   0.00000
 203       13F-3       -0.00012   0.00000  -0.02826  -0.00444   0.00024
 204       14F 0       -1.28288   0.00000  -0.02970   0.17011   0.01189
 205       14F+1        0.00000  -0.15327   0.00000   0.00000   0.00000
 206       14F-1        0.00315   0.00000  -0.12670  -0.02058   0.00088
 207       14F+2        0.18873   0.00000   0.01636  -0.09743   0.04689
 208       14F-2        0.00000   0.00018   0.00000   0.00000   0.00000
 209       14F+3        0.00000   0.00292   0.00000   0.00000   0.00000
 210       14F-3        0.00028   0.00000   0.05885   0.00933  -0.00055
                         206       207       208       209       210
     Eigenvalues --     0.00000   0.00000   0.00000   0.00000   0.00000
   1 1   C  1S          0.00000  -0.00311  -0.00239   0.22006   0.00107
   2        2S          0.00000  -0.01634  -0.01373   1.26208   0.04398
   3        3S          0.00000   0.00041  -0.00007   0.00753   0.11061
   4        4S          0.00000   0.08313  -0.03645   9.26978   3.54158
   5        5S          0.00000   0.26836  -0.08973   3.60132  31.34460
   6        6PX         0.00362   0.00000   0.00000   0.00000   0.00000
   7        6PY         0.00000  -0.00115   0.00568   0.00002   0.00015
   8        6PZ         0.00000  -0.00005   0.00014   0.01340   0.01084
   9        7PX        -0.31474   0.00000   0.00000   0.00000   0.00000
  10        7PY         0.00000  -0.24505  -0.12966  -0.00068  -0.00042
  11        7PZ         0.00000   0.00438  -0.01604   1.35575   0.07129
  12        8PX        -0.29816   0.00000   0.00000   0.00000   0.00000
  13        8PY         0.00000  -5.49416   6.86228   0.03207   0.02039
  14        8PZ         0.00000  -0.05898  -0.05624   5.45218  -0.02295
  15        9PX         6.33658   0.00000   0.00000   0.00000   0.00000
  16        9PY         0.00000  -0.29808  13.97816   0.11147   0.05210
  17        9PZ         0.00000  -0.03651  -0.00599   5.89043  -3.83963
  18       10D 0        0.00000   0.00036  -0.00098   0.08579   0.02129
  19       10D+1       -0.00719   0.00000   0.00000   0.00000   0.00000
  20       10D-1        0.00000   0.00795   0.02124   0.00027   0.00007
  21       10D+2        0.00000   0.00059   0.00037  -0.00581  -0.04823
  22       10D-2       -0.00013   0.00000   0.00000   0.00000   0.00000
  23       11D 0        0.00000   0.00131  -0.00832   0.59311  -0.21217
  24       11D+1       -0.43819   0.00000   0.00000   0.00000   0.00000
  25       11D-1        0.00000  -0.13834  -0.69171  -0.00792   0.00041
  26       11D+2        0.00000  -0.00546  -0.00316   0.02108   0.18733
  27       11D-2       -0.00019   0.00000   0.00000   0.00000   0.00000
  28       12D 0        0.00000  -0.01185  -0.01835   3.48221   0.24287
  29       12D+1        0.92079   0.00000   0.00000   0.00000   0.00000
  30       12D-1        0.00000  -0.18414  -0.38554  -0.01609   0.00626
  31       12D+2        0.00000  -0.05045  -0.00317   1.37935  -1.02555
  32       12D-2       -0.00478   0.00000   0.00000   0.00000   0.00000
  33       13F 0        0.00000  -0.00031  -0.00094   0.05182  -0.04540
  34       13F+1       -0.12056   0.00000   0.00000   0.00000   0.00000
  35       13F-1        0.00000  -0.01640  -0.06223  -0.00031   0.00028
  36       13F+2        0.00000   0.00019  -0.00027  -0.00214   0.00547
  37       13F-2        0.00002   0.00000   0.00000   0.00000   0.00000
  38       13F+3        0.05203   0.00000   0.00000   0.00000   0.00000
  39       13F-3        0.00000   0.04671  -0.00088  -0.00019  -0.00017
  40       14F 0        0.00000   0.00404   0.00088  -0.01774  -0.09178
  41       14F+1       -0.04634   0.00000   0.00000   0.00000   0.00000
  42       14F-1        0.00000  -0.00856  -0.01584  -0.00278   0.00030
  43       14F+2        0.00000   0.00427   0.00163   0.12380  -0.17098
  44       14F-2       -0.00083   0.00000   0.00000   0.00000   0.00000
  45       14F+3       -0.03083   0.00000   0.00000   0.00000   0.00000
  46       14F-3        0.00000  -0.06887  -0.10872  -0.00061   0.00022
  47 2   Br 1S          0.00000   0.00221  -0.00002  -0.00001   0.00007
  48        2S          0.00000   0.01685  -0.00334  -0.00122   0.00055
  49        3S          0.00000   0.07867  -0.00784  -0.00297   0.00255
  50        4S          0.00000   0.23098  -0.05485  -0.01508   0.00859
  51        5S          0.00000   0.09141  -0.15508  -0.00487  -0.00298
  52        6S          0.00000  -0.77753   1.83988   0.84930   0.05270
  53        7S          0.00000 -10.01453  14.89990   2.24696 -13.37895
  54        8PX         0.00164   0.00000   0.00000   0.00000   0.00000
  55        8PY         0.00000   0.00095   0.00056   0.00063  -0.00039
  56        8PZ         0.00000   0.00059  -0.00005   0.00043   0.00004
  57        9PX        -0.02021   0.00000   0.00000   0.00000   0.00000
  58        9PY         0.00000   0.01663   0.00280  -0.00816   0.02530
  59        9PZ         0.00000   0.00146   0.01276  -0.00945   0.01498
  60       10PX        -0.15436   0.00000   0.00000   0.00000   0.00000
  61       10PY         0.00000   0.24480   0.06205  -0.06341   0.27723
  62       10PZ         0.00000   0.05043   0.14602  -0.08904   0.17796
  63       11PX         0.04547   0.00000   0.00000   0.00000   0.00000
  64       11PY         0.00000   0.00067  -0.00418   0.01811  -0.03511
  65       11PZ         0.00000   0.01549  -0.02374   0.01407  -0.01643
  66       12PX         0.65823   0.00000   0.00000   0.00000   0.00000
  67       12PY         0.00000  -3.70309   3.68006  -0.30233  -1.65299
  68       12PZ         0.00000  -2.38687   2.54122   1.59263  -1.31166
  69       13PX        -2.44444   0.00000   0.00000   0.00000   0.00000
  70       13PY         0.00000  -3.82848   0.40953   0.84218  -3.63976
  71       13PZ         0.00000  -0.93955   2.88441  -0.88086  -2.17763
  72       14D 0        0.00000  -0.00092  -0.00063   0.00114  -0.00096
  73       14D+1        0.00235   0.00000   0.00000   0.00000   0.00000
  74       14D-1        0.00000   0.00088  -0.00021  -0.00132   0.00117
  75       14D+2        0.00000  -0.00343  -0.00109   0.00223   0.00019
  76       14D-2        0.00098   0.00000   0.00000   0.00000   0.00000
  77       15D 0        0.00000   0.01505   0.00446  -0.01433   0.01310
  78       15D+1       -0.02825   0.00000   0.00000   0.00000   0.00000
  79       15D-1        0.00000   0.00201  -0.01511   0.00886  -0.01783
  80       15D+2        0.00000   0.03644   0.02473  -0.02330  -0.00112
  81       15D-2       -0.02113   0.00000   0.00000   0.00000   0.00000
  82       16D 0        0.00000  -0.09832  -0.00238   0.08724  -0.07248
  83       16D+1        0.11304   0.00000   0.00000   0.00000   0.00000
  84       16D-1        0.00000  -0.03100   0.29770  -0.04707   0.17132
  85       16D+2        0.00000  -0.19334  -0.26874   0.13957  -0.05835
  86       16D-2        0.09980   0.00000   0.00000   0.00000   0.00000
  87       17D 0        0.00000   0.15885   0.17830   0.32791   0.03311
  88       17D+1       -0.22365   0.00000   0.00000   0.00000   0.00000
  89       17D-1        0.00000  -1.42416   1.10511   0.30241  -0.75054
  90       17D+2        0.00000   1.76250  -0.51077   0.23749   0.34344
  91       17D-2       -0.02838   0.00000   0.00000   0.00000   0.00000
  92       18F 0        0.00000   0.00556   0.01917  -0.01489  -0.00429
  93       18F+1       -0.00926   0.00000   0.00000   0.00000   0.00000
  94       18F-1        0.00000   0.02820  -0.02500   0.00100   0.00701
  95       18F+2        0.00000  -0.04205   0.01340  -0.01468  -0.00809
  96       18F-2       -0.01325   0.00000   0.00000   0.00000   0.00000
  97       18F+3        0.05002   0.00000   0.00000   0.00000   0.00000
  98       18F-3        0.00000  -0.03981   0.01457  -0.01935  -0.01172
  99       19F 0        0.00000   0.02044  -0.10473   0.03052  -0.01046
 100       19F+1        0.00576   0.00000   0.00000   0.00000   0.00000
 101       19F-1        0.00000  -0.11113   0.13486   0.02811  -0.02916
 102       19F+2        0.00000   0.17906  -0.16436   0.05042   0.01630
 103       19F-2        0.02102   0.00000   0.00000   0.00000   0.00000
 104       19F+3       -0.11096   0.00000   0.00000   0.00000   0.00000
 105       19F-3        0.00000   0.16963  -0.10698   0.09686   0.02186
 106 3   Br 1S          0.00000  -0.00211   0.00003  -0.00002   0.00009
 107        2S          0.00000  -0.01618   0.00342  -0.00118   0.00066
 108        3S          0.00000  -0.07532   0.00833  -0.00301   0.00306
 109        4S          0.00000  -0.22183   0.05596  -0.01441   0.01020
 110        5S          0.00000  -0.08720   0.15572  -0.00225  -0.00197
 111        6S          0.00000   0.64775  -1.90845   0.83919   0.04673
 112        7S          0.00000   9.78330 -14.89201   1.98528 -13.53224
 113        8PX         0.00163   0.00000   0.00000   0.00000   0.00000
 114        8PY         0.00000   0.00102   0.00059  -0.00064   0.00039
 115        8PZ         0.00000  -0.00061   0.00003   0.00044   0.00006
 116        9PX        -0.02013   0.00000   0.00000   0.00000   0.00000
 117        9PY         0.00000   0.01687   0.00337   0.00824  -0.02555
 118        9PZ         0.00000  -0.00158  -0.01306  -0.00969   0.01472
 119       10PX        -0.15416   0.00000   0.00000   0.00000   0.00000
 120       10PY         0.00000   0.25167   0.07024   0.06390  -0.28051
 121       10PZ         0.00000  -0.05284  -0.15058  -0.09104   0.17594
 122       11PX         0.04515   0.00000   0.00000   0.00000   0.00000
 123       11PY         0.00000   0.00160  -0.00414  -0.01852   0.03513
 124       11PZ         0.00000  -0.01567   0.02350   0.01479  -0.01568
 125       12PX         0.66263   0.00000   0.00000   0.00000   0.00000
 126       12PY         0.00000  -3.62787   3.71353   0.35816   1.68307
 127       12PZ         0.00000   2.28483  -2.54681   1.55917  -1.32020
 128       13PX        -2.44440   0.00000   0.00000   0.00000   0.00000
 129       13PY         0.00000  -3.81764   0.40137  -0.83172   3.66019
 130       13PZ         0.00000   0.90309  -2.84691  -0.94600  -2.18530
 131       14D 0        0.00000   0.00091   0.00058   0.00118  -0.00096
 132       14D+1        0.00232   0.00000   0.00000   0.00000   0.00000
 133       14D-1        0.00000   0.00086  -0.00022   0.00129  -0.00114
 134       14D+2        0.00000   0.00349   0.00106   0.00224   0.00021
 135       14D-2       -0.00098   0.00000   0.00000   0.00000   0.00000
 136       15D 0        0.00000  -0.01493  -0.00418  -0.01452   0.01316
 137       15D+1       -0.02794   0.00000   0.00000   0.00000   0.00000
 138       15D-1        0.00000   0.00194  -0.01474  -0.00901   0.01730
 139       15D+2        0.00000  -0.03736  -0.02437  -0.02383  -0.00139
 140       15D-2        0.02120   0.00000   0.00000   0.00000   0.00000
 141       16D 0        0.00000   0.09864   0.00352   0.08724  -0.07438
 142       16D+1        0.11127   0.00000   0.00000   0.00000   0.00000
 143       16D-1        0.00000  -0.02268   0.29984   0.05083  -0.16851
 144       16D+2        0.00000   0.20405   0.27133   0.14401  -0.05808
 145       16D-2       -0.09938   0.00000   0.00000   0.00000   0.00000
 146       17D 0        0.00000  -0.18326  -0.16477   0.32100   0.03689
 147       17D+1       -0.21880   0.00000   0.00000   0.00000   0.00000
 148       17D-1        0.00000  -1.39657   1.10561  -0.28566   0.75489
 149       17D+2        0.00000  -1.76926   0.51637   0.24602   0.35104
 150       17D-2        0.02574   0.00000   0.00000   0.00000   0.00000
 151       18F 0        0.00000  -0.00446  -0.01911  -0.01500  -0.00443
 152       18F+1       -0.00938   0.00000   0.00000   0.00000   0.00000
 153       18F-1        0.00000   0.02781  -0.02442  -0.00122  -0.00694
 154       18F+2        0.00000   0.04211  -0.01305  -0.01486  -0.00850
 155       18F-2        0.01290   0.00000   0.00000   0.00000   0.00000
 156       18F+3        0.05006   0.00000   0.00000   0.00000   0.00000
 157       18F-3        0.00000  -0.03986   0.01427   0.01966   0.01226
 158       19F 0        0.00000  -0.02237   0.10660   0.03131  -0.00998
 159       19F+1        0.00636   0.00000   0.00000   0.00000   0.00000
 160       19F-1        0.00000  -0.10759   0.13158  -0.02504   0.03013
 161       19F+2        0.00000  -0.17636   0.16394   0.05290   0.01800
 162       19F-2       -0.02029   0.00000   0.00000   0.00000   0.00000
 163       19F+3       -0.11092   0.00000   0.00000   0.00000   0.00000
 164       19F-3        0.00000   0.16902  -0.10675  -0.09880  -0.02327
 165 4   O  1S          0.00000  -0.00059  -0.00032   0.09927   0.02948
 166        2S          0.00000  -0.00254  -0.00214   0.52245   0.15436
 167        3S          0.00000   0.00065  -0.00071   0.00536  -0.00566
 168        4S          0.00000  -0.00145   0.05068  -6.18674   0.01932
 169        5S          0.00000  -0.03899   0.15082 -15.11181  -8.05224
 170        6PX         0.01944   0.00000   0.00000   0.00000   0.00000
 171        6PY         0.00000   0.01542   0.00263   0.00005   0.00003
 172        6PZ         0.00000   0.00018   0.00019  -0.00536   0.01154
 173        7PX        -0.03511   0.00000   0.00000   0.00000   0.00000
 174        7PY         0.00000  -0.08043   0.03716   0.00007  -0.00020
 175        7PZ         0.00000  -0.00048  -0.00266   0.14123  -0.13539
 176        8PX         0.78281   0.00000   0.00000   0.00000   0.00000
 177        8PY         0.00000   1.01348   0.11464   0.01242  -0.00205
 178        8PZ         0.00000   0.01097  -0.03657   3.76504   0.67541
 179        9PX        -3.49285   0.00000   0.00000   0.00000   0.00000
 180        9PY         0.00000  -0.79975  -3.70828  -0.01477  -0.00320
 181        9PZ         0.00000  -0.01322  -0.02279   0.27715   1.67920
 182       10D 0        0.00000   0.00055  -0.00053   0.05472   0.01259
 183       10D+1        0.03597   0.00000   0.00000   0.00000   0.00000
 184       10D-1        0.00000   0.00169   0.03706   0.00012  -0.00014
 185       10D+2        0.00000   0.00031  -0.00007  -0.02684  -0.01060
 186       10D-2        0.00029   0.00000   0.00000   0.00000   0.00000
 187       11D 0        0.00000  -0.00191   0.00438  -0.40294  -0.02913
 188       11D+1       -0.23909   0.00000   0.00000   0.00000   0.00000
 189       11D-1        0.00000  -0.03660  -0.20743  -0.00129   0.00061
 190       11D+2        0.00000  -0.00129   0.00020   0.07688   0.03373
 191       11D-2       -0.00073   0.00000   0.00000   0.00000   0.00000
 192       12D 0        0.00000   0.00259   0.00435  -0.49992  -0.18914
 193       12D+1       -0.08452   0.00000   0.00000   0.00000   0.00000
 194       12D-1        0.00000  -0.30542   0.16249  -0.00397  -0.00054
 195       12D+2        0.00000   0.00518  -0.00130  -0.37328   0.05875
 196       12D-2        0.00235   0.00000   0.00000   0.00000   0.00000
 197       13F 0        0.00000  -0.00025  -0.00027   0.01837  -0.01335
 198       13F+1       -0.00530   0.00000   0.00000   0.00000   0.00000
 199       13F-1        0.00000  -0.01467  -0.00247  -0.00010  -0.00002
 200       13F+2        0.00000   0.00004   0.00002  -0.01299   0.01476
 201       13F-2       -0.00007   0.00000   0.00000   0.00000   0.00000
 202       13F+3        0.01430   0.00000   0.00000   0.00000   0.00000
 203       13F-3        0.00000  -0.00980   0.01637   0.00002  -0.00003
 204       14F 0        0.00000   0.00062  -0.00117   0.14371   0.06415
 205       14F+1        0.16909   0.00000   0.00000   0.00000   0.00000
 206       14F-1        0.00000   0.07309   0.09628   0.00109  -0.00005
 207       14F+2        0.00000  -0.00012  -0.00006   0.05809  -0.03818
 208       14F-2       -0.00009   0.00000   0.00000   0.00000   0.00000
 209       14F+3       -0.02610   0.00000   0.00000   0.00000   0.00000
 210       14F-3        0.00000   0.02485  -0.02858   0.00004   0.00003
          Condensed to atoms (all electrons):
              1          2          3          4
     1  C    5.551054   0.029541   0.026417   0.240314
     2  Br   0.029541  35.045409  -0.118717  -0.055141
     3  Br   0.026417  -0.118717  35.043569  -0.055820
     4  O    0.240314  -0.055141  -0.055820   8.226780
 Mulliken atomic charges:
              1
     1  C    0.152674
     2  Br   0.098909
     3  Br   0.104551
     4  O   -0.356133
 Sum of Mulliken atomic charges =   0.00000
 Mulliken charges with hydrogens summed into heavy atoms:
              1
     1  C    0.152674
     2  Br   0.098909
     3  Br   0.104551
     4  O   -0.356133
 Sum of Mulliken charges with hydrogens summed into heavy atoms =   0.00000
 Electronic spatial extent (au):  <R**2>=           1359.5182
 Charge=              0.0000 electrons
 Dipole moment (field-independent basis, Debye):
    X=              0.0000    Y=              0.0169    Z=             -1.2323  Tot=              1.2325
 Quadrupole moment (field-independent basis, Debye-Ang):
   XX=            -46.9735   YY=            -44.9685   ZZ=            -47.5130
   XY=              0.0000   XZ=              0.0000   YZ=             -0.0139
 Traceless Quadrupole moment (field-independent basis, Debye-Ang):
   XX=             -0.4885   YY=              1.5165   ZZ=             -1.0280
   XY=              0.0000   XZ=              0.0000   YZ=             -0.0139
 Octapole moment (field-independent basis, Debye-Ang**2):
  XXX=              0.0000  YYY=              0.1358  ZZZ=            165.3131  XYY=              0.0000
  XXY=              0.0227  XXZ=             56.5122  XZZ=              0.0000  YZZ=             -0.0095
  YYZ=             45.9056  XYZ=              0.0000
 Hexadecapole moment (field-independent basis, Debye-Ang**3):
 XXXX=            -53.7270 YYYY=           -571.3369 ZZZZ=           -600.2408 XXXY=              0.0000
 XXXZ=              0.0000 YYYX=              0.0000 YYYZ=             -0.9723 ZZZX=              0.0000
 ZZZY=             -0.7341 XXYY=           -111.3969 XXZZ=           -111.0039 YYZZ=           -175.5129
 XXYZ=             -0.3229 YYXZ=              0.0000 ZZXY=              0.0000
 N-N= 4.489034735344D+02 E-N=-1.346955966764D+04  KE= 5.257221628022D+03
 1\1\GINC-TRAPISTA\SP\RQCISD-FC\Aug-CC-pVTZ\C1Br2O1\BRUNS\28-Nov-2021\0
 \\# qcisd/aug-cc-pvtz nosymm density=current output=wfn\\br2co-wavefun
 ction\\0,1\C,0,0.,0.,-0.491759\Br,0,0.,-1.594181,-1.55682\Br,0,0.,1.59
 4181,-1.54682\O,0,0.,0.,0.6845\\Version=EM64L-G09RevB.01\HF=-5257.6844
 736\MP2=-5258.5486003\MP3=-5258.5484398\MP4D=-5258.5696774\MP4DQ=-5258
 .5481753\MP4SDQ=-5258.560164\QCISD=-5258.557757\RMSD=9.228e-09\Dipole=
 0.,0.0066664,-0.4848396\Quadrupole=-0.3631736,1.1274556,-0.764282,0.,0
 .,-0.0103231\PG=CS [SG(C1Br2O1)]\\@

 Writing a WFN file to GAUSSIAN.wfn.


 In the beginning the Universe was created.
 This has made a lot of people very angry
 and been widely regarded as a bad move.
                               -D.Adams
 Job cpu time:  0 days  5 hours 34 minutes  9.2 seconds.
 File lengths (MBytes):  RWF=  23799 Int=      0 D2E=      0 Chk=      4 Scr=      1
 Normal termination of Gaussian 09 at Sun Nov 28 14:16:21 2021.
