 br2co-wavefunction
GAUSSIAN            210 MOL ORBITALS    578 PRIMITIVES        4 NUCLEI
  C    1    (CENTRE  1)   0.00000000  0.00000000 -0.92928983  CHARGE =  6.0
  Br   2    (CENTRE  2)   0.00000000 -3.01256550 -2.92306618  CHARGE = 35.0
  Br   3    (CENTRE  3)   0.00000000  3.03146276 -2.92306618  CHARGE = 35.0
  O    4    (CENTRE  4)   0.00000000  0.00000000  1.29351754  CHARGE =  8.0
CENTRE ASSIGNMENTS    1  1  1  1  1  1  1  1  1  1  1  1  1  1  1  1  1  1  1  1
CENTRE ASSIGNMENTS    1  1  1  1  1  1  1  1  1  1  1  1  1  1  1  1  1  1  1  1
CENTRE ASSIGNMENTS    1  1  1  1  1  1  1  1  1  1  1  1  1  1  1  1  1  1  1  1
CENTRE ASSIGNMENTS    1  1  1  1  1  1  1  1  1  1  1  1  2  2  2  2  2  2  2  2
CENTRE ASSIGNMENTS    2  2  2  2  2  2  2  2  2  2  2  2  2  2  2  2  2  2  2  2
CENTRE ASSIGNMENTS    2  2  2  2  2  2  2  2  2  2  2  2  2  2  2  2  2  2  2  2
CENTRE ASSIGNMENTS    2  2  2  2  2  2  2  2  2  2  2  2  2  2  2  2  2  2  2  2
CENTRE ASSIGNMENTS    2  2  2  2  2  2  2  2  2  2  2  2  2  2  2  2  2  2  2  2
CENTRE ASSIGNMENTS    2  2  2  2  2  2  2  2  2  2  2  2  2  2  2  2  2  2  2  2
CENTRE ASSIGNMENTS    2  2  2  2  2  2  2  2  2  2  2  2  2  2  2  2  2  2  2  2
CENTRE ASSIGNMENTS    2  2  2  2  2  2  2  2  2  2  2  2  2  2  2  2  2  2  2  2
CENTRE ASSIGNMENTS    2  2  2  2  2  2  2  2  2  2  2  2  2  2  2  2  2  2  2  2
CENTRE ASSIGNMENTS    2  2  2  2  2  2  2  2  2  2  2  2  2  2  2  2  2  2  2  2
CENTRE ASSIGNMENTS    2  2  2  2  2  2  2  2  2  2  2  2  2  2  2  2  2  2  2  2
CENTRE ASSIGNMENTS    2  2  2  2  2  2  2  2  2  3  3  3  3  3  3  3  3  3  3  3
CENTRE ASSIGNMENTS    3  3  3  3  3  3  3  3  3  3  3  3  3  3  3  3  3  3  3  3
CENTRE ASSIGNMENTS    3  3  3  3  3  3  3  3  3  3  3  3  3  3  3  3  3  3  3  3
CENTRE ASSIGNMENTS    3  3  3  3  3  3  3  3  3  3  3  3  3  3  3  3  3  3  3  3
CENTRE ASSIGNMENTS    3  3  3  3  3  3  3  3  3  3  3  3  3  3  3  3  3  3  3  3
CENTRE ASSIGNMENTS    3  3  3  3  3  3  3  3  3  3  3  3  3  3  3  3  3  3  3  3
CENTRE ASSIGNMENTS    3  3  3  3  3  3  3  3  3  3  3  3  3  3  3  3  3  3  3  3
CENTRE ASSIGNMENTS    3  3  3  3  3  3  3  3  3  3  3  3  3  3  3  3  3  3  3  3
CENTRE ASSIGNMENTS    3  3  3  3  3  3  3  3  3  3  3  3  3  3  3  3  3  3  3  3
CENTRE ASSIGNMENTS    3  3  3  3  3  3  3  3  3  3  3  3  3  3  3  3  3  3  3  3
CENTRE ASSIGNMENTS    3  3  3  3  3  3  3  3  3  3  3  3  3  3  3  3  3  3  3  3
CENTRE ASSIGNMENTS    3  3  3  3  3  3  4  4  4  4  4  4  4  4  4  4  4  4  4  4
CENTRE ASSIGNMENTS    4  4  4  4  4  4  4  4  4  4  4  4  4  4  4  4  4  4  4  4
CENTRE ASSIGNMENTS    4  4  4  4  4  4  4  4  4  4  4  4  4  4  4  4  4  4  4  4
CENTRE ASSIGNMENTS    4  4  4  4  4  4  4  4  4  4  4  4  4  4  4  4  4  4
TYPE ASSIGNMENTS      1  1  1  1  1  1  1  1  1  1  1  1  1  1  1  1  2  2  2  3
TYPE ASSIGNMENTS      3  3  4  4  4  2  3  4  2  3  4  2  3  4  5  6  7  8  9 10
TYPE ASSIGNMENTS      5  6  7  8  9 10  5  6  7  8  9 10 11 12 13 17 14 15 18 19
TYPE ASSIGNMENTS     16 20 11 12 13 17 14 15 18 19 16 20  1  1  1  1  1  1  1  1
TYPE ASSIGNMENTS      1  1  1  1  1  1  1  1  1  1  1  1  1  1  1  1  1  1  1  1
TYPE ASSIGNMENTS      1  1  1  1  1  1  1  1  1  1  1  1  1  1  1  1  1  1  1  1
TYPE ASSIGNMENTS      1  1  2  2  2  2  2  2  2  2  2  3  3  3  3  3  3  3  3  3
TYPE ASSIGNMENTS      4  4  4  4  4  4  4  4  4  2  2  2  2  2  2  2  2  2  3  3
TYPE ASSIGNMENTS      3  3  3  3  3  3  3  4  4  4  4  4  4  4  4  4  2  2  2  2
TYPE ASSIGNMENTS      2  2  2  2  3  3  3  3  3  3  3  3  4  4  4  4  4  4  4  4
TYPE ASSIGNMENTS      2  3  4  2  3  4  2  3  4  5  5  5  5  5  5  5  6  6  6  6
TYPE ASSIGNMENTS      6  6  6  7  7  7  7  7  7  7  8  8  8  8  8  8  8  9  9  9
TYPE ASSIGNMENTS      9  9  9  9 10 10 10 10 10 10 10  5  6  7  8  9 10  5  6  7
TYPE ASSIGNMENTS      8  9 10  5  6  7  8  9 10 11 12 13 17 14 15 18 19 16 20 11
TYPE ASSIGNMENTS     12 13 17 14 15 18 19 16 20  1  1  1  1  1  1  1  1  1  1  1
TYPE ASSIGNMENTS      1  1  1  1  1  1  1  1  1  1  1  1  1  1  1  1  1  1  1  1
TYPE ASSIGNMENTS      1  1  1  1  1  1  1  1  1  1  1  1  1  1  1  1  1  1  1  2
TYPE ASSIGNMENTS      2  2  2  2  2  2  2  2  3  3  3  3  3  3  3  3  3  4  4  4
TYPE ASSIGNMENTS      4  4  4  4  4  4  2  2  2  2  2  2  2  2  2  3  3  3  3  3
TYPE ASSIGNMENTS      3  3  3  3  4  4  4  4  4  4  4  4  4  2  2  2  2  2  2  2
TYPE ASSIGNMENTS      2  3  3  3  3  3  3  3  3  4  4  4  4  4  4  4  4  2  3  4
TYPE ASSIGNMENTS      2  3  4  2  3  4  5  5  5  5  5  5  5  6  6  6  6  6  6  6
TYPE ASSIGNMENTS      7  7  7  7  7  7  7  8  8  8  8  8  8  8  9  9  9  9  9  9
TYPE ASSIGNMENTS      9 10 10 10 10 10 10 10  5  6  7  8  9 10  5  6  7  8  9 10
TYPE ASSIGNMENTS      5  6  7  8  9 10 11 12 13 17 14 15 18 19 16 20 11 12 13 17
TYPE ASSIGNMENTS     14 15 18 19 16 20  1  1  1  1  1  1  1  1  1  1  1  1  1  1
TYPE ASSIGNMENTS      1  1  2  2  2  3  3  3  4  4  4  2  3  4  2  3  4  2  3  4
TYPE ASSIGNMENTS      5  6  7  8  9 10  5  6  7  8  9 10  5  6  7  8  9 10 11 12
TYPE ASSIGNMENTS     13 17 14 15 18 19 16 20 11 12 13 17 14 15 18 19 16 20
EXPONENTS  0.8236000D+04 0.1235000D+04 0.2808000D+03 0.7927000D+02 0.2559000D+02
EXPONENTS  0.8997000D+01 0.3319000D+01 0.2808000D+03 0.7927000D+02 0.2559000D+02
EXPONENTS  0.8997000D+01 0.3319000D+01 0.3643000D+00 0.9059000D+00 0.1285000D+00
EXPONENTS  0.4402000D-01 0.1871000D+02 0.4133000D+01 0.1200000D+01 0.1871000D+02
EXPONENTS  0.4133000D+01 0.1200000D+01 0.1871000D+02 0.4133000D+01 0.1200000D+01
EXPONENTS  0.3827000D+00 0.3827000D+00 0.3827000D+00 0.1209000D+00 0.1209000D+00
EXPONENTS  0.1209000D+00 0.3569000D-01 0.3569000D-01 0.3569000D-01 0.1097000D+01
EXPONENTS  0.1097000D+01 0.1097000D+01 0.1097000D+01 0.1097000D+01 0.1097000D+01
EXPONENTS  0.3180000D+00 0.3180000D+00 0.3180000D+00 0.3180000D+00 0.3180000D+00
EXPONENTS  0.3180000D+00 0.1000000D+00 0.1000000D+00 0.1000000D+00 0.1000000D+00
EXPONENTS  0.1000000D+00 0.1000000D+00 0.7610000D+00 0.7610000D+00 0.7610000D+00
EXPONENTS  0.7610000D+00 0.7610000D+00 0.7610000D+00 0.7610000D+00 0.7610000D+00
EXPONENTS  0.7610000D+00 0.7610000D+00 0.2680000D+00 0.2680000D+00 0.2680000D+00
EXPONENTS  0.2680000D+00 0.2680000D+00 0.2680000D+00 0.2680000D+00 0.2680000D+00
EXPONENTS  0.2680000D+00 0.2680000D+00 0.1063900D+08 0.1593400D+07 0.3626100D+06
EXPONENTS  0.1027000D+06 0.3350100D+05 0.1209300D+05 0.4715900D+04 0.1955600D+04
EXPONENTS  0.8526100D+03 0.3876700D+03 0.1826800D+03 0.8824500D+02 0.3926300D+02
EXPONENTS  0.9405700D+01 0.1899500D+01 0.3350100D+05 0.1209300D+05 0.4715900D+04
EXPONENTS  0.1955600D+04 0.8526100D+03 0.3876700D+03 0.1826800D+03 0.8824500D+02
EXPONENTS  0.3926300D+02 0.1923400D+02 0.9405700D+01 0.1899500D+01 0.4715900D+04
EXPONENTS  0.8526100D+03 0.3876700D+03 0.1826800D+03 0.8824500D+02 0.3926300D+02
EXPONENTS  0.1923400D+02 0.9405700D+01 0.4160100D+01 0.1899500D+01 0.4715900D+04
EXPONENTS  0.8526100D+03 0.3876700D+03 0.8824500D+02 0.3926300D+02 0.1923400D+02
EXPONENTS  0.9405700D+01 0.4160100D+01 0.1899500D+01 0.3011400D+00 0.6047200D+00
EXPONENTS  0.1251500D+00 0.4559300D-01 0.8676500D+04 0.2055900D+04 0.6662300D+03
EXPONENTS  0.2531000D+03 0.1061200D+03 0.4724200D+02 0.2182500D+02 0.9968400D+01
EXPONENTS  0.1998200D+01 0.8676500D+04 0.2055900D+04 0.6662300D+03 0.2531000D+03
EXPONENTS  0.1061200D+03 0.4724200D+02 0.2182500D+02 0.9968400D+01 0.1998200D+01
EXPONENTS  0.8676500D+04 0.2055900D+04 0.6662300D+03 0.2531000D+03 0.1061200D+03
EXPONENTS  0.4724200D+02 0.2182500D+02 0.9968400D+01 0.1998200D+01 0.8676500D+04
EXPONENTS  0.6662300D+03 0.2531000D+03 0.1061200D+03 0.4724200D+02 0.2182500D+02
EXPONENTS  0.9968400D+01 0.4517100D+01 0.1998200D+01 0.8676500D+04 0.6662300D+03
EXPONENTS  0.2531000D+03 0.1061200D+03 0.4724200D+02 0.2182500D+02 0.9968400D+01
EXPONENTS  0.4517100D+01 0.1998200D+01 0.8676500D+04 0.6662300D+03 0.2531000D+03
EXPONENTS  0.1061200D+03 0.4724200D+02 0.2182500D+02 0.9968400D+01 0.4517100D+01
EXPONENTS  0.1998200D+01 0.6662300D+03 0.1061200D+03 0.4724200D+02 0.2182500D+02
EXPONENTS  0.9968400D+01 0.4517100D+01 0.1998200D+01 0.2814500D+00 0.6662300D+03
EXPONENTS  0.1061200D+03 0.4724200D+02 0.2182500D+02 0.9968400D+01 0.4517100D+01
EXPONENTS  0.1998200D+01 0.2814500D+00 0.6662300D+03 0.1061200D+03 0.4724200D+02
EXPONENTS  0.2182500D+02 0.9968400D+01 0.4517100D+01 0.1998200D+01 0.2814500D+00
EXPONENTS  0.7098800D+00 0.7098800D+00 0.7098800D+00 0.1020400D+00 0.1020400D+00
EXPONENTS  0.1020400D+00 0.3514200D-01 0.3514200D-01 0.3514200D-01 0.4038300D+03
EXPONENTS  0.1211700D+03 0.4634500D+02 0.1972100D+02 0.8862400D+01 0.3996200D+01
EXPONENTS  0.1763600D+01 0.4038300D+03 0.1211700D+03 0.4634500D+02 0.1972100D+02
EXPONENTS  0.8862400D+01 0.3996200D+01 0.1763600D+01 0.4038300D+03 0.1211700D+03
EXPONENTS  0.4634500D+02 0.1972100D+02 0.8862400D+01 0.3996200D+01 0.1763600D+01
EXPONENTS  0.4038300D+03 0.1211700D+03 0.4634500D+02 0.1972100D+02 0.8862400D+01
EXPONENTS  0.3996200D+01 0.1763600D+01 0.4038300D+03 0.1211700D+03 0.4634500D+02
EXPONENTS  0.1972100D+02 0.8862400D+01 0.3996200D+01 0.1763600D+01 0.4038300D+03
EXPONENTS  0.1211700D+03 0.4634500D+02 0.1972100D+02 0.8862400D+01 0.3996200D+01
EXPONENTS  0.1763600D+01 0.7061900D+00 0.7061900D+00 0.7061900D+00 0.7061900D+00
EXPONENTS  0.7061900D+00 0.7061900D+00 0.2639000D+00 0.2639000D+00 0.2639000D+00
EXPONENTS  0.2639000D+00 0.2639000D+00 0.2639000D+00 0.1047000D+00 0.1047000D+00
EXPONENTS  0.1047000D+00 0.1047000D+00 0.1047000D+00 0.1047000D+00 0.5515000D+00
EXPONENTS  0.5515000D+00 0.5515000D+00 0.5515000D+00 0.5515000D+00 0.5515000D+00
EXPONENTS  0.5515000D+00 0.5515000D+00 0.5515000D+00 0.5515000D+00 0.2580000D+00
EXPONENTS  0.2580000D+00 0.2580000D+00 0.2580000D+00 0.2580000D+00 0.2580000D+00
EXPONENTS  0.2580000D+00 0.2580000D+00 0.2580000D+00 0.2580000D+00 0.1063900D+08
EXPONENTS  0.1593400D+07 0.3626100D+06 0.1027000D+06 0.3350100D+05 0.1209300D+05
EXPONENTS  0.4715900D+04 0.1955600D+04 0.8526100D+03 0.3876700D+03 0.1826800D+03
EXPONENTS  0.8824500D+02 0.3926300D+02 0.9405700D+01 0.1899500D+01 0.3350100D+05
EXPONENTS  0.1209300D+05 0.4715900D+04 0.1955600D+04 0.8526100D+03 0.3876700D+03
EXPONENTS  0.1826800D+03 0.8824500D+02 0.3926300D+02 0.1923400D+02 0.9405700D+01
EXPONENTS  0.1899500D+01 0.4715900D+04 0.8526100D+03 0.3876700D+03 0.1826800D+03
EXPONENTS  0.8824500D+02 0.3926300D+02 0.1923400D+02 0.9405700D+01 0.4160100D+01
EXPONENTS  0.1899500D+01 0.4715900D+04 0.8526100D+03 0.3876700D+03 0.8824500D+02
EXPONENTS  0.3926300D+02 0.1923400D+02 0.9405700D+01 0.4160100D+01 0.1899500D+01
EXPONENTS  0.3011400D+00 0.6047200D+00 0.1251500D+00 0.4559300D-01 0.8676500D+04
EXPONENTS  0.2055900D+04 0.6662300D+03 0.2531000D+03 0.1061200D+03 0.4724200D+02
EXPONENTS  0.2182500D+02 0.9968400D+01 0.1998200D+01 0.8676500D+04 0.2055900D+04
EXPONENTS  0.6662300D+03 0.2531000D+03 0.1061200D+03 0.4724200D+02 0.2182500D+02
EXPONENTS  0.9968400D+01 0.1998200D+01 0.8676500D+04 0.2055900D+04 0.6662300D+03
EXPONENTS  0.2531000D+03 0.1061200D+03 0.4724200D+02 0.2182500D+02 0.9968400D+01
EXPONENTS  0.1998200D+01 0.8676500D+04 0.6662300D+03 0.2531000D+03 0.1061200D+03
EXPONENTS  0.4724200D+02 0.2182500D+02 0.9968400D+01 0.4517100D+01 0.1998200D+01
EXPONENTS  0.8676500D+04 0.6662300D+03 0.2531000D+03 0.1061200D+03 0.4724200D+02
EXPONENTS  0.2182500D+02 0.9968400D+01 0.4517100D+01 0.1998200D+01 0.8676500D+04
EXPONENTS  0.6662300D+03 0.2531000D+03 0.1061200D+03 0.4724200D+02 0.2182500D+02
EXPONENTS  0.9968400D+01 0.4517100D+01 0.1998200D+01 0.6662300D+03 0.1061200D+03
EXPONENTS  0.4724200D+02 0.2182500D+02 0.9968400D+01 0.4517100D+01 0.1998200D+01
EXPONENTS  0.2814500D+00 0.6662300D+03 0.1061200D+03 0.4724200D+02 0.2182500D+02
EXPONENTS  0.9968400D+01 0.4517100D+01 0.1998200D+01 0.2814500D+00 0.6662300D+03
EXPONENTS  0.1061200D+03 0.4724200D+02 0.2182500D+02 0.9968400D+01 0.4517100D+01
EXPONENTS  0.1998200D+01 0.2814500D+00 0.7098800D+00 0.7098800D+00 0.7098800D+00
EXPONENTS  0.1020400D+00 0.1020400D+00 0.1020400D+00 0.3514200D-01 0.3514200D-01
EXPONENTS  0.3514200D-01 0.4038300D+03 0.1211700D+03 0.4634500D+02 0.1972100D+02
EXPONENTS  0.8862400D+01 0.3996200D+01 0.1763600D+01 0.4038300D+03 0.1211700D+03
EXPONENTS  0.4634500D+02 0.1972100D+02 0.8862400D+01 0.3996200D+01 0.1763600D+01
EXPONENTS  0.4038300D+03 0.1211700D+03 0.4634500D+02 0.1972100D+02 0.8862400D+01
EXPONENTS  0.3996200D+01 0.1763600D+01 0.4038300D+03 0.1211700D+03 0.4634500D+02
EXPONENTS  0.1972100D+02 0.8862400D+01 0.3996200D+01 0.1763600D+01 0.4038300D+03
EXPONENTS  0.1211700D+03 0.4634500D+02 0.1972100D+02 0.8862400D+01 0.3996200D+01
EXPONENTS  0.1763600D+01 0.4038300D+03 0.1211700D+03 0.4634500D+02 0.1972100D+02
EXPONENTS  0.8862400D+01 0.3996200D+01 0.1763600D+01 0.7061900D+00 0.7061900D+00
EXPONENTS  0.7061900D+00 0.7061900D+00 0.7061900D+00 0.7061900D+00 0.2639000D+00
EXPONENTS  0.2639000D+00 0.2639000D+00 0.2639000D+00 0.2639000D+00 0.2639000D+00
EXPONENTS  0.1047000D+00 0.1047000D+00 0.1047000D+00 0.1047000D+00 0.1047000D+00
EXPONENTS  0.1047000D+00 0.5515000D+00 0.5515000D+00 0.5515000D+00 0.5515000D+00
EXPONENTS  0.5515000D+00 0.5515000D+00 0.5515000D+00 0.5515000D+00 0.5515000D+00
EXPONENTS  0.5515000D+00 0.2580000D+00 0.2580000D+00 0.2580000D+00 0.2580000D+00
EXPONENTS  0.2580000D+00 0.2580000D+00 0.2580000D+00 0.2580000D+00 0.2580000D+00
EXPONENTS  0.2580000D+00 0.1533000D+05 0.2299000D+04 0.5224000D+03 0.1473000D+03
EXPONENTS  0.4755000D+02 0.1676000D+02 0.6207000D+01 0.5224000D+03 0.1473000D+03
EXPONENTS  0.4755000D+02 0.1676000D+02 0.6207000D+01 0.6882000D+00 0.1752000D+01
EXPONENTS  0.2384000D+00 0.7376000D-01 0.3446000D+02 0.7749000D+01 0.2280000D+01
EXPONENTS  0.3446000D+02 0.7749000D+01 0.2280000D+01 0.3446000D+02 0.7749000D+01
EXPONENTS  0.2280000D+01 0.7156000D+00 0.7156000D+00 0.7156000D+00 0.2140000D+00
EXPONENTS  0.2140000D+00 0.2140000D+00 0.5974000D-01 0.5974000D-01 0.5974000D-01
EXPONENTS  0.2314000D+01 0.2314000D+01 0.2314000D+01 0.2314000D+01 0.2314000D+01
EXPONENTS  0.2314000D+01 0.6450000D+00 0.6450000D+00 0.6450000D+00 0.6450000D+00
EXPONENTS  0.6450000D+00 0.6450000D+00 0.2140000D+00 0.2140000D+00 0.2140000D+00
EXPONENTS  0.2140000D+00 0.2140000D+00 0.2140000D+00 0.1428000D+01 0.1428000D+01
EXPONENTS  0.1428000D+01 0.1428000D+01 0.1428000D+01 0.1428000D+01 0.1428000D+01
EXPONENTS  0.1428000D+01 0.1428000D+01 0.1428000D+01 0.5000000D+00 0.5000000D+00
EXPONENTS  0.5000000D+00 0.5000000D+00 0.5000000D+00 0.5000000D+00 0.5000000D+00
EXPONENTS  0.5000000D+00 0.5000000D+00 0.5000000D+00
MO    1     MO 0.0        OCC NO =    2.0000165  ORB. ENERGY =    0.000000
  0.12189741D+00  0.22724133D+00  0.38406881D+00  0.57732705D+00  0.70914288D+00
  0.59849157D+00  0.22504846D+00  0.28782388D-04  0.21513052D-03  0.80399186D-03
  0.22430121D-02  0.30050178D-02 -0.35483657D-02  0.93583773D-02 -0.19449245D-02
 -0.30154857D-03  0.53652944D-13  0.50303045D-13  0.35818765D-13  0.11675473D-02
  0.10946498D-02  0.77945589D-03  0.35759138D-02  0.33526465D-02  0.23872840D-02
  0.38381548D-13  0.39679231D-03  0.19388057D-02  0.22489862D-14  0.87784612D-04
  0.37618857D-03  0.84305859D-15 -0.32378832D-05  0.47719580D-05 -0.98711061D-04
 -0.48976776D-03  0.58847882D-03 -0.13647165D-13 -0.71000268D-14 -0.28540787D-03
  0.33098870D-03 -0.31853352D-03 -0.12455178D-04 -0.20491271D-13  0.50523905D-14
 -0.12648180D-03  0.30306774D-04 -0.18979315D-04 -0.11327459D-04  0.10107615D-14
  0.14458373D-14 -0.26239803D-04 -0.43837186D-14 -0.11513176D-04  0.12179338D-03
 -0.22624236D-14  0.29496717D-04 -0.16489125D-03  0.15413579D-13  0.50428108D-05
 -0.20048889D-03 -0.13889844D-14 -0.14280828D-15  0.89555646D-05 -0.14090761D-04
 -0.44198552D-15 -0.10885931D-05  0.21673618D-05  0.87041035D-15 -0.25778101D-04
  0.40104923D-04  0.66118418D-14 -0.40207238D-01 -0.75635870D-01 -0.13092955D+00
 -0.21461868D+00 -0.33620343D+00 -0.50534111D+00 -0.72225125D+00 -0.95878696D+00
 -0.11165767D+01 -0.10254465D+01 -0.59944082D+00 -0.15728977D+00 -0.89427973D-02
 -0.15604220D-03 -0.15707422D-04 -0.19077166D-02 -0.55109535D-02 -0.25257994D-01
 -0.74769165D-01 -0.21683276D+00 -0.45070690D+00 -0.64474158D+00 -0.18486800D+00
  0.73875730D+00  0.71430684D+00  0.15590839D+00 -0.22567267D-02 -0.11659049D-02
 -0.54391875D-02 -0.11038427D-01 -0.43261517D-01 -0.30357631D-01  0.19770038D+00
  0.61260561D+00  0.74935385D-01 -0.53551027D+00 -0.25131495D+00 -0.12735683D-05
 -0.17459611D-05  0.33474298D-05  0.71143890D-05 -0.26894381D-04 -0.86969597D-04
 -0.30246703D-04  0.29584570D-03  0.65988927D-03 -0.43788244D-03 -0.10440186D-01
  0.60885614D-03  0.14540742D-03 -0.21198280D-08 -0.30416368D-08 -0.40274082D-08
 -0.46509555D-08 -0.43123128D-08 -0.27925959D-08 -0.98539317D-09 -0.11354080D-09
  0.18549079D-12  0.12062166D+02  0.17307408D+02  0.22916607D+02  0.26464692D+02
  0.24537761D+02  0.15890325D+02  0.56070473D+01  0.64606563D+00 -0.10554728D-02
  0.74468950D+01  0.10685183D+02  0.14148169D+02  0.16338673D+02  0.15149031D+02
  0.98103093D+01  0.34616579D+01  0.39886559D+00 -0.65162383D-03  0.10343304D-10
 -0.29490602D-10 -0.14394742D-09 -0.29828643D-09 -0.37432002D-09 -0.59360424D-10
  0.48050257D-09  0.41906791D-09  0.10772764D-09 -0.71949581D-01  0.20514107D+00
  0.10013200D+01  0.20749254D+01  0.26038265D+01  0.41292006D+00 -0.33424483D+01
 -0.29150996D+01 -0.74936972D+00 -0.44492744D-01  0.12685674D+00  0.61920405D+00
  0.12831085D+01  0.16101746D+01  0.25534473D+00 -0.20669293D+01 -0.18026620D+01
 -0.46340110D+00 -0.13173596D-13 -0.18610851D-13  0.86595318D-14 -0.17353784D-13
 -0.19050570D-13 -0.51423460D-13 -0.16204891D-13  0.34792245D-13 -0.26937309D-03
 -0.38055384D-03  0.17706972D-03 -0.35484938D-03 -0.38954519D-03 -0.10515046D-02
 -0.33135687D-03  0.71143025D-03 -0.16018130D-03 -0.22629435D-03  0.10529358D-03
 -0.21100933D-03 -0.23164101D-03 -0.62527170D-03 -0.19703963D-03  0.42304828D-03
  0.35769055D-11 -0.26545818D-01 -0.16545730D-01  0.36394373D-13  0.10386016D-03
  0.55640098D-04 -0.10082073D-14  0.89426055D-05  0.65013295D-05  0.12303139D+01
  0.12873909D+01  0.10969260D+01  0.72240867D+00  0.33293665D+00  0.99698418D-01
  0.16962841D-01 -0.15034264D+01 -0.15731737D+01 -0.13404282D+01 -0.88277330D+00
 -0.40684393D+00 -0.12183007D+00 -0.20728354D-01  0.27311249D+00  0.28578279D+00
  0.24350223D+00  0.16036463D+00  0.73907283D-01  0.22131655D-01  0.37655136D-02
  0.20860086D-10  0.21827832D-10  0.18598481D-10  0.12248506D-10  0.56449717D-11
  0.16903959D-11  0.28760653D-12 -0.34044550D-10 -0.35623953D-10 -0.30353515D-10
 -0.19990084D-10 -0.92128346D-11 -0.27587982D-11 -0.46938613D-12 -0.44935334D+01
 -0.47019985D+01 -0.40063544D+01 -0.26384873D+01 -0.12160002D+01 -0.36413324D+00
 -0.61954183D-01  0.13484669D-02 -0.16218927D-02  0.27342578D-03  0.36440983D-13
 -0.16281910D-13 -0.45268840D-02 -0.12789227D-03  0.11594169D-03  0.11950579D-04
 -0.31339138D-14 -0.16330841D-14  0.33447716D-03 -0.12591255D-04  0.14263134D-04
 -0.16718790D-05  0.13117976D-14  0.59904335D-15  0.31971563D-04 -0.61183687D-14
 -0.47490934D-04  0.11235803D-03  0.17474019D-13  0.25096055D-03  0.17027686D-03
  0.88108731D-15 -0.10848774D-03 -0.50735094D-03  0.36496660D-13  0.49655162D-15
  0.90780631D-05 -0.24617194D-04 -0.14616177D-14 -0.75948577D-04 -0.59773833D-04
 -0.28037171D-16  0.48714388D-04  0.13362542D-03 -0.37962199D-14 -0.28375553D-01
 -0.53378690D-01 -0.92401238D-01 -0.15146337D+00 -0.23726968D+00 -0.35663563D+00
 -0.50971616D+00 -0.67664710D+00 -0.78800443D+00 -0.72369090D+00 -0.42304485D+00
 -0.11100450D+00 -0.63112225D-02 -0.11012405D-03 -0.11085238D-04 -0.13465701D-02
 -0.38899307D-02 -0.17828466D-01 -0.52776143D-01 -0.15305235D+00 -0.31813345D+00
 -0.45509368D+00 -0.13048989D+00  0.52145509D+00  0.50419662D+00  0.11004862D+00
 -0.15929205D-02 -0.82488972D-03 -0.38482812D-02 -0.78098010D-02 -0.30607969D-01
 -0.21478336D-01  0.13987506D+00  0.43342477D+00  0.53017556D-01 -0.37887903D+00
 -0.17780792D+00 -0.90196886D-06 -0.12365277D-05  0.23707228D-05  0.50385654D-05
 -0.19047187D-04 -0.61593764D-04 -0.21421374D-04  0.20952437D-03  0.46734796D-03
 -0.31011789D-03 -0.73589687D-02  0.43543955D-03  0.15522463D-03  0.14132309D-09
  0.20277753D-09  0.26849619D-09  0.31006637D-09  0.28749000D-09  0.18617466D-09
  0.65693444D-10  0.75694521D-11 -0.12366159D-13 -0.75286219D+01 -0.10802449D+02
 -0.14303440D+02 -0.16517984D+02 -0.15315286D+02 -0.99179737D+01 -0.34996483D+01
 -0.40324299D+00  0.65877516D-03  0.47027187D+01  0.67476995D+01  0.89345776D+01
  0.10317882D+02  0.95666224D+01  0.61952163D+01  0.21860391D+01  0.25188386D+00
 -0.41150084D-03 -0.21317501D-11  0.60779992D-11  0.29667496D-10  0.61476692D-10
  0.77147181D-10  0.12234155D-10 -0.99031354D-10 -0.86369699D-10 -0.22202616D-10
  0.44807329D-01 -0.12775368D+00 -0.62358213D+00 -0.12921808D+01 -0.16215593D+01
 -0.25715014D+00  0.20815435D+01  0.18154077D+01  0.46667757D+00 -0.28079633D-01
  0.80060035D-01  0.39078333D+00  0.80977736D+00  0.10161907D+01  0.16114956D+00
 -0.13044513D+01 -0.11376706D+01 -0.29245516D+00  0.63539295D-14  0.89764432D-14
 -0.41766921D-14  0.83701305D-14  0.91885297D-14  0.24802722D-13  0.78159930D-14
 -0.16781103D-13  0.23754751D-03  0.33559260D-03 -0.15614949D-03  0.31292504D-03
  0.34352166D-03  0.92727262D-03  0.29220810D-03 -0.62737700D-03 -0.11907858D-03
 -0.16822695D-03  0.78275119D-04 -0.15686408D-03 -0.17220165D-03 -0.46482622D-03
 -0.14647902D-03  0.31449357D-03 -0.75996064D-12  0.16520363D-01 -0.10454601D-01
 -0.95525364D-14 -0.13967294D-03  0.62160321D-04 -0.90074145D-16 -0.82376620D-05
  0.65180007D-05  0.74640451D+00  0.78103190D+00  0.66548098D+00  0.43826953D+00
  0.20198538D+00  0.60484849D-01  0.10290984D-01 -0.92149603D+00 -0.96424631D+00
 -0.82158947D+00 -0.54107878D+00 -0.24936710D+00 -0.74673381D-01 -0.12705043D-01
  0.17509152D+00  0.18321441D+00  0.15610849D+00  0.10280924D+00  0.47381718D-01
  0.14188532D-01  0.24140585D-02  0.39532060D-10  0.41366041D-10  0.35246081D-10
  0.23212209D-10  0.10697816D-10  0.32034783D-11  0.54504468D-12 -0.54027485D-10
 -0.56533942D-10 -0.48169945D-10 -0.31723550D-10 -0.14620440D-10 -0.43781144D-11
 -0.74489904D-12  0.27534180D+01  0.28811553D+01  0.24548985D+01  0.16167363D+01
  0.74510561D+00  0.22312308D+00  0.37962501D-01  0.85642164D-03 -0.10590006D-02
  0.20257897D-03  0.38596151D-13 -0.48836286D-13  0.28444594D-02 -0.10034712D-03
  0.10221051D-03 -0.18633876D-05 -0.66631803D-14  0.29919533D-14 -0.26270296D-03
 -0.13900623D-04  0.15189036D-04 -0.12884132D-05  0.38854401D-15 -0.49981275D-15
 -0.24245047D-04  0.10969711D-14  0.32060806D-04  0.66332434D-04 -0.48805520D-14
 -0.15525593D-03  0.11077116D-03  0.15896388D-14  0.59073510D-04 -0.30976846D-03
  0.81985009D-14 -0.46038963D-15 -0.10485138D-04 -0.16326986D-04  0.19248852D-14
  0.59441399D-04 -0.46754152D-04 -0.54371631D-15 -0.27985985D-04  0.95735109D-04
 -0.26469573D-14 -0.35317724D-01 -0.65826430D-01 -0.11161796D+00 -0.16892192D+00
 -0.21071678D+00 -0.18082634D+00 -0.69246883D-01 -0.34554189D-05 -0.37074377D-04
 -0.13666313D-03 -0.39959499D-03 -0.48153139D-03  0.58005559D-03 -0.31365156D-02
  0.29020302D-03  0.65565408D-04 -0.84030957D-13 -0.81481762D-13 -0.54967115D-13
 -0.58252855D-03 -0.56485674D-03 -0.38104902D-03  0.27551743D-02  0.26715923D-02
  0.18022404D-02 -0.30143826D-13 -0.12985134D-03  0.61574087D-03 -0.14907967D-13
  0.14256382D-04  0.75730300D-04 -0.17037019D-14  0.59680125D-05  0.73444215D-05
  0.28264294D-03 -0.48003584D-04 -0.23463935D-03 -0.69158670D-14 -0.21450972D-13
 -0.72495503D-04  0.31762996D-04  0.15078495D-03 -0.18254794D-03  0.17009589D-14
  0.17636173D-13 -0.42618625D-04  0.21997051D-05  0.44753657D-04 -0.46953362D-04
 -0.14495869D-14  0.49853161D-14 -0.13024122D-04 -0.19975786D-14 -0.10752428D-04
 -0.28856654D-03  0.61705679D-14  0.23821226D-04  0.42563410D-03 -0.17783223D-15
  0.84360582D-05  0.44006551D-03 -0.37154300D-14  0.20605034D-14  0.29090166D-06
  0.78021871D-04  0.31924785D-14 -0.10325562D-04 -0.38749361D-04 -0.93739886D-14
  0.94528575D-05 -0.19531625D-03 -0.15008477D-14
MO    2     MO 0.0        OCC NO =    2.0000156  ORB. ENERGY =    0.000000
  0.24984585D-01  0.46576299D-01  0.78720291D-01  0.11833128D+00  0.14534878D+00
  0.12266925D+00  0.46126840D-01  0.56597188D-05  0.42302891D-04  0.15809556D-03
  0.44106201D-03  0.59090149D-03 -0.69774448D-03  0.19358115D-02 -0.38383404D-03
 -0.61040736D-04  0.30122346D-13  0.28241614D-13  0.20109712D-13 -0.56765285D-02
 -0.53221063D-02 -0.37896567D-02  0.66061949D-03  0.61937277D-03  0.44103031D-03
  0.21568577D-13 -0.19220018D-02  0.37285998D-03  0.78523133D-14 -0.45040069D-03
  0.74294243D-04  0.43622889D-15  0.15724090D-04  0.98541917D-06 -0.22303603D-04
 -0.99194546D-04  0.12149815D-03  0.46239373D-13 -0.59672941D-14  0.14198649D-02
  0.67778282D-04 -0.64150203D-04 -0.36280791D-05  0.45153434D-13  0.38567252D-14
  0.61291977D-03  0.61066863D-05 -0.38777723D-05 -0.22289140D-05 -0.46070820D-15
  0.46018374D-15  0.13159838D-03 -0.92629662D-15  0.54408265D-04  0.23993517D-04
 -0.15657189D-14 -0.14292520D-03 -0.35393629D-04  0.43446087D-14 -0.20299599D-04
 -0.36586921D-04  0.44634640D-14 -0.12032931D-14 -0.44620989D-04 -0.29176018D-05
  0.16307514D-14  0.11076137D-04 -0.14655228D-06  0.19791280D-14  0.12278683D-03
  0.88993578D-05 -0.11818864D-13  0.23574983D-01  0.44348095D-01  0.76768817D-01
  0.12583883D+00  0.19712845D+00  0.29630010D+00  0.42348249D+00  0.56217209D+00
  0.65469001D+00  0.60125703D+00  0.35147422D+00  0.92224784D-01  0.52434913D-02
  0.91493284D-04  0.92098399D-05  0.11183114D-02  0.32305438D-02  0.14806341D-01
  0.43829995D-01  0.12710826D+00  0.26420626D+00  0.37795019D+00  0.10837039D+00
 -0.43306260D+00 -0.41872964D+00 -0.91394143D-01  0.13229026D-02  0.67927881D-03
  0.31689761D-02  0.64312019D-02  0.25204999D-01  0.17686944D-01 -0.11518408D+00
 -0.35691591D+00 -0.43658809D-01  0.31199867D+00  0.14642097D+00  0.73528130D-06
  0.10080123D-05 -0.19326034D-05 -0.41074178D-05  0.15527188D-04  0.50210983D-04
  0.17462616D-04 -0.17080340D-03 -0.38098014D-03  0.25280683D-03  0.61070848D-02
 -0.29532890D-03  0.57177079D-04 -0.16934826D-09 -0.24298948D-09 -0.32174053D-09
 -0.37155431D-09 -0.34450091D-09 -0.22309417D-09 -0.78720830D-10 -0.90705179D-11
  0.14818440D-13 -0.93737628D+01 -0.13449950D+02 -0.17808977D+02 -0.20566269D+02
 -0.19068810D+02 -0.12348705D+02 -0.43573543D+01 -0.50207118D+00  0.82023007D-03
 -0.55135621D+01 -0.79111386D+01 -0.10475079D+02 -0.12096892D+02 -0.11216101D+02
 -0.72633962D+01 -0.25629562D+01 -0.29531371D+00  0.48245187D-03 -0.12522210D-10
  0.35703052D-10  0.17427119D-09  0.36112304D-09  0.45317377D-09  0.71865210D-10
 -0.58172459D-09 -0.50734818D-09 -0.13042140D-09  0.56213163D-01 -0.16027374D+00
 -0.78231675D+00 -0.16211091D+01 -0.20343319D+01 -0.32260845D+00  0.26114064D+01
  0.22775250D+01  0.58547169D+00  0.32984229D-01 -0.94043913D-01 -0.45904043D+00
 -0.95121907D+00 -0.11936860D+01 -0.18929714D+00  0.15322964D+01  0.13363846D+01
  0.34353755D+00  0.25164483D-13  0.35550843D-13 -0.16541622D-13  0.33149566D-13
  0.36390804D-13  0.98230185D-13  0.30954927D-13 -0.66460885D-13  0.27714024D-04
  0.39152679D-04 -0.18217537D-04  0.36508116D-04  0.40077740D-04  0.10818238D-03
  0.34091127D-04 -0.73194374D-04  0.74947677D-04  0.10588150D-03 -0.49266108D-04
  0.98729745D-04  0.10838316D-03  0.29256012D-03  0.92193424D-04 -0.19794124D-03
 -0.43290993D-11  0.20728613D-01  0.12209243D-01 -0.46224521D-13  0.12031970D-03
  0.28596049D-04  0.82644870D-15 -0.45762043D-08  0.14295337D-05 -0.94180117D+00
 -0.98549345D+00 -0.83969316D+00 -0.55300143D+00 -0.25486189D+00 -0.76318807D-01
 -0.12984998D-01  0.11523141D+01  0.12057725D+01  0.10273827D+01  0.67660918D+00
  0.31182903D+00  0.93377707D-01  0.15887425D-01 -0.21051289D+00 -0.22027906D+00
 -0.18768955D+00 -0.12360776D+00 -0.56967134D-01 -0.17058901D-01 -0.29024273D-02
 -0.17785371D-09 -0.18610474D-09 -0.15857120D-09 -0.10443112D-09 -0.48129195D-10
 -0.14412365D-10 -0.24521418D-11 -0.86544562D-10 -0.90559559D-10 -0.77161591D-10
 -0.50816741D-10 -0.23419923D-10 -0.70131339D-11 -0.11932253D-11  0.34030983D+01
  0.35609757D+01  0.30341419D+01  0.19982118D+01  0.92091633D+00  0.27576989D+00
  0.46919908D-01 -0.94441089D-03  0.10838913D-02 -0.13948038D-03 -0.16435811D-12
 -0.83381976D-13  0.32623670D-02  0.44168076D-04 -0.12584712D-04 -0.31583364D-04
  0.77938557D-14  0.28341205D-14 -0.11206187D-03 -0.64595588D-05  0.58351827D-05
  0.62437604D-06 -0.15830652D-14 -0.86460419D-15 -0.13053719D-04  0.85165298D-14
  0.31435271D-04 -0.93479652D-04 -0.24429752D-13 -0.18982379D-03 -0.11216076D-03
 -0.11198369D-14  0.95517971D-04  0.39259972D-03 -0.47472409D-13 -0.11350023D-14
  0.50743877D-05  0.16194472D-04  0.34141766D-14  0.26247101D-04  0.20003032D-04
 -0.91696354D-17 -0.41470264D-04 -0.68586448D-04  0.64058250D-14 -0.38058312D-01
 -0.71593417D-01 -0.12393186D+00 -0.20314812D+00 -0.31823462D+00 -0.47833253D+00
 -0.68364964D+00 -0.90754340D+00 -0.10568999D+01 -0.97064025D+00 -0.56740296D+00
 -0.14888323D+00 -0.84648384D-02 -0.14770233D-03 -0.14867920D-04 -0.18058635D-02
 -0.52167235D-02 -0.23909470D-01 -0.70777237D-01 -0.20525605D+00 -0.42664365D+00
 -0.61031881D+00 -0.17499790D+00  0.69931503D+00  0.67616998D+00  0.14758443D+00
 -0.21362400D-02 -0.11006793D-02 -0.51348966D-02 -0.10420892D-01 -0.40841286D-01
 -0.28659298D-01  0.18664019D+00  0.57833388D+00  0.70743186D-01 -0.50555159D+00
 -0.23725534D+00 -0.11787267D-05 -0.16159408D-05  0.30981494D-05  0.65845862D-05
 -0.24891578D-04 -0.80493040D-04 -0.27994255D-04  0.27381430D-03  0.61074784D-03
 -0.40527368D-03 -0.98449699D-02  0.48462645D-03  0.32595672D-05 -0.10572656D-08
 -0.15170183D-08 -0.20086724D-08 -0.23196670D-08 -0.21507688D-08 -0.13928090D-08
 -0.49146548D-09 -0.56628549D-10  0.92513652D-13 -0.13204758D+02 -0.18946856D+02
 -0.25087388D+02 -0.28971567D+02 -0.26862106D+02 -0.17395540D+02 -0.61381762D+01
 -0.70726435D+00  0.11554527D-02  0.78501230D+01  0.11263755D+02  0.14914252D+02
  0.17223365D+02  0.15969308D+02  0.10341509D+02  0.36490968D+01  0.42046301D+00
 -0.68690739D-03  0.17463597D-10 -0.49791827D-10 -0.24304031D-09 -0.50362573D-09