 br2co-wavefunction
GAUSSIAN            210 MOL ORBITALS    578 PRIMITIVES        4 NUCLEI
  C    1    (CENTRE  1)   0.00000000  0.01889726 -0.92928983  CHARGE =  6.0
  Br   2    (CENTRE  2)   0.00000000 -3.01256550 -2.92306618  CHARGE = 35.0
  Br   3    (CENTRE  3)   0.00000000  3.01256550 -2.92306618  CHARGE = 35.0
  O    4    (CENTRE  4)   0.00000000  0.00000000  1.29351754  CHARGE =  8.0
CENTRE ASSIGNMENTS    1  1  1  1  1  1  1  1  1  1  1  1  1  1  1  1  1  1  1  1
CENTRE ASSIGNMENTS    1  1  1  1  1  1  1  1  1  1  1  1  1  1  1  1  1  1  1  1
CENTRE ASSIGNMENTS    1  1  1  1  1  1  1  1  1  1  1  1  1  1  1  1  1  1  1  1
CENTRE ASSIGNMENTS    1  1  1  1  1  1  1  1  1  1  1  1  2  2  2  2  2  2  2  2
CENTRE ASSIGNMENTS    2  2  2  2  2  2  2  2  2  2  2  2  2  2  2  2  2  2  2  2
CENTRE ASSIGNMENTS    2  2  2  2  2  2  2  2  2  2  2  2  2  2  2  2  2  2  2  2
CENTRE ASSIGNMENTS    2  2  2  2  2  2  2  2  2  2  2  2  2  2  2  2  2  2  2  2
CENTRE ASSIGNMENTS    2  2  2  2  2  2  2  2  2  2  2  2  2  2  2  2  2  2  2  2
CENTRE ASSIGNMENTS    2  2  2  2  2  2  2  2  2  2  2  2  2  2  2  2  2  2  2  2
CENTRE ASSIGNMENTS    2  2  2  2  2  2  2  2  2  2  2  2  2  2  2  2  2  2  2  2
CENTRE ASSIGNMENTS    2  2  2  2  2  2  2  2  2  2  2  2  2  2  2  2  2  2  2  2
CENTRE ASSIGNMENTS    2  2  2  2  2  2  2  2  2  2  2  2  2  2  2  2  2  2  2  2
CENTRE ASSIGNMENTS    2  2  2  2  2  2  2  2  2  2  2  2  2  2  2  2  2  2  2  2
CENTRE ASSIGNMENTS    2  2  2  2  2  2  2  2  2  2  2  2  2  2  2  2  2  2  2  2
CENTRE ASSIGNMENTS    2  2  2  2  2  2  2  2  2  3  3  3  3  3  3  3  3  3  3  3
CENTRE ASSIGNMENTS    3  3  3  3  3  3  3  3  3  3  3  3  3  3  3  3  3  3  3  3
CENTRE ASSIGNMENTS    3  3  3  3  3  3  3  3  3  3  3  3  3  3  3  3  3  3  3  3
CENTRE ASSIGNMENTS    3  3  3  3  3  3  3  3  3  3  3  3  3  3  3  3  3  3  3  3
CENTRE ASSIGNMENTS    3  3  3  3  3  3  3  3  3  3  3  3  3  3  3  3  3  3  3  3
CENTRE ASSIGNMENTS    3  3  3  3  3  3  3  3  3  3  3  3  3  3  3  3  3  3  3  3
CENTRE ASSIGNMENTS    3  3  3  3  3  3  3  3  3  3  3  3  3  3  3  3  3  3  3  3
CENTRE ASSIGNMENTS    3  3  3  3  3  3  3  3  3  3  3  3  3  3  3  3  3  3  3  3
CENTRE ASSIGNMENTS    3  3  3  3  3  3  3  3  3  3  3  3  3  3  3  3  3  3  3  3
CENTRE ASSIGNMENTS    3  3  3  3  3  3  3  3  3  3  3  3  3  3  3  3  3  3  3  3
CENTRE ASSIGNMENTS    3  3  3  3  3  3  3  3  3  3  3  3  3  3  3  3  3  3  3  3
CENTRE ASSIGNMENTS    3  3  3  3  3  3  4  4  4  4  4  4  4  4  4  4  4  4  4  4
CENTRE ASSIGNMENTS    4  4  4  4  4  4  4  4  4  4  4  4  4  4  4  4  4  4  4  4
CENTRE ASSIGNMENTS    4  4  4  4  4  4  4  4  4  4  4  4  4  4  4  4  4  4  4  4
CENTRE ASSIGNMENTS    4  4  4  4  4  4  4  4  4  4  4  4  4  4  4  4  4  4
TYPE ASSIGNMENTS      1  1  1  1  1  1  1  1  1  1  1  1  1  1  1  1  2  2  2  3
TYPE ASSIGNMENTS      3  3  4  4  4  2  3  4  2  3  4  2  3  4  5  6  7  8  9 10
TYPE ASSIGNMENTS      5  6  7  8  9 10  5  6  7  8  9 10 11 12 13 17 14 15 18 19
TYPE ASSIGNMENTS     16 20 11 12 13 17 14 15 18 19 16 20  1  1  1  1  1  1  1  1
TYPE ASSIGNMENTS      1  1  1  1  1  1  1  1  1  1  1  1  1  1  1  1  1  1  1  1
TYPE ASSIGNMENTS      1  1  1  1  1  1  1  1  1  1  1  1  1  1  1  1  1  1  1  1
TYPE ASSIGNMENTS      1  1  2  2  2  2  2  2  2  2  2  3  3  3  3  3  3  3  3  3
TYPE ASSIGNMENTS      4  4  4  4  4  4  4  4  4  2  2  2  2  2  2  2  2  2  3  3
TYPE ASSIGNMENTS      3  3  3  3  3  3  3  4  4  4  4  4  4  4  4  4  2  2  2  2
TYPE ASSIGNMENTS      2  2  2  2  3  3  3  3  3  3  3  3  4  4  4  4  4  4  4  4
TYPE ASSIGNMENTS      2  3  4  2  3  4  2  3  4  5  5  5  5  5  5  5  6  6  6  6
TYPE ASSIGNMENTS      6  6  6  7  7  7  7  7  7  7  8  8  8  8  8  8  8  9  9  9
TYPE ASSIGNMENTS      9  9  9  9 10 10 10 10 10 10 10  5  6  7  8  9 10  5  6  7
TYPE ASSIGNMENTS      8  9 10  5  6  7  8  9 10 11 12 13 17 14 15 18 19 16 20 11
TYPE ASSIGNMENTS     12 13 17 14 15 18 19 16 20  1  1  1  1  1  1  1  1  1  1  1
TYPE ASSIGNMENTS      1  1  1  1  1  1  1  1  1  1  1  1  1  1  1  1  1  1  1  1
TYPE ASSIGNMENTS      1  1  1  1  1  1  1  1  1  1  1  1  1  1  1  1  1  1  1  2
TYPE ASSIGNMENTS      2  2  2  2  2  2  2  2  3  3  3  3  3  3  3  3  3  4  4  4
TYPE ASSIGNMENTS      4  4  4  4  4  4  2  2  2  2  2  2  2  2  2  3  3  3  3  3
TYPE ASSIGNMENTS      3  3  3  3  4  4  4  4  4  4  4  4  4  2  2  2  2  2  2  2
TYPE ASSIGNMENTS      2  3  3  3  3  3  3  3  3  4  4  4  4  4  4  4  4  2  3  4
TYPE ASSIGNMENTS      2  3  4  2  3  4  5  5  5  5  5  5  5  6  6  6  6  6  6  6
TYPE ASSIGNMENTS      7  7  7  7  7  7  7  8  8  8  8  8  8  8  9  9  9  9  9  9
TYPE ASSIGNMENTS      9 10 10 10 10 10 10 10  5  6  7  8  9 10  5  6  7  8  9 10
TYPE ASSIGNMENTS      5  6  7  8  9 10 11 12 13 17 14 15 18 19 16 20 11 12 13 17
TYPE ASSIGNMENTS     14 15 18 19 16 20  1  1  1  1  1  1  1  1  1  1  1  1  1  1
TYPE ASSIGNMENTS      1  1  2  2  2  3  3  3  4  4  4  2  3  4  2  3  4  2  3  4
TYPE ASSIGNMENTS      5  6  7  8  9 10  5  6  7  8  9 10  5  6  7  8  9 10 11 12
TYPE ASSIGNMENTS     13 17 14 15 18 19 16 20 11 12 13 17 14 15 18 19 16 20
EXPONENTS  0.8236000D+04 0.1235000D+04 0.2808000D+03 0.7927000D+02 0.2559000D+02
EXPONENTS  0.8997000D+01 0.3319000D+01 0.2808000D+03 0.7927000D+02 0.2559000D+02
EXPONENTS  0.8997000D+01 0.3319000D+01 0.3643000D+00 0.9059000D+00 0.1285000D+00
EXPONENTS  0.4402000D-01 0.1871000D+02 0.4133000D+01 0.1200000D+01 0.1871000D+02
EXPONENTS  0.4133000D+01 0.1200000D+01 0.1871000D+02 0.4133000D+01 0.1200000D+01
EXPONENTS  0.3827000D+00 0.3827000D+00 0.3827000D+00 0.1209000D+00 0.1209000D+00
EXPONENTS  0.1209000D+00 0.3569000D-01 0.3569000D-01 0.3569000D-01 0.1097000D+01
EXPONENTS  0.1097000D+01 0.1097000D+01 0.1097000D+01 0.1097000D+01 0.1097000D+01
EXPONENTS  0.3180000D+00 0.3180000D+00 0.3180000D+00 0.3180000D+00 0.3180000D+00
EXPONENTS  0.3180000D+00 0.1000000D+00 0.1000000D+00 0.1000000D+00 0.1000000D+00
EXPONENTS  0.1000000D+00 0.1000000D+00 0.7610000D+00 0.7610000D+00 0.7610000D+00
EXPONENTS  0.7610000D+00 0.7610000D+00 0.7610000D+00 0.7610000D+00 0.7610000D+00
EXPONENTS  0.7610000D+00 0.7610000D+00 0.2680000D+00 0.2680000D+00 0.2680000D+00
EXPONENTS  0.2680000D+00 0.2680000D+00 0.2680000D+00 0.2680000D+00 0.2680000D+00
EXPONENTS  0.2680000D+00 0.2680000D+00 0.1063900D+08 0.1593400D+07 0.3626100D+06
EXPONENTS  0.1027000D+06 0.3350100D+05 0.1209300D+05 0.4715900D+04 0.1955600D+04
EXPONENTS  0.8526100D+03 0.3876700D+03 0.1826800D+03 0.8824500D+02 0.3926300D+02
EXPONENTS  0.9405700D+01 0.1899500D+01 0.3350100D+05 0.1209300D+05 0.4715900D+04
EXPONENTS  0.1955600D+04 0.8526100D+03 0.3876700D+03 0.1826800D+03 0.8824500D+02
EXPONENTS  0.3926300D+02 0.1923400D+02 0.9405700D+01 0.1899500D+01 0.4715900D+04
EXPONENTS  0.8526100D+03 0.3876700D+03 0.1826800D+03 0.8824500D+02 0.3926300D+02
EXPONENTS  0.1923400D+02 0.9405700D+01 0.4160100D+01 0.1899500D+01 0.4715900D+04
EXPONENTS  0.8526100D+03 0.3876700D+03 0.8824500D+02 0.3926300D+02 0.1923400D+02
EXPONENTS  0.9405700D+01 0.4160100D+01 0.1899500D+01 0.3011400D+00 0.6047200D+00
EXPONENTS  0.1251500D+00 0.4559300D-01 0.8676500D+04 0.2055900D+04 0.6662300D+03
EXPONENTS  0.2531000D+03 0.1061200D+03 0.4724200D+02 0.2182500D+02 0.9968400D+01
EXPONENTS  0.1998200D+01 0.8676500D+04 0.2055900D+04 0.6662300D+03 0.2531000D+03
EXPONENTS  0.1061200D+03 0.4724200D+02 0.2182500D+02 0.9968400D+01 0.1998200D+01
EXPONENTS  0.8676500D+04 0.2055900D+04 0.6662300D+03 0.2531000D+03 0.1061200D+03
EXPONENTS  0.4724200D+02 0.2182500D+02 0.9968400D+01 0.1998200D+01 0.8676500D+04
EXPONENTS  0.6662300D+03 0.2531000D+03 0.1061200D+03 0.4724200D+02 0.2182500D+02
EXPONENTS  0.9968400D+01 0.4517100D+01 0.1998200D+01 0.8676500D+04 0.6662300D+03
EXPONENTS  0.2531000D+03 0.1061200D+03 0.4724200D+02 0.2182500D+02 0.9968400D+01
EXPONENTS  0.4517100D+01 0.1998200D+01 0.8676500D+04 0.6662300D+03 0.2531000D+03
EXPONENTS  0.1061200D+03 0.4724200D+02 0.2182500D+02 0.9968400D+01 0.4517100D+01
EXPONENTS  0.1998200D+01 0.6662300D+03 0.1061200D+03 0.4724200D+02 0.2182500D+02
EXPONENTS  0.9968400D+01 0.4517100D+01 0.1998200D+01 0.2814500D+00 0.6662300D+03
EXPONENTS  0.1061200D+03 0.4724200D+02 0.2182500D+02 0.9968400D+01 0.4517100D+01
EXPONENTS  0.1998200D+01 0.2814500D+00 0.6662300D+03 0.1061200D+03 0.4724200D+02
EXPONENTS  0.2182500D+02 0.9968400D+01 0.4517100D+01 0.1998200D+01 0.2814500D+00
EXPONENTS  0.7098800D+00 0.7098800D+00 0.7098800D+00 0.1020400D+00 0.1020400D+00
EXPONENTS  0.1020400D+00 0.3514200D-01 0.3514200D-01 0.3514200D-01 0.4038300D+03
EXPONENTS  0.1211700D+03 0.4634500D+02 0.1972100D+02 0.8862400D+01 0.3996200D+01
EXPONENTS  0.1763600D+01 0.4038300D+03 0.1211700D+03 0.4634500D+02 0.1972100D+02
EXPONENTS  0.8862400D+01 0.3996200D+01 0.1763600D+01 0.4038300D+03 0.1211700D+03
EXPONENTS  0.4634500D+02 0.1972100D+02 0.8862400D+01 0.3996200D+01 0.1763600D+01
EXPONENTS  0.4038300D+03 0.1211700D+03 0.4634500D+02 0.1972100D+02 0.8862400D+01
EXPONENTS  0.3996200D+01 0.1763600D+01 0.4038300D+03 0.1211700D+03 0.4634500D+02
EXPONENTS  0.1972100D+02 0.8862400D+01 0.3996200D+01 0.1763600D+01 0.4038300D+03
EXPONENTS  0.1211700D+03 0.4634500D+02 0.1972100D+02 0.8862400D+01 0.3996200D+01
EXPONENTS  0.1763600D+01 0.7061900D+00 0.7061900D+00 0.7061900D+00 0.7061900D+00
EXPONENTS  0.7061900D+00 0.7061900D+00 0.2639000D+00 0.2639000D+00 0.2639000D+00
EXPONENTS  0.2639000D+00 0.2639000D+00 0.2639000D+00 0.1047000D+00 0.1047000D+00
EXPONENTS  0.1047000D+00 0.1047000D+00 0.1047000D+00 0.1047000D+00 0.5515000D+00
EXPONENTS  0.5515000D+00 0.5515000D+00 0.5515000D+00 0.5515000D+00 0.5515000D+00
EXPONENTS  0.5515000D+00 0.5515000D+00 0.5515000D+00 0.5515000D+00 0.2580000D+00
EXPONENTS  0.2580000D+00 0.2580000D+00 0.2580000D+00 0.2580000D+00 0.2580000D+00
EXPONENTS  0.2580000D+00 0.2580000D+00 0.2580000D+00 0.2580000D+00 0.1063900D+08
EXPONENTS  0.1593400D+07 0.3626100D+06 0.1027000D+06 0.3350100D+05 0.1209300D+05
EXPONENTS  0.4715900D+04 0.1955600D+04 0.8526100D+03 0.3876700D+03 0.1826800D+03
EXPONENTS  0.8824500D+02 0.3926300D+02 0.9405700D+01 0.1899500D+01 0.3350100D+05
EXPONENTS  0.1209300D+05 0.4715900D+04 0.1955600D+04 0.8526100D+03 0.3876700D+03
EXPONENTS  0.1826800D+03 0.8824500D+02 0.3926300D+02 0.1923400D+02 0.9405700D+01
EXPONENTS  0.1899500D+01 0.4715900D+04 0.8526100D+03 0.3876700D+03 0.1826800D+03
EXPONENTS  0.8824500D+02 0.3926300D+02 0.1923400D+02 0.9405700D+01 0.4160100D+01
EXPONENTS  0.1899500D+01 0.4715900D+04 0.8526100D+03 0.3876700D+03 0.8824500D+02
EXPONENTS  0.3926300D+02 0.1923400D+02 0.9405700D+01 0.4160100D+01 0.1899500D+01
EXPONENTS  0.3011400D+00 0.6047200D+00 0.1251500D+00 0.4559300D-01 0.8676500D+04
EXPONENTS  0.2055900D+04 0.6662300D+03 0.2531000D+03 0.1061200D+03 0.4724200D+02
EXPONENTS  0.2182500D+02 0.9968400D+01 0.1998200D+01 0.8676500D+04 0.2055900D+04
EXPONENTS  0.6662300D+03 0.2531000D+03 0.1061200D+03 0.4724200D+02 0.2182500D+02
EXPONENTS  0.9968400D+01 0.1998200D+01 0.8676500D+04 0.2055900D+04 0.6662300D+03
EXPONENTS  0.2531000D+03 0.1061200D+03 0.4724200D+02 0.2182500D+02 0.9968400D+01
EXPONENTS  0.1998200D+01 0.8676500D+04 0.6662300D+03 0.2531000D+03 0.1061200D+03
EXPONENTS  0.4724200D+02 0.2182500D+02 0.9968400D+01 0.4517100D+01 0.1998200D+01
EXPONENTS  0.8676500D+04 0.6662300D+03 0.2531000D+03 0.1061200D+03 0.4724200D+02
EXPONENTS  0.2182500D+02 0.9968400D+01 0.4517100D+01 0.1998200D+01 0.8676500D+04
EXPONENTS  0.6662300D+03 0.2531000D+03 0.1061200D+03 0.4724200D+02 0.2182500D+02
EXPONENTS  0.9968400D+01 0.4517100D+01 0.1998200D+01 0.6662300D+03 0.1061200D+03
EXPONENTS  0.4724200D+02 0.2182500D+02 0.9968400D+01 0.4517100D+01 0.1998200D+01
EXPONENTS  0.2814500D+00 0.6662300D+03 0.1061200D+03 0.4724200D+02 0.2182500D+02
EXPONENTS  0.9968400D+01 0.4517100D+01 0.1998200D+01 0.2814500D+00 0.6662300D+03
EXPONENTS  0.1061200D+03 0.4724200D+02 0.2182500D+02 0.9968400D+01 0.4517100D+01
EXPONENTS  0.1998200D+01 0.2814500D+00 0.7098800D+00 0.7098800D+00 0.7098800D+00
EXPONENTS  0.1020400D+00 0.1020400D+00 0.1020400D+00 0.3514200D-01 0.3514200D-01
EXPONENTS  0.3514200D-01 0.4038300D+03 0.1211700D+03 0.4634500D+02 0.1972100D+02
EXPONENTS  0.8862400D+01 0.3996200D+01 0.1763600D+01 0.4038300D+03 0.1211700D+03
EXPONENTS  0.4634500D+02 0.1972100D+02 0.8862400D+01 0.3996200D+01 0.1763600D+01
EXPONENTS  0.4038300D+03 0.1211700D+03 0.4634500D+02 0.1972100D+02 0.8862400D+01
EXPONENTS  0.3996200D+01 0.1763600D+01 0.4038300D+03 0.1211700D+03 0.4634500D+02
EXPONENTS  0.1972100D+02 0.8862400D+01 0.3996200D+01 0.1763600D+01 0.4038300D+03
EXPONENTS  0.1211700D+03 0.4634500D+02 0.1972100D+02 0.8862400D+01 0.3996200D+01
EXPONENTS  0.1763600D+01 0.4038300D+03 0.1211700D+03 0.4634500D+02 0.1972100D+02
EXPONENTS  0.8862400D+01 0.3996200D+01 0.1763600D+01 0.7061900D+00 0.7061900D+00
EXPONENTS  0.7061900D+00 0.7061900D+00 0.7061900D+00 0.7061900D+00 0.2639000D+00
EXPONENTS  0.2639000D+00 0.2639000D+00 0.2639000D+00 0.2639000D+00 0.2639000D+00
EXPONENTS  0.1047000D+00 0.1047000D+00 0.1047000D+00 0.1047000D+00 0.1047000D+00
EXPONENTS  0.1047000D+00 0.5515000D+00 0.5515000D+00 0.5515000D+00 0.5515000D+00
EXPONENTS  0.5515000D+00 0.5515000D+00 0.5515000D+00 0.5515000D+00 0.5515000D+00
EXPONENTS  0.5515000D+00 0.2580000D+00 0.2580000D+00 0.2580000D+00 0.2580000D+00
EXPONENTS  0.2580000D+00 0.2580000D+00 0.2580000D+00 0.2580000D+00 0.2580000D+00
EXPONENTS  0.2580000D+00 0.1533000D+05 0.2299000D+04 0.5224000D+03 0.1473000D+03
EXPONENTS  0.4755000D+02 0.1676000D+02 0.6207000D+01 0.5224000D+03 0.1473000D+03
EXPONENTS  0.4755000D+02 0.1676000D+02 0.6207000D+01 0.6882000D+00 0.1752000D+01
EXPONENTS  0.2384000D+00 0.7376000D-01 0.3446000D+02 0.7749000D+01 0.2280000D+01
EXPONENTS  0.3446000D+02 0.7749000D+01 0.2280000D+01 0.3446000D+02 0.7749000D+01
EXPONENTS  0.2280000D+01 0.7156000D+00 0.7156000D+00 0.7156000D+00 0.2140000D+00
EXPONENTS  0.2140000D+00 0.2140000D+00 0.5974000D-01 0.5974000D-01 0.5974000D-01
EXPONENTS  0.2314000D+01 0.2314000D+01 0.2314000D+01 0.2314000D+01 0.2314000D+01
EXPONENTS  0.2314000D+01 0.6450000D+00 0.6450000D+00 0.6450000D+00 0.6450000D+00
EXPONENTS  0.6450000D+00 0.6450000D+00 0.2140000D+00 0.2140000D+00 0.2140000D+00
EXPONENTS  0.2140000D+00 0.2140000D+00 0.2140000D+00 0.1428000D+01 0.1428000D+01
EXPONENTS  0.1428000D+01 0.1428000D+01 0.1428000D+01 0.1428000D+01 0.1428000D+01
EXPONENTS  0.1428000D+01 0.1428000D+01 0.1428000D+01 0.5000000D+00 0.5000000D+00
EXPONENTS  0.5000000D+00 0.5000000D+00 0.5000000D+00 0.5000000D+00 0.5000000D+00
EXPONENTS  0.5000000D+00 0.5000000D+00 0.5000000D+00
MO    1     MO 0.0        OCC NO =    2.0000167  ORB. ENERGY =    0.000000
  0.11476986D+00  0.21395414D+00  0.36161164D+00  0.54356975D+00  0.66767808D+00
  0.56349674D+00  0.21188949D+00  0.27500407D-04  0.20554851D-03  0.76818170D-03
  0.21431073D-02  0.28711730D-02 -0.33903199D-02  0.87889312D-02 -0.18671544D-02
 -0.28804730D-03 -0.33977397D-13 -0.31855969D-13 -0.22683348D-13 -0.21376140D-02
 -0.20041490D-02 -0.14270735D-02  0.34651285D-02  0.32487782D-02  0.23133236D-02
 -0.19588595D-13 -0.73091485D-03  0.18670173D-02 -0.63348881D-14 -0.15670023D-03
  0.35997434D-03 -0.48799439D-15  0.60613221D-05  0.45303697D-05 -0.89010132D-04
 -0.46660514D-03  0.55561528D-03 -0.34296735D-13  0.14228794D-13  0.50164225D-03
  0.31411265D-03 -0.30290751D-03 -0.11205143D-04 -0.35451736D-13 -0.37825282D-14
  0.23255748D-03  0.28935062D-04 -0.17823975D-04 -0.11111087D-04 -0.11031580D-15
  0.64665440D-15  0.47662220D-04 -0.11339358D-15  0.22025875D-04  0.11630624D-03
  0.38997153D-14 -0.51233927D-04 -0.15386885D-03 -0.35595346D-14 -0.14843697D-04
 -0.19504987D-03 -0.85535388D-14  0.47122992D-15 -0.16784053D-04 -0.12992100D-04
  0.25035587D-16  0.91802913D-06  0.30797612D-05 -0.14387254D-14  0.49434130D-04
  0.35896540D-04  0.91314331D-14 -0.21824497D-01 -0.41055167D-01 -0.71068590D-01
 -0.11649507D+00 -0.18249130D+00 -0.27429927D+00 -0.39203814D+00 -0.52042977D+00
 -0.60607807D+00 -0.55661259D+00 -0.32537661D+00 -0.85376924D-01 -0.48541524D-02
 -0.84699739D-04 -0.85259923D-05 -0.10357227D-02 -0.29919643D-02 -0.13712875D-01
 -0.40593098D-01 -0.11772117D+00 -0.24469431D+00 -0.35003812D+00 -0.10036711D+00
  0.40108041D+00  0.38780595D+00  0.84644577D-01 -0.12252046D-02 -0.63535607D-03
 -0.29640675D-02 -0.60153550D-02 -0.23575222D-01 -0.16543292D-01  0.10773618D+00
  0.33383743D+00  0.40835793D-01 -0.29182457D+00 -0.13695326D+00 -0.69957210D-06
 -0.95905784D-06  0.18387459D-05  0.39079395D-05 -0.14773105D-04 -0.47772469D-04
 -0.16614538D-04  0.16250828D-03  0.36247770D-03 -0.24052917D-03 -0.56611008D-02
  0.34840429D-03  0.15304140D-03 -0.82538020D-08 -0.11842974D-07 -0.15681192D-07
 -0.18109047D-07 -0.16790502D-07 -0.10873304D-07 -0.38367452D-08 -0.44208459D-09
  0.72223041D-12  0.53015602D+01  0.76069476D+01  0.10072302D+02  0.11631755D+02
  0.10784831D+02  0.69841116D+01  0.24644081D+01  0.28395861D+00 -0.46390113D-03
  0.33472505D+01  0.48028049D+01  0.63593575D+01  0.73439510D+01  0.68092276D+01
  0.44095644D+01  0.15559554D+01  0.17928318D+00 -0.29289364D-03  0.93494765D-11
 -0.26657023D-10 -0.13011636D-09 -0.26962584D-09 -0.33835381D-09 -0.53656829D-10
  0.43433390D-09  0.37880213D-09  0.97376726D-10 -0.31487565D-01  0.89776658D-01
  0.43821141D+00  0.90805737D+00  0.11395224D+01  0.18070775D+00 -0.14627682D+01
 -0.12757460D+01 -0.32794948D+00 -0.19967586D-01  0.56931144D-01  0.27788824D+00
  0.57583727D+00  0.72261893D+00  0.11459437D+00 -0.92760268D+00 -0.80900402D+00
 -0.20796652D+00 -0.10239749D-13 -0.14466092D-13  0.67309972D-14 -0.13488982D-13
 -0.14807883D-13 -0.39971117D-13 -0.12595955D-13  0.27043783D-13 -0.21235317D-03
 -0.29999957D-03  0.13958823D-03 -0.27973614D-03 -0.30708767D-03 -0.82892587D-03
 -0.26121644D-03  0.56083725D-03 -0.96675484D-04 -0.13657721D-03  0.63548665D-04
 -0.12735212D-03 -0.13980413D-03 -0.37737516D-03 -0.11892088D-03  0.25532566D-03
  0.33390201D-11 -0.11598757D-01 -0.74406695D-02  0.35366761D-13  0.14863232D-03
  0.62876511D-04 -0.72011390D-15  0.75689690D-05  0.62477385D-05  0.52497319D+00
  0.54932788D+00  0.46805676D+00  0.30825076D+00  0.14206360D+00  0.42541174D-01
  0.72380202D-02 -0.65043102D+00 -0.68060597D+00 -0.57991272D+00 -0.38191637D+00
 -0.17601388D+00 -0.52707642D-01 -0.89677585D-02  0.12545782D+00  0.13127809D+00
  0.11185596D+00  0.73665607D-01  0.33950285D-01  0.10166468D-01  0.17297383D-02
  0.56100399D-10  0.58703023D-10  0.50018117D-10  0.32940712D-10  0.15181393D-10
  0.45460928D-11  0.77347915D-12 -0.11721484D-10 -0.12265270D-10 -0.10450666D-10
 -0.68825537D-11 -0.31719641D-11 -0.94984979D-12 -0.16160889D-12 -0.19536557D+01
 -0.20442902D+01 -0.17418447D+01 -0.11471364D+01 -0.52868101D+00 -0.15831438D+00
 -0.26935850D-01  0.62477478D-03 -0.78661486D-03  0.16184008D-03  0.62478127D-13
  0.77342670D-14 -0.20589539D-02 -0.83491321D-04  0.90510364D-04 -0.70190424D-05
 -0.77570672D-14 -0.44772652D-14  0.21860382D-03 -0.13836967D-04  0.14907770D-04
 -0.10708035D-05  0.13658977D-14  0.64652441D-15  0.20018384D-04 -0.57979053D-14
 -0.23979082D-04  0.45193104D-04  0.16089709D-13  0.11053045D-03  0.82388337D-04
  0.13040064D-14 -0.38593204D-04 -0.21796765D-03  0.32202762D-13  0.10574174D-14
  0.10371858D-04 -0.12055479D-04 -0.26580454D-14 -0.49461462D-04 -0.39111619D-04
 -0.51420672D-15  0.18345887D-04  0.75278056D-04 -0.51558022D-14 -0.42916676D-01
 -0.80732732D-01 -0.13975248D+00 -0.22908115D+00 -0.35885912D+00 -0.53939445D+00
 -0.77092148D+00 -0.10233966D+01 -0.11918193D+01 -0.10945481D+01 -0.63983524D+00
 -0.16788903D+00 -0.95454242D-02 -0.16655739D-03 -0.16765896D-04 -0.20359394D-02
 -0.58813597D-02 -0.26955653D-01 -0.79794604D-01 -0.23140668D+00 -0.48100014D+00
 -0.68807642D+00 -0.19729349D+00  0.78841120D+00  0.76231735D+00  0.16638741D+00
 -0.24084075D-02 -0.12428495D-02 -0.57981501D-02 -0.11766915D-01 -0.46116588D-01
 -0.32361102D-01  0.21074774D+00  0.65303491D+00  0.79880793D-01 -0.57085162D+00
 -0.26790064D+00 -0.13707339D-05 -0.18791673D-05  0.36028183D-05  0.76571736D-05
 -0.28946259D-04 -0.93604848D-04 -0.32554342D-04  0.31841692D-03  0.71023480D-03
 -0.47129020D-03 -0.11164804D-01  0.67162391D-03  0.13422140D-03 -0.30809041D-08
 -0.44206375D-08 -0.58533326D-08 -0.67595804D-08 -0.62674057D-08 -0.40586878D-08
 -0.14321454D-08 -0.16501732D-09  0.26958760D-12 -0.13476994D+02 -0.19337475D+02
 -0.25604603D+02 -0.29568860D+02 -0.27415909D+02 -0.17754175D+02 -0.62647241D+01
 -0.72184569D+00  0.11792741D-02  0.83721953D+01  0.12012851D+02  0.15906124D+02
  0.18368805D+02  0.17031346D+02  0.11029271D+02  0.38917799D+01  0.44842590D+00
 -0.73259015D-03 -0.13782580D-10  0.39296592D-10  0.19181172D-09  0.39747035D-09
  0.49878606D-09  0.79098498D-10 -0.64027561D-09 -0.55841317D-09 -0.14354841D-09
  0.80423590D-01 -0.22930198D+00 -0.11192525D+01 -0.23193039D+01 -0.29104975D+01
 -0.46155256D+00  0.37361120D+01  0.32584314D+01  0.83762827D+00 -0.50021859D-01
  0.14262123D+00  0.69615258D+00  0.14425605D+01  0.18102711D+01  0.28707643D+00
 -0.23237867D+01 -0.20266789D+01 -0.52098798D+00  0.27891491D-13  0.39403393D-13
 -0.18334193D-13  0.36741896D-13  0.40334378D-13  0.10887513D-12  0.34309429D-13
 -0.73663074D-13  0.26958693D-03  0.38085594D-03 -0.17721028D-03  0.35513107D-03
  0.38985443D-03  0.10523393D-02  0.33161992D-03 -0.71199501D-03 -0.17124699D-03
 -0.24192728D-03  0.11256750D-03 -0.22558634D-03 -0.24764330D-03 -0.66846690D-03
 -0.21065158D-03  0.45227342D-03 -0.47155700D-11  0.29684540D-01 -0.18602601D-01
 -0.45931743D-13 -0.85538703D-04  0.50701700D-04  0.11518871D-14 -0.88233378D-05
  0.61928288D-05  0.14201639D+01  0.14860485D+01  0.12661928D+01  0.83388371D+00
  0.38431217D+00  0.11508290D+00  0.19580380D-01 -0.16992980D+01 -0.17781323D+01
 -0.15150639D+01 -0.99778409D+00 -0.45984898D+00 -0.13770252D+00 -0.23428917D-01
  0.27913412D+00  0.29208378D+00  0.24887101D+00  0.16390038D+00  0.75536804D-01
  0.22619618D-01  0.38485363D-02 -0.25555944D-09 -0.26741542D-09 -0.22785225D-09
 -0.15005793D-09 -0.69157233D-10 -0.20709245D-10 -0.35235025D-11  0.16956746D-09
  0.17743408D-09  0.15118333D-09  0.99565652D-10  0.45886845D-10  0.13740890D-10
  0.23378959D-11  0.51704349D+01  0.54103031D+01  0.46098678D+01  0.30359464D+01
  0.13991773D+01  0.41898591D+00  0.71286901D-01  0.15336913D-02 -0.18045843D-02
  0.27089301D-03 -0.18039209D-12  0.11767282D-12  0.51662693D-02 -0.13393704D-03
  0.11517143D-03  0.18765614D-04 -0.55247372D-14  0.33678145D-14 -0.35134506D-03
 -0.11597913D-04  0.13343537D-04 -0.17456241D-05 -0.66997394D-17  0.70258298D-16
 -0.34202571D-04  0.92195632D-14  0.50821348D-04  0.12852205D-03 -0.26262985D-13
 -0.28560847D-03  0.19315501D-03 -0.13957047D-14  0.13314443D-03 -0.57872115D-03
  0.52645027D-13 -0.13514314D-14 -0.76425528D-05 -0.27095584D-04  0.38516902D-14
  0.80072642D-04 -0.63533433D-04  0.20260400D-15 -0.57144984D-04  0.14482018D-03
 -0.76037195D-14 -0.32598259D-01 -0.60757795D-01 -0.10302338D+00 -0.15591493D+00
 -0.19449158D+00 -0.16690272D+00 -0.63914873D-01 -0.31343418D-05 -0.33629430D-04
 -0.12396441D-03 -0.36246467D-03 -0.43678755D-03  0.52615689D-03 -0.28965993D-02
  0.27244202D-03  0.62667573D-04  0.99437541D-13  0.96420966D-13  0.65045014D-13
  0.10390427D-02  0.10075219D-02  0.67966830D-03  0.25465150D-02  0.24692629D-02
  0.16657502D-02  0.30439193D-13  0.22204526D-03  0.57639273D-03  0.11316594D-13
 -0.30262338D-04  0.72353717D-04  0.65706323D-15 -0.10951178D-04  0.70775077D-05
  0.26546880D-03 -0.49265478D-04 -0.21620332D-03 -0.56495954D-14  0.19726286D-14
  0.12863491D-03  0.29802748D-04  0.14401028D-03 -0.17381303D-03 -0.47641660D-15
 -0.83403323D-14  0.88335996D-04  0.22531975D-05  0.42602946D-04 -0.44856143D-04
 -0.87472432D-16 -0.37520288D-14  0.24839031D-04 -0.44578531D-16  0.16715460D-04
 -0.27253027D-03  0.48923761D-14 -0.40109135D-04  0.40129996D-03 -0.47586406D-14
 -0.10037243D-04  0.41629083D-03 -0.17057859D-13 -0.79916764D-15  0.93206019D-06
  0.74024510D-04 -0.21860012D-14  0.17080117D-04 -0.36029009D-04  0.45835041D-14
 -0.19876298D-04 -0.18604452D-03 -0.48402382D-14
MO    2     MO 0.0        OCC NO =    2.0000157  ORB. ENERGY =    0.000000
 -0.44598200D-01 -0.83140029D-01 -0.14051798D+00 -0.21122473D+00 -0.25945174D+00
 -0.21896812D+00 -0.82337731D-01 -0.10163960D-04 -0.75969304D-04 -0.28391463D-03
 -0.79207762D-03 -0.10611656D-02  0.12530388D-02 -0.34543532D-02  0.69877088D-03
  0.11285556D-03 -0.32588597D-13 -0.30553881D-13 -0.21756184D-13 -0.54412572D-02
 -0.51015244D-02 -0.36325893D-02 -0.12191766D-02 -0.11430556D-02 -0.81392365D-03
  0.55920185D-15 -0.18344826D-02 -0.67882552D-03 -0.10244630D-15 -0.42427825D-03
 -0.13520611D-03 -0.14337136D-15  0.14953550D-04 -0.18637923D-05  0.39221901D-04
  0.17767054D-03 -0.21689244D-03 -0.29135034D-13  0.89771348D-14  0.13657810D-02
 -0.12195084D-03  0.11201319D-03  0.99376534D-05 -0.27463037D-13  0.16860885D-13
  0.58226899D-03 -0.10907067D-04  0.59672421D-05  0.49398253D-05 -0.85218332D-15
  0.14931586D-14  0.12428702D-03 -0.23705611D-14  0.50836174D-04 -0.42632389D-04
 -0.11889918D-14 -0.13661964D-03  0.62890000D-04  0.83006750D-14 -0.15888877D-04
  0.65007167D-04 -0.85824228D-15  0.24948486D-15 -0.42726770D-04  0.55278427D-05
 -0.22421127D-14  0.97587840D-05  0.95555689D-06  0.14936582D-14  0.11842153D-03
 -0.17539085D-04  0.69489170D-14  0.42519797D-01  0.79986143D-01  0.13846010D+00
  0.22696269D+00  0.35554051D+00  0.53440632D+00  0.76379226D+00  0.10139326D+01
  0.11807977D+01  0.10844261D+01  0.63391826D+00  0.16633645D+00  0.94571513D-02
  0.16501712D-03  0.16610851D-04  0.20176647D-02  0.58285683D-02  0.26713698D-01
  0.79078365D-01  0.22932956D+00  0.47668267D+00  0.68190022D+00  0.19552257D+00
 -0.78133439D+00 -0.75547476D+00 -0.16489391D+00  0.23867895D-02  0.12307659D-02
  0.57417774D-02  0.11652511D-01  0.45668217D-01  0.32046470D-01 -0.20869874D+00
 -0.64668574D+00 -0.79104149D-01  0.56530148D+00  0.26529597D+00  0.13253987D-05
  0.18170164D-05 -0.34836599D-05 -0.74039227D-05  0.27988900D-04  0.90508992D-04
  0.31477651D-04 -0.30788570D-03 -0.68674473D-03  0.45570290D-03  0.10994814D-01
 -0.53580156D-03 -0.29267863D-04  0.89544859D-09  0.12848351D-08  0.17012404D-08
  0.19646365D-08  0.18215885D-08  0.11796363D-08  0.41624552D-09  0.47961416D-10
 -0.78354218D-13 -0.14225092D+02 -0.20410884D+02 -0.27025896D+02 -0.31210206D+02
 -0.28937747D+02 -0.18739697D+02 -0.66124744D+01 -0.76191482D+00  0.12447347D-02
 -0.84904132D+01 -0.12182476D+02 -0.16130723D+02 -0.18628178D+02 -0.17271834D+02
 -0.11185008D+02 -0.39467330D+01 -0.45475781D+00  0.74293454D-03  0.69313378D-11
 -0.19762479D-10 -0.96463201D-10 -0.19989010D-09 -0.25084234D-09 -0.39779084D-10
  0.32199824D-09  0.28082915D-09  0.72191313D-10  0.85117758D-01 -0.24268589D+00
 -0.11845811D+01 -0.24546772D+01 -0.30803776D+01 -0.48849249D+00  0.39541816D+01
  0.34486197D+01  0.88651900D+00  0.50772845D-01 -0.14476243D+00 -0.70660402D+00
 -0.14642179D+01 -0.18374489D+01 -0.29138635D+00  0.23586741D+01  0.20571058D+01
  0.52880965D+00 -0.15682877D-13 -0.22155811D-13  0.10308983D-13 -0.20659299D-13
 -0.22679286D-13 -0.61218502D-13 -0.19291567D-13  0.41419405D-13  0.16547821D-03
  0.23377750D-03 -0.10877545D-03  0.21798703D-03  0.23930096D-03  0.64594830D-03
  0.20355538D-03 -0.43703772D-03  0.14621810D-03  0.20656800D-03 -0.96115012D-04
  0.19261539D-03  0.21144859D-03  0.57076601D-03  0.17986345D-03 -0.38617065D-03
  0.23870613D-11  0.31387642D-01  0.18827760D-01  0.25329931D-13  0.48903669D-04
 -0.24189482D-05 -0.45926609D-15 -0.47028172D-05 -0.22758680D-05 -0.13854095D+01
 -0.14496817D+01 -0.12352064D+01 -0.81347682D+00 -0.37490725D+00 -0.11226658D+00
 -0.19101207D-01  0.17224408D+01  0.18023487D+01  0.15356976D+01  0.10113730D+01
  0.46611169D+00  0.13957790D+00  0.23747996D-01 -0.33703134D+00 -0.35266698D+00
 -0.30049115D+00 -0.19789614D+00 -0.91204438D-01 -0.27311316D-01 -0.46467890D-02
  0.11346208D-10  0.11872584D-10  0.10116077D-10  0.66622016D-11  0.30704104D-11
  0.91943936D-12  0.15643481D-12  0.71369972D-10  0.74680985D-10  0.63632197D-10
  0.41906612D-10  0.19313510D-10  0.57834618D-11  0.98400699D-12  0.50741352D+01
  0.53095357D+01  0.45240086D+01  0.29794017D+01  0.13731175D+01  0.41118227D+00
  0.69959177D-01 -0.14572216D-02  0.17346105D-02 -0.27738889D-03  0.19384029D-13
  0.66197228D-13  0.49897589D-02  0.10506905D-03 -0.73580707D-04 -0.31488343D-04
 -0.39288015D-14 -0.96815634D-15 -0.27039394D-03  0.10416217D-05 -0.26219652D-05
  0.15803435D-05  0.85818728D-15  0.48367911D-16 -0.27315706D-04 -0.45199201D-14
  0.52077470D-04 -0.13551118D-03  0.12177586D-13 -0.28479602D-03 -0.17869138D-03
  0.13821744D-14  0.12856361D-03  0.58522492D-03  0.26725699D-13  0.57129626D-15
 -0.88431843D-06  0.26466655D-04 -0.14182727D-14  0.61507861D-04  0.47736713D-04
 -0.29561609D-15 -0.58854906D-04 -0.12713668D-03 -0.34425736D-14 -0.16259575D-01
 -0.30586710D-01 -0.52947157D-01 -0.86790556D-01 -0.13595873D+00 -0.20435703D+00
 -0.29207424D+00 -0.38772792D+00 -0.45153718D+00 -0.41468466D+00 -0.24241041D+00
 -0.63607078D-01 -0.36164157D-02 -0.63102565D-04 -0.63519910D-05 -0.77103683D-03
 -0.22273477D-02 -0.10208458D-01 -0.30219258D-01 -0.87636730D-01 -0.18216103D+00
 -0.26058352D+00 -0.74717619D-01  0.29858161D+00  0.28869953D+00  0.63013086D-01
 -0.91209536D-03 -0.46666827D-03 -0.21771040D-02 -0.44182710D-02 -0.17315973D-01
 -0.12151028D-01  0.79132093D-01  0.24520319D+00  0.29993841D-01 -0.21434480D+00
 -0.10059201D+00 -0.52228237D-06 -0.71600768D-06  0.13727599D-05  0.29175662D-05
 -0.11029217D-04 -0.35665685D-04 -0.12403983D-04  0.12132446D-03  0.27061644D-03
 -0.17957283D-03 -0.42188319D-02  0.19614052D-03 -0.82762403D-04  0.32010965D-08
  0.45930957D-08  0.60816831D-08  0.70232854D-08  0.65119101D-08  0.42170256D-08
  0.14880163D-08  0.17145498D-09 -0.28010476D-12 -0.72914581D+01 -0.10462154D+02
 -0.13852859D+02 -0.15997641D+02 -0.14832830D+02 -0.96055415D+01 -0.33894037D+01
 -0.39054018D+00  0.63802267D-03  0.42754279D+01  0.61346009D+01  0.81227785D+01
  0.93803953D+01  0.86973955D+01  0.56323166D+01  0.19874147D+01  0.22899760D+00
 -0.37411172D-03 -0.10124314D-10  0.28866224D-10  0.14089975D-09  0.29197107D-09