 br2co-wavefunction
GAUSSIAN            210 MOL ORBITALS    578 PRIMITIVES        4 NUCLEI
  C    1    (CENTRE  1)   0.00000000  0.00000000 -0.92928983  CHARGE =  6.0
  Br   2    (CENTRE  2)   0.00000000 -3.01256550 -2.92306618  CHARGE = 35.0
  Br   3    (CENTRE  3)   0.00000000  3.01256550 -2.92306618  CHARGE = 35.0
  O    4    (CENTRE  4)   0.01889726  0.00000000  1.29351754  CHARGE =  8.0
CENTRE ASSIGNMENTS    1  1  1  1  1  1  1  1  1  1  1  1  1  1  1  1  1  1  1  1
CENTRE ASSIGNMENTS    1  1  1  1  1  1  1  1  1  1  1  1  1  1  1  1  1  1  1  1
CENTRE ASSIGNMENTS    1  1  1  1  1  1  1  1  1  1  1  1  1  1  1  1  1  1  1  1
CENTRE ASSIGNMENTS    1  1  1  1  1  1  1  1  1  1  1  1  2  2  2  2  2  2  2  2
CENTRE ASSIGNMENTS    2  2  2  2  2  2  2  2  2  2  2  2  2  2  2  2  2  2  2  2
CENTRE ASSIGNMENTS    2  2  2  2  2  2  2  2  2  2  2  2  2  2  2  2  2  2  2  2
CENTRE ASSIGNMENTS    2  2  2  2  2  2  2  2  2  2  2  2  2  2  2  2  2  2  2  2
CENTRE ASSIGNMENTS    2  2  2  2  2  2  2  2  2  2  2  2  2  2  2  2  2  2  2  2
CENTRE ASSIGNMENTS    2  2  2  2  2  2  2  2  2  2  2  2  2  2  2  2  2  2  2  2
CENTRE ASSIGNMENTS    2  2  2  2  2  2  2  2  2  2  2  2  2  2  2  2  2  2  2  2
CENTRE ASSIGNMENTS    2  2  2  2  2  2  2  2  2  2  2  2  2  2  2  2  2  2  2  2
CENTRE ASSIGNMENTS    2  2  2  2  2  2  2  2  2  2  2  2  2  2  2  2  2  2  2  2
CENTRE ASSIGNMENTS    2  2  2  2  2  2  2  2  2  2  2  2  2  2  2  2  2  2  2  2
CENTRE ASSIGNMENTS    2  2  2  2  2  2  2  2  2  2  2  2  2  2  2  2  2  2  2  2
CENTRE ASSIGNMENTS    2  2  2  2  2  2  2  2  2  3  3  3  3  3  3  3  3  3  3  3
CENTRE ASSIGNMENTS    3  3  3  3  3  3  3  3  3  3  3  3  3  3  3  3  3  3  3  3
CENTRE ASSIGNMENTS    3  3  3  3  3  3  3  3  3  3  3  3  3  3  3  3  3  3  3  3
CENTRE ASSIGNMENTS    3  3  3  3  3  3  3  3  3  3  3  3  3  3  3  3  3  3  3  3
CENTRE ASSIGNMENTS    3  3  3  3  3  3  3  3  3  3  3  3  3  3  3  3  3  3  3  3
CENTRE ASSIGNMENTS    3  3  3  3  3  3  3  3  3  3  3  3  3  3  3  3  3  3  3  3
CENTRE ASSIGNMENTS    3  3  3  3  3  3  3  3  3  3  3  3  3  3  3  3  3  3  3  3
CENTRE ASSIGNMENTS    3  3  3  3  3  3  3  3  3  3  3  3  3  3  3  3  3  3  3  3
CENTRE ASSIGNMENTS    3  3  3  3  3  3  3  3  3  3  3  3  3  3  3  3  3  3  3  3
CENTRE ASSIGNMENTS    3  3  3  3  3  3  3  3  3  3  3  3  3  3  3  3  3  3  3  3
CENTRE ASSIGNMENTS    3  3  3  3  3  3  3  3  3  3  3  3  3  3  3  3  3  3  3  3
CENTRE ASSIGNMENTS    3  3  3  3  3  3  4  4  4  4  4  4  4  4  4  4  4  4  4  4
CENTRE ASSIGNMENTS    4  4  4  4  4  4  4  4  4  4  4  4  4  4  4  4  4  4  4  4
CENTRE ASSIGNMENTS    4  4  4  4  4  4  4  4  4  4  4  4  4  4  4  4  4  4  4  4
CENTRE ASSIGNMENTS    4  4  4  4  4  4  4  4  4  4  4  4  4  4  4  4  4  4
TYPE ASSIGNMENTS      1  1  1  1  1  1  1  1  1  1  1  1  1  1  1  1  2  2  2  3
TYPE ASSIGNMENTS      3  3  4  4  4  2  3  4  2  3  4  2  3  4  5  6  7  8  9 10
TYPE ASSIGNMENTS      5  6  7  8  9 10  5  6  7  8  9 10 11 12 13 17 14 15 18 19
TYPE ASSIGNMENTS     16 20 11 12 13 17 14 15 18 19 16 20  1  1  1  1  1  1  1  1
TYPE ASSIGNMENTS      1  1  1  1  1  1  1  1  1  1  1  1  1  1  1  1  1  1  1  1
TYPE ASSIGNMENTS      1  1  1  1  1  1  1  1  1  1  1  1  1  1  1  1  1  1  1  1
TYPE ASSIGNMENTS      1  1  2  2  2  2  2  2  2  2  2  3  3  3  3  3  3  3  3  3
TYPE ASSIGNMENTS      4  4  4  4  4  4  4  4  4  2  2  2  2  2  2  2  2  2  3  3
TYPE ASSIGNMENTS      3  3  3  3  3  3  3  4  4  4  4  4  4  4  4  4  2  2  2  2
TYPE ASSIGNMENTS      2  2  2  2  3  3  3  3  3  3  3  3  4  4  4  4  4  4  4  4
TYPE ASSIGNMENTS      2  3  4  2  3  4  2  3  4  5  5  5  5  5  5  5  6  6  6  6
TYPE ASSIGNMENTS      6  6  6  7  7  7  7  7  7  7  8  8  8  8  8  8  8  9  9  9
TYPE ASSIGNMENTS      9  9  9  9 10 10 10 10 10 10 10  5  6  7  8  9 10  5  6  7
TYPE ASSIGNMENTS      8  9 10  5  6  7  8  9 10 11 12 13 17 14 15 18 19 16 20 11
TYPE ASSIGNMENTS     12 13 17 14 15 18 19 16 20  1  1  1  1  1  1  1  1  1  1  1
TYPE ASSIGNMENTS      1  1  1  1  1  1  1  1  1  1  1  1  1  1  1  1  1  1  1  1
TYPE ASSIGNMENTS      1  1  1  1  1  1  1  1  1  1  1  1  1  1  1  1  1  1  1  2
TYPE ASSIGNMENTS      2  2  2  2  2  2  2  2  3  3  3  3  3  3  3  3  3  4  4  4
TYPE ASSIGNMENTS      4  4  4  4  4  4  2  2  2  2  2  2  2  2  2  3  3  3  3  3
TYPE ASSIGNMENTS      3  3  3  3  4  4  4  4  4  4  4  4  4  2  2  2  2  2  2  2
TYPE ASSIGNMENTS      2  3  3  3  3  3  3  3  3  4  4  4  4  4  4  4  4  2  3  4
TYPE ASSIGNMENTS      2  3  4  2  3  4  5  5  5  5  5  5  5  6  6  6  6  6  6  6
TYPE ASSIGNMENTS      7  7  7  7  7  7  7  8  8  8  8  8  8  8  9  9  9  9  9  9
TYPE ASSIGNMENTS      9 10 10 10 10 10 10 10  5  6  7  8  9 10  5  6  7  8  9 10
TYPE ASSIGNMENTS      5  6  7  8  9 10 11 12 13 17 14 15 18 19 16 20 11 12 13 17
TYPE ASSIGNMENTS     14 15 18 19 16 20  1  1  1  1  1  1  1  1  1  1  1  1  1  1
TYPE ASSIGNMENTS      1  1  2  2  2  3  3  3  4  4  4  2  3  4  2  3  4  2  3  4
TYPE ASSIGNMENTS      5  6  7  8  9 10  5  6  7  8  9 10  5  6  7  8  9 10 11 12
TYPE ASSIGNMENTS     13 17 14 15 18 19 16 20 11 12 13 17 14 15 18 19 16 20
EXPONENTS  0.8236000D+04 0.1235000D+04 0.2808000D+03 0.7927000D+02 0.2559000D+02
EXPONENTS  0.8997000D+01 0.3319000D+01 0.2808000D+03 0.7927000D+02 0.2559000D+02
EXPONENTS  0.8997000D+01 0.3319000D+01 0.3643000D+00 0.9059000D+00 0.1285000D+00
EXPONENTS  0.4402000D-01 0.1871000D+02 0.4133000D+01 0.1200000D+01 0.1871000D+02
EXPONENTS  0.4133000D+01 0.1200000D+01 0.1871000D+02 0.4133000D+01 0.1200000D+01
EXPONENTS  0.3827000D+00 0.3827000D+00 0.3827000D+00 0.1209000D+00 0.1209000D+00
EXPONENTS  0.1209000D+00 0.3569000D-01 0.3569000D-01 0.3569000D-01 0.1097000D+01
EXPONENTS  0.1097000D+01 0.1097000D+01 0.1097000D+01 0.1097000D+01 0.1097000D+01
EXPONENTS  0.3180000D+00 0.3180000D+00 0.3180000D+00 0.3180000D+00 0.3180000D+00
EXPONENTS  0.3180000D+00 0.1000000D+00 0.1000000D+00 0.1000000D+00 0.1000000D+00
EXPONENTS  0.1000000D+00 0.1000000D+00 0.7610000D+00 0.7610000D+00 0.7610000D+00
EXPONENTS  0.7610000D+00 0.7610000D+00 0.7610000D+00 0.7610000D+00 0.7610000D+00
EXPONENTS  0.7610000D+00 0.7610000D+00 0.2680000D+00 0.2680000D+00 0.2680000D+00
EXPONENTS  0.2680000D+00 0.2680000D+00 0.2680000D+00 0.2680000D+00 0.2680000D+00
EXPONENTS  0.2680000D+00 0.2680000D+00 0.1063900D+08 0.1593400D+07 0.3626100D+06
EXPONENTS  0.1027000D+06 0.3350100D+05 0.1209300D+05 0.4715900D+04 0.1955600D+04
EXPONENTS  0.8526100D+03 0.3876700D+03 0.1826800D+03 0.8824500D+02 0.3926300D+02
EXPONENTS  0.9405700D+01 0.1899500D+01 0.3350100D+05 0.1209300D+05 0.4715900D+04
EXPONENTS  0.1955600D+04 0.8526100D+03 0.3876700D+03 0.1826800D+03 0.8824500D+02
EXPONENTS  0.3926300D+02 0.1923400D+02 0.9405700D+01 0.1899500D+01 0.4715900D+04
EXPONENTS  0.8526100D+03 0.3876700D+03 0.1826800D+03 0.8824500D+02 0.3926300D+02
EXPONENTS  0.1923400D+02 0.9405700D+01 0.4160100D+01 0.1899500D+01 0.4715900D+04
EXPONENTS  0.8526100D+03 0.3876700D+03 0.8824500D+02 0.3926300D+02 0.1923400D+02
EXPONENTS  0.9405700D+01 0.4160100D+01 0.1899500D+01 0.3011400D+00 0.6047200D+00
EXPONENTS  0.1251500D+00 0.4559300D-01 0.8676500D+04 0.2055900D+04 0.6662300D+03
EXPONENTS  0.2531000D+03 0.1061200D+03 0.4724200D+02 0.2182500D+02 0.9968400D+01
EXPONENTS  0.1998200D+01 0.8676500D+04 0.2055900D+04 0.6662300D+03 0.2531000D+03
EXPONENTS  0.1061200D+03 0.4724200D+02 0.2182500D+02 0.9968400D+01 0.1998200D+01
EXPONENTS  0.8676500D+04 0.2055900D+04 0.6662300D+03 0.2531000D+03 0.1061200D+03
EXPONENTS  0.4724200D+02 0.2182500D+02 0.9968400D+01 0.1998200D+01 0.8676500D+04
EXPONENTS  0.6662300D+03 0.2531000D+03 0.1061200D+03 0.4724200D+02 0.2182500D+02
EXPONENTS  0.9968400D+01 0.4517100D+01 0.1998200D+01 0.8676500D+04 0.6662300D+03
EXPONENTS  0.2531000D+03 0.1061200D+03 0.4724200D+02 0.2182500D+02 0.9968400D+01
EXPONENTS  0.4517100D+01 0.1998200D+01 0.8676500D+04 0.6662300D+03 0.2531000D+03
EXPONENTS  0.1061200D+03 0.4724200D+02 0.2182500D+02 0.9968400D+01 0.4517100D+01
EXPONENTS  0.1998200D+01 0.6662300D+03 0.1061200D+03 0.4724200D+02 0.2182500D+02
EXPONENTS  0.9968400D+01 0.4517100D+01 0.1998200D+01 0.2814500D+00 0.6662300D+03
EXPONENTS  0.1061200D+03 0.4724200D+02 0.2182500D+02 0.9968400D+01 0.4517100D+01
EXPONENTS  0.1998200D+01 0.2814500D+00 0.6662300D+03 0.1061200D+03 0.4724200D+02
EXPONENTS  0.2182500D+02 0.9968400D+01 0.4517100D+01 0.1998200D+01 0.2814500D+00
EXPONENTS  0.7098800D+00 0.7098800D+00 0.7098800D+00 0.1020400D+00 0.1020400D+00
EXPONENTS  0.1020400D+00 0.3514200D-01 0.3514200D-01 0.3514200D-01 0.4038300D+03
EXPONENTS  0.1211700D+03 0.4634500D+02 0.1972100D+02 0.8862400D+01 0.3996200D+01
EXPONENTS  0.1763600D+01 0.4038300D+03 0.1211700D+03 0.4634500D+02 0.1972100D+02
EXPONENTS  0.8862400D+01 0.3996200D+01 0.1763600D+01 0.4038300D+03 0.1211700D+03
EXPONENTS  0.4634500D+02 0.1972100D+02 0.8862400D+01 0.3996200D+01 0.1763600D+01
EXPONENTS  0.4038300D+03 0.1211700D+03 0.4634500D+02 0.1972100D+02 0.8862400D+01
EXPONENTS  0.3996200D+01 0.1763600D+01 0.4038300D+03 0.1211700D+03 0.4634500D+02
EXPONENTS  0.1972100D+02 0.8862400D+01 0.3996200D+01 0.1763600D+01 0.4038300D+03
EXPONENTS  0.1211700D+03 0.4634500D+02 0.1972100D+02 0.8862400D+01 0.3996200D+01
EXPONENTS  0.1763600D+01 0.7061900D+00 0.7061900D+00 0.7061900D+00 0.7061900D+00
EXPONENTS  0.7061900D+00 0.7061900D+00 0.2639000D+00 0.2639000D+00 0.2639000D+00
EXPONENTS  0.2639000D+00 0.2639000D+00 0.2639000D+00 0.1047000D+00 0.1047000D+00
EXPONENTS  0.1047000D+00 0.1047000D+00 0.1047000D+00 0.1047000D+00 0.5515000D+00
EXPONENTS  0.5515000D+00 0.5515000D+00 0.5515000D+00 0.5515000D+00 0.5515000D+00
EXPONENTS  0.5515000D+00 0.5515000D+00 0.5515000D+00 0.5515000D+00 0.2580000D+00
EXPONENTS  0.2580000D+00 0.2580000D+00 0.2580000D+00 0.2580000D+00 0.2580000D+00
EXPONENTS  0.2580000D+00 0.2580000D+00 0.2580000D+00 0.2580000D+00 0.1063900D+08
EXPONENTS  0.1593400D+07 0.3626100D+06 0.1027000D+06 0.3350100D+05 0.1209300D+05
EXPONENTS  0.4715900D+04 0.1955600D+04 0.8526100D+03 0.3876700D+03 0.1826800D+03
EXPONENTS  0.8824500D+02 0.3926300D+02 0.9405700D+01 0.1899500D+01 0.3350100D+05
EXPONENTS  0.1209300D+05 0.4715900D+04 0.1955600D+04 0.8526100D+03 0.3876700D+03
EXPONENTS  0.1826800D+03 0.8824500D+02 0.3926300D+02 0.1923400D+02 0.9405700D+01
EXPONENTS  0.1899500D+01 0.4715900D+04 0.8526100D+03 0.3876700D+03 0.1826800D+03
EXPONENTS  0.8824500D+02 0.3926300D+02 0.1923400D+02 0.9405700D+01 0.4160100D+01
EXPONENTS  0.1899500D+01 0.4715900D+04 0.8526100D+03 0.3876700D+03 0.8824500D+02
EXPONENTS  0.3926300D+02 0.1923400D+02 0.9405700D+01 0.4160100D+01 0.1899500D+01
EXPONENTS  0.3011400D+00 0.6047200D+00 0.1251500D+00 0.4559300D-01 0.8676500D+04
EXPONENTS  0.2055900D+04 0.6662300D+03 0.2531000D+03 0.1061200D+03 0.4724200D+02
EXPONENTS  0.2182500D+02 0.9968400D+01 0.1998200D+01 0.8676500D+04 0.2055900D+04
EXPONENTS  0.6662300D+03 0.2531000D+03 0.1061200D+03 0.4724200D+02 0.2182500D+02
EXPONENTS  0.9968400D+01 0.1998200D+01 0.8676500D+04 0.2055900D+04 0.6662300D+03
EXPONENTS  0.2531000D+03 0.1061200D+03 0.4724200D+02 0.2182500D+02 0.9968400D+01
EXPONENTS  0.1998200D+01 0.8676500D+04 0.6662300D+03 0.2531000D+03 0.1061200D+03
EXPONENTS  0.4724200D+02 0.2182500D+02 0.9968400D+01 0.4517100D+01 0.1998200D+01
EXPONENTS  0.8676500D+04 0.6662300D+03 0.2531000D+03 0.1061200D+03 0.4724200D+02
EXPONENTS  0.2182500D+02 0.9968400D+01 0.4517100D+01 0.1998200D+01 0.8676500D+04
EXPONENTS  0.6662300D+03 0.2531000D+03 0.1061200D+03 0.4724200D+02 0.2182500D+02
EXPONENTS  0.9968400D+01 0.4517100D+01 0.1998200D+01 0.6662300D+03 0.1061200D+03
EXPONENTS  0.4724200D+02 0.2182500D+02 0.9968400D+01 0.4517100D+01 0.1998200D+01
EXPONENTS  0.2814500D+00 0.6662300D+03 0.1061200D+03 0.4724200D+02 0.2182500D+02
EXPONENTS  0.9968400D+01 0.4517100D+01 0.1998200D+01 0.2814500D+00 0.6662300D+03
EXPONENTS  0.1061200D+03 0.4724200D+02 0.2182500D+02 0.9968400D+01 0.4517100D+01
EXPONENTS  0.1998200D+01 0.2814500D+00 0.7098800D+00 0.7098800D+00 0.7098800D+00
EXPONENTS  0.1020400D+00 0.1020400D+00 0.1020400D+00 0.3514200D-01 0.3514200D-01
EXPONENTS  0.3514200D-01 0.4038300D+03 0.1211700D+03 0.4634500D+02 0.1972100D+02
EXPONENTS  0.8862400D+01 0.3996200D+01 0.1763600D+01 0.4038300D+03 0.1211700D+03
EXPONENTS  0.4634500D+02 0.1972100D+02 0.8862400D+01 0.3996200D+01 0.1763600D+01
EXPONENTS  0.4038300D+03 0.1211700D+03 0.4634500D+02 0.1972100D+02 0.8862400D+01
EXPONENTS  0.3996200D+01 0.1763600D+01 0.4038300D+03 0.1211700D+03 0.4634500D+02
EXPONENTS  0.1972100D+02 0.8862400D+01 0.3996200D+01 0.1763600D+01 0.4038300D+03
EXPONENTS  0.1211700D+03 0.4634500D+02 0.1972100D+02 0.8862400D+01 0.3996200D+01
EXPONENTS  0.1763600D+01 0.4038300D+03 0.1211700D+03 0.4634500D+02 0.1972100D+02
EXPONENTS  0.8862400D+01 0.3996200D+01 0.1763600D+01 0.7061900D+00 0.7061900D+00
EXPONENTS  0.7061900D+00 0.7061900D+00 0.7061900D+00 0.7061900D+00 0.2639000D+00
EXPONENTS  0.2639000D+00 0.2639000D+00 0.2639000D+00 0.2639000D+00 0.2639000D+00
EXPONENTS  0.1047000D+00 0.1047000D+00 0.1047000D+00 0.1047000D+00 0.1047000D+00
EXPONENTS  0.1047000D+00 0.5515000D+00 0.5515000D+00 0.5515000D+00 0.5515000D+00
EXPONENTS  0.5515000D+00 0.5515000D+00 0.5515000D+00 0.5515000D+00 0.5515000D+00
EXPONENTS  0.5515000D+00 0.2580000D+00 0.2580000D+00 0.2580000D+00 0.2580000D+00
EXPONENTS  0.2580000D+00 0.2580000D+00 0.2580000D+00 0.2580000D+00 0.2580000D+00
EXPONENTS  0.2580000D+00 0.1533000D+05 0.2299000D+04 0.5224000D+03 0.1473000D+03
EXPONENTS  0.4755000D+02 0.1676000D+02 0.6207000D+01 0.5224000D+03 0.1473000D+03
EXPONENTS  0.4755000D+02 0.1676000D+02 0.6207000D+01 0.6882000D+00 0.1752000D+01
EXPONENTS  0.2384000D+00 0.7376000D-01 0.3446000D+02 0.7749000D+01 0.2280000D+01
EXPONENTS  0.3446000D+02 0.7749000D+01 0.2280000D+01 0.3446000D+02 0.7749000D+01
EXPONENTS  0.2280000D+01 0.7156000D+00 0.7156000D+00 0.7156000D+00 0.2140000D+00
EXPONENTS  0.2140000D+00 0.2140000D+00 0.5974000D-01 0.5974000D-01 0.5974000D-01
EXPONENTS  0.2314000D+01 0.2314000D+01 0.2314000D+01 0.2314000D+01 0.2314000D+01
EXPONENTS  0.2314000D+01 0.6450000D+00 0.6450000D+00 0.6450000D+00 0.6450000D+00
EXPONENTS  0.6450000D+00 0.6450000D+00 0.2140000D+00 0.2140000D+00 0.2140000D+00
EXPONENTS  0.2140000D+00 0.2140000D+00 0.2140000D+00 0.1428000D+01 0.1428000D+01
EXPONENTS  0.1428000D+01 0.1428000D+01 0.1428000D+01 0.1428000D+01 0.1428000D+01
EXPONENTS  0.1428000D+01 0.1428000D+01 0.1428000D+01 0.5000000D+00 0.5000000D+00
EXPONENTS  0.5000000D+00 0.5000000D+00 0.5000000D+00 0.5000000D+00 0.5000000D+00
EXPONENTS  0.5000000D+00 0.5000000D+00 0.5000000D+00
MO    1     MO 0.0        OCC NO =    2.0000166  ORB. ENERGY =    0.000000
  0.12314961D+00  0.22957569D+00  0.38801419D+00  0.58325770D+00  0.71642762D+00
  0.60463964D+00  0.22736029D+00  0.29320262D-04  0.21915079D-03  0.81901656D-03
  0.22849287D-02  0.30611745D-02 -0.36146763D-02  0.94445537D-02 -0.19936724D-02
 -0.30926283D-03  0.12019187D-04  0.11268752D-04  0.80240228D-05  0.14429550D-10
  0.13528620D-10  0.96331835D-11  0.36722759D-02  0.34429921D-02  0.24516155D-02
  0.90584038D-05  0.49993138D-11  0.19863771D-02  0.24442760D-06  0.13021536D-11
  0.38482175D-03  0.14477182D-06 -0.29974535D-13  0.48955715D-05 -0.97096119D-04
 -0.49937867D-03  0.59647479D-03  0.32640914D-13  0.14565692D-04 -0.36659452D-11
  0.33696936D-03 -0.32304537D-03 -0.13923994D-04  0.32527799D-13  0.96276352D-06
 -0.14473418D-11  0.30928358D-04 -0.18822808D-04 -0.12105550D-04 -0.14742102D-14
  0.19873065D-06 -0.32472098D-12 -0.20577477D-05 -0.14467870D-12  0.12397710D-03
 -0.18734646D-05  0.36389252D-12 -0.16590192D-03  0.80467075D-05  0.70143573D-13
 -0.20602937D-03 -0.52495729D-15  0.31018087D-06  0.98697627D-13 -0.14095660D-04
 -0.30773751D-06 -0.36956972D-13  0.24959495D-05 -0.62280510D-06 -0.25913591D-12
  0.39791030D-04 -0.63013449D-15 -0.34889079D-01 -0.65631613D-01 -0.11361167D+00
 -0.18623135D+00 -0.29173425D+00 -0.43850031D+00 -0.62672003D+00 -0.83196948D+00
 -0.96888856D+00 -0.88981205D+00 -0.52015357D+00 -0.13648526D+00 -0.77599453D-02
 -0.13540270D-03 -0.13629822D-04 -0.16554344D-02 -0.47821685D-02 -0.21917802D-01
 -0.64881467D-01 -0.18815815D+00 -0.39110408D+00 -0.55947903D+00 -0.16042051D+00
  0.64106183D+00  0.61984477D+00  0.13529060D+00 -0.19582904D-02 -0.10125305D-02
 -0.47236643D-02 -0.95863261D-02 -0.37570479D-01 -0.26364095D-01  0.17169297D+00
  0.53201755D+00  0.65077661D-01 -0.46506408D+00 -0.21825456D+00 -0.11092392D-05
 -0.15206790D-05  0.29155094D-05  0.61964161D-05 -0.23424187D-04 -0.75747869D-04
 -0.26343957D-04  0.25767259D-03  0.57474345D-03 -0.38138226D-03 -0.90592843D-02
  0.53773414D-03  0.15413660D-03 -0.10956327D-01 -0.15720694D-01 -0.20815652D-01
 -0.24038455D-01 -0.22288181D-01 -0.14433527D-01 -0.50930028D-02 -0.58683544D-03
  0.95870882D-06  0.10012757D+02  0.14366812D+02  0.19022987D+02  0.21968239D+02
  0.20368700D+02  0.13190497D+02  0.46543883D+01  0.53629658D+00 -0.87614385D-03
  0.62281038D+01  0.89363993D+01  0.11832618D+02  0.13664615D+02  0.12669675D+02
  0.82047114D+01  0.28951079D+01  0.33358551D+00 -0.54497624D-03  0.62775796D-04
 -0.17898498D-03 -0.87364870D-03 -0.18103662D-02 -0.22718309D-02 -0.36027153D-03
  0.29162763D-02  0.25434157D-02  0.65382286D-03 -0.59674138D-01  0.17014160D+00
  0.83048302D+00  0.17209187D+01  0.21595832D+01  0.34247105D+00 -0.27721874D+01
 -0.24177494D+01 -0.62151845D+00 -0.37198352D-01  0.10605913D+00  0.51768825D+00
  0.10727485D+01  0.13461935D+01  0.21348207D+00 -0.17280652D+01 -0.15071234D+01
 -0.38742851D+00  0.24682505D-06  0.34869935D-06 -0.16224799D-06  0.32514650D-06
  0.35693807D-06  0.96348774D-06  0.30362044D-06 -0.65187954D-06 -0.25821027D-03
 -0.36478368D-03  0.16973194D-03 -0.34014441D-03 -0.37340243D-03 -0.10079302D-02
 -0.31762544D-03  0.68194857D-03 -0.14273635D-03 -0.20164919D-03  0.93826315D-04
 -0.18802882D-03 -0.20641356D-03 -0.55717489D-03 -0.17558053D-03  0.37697513D-03
  0.22273046D-04 -0.22011496D-01 -0.13840508D-01  0.27393291D-06  0.12527193D-03
  0.59994061D-04 -0.52395492D-07  0.87756312D-05  0.66720297D-05  0.10215432D+01
  0.10689348D+01  0.91078970D+00  0.59982388D+00  0.27644097D+00  0.82780695D-01
  0.14084433D-01 -0.12443433D+01 -0.13020712D+01 -0.11094343D+01 -0.73064638D+00
 -0.33673316D+00 -0.10083529D+00 -0.17156270D-01  0.22280013D+00  0.23313633D+00
  0.19864463D+00  0.13082251D+00  0.60292198D-01  0.18054596D-01  0.30718365D-02
  0.44463886D-02  0.46526666D-02  0.39643210D-02  0.26108051D-02  0.12032423D-02
  0.36031286D-03  0.61304179D-04  0.58443517D-02  0.61154844D-02  0.52107200D-02
  0.34316531D-02  0.15815467D-02  0.47359673D-03  0.80578468D-04 -0.37499436D+01
 -0.39239120D+01 -0.33433830D+01 -0.22018705D+01 -0.10147765D+01 -0.30387648D+00
 -0.51702007D-01  0.11369974D-02 -0.13745094D-02  0.23751203D-03  0.36547973D-05
  0.47572411D-05 -0.38086670D-02 -0.11624173D-03  0.11050365D-03  0.57380773D-05
  0.40657370D-06  0.28803932D-06  0.30458086D-03 -0.13577625D-04  0.15151746D-04
 -0.15741210D-05  0.46261243D-07 -0.77528900D-08  0.28801028D-04 -0.29321780D-06
 -0.40122804D-04  0.91945486D-04  0.24635199D-06  0.20898927D-03  0.14526893D-03
  0.63330140D-06 -0.88620857D-04 -0.42110539D-03  0.15469000D-05  0.40966647D-08
  0.97222866D-05 -0.20870579D-04  0.90767997D-07 -0.68892977D-04 -0.54608408D-04
 -0.10305799D-06  0.39726117D-04  0.11722014D-03 -0.10716820D-06 -0.34889079D-01
 -0.65631613D-01 -0.11361167D+00 -0.18623135D+00 -0.29173425D+00 -0.43850031D+00
 -0.62672003D+00 -0.83196948D+00 -0.96888856D+00 -0.88981205D+00 -0.52015357D+00
 -0.13648526D+00 -0.77599453D-02 -0.13540270D-03 -0.13629822D-04 -0.16554344D-02
 -0.47821685D-02 -0.21917802D-01 -0.64881467D-01 -0.18815814D+00 -0.39110407D+00
 -0.55947903D+00 -0.16042051D+00  0.64106183D+00  0.61984477D+00  0.13529059D+00
 -0.19582904D-02 -0.10125305D-02 -0.47236643D-02 -0.95863261D-02 -0.37570479D-01
 -0.26364095D-01  0.17169296D+00  0.53201755D+00  0.65077661D-01 -0.46506408D+00
 -0.21825456D+00 -0.11092392D-05 -0.15206789D-05  0.29155094D-05  0.61964161D-05
 -0.23424187D-04 -0.75747869D-04 -0.26343957D-04  0.25767259D-03  0.57474345D-03
 -0.38138226D-03 -0.90592843D-02  0.53773413D-03  0.15413660D-03 -0.10956334D-01
 -0.15720704D-01 -0.20815665D-01 -0.24038470D-01 -0.22288195D-01 -0.14433536D-01
 -0.50930061D-02 -0.58683581D-03  0.95870943D-06 -0.10012757D+02 -0.14366812D+02
 -0.19022987D+02 -0.21968239D+02 -0.20368700D+02 -0.13190497D+02 -0.46543883D+01
 -0.53629658D+00  0.87614385D-03  0.62281038D+01  0.89363993D+01  0.11832618D+02
  0.13664615D+02  0.12669675D+02  0.82047114D+01  0.28951079D+01  0.33358551D+00
 -0.54497624D-03  0.62775818D-04 -0.17898504D-03 -0.87364900D-03 -0.18103669D-02
 -0.22718317D-02 -0.36027165D-03  0.29162773D-02  0.25434166D-02  0.65382309D-03
  0.59674137D-01 -0.17014160D+00 -0.83048302D+00 -0.17209187D+01 -0.21595831D+01
 -0.34247105D+00  0.27721874D+01  0.24177493D+01  0.62151845D+00 -0.37198352D-01
  0.10605913D+00  0.51768825D+00  0.10727485D+01  0.13461935D+01  0.21348207D+00
 -0.17280652D+01 -0.15071234D+01 -0.38742851D+00  0.24682501D-06  0.34869929D-06
 -0.16224796D-06  0.32514644D-06  0.35693802D-06  0.96348758D-06  0.30362039D-06
 -0.65187944D-06  0.25821027D-03  0.36478368D-03 -0.16973194D-03  0.34014441D-03
  0.37340243D-03  0.10079302D-02  0.31762544D-03 -0.68194856D-03 -0.14273635D-03
 -0.20164919D-03  0.93826315D-04 -0.18802882D-03 -0.20641356D-03 -0.55717489D-03
 -0.17558053D-03  0.37697513D-03  0.22273054D-04  0.22011496D-01 -0.13840508D-01
  0.27393299D-06 -0.12527193D-03  0.59994061D-04 -0.52395494D-07 -0.87756312D-05
  0.66720297D-05  0.10215432D+01  0.10689348D+01  0.91078970D+00  0.59982387D+00
  0.27644096D+00  0.82780694D-01  0.14084433D-01 -0.12443433D+01 -0.13020712D+01
 -0.11094343D+01 -0.73064638D+00 -0.33673316D+00 -0.10083529D+00 -0.17156270D-01
  0.22280013D+00  0.23313633D+00  0.19864463D+00  0.13082251D+00  0.60292198D-01
  0.18054596D-01  0.30718365D-02 -0.44463887D-02 -0.46526667D-02 -0.39643210D-02
 -0.26108051D-02 -0.12032423D-02 -0.36031287D-03 -0.61304180D-04  0.58443519D-02
  0.61154845D-02  0.52107201D-02  0.34316531D-02  0.15815468D-02  0.47359674D-03
  0.80578470D-04  0.37499436D+01  0.39239119D+01  0.33433830D+01  0.22018705D+01
  0.10147765D+01  0.30387648D+00  0.51702006D-01  0.11369974D-02 -0.13745094D-02
  0.23751203D-03 -0.36547974D-05  0.47572413D-05  0.38086670D-02 -0.11624173D-03
  0.11050365D-03  0.57380772D-05 -0.40657369D-06  0.28803931D-06 -0.30458086D-03
 -0.13577625D-04  0.15151746D-04 -0.15741210D-05 -0.46261245D-07 -0.77528886D-08
 -0.28801028D-04 -0.29321781D-06  0.40122804D-04  0.91945486D-04  0.24635203D-06
 -0.20898927D-03  0.14526893D-03  0.63330140D-06  0.88620857D-04 -0.42110538D-03
 -0.15469000D-05  0.40966665D-08 -0.97222866D-05 -0.20870579D-04  0.90767993D-07
  0.68892977D-04 -0.54608407D-04 -0.10305799D-06 -0.39726117D-04  0.11722014D-03
  0.10716821D-06 -0.35428337D-01 -0.66032595D-01 -0.11196754D+00 -0.16945097D+00
 -0.21137673D+00 -0.18139268D+00 -0.69463761D-01 -0.34369064D-05 -0.36875750D-04
 -0.13593096D-03 -0.39745415D-03 -0.47895158D-03  0.57694793D-03 -0.31473611D-02
  0.29519896D-03  0.68426055D-04  0.11355387D-04  0.11010906D-04  0.74278919D-05
 -0.74350457D-11 -0.72094934D-11 -0.48634816D-11  0.27610481D-02  0.26772879D-02
  0.18060826D-02  0.24125448D-05 -0.16740061D-11  0.61960368D-03 -0.23159765D-05
 -0.61179056D-13  0.77196032D-04 -0.37036366D-06  0.65015704D-13  0.74415627D-05
  0.28555000D-03 -0.50215341D-04 -0.23533466D-03  0.30039110D-13 -0.88590183D-05
 -0.11186462D-11  0.32316702D-04  0.15425122D-03 -0.18656792D-03 -0.15297117D-13
 -0.61757615D-06 -0.39009295D-12  0.24762718D-05  0.45648844D-04 -0.48125116D-04
 -0.59474867D-14  0.55202890D-06 -0.67647321D-13  0.23201164D-05 -0.16921021D-12
 -0.29135964D-03  0.58059227D-05  0.24664141D-12  0.43117194D-03 -0.12766272D-04
  0.26098921D-12  0.44290698D-03 -0.18532037D-13  0.36402677D-06  0.21544338D-13
  0.79499017D-04 -0.17952054D-05 -0.10293051D-12 -0.39850970D-04  0.70312513D-06
  0.38297495D-13 -0.19864608D-03  0.23651566D-13
MO    2     MO 0.0        OCC NO =    2.0000158  ORB. ENERGY =    0.000000
  0.36473240D-09  0.67993468D-09  0.11491822D-08  0.17274352D-08  0.21218448D-08
  0.17907622D-08  0.67337334D-09  0.77993557D-13  0.58295352D-12  0.21786304D-11
  0.60780396D-11  0.81428973D-11 -0.96152434D-11  0.28328639D-10 -0.47203008D-11
 -0.47684658D-12  0.10042391D-12  0.94153803D-13  0.67043117D-13 -0.58461262D-02
 -0.54811149D-02 -0.39028803D-02  0.86302735D-11  0.80914300D-11  0.57615802D-11
  0.45442374D-13 -0.19747253D-02  0.52462356D-11  0.97090039D-14 -0.45268861D-03
  0.80384232D-12 -0.84184579D-17  0.16144158D-04 -0.89486089D-15 -0.50585289D-12
 -0.12861763D-11  0.17920292D-11  0.25116761D-05  0.22910122D-13  0.14552877D-02
  0.87146685D-12 -0.88109404D-12  0.96271889D-14  0.89763115D-06 -0.21131365D-13
  0.62712110D-03  0.70407123D-13 -0.47156464D-13 -0.23250659D-13  0.20009478D-06
 -0.34059709D-14  0.13321394D-03 -0.10174056D-14  0.55447053D-04  0.41283400D-12
 -0.69632685D-14 -0.14627300D-03 -0.57560975D-12  0.10015485D-13 -0.20068160D-04
 -0.66289224D-12 -0.15478304D-06 -0.12403097D-14 -0.45928138D-04 -0.63024549D-13
  0.46841802D-14  0.95040271D-05  0.30789365D-13 -0.96325120D-15  0.12828039D-03
  0.15828428D-12 -0.16186702D-05  0.31197673D-01  0.58687521D-01  0.10159110D+00
  0.16652731D+00  0.26086758D+00  0.39210519D+00  0.56041050D+00  0.74394372D+00
  0.86637621D+00  0.79566632D+00  0.46511921D+00  0.12204457D+00  0.69389115D-02
  0.12107654D-03  0.12187732D-04  0.14800369D-02  0.42754855D-02  0.19595554D-01
  0.58007109D-01  0.16822231D+00  0.34966559D+00  0.50020079D+00  0.14342354D+00
 -0.57313968D+00 -0.55417062D+00 -0.12095621D+00  0.17508045D-02  0.90061552D-03
  0.42015577D-02  0.85267495D-02  0.33417814D-01  0.23450071D-01 -0.15271574D+00
 -0.47321365D+00 -0.57884627D-01  0.41366055D+00  0.19413088D+00  0.98200222D-06
  0.13462471D-05 -0.25810813D-05 -0.54856465D-05  0.20737279D-04  0.67059092D-04
  0.23322132D-04 -0.22811585D-03 -0.50881661D-03  0.33763522D-03  0.80829575D-02
 -0.40020822D-03  0.28374648D-04  0.15930272D-01  0.22857562D-01  0.30265525D-01
  0.34951413D-01  0.32406551D-01  0.20986048D-01  0.74051201D-02  0.85324651D-03
 -0.13939427D-05 -0.11512229D+02 -0.16518330D+02 -0.21871796D+02 -0.25258117D+02
 -0.23419038D+02 -0.15165855D+02 -0.53514114D+01 -0.61661027D+00  0.10073518D-02
 -0.68607794D+01 -0.98441944D+01 -0.13034623D+02 -0.15052721D+02 -0.13956711D+02
 -0.90381787D+01 -0.31892046D+01 -0.36747246D+00  0.60033710D-03 -0.94369986D-04
  0.26906564D-03  0.13133440D-02  0.27214985D-02  0.34152120D-02  0.54159120D-03
 -0.43839978D-02 -0.38234817D-02 -0.98288286D-03  0.68960292D-01 -0.19661808D+00
 -0.95971812D+00 -0.19887184D+01 -0.24956454D+01 -0.39576447D+00  0.32035796D+01
  0.27939859D+01  0.71823566D+00  0.41035562D-01 -0.11699970D+00 -0.57109057D+00
 -0.11834083D+01 -0.14850605D+01 -0.23550389D+00  0.19063244D+01  0.16625913D+01
  0.42739384D+00 -0.32809761D-06 -0.46351626D-06  0.21567169D-06 -0.43220811D-06
 -0.47446776D-06 -0.12807372D-05 -0.40359413D-06  0.86652517D-06  0.78339482D-04
  0.11067323D-03 -0.51495677D-04  0.10319782D-03  0.11328811D-03  0.30580012D-03
  0.96365697D-04 -0.20689920D-03  0.10397580D-03  0.14689066D-03 -0.68347457D-04
  0.13696895D-03  0.15036125D-03  0.40587214D-03  0.12790103D-03 -0.27460624D-03
 -0.35481638D-04  0.25437233D-01  0.15206679D-01 -0.27241428D-06  0.98661750D-04
  0.18047201D-04 -0.17259803D-07 -0.16844784D-05  0.13929208D-06 -0.11590614D+01
 -0.12128329D+01 -0.10333985D+01 -0.68057105D+00 -0.31365494D+00 -0.93924478D-01
 -0.15980454D-01  0.14146037D+01  0.14802304D+01  0.12612355D+01  0.83061894D+00
  0.38280754D+00  0.11463234D+00  0.19503720D-01 -0.25554234D+00 -0.26739752D+00
 -0.22783700D+00 -0.15004789D+00 -0.69152604D-01 -0.20707859D-01 -0.35232667D-02
 -0.47816505D-02 -0.50034821D-02 -0.42632345D-02 -0.28076622D-02 -0.12939679D-02
 -0.38748079D-03 -0.65926572D-04 -0.62704129D-02 -0.65613115D-02 -0.55905886D-02
 -0.36818252D-02 -0.16968436D-02 -0.50812257D-03 -0.86452748D-04  0.42107731D+01
  0.44061203D+01  0.37542504D+01  0.24724577D+01  0.11394821D+01  0.34121977D+00
  0.58055651D-01 -0.11866845D-02  0.13742283D-02 -0.18754379D-03 -0.41690267D-05
 -0.50412244D-05  0.40808053D-02  0.68689260D-04 -0.35339620D-04 -0.33349640D-04
  0.60111215D-06  0.12433081D-06 -0.17576328D-03 -0.38722884D-05  0.29598010D-05
  0.91248743D-06 -0.18240036D-07 -0.71537944D-07 -0.18958571D-04  0.12347600D-06
  0.40034719D-04 -0.11328002D-03 -0.28652310D-06 -0.23459578D-03 -0.14319200D-03
 -0.83904886D-07  0.11449162D-03  0.48303208D-03 -0.93393882D-06 -0.13918858D-07
  0.30694958D-05  0.20657100D-04  0.21269531D-06  0.40952133D-04  0.31485907D-04
 -0.17093874D-06 -0.50160620D-04 -0.93457207D-04  0.14230488D-06 -0.31197673D-01
 -0.58687522D-01 -0.10159110D+00 -0.16652731D+00 -0.26086758D+00 -0.39210520D+00
 -0.56041050D+00 -0.74394373D+00 -0.86637621D+00 -0.79566632D+00 -0.46511921D+00
 -0.12204457D+00 -0.69389116D-02 -0.12107655D-03 -0.12187732D-04 -0.14800369D-02
 -0.42754855D-02 -0.19595554D-01 -0.58007109D-01 -0.16822231D+00 -0.34966560D+00
 -0.50020079D+00 -0.14342354D+00  0.57313969D+00  0.55417063D+00  0.12095621D+00
 -0.17508046D-02 -0.90061552D-03 -0.42015577D-02 -0.85267495D-02 -0.33417814D-01
 -0.23450072D-01  0.15271574D+00  0.47321365D+00  0.57884627D-01 -0.41366055D+00
 -0.19413088D+00 -0.98200222D-06 -0.13462471D-05  0.25810814D-05  0.54856466D-05
 -0.20737279D-04 -0.67059092D-04 -0.23322132D-04  0.22811585D-03  0.50881661D-03
 -0.33763522D-03 -0.80829575D-02  0.40020822D-03 -0.28374648D-04 -0.15930280D-01
 -0.22857574D-01 -0.30265540D-01 -0.34951431D-01 -0.32406568D-01 -0.20986058D-01
 -0.74051238D-02 -0.85324695D-03  0.13939434D-05 -0.11512229D+02 -0.16518330D+02
 -0.21871796D+02 -0.25258117D+02 -0.23419038D+02 -0.15165855D+02 -0.53514114D+01
 -0.61661028D+00  0.10073518D-02  0.68607794D+01  0.98441945D+01  0.13034623D+02
  0.15052721D+02  0.13956711D+02  0.90381788D+01  0.31892046D+01  0.36747246D+00
 -0.60033710D-03  0.94369997D-04 -0.26906567D-03 -0.13133442D-02 -0.27214988D-02