 br2co-wavefunction
GAUSSIAN            210 MOL ORBITALS    578 PRIMITIVES        4 NUCLEI
  C    1    (CENTRE  1)   0.00000000  0.00000000 -0.92928983  CHARGE =  6.0
  Br   2    (CENTRE  2)   0.00000000 -3.01256550 -2.92306618  CHARGE = 35.0
  Br   3    (CENTRE  3)   0.00000000  3.01256550 -2.94196344  CHARGE = 35.0
  O    4    (CENTRE  4)   0.00000000  0.00000000  1.29351754  CHARGE =  8.0
CENTRE ASSIGNMENTS    1  1  1  1  1  1  1  1  1  1  1  1  1  1  1  1  1  1  1  1
CENTRE ASSIGNMENTS    1  1  1  1  1  1  1  1  1  1  1  1  1  1  1  1  1  1  1  1
CENTRE ASSIGNMENTS    1  1  1  1  1  1  1  1  1  1  1  1  1  1  1  1  1  1  1  1
CENTRE ASSIGNMENTS    1  1  1  1  1  1  1  1  1  1  1  1  2  2  2  2  2  2  2  2
CENTRE ASSIGNMENTS    2  2  2  2  2  2  2  2  2  2  2  2  2  2  2  2  2  2  2  2
CENTRE ASSIGNMENTS    2  2  2  2  2  2  2  2  2  2  2  2  2  2  2  2  2  2  2  2
CENTRE ASSIGNMENTS    2  2  2  2  2  2  2  2  2  2  2  2  2  2  2  2  2  2  2  2
CENTRE ASSIGNMENTS    2  2  2  2  2  2  2  2  2  2  2  2  2  2  2  2  2  2  2  2
CENTRE ASSIGNMENTS    2  2  2  2  2  2  2  2  2  2  2  2  2  2  2  2  2  2  2  2
CENTRE ASSIGNMENTS    2  2  2  2  2  2  2  2  2  2  2  2  2  2  2  2  2  2  2  2
CENTRE ASSIGNMENTS    2  2  2  2  2  2  2  2  2  2  2  2  2  2  2  2  2  2  2  2
CENTRE ASSIGNMENTS    2  2  2  2  2  2  2  2  2  2  2  2  2  2  2  2  2  2  2  2
CENTRE ASSIGNMENTS    2  2  2  2  2  2  2  2  2  2  2  2  2  2  2  2  2  2  2  2
CENTRE ASSIGNMENTS    2  2  2  2  2  2  2  2  2  2  2  2  2  2  2  2  2  2  2  2
CENTRE ASSIGNMENTS    2  2  2  2  2  2  2  2  2  3  3  3  3  3  3  3  3  3  3  3
CENTRE ASSIGNMENTS    3  3  3  3  3  3  3  3  3  3  3  3  3  3  3  3  3  3  3  3
CENTRE ASSIGNMENTS    3  3  3  3  3  3  3  3  3  3  3  3  3  3  3  3  3  3  3  3
CENTRE ASSIGNMENTS    3  3  3  3  3  3  3  3  3  3  3  3  3  3  3  3  3  3  3  3
CENTRE ASSIGNMENTS    3  3  3  3  3  3  3  3  3  3  3  3  3  3  3  3  3  3  3  3
CENTRE ASSIGNMENTS    3  3  3  3  3  3  3  3  3  3  3  3  3  3  3  3  3  3  3  3
CENTRE ASSIGNMENTS    3  3  3  3  3  3  3  3  3  3  3  3  3  3  3  3  3  3  3  3
CENTRE ASSIGNMENTS    3  3  3  3  3  3  3  3  3  3  3  3  3  3  3  3  3  3  3  3
CENTRE ASSIGNMENTS    3  3  3  3  3  3  3  3  3  3  3  3  3  3  3  3  3  3  3  3
CENTRE ASSIGNMENTS    3  3  3  3  3  3  3  3  3  3  3  3  3  3  3  3  3  3  3  3
CENTRE ASSIGNMENTS    3  3  3  3  3  3  3  3  3  3  3  3  3  3  3  3  3  3  3  3
CENTRE ASSIGNMENTS    3  3  3  3  3  3  4  4  4  4  4  4  4  4  4  4  4  4  4  4
CENTRE ASSIGNMENTS    4  4  4  4  4  4  4  4  4  4  4  4  4  4  4  4  4  4  4  4
CENTRE ASSIGNMENTS    4  4  4  4  4  4  4  4  4  4  4  4  4  4  4  4  4  4  4  4
CENTRE ASSIGNMENTS    4  4  4  4  4  4  4  4  4  4  4  4  4  4  4  4  4  4
TYPE ASSIGNMENTS      1  1  1  1  1  1  1  1  1  1  1  1  1  1  1  1  2  2  2  3
TYPE ASSIGNMENTS      3  3  4  4  4  2  3  4  2  3  4  2  3  4  5  6  7  8  9 10
TYPE ASSIGNMENTS      5  6  7  8  9 10  5  6  7  8  9 10 11 12 13 17 14 15 18 19
TYPE ASSIGNMENTS     16 20 11 12 13 17 14 15 18 19 16 20  1  1  1  1  1  1  1  1
TYPE ASSIGNMENTS      1  1  1  1  1  1  1  1  1  1  1  1  1  1  1  1  1  1  1  1
TYPE ASSIGNMENTS      1  1  1  1  1  1  1  1  1  1  1  1  1  1  1  1  1  1  1  1
TYPE ASSIGNMENTS      1  1  2  2  2  2  2  2  2  2  2  3  3  3  3  3  3  3  3  3
TYPE ASSIGNMENTS      4  4  4  4  4  4  4  4  4  2  2  2  2  2  2  2  2  2  3  3
TYPE ASSIGNMENTS      3  3  3  3  3  3  3  4  4  4  4  4  4  4  4  4  2  2  2  2
TYPE ASSIGNMENTS      2  2  2  2  3  3  3  3  3  3  3  3  4  4  4  4  4  4  4  4
TYPE ASSIGNMENTS      2  3  4  2  3  4  2  3  4  5  5  5  5  5  5  5  6  6  6  6
TYPE ASSIGNMENTS      6  6  6  7  7  7  7  7  7  7  8  8  8  8  8  8  8  9  9  9
TYPE ASSIGNMENTS      9  9  9  9 10 10 10 10 10 10 10  5  6  7  8  9 10  5  6  7
TYPE ASSIGNMENTS      8  9 10  5  6  7  8  9 10 11 12 13 17 14 15 18 19 16 20 11
TYPE ASSIGNMENTS     12 13 17 14 15 18 19 16 20  1  1  1  1  1  1  1  1  1  1  1
TYPE ASSIGNMENTS      1  1  1  1  1  1  1  1  1  1  1  1  1  1  1  1  1  1  1  1
TYPE ASSIGNMENTS      1  1  1  1  1  1  1  1  1  1  1  1  1  1  1  1  1  1  1  2
TYPE ASSIGNMENTS      2  2  2  2  2  2  2  2  3  3  3  3  3  3  3  3  3  4  4  4
TYPE ASSIGNMENTS      4  4  4  4  4  4  2  2  2  2  2  2  2  2  2  3  3  3  3  3
TYPE ASSIGNMENTS      3  3  3  3  4  4  4  4  4  4  4  4  4  2  2  2  2  2  2  2
TYPE ASSIGNMENTS      2  3  3  3  3  3  3  3  3  4  4  4  4  4  4  4  4  2  3  4
TYPE ASSIGNMENTS      2  3  4  2  3  4  5  5  5  5  5  5  5  6  6  6  6  6  6  6
TYPE ASSIGNMENTS      7  7  7  7  7  7  7  8  8  8  8  8  8  8  9  9  9  9  9  9
TYPE ASSIGNMENTS      9 10 10 10 10 10 10 10  5  6  7  8  9 10  5  6  7  8  9 10
TYPE ASSIGNMENTS      5  6  7  8  9 10 11 12 13 17 14 15 18 19 16 20 11 12 13 17
TYPE ASSIGNMENTS     14 15 18 19 16 20  1  1  1  1  1  1  1  1  1  1  1  1  1  1
TYPE ASSIGNMENTS      1  1  2  2  2  3  3  3  4  4  4  2  3  4  2  3  4  2  3  4
TYPE ASSIGNMENTS      5  6  7  8  9 10  5  6  7  8  9 10  5  6  7  8  9 10 11 12
TYPE ASSIGNMENTS     13 17 14 15 18 19 16 20 11 12 13 17 14 15 18 19 16 20
EXPONENTS  0.8236000D+04 0.1235000D+04 0.2808000D+03 0.7927000D+02 0.2559000D+02
EXPONENTS  0.8997000D+01 0.3319000D+01 0.2808000D+03 0.7927000D+02 0.2559000D+02
EXPONENTS  0.8997000D+01 0.3319000D+01 0.3643000D+00 0.9059000D+00 0.1285000D+00
EXPONENTS  0.4402000D-01 0.1871000D+02 0.4133000D+01 0.1200000D+01 0.1871000D+02
EXPONENTS  0.4133000D+01 0.1200000D+01 0.1871000D+02 0.4133000D+01 0.1200000D+01
EXPONENTS  0.3827000D+00 0.3827000D+00 0.3827000D+00 0.1209000D+00 0.1209000D+00
EXPONENTS  0.1209000D+00 0.3569000D-01 0.3569000D-01 0.3569000D-01 0.1097000D+01
EXPONENTS  0.1097000D+01 0.1097000D+01 0.1097000D+01 0.1097000D+01 0.1097000D+01
EXPONENTS  0.3180000D+00 0.3180000D+00 0.3180000D+00 0.3180000D+00 0.3180000D+00
EXPONENTS  0.3180000D+00 0.1000000D+00 0.1000000D+00 0.1000000D+00 0.1000000D+00
EXPONENTS  0.1000000D+00 0.1000000D+00 0.7610000D+00 0.7610000D+00 0.7610000D+00
EXPONENTS  0.7610000D+00 0.7610000D+00 0.7610000D+00 0.7610000D+00 0.7610000D+00
EXPONENTS  0.7610000D+00 0.7610000D+00 0.2680000D+00 0.2680000D+00 0.2680000D+00
EXPONENTS  0.2680000D+00 0.2680000D+00 0.2680000D+00 0.2680000D+00 0.2680000D+00
EXPONENTS  0.2680000D+00 0.2680000D+00 0.1063900D+08 0.1593400D+07 0.3626100D+06
EXPONENTS  0.1027000D+06 0.3350100D+05 0.1209300D+05 0.4715900D+04 0.1955600D+04
EXPONENTS  0.8526100D+03 0.3876700D+03 0.1826800D+03 0.8824500D+02 0.3926300D+02
EXPONENTS  0.9405700D+01 0.1899500D+01 0.3350100D+05 0.1209300D+05 0.4715900D+04
EXPONENTS  0.1955600D+04 0.8526100D+03 0.3876700D+03 0.1826800D+03 0.8824500D+02
EXPONENTS  0.3926300D+02 0.1923400D+02 0.9405700D+01 0.1899500D+01 0.4715900D+04
EXPONENTS  0.8526100D+03 0.3876700D+03 0.1826800D+03 0.8824500D+02 0.3926300D+02
EXPONENTS  0.1923400D+02 0.9405700D+01 0.4160100D+01 0.1899500D+01 0.4715900D+04
EXPONENTS  0.8526100D+03 0.3876700D+03 0.8824500D+02 0.3926300D+02 0.1923400D+02
EXPONENTS  0.9405700D+01 0.4160100D+01 0.1899500D+01 0.3011400D+00 0.6047200D+00
EXPONENTS  0.1251500D+00 0.4559300D-01 0.8676500D+04 0.2055900D+04 0.6662300D+03
EXPONENTS  0.2531000D+03 0.1061200D+03 0.4724200D+02 0.2182500D+02 0.9968400D+01
EXPONENTS  0.1998200D+01 0.8676500D+04 0.2055900D+04 0.6662300D+03 0.2531000D+03
EXPONENTS  0.1061200D+03 0.4724200D+02 0.2182500D+02 0.9968400D+01 0.1998200D+01
EXPONENTS  0.8676500D+04 0.2055900D+04 0.6662300D+03 0.2531000D+03 0.1061200D+03
EXPONENTS  0.4724200D+02 0.2182500D+02 0.9968400D+01 0.1998200D+01 0.8676500D+04
EXPONENTS  0.6662300D+03 0.2531000D+03 0.1061200D+03 0.4724200D+02 0.2182500D+02
EXPONENTS  0.9968400D+01 0.4517100D+01 0.1998200D+01 0.8676500D+04 0.6662300D+03
EXPONENTS  0.2531000D+03 0.1061200D+03 0.4724200D+02 0.2182500D+02 0.9968400D+01
EXPONENTS  0.4517100D+01 0.1998200D+01 0.8676500D+04 0.6662300D+03 0.2531000D+03
EXPONENTS  0.1061200D+03 0.4724200D+02 0.2182500D+02 0.9968400D+01 0.4517100D+01
EXPONENTS  0.1998200D+01 0.6662300D+03 0.1061200D+03 0.4724200D+02 0.2182500D+02
EXPONENTS  0.9968400D+01 0.4517100D+01 0.1998200D+01 0.2814500D+00 0.6662300D+03
EXPONENTS  0.1061200D+03 0.4724200D+02 0.2182500D+02 0.9968400D+01 0.4517100D+01
EXPONENTS  0.1998200D+01 0.2814500D+00 0.6662300D+03 0.1061200D+03 0.4724200D+02
EXPONENTS  0.2182500D+02 0.9968400D+01 0.4517100D+01 0.1998200D+01 0.2814500D+00
EXPONENTS  0.7098800D+00 0.7098800D+00 0.7098800D+00 0.1020400D+00 0.1020400D+00
EXPONENTS  0.1020400D+00 0.3514200D-01 0.3514200D-01 0.3514200D-01 0.4038300D+03
EXPONENTS  0.1211700D+03 0.4634500D+02 0.1972100D+02 0.8862400D+01 0.3996200D+01
EXPONENTS  0.1763600D+01 0.4038300D+03 0.1211700D+03 0.4634500D+02 0.1972100D+02
EXPONENTS  0.8862400D+01 0.3996200D+01 0.1763600D+01 0.4038300D+03 0.1211700D+03
EXPONENTS  0.4634500D+02 0.1972100D+02 0.8862400D+01 0.3996200D+01 0.1763600D+01
EXPONENTS  0.4038300D+03 0.1211700D+03 0.4634500D+02 0.1972100D+02 0.8862400D+01
EXPONENTS  0.3996200D+01 0.1763600D+01 0.4038300D+03 0.1211700D+03 0.4634500D+02
EXPONENTS  0.1972100D+02 0.8862400D+01 0.3996200D+01 0.1763600D+01 0.4038300D+03
EXPONENTS  0.1211700D+03 0.4634500D+02 0.1972100D+02 0.8862400D+01 0.3996200D+01
EXPONENTS  0.1763600D+01 0.7061900D+00 0.7061900D+00 0.7061900D+00 0.7061900D+00
EXPONENTS  0.7061900D+00 0.7061900D+00 0.2639000D+00 0.2639000D+00 0.2639000D+00
EXPONENTS  0.2639000D+00 0.2639000D+00 0.2639000D+00 0.1047000D+00 0.1047000D+00
EXPONENTS  0.1047000D+00 0.1047000D+00 0.1047000D+00 0.1047000D+00 0.5515000D+00
EXPONENTS  0.5515000D+00 0.5515000D+00 0.5515000D+00 0.5515000D+00 0.5515000D+00
EXPONENTS  0.5515000D+00 0.5515000D+00 0.5515000D+00 0.5515000D+00 0.2580000D+00
EXPONENTS  0.2580000D+00 0.2580000D+00 0.2580000D+00 0.2580000D+00 0.2580000D+00
EXPONENTS  0.2580000D+00 0.2580000D+00 0.2580000D+00 0.2580000D+00 0.1063900D+08
EXPONENTS  0.1593400D+07 0.3626100D+06 0.1027000D+06 0.3350100D+05 0.1209300D+05
EXPONENTS  0.4715900D+04 0.1955600D+04 0.8526100D+03 0.3876700D+03 0.1826800D+03
EXPONENTS  0.8824500D+02 0.3926300D+02 0.9405700D+01 0.1899500D+01 0.3350100D+05
EXPONENTS  0.1209300D+05 0.4715900D+04 0.1955600D+04 0.8526100D+03 0.3876700D+03
EXPONENTS  0.1826800D+03 0.8824500D+02 0.3926300D+02 0.1923400D+02 0.9405700D+01
EXPONENTS  0.1899500D+01 0.4715900D+04 0.8526100D+03 0.3876700D+03 0.1826800D+03
EXPONENTS  0.8824500D+02 0.3926300D+02 0.1923400D+02 0.9405700D+01 0.4160100D+01
EXPONENTS  0.1899500D+01 0.4715900D+04 0.8526100D+03 0.3876700D+03 0.8824500D+02
EXPONENTS  0.3926300D+02 0.1923400D+02 0.9405700D+01 0.4160100D+01 0.1899500D+01
EXPONENTS  0.3011400D+00 0.6047200D+00 0.1251500D+00 0.4559300D-01 0.8676500D+04
EXPONENTS  0.2055900D+04 0.6662300D+03 0.2531000D+03 0.1061200D+03 0.4724200D+02
EXPONENTS  0.2182500D+02 0.9968400D+01 0.1998200D+01 0.8676500D+04 0.2055900D+04
EXPONENTS  0.6662300D+03 0.2531000D+03 0.1061200D+03 0.4724200D+02 0.2182500D+02
EXPONENTS  0.9968400D+01 0.1998200D+01 0.8676500D+04 0.2055900D+04 0.6662300D+03
EXPONENTS  0.2531000D+03 0.1061200D+03 0.4724200D+02 0.2182500D+02 0.9968400D+01
EXPONENTS  0.1998200D+01 0.8676500D+04 0.6662300D+03 0.2531000D+03 0.1061200D+03
EXPONENTS  0.4724200D+02 0.2182500D+02 0.9968400D+01 0.4517100D+01 0.1998200D+01
EXPONENTS  0.8676500D+04 0.6662300D+03 0.2531000D+03 0.1061200D+03 0.4724200D+02
EXPONENTS  0.2182500D+02 0.9968400D+01 0.4517100D+01 0.1998200D+01 0.8676500D+04
EXPONENTS  0.6662300D+03 0.2531000D+03 0.1061200D+03 0.4724200D+02 0.2182500D+02
EXPONENTS  0.9968400D+01 0.4517100D+01 0.1998200D+01 0.6662300D+03 0.1061200D+03
EXPONENTS  0.4724200D+02 0.2182500D+02 0.9968400D+01 0.4517100D+01 0.1998200D+01
EXPONENTS  0.2814500D+00 0.6662300D+03 0.1061200D+03 0.4724200D+02 0.2182500D+02
EXPONENTS  0.9968400D+01 0.4517100D+01 0.1998200D+01 0.2814500D+00 0.6662300D+03
EXPONENTS  0.1061200D+03 0.4724200D+02 0.2182500D+02 0.9968400D+01 0.4517100D+01
EXPONENTS  0.1998200D+01 0.2814500D+00 0.7098800D+00 0.7098800D+00 0.7098800D+00
EXPONENTS  0.1020400D+00 0.1020400D+00 0.1020400D+00 0.3514200D-01 0.3514200D-01
EXPONENTS  0.3514200D-01 0.4038300D+03 0.1211700D+03 0.4634500D+02 0.1972100D+02
EXPONENTS  0.8862400D+01 0.3996200D+01 0.1763600D+01 0.4038300D+03 0.1211700D+03
EXPONENTS  0.4634500D+02 0.1972100D+02 0.8862400D+01 0.3996200D+01 0.1763600D+01
EXPONENTS  0.4038300D+03 0.1211700D+03 0.4634500D+02 0.1972100D+02 0.8862400D+01
EXPONENTS  0.3996200D+01 0.1763600D+01 0.4038300D+03 0.1211700D+03 0.4634500D+02
EXPONENTS  0.1972100D+02 0.8862400D+01 0.3996200D+01 0.1763600D+01 0.4038300D+03
EXPONENTS  0.1211700D+03 0.4634500D+02 0.1972100D+02 0.8862400D+01 0.3996200D+01
EXPONENTS  0.1763600D+01 0.4038300D+03 0.1211700D+03 0.4634500D+02 0.1972100D+02
EXPONENTS  0.8862400D+01 0.3996200D+01 0.1763600D+01 0.7061900D+00 0.7061900D+00
EXPONENTS  0.7061900D+00 0.7061900D+00 0.7061900D+00 0.7061900D+00 0.2639000D+00
EXPONENTS  0.2639000D+00 0.2639000D+00 0.2639000D+00 0.2639000D+00 0.2639000D+00
EXPONENTS  0.1047000D+00 0.1047000D+00 0.1047000D+00 0.1047000D+00 0.1047000D+00
EXPONENTS  0.1047000D+00 0.5515000D+00 0.5515000D+00 0.5515000D+00 0.5515000D+00
EXPONENTS  0.5515000D+00 0.5515000D+00 0.5515000D+00 0.5515000D+00 0.5515000D+00
EXPONENTS  0.5515000D+00 0.2580000D+00 0.2580000D+00 0.2580000D+00 0.2580000D+00
EXPONENTS  0.2580000D+00 0.2580000D+00 0.2580000D+00 0.2580000D+00 0.2580000D+00
EXPONENTS  0.2580000D+00 0.1533000D+05 0.2299000D+04 0.5224000D+03 0.1473000D+03
EXPONENTS  0.4755000D+02 0.1676000D+02 0.6207000D+01 0.5224000D+03 0.1473000D+03
EXPONENTS  0.4755000D+02 0.1676000D+02 0.6207000D+01 0.6882000D+00 0.1752000D+01
EXPONENTS  0.2384000D+00 0.7376000D-01 0.3446000D+02 0.7749000D+01 0.2280000D+01
EXPONENTS  0.3446000D+02 0.7749000D+01 0.2280000D+01 0.3446000D+02 0.7749000D+01
EXPONENTS  0.2280000D+01 0.7156000D+00 0.7156000D+00 0.7156000D+00 0.2140000D+00
EXPONENTS  0.2140000D+00 0.2140000D+00 0.5974000D-01 0.5974000D-01 0.5974000D-01
EXPONENTS  0.2314000D+01 0.2314000D+01 0.2314000D+01 0.2314000D+01 0.2314000D+01
EXPONENTS  0.2314000D+01 0.6450000D+00 0.6450000D+00 0.6450000D+00 0.6450000D+00
EXPONENTS  0.6450000D+00 0.6450000D+00 0.2140000D+00 0.2140000D+00 0.2140000D+00
EXPONENTS  0.2140000D+00 0.2140000D+00 0.2140000D+00 0.1428000D+01 0.1428000D+01
EXPONENTS  0.1428000D+01 0.1428000D+01 0.1428000D+01 0.1428000D+01 0.1428000D+01
EXPONENTS  0.1428000D+01 0.1428000D+01 0.1428000D+01 0.5000000D+00 0.5000000D+00
EXPONENTS  0.5000000D+00 0.5000000D+00 0.5000000D+00 0.5000000D+00 0.5000000D+00
EXPONENTS  0.5000000D+00 0.5000000D+00 0.5000000D+00
MO    1     MO 0.0        OCC NO =    2.0000165  ORB. ENERGY =    0.000000
  0.12285935D+00  0.22903457D+00  0.38709963D+00  0.58188294D+00  0.71473898D+00
  0.60321448D+00  0.22682440D+00  0.29086184D-04  0.21740121D-03  0.81247795D-03
  0.22666870D-02  0.30367356D-02 -0.35858185D-02  0.94295967D-02 -0.19707124D-02
 -0.30570115D-03 -0.41163618D-13 -0.38593508D-13 -0.27480877D-13  0.77412920D-03
  0.72579533D-03  0.51680951D-03  0.36278493D-02  0.34013394D-02  0.24219563D-02
  0.27906546D-13  0.26267490D-03  0.19635617D-02  0.35890171D-14  0.57276990D-04
  0.38222528D-03  0.54287460D-15 -0.20435559D-05  0.48640773D-05 -0.98534714D-04
 -0.49394577D-03  0.59248048D-03  0.23732252D-13  0.11591506D-13 -0.18674150D-03
  0.33482156D-03 -0.31920090D-03 -0.15620656D-04  0.19099721D-13  0.45448500D-13
 -0.79978051D-04  0.30644784D-04 -0.18569798D-04 -0.12074987D-04 -0.85763143D-15
  0.46566365D-14 -0.16713616D-04 -0.97391772D-14 -0.76530008D-05  0.12310243D-03
 -0.35723886D-15  0.19432338D-04 -0.16539010D-03  0.29574770D-13  0.35266645D-05
 -0.20391720D-03  0.45823006D-14  0.65071390D-15  0.59251481D-05 -0.14143368D-04
 -0.59553775D-14 -0.68749647D-06  0.21422503D-05  0.40032358D-14 -0.17087948D-04
  0.40287854D-04 -0.83611854D-14 -0.38641927D-01 -0.72691286D-01 -0.12583233D+00
 -0.20626335D+00 -0.32311468D+00 -0.48566765D+00 -0.69413325D+00 -0.92146038D+00
 -0.10731072D+01 -0.98552479D+00 -0.57610395D+00 -0.15116632D+00 -0.85946448D-02
 -0.14996731D-03 -0.15095916D-04 -0.18334959D-02 -0.52965472D-02 -0.24275320D-01
 -0.71860235D-01 -0.20839677D+00 -0.43317194D+00 -0.61965760D+00 -0.17767563D+00
  0.71001560D+00  0.68651639D+00  0.14984270D+00 -0.21689277D-02 -0.11209279D-02
 -0.52293603D-02 -0.10612599D-01 -0.41592620D-01 -0.29186526D-01  0.19007371D+00
  0.58897316D+00  0.72044607D-01 -0.51485192D+00 -0.24161999D+00 -0.12251595D-05
 -0.16795964D-05  0.32201926D-05  0.68439682D-05 -0.25872115D-04 -0.83663847D-04
 -0.29097013D-04  0.28460048D-03  0.63480661D-03 -0.42123835D-03 -0.10031013D-01
  0.58189929D-03  0.14895065D-03  0.70414332D-08  0.10103406D-07  0.13377843D-07
  0.15449080D-07  0.14324210D-07  0.92761665D-08  0.32731807D-08  0.37714852D-09
 -0.61614481D-12  0.11389378D+02  0.16342057D+02  0.21638394D+02  0.24988578D+02
  0.23169125D+02  0.15004014D+02  0.52943045D+01  0.61003020D+00 -0.99660193D-03
  0.70398911D+01  0.10101193D+02  0.13374913D+02  0.15445696D+02  0.14321073D+02
  0.92741349D+01  0.32724639D+01  0.37706592D+00 -0.61600987D-03 -0.95131715D-11
  0.27123747D-10  0.13239450D-09  0.27434657D-09  0.34427787D-09  0.54596278D-10
 -0.44193842D-09 -0.38543438D-09 -0.99081642D-10 -0.67920905D-01  0.19365460D+00
  0.94525301D+00  0.19587440D+01  0.24580303D+01  0.38979941D+00 -0.31552945D+01
 -0.27518743D+01 -0.70741023D+00 -0.42053145D-01  0.11990101D+00  0.58525224D+00
  0.12127539D+01  0.15218865D+01  0.24134383D+00 -0.19535967D+01 -0.17038196D+01
 -0.43799218D+00  0.51023334D-14  0.72082648D-14 -0.33539680D-14  0.67213835D-14
  0.73785746D-14  0.19917086D-13  0.62763999D-14 -0.13475564D-13 -0.26585957D-03
 -0.37559016D-03  0.17476014D-03 -0.35022097D-03 -0.38446423D-03 -0.10377895D-02
 -0.32703488D-03  0.70215084D-03 -0.15466994D-03 -0.21850823D-03  0.10167074D-03
 -0.20374912D-03 -0.22367093D-03 -0.60375794D-03 -0.19026008D-03  0.40849243D-03
 -0.33604515D-11 -0.25056135D-01 -0.15642082D-01 -0.29536273D-13  0.11138090D-03
  0.57007981D-04  0.60886854D-15  0.88974075D-05  0.65962217D-05  0.11580101D+01
  0.12117328D+01  0.10324612D+01  0.67995374D+00  0.31337044D+00  0.93839284D-01
  0.15965959D-01 -0.14078512D+01 -0.14731646D+01 -0.12552150D+01 -0.82665400D+00
 -0.38098022D+00 -0.11408514D+00 -0.19410620D-01  0.24984109D+00  0.26143178D+00
  0.22275387D+00  0.14670026D+00  0.67609784D-01  0.20245859D-01  0.34446613D-02
 -0.11237130D-09 -0.11758446D-09 -0.10018825D-09 -0.65981537D-10 -0.30408926D-10
 -0.91060020D-11 -0.15493090D-11  0.64505772D-10  0.67498340D-10  0.57512198D-10
  0.37876131D-10  0.17455981D-10  0.52272217D-11  0.88936746D-12 -0.42530833D+01
 -0.44503934D+01 -0.37919734D+01 -0.24973011D+01 -0.11509317D+01 -0.34464837D+00
 -0.58638999D-01  0.12766236D-02 -0.15332294D-02  0.25660583D-03 -0.11545104D-12
  0.33991918D-13 -0.42954901D-02 -0.12404136D-03  0.11428228D-03  0.97590851D-05
  0.10882912D-13  0.72167054D-14  0.32457755D-03 -0.12952714D-04  0.14640198D-04
 -0.16874841D-05 -0.17094735D-16 -0.56902580D-15  0.30930554D-04  0.63352037D-14
 -0.44683934D-04  0.10560641D-03 -0.19170459D-13  0.23680482D-03  0.16245731D-03
  0.16484853D-15 -0.10275302D-03 -0.47927656D-03 -0.34021601D-13 -0.14529587D-14
  0.92332235D-05 -0.23379713D-04  0.44117081D-14 -0.73491219D-04 -0.58204418D-04
 -0.52832061D-16  0.45791548D-04  0.12834356D-03  0.74011341D-14 -0.30850466D-01
 -0.58034373D-01 -0.10046046D+00 -0.16467399D+00 -0.25796431D+00 -0.38774135D+00
 -0.55417355D+00 -0.73566418D+00 -0.85673409D+00 -0.78681114D+00 -0.45994278D+00
 -0.12068630D+00 -0.68616866D-02 -0.11972905D-03 -0.12052091D-04 -0.14639557D-02
 -0.42290305D-02 -0.19382640D-01 -0.57376837D-01 -0.16639450D+00 -0.34586633D+00
 -0.49476589D+00 -0.14186518D+00  0.56691227D+00  0.54814932D+00  0.11964197D+00
 -0.17317813D-02 -0.89629633D-03 -0.41814077D-02 -0.84858567D-02 -0.33257548D-01
 -0.23337609D-01  0.15198334D+00  0.47094421D+00  0.57607023D-01 -0.41167671D+00
 -0.19319986D+00 -0.97778615D-06 -0.13404672D-05  0.25699999D-05  0.54620948D-05
 -0.20648247D-04 -0.66771185D-04 -0.23222002D-04  0.22713647D-03  0.50663208D-03
 -0.33618563D-03 -0.80031852D-02  0.47289866D-03  0.15549695D-03  0.40227379D-08
  0.57720284D-08  0.76426989D-08  0.88259870D-08  0.81833544D-08  0.52994305D-08
  0.18699528D-08  0.21546318D-09 -0.35200065D-12 -0.83919207D+01 -0.12041154D+02
 -0.15943600D+02 -0.18412083D+02 -0.17071473D+02 -0.11055257D+02 -0.39009492D+01
 -0.44948242D+00  0.73431618D-03  0.53077570D+01  0.76158390D+01  0.10084075D+02
  0.11645351D+02  0.10797436D+02  0.69922750D+01  0.24672886D+01  0.28429051D+00
 -0.46444336D-03  0.44575691D-11 -0.12709324D-10 -0.62035843D-10 -0.12855006D-09
 -0.16131764D-09 -0.25582076D-10  0.20707826D-09  0.18060227D-09  0.46426501D-10
  0.49975180D-01 -0.14248814D+00 -0.69550294D+00 -0.14412143D+01 -0.18085817D+01
 -0.28680854D+00  0.23216182D+01  0.20247877D+01  0.52050180D+00 -0.31692181D-01
  0.90360053D-01  0.44105904D+00  0.91395820D+00  0.11469273D+01  0.18188205D+00
 -0.14722737D+01 -0.12840361D+01 -0.33008060D+00 -0.13901688D-13 -0.19639456D-13
  0.91381361D-14 -0.18312911D-13 -0.20103477D-13 -0.54265587D-13 -0.17100520D-13
  0.36715180D-13  0.24518445D-03  0.34638160D-03 -0.16116955D-03  0.32298530D-03
  0.35456557D-03  0.95708359D-03  0.30160233D-03 -0.64754661D-03 -0.12970775D-03
 -0.18324318D-03  0.85262093D-04 -0.17086604D-03 -0.18757266D-03 -0.50631741D-03
 -0.15955399D-03  0.34256582D-03  0.14983486D-11  0.18427727D-01 -0.11796754D-01
  0.21274303D-13 -0.13552093D-03  0.61987788D-04 -0.49903319D-15 -0.84253176D-05
  0.66569807D-05  0.84234122D+00  0.88141933D+00  0.75101644D+00  0.49460110D+00
  0.22794692D+00  0.68259075D-01  0.11613703D-01 -0.10055101D+01 -0.10521579D+01
 -0.89649488D+00 -0.59040966D+00 -0.27210223D+00 -0.81481454D-01 -0.13863379D-01
  0.16316885D+00  0.17073862D+00  0.14547844D+00  0.95808552D-01  0.44155309D-01
  0.13222379D-01  0.22496757D-02 -0.27580823D-10 -0.28860360D-10 -0.24590571D-10
 -0.16194750D-10 -0.74636782D-11 -0.22350105D-11 -0.38026809D-12  0.11251657D-09
  0.11773647D-09  0.10031777D-09  0.66066836D-10  0.30448238D-10  0.91177740D-11
  0.15513120D-11  0.31270831D+01  0.32721555D+01  0.27880516D+01  0.18361428D+01
  0.84622354D+00  0.25340301D+00  0.43114374D-01  0.95481001D-03 -0.11426926D-02
  0.18788258D-03 -0.24235383D-13  0.88618220D-13  0.32089328D-02 -0.10607213D-03
  0.10371978D-03  0.23523502D-05 -0.61089130D-15  0.29221612D-14 -0.27977080D-03
 -0.13836570D-04  0.15159000D-04 -0.13224303D-05 -0.18597967D-14  0.56929522D-15
 -0.26081034D-04 -0.23555321D-14  0.32090691D-04  0.74730510D-04  0.52850641D-14
 -0.17293917D-03  0.12463842D-03  0.17815323D-14  0.76667097D-04 -0.34882995D-03
 -0.16271571D-13 -0.39169728D-15 -0.94295159D-05 -0.17771380D-04  0.84078358D-15
  0.62273763D-04 -0.50108218D-04  0.33430827D-15 -0.33985216D-04  0.10342236D-03
 -0.43589329D-15 -0.35532260D-01 -0.66226289D-01 -0.11229598D+00 -0.16994803D+00
 -0.21199677D+00 -0.18192476D+00 -0.69667520D-01 -0.34686432D-05 -0.37216265D-04
 -0.13718616D-03 -0.40112428D-03 -0.48337427D-03  0.58227553D-03 -0.31554128D-02
  0.29584542D-03  0.68191992D-04  0.87008291D-13  0.84368774D-13  0.56914677D-13
 -0.37666081D-03 -0.36523429D-03 -0.24638489D-03  0.27725668D-02  0.26884572D-02
  0.18136173D-02  0.41715937D-14 -0.86531875D-04  0.61925572D-03 -0.31497372D-13
  0.95220072D-05  0.75501596D-04 -0.24175781D-14  0.38328457D-05  0.73651205D-05
  0.28504098D-03 -0.48977542D-04 -0.23606344D-03  0.29081970D-14 -0.67970371D-13
 -0.49342954D-04  0.31977912D-04  0.15246090D-03 -0.18443882D-03 -0.11803235D-14
  0.47684145D-13 -0.26440306D-04  0.21710220D-05  0.45162820D-04 -0.47333842D-04
  0.21849602D-14  0.15317776D-13 -0.92263625D-05 -0.32151034D-14 -0.68238352D-05
 -0.29130054D-03 -0.13575318D-13  0.17817438D-04  0.42862285D-03  0.23220628D-13
  0.26540680D-05  0.44527877D-03  0.34347776D-13  0.48940548D-14  0.16054840D-06
  0.79001690D-04  0.95331191D-14 -0.75022787D-05 -0.38921704D-04 -0.24215284D-13
  0.70206335D-05 -0.19808337D-03 -0.50135325D-14
MO    2     MO 0.0        OCC NO =    2.0000157  ORB. ENERGY =    0.000000
  0.16326808D-01  0.30436458D-01  0.51441761D-01  0.77326562D-01  0.94981831D-01
  0.80161315D-01  0.30142748D-01  0.37140362D-05  0.27760119D-04  0.10374590D-03
  0.28943492D-03  0.38776299D-03 -0.45787579D-03  0.12641085D-02 -0.25071344D-03
 -0.39243858D-04 -0.17828818D-12 -0.16715650D-12 -0.11902538D-12 -0.57585533D-02
 -0.53990098D-02 -0.38444166D-02  0.44417244D-03  0.41643990D-03  0.29653001D-03
 -0.45685564D-13 -0.19478361D-02  0.24930928D-03 -0.66613382D-14 -0.44778670D-03
  0.50088650D-04  0.22403286D-15  0.16055139D-04  0.57071729D-06 -0.14339563D-04
 -0.60764799D-04  0.75104362D-04 -0.11010363D-12  0.38882087D-13  0.14414529D-02
  0.44442638D-04 -0.40840904D-04 -0.36017339D-05 -0.86862455D-13  0.53253758D-13
  0.62536669D-03  0.40460812D-05 -0.23768505D-05 -0.16692307D-05  0.21208018D-14
  0.41292884D-14  0.13220507D-03 -0.49572872D-14  0.54941729D-04  0.16044686D-04
 -0.27120497D-14 -0.14419011D-03 -0.22594499D-04  0.17583911D-13 -0.20635078D-04
 -0.25539560D-04  0.15588017D-14  0.21468111D-14 -0.46131329D-04 -0.21458119D-05
 -0.77999964D-14  0.10055779D-04  0.15907490D-06  0.13595629D-14  0.12833821D-03
  0.62783607D-05  0.17442953D-13  0.26443223D-01  0.49743685D-01  0.86108860D-01
  0.14114895D+00  0.22111199D+00  0.33234931D+00  0.47500530D+00  0.63056850D+00
  0.73434257D+00  0.67440870D+00  0.39423617D+00  0.10344527D+00  0.58814382D-02
  0.10262477D-03  0.10330351D-04  0.12544416D-02  0.36237927D-02  0.16608693D-01
  0.49165350D-01  0.14258095D+00  0.29636766D+00  0.42395746D+00  0.12156215D+00
 -0.48577861D+00 -0.46970092D+00 -0.10251941D+00  0.14839374D-02  0.76263421D-03
  0.35578463D-02  0.72203851D-02  0.28297945D-01  0.19857338D-01 -0.12931850D+00
 -0.40071364D+00 -0.49016252D-01  0.35028454D+00  0.16438852D+00  0.83160191D-06
  0.11400602D-05 -0.21857712D-05 -0.46454825D-05  0.17561224D-04  0.56788536D-04
  0.19750189D-04 -0.19317836D-03 -0.43088789D-03  0.28592409D-03  0.68493210D-02
 -0.32790864D-03  0.48192304D-04  0.98500030D-08  0.14133284D-07  0.18713774D-07
  0.21611152D-07  0.20037613D-07  0.12976089D-07  0.45787326D-08  0.52757924D-09
 -0.86190240D-12 -0.10154988D+02 -0.14570892D+02 -0.19293208D+02 -0.22280297D+02
 -0.20658037D+02 -0.13377868D+02 -0.47205037D+01 -0.54391466D+00  0.88858945D-03
 -0.60078625D+01 -0.86203860D+01 -0.11414188D+02 -0.13181400D+02 -0.12221644D+02
 -0.79145724D+01 -0.27927297D+01 -0.32178910D+00  0.52570452D-03  0.18008554D-10
 -0.51345597D-10 -0.25062446D-09 -0.51934154D-09 -0.65172237D-09 -0.10335145D-09
  0.83659504D-09  0.72963217D-09  0.18756281D-09  0.60870403D-01 -0.17355236D+00
 -0.84713141D+00 -0.17554174D+01 -0.22028755D+01 -0.34933644D+00  0.28277604D+01
  0.24662171D+01  0.63397780D+00  0.35940158D-01 -0.10247179D+00 -0.50017800D+00
 -0.10364639D+01 -0.13006599D+01 -0.20626127D+00  0.16696153D+01  0.14561466D+01
  0.37432416D+00 -0.51807309D-13 -0.73190200D-13  0.34055018D-13 -0.68246577D-13
 -0.74919466D-13 -0.20223112D-12 -0.63728369D-13  0.13682616D-12  0.44889042D-04
  0.63416495D-04 -0.29507364D-04  0.59133036D-04  0.64914837D-04  0.17522549D-03
  0.55218182D-04 -0.11855461D-03  0.85290332D-04  0.12049297D-03 -0.56064749D-04
  0.11235429D-03  0.12333986D-03  0.33293293D-03  0.10491596D-03 -0.22525680D-03
  0.61462782D-11  0.22448942D-01  0.13312518D-01  0.75871898D-13  0.11449153D-03
  0.25115858D-04 -0.15704326D-14 -0.54070788D-06  0.99537181D-06 -0.10183225D+01
 -0.10655648D+01 -0.90791822D+00 -0.59793279D+00 -0.27556942D+00 -0.82519709D-01
 -0.14040029D-01  0.12406498D+01  0.12982063D+01  0.11061412D+01  0.72847763D+00
  0.33573365D+00  0.10053599D+00  0.17105346D-01 -0.22232725D+00 -0.23264152D+00
 -0.19822302D+00 -0.13054485D+00 -0.60164233D-01 -0.18016277D-01 -0.30653168D-02
  0.16830036D-09  0.17610820D-09  0.15005361D-09  0.98821646D-10  0.45543955D-10
  0.13638211D-10  0.23204260D-11  0.20326932D-09  0.21269944D-09  0.18123130D-09
  0.11935452D-09  0.55006943D-10  0.16471918D-10  0.28025572D-11  0.37014957D+01
  0.38732165D+01  0.33001877D+01  0.21734231D+01  0.10016660D+01  0.29995051D+00
  0.51034036D-01 -0.10314586D-02  0.11847902D-02 -0.15333165D-03  0.14575337D-12
  0.18049988D-12  0.35645010D-02  0.53401765D-04 -0.20459704D-04 -0.32942061D-04
 -0.65182750D-14 -0.10929268D-14 -0.13546706D-03 -0.56074823D-05  0.49440023D-05
  0.66347999D-06  0.34463917D-14  0.17543043D-14 -0.15268583D-04 -0.11419069D-13
  0.34823126D-04 -0.10081471D-03  0.30965576D-13 -0.20643230D-03 -0.12364917D-03
  0.32916299D-14  0.10196292D-03  0.42609331D-03  0.69166804D-13  0.92363518D-15
  0.43423653D-05  0.17777240D-04 -0.27606931D-14  0.31930629D-04  0.24420926D-04
 -0.10212429D-16 -0.44957725D-04 -0.77752645D-04 -0.66604846D-14 -0.35872011D-01
 -0.67480656D-01 -0.11681246D+00 -0.19147805D+00 -0.29995329D+00 -0.45085421D+00
 -0.64437665D+00 -0.85540860D+00 -0.99618512D+00 -0.91488078D+00 -0.53480789D+00
 -0.14033047D+00 -0.79785667D-02 -0.13921741D-03 -0.14013816D-04 -0.17020253D-02
 -0.49167589D-02 -0.22534661D-01 -0.66707506D-01 -0.19345371D+00 -0.40211140D+00
 -0.57522513D+00 -0.16493542D+00  0.65910402D+00  0.63728982D+00  0.13909824D+00
 -0.20134050D-02 -0.10368977D-02 -0.48373421D-02 -0.98170267D-02 -0.38474635D-01
 -0.26998563D-01  0.17582486D+00  0.54482087D+00  0.66643794D-01 -0.47625613D+00
 -0.22350698D+00 -0.11209221D-05 -0.15366952D-05  0.29462165D-05  0.62616788D-05
 -0.23670898D-04 -0.76545670D-04 -0.26621420D-04  0.26038648D-03  0.58079683D-03
 -0.38539911D-03 -0.92840822D-02  0.45376941D-03 -0.95080809D-05  0.70488518D-09
  0.10114050D-08  0.13391937D-08  0.15465356D-08  0.14339302D-08  0.92859394D-09
  0.32766292D-09  0.37754586D-10 -0.61679395D-13 -0.12613680D+02 -0.18098749D+02
 -0.23964416D+02 -0.27674729D+02 -0.25659693D+02 -0.16616873D+02 -0.58634165D+01
 -0.67560548D+00  0.11037318D-02  0.76264686D+01  0.10942844D+02  0.14489337D+02
  0.16732662D+02  0.15514333D+02  0.10046874D+02  0.35451320D+01  0.40848379D+00
 -0.66733701D-03 -0.42703488D-10  0.12175525D-09  0.59430304D-09  0.12315089D-08