 br2co-wavefunction
GAUSSIAN            210 MOL ORBITALS    578 PRIMITIVES        4 NUCLEI
  C    1    (CENTRE  1)   0.00000000  0.00000000 -0.92928983  CHARGE =  6.0
  Br   2    (CENTRE  2)   0.00000000 -3.01256550 -2.92306618  CHARGE = 35.0
  Br   3    (CENTRE  3)   0.00000000  3.01256550 -2.92306618  CHARGE = 35.0
  O    4    (CENTRE  4)   0.00000000  0.01889726  1.29351754  CHARGE =  8.0
CENTRE ASSIGNMENTS    1  1  1  1  1  1  1  1  1  1  1  1  1  1  1  1  1  1  1  1
CENTRE ASSIGNMENTS    1  1  1  1  1  1  1  1  1  1  1  1  1  1  1  1  1  1  1  1
CENTRE ASSIGNMENTS    1  1  1  1  1  1  1  1  1  1  1  1  1  1  1  1  1  1  1  1
CENTRE ASSIGNMENTS    1  1  1  1  1  1  1  1  1  1  1  1  2  2  2  2  2  2  2  2
CENTRE ASSIGNMENTS    2  2  2  2  2  2  2  2  2  2  2  2  2  2  2  2  2  2  2  2
CENTRE ASSIGNMENTS    2  2  2  2  2  2  2  2  2  2  2  2  2  2  2  2  2  2  2  2
CENTRE ASSIGNMENTS    2  2  2  2  2  2  2  2  2  2  2  2  2  2  2  2  2  2  2  2
CENTRE ASSIGNMENTS    2  2  2  2  2  2  2  2  2  2  2  2  2  2  2  2  2  2  2  2
CENTRE ASSIGNMENTS    2  2  2  2  2  2  2  2  2  2  2  2  2  2  2  2  2  2  2  2
CENTRE ASSIGNMENTS    2  2  2  2  2  2  2  2  2  2  2  2  2  2  2  2  2  2  2  2
CENTRE ASSIGNMENTS    2  2  2  2  2  2  2  2  2  2  2  2  2  2  2  2  2  2  2  2
CENTRE ASSIGNMENTS    2  2  2  2  2  2  2  2  2  2  2  2  2  2  2  2  2  2  2  2
CENTRE ASSIGNMENTS    2  2  2  2  2  2  2  2  2  2  2  2  2  2  2  2  2  2  2  2
CENTRE ASSIGNMENTS    2  2  2  2  2  2  2  2  2  2  2  2  2  2  2  2  2  2  2  2
CENTRE ASSIGNMENTS    2  2  2  2  2  2  2  2  2  3  3  3  3  3  3  3  3  3  3  3
CENTRE ASSIGNMENTS    3  3  3  3  3  3  3  3  3  3  3  3  3  3  3  3  3  3  3  3
CENTRE ASSIGNMENTS    3  3  3  3  3  3  3  3  3  3  3  3  3  3  3  3  3  3  3  3
CENTRE ASSIGNMENTS    3  3  3  3  3  3  3  3  3  3  3  3  3  3  3  3  3  3  3  3
CENTRE ASSIGNMENTS    3  3  3  3  3  3  3  3  3  3  3  3  3  3  3  3  3  3  3  3
CENTRE ASSIGNMENTS    3  3  3  3  3  3  3  3  3  3  3  3  3  3  3  3  3  3  3  3
CENTRE ASSIGNMENTS    3  3  3  3  3  3  3  3  3  3  3  3  3  3  3  3  3  3  3  3
CENTRE ASSIGNMENTS    3  3  3  3  3  3  3  3  3  3  3  3  3  3  3  3  3  3  3  3
CENTRE ASSIGNMENTS    3  3  3  3  3  3  3  3  3  3  3  3  3  3  3  3  3  3  3  3
CENTRE ASSIGNMENTS    3  3  3  3  3  3  3  3  3  3  3  3  3  3  3  3  3  3  3  3
CENTRE ASSIGNMENTS    3  3  3  3  3  3  3  3  3  3  3  3  3  3  3  3  3  3  3  3
CENTRE ASSIGNMENTS    3  3  3  3  3  3  4  4  4  4  4  4  4  4  4  4  4  4  4  4
CENTRE ASSIGNMENTS    4  4  4  4  4  4  4  4  4  4  4  4  4  4  4  4  4  4  4  4
CENTRE ASSIGNMENTS    4  4  4  4  4  4  4  4  4  4  4  4  4  4  4  4  4  4  4  4
CENTRE ASSIGNMENTS    4  4  4  4  4  4  4  4  4  4  4  4  4  4  4  4  4  4
TYPE ASSIGNMENTS      1  1  1  1  1  1  1  1  1  1  1  1  1  1  1  1  2  2  2  3
TYPE ASSIGNMENTS      3  3  4  4  4  2  3  4  2  3  4  2  3  4  5  6  7  8  9 10
TYPE ASSIGNMENTS      5  6  7  8  9 10  5  6  7  8  9 10 11 12 13 17 14 15 18 19
TYPE ASSIGNMENTS     16 20 11 12 13 17 14 15 18 19 16 20  1  1  1  1  1  1  1  1
TYPE ASSIGNMENTS      1  1  1  1  1  1  1  1  1  1  1  1  1  1  1  1  1  1  1  1
TYPE ASSIGNMENTS      1  1  1  1  1  1  1  1  1  1  1  1  1  1  1  1  1  1  1  1
TYPE ASSIGNMENTS      1  1  2  2  2  2  2  2  2  2  2  3  3  3  3  3  3  3  3  3
TYPE ASSIGNMENTS      4  4  4  4  4  4  4  4  4  2  2  2  2  2  2  2  2  2  3  3
TYPE ASSIGNMENTS      3  3  3  3  3  3  3  4  4  4  4  4  4  4  4  4  2  2  2  2
TYPE ASSIGNMENTS      2  2  2  2  3  3  3  3  3  3  3  3  4  4  4  4  4  4  4  4
TYPE ASSIGNMENTS      2  3  4  2  3  4  2  3  4  5  5  5  5  5  5  5  6  6  6  6
TYPE ASSIGNMENTS      6  6  6  7  7  7  7  7  7  7  8  8  8  8  8  8  8  9  9  9
TYPE ASSIGNMENTS      9  9  9  9 10 10 10 10 10 10 10  5  6  7  8  9 10  5  6  7
TYPE ASSIGNMENTS      8  9 10  5  6  7  8  9 10 11 12 13 17 14 15 18 19 16 20 11
TYPE ASSIGNMENTS     12 13 17 14 15 18 19 16 20  1  1  1  1  1  1  1  1  1  1  1
TYPE ASSIGNMENTS      1  1  1  1  1  1  1  1  1  1  1  1  1  1  1  1  1  1  1  1
TYPE ASSIGNMENTS      1  1  1  1  1  1  1  1  1  1  1  1  1  1  1  1  1  1  1  2
TYPE ASSIGNMENTS      2  2  2  2  2  2  2  2  3  3  3  3  3  3  3  3  3  4  4  4
TYPE ASSIGNMENTS      4  4  4  4  4  4  2  2  2  2  2  2  2  2  2  3  3  3  3  3
TYPE ASSIGNMENTS      3  3  3  3  4  4  4  4  4  4  4  4  4  2  2  2  2  2  2  2
TYPE ASSIGNMENTS      2  3  3  3  3  3  3  3  3  4  4  4  4  4  4  4  4  2  3  4
TYPE ASSIGNMENTS      2  3  4  2  3  4  5  5  5  5  5  5  5  6  6  6  6  6  6  6
TYPE ASSIGNMENTS      7  7  7  7  7  7  7  8  8  8  8  8  8  8  9  9  9  9  9  9
TYPE ASSIGNMENTS      9 10 10 10 10 10 10 10  5  6  7  8  9 10  5  6  7  8  9 10
TYPE ASSIGNMENTS      5  6  7  8  9 10 11 12 13 17 14 15 18 19 16 20 11 12 13 17
TYPE ASSIGNMENTS     14 15 18 19 16 20  1  1  1  1  1  1  1  1  1  1  1  1  1  1
TYPE ASSIGNMENTS      1  1  2  2  2  3  3  3  4  4  4  2  3  4  2  3  4  2  3  4
TYPE ASSIGNMENTS      5  6  7  8  9 10  5  6  7  8  9 10  5  6  7  8  9 10 11 12
TYPE ASSIGNMENTS     13 17 14 15 18 19 16 20 11 12 13 17 14 15 18 19 16 20
EXPONENTS  0.8236000D+04 0.1235000D+04 0.2808000D+03 0.7927000D+02 0.2559000D+02
EXPONENTS  0.8997000D+01 0.3319000D+01 0.2808000D+03 0.7927000D+02 0.2559000D+02
EXPONENTS  0.8997000D+01 0.3319000D+01 0.3643000D+00 0.9059000D+00 0.1285000D+00
EXPONENTS  0.4402000D-01 0.1871000D+02 0.4133000D+01 0.1200000D+01 0.1871000D+02
EXPONENTS  0.4133000D+01 0.1200000D+01 0.1871000D+02 0.4133000D+01 0.1200000D+01
EXPONENTS  0.3827000D+00 0.3827000D+00 0.3827000D+00 0.1209000D+00 0.1209000D+00
EXPONENTS  0.1209000D+00 0.3569000D-01 0.3569000D-01 0.3569000D-01 0.1097000D+01
EXPONENTS  0.1097000D+01 0.1097000D+01 0.1097000D+01 0.1097000D+01 0.1097000D+01
EXPONENTS  0.3180000D+00 0.3180000D+00 0.3180000D+00 0.3180000D+00 0.3180000D+00
EXPONENTS  0.3180000D+00 0.1000000D+00 0.1000000D+00 0.1000000D+00 0.1000000D+00
EXPONENTS  0.1000000D+00 0.1000000D+00 0.7610000D+00 0.7610000D+00 0.7610000D+00
EXPONENTS  0.7610000D+00 0.7610000D+00 0.7610000D+00 0.7610000D+00 0.7610000D+00
EXPONENTS  0.7610000D+00 0.7610000D+00 0.2680000D+00 0.2680000D+00 0.2680000D+00
EXPONENTS  0.2680000D+00 0.2680000D+00 0.2680000D+00 0.2680000D+00 0.2680000D+00
EXPONENTS  0.2680000D+00 0.2680000D+00 0.1063900D+08 0.1593400D+07 0.3626100D+06
EXPONENTS  0.1027000D+06 0.3350100D+05 0.1209300D+05 0.4715900D+04 0.1955600D+04
EXPONENTS  0.8526100D+03 0.3876700D+03 0.1826800D+03 0.8824500D+02 0.3926300D+02
EXPONENTS  0.9405700D+01 0.1899500D+01 0.3350100D+05 0.1209300D+05 0.4715900D+04
EXPONENTS  0.1955600D+04 0.8526100D+03 0.3876700D+03 0.1826800D+03 0.8824500D+02
EXPONENTS  0.3926300D+02 0.1923400D+02 0.9405700D+01 0.1899500D+01 0.4715900D+04
EXPONENTS  0.8526100D+03 0.3876700D+03 0.1826800D+03 0.8824500D+02 0.3926300D+02
EXPONENTS  0.1923400D+02 0.9405700D+01 0.4160100D+01 0.1899500D+01 0.4715900D+04
EXPONENTS  0.8526100D+03 0.3876700D+03 0.8824500D+02 0.3926300D+02 0.1923400D+02
EXPONENTS  0.9405700D+01 0.4160100D+01 0.1899500D+01 0.3011400D+00 0.6047200D+00
EXPONENTS  0.1251500D+00 0.4559300D-01 0.8676500D+04 0.2055900D+04 0.6662300D+03
EXPONENTS  0.2531000D+03 0.1061200D+03 0.4724200D+02 0.2182500D+02 0.9968400D+01
EXPONENTS  0.1998200D+01 0.8676500D+04 0.2055900D+04 0.6662300D+03 0.2531000D+03
EXPONENTS  0.1061200D+03 0.4724200D+02 0.2182500D+02 0.9968400D+01 0.1998200D+01
EXPONENTS  0.8676500D+04 0.2055900D+04 0.6662300D+03 0.2531000D+03 0.1061200D+03
EXPONENTS  0.4724200D+02 0.2182500D+02 0.9968400D+01 0.1998200D+01 0.8676500D+04
EXPONENTS  0.6662300D+03 0.2531000D+03 0.1061200D+03 0.4724200D+02 0.2182500D+02
EXPONENTS  0.9968400D+01 0.4517100D+01 0.1998200D+01 0.8676500D+04 0.6662300D+03
EXPONENTS  0.2531000D+03 0.1061200D+03 0.4724200D+02 0.2182500D+02 0.9968400D+01
EXPONENTS  0.4517100D+01 0.1998200D+01 0.8676500D+04 0.6662300D+03 0.2531000D+03
EXPONENTS  0.1061200D+03 0.4724200D+02 0.2182500D+02 0.9968400D+01 0.4517100D+01
EXPONENTS  0.1998200D+01 0.6662300D+03 0.1061200D+03 0.4724200D+02 0.2182500D+02
EXPONENTS  0.9968400D+01 0.4517100D+01 0.1998200D+01 0.2814500D+00 0.6662300D+03
EXPONENTS  0.1061200D+03 0.4724200D+02 0.2182500D+02 0.9968400D+01 0.4517100D+01
EXPONENTS  0.1998200D+01 0.2814500D+00 0.6662300D+03 0.1061200D+03 0.4724200D+02
EXPONENTS  0.2182500D+02 0.9968400D+01 0.4517100D+01 0.1998200D+01 0.2814500D+00
EXPONENTS  0.7098800D+00 0.7098800D+00 0.7098800D+00 0.1020400D+00 0.1020400D+00
EXPONENTS  0.1020400D+00 0.3514200D-01 0.3514200D-01 0.3514200D-01 0.4038300D+03
EXPONENTS  0.1211700D+03 0.4634500D+02 0.1972100D+02 0.8862400D+01 0.3996200D+01
EXPONENTS  0.1763600D+01 0.4038300D+03 0.1211700D+03 0.4634500D+02 0.1972100D+02
EXPONENTS  0.8862400D+01 0.3996200D+01 0.1763600D+01 0.4038300D+03 0.1211700D+03
EXPONENTS  0.4634500D+02 0.1972100D+02 0.8862400D+01 0.3996200D+01 0.1763600D+01
EXPONENTS  0.4038300D+03 0.1211700D+03 0.4634500D+02 0.1972100D+02 0.8862400D+01
EXPONENTS  0.3996200D+01 0.1763600D+01 0.4038300D+03 0.1211700D+03 0.4634500D+02
EXPONENTS  0.1972100D+02 0.8862400D+01 0.3996200D+01 0.1763600D+01 0.4038300D+03
EXPONENTS  0.1211700D+03 0.4634500D+02 0.1972100D+02 0.8862400D+01 0.3996200D+01
EXPONENTS  0.1763600D+01 0.7061900D+00 0.7061900D+00 0.7061900D+00 0.7061900D+00
EXPONENTS  0.7061900D+00 0.7061900D+00 0.2639000D+00 0.2639000D+00 0.2639000D+00
EXPONENTS  0.2639000D+00 0.2639000D+00 0.2639000D+00 0.1047000D+00 0.1047000D+00
EXPONENTS  0.1047000D+00 0.1047000D+00 0.1047000D+00 0.1047000D+00 0.5515000D+00
EXPONENTS  0.5515000D+00 0.5515000D+00 0.5515000D+00 0.5515000D+00 0.5515000D+00
EXPONENTS  0.5515000D+00 0.5515000D+00 0.5515000D+00 0.5515000D+00 0.2580000D+00
EXPONENTS  0.2580000D+00 0.2580000D+00 0.2580000D+00 0.2580000D+00 0.2580000D+00
EXPONENTS  0.2580000D+00 0.2580000D+00 0.2580000D+00 0.2580000D+00 0.1063900D+08
EXPONENTS  0.1593400D+07 0.3626100D+06 0.1027000D+06 0.3350100D+05 0.1209300D+05
EXPONENTS  0.4715900D+04 0.1955600D+04 0.8526100D+03 0.3876700D+03 0.1826800D+03
EXPONENTS  0.8824500D+02 0.3926300D+02 0.9405700D+01 0.1899500D+01 0.3350100D+05
EXPONENTS  0.1209300D+05 0.4715900D+04 0.1955600D+04 0.8526100D+03 0.3876700D+03
EXPONENTS  0.1826800D+03 0.8824500D+02 0.3926300D+02 0.1923400D+02 0.9405700D+01
EXPONENTS  0.1899500D+01 0.4715900D+04 0.8526100D+03 0.3876700D+03 0.1826800D+03
EXPONENTS  0.8824500D+02 0.3926300D+02 0.1923400D+02 0.9405700D+01 0.4160100D+01
EXPONENTS  0.1899500D+01 0.4715900D+04 0.8526100D+03 0.3876700D+03 0.8824500D+02
EXPONENTS  0.3926300D+02 0.1923400D+02 0.9405700D+01 0.4160100D+01 0.1899500D+01
EXPONENTS  0.3011400D+00 0.6047200D+00 0.1251500D+00 0.4559300D-01 0.8676500D+04
EXPONENTS  0.2055900D+04 0.6662300D+03 0.2531000D+03 0.1061200D+03 0.4724200D+02
EXPONENTS  0.2182500D+02 0.9968400D+01 0.1998200D+01 0.8676500D+04 0.2055900D+04
EXPONENTS  0.6662300D+03 0.2531000D+03 0.1061200D+03 0.4724200D+02 0.2182500D+02
EXPONENTS  0.9968400D+01 0.1998200D+01 0.8676500D+04 0.2055900D+04 0.6662300D+03
EXPONENTS  0.2531000D+03 0.1061200D+03 0.4724200D+02 0.2182500D+02 0.9968400D+01
EXPONENTS  0.1998200D+01 0.8676500D+04 0.6662300D+03 0.2531000D+03 0.1061200D+03
EXPONENTS  0.4724200D+02 0.2182500D+02 0.9968400D+01 0.4517100D+01 0.1998200D+01
EXPONENTS  0.8676500D+04 0.6662300D+03 0.2531000D+03 0.1061200D+03 0.4724200D+02
EXPONENTS  0.2182500D+02 0.9968400D+01 0.4517100D+01 0.1998200D+01 0.8676500D+04
EXPONENTS  0.6662300D+03 0.2531000D+03 0.1061200D+03 0.4724200D+02 0.2182500D+02
EXPONENTS  0.9968400D+01 0.4517100D+01 0.1998200D+01 0.6662300D+03 0.1061200D+03
EXPONENTS  0.4724200D+02 0.2182500D+02 0.9968400D+01 0.4517100D+01 0.1998200D+01
EXPONENTS  0.2814500D+00 0.6662300D+03 0.1061200D+03 0.4724200D+02 0.2182500D+02
EXPONENTS  0.9968400D+01 0.4517100D+01 0.1998200D+01 0.2814500D+00 0.6662300D+03
EXPONENTS  0.1061200D+03 0.4724200D+02 0.2182500D+02 0.9968400D+01 0.4517100D+01
EXPONENTS  0.1998200D+01 0.2814500D+00 0.7098800D+00 0.7098800D+00 0.7098800D+00
EXPONENTS  0.1020400D+00 0.1020400D+00 0.1020400D+00 0.3514200D-01 0.3514200D-01
EXPONENTS  0.3514200D-01 0.4038300D+03 0.1211700D+03 0.4634500D+02 0.1972100D+02
EXPONENTS  0.8862400D+01 0.3996200D+01 0.1763600D+01 0.4038300D+03 0.1211700D+03
EXPONENTS  0.4634500D+02 0.1972100D+02 0.8862400D+01 0.3996200D+01 0.1763600D+01
EXPONENTS  0.4038300D+03 0.1211700D+03 0.4634500D+02 0.1972100D+02 0.8862400D+01
EXPONENTS  0.3996200D+01 0.1763600D+01 0.4038300D+03 0.1211700D+03 0.4634500D+02
EXPONENTS  0.1972100D+02 0.8862400D+01 0.3996200D+01 0.1763600D+01 0.4038300D+03
EXPONENTS  0.1211700D+03 0.4634500D+02 0.1972100D+02 0.8862400D+01 0.3996200D+01
EXPONENTS  0.1763600D+01 0.4038300D+03 0.1211700D+03 0.4634500D+02 0.1972100D+02
EXPONENTS  0.8862400D+01 0.3996200D+01 0.1763600D+01 0.7061900D+00 0.7061900D+00
EXPONENTS  0.7061900D+00 0.7061900D+00 0.7061900D+00 0.7061900D+00 0.2639000D+00
EXPONENTS  0.2639000D+00 0.2639000D+00 0.2639000D+00 0.2639000D+00 0.2639000D+00
EXPONENTS  0.1047000D+00 0.1047000D+00 0.1047000D+00 0.1047000D+00 0.1047000D+00
EXPONENTS  0.1047000D+00 0.5515000D+00 0.5515000D+00 0.5515000D+00 0.5515000D+00
EXPONENTS  0.5515000D+00 0.5515000D+00 0.5515000D+00 0.5515000D+00 0.5515000D+00
EXPONENTS  0.5515000D+00 0.2580000D+00 0.2580000D+00 0.2580000D+00 0.2580000D+00
EXPONENTS  0.2580000D+00 0.2580000D+00 0.2580000D+00 0.2580000D+00 0.2580000D+00
EXPONENTS  0.2580000D+00 0.1533000D+05 0.2299000D+04 0.5224000D+03 0.1473000D+03
EXPONENTS  0.4755000D+02 0.1676000D+02 0.6207000D+01 0.5224000D+03 0.1473000D+03
EXPONENTS  0.4755000D+02 0.1676000D+02 0.6207000D+01 0.6882000D+00 0.1752000D+01
EXPONENTS  0.2384000D+00 0.7376000D-01 0.3446000D+02 0.7749000D+01 0.2280000D+01
EXPONENTS  0.3446000D+02 0.7749000D+01 0.2280000D+01 0.3446000D+02 0.7749000D+01
EXPONENTS  0.2280000D+01 0.7156000D+00 0.7156000D+00 0.7156000D+00 0.2140000D+00
EXPONENTS  0.2140000D+00 0.2140000D+00 0.5974000D-01 0.5974000D-01 0.5974000D-01
EXPONENTS  0.2314000D+01 0.2314000D+01 0.2314000D+01 0.2314000D+01 0.2314000D+01
EXPONENTS  0.2314000D+01 0.6450000D+00 0.6450000D+00 0.6450000D+00 0.6450000D+00
EXPONENTS  0.6450000D+00 0.6450000D+00 0.2140000D+00 0.2140000D+00 0.2140000D+00
EXPONENTS  0.2140000D+00 0.2140000D+00 0.2140000D+00 0.1428000D+01 0.1428000D+01
EXPONENTS  0.1428000D+01 0.1428000D+01 0.1428000D+01 0.1428000D+01 0.1428000D+01
EXPONENTS  0.1428000D+01 0.1428000D+01 0.1428000D+01 0.5000000D+00 0.5000000D+00
EXPONENTS  0.5000000D+00 0.5000000D+00 0.5000000D+00 0.5000000D+00 0.5000000D+00
EXPONENTS  0.5000000D+00 0.5000000D+00 0.5000000D+00
MO    1     MO 0.0        OCC NO =    2.0000166  ORB. ENERGY =    0.000000
  0.12313140D+00  0.22954174D+00  0.38795681D+00  0.58317144D+00  0.71632167D+00
  0.60455022D+00  0.22732667D+00  0.29316215D-04  0.21912055D-03  0.81890351D-03
  0.22846133D-02  0.30607520D-02 -0.36141773D-02  0.94431392D-02 -0.19933897D-02
 -0.30920363D-03 -0.81027991D-13 -0.75968892D-13 -0.54094377D-13  0.11296096D-03
  0.10590808D-03  0.75412865D-04  0.36713915D-02  0.34421629D-02  0.24510250D-02
 -0.38693230D-13  0.44888954D-04  0.19859971D-02 -0.85305266D-14  0.90286896D-05
  0.38472732D-03 -0.24003662D-16 -0.49143793D-06  0.48938936D-05 -0.97155680D-04
 -0.49927596D-03  0.59643164D-03 -0.71276456D-14  0.25351446D-13 -0.88711556D-05
  0.33691385D-03 -0.32303712D-03 -0.13876730D-04  0.71692295D-14  0.10206059D-13
 -0.15089812D-04  0.30926141D-04 -0.18835775D-04 -0.12090366D-04 -0.11625783D-14
  0.10158865D-14 -0.31427922D-05 -0.11592693D-14 -0.23650113D-05  0.12398580D-03
  0.29932807D-14  0.59550386D-06 -0.16598601D-03  0.48452732D-15  0.64995300D-05
 -0.20597138D-03  0.40534904D-14  0.15514727D-14  0.13291025D-05 -0.14088850D-04
 -0.29938979D-14  0.18819406D-06  0.25114868D-05 -0.16605203D-14 -0.41755015D-05
  0.39755062D-04 -0.48162119D-14 -0.35363161D-01 -0.66523433D-01 -0.11515546D+00
 -0.18876191D+00 -0.29569841D+00 -0.44445877D+00 -0.63523607D+00 -0.84327450D+00
 -0.98205407D+00 -0.90190305D+00 -0.52722155D+00 -0.13833986D+00 -0.78653895D-02
 -0.13724259D-03 -0.13815028D-04 -0.16778999D-02 -0.48470661D-02 -0.22215243D-01
 -0.65761957D-01 -0.19071159D+00 -0.39641165D+00 -0.56707157D+00 -0.16259753D+00
  0.64976152D+00  0.62825652D+00  0.13712659D+00 -0.19848659D-02 -0.10261098D-02
 -0.47870147D-02 -0.97148910D-02 -0.38074348D-01 -0.26717671D-01  0.17399559D+00
  0.53915259D+00  0.65950436D-01 -0.47130119D+00 -0.22118163D+00 -0.11235916D-05
 -0.15403549D-05  0.29532330D-05  0.62765912D-05 -0.23727271D-04 -0.76727966D-04
 -0.26684820D-04  0.26100660D-03  0.58218002D-03 -0.38631695D-03 -0.91845981D-02
  0.54959801D-03  0.15324483D-03  0.51555608D-08  0.73974603D-08  0.97949210D-08
  0.11311429D-07  0.10487828D-07  0.67917765D-08  0.23965408D-08  0.27613869D-09
 -0.45112578D-12  0.10213402D+02  0.14654708D+02  0.19404187D+02  0.22408459D+02
  0.20776867D+02  0.13454820D+02  0.47476572D+01  0.54704339D+00 -0.89370084D-03
  0.63698480D+01  0.91397810D+01  0.12101915D+02  0.13975605D+02  0.12958021D+02
  0.83914408D+01  0.29609971D+01  0.34117752D+00 -0.55737924D-03 -0.77597634D-11
  0.22124468D-10  0.10799237D-09  0.22378073D-09  0.28082273D-09  0.44533434D-10
 -0.36048310D-09 -0.31439353D-09 -0.80819536D-10 -0.60874117D-01  0.17356295D+00
  0.84718309D+00  0.17555244D+01  0.22030099D+01  0.34935775D+00 -0.28279329D+01
 -0.24663675D+01 -0.63401648D+00 -0.38046529D-01  0.10847743D+00  0.52949230D+00
  0.10972087D+01  0.13768887D+01  0.21834978D+00 -0.17674677D+01 -0.15414881D+01
 -0.39626245D+00  0.23029962D-14  0.32535323D-14 -0.15138516D-14  0.30337728D-14
  0.33304035D-14  0.89898030D-14  0.28329244D-14 -0.60823490D-14 -0.26032735D-03
 -0.36777457D-03  0.17112359D-03 -0.34293328D-03 -0.37646399D-03 -0.10161943D-02
 -0.32022967D-03  0.68753991D-03 -0.14505405D-03 -0.20492349D-03  0.95349831D-04
 -0.19108196D-03 -0.20976522D-03 -0.56622209D-03 -0.17843154D-03  0.38309631D-03
 -0.27206043D-11 -0.22456256D-01 -0.14157463D-01 -0.23191618D-13  0.12443085D-03
  0.59522574D-04  0.49385722D-15  0.88112367D-05  0.66535727D-05  0.10449480D+01
  0.10934254D+01  0.93165700D+00  0.61356657D+00  0.28277456D+00  0.84677301D-01
  0.14407125D-01 -0.12634361D+01 -0.13220497D+01 -0.11264571D+01 -0.74185717D+00
 -0.34189988D+00 -0.10238247D+00 -0.17419510D-01  0.21848811D+00  0.22862427D+00
  0.19480011D+00  0.12829060D+00  0.59125318D-01  0.17705172D-01  0.30123849D-02
  0.87936077D-10  0.92015630D-10  0.78402241D-10  0.51633803D-10  0.23796483D-10
  0.71258952D-11  0.12124107D-11 -0.85891284D-10 -0.89875974D-10 -0.76579140D-10
 -0.50433153D-10 -0.23243139D-10 -0.69601955D-11 -0.11842183D-11 -0.38327968D+01
 -0.40106089D+01 -0.34172534D+01 -0.22505197D+01 -0.10371975D+01 -0.31059048D+00
 -0.52844337D-01  0.11602786D-02 -0.13941048D-02  0.23382627D-03  0.45376731D-13
 -0.81381369D-13 -0.38880179D-02 -0.11769396D-03  0.11118938D-03  0.65045797D-05
  0.62148549D-14  0.41934377D-14  0.30909009D-03 -0.13536578D-04  0.15149440D-04
 -0.16128614D-05 -0.24321661D-15 -0.38417188D-15  0.29187949D-04  0.47949818D-14
 -0.40377123D-04  0.93668889D-04 -0.15217410D-13  0.21291706D-03  0.14827089D-03
  0.83246462D-15 -0.91785688D-04 -0.42927755D-03 -0.29734273D-13 -0.88587587D-15
  0.95593955D-05 -0.21252278D-04  0.27068708D-14 -0.69690465D-04 -0.55379286D-04
 -0.49243170D-16  0.41012279D-04  0.11913612D-03  0.47364063D-14 -0.34401174D-01
 -0.64713789D-01 -0.11202287D+00 -0.18362700D+00 -0.28765449D+00 -0.43236811D+00
 -0.61795567D+00 -0.82033481D+00 -0.95533915D+00 -0.87736849D+00 -0.51287949D+00
 -0.13457659D+00 -0.76514265D-02 -0.13350916D-03 -0.13439216D-04 -0.16323121D-02
 -0.47153733D-02 -0.21611664D-01 -0.63975232D-01 -0.18553004D+00 -0.38564131D+00
 -0.55166448D+00 -0.15817983D+00  0.63210777D+00  0.61118706D+00  0.13340092D+00
 -0.19309379D-02 -0.99854643D-03 -0.46584256D-02 -0.94539291D-02 -0.37051592D-01
 -0.25999980D-01  0.16932171D+00  0.52466984D+00  0.64178872D-01 -0.45864107D+00
 -0.21524024D+00 -0.10944694D-05 -0.15004307D-05  0.28766886D-05  0.61139092D-05
 -0.23112287D-04 -0.74739266D-04 -0.25993180D-04  0.25424161D-03  0.56709059D-03
 -0.37630406D-03 -0.89304498D-02  0.52582162D-03  0.15494916D-03 -0.29616612D-08
 -0.42495418D-08 -0.56267860D-08 -0.64979584D-08 -0.60248329D-08 -0.39016009D-08
 -0.13767158D-08 -0.15863051D-09  0.25915351D-12 -0.98087015D+01 -0.14074023D+02
 -0.18635306D+02 -0.21520535D+02 -0.19953595D+02 -0.12921680D+02 -0.45595338D+01
 -0.52536708D+00  0.85828840D-03  0.60852199D+01  0.87313822D+01  0.11561157D+02
  0.13351124D+02  0.12379010D+02  0.80164805D+01  0.28286889D+01  0.32593246D+00
 -0.53247350D-03 -0.48067585D-11  0.13704925D-10  0.66895500D-10  0.13862020D-09
  0.17395466D-09  0.27586081D-10 -0.22330001D-09 -0.19474998D-09 -0.50063381D-10
  0.58453810D-01 -0.16666223D+00 -0.81349975D+00 -0.16857262D+01 -0.21154200D+01
 -0.33546756D+00  0.27154965D+01  0.23683067D+01  0.60880848D+00 -0.36343290D-01
  0.10362120D+00  0.50578838D+00  0.10480897D+01  0.13152491D+01  0.20857486D+00
 -0.16883430D+01 -0.14724799D+01 -0.37852286D+00  0.87695417D-14  0.12389072D-13
 -0.57645707D-14  0.11552254D-13  0.12681789D-13  0.34232124D-13  0.10787447D-13
 -0.23160877D-13  0.25601903D-03  0.36168804D-03 -0.16829156D-03  0.33725787D-03
  0.37023365D-03  0.99937667D-03  0.31492999D-03 -0.67616139D-03 -0.14040422D-03
 -0.19835449D-03  0.92293310D-04 -0.18495666D-03 -0.20304102D-03 -0.54807135D-03
 -0.17271176D-03  0.37081582D-03 -0.16010564D-11  0.21559321D-01 -0.13520944D-01
 -0.10775356D-13 -0.12605253D-03  0.60473395D-04  0.21948609D-15 -0.87355931D-05
  0.66862829D-05  0.99786031D+00  0.10441533D+01  0.88967449D+00  0.58591791D+00
  0.27003212D+00  0.80861556D-01  0.13757908D-01 -0.12247701D+01 -0.12815900D+01
 -0.10919833D+01 -0.71915353D+00 -0.33143645D+00 -0.99249182D-01 -0.16886407D-01
  0.22690983D+00  0.23743669D+00  0.20230877D+00  0.13323562D+00  0.61404330D-01
  0.18387626D-01  0.31284987D-02 -0.25688966D-09 -0.26880735D-09 -0.22903825D-09
 -0.15083900D-09 -0.69517206D-10 -0.20817040D-10 -0.35418428D-11 -0.22262021D-09
 -0.23294806D-09 -0.19848422D-09 -0.13071686D-09 -0.60243510D-10 -0.18040017D-10
 -0.30693559D-11  0.36661254D+01  0.38362052D+01  0.32686522D+01  0.21526546D+01
  0.99209440D+00  0.29708427D+00  0.50546371D-01  0.11133914D-02 -0.13543875D-02
  0.24099611D-03 -0.19329452D-12 -0.18264074D-12  0.37283031D-02 -0.11475725D-03
  0.10977841D-03  0.49788391D-05  0.77521088D-15 -0.73236021D-17 -0.29999267D-03
 -0.13612212D-04  0.15144096D-04 -0.15318832D-05 -0.11096209D-14  0.64165974D-15
 -0.28407281D-04  0.40051000D-14  0.39841427D-04  0.90196720D-04 -0.97797973D-14
 -0.20499067D-03  0.14221239D-03 -0.22355028D-14  0.85466387D-04 -0.41280255D-03
  0.21600450D-13 -0.61396479D-15 -0.98789021D-05 -0.20483969D-04  0.10875228D-14
  0.68072852D-04 -0.53815938D-04  0.75437157D-15 -0.38436146D-04  0.11526785D-03
 -0.29754524D-14 -0.35419045D-01 -0.66015276D-01 -0.11193818D+00 -0.16940653D+00
 -0.21132129D+00 -0.18134511D+00 -0.69445542D-01 -0.34364471D-05 -0.36870823D-04
 -0.13591279D-03 -0.39740104D-03 -0.47888758D-03  0.57687083D-03 -0.31465123D-02
  0.29522561D-03  0.68413495D-04  0.19362269D-12  0.18774887D-12  0.12665428D-12
 -0.44639227D-04 -0.43285034D-04 -0.29199828D-04  0.27608171D-02  0.26770639D-02
  0.18059315D-02  0.46863744D-13 -0.38163334D-06  0.61949676D-03  0.14311148D-13
  0.33124809D-05  0.77150124D-04  0.36278190D-15  0.76767627D-06  0.74417091D-05
  0.28546070D-03 -0.50171547D-04 -0.23528916D-03  0.12993975D-13  0.22800227D-13
 -0.43420057D-05  0.32336767D-04  0.15409005D-03 -0.18642681D-03 -0.10450790D-14
 -0.51332018D-14 -0.14735628D-04  0.24692856D-05  0.45624847D-04 -0.48094133D-04
  0.19224734D-14 -0.22177173D-14 -0.14613235D-05  0.42201896D-15  0.20421282D-05
 -0.29137494D-03 -0.67786895D-14 -0.12112424D-05  0.43113036D-03  0.55126326D-14
 -0.49151423D-05  0.44299447D-03  0.12795434D-13 -0.97961439D-15 -0.15719348D-05
  0.79456688D-04  0.80206942D-15  0.10684847D-05 -0.39800163D-04  0.21367738D-14
  0.36473196D-05 -0.19856990D-03 -0.22891331D-14
MO    2     MO 0.0        OCC NO =    2.0000158  ORB. ENERGY =    0.000000
  0.20778947D-02  0.38736143D-02  0.65469359D-02  0.98412658D-02  0.12088232D-01
  0.10202042D-01  0.38362341D-02  0.47903488D-06  0.35804889D-05  0.13381105D-04
  0.37331198D-04  0.50013513D-04 -0.59056634D-04  0.16094857D-03 -0.37796880D-04
 -0.76394971D-05 -0.29840921D-13 -0.27977761D-13 -0.19921832D-13 -0.58449935D-02
 -0.54800529D-02 -0.39021241D-02  0.85535843D-04  0.80195290D-04  0.57103824D-04
 -0.19435436D-13 -0.19741550D-02  0.38088195D-04 -0.11933670D-13 -0.45243714D-03
  0.74382427D-05  0.19594088D-15  0.16143329D-04  0.16395111D-06 -0.19195202D-05
 -0.72170740D-05  0.91365942D-05  0.10712289D-13  0.27067799D-14  0.14553666D-02
  0.57162128D-05 -0.23072484D-05 -0.34089644D-05 -0.52714220D-15 -0.18246977D-14
  0.62705514D-03  0.41082984D-06  0.57990617D-06 -0.99073600D-06 -0.26211093D-15
  0.11144632D-14  0.13316396D-03 -0.75232157D-15  0.55385145D-04  0.14457212D-05
  0.65843976D-14 -0.14629071D-03 -0.27039674D-05 -0.43274329D-14 -0.19864724D-04
 -0.16331961D-05 -0.98565502D-14  0.18131564D-14 -0.45897380D-04 -0.65618645D-06
 -0.32880679D-14  0.94981947D-05 -0.77925700D-06 -0.21514013D-14  0.12819395D-03
  0.27478164D-05  0.22345764D-15  0.30492321D-01  0.57360648D-01  0.99294212D-01
  0.16276228D+00  0.25496959D+00  0.38324004D+00  0.54774011D+00  0.72712381D+00
  0.84678821D+00  0.77767700D+00  0.45460327D+00  0.11928525D+00  0.67820289D-02
  0.11833911D-03  0.11912178D-04  0.14465419D-02  0.41787262D-02  0.19152084D-01
  0.56694340D-01  0.16441524D+00  0.34175225D+00  0.48888066D+00  0.14017770D+00
 -0.56016886D+00 -0.54162910D+00 -0.11821883D+00  0.17111818D-02  0.88004312D-03
  0.41055832D-02  0.83319764D-02  0.32654464D-01  0.22914411D-01 -0.14922732D+00
 -0.46240422D+00 -0.56562392D-01  0.40421147D+00  0.18969643D+00  0.96076490D-06
  0.13171324D-05 -0.25252615D-05 -0.53670110D-05  0.20288803D-04  0.65608835D-04
  0.22817755D-04 -0.22318249D-03 -0.49781266D-03  0.33033333D-03  0.79019610D-02
 -0.39330054D-03  0.32371357D-04 -0.42211684D-08 -0.60567467D-08 -0.80196922D-08
 -0.92613487D-08 -0.85870168D-08 -0.55608368D-08 -0.19621925D-08 -0.22609139D-09
  0.36936387D-12 -0.11332395D+02 -0.16260296D+02 -0.21530134D+02 -0.24863558D+02
 -0.23053207D+02 -0.14928947D+02 -0.52678165D+01 -0.60697815D+00  0.99161582D-03
 -0.67625088D+01 -0.97031907D+01 -0.12847921D+02 -0.14837113D+02 -0.13756802D+02
 -0.89087200D+01 -0.31435239D+01 -0.36220895D+00  0.59173815D-03 -0.31771004D-11
  0.90584793D-11  0.44215603D-10  0.91623136D-10  0.11497799D-09  0.18233442D-10
 -0.14759355D-09 -0.12872297D-09 -0.33090156D-10  0.67887964D-01 -0.19356068D+00
 -0.94479457D+00 -0.19577940D+01 -0.24568382D+01 -0.38961036D+00  0.31537642D+01
  0.27505396D+01  0.70706714D+00  0.40445326D-01 -0.11531683D+00 -0.56287627D+00
 -0.11663867D+01 -0.14637001D+01 -0.23211652D+00  0.18789048D+01  0.16386774D+01
  0.42124641D+00  0.70959320D-14  0.10024699D-13 -0.46644401D-14  0.93475820D-14
  0.10261553D-13  0.27699147D-13  0.87287332D-14 -0.18740776D-13  0.73767431D-04
  0.10421412D-03 -0.48490285D-04  0.97174988D-04  0.10667639D-03  0.28795300D-03
  0.90741599D-04 -0.19482414D-03  0.10217678D-03  0.14434911D-03 -0.67164885D-04
  0.13459906D-03  0.14775964D-03  0.39884959D-03  0.12568804D-03 -0.26985490D-03
 -0.10345481D-11  0.25042608D-01  0.14988117D-01 -0.69610213D-14  0.10176091D-03
  0.18365139D-04  0.15085235D-16 -0.14564964D-05  0.31418935D-06 -0.11437426D+01
 -0.11968034D+01 -0.10197406D+01 -0.67157625D+00 -0.30950950D+00 -0.92683121D-01
 -0.15769247D-01  0.13856804D+01  0.14499653D+01  0.12354480D+01  0.81363591D+00
  0.37498057D+00  0.11228854D+00  0.19104943D-01 -0.24193780D+00 -0.25316184D+00
 -0.21570743D+00 -0.14205965D+00 -0.65471065D-01 -0.19605416D-01 -0.33356954D-02
  0.25262818D-10  0.26434817D-10  0.22523879D-10  0.14833677D-10  0.68364000D-11
  0.20471711D-11  0.34830880D-12 -0.11876333D-09 -0.12427303D-09 -0.10588727D-09
 -0.69734775D-10 -0.32138682D-10 -0.96239802D-11 -0.16374386D-11  0.41526120D+01
  0.43452610D+01  0.37023950D+01  0.24383070D+01  0.11237431D+01  0.33650669D+00
  0.57253760D-01 -0.11686324D-02  0.13438206D-02 -0.17518815D-03  0.10293441D-13
 -0.95767523D-13  0.40198277D-02  0.66665743D-04 -0.33216247D-04 -0.33449496D-04
  0.26741626D-14  0.12187879D-14 -0.17053049D-03 -0.41621595D-05  0.33753097D-05
  0.78684983D-06  0.72602700D-15  0.46739221D-15 -0.18462400D-04  0.25986715D-14
  0.39109479D-04 -0.11174159D-03 -0.66858982D-14 -0.23093932D-03 -0.14046501D-03
 -0.11101162D-14  0.11361089D-03  0.47568976D-03 -0.15996176D-13 -0.61592436D-15
  0.32965876D-05  0.20282810D-04  0.14993446D-14  0.39736752D-04  0.30448453D-04
  0.34842852D-15 -0.49626515D-04 -0.91296884D-04  0.33408880D-14 -0.31896328D-01
 -0.60001798D-01 -0.10386618D+00 -0.17025661D+00 -0.26670957D+00 -0.40088618D+00
 -0.57296060D+00 -0.76060395D+00 -0.88577825D+00 -0.81348485D+00 -0.47553531D+00
 -0.12477769D+00 -0.70943048D-02 -0.12378799D-03 -0.12460669D-04 -0.15132153D-02
 -0.43713303D-02 -0.20034834D-01 -0.59307471D-01 -0.17199339D+00 -0.35750415D+00
 -0.51141393D+00 -0.14663871D+00  0.58598792D+00  0.56659363D+00  0.12366772D+00
 -0.17900528D-02 -0.92099879D-03 -0.42966498D-02 -0.87197320D-02 -0.34174146D-01
 -0.23980808D-01  0.15617210D+00  0.48392371D+00  0.59194707D-01 -0.42302276D+00
 -0.19852457D+00 -0.10029578D-05 -0.13749756D-05  0.26361607D-05  0.56027084D-05
 -0.21179805D-04 -0.68490110D-04 -0.23819819D-04  0.23298377D-03  0.51967458D-03
 -0.34484024D-03 -0.82621180D-02  0.40658332D-03 -0.24417718D-04  0.40110696D-08
  0.57552862D-08  0.76205308D-08  0.88003866D-08  0.81596180D-08  0.52840591D-08
  0.18645289D-08  0.21483822D-09 -0.35097964D-12 -0.11688155D+02 -0.16770757D+02
 -0.22206032D+02 -0.25644102D+02 -0.23776919D+02 -0.15397614D+02 -0.54331897D+01
 -0.62603308D+00  0.10227457D-02  0.69566064D+01  0.99816918D+01  0.13216682D+02
  0.15262968D+02  0.14151649D+02  0.91644182D+01  0.32337493D+01  0.37260508D+00
 -0.60872222D-03 -0.79914130D-12  0.22784942D-11  0.11121623D-10  0.23046118D-10