 Entering Gaussian System, Link 0=/home/bruns/programas/chemistry/gaussian/g09/g09
 Input=GAUSSIAN.com
 Output=GAUSSIAN.log
 Initial command:
 /home/bruns/programas/chemistry/gaussian/g09/l1.exe /home/bruns/programas/chemistry/gaussian/work/Gau-71181.inp -scrdir=/home/bruns/programas/chemistry/gaussian/work/
 Entering Link 1 = /home/bruns/programas/chemistry/gaussian/g09/l1.exe PID=     71183.
  
 Copyright (c) 1988,1990,1992,1993,1995,1998,2003,2009,2010,
            Gaussian, Inc.  All Rights Reserved.
  
 This is part of the Gaussian(R) 09 program.  It is based on
 the Gaussian(R) 03 system (copyright 2003, Gaussian, Inc.),
 the Gaussian(R) 98 system (copyright 1998, Gaussian, Inc.),
 the Gaussian(R) 94 system (copyright 1995, Gaussian, Inc.),
 the Gaussian 92(TM) system (copyright 1992, Gaussian, Inc.),
 the Gaussian 90(TM) system (copyright 1990, Gaussian, Inc.),
 the Gaussian 88(TM) system (copyright 1988, Gaussian, Inc.),
 the Gaussian 86(TM) system (copyright 1986, Carnegie Mellon
 University), and the Gaussian 82(TM) system (copyright 1983,
 Carnegie Mellon University). Gaussian is a federally registered
 trademark of Gaussian, Inc.
  
 This software contains proprietary and confidential information,
 including trade secrets, belonging to Gaussian, Inc.
  
 This software is provided under written license and may be
 used, copied, transmitted, or stored only in accord with that
 written license.
  
 The following legend is applicable only to US Government
 contracts under FAR:
  
                    RESTRICTED RIGHTS LEGEND
  
 Use, reproduction and disclosure by the US Government is
 subject to restrictions as set forth in subparagraphs (a)
 and (c) of the Commercial Computer Software - Restricted
 Rights clause in FAR 52.227-19.
  
 Gaussian, Inc.
 340 Quinnipiac St., Bldg. 40, Wallingford CT 06492
  
  
 ---------------------------------------------------------------
 Warning -- This program may not be used in any manner that
 competes with the business of Gaussian, Inc. or will provide
 assistance to any competitor of Gaussian, Inc.  The licensee
 of this program is prohibited from giving any competitor of
 Gaussian, Inc. access to this program.  By using this program,
 the user acknowledges that Gaussian, Inc. is engaged in the
 business of creating and licensing software in the field of
 computational chemistry and represents and warrants to the
 licensee that it is not a competitor of Gaussian, Inc. and that
 it will not use this program in any manner prohibited above.
 ---------------------------------------------------------------
  

 Cite this work as:
 Gaussian 09, Revision B.01,
 M. J. Frisch, G. W. Trucks, H. B. Schlegel, G. E. Scuseria, 
 M. A. Robb, J. R. Cheeseman, G. Scalmani, V. Barone, B. Mennucci, 
 G. A. Petersson, H. Nakatsuji, M. Caricato, X. Li, H. P. Hratchian, 
 A. F. Izmaylov, J. Bloino, G. Zheng, J. L. Sonnenberg, M. Hada, 
 M. Ehara, K. Toyota, R. Fukuda, J. Hasegawa, M. Ishida, T. Nakajima, 
 Y. Honda, O. Kitao, H. Nakai, T. Vreven, J. A. Montgomery, Jr., 
 J. E. Peralta, F. Ogliaro, M. Bearpark, J. J. Heyd, E. Brothers, 
 K. N. Kudin, V. N. Staroverov, T. Keith, R. Kobayashi, J. Normand, 
 K. Raghavachari, A. Rendell, J. C. Burant, S. S. Iyengar, J. Tomasi, 
 M. Cossi, N. Rega, J. M. Millam, M. Klene, J. E. Knox, J. B. Cross, 
 V. Bakken, C. Adamo, J. Jaramillo, R. Gomperts, R. E. Stratmann, 
 O. Yazyev, A. J. Austin, R. Cammi, C. Pomelli, J. W. Ochterski, 
 R. L. Martin, K. Morokuma, V. G. Zakrzewski, G. A. Voth, 
 P. Salvador, J. J. Dannenberg, S. Dapprich, A. D. Daniels, 
 O. Farkas, J. B. Foresman, J. V. Ortiz, J. Cioslowski, 
 and D. J. Fox, Gaussian, Inc., Wallingford CT, 2010.
 
 ******************************************
 Gaussian 09:  EM64L-G09RevB.01 12-Aug-2010
                28-Nov-2021 
 ******************************************
 %nproc=8
 Will use up to    8 processors via shared memory.
 %mem=8GB
 -----------------------------------------------------
 # qcisd/aug-cc-pvtz nosymm density=current output=wfn
 -----------------------------------------------------
 1/30=1,38=1/1;
 2/12=2,15=1,17=6,18=5,40=1/2;
 3/5=16,6=1,7=10,11=9,16=1,25=1,30=1,71=1/1,2,3;
 4//1;
 5/5=2,38=5/2;
 8/6=4,9=120000,10=1/1,4;
 9/5=8,15=1/13;
 11/28=-7,31=1,32=3,42=3/11;
 10/5=6,13=10,31=1/2;
 6/7=2,8=2,9=2,10=2,22=-1,31=1/1;
 99/5=1,6=1100,9=1/99;
 ------------------
 br2co-wavefunction
 ------------------
 Symbolic Z-matrix:
 Charge =  0 Multiplicity = 1
 C                     0.        0.       -0.48176 
 Br                    0.       -1.59418  -1.54682 
 Br                    0.        1.59418  -1.54682 
 O                     0.        0.        0.6845 
 
                          Input orientation:                          
 ---------------------------------------------------------------------
 Center     Atomic      Atomic             Coordinates (Angstroms)
 Number     Number       Type             X           Y           Z
 ---------------------------------------------------------------------
      1          6           0        0.000000    0.000000   -0.481759
      2         35           0        0.000000   -1.594181   -1.546820
      3         35           0        0.000000    1.594181   -1.546820
      4          8           0        0.000000    0.000000    0.684500
 ---------------------------------------------------------------------
                    Distance matrix (angstroms):
                    1          2          3          4
     1  C    0.000000
     2  Br   1.917229   0.000000
     3  Br   1.917229   3.188362   0.000000
     4  O    1.166259   2.742299   2.742299   0.000000
 Symmetry turned off by external request.
 Stoichiometry    CBr2O
 Framework group  C2V[C2(CO),SGV(Br2)]
 Deg. of freedom     3
 Full point group                 C2V     NOp   4
 Rotational constants (GHZ):      6.2698230      1.2598940      1.0490849
 Standard basis: Aug-CC-pVTZ (5D, 7F)
 Integral buffers will be    131072 words long.
 Raffenetti 1 integral format.
 Two-electron integral symmetry is turned off.
   210 basis functions,   578 primitive gaussians,   248 cartesian basis functions
    42 alpha electrons       42 beta electrons
       nuclear repulsion energy       449.0817090152 Hartrees.
 NAtoms=    4 NActive=    4 NUniq=    4 SFac= 1.00D+00 NAtFMM=   50 NAOKFM=F Big=F
 One-electron integrals computed using PRISM.
 NBasis=   210 RedAO= T  NBF=   210
 NBsUse=   210 1.00D-06 NBFU=   210
 Harris functional with IExCor=  205 diagonalized for initial guess.
 ExpMin= 3.51D-02 ExpMax= 1.06D+07 ExpMxC= 1.21D+04 IAcc=3 IRadAn=         0 AccDes= 0.00D+00
 HarFok:  IExCor=  205 AccDes= 0.00D+00 IRadAn=         0 IDoV= 1
 ScaDFX=  1.000000  1.000000  1.000000  1.000000
 FoFCou: FMM=F IPFlag=           0 FMFlag=      100000 FMFlg1=           0
         NFxFlg=           0 DoJE=T BraDBF=F KetDBF=T FulRan=T
         Omega=  0.000000  0.000000  1.000000  0.000000  0.000000 ICntrl=     500 IOpCl=  0
         NMat0=    1 NMatS0=    1 NMatT0=    0 NMatD0=    1 NMtDS0=    0 NMtDT0=    0
         I1Cent=           4 NGrid=           0.
 Symmetry not used in FoFCou.
 Requested convergence on RMS density matrix=1.00D-08 within 128 cycles.
 Requested convergence on MAX density matrix=1.00D-06.
 Requested convergence on             energy=1.00D-06.
 No special actions if energy rises.
 Keep R1 ints in memory in canonical form, NReq=484604278.
 SCF Done:  E(RHF) =  -5257.68528644     A.U. after   12 cycles
             Convg  =    0.8845D-08             -V/T =  2.0000
 ExpMin= 3.51D-02 ExpMax= 1.06D+07 ExpMxC= 1.21D+04 IAcc=3 IRadAn=         5 AccDes= 0.00D+00
 HarFok:  IExCor=  205 AccDes= 0.00D+00 IRadAn=         5 IDoV=-2
 ScaDFX=  1.000000  1.000000  1.000000  1.000000
 DSYEVD returned Info=          93 IAlg= 4 N=    46 NDim=    46 NE2=    18196533 trying DSYEV.
 Range of M.O.s used for correlation:    21   210
 NBasis=   210 NAE=    42 NBE=    42 NFC=    20 NFV=     0
 NROrb=    190 NOA=    22 NOB=    22 NVA=   168 NVB=   168

 **** Warning!!: The largest alpha MO coefficient is  0.27896872D+02

 Semi-Direct transformation.
 ModeAB=           2 MOrb=            22 LenV=    1072497277
 LASXX=     69628944 LTotXX=    69628944 LenRXX=    69628944
 LTotAB=    70719517 MaxLAS=   129061680 LenRXY=   129061680
 NonZer=   139257888 LenScr=   209707008 LnRSAI=           0
 LnScr1=           0 LExtra=           0 Total=    408397632
 MaxDsk=          -1 SrtSym=           F ITran=            4
 JobTyp=0 Pass  1:  I=   1 to  22.
 (rs|ai) integrals will be sorted in core.
 Spin components of T(2) and E(2):
     alpha-alpha T2 =       0.3819847704D-01 E2=     -0.1231050589D+00
     alpha-beta  T2 =       0.1919407540D+00 E2=     -0.6167117166D+00
     beta-beta   T2 =       0.3819847704D-01 E2=     -0.1231050589D+00
 ANorm=    0.1126205003D+01
 E2 =    -0.8629218344D+00 EUMP2 =    -0.52585482082728D+04
 R2 and R3 integrals will be kept in memory, NReq=   961077252.
 Iterations=  50 Convergence= 0.100D-07
 Iteration Nr.   1
 **********************
 DD1Dir will call FoFMem   1 times, MxPair=       506
 NAB=   253 NAA=     0 NBB=     0.
 MP4(R+Q)=  0.21424198D-01
 E3=       -0.36908956D-03        EUMP3=      -0.52585485774D+04
 E4(DQ)=    0.42279659D-03        UMP4(DQ)=   -0.52585481546D+04
 E4(SDQ)=  -0.11373986D-01        UMP4(SDQ)=  -0.52585599513D+04
 DE(Corr)= -0.84186673     E(Corr)=     -5258.5271532    
 NORM(A)=   0.11246327D+01
 Iteration Nr.   2
 **********************
 DD1Dir will call FoFMem   1 times, MxPair=       506
 NAB=   253 NAA=     0 NBB=     0.
 DE(Corr)= -0.87139846     E(CORR)=     -5258.5566849     Delta=-2.95D-02
 NORM(A)=   0.11349420D+01
 Iteration Nr.   3
 **********************
 DD1Dir will call FoFMem   1 times, MxPair=       506
 NAB=   253 NAA=     0 NBB=     0.
 DE(Corr)= -0.86939780     E(CORR)=     -5258.5546842     Delta= 2.00D-03
 NORM(A)=   0.11376362D+01
 Iteration Nr.   4
 **********************
 DD1Dir will call FoFMem   1 times, MxPair=       506
 NAB=   253 NAA=     0 NBB=     0.
 DE(Corr)= -0.87187470     E(CORR)=     -5258.5571611     Delta=-2.48D-03
 NORM(A)=   0.11389081D+01
 Iteration Nr.   5
 **********************
 DD1Dir will call FoFMem   1 times, MxPair=       506
 NAB=   253 NAA=     0 NBB=     0.
 DE(Corr)= -0.87223560     E(CORR)=     -5258.5575220     Delta=-3.61D-04
 NORM(A)=   0.11394060D+01
 Iteration Nr.   6
 **********************
 DD1Dir will call FoFMem   1 times, MxPair=       506
 NAB=   253 NAA=     0 NBB=     0.
 DE(Corr)= -0.87229778     E(CORR)=     -5258.5575842     Delta=-6.22D-05
 NORM(A)=   0.11395049D+01
 Iteration Nr.   7
 **********************
 DD1Dir will call FoFMem   1 times, MxPair=       506
 NAB=   253 NAA=     0 NBB=     0.
 DE(Corr)= -0.87231152     E(CORR)=     -5258.5575980     Delta=-1.37D-05
 NORM(A)=   0.11395145D+01
 Iteration Nr.   8
 **********************
 DD1Dir will call FoFMem   1 times, MxPair=       506
 NAB=   253 NAA=     0 NBB=     0.
 DE(Corr)= -0.87231135     E(CORR)=     -5258.5575978     Delta= 1.74D-07
 NORM(A)=   0.11395290D+01
 Iteration Nr.   9
 **********************
 DD1Dir will call FoFMem   1 times, MxPair=       506
 NAB=   253 NAA=     0 NBB=     0.
 DE(Corr)= -0.87230987     E(CORR)=     -5258.5575963     Delta= 1.48D-06
 NORM(A)=   0.11395292D+01
 Iteration Nr.  10
 **********************
 DD1Dir will call FoFMem   1 times, MxPair=       506
 NAB=   253 NAA=     0 NBB=     0.
 DE(Corr)= -0.87231107     E(CORR)=     -5258.5575975     Delta=-1.20D-06
 NORM(A)=   0.11395318D+01
 Iteration Nr.  11
 **********************
 DD1Dir will call FoFMem   1 times, MxPair=       506
 NAB=   253 NAA=     0 NBB=     0.
 DE(Corr)= -0.87231225     E(CORR)=     -5258.5575987     Delta=-1.18D-06
 NORM(A)=   0.11395335D+01
 Iteration Nr.  12
 **********************
 DD1Dir will call FoFMem   1 times, MxPair=       506
 NAB=   253 NAA=     0 NBB=     0.
 DE(Corr)= -0.87231251     E(CORR)=     -5258.5575989     Delta=-2.60D-07
 NORM(A)=   0.11395345D+01
 Iteration Nr.  13
 **********************
 DD1Dir will call FoFMem   1 times, MxPair=       506
 NAB=   253 NAA=     0 NBB=     0.
 DE(Corr)= -0.87231296     E(CORR)=     -5258.5575994     Delta=-4.52D-07
 NORM(A)=   0.11395351D+01
 Iteration Nr.  14
 **********************
 DD1Dir will call FoFMem   1 times, MxPair=       506
 NAB=   253 NAA=     0 NBB=     0.
 DE(Corr)= -0.87231306     E(CORR)=     -5258.5575995     Delta=-9.59D-08
 NORM(A)=   0.11395354D+01
 Iteration Nr.  15
 **********************
 DD1Dir will call FoFMem   1 times, MxPair=       506
 NAB=   253 NAA=     0 NBB=     0.
 DE(Corr)= -0.87231312     E(CORR)=     -5258.5575996     Delta=-6.48D-08
 NORM(A)=   0.11395356D+01
 Iteration Nr.  16
 **********************
 DD1Dir will call FoFMem   1 times, MxPair=       506
 NAB=   253 NAA=     0 NBB=     0.
 DE(Corr)= -0.87231315     E(CORR)=     -5258.5575996     Delta=-2.95D-08
 NORM(A)=   0.11395356D+01
 Iteration Nr.  17
 **********************
 DD1Dir will call FoFMem   1 times, MxPair=       506
 NAB=   253 NAA=     0 NBB=     0.
 DE(Corr)= -0.87231315     E(CORR)=     -5258.5575996     Delta= 4.44D-09
 NORM(A)=   0.11395356D+01
 Iteration Nr.  18
 **********************
 DD1Dir will call FoFMem   1 times, MxPair=       506
 NAB=   253 NAA=     0 NBB=     0.
 DE(Corr)= -0.87231315     E(CORR)=     -5258.5575996     Delta=-4.65D-10
 NORM(A)=   0.11395356D+01
 Iteration Nr.  19
 **********************
 DD1Dir will call FoFMem   1 times, MxPair=       506
 NAB=   253 NAA=     0 NBB=     0.
 DE(Corr)= -0.87231316     E(CORR)=     -5258.5575996     Delta=-7.64D-09
 NORM(A)=   0.11395356D+01
 Iteration Nr.  20
 **********************
 DD1Dir will call FoFMem   1 times, MxPair=       506
 NAB=   253 NAA=     0 NBB=     0.
 DE(Corr)= -0.87231316     E(CORR)=     -5258.5575996     Delta= 1.75D-10
 NORM(A)=   0.11395356D+01
 Iteration Nr.  21
 **********************
 DD1Dir will call FoFMem   1 times, MxPair=       506
 NAB=   253 NAA=     0 NBB=     0.
 DE(Corr)= -0.87231315     E(CORR)=     -5258.5575996     Delta= 1.08D-09
 NORM(A)=   0.11395356D+01
 Iteration Nr.  22
 **********************
 DD1Dir will call FoFMem   1 times, MxPair=       506
 NAB=   253 NAA=     0 NBB=     0.
 DE(Corr)= -0.87231315     E(CORR)=     -5258.5575996     Delta= 2.31D-10
 NORM(A)=   0.11395356D+01
 Largest amplitude= 3.86D-02

 Z-AMPLITUDE ITERATIONS

 Iteration Nr.   1
 **********************
 DD1Dir will call FoFMem   1 times, MxPair=       506
 NAB=   253 NAA=     0 NBB=     0.
 DE(Z)  -0.84525981D+00          E(Z)=    -0.52585305463D+04
 NORM(A)=   0.11386689D+01
 Iteration Nr.   2
 **********************
 DD1Dir will call FoFMem   1 times, MxPair=       506
 NAB=   253 NAA=     0 NBB=     0.
 DE(Z)  -0.84525752D+00          E(Z)=    -0.52585305440D+04
 NORM(A)=   0.11401836D+01
 Iteration Nr.   3
 **********************
 DD1Dir will call FoFMem   1 times, MxPair=       506
 NAB=   253 NAA=     0 NBB=     0.
 DE(Z)  -0.84526130D+00          E(Z)=    -0.52585305477D+04
 NORM(A)=   0.11374285D+01
 Iteration Nr.   4
 **********************
 DD1Dir will call FoFMem   1 times, MxPair=       506
 NAB=   253 NAA=     0 NBB=     0.
 DE(Z)  -0.84525531D+00          E(Z)=    -0.52585305417D+04
 NORM(A)=   0.11428082D+01
 Iteration Nr.   5
 **********************
 DD1Dir will call FoFMem   1 times, MxPair=       506
 NAB=   253 NAA=     0 NBB=     0.
 DE(Z)  -0.84527573D+00          E(Z)=    -0.52585305622D+04
 NORM(A)=   0.11297279D+01
 Iteration Nr.   6
 **********************
 DD1Dir will call FoFMem   1 times, MxPair=       506
 NAB=   253 NAA=     0 NBB=     0.
 DE(Z)  -0.84521998D+00          E(Z)=    -0.52585305064D+04
 NORM(A)=   0.11297280D+01
 Iteration Nr.   7
 **********************
 DD1Dir will call FoFMem   1 times, MxPair=       506
 NAB=   253 NAA=     0 NBB=     0.
 DE(Z)  -0.84521670D+00          E(Z)=    -0.52585305031D+04
 NORM(A)=   0.11297284D+01
 Iteration Nr.   8
 **********************
 DD1Dir will call FoFMem   1 times, MxPair=       506
 NAB=   253 NAA=     0 NBB=     0.
 DE(Z)  -0.84521831D+00          E(Z)=    -0.52585305048D+04
 NORM(A)=   0.11297286D+01
 Iteration Nr.   9
 **********************
 DD1Dir will call FoFMem   1 times, MxPair=       506
 NAB=   253 NAA=     0 NBB=     0.
 DE(Z)  -0.84521794D+00          E(Z)=    -0.52585305044D+04
 NORM(A)=   0.11297287D+01
 Iteration Nr.  10
 **********************
 DD1Dir will call FoFMem   1 times, MxPair=       506
 NAB=   253 NAA=     0 NBB=     0.
 DE(Z)  -0.84521801D+00          E(Z)=    -0.52585305044D+04
 NORM(A)=   0.11297288D+01
 Iteration Nr.  11
 **********************
 DD1Dir will call FoFMem   1 times, MxPair=       506
 NAB=   253 NAA=     0 NBB=     0.
 DE(Z)  -0.84521802D+00          E(Z)=    -0.52585305045D+04
 NORM(A)=   0.11297288D+01
 Iteration Nr.  12
 **********************
 DD1Dir will call FoFMem   1 times, MxPair=       506
 NAB=   253 NAA=     0 NBB=     0.
 DE(Z)  -0.84521801D+00          E(Z)=    -0.52585305044D+04
 NORM(A)=   0.11297288D+01
 Iteration Nr.  13
 **********************
 DD1Dir will call FoFMem   1 times, MxPair=       506
 NAB=   253 NAA=     0 NBB=     0.
 DE(Z)  -0.84521801D+00          E(Z)=    -0.52585305045D+04
 NORM(A)=   0.11297288D+01
 Iteration Nr.  14
 **********************
 DD1Dir will call FoFMem   1 times, MxPair=       506
 NAB=   253 NAA=     0 NBB=     0.
 DE(Z)  -0.84521801D+00          E(Z)=    -0.52585305045D+04
 NORM(A)=   0.11297288D+01
 Discarding MO integrals.
          Differentiating once with respect to electric field.
                with respect to dipole field.
          Electric field/nuclear overlap derivatives assumed to be zero.
          Keep R1 ints in memory in canonical form, NReq=478620341.
          There are     1 degrees of freedom in the 1st order CPHF.  IDoFFX=0.
 LinEq1:  Iter=  0 NonCon=     1 RMS=1.94D-03 Max=5.26D-02
 AX will form     1 AO Fock derivatives at one time.
 LinEq1:  Iter=  1 NonCon=     1 RMS=7.37D-04 Max=2.62D-02
 LinEq1:  Iter=  2 NonCon=     1 RMS=3.06D-04 Max=9.18D-03
 LinEq1:  Iter=  3 NonCon=     1 RMS=1.01D-04 Max=2.71D-03
 LinEq1:  Iter=  4 NonCon=     1 RMS=5.24D-05 Max=1.63D-03
 LinEq1:  Iter=  5 NonCon=     1 RMS=1.61D-05 Max=4.53D-04
 LinEq1:  Iter=  6 NonCon=     1 RMS=6.17D-06 Max=1.24D-04
 LinEq1:  Iter=  7 NonCon=     1 RMS=1.31D-06 Max=2.10D-05
 LinEq1:  Iter=  8 NonCon=     1 RMS=2.61D-07 Max=4.06D-06
 LinEq1:  Iter=  9 NonCon=     1 RMS=6.22D-08 Max=1.21D-06
 LinEq1:  Iter= 10 NonCon=     1 RMS=1.32D-08 Max=1.90D-07
 LinEq1:  Iter= 11 NonCon=     1 RMS=3.69D-09 Max=9.05D-08
 LinEq1:  Iter= 12 NonCon=     1 RMS=6.79D-10 Max=1.54D-08
 LinEq1:  Iter= 13 NonCon=     1 RMS=1.15D-10 Max=2.48D-09
 LinEq1:  Iter= 14 NonCon=     0 RMS=1.83D-11 Max=4.34D-10
 Linear equations converged to 1.000D-10 1.000D-09 after    14 iterations.
 End of Minotr Frequency-dependent properties file   721 does not exist.
 End of Minotr Frequency-dependent properties file   722 does not exist.

 **********************************************************************

            Population analysis using the QCI/CC density.

 **********************************************************************

     Natural Orbital Coefficients:
                           1         2         3         4         5
     Eigenvalues --     2.00002   2.00002   2.00001   2.00001   2.00001
   1 1   C  1S          0.37252   0.00000   0.00000  -0.23575   0.00000
   2        2S         -0.01007   0.00000   0.00000   0.00259   0.00000
   3        3S          0.01447   0.00000   0.00000  -0.00983   0.00000
   4        4S         -0.01288   0.00000   0.00000   0.00306   0.00000
   5        5S         -0.00444   0.00000   0.00000  -0.00272   0.00000
   6        6PX         0.00000   0.00000   0.00000   0.00000   0.00000
   7        6PY         0.00000  -0.00263   0.00000   0.00000  -0.00022
   8        6PZ         0.00167   0.00000   0.00000   0.00012   0.00000
   9        7PX         0.00000   0.00000   0.00000   0.00000   0.00000
  10        7PY         0.00000  -0.00453   0.00022   0.00000  -0.00041
  11        7PZ         0.00460   0.00000   0.00000  -0.00087   0.00000
  12        8PX         0.00000   0.00000   0.00000   0.00000   0.00000
  13        8PY         0.00000  -0.00435  -0.00124   0.00000  -0.00543
  14        8PZ         0.00375   0.00000   0.00000  -0.00074   0.00000
  15        9PX         0.00000   0.00000   0.00000   0.00000   0.00000
  16        9PY         0.00000   0.00074   0.00166   0.00000  -0.00169
  17        9PZ         0.00021   0.00000   0.00000   0.00051   0.00000
  18       10D 0        0.00031   0.00000   0.00000  -0.00020   0.00000
  19       10D+1        0.00000   0.00000   0.00000   0.00000   0.00000
  20       10D-1        0.00000   0.00043  -0.00007   0.00000  -0.00004
  21       10D+2        0.00012   0.00000   0.00000   0.00016   0.00000
  22       10D-2        0.00000   0.00000   0.00000   0.00000   0.00000
  23       11D 0       -0.00008   0.00000   0.00000   0.00010   0.00000
  24       11D+1        0.00000   0.00000   0.00000   0.00000   0.00000
  25       11D-1        0.00000   0.00166   0.00030   0.00000  -0.00033
  26       11D+2        0.00172   0.00000   0.00000  -0.00053   0.00000
  27       11D-2        0.00000   0.00000   0.00000   0.00000   0.00000
  28       12D 0       -0.00043   0.00000   0.00000   0.00016   0.00000
  29       12D+1        0.00000   0.00000   0.00000   0.00000   0.00000
  30       12D-1        0.00000   0.00262   0.00134   0.00000   0.00131
  31       12D+2        0.00097   0.00000   0.00000  -0.00008   0.00000
  32       12D-2        0.00000   0.00000   0.00000   0.00000   0.00000
  33       13F 0        0.00016   0.00000   0.00000  -0.00016   0.00000
  34       13F+1        0.00000   0.00000   0.00000   0.00000   0.00000
  35       13F-1        0.00000  -0.00001   0.00007   0.00000   0.00000
  36       13F+2        0.00001   0.00000   0.00000  -0.00004   0.00000
  37       13F-2        0.00000   0.00000   0.00000   0.00000   0.00000
  38       13F+3        0.00000   0.00000   0.00000   0.00000   0.00000
  39       13F-3        0.00000  -0.00008  -0.00003   0.00000  -0.00004
  40       14F 0       -0.00019   0.00000   0.00000   0.00053   0.00000
  41       14F+1        0.00000   0.00000   0.00000   0.00000   0.00000
  42       14F-1        0.00000   0.00070   0.00002   0.00000  -0.00004
  43       14F+2       -0.00013   0.00000   0.00000   0.00040   0.00000
  44       14F-2        0.00000   0.00000   0.00000   0.00000   0.00000
  45       14F+3        0.00000   0.00000   0.00000   0.00000   0.00000
  46       14F-3        0.00000   0.00023   0.00012   0.00000   0.00028
  47 2   Br 1S         -0.04526   0.04057  -0.08306  -0.08032  -0.00192
  48        2S          0.16760  -0.15019   0.30937   0.29918   0.00724
  49        3S         -0.35334   0.31505  -0.66714  -0.64553  -0.01570
  50        4S         -0.00113   0.00100  -0.00198  -0.00222   0.00014
  51        5S         -0.01879   0.01681  -0.03227  -0.03106  -0.00070
  52        6S          0.00345  -0.00254  -0.00745  -0.00681  -0.00343
  53        7S          0.00215   0.00043   0.00265   0.00139  -0.00303
  54        8PX         0.00000   0.00000   0.00000   0.00000   0.00000
  55        8PY         0.18993  -0.21933  -0.10040  -0.08241   0.13239
  56        8PZ         0.11896  -0.13163  -0.05309  -0.07295  -0.22726
  57        9PX         0.00000   0.00000   0.00000   0.00000   0.00000
  58        9PY        -0.49429   0.57376   0.28132   0.23042  -0.37482
  59        9PZ        -0.31021   0.34384   0.14821   0.20480   0.64007
  60       10PX         0.00000   0.00000   0.00000   0.00000   0.00000
  61       10PY         0.00227  -0.00069  -0.00010  -0.00078  -0.00122
  62       10PZ         0.00128  -0.00092  -0.00019  -0.00030   0.00098
  63       11PX         0.00000   0.00000   0.00000   0.00000   0.00000
  64       11PY        -0.02345   0.02722   0.01289   0.01048  -0.01667
  65       11PZ        -0.01485   0.01640   0.00675   0.00935   0.02854
  66       12PX         0.00000   0.00000   0.00000   0.00000   0.00000
  67       12PY         0.00149   0.00124   0.00139   0.00035  -0.00402
  68       12PZ         0.00072   0.00023   0.00062   0.00061   0.00189
  69       13PX         0.00000   0.00000   0.00000   0.00000   0.00000
  70       13PY         0.00040  -0.00007   0.00025   0.00021  -0.00020
  71       13PZ         0.00031   0.00001   0.00032   0.00007  -0.00063
  72       14D 0        0.00211  -0.00245  -0.00100  -0.00183  -0.00791
  73       14D+1        0.00000   0.00000   0.00000   0.00000   0.00000
  74       14D-1       -0.02332   0.02629   0.00564   0.00474  -0.00400
  75       14D+2        0.01375  -0.01569  -0.00373  -0.00396  -0.00466
  76       14D-2        0.00000   0.00000   0.00000   0.00000   0.00000
  77       15D 0        0.00023  -0.00018  -0.00006  -0.00014  -0.00049
  78       15D+1        0.00000   0.00000   0.00000   0.00000   0.00000
  79       15D-1       -0.00241   0.00259   0.00030   0.00028  -0.00025
  80       15D+2        0.00156  -0.00159  -0.00020  -0.00023  -0.00029
  81       15D-2        0.00000   0.00000   0.00000   0.00000   0.00000
  82       16D 0        0.00004  -0.00022  -0.00003  -0.00002  -0.00029
  83       16D+1        0.00000   0.00000   0.00000   0.00000   0.00000
  84       16D-1        0.00110  -0.00064   0.00011  -0.00028  -0.00025
  85       16D+2       -0.00081   0.00037  -0.00004   0.00008  -0.00011
  86       16D-2        0.00000   0.00000   0.00000   0.00000   0.00000
  87       17D 0       -0.00005   0.00002   0.00005  -0.00003   0.00004
  88       17D+1        0.00000   0.00000   0.00000   0.00000   0.00000
  89       17D-1        0.00052  -0.00034   0.00003  -0.00004  -0.00044
  90       17D+2       -0.00051  -0.00013  -0.00021   0.00009   0.00031
  91       17D-2        0.00000   0.00000   0.00000   0.00000   0.00000
  92       18F 0        0.00023  -0.00029  -0.00009  -0.00006   0.00005
  93       18F+1        0.00000   0.00000   0.00000   0.00000   0.00000
  94       18F-1       -0.00010   0.00012   0.00002   0.00003   0.00033
  95       18F+2        0.00037  -0.00041  -0.00010  -0.00009  -0.00002
  96       18F-2        0.00000   0.00000   0.00000   0.00000   0.00000
  97       18F+3        0.00000   0.00000   0.00000   0.00000   0.00000
  98       18F-3        0.00020  -0.00022  -0.00003  -0.00004   0.00014
  99       19F 0       -0.00029   0.00029   0.00007   0.00014  -0.00006
 100       19F+1        0.00000   0.00000   0.00000   0.00000   0.00000
 101       19F-1        0.00024  -0.00030  -0.00001  -0.00010  -0.00032
 102       19F+2       -0.00063   0.00046   0.00005   0.00019   0.00002
 103       19F-2        0.00000   0.00000   0.00000   0.00000   0.00000
 104       19F+3        0.00000   0.00000   0.00000   0.00000   0.00000
 105       19F-3       -0.00035   0.00017  -0.00004   0.00005  -0.00017
 106 3   Br 1S         -0.04526  -0.04057   0.08306  -0.08032   0.00192
 107        2S          0.16760   0.15019  -0.30937   0.29918  -0.00724
 108        3S         -0.35334  -0.31505   0.66714  -0.64553   0.01570
 109        4S         -0.00113  -0.00100   0.00198  -0.00222  -0.00014
 110        5S         -0.01879  -0.01681   0.03227  -0.03106   0.00070
 111        6S          0.00345   0.00254   0.00745  -0.00681   0.00343
 112        7S          0.00215  -0.00043  -0.00265   0.00139   0.00303
 113        8PX         0.00000   0.00000   0.00000   0.00000   0.00000
 114        8PY        -0.18993  -0.21933  -0.10040   0.08241   0.13239
 115        8PZ         0.11896   0.13163   0.05309  -0.07295   0.22726
 116        9PX         0.00000   0.00000   0.00000   0.00000   0.00000
 117        9PY         0.49429   0.57376   0.28132  -0.23042  -0.37482
 118        9PZ        -0.31021  -0.34384  -0.14821   0.20480  -0.64007
 119       10PX         0.00000   0.00000   0.00000   0.00000   0.00000
 120       10PY        -0.00227  -0.00069  -0.00010   0.00078  -0.00122
 121       10PZ         0.00128   0.00092   0.00019  -0.00030  -0.00098
 122       11PX         0.00000   0.00000   0.00000   0.00000   0.00000
 123       11PY         0.02345   0.02722   0.01289  -0.01048  -0.01667
 124       11PZ        -0.01485  -0.01640  -0.00675   0.00935  -0.02854
 125       12PX         0.00000   0.00000   0.00000   0.00000   0.00000
 126       12PY        -0.00149   0.00124   0.00139  -0.00035  -0.00402
 127       12PZ         0.00072  -0.00023  -0.00062   0.00061  -0.00189
 128       13PX         0.00000   0.00000   0.00000   0.00000   0.00000
 129       13PY        -0.00040  -0.00007   0.00025  -0.00021  -0.00020
 130       13PZ         0.00031  -0.00001  -0.00032   0.00007   0.00063
 131       14D 0        0.00211   0.00245   0.00100  -0.00183   0.00791
 132       14D+1        0.00000   0.00000   0.00000   0.00000   0.00000
 133       14D-1        0.02332   0.02629   0.00564  -0.00474  -0.00400
 134       14D+2        0.01375   0.01569   0.00373  -0.00396   0.00466
 135       14D-2        0.00000   0.00000   0.00000   0.00000   0.00000
 136       15D 0        0.00023   0.00018   0.00006  -0.00014   0.00049
 137       15D+1        0.00000   0.00000   0.00000   0.00000   0.00000
 138       15D-1        0.00241   0.00259   0.00030  -0.00028  -0.00025
 139       15D+2        0.00156   0.00159   0.00020  -0.00023   0.00029
 140       15D-2        0.00000   0.00000   0.00000   0.00000   0.00000
 141       16D 0        0.00004   0.00022   0.00003  -0.00002   0.00029
 142       16D+1        0.00000   0.00000   0.00000   0.00000   0.00000
 143       16D-1       -0.00110  -0.00064   0.00011   0.00028  -0.00025
 144       16D+2       -0.00081  -0.00037   0.00004   0.00008   0.00011
 145       16D-2        0.00000   0.00000   0.00000   0.00000   0.00000
 146       17D 0       -0.00005  -0.00002  -0.00005  -0.00003  -0.00004
 147       17D+1        0.00000   0.00000   0.00000   0.00000   0.00000
 148       17D-1       -0.00052  -0.00034   0.00003   0.00004  -0.00044
 149       17D+2       -0.00051   0.00013   0.00021   0.00009  -0.00031
 150       17D-2        0.00000   0.00000   0.00000   0.00000   0.00000
 151       18F 0        0.00023   0.00029   0.00009  -0.00006  -0.00005
 152       18F+1        0.00000   0.00000   0.00000   0.00000   0.00000
 153       18F-1        0.00010   0.00012   0.00002  -0.00003   0.00033
 154       18F+2        0.00037   0.00041   0.00010  -0.00009   0.00002
 155       18F-2        0.00000   0.00000   0.00000   0.00000   0.00000
 156       18F+3        0.00000   0.00000   0.00000   0.00000   0.00000
 157       18F-3       -0.00020  -0.00022  -0.00003   0.00004   0.00014
 158       19F 0       -0.00029  -0.00029  -0.00007   0.00014   0.00006
 159       19F+1        0.00000   0.00000   0.00000   0.00000   0.00000
 160       19F-1       -0.00024  -0.00030  -0.00001   0.00010  -0.00032
 161       19F+2       -0.00063  -0.00046  -0.00005   0.00019  -0.00002
 162       19F-2        0.00000   0.00000   0.00000   0.00000   0.00000
 163       19F+3        0.00000   0.00000   0.00000   0.00000   0.00000
 164       19F-3        0.00035   0.00017  -0.00004  -0.00005  -0.00017
 165 4   O  1S         -0.07226   0.00000   0.00000   0.07386   0.00000
 166        2S          0.00105   0.00000   0.00000  -0.00164   0.00000
 167        3S         -0.00303   0.00000   0.00000   0.00307   0.00000
 168        4S          0.00127   0.00000   0.00000  -0.00065   0.00000
 169        5S          0.00069   0.00000   0.00000   0.00107   0.00000
 170        6PX         0.00000   0.00000   0.00000   0.00000   0.00000
 171        6PY         0.00000   0.00064   0.00030   0.00000   0.00016
 172        6PZ         0.00061   0.00000   0.00000  -0.00054   0.00000
 173        7PX         0.00000   0.00000   0.00000   0.00000   0.00000
 174        7PY         0.00000   0.00073   0.00033   0.00000   0.00032
 175        7PZ         0.00069   0.00000   0.00000  -0.00051   0.00000
 176        8PX         0.00000   0.00000   0.00000   0.00000   0.00000
 177        8PY         0.00000  -0.00028  -0.00010   0.00000   0.00110
 178        8PZ         0.00040   0.00000   0.00000  -0.00091   0.00000
 179        9PX         0.00000   0.00000   0.00000   0.00000   0.00000
 180        9PY         0.00000  -0.00071  -0.00066   0.00000   0.00016
 181        9PZ         0.00019   0.00000   0.00000  -0.00041   0.00000
 182       10D 0       -0.00003   0.00000   0.00000   0.00002   0.00000
 183       10D+1        0.00000   0.00000   0.00000   0.00000   0.00000
 184       10D-1        0.00000   0.00003  -0.00002   0.00000   0.00001
 185       10D+2        0.00003   0.00000   0.00000   0.00000   0.00000
 186       10D-2        0.00000   0.00000   0.00000   0.00000   0.00000
 187       11D 0       -0.00024   0.00000   0.00000   0.00016   0.00000
 188       11D+1        0.00000   0.00000   0.00000   0.00000   0.00000
 189       11D-1        0.00000   0.00016   0.00011   0.00000  -0.00008
 190       11D+2       -0.00010   0.00000   0.00000  -0.00003   0.00000
 191       11D-2        0.00000   0.00000   0.00000   0.00000   0.00000
 192       12D 0       -0.00044   0.00000   0.00000   0.00030   0.00000
 193       12D+1        0.00000   0.00000   0.00000   0.00000   0.00000
 194       12D-1        0.00000   0.00032   0.00010   0.00000  -0.00035
 195       12D+2       -0.00023   0.00000   0.00000  -0.00013   0.00000
 196       12D-2        0.00000   0.00000   0.00000   0.00000   0.00000
 197       13F 0       -0.00010   0.00000   0.00000   0.00004   0.00000
 198       13F+1        0.00000   0.00000   0.00000   0.00000   0.00000
 199       13F-1        0.00000  -0.00001   0.00000   0.00000   0.00003
 200       13F+2        0.00000   0.00000   0.00000  -0.00001   0.00000
 201       13F-2        0.00000   0.00000   0.00000   0.00000   0.00000
 202       13F+3        0.00000   0.00000   0.00000   0.00000   0.00000
 203       13F-3        0.00000  -0.00002   0.00001   0.00000   0.00000
 204       14F 0        0.00026   0.00000   0.00000  -0.00008   0.00000
 205       14F+1        0.00000   0.00000   0.00000   0.00000   0.00000
 206       14F-1        0.00000  -0.00006  -0.00005   0.00000  -0.00003
 207       14F+2        0.00014   0.00000   0.00000   0.00003   0.00000
 208       14F-2        0.00000   0.00000   0.00000   0.00000   0.00000
 209       14F+3        0.00000   0.00000   0.00000   0.00000   0.00000
 210       14F-3        0.00000   0.00005  -0.00003   0.00000   0.00001
                           6         7         8         9        10
     Eigenvalues --     2.00001   2.00001   2.00001   2.00001   2.00000
   1 1   C  1S         -0.06929   0.00000  -0.44996   0.00000   0.74869
   2        2S          0.00071   0.00000   0.00529   0.00000  -0.00712
   3        3S         -0.00296   0.00000  -0.01877   0.00000   0.03152
   4        4S         -0.00333   0.00000  -0.00199   0.00000   0.00276
   5        5S         -0.00156   0.00000  -0.00095   0.00000   0.00269
   6        6PX         0.00000   0.00000   0.00000   0.00061   0.00000
   7        6PY         0.00000   0.00000   0.00000   0.00000   0.00000
   8        6PZ         0.00029   0.00000   0.00090   0.00000  -0.00114
   9        7PX         0.00000   0.00000   0.00000   0.00102   0.00000
  10        7PY         0.00000   0.00000   0.00000   0.00000   0.00000
  11        7PZ        -0.00005   0.00000   0.00074   0.00000   0.00312
  12        8PX         0.00000   0.00000   0.00000   0.00128   0.00000
  13        8PY         0.00000   0.00000   0.00000   0.00000   0.00000
  14        8PZ         0.00571   0.00000   0.00035   0.00000  -0.00157
  15        9PX         0.00000   0.00000   0.00000   0.00005   0.00000
  16        9PY         0.00000   0.00000   0.00000   0.00000   0.00000
  17        9PZ         0.00015   0.00000   0.00021   0.00000  -0.00016
  18       10D 0       -0.00017   0.00000  -0.00012   0.00000   0.00067
  19       10D+1        0.00000   0.00000   0.00000  -0.00010   0.00000
  20       10D-1        0.00000   0.00000   0.00000   0.00000   0.00000
  21       10D+2       -0.00008   0.00000   0.00015   0.00000  -0.00019
  22       10D-2        0.00000  -0.00009   0.00000   0.00000   0.00000
  23       11D 0       -0.00037   0.00000   0.00081   0.00000   0.00092
  24       11D+1        0.00000   0.00000   0.00000  -0.00075   0.00000
  25       11D-1        0.00000   0.00000   0.00000   0.00000   0.00000
  26       11D+2       -0.00019   0.00000  -0.00029   0.00000   0.00102
  27       11D-2        0.00000  -0.00069   0.00000   0.00000   0.00000
  28       12D 0       -0.00023   0.00000  -0.00006   0.00000  -0.00108
  29       12D+1        0.00000   0.00000   0.00000  -0.00063   0.00000
  30       12D-1        0.00000   0.00000   0.00000   0.00000   0.00000
  31       12D+2        0.00040   0.00000   0.00025   0.00000  -0.00099
  32       12D-2        0.00000   0.00012   0.00000   0.00000   0.00000
  33       13F 0       -0.00011   0.00000  -0.00029   0.00000   0.00034
  34       13F+1        0.00000   0.00000   0.00000  -0.00006   0.00000
  35       13F-1        0.00000   0.00000   0.00000   0.00000   0.00000
  36       13F+2        0.00003   0.00000   0.00001   0.00000  -0.00009
  37       13F-2        0.00000  -0.00001   0.00000   0.00000   0.00000
  38       13F+3        0.00000   0.00000   0.00000   0.00002   0.00000
  39       13F-3        0.00000   0.00000   0.00000   0.00000   0.00000
  40       14F 0        0.00049   0.00000   0.00117   0.00000  -0.00062
  41       14F+1        0.00000   0.00000   0.00000   0.00008   0.00000
  42       14F-1        0.00000   0.00000   0.00000   0.00000   0.00000
  43       14F+2       -0.00030   0.00000   0.00066   0.00000  -0.00060
  44       14F-2        0.00000   0.00021   0.00000   0.00000   0.00000
  45       14F+3        0.00000   0.00000   0.00000  -0.00035   0.00000
  46       14F-3        0.00000   0.00000   0.00000   0.00000   0.00000
  47 2   Br 1S          0.00607   0.00000   0.00238   0.00000   0.00022
  48        2S         -0.02280   0.00000  -0.00930   0.00000  -0.00001
  49        3S          0.05012   0.00000   0.02412   0.00000  -0.00883
  50        4S          0.00000   0.00000  -0.00050   0.00000   0.00092
  51        5S          0.00236   0.00000   0.00098   0.00000  -0.00059
  52        6S          0.00326   0.00000   0.00079   0.00000  -0.00092
  53        7S          0.00109   0.00000   0.00029   0.00000  -0.00112
  54        8PX         0.00000  -0.26231   0.00000  -0.26284   0.00000
  55        8PY         0.15868   0.00000   0.05028   0.00000  -0.08583
  56        8PZ        -0.20456   0.00000   0.09215   0.00000  -0.05135
  57        9PX         0.00000   0.74193   0.00000   0.74227   0.00000
  58        9PY        -0.44258   0.00000  -0.12119   0.00000   0.20423
  59        9PZ         0.57921   0.00000  -0.24758   0.00000   0.12337
  60       10PX         0.00000   0.00131   0.00000   0.00073   0.00000
  61       10PY         0.00020   0.00000   0.00059   0.00000  -0.00044
  62       10PZ         0.00133   0.00000  -0.00001   0.00000   0.00016
  63       11PX         0.00000   0.03316   0.00000   0.03283   0.00000
  64       11PY        -0.01966   0.00000  -0.00536   0.00000   0.00863
  65       11PZ         0.02572   0.00000  -0.01090   0.00000   0.00514
  66       12PX         0.00000   0.00389   0.00000   0.00273   0.00000
  67       12PY        -0.00015   0.00000   0.00027   0.00000  -0.00012
  68       12PZ         0.00318   0.00000  -0.00071   0.00000  -0.00053
  69       13PX         0.00000  -0.00032   0.00000  -0.00025   0.00000
  70       13PY         0.00029   0.00000   0.00007   0.00000  -0.00025
  71       13PZ         0.00002   0.00000   0.00005   0.00000  -0.00019
  72       14D 0       -0.00758   0.00000   0.00249   0.00000  -0.00103
  73       14D+1        0.00000   0.00115   0.00000   0.00124   0.00000
  74       14D-1       -0.00687   0.00000  -0.00791   0.00000   0.00954
  75       14D+2       -0.00298   0.00000   0.00628   0.00000  -0.00590
  76       14D-2        0.00000   0.00211   0.00000   0.00204   0.00000
  77       15D 0       -0.00042   0.00000   0.00019   0.00000  -0.00009
  78       15D+1        0.00000   0.00017   0.00000   0.00019   0.00000
  79       15D-1       -0.00042   0.00000  -0.00072   0.00000   0.00085
  80       15D+2       -0.00013   0.00000   0.00061   0.00000  -0.00058
  81       15D-2        0.00000   0.00027   0.00000   0.00032   0.00000
  82       16D 0       -0.00037   0.00000   0.00006   0.00000   0.00012
  83       16D+1        0.00000  -0.00010   0.00000  -0.00015   0.00000
  84       16D-1       -0.00010   0.00000  -0.00025   0.00000   0.00071
  85       16D+2       -0.00032   0.00000  -0.00003   0.00000  -0.00020
  86       16D-2        0.00000  -0.00017   0.00000  -0.00017   0.00000
  87       17D 0       -0.00023   0.00000  -0.00003   0.00000  -0.00010
  88       17D+1        0.00000   0.00009   0.00000  -0.00009   0.00000
  89       17D-1        0.00020   0.00000   0.00005   0.00000  -0.00022
  90       17D+2       -0.00032   0.00000  -0.00008   0.00000   0.00003
  91       17D-2        0.00000   0.00016   0.00000  -0.00022   0.00000
  92       18F 0        0.00008   0.00000   0.00008   0.00000  -0.00012
  93       18F+1        0.00000   0.00001   0.00000   0.00001   0.00000
  94       18F-1        0.00031   0.00000  -0.00008   0.00000   0.00008
  95       18F+2        0.00000   0.00000   0.00014   0.00000  -0.00022
  96       18F-2        0.00000   0.00022   0.00000   0.00025   0.00000
  97       18F+3        0.00000  -0.00018   0.00000  -0.00022   0.00000
  98       18F-3        0.00008   0.00000   0.00007   0.00000  -0.00010
  99       19F 0       -0.00008   0.00000   0.00009   0.00000  -0.00010
 100       19F+1        0.00000  -0.00001   0.00000  -0.00003   0.00000
 101       19F-1       -0.00037   0.00000  -0.00001   0.00000   0.00017
 102       19F+2        0.00003   0.00000   0.00000   0.00000  -0.00010
 103       19F-2        0.00000  -0.00017   0.00000  -0.00025   0.00000
 104       19F+3        0.00000   0.00013   0.00000   0.00024   0.00000
 105       19F-3       -0.00010   0.00000  -0.00010   0.00000   0.00001
 106 3   Br 1S          0.00607   0.00000   0.00238   0.00000   0.00022
 107        2S         -0.02280   0.00000  -0.00930   0.00000  -0.00001
 108        3S          0.05012   0.00000   0.02412   0.00000  -0.00883
 109        4S          0.00000   0.00000  -0.00050   0.00000   0.00092
 110        5S          0.00236   0.00000   0.00098   0.00000  -0.00059
 111        6S          0.00326   0.00000   0.00079   0.00000  -0.00092
 112        7S          0.00109   0.00000   0.00029   0.00000  -0.00112
 113        8PX         0.00000   0.26231   0.00000  -0.26284   0.00000
 114        8PY        -0.15868   0.00000  -0.05028   0.00000   0.08583
 115        8PZ        -0.20456   0.00000   0.09215   0.00000  -0.05135
 116        9PX         0.00000  -0.74193   0.00000   0.74227   0.00000
 117        9PY         0.44258   0.00000   0.12119   0.00000  -0.20423
 118        9PZ         0.57921   0.00000  -0.24758   0.00000   0.12337
 119       10PX         0.00000  -0.00131   0.00000   0.00073   0.00000
 120       10PY        -0.00020   0.00000  -0.00059   0.00000   0.00044
 121       10PZ         0.00133   0.00000  -0.00001   0.00000   0.00016
 122       11PX         0.00000  -0.03316   0.00000   0.03283   0.00000
 123       11PY         0.01966   0.00000   0.00536   0.00000  -0.00863
 124       11PZ         0.02572   0.00000  -0.01090   0.00000   0.00514
 125       12PX         0.00000  -0.00389   0.00000   0.00273   0.00000
 126       12PY         0.00015   0.00000  -0.00027   0.00000   0.00012
 127       12PZ         0.00318   0.00000  -0.00071   0.00000  -0.00053
 128       13PX         0.00000   0.00032   0.00000  -0.00025   0.00000
 129       13PY        -0.00029   0.00000  -0.00007   0.00000   0.00025
 130       13PZ         0.00002   0.00000   0.00005   0.00000  -0.00019
 131       14D 0       -0.00758   0.00000   0.00249   0.00000  -0.00103
 132       14D+1        0.00000  -0.00115   0.00000   0.00124   0.00000
 133       14D-1        0.00687   0.00000   0.00791   0.00000  -0.00954
 134       14D+2       -0.00298   0.00000   0.00628   0.00000  -0.00590
 135       14D-2        0.00000   0.00211   0.00000  -0.00204   0.00000
 136       15D 0       -0.00042   0.00000   0.00019   0.00000  -0.00009
 137       15D+1        0.00000  -0.00017   0.00000   0.00019   0.00000
 138       15D-1        0.00042   0.00000   0.00072   0.00000  -0.00085
 139       15D+2       -0.00013   0.00000   0.00061   0.00000  -0.00058
 140       15D-2        0.00000   0.00027   0.00000  -0.00032   0.00000
 141       16D 0       -0.00037   0.00000   0.00006   0.00000   0.00012
 142       16D+1        0.00000   0.00010   0.00000  -0.00015   0.00000
 143       16D-1        0.00010   0.00000   0.00025   0.00000  -0.00071
 144       16D+2       -0.00032   0.00000  -0.00003   0.00000  -0.00020
 145       16D-2        0.00000  -0.00017   0.00000   0.00017   0.00000
 146       17D 0       -0.00023   0.00000  -0.00003   0.00000  -0.00010
 147       17D+1        0.00000  -0.00009   0.00000  -0.00009   0.00000
 148       17D-1       -0.00020   0.00000  -0.00005   0.00000   0.00022
 149       17D+2       -0.00032   0.00000  -0.00008   0.00000   0.00003
 150       17D-2        0.00000   0.00016   0.00000   0.00022   0.00000
 151       18F 0        0.00008   0.00000   0.00008   0.00000  -0.00012
 152       18F+1        0.00000  -0.00001   0.00000   0.00001   0.00000
 153       18F-1       -0.00031   0.00000   0.00008   0.00000  -0.00008
 154       18F+2        0.00000   0.00000   0.00014   0.00000  -0.00022
 155       18F-2        0.00000   0.00022   0.00000  -0.00025   0.00000
 156       18F+3        0.00000   0.00018   0.00000  -0.00022   0.00000
 157       18F-3       -0.00008   0.00000  -0.00007   0.00000   0.00010
 158       19F 0       -0.00008   0.00000   0.00009   0.00000  -0.00010
 159       19F+1        0.00000   0.00001   0.00000  -0.00003   0.00000
 160       19F-1        0.00037   0.00000   0.00001   0.00000  -0.00017
 161       19F+2        0.00003   0.00000   0.00000   0.00000  -0.00010
 162       19F-2        0.00000  -0.00017   0.00000   0.00025   0.00000
 163       19F+3        0.00000  -0.00013   0.00000   0.00024   0.00000
 164       19F-3        0.00010   0.00000   0.00010   0.00000  -0.00001
 165 4   O  1S          0.15591   0.00000   0.78996   0.00000   0.54800
 166        2S         -0.00299   0.00000  -0.01516   0.00000  -0.00903
 167        3S          0.00659   0.00000   0.03346   0.00000   0.02375
 168        4S         -0.00151   0.00000  -0.00239   0.00000  -0.00133
 169        5S         -0.00191   0.00000   0.00055   0.00000  -0.00137
 170        6PX         0.00000   0.00000   0.00000  -0.00048   0.00000
 171        6PY         0.00000   0.00000   0.00000   0.00000   0.00000
 172        6PZ        -0.00063   0.00000  -0.00399   0.00000  -0.00041
 173        7PX         0.00000   0.00000   0.00000  -0.00055   0.00000
 174        7PY         0.00000   0.00000   0.00000   0.00000   0.00000
 175        7PZ        -0.00012   0.00000  -0.00171   0.00000   0.00260
 176        8PX         0.00000   0.00000   0.00000  -0.00035   0.00000
 177        8PY         0.00000   0.00000   0.00000   0.00000   0.00000
 178        8PZ        -0.00135   0.00000  -0.00341   0.00000   0.00219
 179        9PX         0.00000   0.00000   0.00000   0.00004   0.00000
 180        9PY         0.00000   0.00000   0.00000   0.00000   0.00000
 181        9PZ         0.00066   0.00000  -0.00053   0.00000   0.00042
 182       10D 0        0.00004   0.00000   0.00022   0.00000   0.00009
 183       10D+1        0.00000   0.00000   0.00000   0.00000   0.00000
 184       10D-1        0.00000   0.00000   0.00000   0.00000   0.00000
 185       10D+2       -0.00003   0.00000  -0.00005   0.00000  -0.00002
 186       10D-2        0.00000  -0.00001   0.00000   0.00000   0.00000
 187       11D 0        0.00003   0.00000  -0.00014   0.00000  -0.00099
 188       11D+1        0.00000   0.00000   0.00000  -0.00009   0.00000
 189       11D-1        0.00000   0.00000   0.00000   0.00000   0.00000
 190       11D+2        0.00005   0.00000  -0.00013   0.00000  -0.00006
 191       11D-2        0.00000   0.00002   0.00000   0.00000   0.00000
 192       12D 0        0.00077   0.00000   0.00050   0.00000  -0.00055
 193       12D+1        0.00000   0.00000   0.00000  -0.00010   0.00000
 194       12D-1        0.00000   0.00000   0.00000   0.00000   0.00000
 195       12D+2        0.00000   0.00000  -0.00029   0.00000   0.00040
 196       12D-2        0.00000  -0.00003   0.00000   0.00000   0.00000
 197       13F 0        0.00001   0.00000   0.00010   0.00000  -0.00012
 198       13F+1        0.00000   0.00000   0.00000   0.00000   0.00000
 199       13F-1        0.00000   0.00000   0.00000   0.00000   0.00000
 200       13F+2       -0.00001   0.00000  -0.00002   0.00000  -0.00002
 201       13F-2        0.00000   0.00000   0.00000   0.00000   0.00000
 202       13F+3        0.00000   0.00000   0.00000  -0.00001   0.00000
 203       13F-3        0.00000   0.00000   0.00000   0.00000   0.00000
 204       14F 0       -0.00008   0.00000   0.00000   0.00000   0.00037
 205       14F+1        0.00000   0.00000   0.00000   0.00007   0.00000
 206       14F-1        0.00000   0.00000   0.00000   0.00000   0.00000
 207       14F+2        0.00002   0.00000   0.00009   0.00000  -0.00003
 208       14F-2        0.00000  -0.00003   0.00000   0.00000   0.00000
 209       14F+3        0.00000   0.00000   0.00000   0.00004   0.00000
 210       14F-3        0.00000   0.00000   0.00000   0.00000   0.00000
                          11        12        13        14        15
     Eigenvalues --     2.00000   2.00000   2.00000   2.00000   2.00000
   1 1   C  1S          0.00000  -0.00148   0.00000   0.01318   0.00000
   2        2S          0.00000   0.00005   0.00000  -0.00010   0.00000
   3        3S          0.00000  -0.00006   0.00000   0.00061   0.00000
   4        4S          0.00000   0.00036   0.00000  -0.00105   0.00000
   5        5S          0.00000   0.00019   0.00000  -0.00037   0.00000
   6        6PX         0.00000   0.00000   0.00000   0.00000   0.00001
   7        6PY        -0.00002   0.00000  -0.00001   0.00000   0.00000
   8        6PZ         0.00000   0.00001   0.00000  -0.00004   0.00000
   9        7PX         0.00000   0.00000   0.00000   0.00000   0.00000
  10        7PY         0.00006   0.00000   0.00004   0.00000   0.00000
  11        7PZ         0.00000   0.00007   0.00000   0.00009   0.00000
  12        8PX         0.00000   0.00000   0.00000   0.00000  -0.00006
  13        8PY         0.00030   0.00000   0.00064   0.00000   0.00000
  14        8PZ         0.00000  -0.00054   0.00000   0.00038   0.00000
  15        9PX         0.00000   0.00000   0.00000   0.00000   0.00000
  16        9PY        -0.00012   0.00000   0.00009   0.00000   0.00000
  17        9PZ         0.00000  -0.00001   0.00000   0.00005   0.00000
  18       10D 0        0.00000   0.00000   0.00000   0.00001   0.00000
  19       10D+1        0.00000   0.00000   0.00000   0.00000   0.00000
  20       10D-1        0.00000   0.00000   0.00000   0.00000   0.00000
  21       10D+2        0.00000   0.00000   0.00000   0.00000   0.00000
  22       10D-2        0.00000   0.00000   0.00000   0.00000   0.00000
  23       11D 0        0.00000   0.00004   0.00000   0.00001   0.00000
  24       11D+1        0.00000   0.00000   0.00000   0.00000   0.00005
  25       11D-1       -0.00008   0.00000  -0.00003   0.00000   0.00000
  26       11D+2        0.00000   0.00001   0.00000   0.00014   0.00000
  27       11D-2        0.00000   0.00000   0.00000   0.00000   0.00000
  28       12D 0        0.00000  -0.00001   0.00000   0.00008   0.00000
  29       12D+1        0.00000   0.00000   0.00000   0.00000   0.00004
  30       12D-1       -0.00016   0.00000  -0.00023   0.00000   0.00000
  31       12D+2        0.00000  -0.00005   0.00000   0.00017   0.00000
  32       12D-2        0.00000   0.00000   0.00000   0.00000   0.00000
  33       13F 0        0.00000   0.00001   0.00000   0.00000   0.00000
  34       13F+1        0.00000   0.00000   0.00000   0.00000   0.00001
  35       13F-1        0.00000   0.00000   0.00001   0.00000   0.00000
  36       13F+2        0.00000   0.00000   0.00000   0.00000   0.00000
  37       13F-2        0.00000   0.00000   0.00000   0.00000   0.00000
  38       13F+3        0.00000   0.00000   0.00000   0.00000   0.00000
  39       13F-3        0.00000   0.00000   0.00001   0.00000   0.00000
  40       14F 0        0.00000  -0.00003   0.00000   0.00002   0.00000
  41       14F+1        0.00000   0.00000   0.00000   0.00000  -0.00001
  42       14F-1       -0.00001   0.00000  -0.00009   0.00000   0.00000
  43       14F+2        0.00000   0.00005   0.00000   0.00001   0.00000
  44       14F-2        0.00000   0.00000   0.00000   0.00000   0.00000
  45       14F+3        0.00000   0.00000   0.00000   0.00000   0.00004
  46       14F-3       -0.00001   0.00000  -0.00006   0.00000   0.00000
  47 2   Br 1S         -0.05335   0.00242  -0.02003  -0.03920   0.00000
  48        2S          0.16463  -0.00723   0.06461   0.12586   0.00000
  49        3S          0.01435  -0.00073   0.00585   0.01301   0.00000
  50        4S         -0.00011   0.00003  -0.00009  -0.00015   0.00000
  51        5S          0.00043  -0.00002   0.00017   0.00038   0.00000
  52        6S          0.00042  -0.00030   0.00054   0.00065   0.00000
  53        7S         -0.00017  -0.00013   0.00022   0.00017   0.00000
  54        8PX         0.00000   0.00000   0.00000   0.00001   0.71315
  55        8PY         0.68346  -0.41196  -0.10291   0.56400   0.00000
  56        8PZ         0.08014   0.58163   0.70134   0.40256   0.00000
  57        9PX         0.00000   0.00000   0.00000   0.00000  -0.01617
  58        9PY        -0.00120   0.00744   0.00850   0.00709   0.00000
  59        9PZ         0.00722  -0.01370  -0.01154   0.00309   0.00000
  60       10PX         0.00000   0.00000   0.00000   0.00000   0.00028
  61       10PY         0.00033  -0.00023  -0.00001   0.00032   0.00000
  62       10PZ         0.00008   0.00023   0.00037   0.00022   0.00000
  63       11PX         0.00000   0.00000   0.00000   0.00000  -0.00122
  64       11PY        -0.00063   0.00064   0.00040  -0.00023   0.00000
  65       11PZ         0.00019  -0.00101  -0.00105  -0.00023   0.00000
  66       12PX         0.00000   0.00000   0.00000   0.00000  -0.00006
  67       12PY         0.00001  -0.00012   0.00028   0.00020   0.00000
  68       12PZ         0.00007  -0.00013   0.00007   0.00020   0.00000
  69       13PX         0.00000   0.00000   0.00000   0.00000   0.00002
  70       13PY        -0.00001  -0.00003   0.00001   0.00002   0.00000
  71       13PZ        -0.00003   0.00000   0.00005   0.00002   0.00000
  72       14D 0       -0.00012   0.00033   0.00030   0.00002   0.00000
  73       14D+1        0.00000   0.00000   0.00000   0.00000  -0.00004
  74       14D-1       -0.00033   0.00018   0.00005  -0.00007   0.00000
  75       14D+2        0.00011   0.00017   0.00024   0.00009   0.00000
  76       14D-2        0.00000   0.00000   0.00000   0.00000  -0.00009
  77       15D 0        0.00000   0.00000   0.00001   0.00000   0.00000
  78       15D+1        0.00000   0.00000   0.00000   0.00000  -0.00002
  79       15D-1       -0.00004   0.00000  -0.00002  -0.00004   0.00000
  80       15D+2        0.00003   0.00000   0.00002   0.00003   0.00000
  81       15D-2        0.00000   0.00000   0.00000   0.00000  -0.00002
  82       16D 0       -0.00001   0.00006   0.00007   0.00000   0.00000
  83       16D+1        0.00000   0.00000   0.00000   0.00000   0.00003
  84       16D-1        0.00007   0.00002   0.00008   0.00012   0.00000
  85       16D+2       -0.00006   0.00005   0.00000  -0.00010   0.00000
  86       16D-2        0.00000   0.00000   0.00000   0.00000   0.00004
  87       17D 0        0.00000   0.00001  -0.00002   0.00002   0.00000
  88       17D+1        0.00000   0.00000   0.00000   0.00000   0.00000
  89       17D-1        0.00002  -0.00003   0.00004   0.00006   0.00000
  90       17D+2        0.00002   0.00003  -0.00004  -0.00003   0.00000
  91       17D-2        0.00000   0.00000   0.00000   0.00000   0.00001
  92       18F 0        0.00000   0.00000   0.00000   0.00000   0.00000
  93       18F+1        0.00000   0.00000   0.00000   0.00000   0.00000
  94       18F-1        0.00001  -0.00001   0.00000   0.00000   0.00000
  95       18F+2        0.00000   0.00000   0.00000  -0.00001   0.00000
  96       18F-2        0.00000   0.00000   0.00000   0.00000   0.00000
  97       18F+3        0.00000   0.00000   0.00000   0.00000   0.00000
  98       18F-3        0.00000   0.00000   0.00000  -0.00001   0.00000
  99       19F 0       -0.00002   0.00000   0.00000  -0.00001   0.00000
 100       19F+1        0.00000   0.00000   0.00000   0.00000   0.00000
 101       19F-1        0.00001   0.00003   0.00004   0.00002   0.00000
 102       19F+2       -0.00002   0.00000  -0.00001  -0.00004   0.00000
 103       19F-2        0.00000   0.00000   0.00000   0.00000   0.00002
 104       19F+3        0.00000   0.00000   0.00000   0.00000  -0.00002
 105       19F-3       -0.00001   0.00001   0.00001  -0.00002   0.00000
 106 3   Br 1S          0.05335   0.00242   0.02003  -0.03920   0.00000
 107        2S         -0.16463  -0.00722  -0.06461   0.12586   0.00000
 108        3S         -0.01435  -0.00072  -0.00585   0.01301   0.00000
 109        4S          0.00011   0.00003   0.00009  -0.00015   0.00000
 110        5S         -0.00043  -0.00002  -0.00017   0.00038   0.00000
 111        6S         -0.00042  -0.00030  -0.00054   0.00065   0.00000
 112        7S          0.00017  -0.00013  -0.00022   0.00017   0.00000
 113        8PX         0.00000   0.00000   0.00000   0.00000   0.71292
 114        8PY         0.68348   0.41192  -0.10290  -0.56400   0.00000
 115        8PZ        -0.08010   0.58167  -0.70131   0.40257   0.00000
 116        9PX         0.00000   0.00000   0.00000   0.00000  -0.01617
 117        9PY        -0.00120  -0.00744   0.00850  -0.00709   0.00000
 118        9PZ        -0.00722  -0.01370   0.01154   0.00309   0.00000
 119       10PX         0.00000   0.00000   0.00000   0.00000   0.00028
 120       10PY         0.00033   0.00023  -0.00001  -0.00032   0.00000
 121       10PZ        -0.00008   0.00023  -0.00037   0.00022   0.00000
 122       11PX         0.00000   0.00000   0.00000   0.00000  -0.00122
 123       11PY        -0.00063  -0.00064   0.00040   0.00023   0.00000
 124       11PZ        -0.00019  -0.00101   0.00104  -0.00023   0.00000
 125       12PX         0.00000   0.00000   0.00000   0.00000  -0.00006
 126       12PY         0.00001   0.00012   0.00028  -0.00020   0.00000
 127       12PZ        -0.00007  -0.00013  -0.00007   0.00020   0.00000
 128       13PX         0.00000   0.00000   0.00000   0.00000   0.00002
 129       13PY        -0.00001   0.00003   0.00001  -0.00002   0.00000
 130       13PZ         0.00003   0.00000  -0.00005   0.00002   0.00000
 131       14D 0        0.00012   0.00033  -0.00030   0.00002   0.00000
 132       14D+1        0.00000   0.00000   0.00000   0.00000  -0.00004
 133       14D-1       -0.00033  -0.00018   0.00005   0.00007   0.00000
 134       14D+2       -0.00011   0.00017  -0.00024   0.00009   0.00000
 135       14D-2        0.00000   0.00000   0.00000   0.00000   0.00009
 136       15D 0        0.00000   0.00000  -0.00001   0.00000   0.00000
 137       15D+1        0.00000   0.00000   0.00000   0.00000  -0.00002
 138       15D-1       -0.00004   0.00000  -0.00002   0.00004   0.00000
 139       15D+2       -0.00003   0.00000  -0.00002   0.00003   0.00000
 140       15D-2        0.00000   0.00000   0.00000   0.00000   0.00002
 141       16D 0        0.00001   0.00006  -0.00007   0.00000   0.00000
 142       16D+1        0.00000   0.00000   0.00000   0.00000   0.00003
 143       16D-1        0.00007  -0.00002   0.00008  -0.00012   0.00000
 144       16D+2        0.00006   0.00005   0.00000  -0.00010   0.00000
 145       16D-2        0.00000   0.00000   0.00000   0.00000  -0.00004
 146       17D 0        0.00000   0.00001   0.00002   0.00002   0.00000
 147       17D+1        0.00000   0.00000   0.00000   0.00000   0.00000
 148       17D-1        0.00002   0.00003   0.00004  -0.00006   0.00000
 149       17D+2       -0.00002   0.00003   0.00004  -0.00003   0.00000
 150       17D-2        0.00000   0.00000   0.00000   0.00000  -0.00001
 151       18F 0        0.00000   0.00000   0.00000   0.00000   0.00000
 152       18F+1        0.00000   0.00000   0.00000   0.00000   0.00000
 153       18F-1        0.00001   0.00001   0.00000   0.00000   0.00000
 154       18F+2        0.00000   0.00000   0.00000  -0.00001   0.00000
 155       18F-2        0.00000   0.00000   0.00000   0.00000   0.00000
 156       18F+3        0.00000   0.00000   0.00000   0.00000   0.00000
 157       18F-3        0.00000   0.00000   0.00000   0.00001   0.00000
 158       19F 0        0.00002   0.00000   0.00000  -0.00001   0.00000
 159       19F+1        0.00000   0.00000   0.00000   0.00000   0.00000
 160       19F-1        0.00001  -0.00003   0.00004  -0.00002   0.00000
 161       19F+2        0.00002   0.00000   0.00001  -0.00004   0.00000
 162       19F-2        0.00000   0.00000   0.00000   0.00000  -0.00002
 163       19F+3        0.00000   0.00000   0.00000   0.00000  -0.00002
 164       19F-3       -0.00001  -0.00001   0.00001   0.00002   0.00000
 165 4   O  1S          0.00000  -0.00053   0.00000   0.00399   0.00000
 166        2S          0.00000   0.00000   0.00000  -0.00010   0.00000
 167        3S          0.00000  -0.00002   0.00000   0.00018   0.00000
 168        4S          0.00000   0.00006   0.00000   0.00005   0.00000
 169        5S          0.00000   0.00018   0.00000  -0.00004   0.00000
 170        6PX         0.00000   0.00000   0.00000   0.00000   0.00000
 171        6PY         0.00000   0.00000   0.00000   0.00000   0.00000
 172        6PZ         0.00000   0.00000   0.00000   0.00002   0.00000
 173        7PX         0.00000   0.00000   0.00000   0.00000  -0.00001
 174        7PY         0.00001   0.00000   0.00002   0.00000   0.00000
 175        7PZ         0.00000   0.00001   0.00000   0.00006   0.00000
 176        8PX         0.00000   0.00000   0.00000   0.00000  -0.00002
 177        8PY         0.00003   0.00000   0.00000   0.00000   0.00000
 178        8PZ         0.00000   0.00011   0.00000  -0.00005   0.00000
 179        9PX         0.00000   0.00000   0.00000   0.00000  -0.00001
 180        9PY         0.00007   0.00000   0.00003   0.00000   0.00000
 181        9PZ         0.00000  -0.00007   0.00000   0.00002   0.00000
 182       10D 0        0.00000   0.00000   0.00000   0.00000   0.00000
 183       10D+1        0.00000   0.00000   0.00000   0.00000   0.00000
 184       10D-1        0.00000   0.00000   0.00000   0.00000   0.00000
 185       10D+2        0.00000   0.00000   0.00000   0.00000   0.00000
 186       10D-2        0.00000   0.00000   0.00000   0.00000   0.00000
 187       11D 0        0.00000  -0.00001   0.00000  -0.00001   0.00000
 188       11D+1        0.00000   0.00000   0.00000   0.00000   0.00001
 189       11D-1       -0.00001   0.00000   0.00000   0.00000   0.00000
 190       11D+2        0.00000  -0.00001   0.00000  -0.00001   0.00000
 191       11D-2        0.00000   0.00000   0.00000   0.00000   0.00000
 192       12D 0        0.00000  -0.00007   0.00000   0.00000   0.00000
 193       12D+1        0.00000   0.00000   0.00000   0.00000   0.00001
 194       12D-1        0.00000   0.00000   0.00002   0.00000   0.00000
 195       12D+2        0.00000  -0.00001   0.00000  -0.00004   0.00000
 196       12D-2        0.00000   0.00000   0.00000   0.00000   0.00000
 197       13F 0        0.00000   0.00000   0.00000  -0.00001   0.00000
 198       13F+1        0.00000   0.00000   0.00000   0.00000   0.00000
 199       13F-1        0.00000   0.00000   0.00000   0.00000   0.00000
 200       13F+2        0.00000   0.00000   0.00000   0.00000   0.00000
 201       13F-2        0.00000   0.00000   0.00000   0.00000   0.00000
 202       13F+3        0.00000   0.00000   0.00000   0.00000   0.00000
 203       13F-3        0.00000   0.00000   0.00000   0.00000   0.00000
 204       14F 0        0.00000   0.00001   0.00000   0.00002   0.00000
 205       14F+1        0.00000   0.00000   0.00000   0.00000  -0.00001
 206       14F-1        0.00000   0.00000  -0.00001   0.00000   0.00000
 207       14F+2        0.00000   0.00001   0.00000   0.00002   0.00000
 208       14F-2        0.00000   0.00000   0.00000   0.00000   0.00000
 209       14F+3        0.00000   0.00000   0.00000   0.00000  -0.00001
 210       14F-3        0.00000   0.00000   0.00000   0.00000   0.00000
                          16        17        18        19        20
     Eigenvalues --     2.00000   2.00000   2.00000   2.00000   2.00000
   1 1   C  1S          0.00000   0.00000   0.00149   0.00000   0.00005
   2        2S          0.00000   0.00000  -0.00001   0.00000   0.00000
   3        3S          0.00000   0.00000   0.00006   0.00000   0.00000
   4        4S          0.00000   0.00000   0.00007   0.00000   0.00001
   5        5S          0.00000   0.00000   0.00007   0.00000   0.00000
   6        6PX         0.00000   0.00000   0.00000   0.00000   0.00000
   7        6PY         0.00000   0.00000   0.00000   0.00000   0.00000
   8        6PZ         0.00000   0.00000   0.00000   0.00000   0.00000
   9        7PX         0.00000   0.00000   0.00000   0.00000   0.00000
  10        7PY         0.00000  -0.00002   0.00000   0.00000   0.00000
  11        7PZ         0.00000   0.00000  -0.00001   0.00000   0.00000
  12        8PX         0.00000   0.00000   0.00000   0.00000   0.00000
  13        8PY         0.00000   0.00001   0.00000  -0.00001   0.00000
  14        8PZ         0.00000   0.00000  -0.00001   0.00000  -0.00001
  15        9PX         0.00000   0.00000   0.00000   0.00000   0.00000
  16        9PY         0.00000   0.00002   0.00000   0.00000   0.00000
  17        9PZ         0.00000   0.00000   0.00000   0.00000   0.00000
  18       10D 0        0.00000   0.00000   0.00000   0.00000   0.00000
  19       10D+1        0.00000   0.00000   0.00000   0.00000   0.00000
  20       10D-1        0.00000   0.00000   0.00000   0.00000   0.00000
  21       10D+2        0.00000   0.00000   0.00000   0.00000   0.00000
  22       10D-2       -0.00001   0.00000   0.00000   0.00000   0.00000
  23       11D 0        0.00000   0.00000   0.00000   0.00000   0.00000
  24       11D+1        0.00000   0.00000   0.00000   0.00000   0.00000
  25       11D-1        0.00000   0.00002   0.00000   0.00000   0.00000
  26       11D+2        0.00000   0.00000  -0.00001   0.00000   0.00000
  27       11D-2        0.00004   0.00000   0.00000   0.00000   0.00000
  28       12D 0        0.00000   0.00000   0.00002   0.00000   0.00000
  29       12D+1        0.00000   0.00000   0.00000   0.00000   0.00000
  30       12D-1        0.00000   0.00004   0.00000   0.00000   0.00000
  31       12D+2        0.00000   0.00000  -0.00001   0.00000   0.00000
  32       12D-2       -0.00004   0.00000   0.00000   0.00000   0.00000
  33       13F 0        0.00000   0.00000   0.00000   0.00000   0.00000
  34       13F+1        0.00000   0.00000   0.00000   0.00000   0.00000
  35       13F-1        0.00000   0.00000   0.00000   0.00000   0.00000
  36       13F+2        0.00000   0.00000   0.00000   0.00000   0.00000
  37       13F-2        0.00000   0.00000   0.00000   0.00000   0.00000
  38       13F+3        0.00000   0.00000   0.00000   0.00000   0.00000
  39       13F-3        0.00000   0.00000   0.00000   0.00000   0.00000
  40       14F 0        0.00000   0.00000  -0.00001   0.00000   0.00000
  41       14F+1        0.00000   0.00000   0.00000   0.00000   0.00000
  42       14F-1        0.00000   0.00002   0.00000   0.00000   0.00000
  43       14F+2        0.00000   0.00000   0.00000   0.00000   0.00000
  44       14F-2       -0.00003   0.00000   0.00000   0.00000   0.00000
  45       14F+3        0.00000   0.00000   0.00000   0.00000   0.00000
  46       14F-3        0.00000   0.00001   0.00000   0.00000   0.00000
  47 2   Br 1S          0.00000  -0.21805  -0.22069   0.71259   0.69939
  48        2S          0.00000   0.70578   0.71662   0.00416   0.00285
  49        3S          0.00000   0.03008   0.03100   0.00057   0.00048
  50        4S          0.00000  -0.00020  -0.00019   0.00001   0.00001
  51        5S          0.00000   0.00071   0.00073   0.00000   0.00000
  52        6S          0.00000   0.00004   0.00003  -0.00002  -0.00001
  53        7S          0.00000   0.00005  -0.00002   0.00000   0.00000
  54        8PX         0.71308   0.00000   0.00000   0.00000   0.00000
  55        8PY         0.00000  -0.15419  -0.10769   0.00231   0.00039
  56        8PZ         0.00000  -0.08542  -0.06761   0.00030   0.00004
  57        9PX        -0.01661   0.00000   0.00000   0.00000   0.00000
  58        9PY         0.00000   0.00250   0.00303  -0.00010  -0.00015
  59        9PZ         0.00000   0.00128   0.00183  -0.00005  -0.00006
  60       10PX         0.00029   0.00000   0.00000   0.00000   0.00000
  61       10PY         0.00000  -0.00008  -0.00006   0.00000   0.00000
  62       10PZ         0.00000  -0.00005  -0.00004   0.00000   0.00000
  63       11PX        -0.00124   0.00000   0.00000   0.00000   0.00000
  64       11PY         0.00000   0.00024   0.00023  -0.00001  -0.00001
  65       11PZ         0.00000   0.00013   0.00014   0.00000   0.00000
  66       12PX        -0.00013   0.00000   0.00000   0.00000   0.00000
  67       12PY         0.00000   0.00006   0.00001  -0.00001   0.00000
  68       12PZ         0.00000   0.00003   0.00002   0.00000   0.00000
  69       13PX         0.00003   0.00000   0.00000   0.00000   0.00000
  70       13PY         0.00000   0.00000  -0.00001   0.00000   0.00000
  71       13PZ         0.00000   0.00000   0.00000   0.00000   0.00000
  72       14D 0        0.00000  -0.00003  -0.00004   0.00000   0.00000
  73       14D+1       -0.00005   0.00000   0.00000   0.00000   0.00000
  74       14D-1        0.00000   0.00000   0.00000   0.00000   0.00000
  75       14D+2        0.00000   0.00007   0.00007   0.00000   0.00000
  76       14D-2       -0.00010   0.00000   0.00000   0.00000   0.00000
  77       15D 0        0.00000   0.00000   0.00000   0.00000   0.00000
  78       15D+1       -0.00001   0.00000   0.00000   0.00000   0.00000
  79       15D-1        0.00000   0.00000   0.00000   0.00000   0.00000
  80       15D+2        0.00000   0.00000   0.00000   0.00000   0.00000
  81       15D-2       -0.00002   0.00000   0.00000   0.00000   0.00000
  82       16D 0        0.00000  -0.00001   0.00000   0.00000   0.00000
  83       16D+1        0.00002   0.00000   0.00000   0.00000   0.00000
  84       16D-1        0.00000  -0.00001  -0.00001   0.00000   0.00000
  85       16D+2        0.00000   0.00001   0.00001   0.00000   0.00000
  86       16D-2        0.00003   0.00000   0.00000   0.00000   0.00000
  87       17D 0        0.00000   0.00000   0.00000   0.00000   0.00000
  88       17D+1       -0.00002   0.00000   0.00000   0.00000   0.00000
  89       17D-1        0.00000   0.00001   0.00001   0.00000   0.00000
  90       17D+2        0.00000  -0.00002   0.00000   0.00000   0.00000
  91       17D-2       -0.00002   0.00000   0.00000   0.00000   0.00000
  92       18F 0        0.00000   0.00000   0.00000   0.00000   0.00000
  93       18F+1        0.00000   0.00000   0.00000   0.00000   0.00000
  94       18F-1        0.00000   0.00000   0.00000   0.00000   0.00000
  95       18F+2        0.00000   0.00000   0.00000   0.00000   0.00000
  96       18F-2        0.00000   0.00000   0.00000   0.00000   0.00000
  97       18F+3        0.00000   0.00000   0.00000   0.00000   0.00000
  98       18F-3        0.00000   0.00000   0.00000   0.00000   0.00000
  99       19F 0        0.00000   0.00000   0.00000   0.00000   0.00000
 100       19F+1        0.00000   0.00000   0.00000   0.00000   0.00000
 101       19F-1        0.00000  -0.00001   0.00000   0.00000   0.00000
 102       19F+2        0.00000   0.00000   0.00000   0.00000   0.00000
 103       19F-2        0.00001   0.00000   0.00000   0.00000   0.00000
 104       19F+3       -0.00001   0.00000   0.00000   0.00000   0.00000
 105       19F-3        0.00000   0.00000   0.00000   0.00000   0.00000
 106 3   Br 1S          0.00000   0.21804  -0.22070  -0.69900   0.71298
 107        2S          0.00000  -0.70573   0.71666  -0.00410   0.00293
 108        3S          0.00000  -0.03008   0.03100  -0.00056   0.00049
 109        4S          0.00000   0.00020  -0.00019  -0.00001   0.00001
 110        5S          0.00000  -0.00071   0.00073   0.00000   0.00000
 111        6S          0.00000  -0.00004   0.00003   0.00002  -0.00001
 112        7S          0.00000  -0.00005  -0.00002   0.00000   0.00000
 113        8PX        -0.71330   0.00000   0.00000   0.00000   0.00000
 114        8PY         0.00000  -0.15419   0.10770   0.00230  -0.00043
 115        8PZ        -0.00001   0.08541  -0.06761  -0.00030   0.00005
 116        9PX         0.01662   0.00000   0.00000   0.00000   0.00000
 117        9PY         0.00000   0.00250  -0.00303  -0.00010   0.00015
 118        9PZ         0.00000  -0.00128   0.00183   0.00005  -0.00006
 119       10PX        -0.00029   0.00000   0.00000   0.00000   0.00000
 120       10PY         0.00000  -0.00008   0.00006   0.00000   0.00000
 121       10PZ         0.00000   0.00005  -0.00004   0.00000   0.00000
 122       11PX         0.00124   0.00000   0.00000   0.00000   0.00000
 123       11PY         0.00000   0.00024  -0.00023  -0.00001   0.00001
 124       11PZ         0.00000  -0.00013   0.00014   0.00000   0.00000
 125       12PX         0.00013   0.00000   0.00000   0.00000   0.00000
 126       12PY         0.00000   0.00006  -0.00001  -0.00001   0.00000
 127       12PZ         0.00000  -0.00003   0.00002   0.00000   0.00000
 128       13PX        -0.00003   0.00000   0.00000   0.00000   0.00000
 129       13PY         0.00000   0.00000   0.00001   0.00000   0.00000
 130       13PZ         0.00000   0.00000   0.00000   0.00000   0.00000
 131       14D 0        0.00000   0.00003  -0.00004   0.00000   0.00000
 132       14D+1        0.00005   0.00000   0.00000   0.00000   0.00000
 133       14D-1        0.00000   0.00000   0.00000   0.00000   0.00000
 134       14D+2        0.00000  -0.00007   0.00007   0.00000   0.00000
 135       14D-2       -0.00010   0.00000   0.00000   0.00000   0.00000
 136       15D 0        0.00000   0.00000   0.00000   0.00000   0.00000
 137       15D+1        0.00001   0.00000   0.00000   0.00000   0.00000
 138       15D-1        0.00000   0.00000   0.00000   0.00000   0.00000
 139       15D+2        0.00000   0.00000   0.00000   0.00000   0.00000
 140       15D-2       -0.00002   0.00000   0.00000   0.00000   0.00000
 141       16D 0        0.00000   0.00001   0.00000   0.00000   0.00000
 142       16D+1       -0.00002   0.00000   0.00000   0.00000   0.00000
 143       16D-1        0.00000  -0.00001   0.00001   0.00000   0.00000
 144       16D+2        0.00000  -0.00001   0.00001   0.00000   0.00000
 145       16D-2        0.00003   0.00000   0.00000   0.00000   0.00000
 146       17D 0        0.00000   0.00000   0.00000   0.00000   0.00000
 147       17D+1        0.00002   0.00000   0.00000   0.00000   0.00000
 148       17D-1        0.00000   0.00001  -0.00001   0.00000   0.00000
 149       17D+2        0.00000   0.00002   0.00000   0.00000   0.00000
 150       17D-2       -0.00002   0.00000   0.00000   0.00000   0.00000
 151       18F 0        0.00000   0.00000   0.00000   0.00000   0.00000
 152       18F+1        0.00000   0.00000   0.00000   0.00000   0.00000
 153       18F-1        0.00000   0.00000   0.00000   0.00000   0.00000
 154       18F+2        0.00000   0.00000   0.00000   0.00000   0.00000
 155       18F-2        0.00000   0.00000   0.00000   0.00000   0.00000
 156       18F+3        0.00000   0.00000   0.00000   0.00000   0.00000
 157       18F-3        0.00000   0.00000   0.00000   0.00000   0.00000
 158       19F 0        0.00000   0.00000   0.00000   0.00000   0.00000
 159       19F+1        0.00000   0.00000   0.00000   0.00000   0.00000
 160       19F-1        0.00000  -0.00001   0.00000   0.00000   0.00000
 161       19F+2        0.00000   0.00000   0.00000   0.00000   0.00000
 162       19F-2        0.00001   0.00000   0.00000   0.00000   0.00000
 163       19F+3        0.00001   0.00000   0.00000   0.00000   0.00000
 164       19F-3        0.00000   0.00000   0.00000   0.00000   0.00000
 165 4   O  1S          0.00000   0.00000   0.00061   0.00000   0.00000
 166        2S          0.00000   0.00000   0.00000   0.00000   0.00000
 167        3S          0.00000   0.00000   0.00003   0.00000   0.00000
 168        4S          0.00000   0.00000  -0.00002   0.00000   0.00000
 169        5S          0.00000   0.00000  -0.00005   0.00000   0.00001
 170        6PX         0.00000   0.00000   0.00000   0.00000   0.00000
 171        6PY         0.00000   0.00000   0.00000   0.00000   0.00000
 172        6PZ         0.00000   0.00000   0.00000   0.00000   0.00000
 173        7PX         0.00000   0.00000   0.00000   0.00000   0.00000
 174        7PY         0.00000   0.00000   0.00000   0.00000   0.00000
 175        7PZ         0.00000   0.00000   0.00001   0.00000   0.00000
 176        8PX         0.00000   0.00000   0.00000   0.00000   0.00000
 177        8PY         0.00000  -0.00003   0.00000   0.00000   0.00000
 178        8PZ         0.00000   0.00000   0.00001   0.00000   0.00000
 179        9PX         0.00000   0.00000   0.00000   0.00000   0.00000
 180        9PY         0.00000  -0.00001   0.00000   0.00000   0.00000
 181        9PZ         0.00000   0.00000   0.00001   0.00000   0.00000
 182       10D 0        0.00000   0.00000   0.00000   0.00000   0.00000
 183       10D+1        0.00000   0.00000   0.00000   0.00000   0.00000
 184       10D-1        0.00000   0.00000   0.00000   0.00000   0.00000
 185       10D+2        0.00000   0.00000   0.00000   0.00000   0.00000
 186       10D-2        0.00000   0.00000   0.00000   0.00000   0.00000
 187       11D 0        0.00000   0.00000   0.00000   0.00000   0.00000
 188       11D+1        0.00000   0.00000   0.00000   0.00000   0.00000
 189       11D-1        0.00000   0.00000   0.00000   0.00000   0.00000
 190       11D+2        0.00000   0.00000   0.00000   0.00000   0.00000
 191       11D-2        0.00000   0.00000   0.00000   0.00000   0.00000
 192       12D 0        0.00000   0.00000   0.00001   0.00000   0.00000
 193       12D+1        0.00000   0.00000   0.00000   0.00000   0.00000
 194       12D-1        0.00000   0.00001   0.00000   0.00000   0.00000
 195       12D+2        0.00000   0.00000   0.00001   0.00000   0.00000
 196       12D-2        0.00002   0.00000   0.00000   0.00000   0.00000
 197       13F 0        0.00000   0.00000   0.00000   0.00000   0.00000
 198       13F+1        0.00000   0.00000   0.00000   0.00000   0.00000
 199       13F-1        0.00000   0.00000   0.00000   0.00000   0.00000
 200       13F+2        0.00000   0.00000   0.00000   0.00000   0.00000
 201       13F-2        0.00000   0.00000   0.00000   0.00000   0.00000
 202       13F+3        0.00000   0.00000   0.00000   0.00000   0.00000
 203       13F-3        0.00000   0.00000   0.00000   0.00000   0.00000
 204       14F 0        0.00000   0.00000   0.00000   0.00000   0.00000
 205       14F+1        0.00000   0.00000   0.00000   0.00000   0.00000
 206       14F-1        0.00000   0.00000   0.00000   0.00000   0.00000
[...]
 190       11D+2       -0.00924   0.00000   0.00000  -0.10113  -0.03805
 191       11D-2        0.00000   0.00000   0.00000   0.00000   0.00000
 192       12D 0        4.55646   0.00000   0.00000  -1.30351   0.78980
 193       12D+1        0.00000   2.06559   0.00000   0.00000   0.00000
 194       12D-1        0.00000   0.00000  -0.23917   0.00000   0.00000
 195       12D+2       -0.51308   0.00000   0.00000   0.56878   0.04361
 196       12D-2        0.00000   0.00000   0.00000   0.00000   0.00000
 197       13F 0        0.01141   0.00000   0.00000   0.01673  -0.04651
 198       13F+1        0.00000   0.01988   0.00000   0.00000   0.00000
 199       13F-1        0.00000   0.00000   0.04711   0.00000   0.00000
 200       13F+2       -0.05072   0.00000   0.00000   0.02411  -0.01452
 201       13F-2        0.00000   0.00000   0.00000   0.00000   0.00000
 202       13F+3        0.00000   0.00346   0.00000   0.00000   0.00000
 203       13F-3        0.00000   0.00000  -0.02860   0.00000   0.00000
 204       14F 0       -1.26582   0.00000   0.00000   0.17322   0.01166
 205       14F+1        0.00000  -0.15066   0.00000   0.00000   0.00000
 206       14F-1        0.00000   0.00000  -0.12626   0.00000   0.00000
 207       14F+2        0.18390   0.00000   0.00000  -0.09844   0.04908
 208       14F-2        0.00000   0.00000   0.00000   0.00000   0.00000
 209       14F+3        0.00000   0.00525   0.00000   0.00000   0.00000
 210       14F-3        0.00000   0.00000   0.06006   0.00000   0.00000
                         206       207       208       209       210
     Eigenvalues --     0.00000   0.00000   0.00000   0.00000   0.00000
   1 1   C  1S          0.00000   0.00000   0.00000   0.22406   0.00340
   2        2S          0.00000   0.00000   0.00000   1.28790   0.05691
   3        3S          0.00000   0.00000   0.00000   0.01650   0.11332
   4        4S          0.00000   0.00000   0.00000   9.33821   3.61083
   5        5S          0.00000   0.00000   0.00000   3.60454  31.32124
   6        6PX         0.00474   0.00000   0.00000   0.00000   0.00000
   7        6PY         0.00000  -0.00111   0.00589   0.00000   0.00000
   8        6PZ         0.00000   0.00000   0.00000   0.01628   0.01171
   9        7PX        -0.33419   0.00000   0.00000   0.00000   0.00000
  10        7PY         0.00000  -0.25226  -0.14236   0.00000   0.00000
  11        7PZ         0.00000   0.00000   0.00000   1.36871   0.07489
  12        8PX        -0.33280   0.00000   0.00000   0.00000   0.00000
  13        8PY         0.00000  -5.59006   6.81085   0.00000   0.00000
  14        8PZ         0.00000   0.00000   0.00000   5.46090  -0.03441
  15        9PX         6.32746   0.00000   0.00000   0.00000   0.00000
  16        9PY         0.00000  -0.26176  13.90341   0.00000   0.00000
  17        9PZ         0.00000   0.00000   0.00000   5.89647  -3.82731
  18       10D 0        0.00000   0.00000   0.00000   0.08732   0.02130
  19       10D+1       -0.00904   0.00000   0.00000   0.00000   0.00000
  20       10D-1        0.00000   0.00738   0.01943   0.00000   0.00000
  21       10D+2        0.00000   0.00000   0.00000  -0.00639  -0.04805
  22       10D-2        0.00000   0.00000   0.00000   0.00000   0.00000
  23       11D 0        0.00000   0.00000   0.00000   0.59046  -0.21595
  24       11D+1       -0.44773   0.00000   0.00000   0.00000   0.00000
  25       11D-1        0.00000  -0.14296  -0.69375   0.00000   0.00000
  26       11D+2        0.00000   0.00000   0.00000   0.02586   0.18421
  27       11D-2        0.00000   0.00000   0.00000   0.00000   0.00000
  28       12D 0        0.00000   0.00000   0.00000   3.46132   0.24341
  29       12D+1        0.88953   0.00000   0.00000   0.00000   0.00000
  30       12D-1        0.00000  -0.10534  -0.41162   0.00000   0.00000
  31       12D+2        0.00000   0.00000   0.00000   1.36186  -1.03265
  32       12D-2        0.00000   0.00000   0.00000   0.00000   0.00000
  33       13F 0        0.00000   0.00000   0.00000   0.05180  -0.04607
  34       13F+1       -0.11986   0.00000   0.00000   0.00000   0.00000
  35       13F-1        0.00000  -0.01717  -0.06333   0.00000   0.00000
  36       13F+2        0.00000   0.00000   0.00000  -0.00211   0.00581
  37       13F-2        0.00000   0.00000   0.00000   0.00000   0.00000
  38       13F+3        0.05062   0.00000   0.00000   0.00000   0.00000
  39       13F-3        0.00000   0.04629  -0.00109   0.00000   0.00000
  40       14F 0        0.00000   0.00000   0.00000  -0.01899  -0.09257
  41       14F+1       -0.05004   0.00000   0.00000   0.00000   0.00000
  42       14F-1        0.00000  -0.01108  -0.00948   0.00000   0.00000
  43       14F+2        0.00000   0.00000   0.00000   0.12451  -0.17132
  44       14F-2        0.00000   0.00000   0.00000   0.00000   0.00000
  45       14F+3       -0.02539   0.00000   0.00000   0.00000   0.00000
  46       14F-3        0.00000  -0.06674  -0.10674   0.00000   0.00000
  47 2   Br 1S          0.00000   0.00224   0.00000   0.00002   0.00009
  48        2S          0.00000   0.01707  -0.00325  -0.00103   0.00067
  49        3S          0.00000   0.07981  -0.00740  -0.00189   0.00322
  50        4S          0.00000   0.23377  -0.05362  -0.01243   0.01036
  51        5S          0.00000   0.09052  -0.15467  -0.00446  -0.00223
  52        6S          0.00000  -0.79738   1.85403   0.82123   0.03982
  53        7S          0.00000  -9.94025  14.80315   2.11269 -13.43140
  54        8PX         0.00163   0.00000   0.00000   0.00000   0.00000
  55        8PY         0.00000   0.00097   0.00056   0.00061  -0.00039
  56        8PZ         0.00000   0.00060  -0.00006   0.00041   0.00005
  57        9PX        -0.02008   0.00000   0.00000   0.00000   0.00000
  58        9PY         0.00000   0.01677   0.00311  -0.00791   0.02523
  59        9PZ         0.00000   0.00133   0.01300  -0.00926   0.01487
  60       10PX        -0.15318   0.00000   0.00000   0.00000   0.00000
  61       10PY         0.00000   0.24783   0.06554  -0.06157   0.27653
  62       10PZ         0.00000   0.04953   0.14806  -0.08777   0.17702
  63       11PX         0.04517   0.00000   0.00000   0.00000   0.00000
  64       11PY         0.00000   0.00087  -0.00437   0.01747  -0.03493
  65       11PZ         0.00000   0.01577  -0.02400   0.01364  -0.01614
  66       12PX         0.65940   0.00000   0.00000   0.00000   0.00000
  67       12PY         0.00000  -3.72594   3.67457  -0.33376  -1.67325
  68       12PZ         0.00000  -2.36342   2.51996   1.55600  -1.32667
  69       13PX        -2.43880   0.00000   0.00000   0.00000   0.00000
  70       13PY         0.00000  -3.83471   0.40314   0.84118  -3.63514
  71       13PZ         0.00000  -0.91806   2.87149  -0.90927  -2.19500
  72       14D 0        0.00000  -0.00091  -0.00061   0.00117  -0.00094
  73       14D+1        0.00234   0.00000   0.00000   0.00000   0.00000
  74       14D-1        0.00000   0.00084  -0.00020  -0.00132   0.00115
  75       14D+2        0.00000  -0.00347  -0.00106   0.00225   0.00022
  76       14D-2        0.00098   0.00000   0.00000   0.00000   0.00000
  77       15D 0        0.00000   0.01496   0.00451  -0.01457   0.01287
  78       15D+1       -0.02825   0.00000   0.00000   0.00000   0.00000
  79       15D-1        0.00000   0.00231  -0.01482   0.00895  -0.01760
  80       15D+2        0.00000   0.03699   0.02435  -0.02355  -0.00147
  81       15D-2       -0.02113   0.00000   0.00000   0.00000   0.00000
  82       16D 0        0.00000  -0.09853  -0.00503   0.08783  -0.07155
  83       16D+1        0.11389   0.00000   0.00000   0.00000   0.00000
  84       16D-1        0.00000  -0.02908   0.29592  -0.04843   0.16930
  85       16D+2        0.00000  -0.19859  -0.26848   0.14100  -0.05621
  86       16D-2        0.10067   0.00000   0.00000   0.00000   0.00000
  87       17D 0        0.00000   0.17705   0.17198   0.31957   0.02990
  88       17D+1       -0.21731   0.00000   0.00000   0.00000   0.00000
  89       17D-1        0.00000  -1.42008   1.09980   0.28904  -0.75731
  90       17D+2        0.00000   1.77869  -0.51171   0.23836   0.34730
  91       17D-2       -0.02884   0.00000   0.00000   0.00000   0.00000
  92       18F 0        0.00000   0.00456   0.01889  -0.01514  -0.00436
  93       18F+1       -0.00986   0.00000   0.00000   0.00000   0.00000
  94       18F-1        0.00000   0.02799  -0.02468   0.00130   0.00694
  95       18F+2        0.00000  -0.04239   0.01340  -0.01512  -0.00824
  96       18F-2       -0.01372   0.00000   0.00000   0.00000   0.00000
  97       18F+3        0.04947   0.00000   0.00000   0.00000   0.00000
  98       18F-3        0.00000  -0.03986   0.01443  -0.01952  -0.01217
  99       19F 0        0.00000   0.02271  -0.10499   0.03115  -0.01003
 100       19F+1        0.00826   0.00000   0.00000   0.00000   0.00000
 101       19F-1        0.00000  -0.10918   0.13196   0.02635  -0.02955
 102       19F+2        0.00000   0.17858  -0.16373   0.05195   0.01754
 103       19F-2        0.02338   0.00000   0.00000   0.00000   0.00000
 104       19F+3       -0.10993   0.00000   0.00000   0.00000   0.00000
 105       19F-3        0.00000   0.16973  -0.10664   0.09702   0.02339
 106 3   Br 1S          0.00000  -0.00224   0.00000   0.00002   0.00009
 107        2S          0.00000  -0.01707   0.00325  -0.00103   0.00067
 108        3S          0.00000  -0.07981   0.00740  -0.00189   0.00322
 109        4S          0.00000  -0.23377   0.05362  -0.01243   0.01036
 110        5S          0.00000  -0.09052   0.15467  -0.00446  -0.00223
 111        6S          0.00000   0.79738  -1.85403   0.82123   0.03982
 112        7S          0.00000   9.94025 -14.80315   2.11269 -13.43140
 113        8PX         0.00163   0.00000   0.00000   0.00000   0.00000
 114        8PY         0.00000   0.00097   0.00056  -0.00061   0.00039
 115        8PZ         0.00000  -0.00060   0.00006   0.00041   0.00005
 116        9PX        -0.02008   0.00000   0.00000   0.00000   0.00000
 117        9PY         0.00000   0.01677   0.00311   0.00791  -0.02523
 118        9PZ         0.00000  -0.00133  -0.01300  -0.00926   0.01487
 119       10PX        -0.15318   0.00000   0.00000   0.00000   0.00000
 120       10PY         0.00000   0.24783   0.06554   0.06157  -0.27653
 121       10PZ         0.00000  -0.04953  -0.14806  -0.08777   0.17702
 122       11PX         0.04517   0.00000   0.00000   0.00000   0.00000
 123       11PY         0.00000   0.00087  -0.00437  -0.01747   0.03493
 124       11PZ         0.00000  -0.01577   0.02400   0.01364  -0.01614
 125       12PX         0.65940   0.00000   0.00000   0.00000   0.00000
 126       12PY         0.00000  -3.72594   3.67457   0.33376   1.67325
 127       12PZ         0.00000   2.36342  -2.51996   1.55600  -1.32667
 128       13PX        -2.43880   0.00000   0.00000   0.00000   0.00000
 129       13PY         0.00000  -3.83471   0.40314  -0.84118   3.63514
 130       13PZ         0.00000   0.91806  -2.87149  -0.90927  -2.19500
 131       14D 0        0.00000   0.00091   0.00061   0.00117  -0.00094
 132       14D+1        0.00234   0.00000   0.00000   0.00000   0.00000
 133       14D-1        0.00000   0.00084  -0.00020   0.00132  -0.00115
 134       14D+2        0.00000   0.00347   0.00106   0.00225   0.00022
 135       14D-2       -0.00098   0.00000   0.00000   0.00000   0.00000
 136       15D 0        0.00000  -0.01496  -0.00451  -0.01457   0.01287
 137       15D+1       -0.02825   0.00000   0.00000   0.00000   0.00000
 138       15D-1        0.00000   0.00231  -0.01482  -0.00895   0.01760
 139       15D+2        0.00000  -0.03699  -0.02435  -0.02355  -0.00147
 140       15D-2        0.02113   0.00000   0.00000   0.00000   0.00000
 141       16D 0        0.00000   0.09853   0.00503   0.08783  -0.07155
 142       16D+1        0.11389   0.00000   0.00000   0.00000   0.00000
 143       16D-1        0.00000  -0.02908   0.29592   0.04843  -0.16930
 144       16D+2        0.00000   0.19859   0.26848   0.14100  -0.05621
 145       16D-2       -0.10067   0.00000   0.00000   0.00000   0.00000
 146       17D 0        0.00000  -0.17705  -0.17198   0.31957   0.02990
 147       17D+1       -0.21731   0.00000   0.00000   0.00000   0.00000
 148       17D-1        0.00000  -1.42008   1.09980  -0.28904   0.75731
 149       17D+2        0.00000  -1.77869   0.51171   0.23836   0.34730
 150       17D-2        0.02884   0.00000   0.00000   0.00000   0.00000
 151       18F 0        0.00000  -0.00456  -0.01889  -0.01514  -0.00436
 152       18F+1       -0.00986   0.00000   0.00000   0.00000   0.00000
 153       18F-1        0.00000   0.02799  -0.02468  -0.00130  -0.00694
 154       18F+2        0.00000   0.04239  -0.01340  -0.01512  -0.00824
 155       18F-2        0.01372   0.00000   0.00000   0.00000   0.00000
 156       18F+3        0.04947   0.00000   0.00000   0.00000   0.00000
 157       18F-3        0.00000  -0.03986   0.01443   0.01952   0.01217
 158       19F 0        0.00000  -0.02271   0.10499   0.03115  -0.01003
 159       19F+1        0.00826   0.00000   0.00000   0.00000   0.00000
 160       19F-1        0.00000  -0.10918   0.13196  -0.02635   0.02955
 161       19F+2        0.00000  -0.17858   0.16373   0.05195   0.01754
 162       19F-2       -0.02338   0.00000   0.00000   0.00000   0.00000
 163       19F+3       -0.10993   0.00000   0.00000   0.00000   0.00000
 164       19F-3        0.00000   0.16973  -0.10664  -0.09702  -0.02339
 165 4   O  1S          0.00000   0.00000   0.00000   0.09711   0.03142
 166        2S          0.00000   0.00000   0.00000   0.51192   0.16467
 167        3S          0.00000   0.00000   0.00000   0.00687  -0.00554
 168        4S          0.00000   0.00000   0.00000  -6.26657  -0.01242
 169        5S          0.00000   0.00000   0.00000 -15.10173  -8.11871
 170        6PX         0.01898   0.00000   0.00000   0.00000   0.00000
 171        6PY         0.00000   0.01529   0.00216   0.00000   0.00000
 172        6PZ         0.00000   0.00000   0.00000  -0.00706   0.01101
 173        7PX        -0.03126   0.00000   0.00000   0.00000   0.00000
 174        7PY         0.00000  -0.07859   0.04026   0.00000   0.00000
 175        7PZ         0.00000   0.00000   0.00000   0.15854  -0.13494
 176        8PX         0.82115   0.00000   0.00000   0.00000   0.00000
 177        8PY         0.00000   1.02953   0.12281   0.00000   0.00000
 178        8PZ         0.00000   0.00000   0.00000   3.74729   0.70436
 179        9PX        -3.47235   0.00000   0.00000   0.00000   0.00000
 180        9PY         0.00000  -0.85664  -3.69331   0.00000   0.00000
 181        9PZ         0.00000   0.00000   0.00000   0.20806   1.65306
 182       10D 0        0.00000   0.00000   0.00000   0.05377   0.01339
 183       10D+1        0.03454   0.00000   0.00000   0.00000   0.00000
 184       10D-1        0.00000   0.00276   0.03614   0.00000   0.00000
 185       10D+2        0.00000   0.00000   0.00000  -0.02630  -0.01036
 186       10D-2        0.00000   0.00000   0.00000   0.00000   0.00000
 187       11D 0        0.00000   0.00000   0.00000  -0.40604  -0.03415
 188       11D+1       -0.23921   0.00000   0.00000   0.00000   0.00000
 189       11D-1        0.00000  -0.04154  -0.20760   0.00000   0.00000
 190       11D+2        0.00000   0.00000   0.00000   0.07531   0.03313
 191       11D-2        0.00000   0.00000   0.00000   0.00000   0.00000
 192       12D 0        0.00000   0.00000   0.00000  -0.48514  -0.19385
 193       12D+1       -0.10835   0.00000   0.00000   0.00000   0.00000
 194       12D-1        0.00000  -0.30961   0.15263   0.00000   0.00000
 195       12D+2        0.00000   0.00000   0.00000  -0.37445   0.06215
 196       12D-2        0.00000   0.00000   0.00000   0.00000   0.00000
 197       13F 0        0.00000   0.00000   0.00000   0.01941  -0.01309
 198       13F+1       -0.00457   0.00000   0.00000   0.00000   0.00000
 199       13F-1        0.00000  -0.01514  -0.00203   0.00000   0.00000
 200       13F+2        0.00000   0.00000   0.00000  -0.01277   0.01455
 201       13F-2        0.00000   0.00000   0.00000   0.00000   0.00000
 202       13F+3        0.01457   0.00000   0.00000   0.00000   0.00000
 203       13F-3        0.00000  -0.00968   0.01599   0.00000   0.00000
 204       14F 0        0.00000   0.00000   0.00000   0.14052   0.06596
 205       14F+1        0.16984   0.00000   0.00000   0.00000   0.00000
 206       14F-1        0.00000   0.07583   0.09701   0.00000   0.00000
 207       14F+2        0.00000   0.00000   0.00000   0.05838  -0.03782
 208       14F-2        0.00000   0.00000   0.00000   0.00000   0.00000
 209       14F+3       -0.02711   0.00000   0.00000   0.00000   0.00000
 210       14F-3        0.00000   0.02448  -0.02775   0.00000   0.00000
          Condensed to atoms (all electrons):
              1          2          3          4
     1  C    5.531767   0.031927   0.031927   0.247852
     2  Br   0.031927  35.048153  -0.120069  -0.056865
     3  Br   0.031927  -0.120069  35.048153  -0.056865
     4  O    0.247852  -0.056865  -0.056865   8.216112
 Mulliken atomic charges:
              1
     1  C    0.156527
     2  Br   0.096854
     3  Br   0.096854
     4  O   -0.350234
 Sum of Mulliken atomic charges =   0.00000
 Mulliken charges with hydrogens summed into heavy atoms:
              1
     1  C    0.156527
     2  Br   0.096854
     3  Br   0.096854
     4  O   -0.350234
 Sum of Mulliken charges with hydrogens summed into heavy atoms =   0.00000
 Electronic spatial extent (au):  <R**2>=           1355.5435
 Charge=              0.0000 electrons
 Dipole moment (field-independent basis, Debye):
    X=              0.0000    Y=              0.0000    Z=             -1.1620  Tot=              1.1620
 Quadrupole moment (field-independent basis, Debye-Ang):
   XX=            -46.9693   YY=            -45.0750   ZZ=            -47.5627
   XY=              0.0000   XZ=              0.0000   YZ=              0.0000
 Traceless Quadrupole moment (field-independent basis, Debye-Ang):
   XX=             -0.4337   YY=              1.4606   ZZ=             -1.0270
   XY=              0.0000   XZ=              0.0000   YZ=              0.0000
 Octapole moment (field-independent basis, Debye-Ang**2):
  XXX=              0.0000  YYY=              0.0000  ZZZ=            164.7669  XYY=              0.0000
  XXY=              0.0000  XXZ=             56.3383  XZZ=              0.0000  YZZ=              0.0000
  YYZ=             45.8872  XYZ=              0.0000
 Hexadecapole moment (field-independent basis, Debye-Ang**3):
 XXXX=            -53.7553 YYYY=           -572.3686 ZZZZ=           -596.7620 XXXY=              0.0000
 XXXZ=              0.0000 YYYX=              0.0000 YYYZ=              0.0000 ZZZX=              0.0000
 ZZZY=              0.0000 XXYY=           -111.5036 XXZZ=           -110.4331 YYZZ=           -175.2839
 XXYZ=              0.0000 YYXZ=              0.0000 ZZXY=              0.0000
 N-N= 4.490817090152D+02 E-N=-1.346997263511D+04  KE= 5.257260609762D+03
 1\1\GINC-TRAPISTA\SP\RQCISD-FC\Aug-CC-pVTZ\C1Br2O1\BRUNS\28-Nov-2021\0
 \\# qcisd/aug-cc-pvtz nosymm density=current output=wfn\\br2co-wavefun
 ction\\0,1\C,0,0.,0.,-0.481759\Br,0,0.,-1.594181,-1.54682\Br,0,0.,1.59
 4181,-1.54682\O,0,0.,0.,0.6845\\Version=EM64L-G09RevB.01\HF=-5257.6852
 864\MP2=-5258.5482083\MP3=-5258.5485774\MP4D=-5258.5695788\MP4DQ=-5258
 .5481546\MP4SDQ=-5258.5599513\QCISD=-5258.5575996\RMSD=8.845e-09\Dipol
 e=0.,0.,-0.4571678\Quadrupole=-0.3224113,1.0859466,-0.7635354,0.,0.,0.
 \PG=C02V [C2(C1O1),SGV(Br2)]\\@

 Writing a WFN file to GAUSSIAN.wfn.


 THE GREAT THING ABOUT BEING IMPERFECT IS THE JOY IT BRINGS OTHERS.
   -- SIGN OUTSIDE LAKE AGASSIZ JR. HIGH SCHOOL, FARGO, N.D.
 Job cpu time:  0 days  5 hours 20 minutes 32.5 seconds.
 File lengths (MBytes):  RWF=  23799 Int=      0 D2E=      0 Chk=      4 Scr=      1
 Normal termination of Gaussian 09 at Sun Nov 28 08:58:30 2021.
