 cl2cs-wavefunction
GAUSSIAN            196 MOL ORBITALS    414 PRIMITIVES        4 NUCLEI
  C    1    (CENTRE  1)   0.00000000 -0.01889726 -0.98816425  CHARGE =  6.0
  Cl   2    (CENTRE  2)   0.00000000 -2.70369732 -2.83628995  CHARGE = 17.0
  Cl   3    (CENTRE  3)   0.00000000  2.70369732 -2.83628995  CHARGE = 17.0
  S    4    (CENTRE  4)   0.00000000  0.00000000  2.04433408  CHARGE = 16.0
CENTRE ASSIGNMENTS    1  1  1  1  1  1  1  1  1  1  1  1  1  1  1  1  1  1  1  1
CENTRE ASSIGNMENTS    1  1  1  1  1  1  1  1  1  1  1  1  1  1  1  1  1  1  1  1
CENTRE ASSIGNMENTS    1  1  1  1  1  1  1  1  1  1  1  1  1  1  1  1  1  1  1  1
CENTRE ASSIGNMENTS    1  1  1  1  1  1  1  1  1  1  1  1  2  2  2  2  2  2  2  2
CENTRE ASSIGNMENTS    2  2  2  2  2  2  2  2  2  2  2  2  2  2  2  2  2  2  2  2
CENTRE ASSIGNMENTS    2  2  2  2  2  2  2  2  2  2  2  2  2  2  2  2  2  2  2  2
CENTRE ASSIGNMENTS    2  2  2  2  2  2  2  2  2  2  2  2  2  2  2  2  2  2  2  2
CENTRE ASSIGNMENTS    2  2  2  2  2  2  2  2  2  2  2  2  2  2  2  2  2  2  2  2
CENTRE ASSIGNMENTS    2  2  2  2  2  2  2  2  2  2  2  2  2  2  2  2  2  2  2  2
CENTRE ASSIGNMENTS    2  2  2  2  2  2  3  3  3  3  3  3  3  3  3  3  3  3  3  3
CENTRE ASSIGNMENTS    3  3  3  3  3  3  3  3  3  3  3  3  3  3  3  3  3  3  3  3
CENTRE ASSIGNMENTS    3  3  3  3  3  3  3  3  3  3  3  3  3  3  3  3  3  3  3  3
CENTRE ASSIGNMENTS    3  3  3  3  3  3  3  3  3  3  3  3  3  3  3  3  3  3  3  3
CENTRE ASSIGNMENTS    3  3  3  3  3  3  3  3  3  3  3  3  3  3  3  3  3  3  3  3
CENTRE ASSIGNMENTS    3  3  3  3  3  3  3  3  3  3  3  3  3  3  3  3  3  3  3  3
CENTRE ASSIGNMENTS    4  4  4  4  4  4  4  4  4  4  4  4  4  4  4  4  4  4  4  4
CENTRE ASSIGNMENTS    4  4  4  4  4  4  4  4  4  4  4  4  4  4  4  4  4  4  4  4
CENTRE ASSIGNMENTS    4  4  4  4  4  4  4  4  4  4  4  4  4  4  4  4  4  4  4  4
CENTRE ASSIGNMENTS    4  4  4  4  4  4  4  4  4  4  4  4  4  4  4  4  4  4  4  4
CENTRE ASSIGNMENTS    4  4  4  4  4  4  4  4  4  4  4  4  4  4  4  4  4  4  4  4
CENTRE ASSIGNMENTS    4  4  4  4  4  4  4  4  4  4  4  4  4  4
TYPE ASSIGNMENTS      1  1  1  1  1  1  1  1  1  1  1  1  1  1  1  1  2  2  2  3
TYPE ASSIGNMENTS      3  3  4  4  4  2  3  4  2  3  4  2  3  4  5  6  7  8  9 10
TYPE ASSIGNMENTS      5  6  7  8  9 10  5  6  7  8  9 10 11 12 13 17 14 15 18 19
TYPE ASSIGNMENTS     16 20 11 12 13 17 14 15 18 19 16 20  1  1  1  1  1  1  1  1
TYPE ASSIGNMENTS      1  1  1  1  1  1  1  1  1  1  1  1  1  1  1  1  1  1  1  1
TYPE ASSIGNMENTS      1  1  1  2  2  2  2  2  2  3  3  3  3  3  3  4  4  4  4  4
TYPE ASSIGNMENTS      4  2  2  2  2  2  2  3  3  3  3  3  3  4  4  4  4  4  4  2
TYPE ASSIGNMENTS      3  4  2  3  4  2  3  4  5  6  7  8  9 10  5  6  7  8  9 10
TYPE ASSIGNMENTS      5  6  7  8  9 10 11 12 13 17 14 15 18 19 16 20 11 12 13 17
TYPE ASSIGNMENTS     14 15 18 19 16 20  1  1  1  1  1  1  1  1  1  1  1  1  1  1
TYPE ASSIGNMENTS      1  1  1  1  1  1  1  1  1  1  1  1  1  1  1  1  1  2  2  2
TYPE ASSIGNMENTS      2  2  2  3  3  3  3  3  3  4  4  4  4  4  4  2  2  2  2  2
TYPE ASSIGNMENTS      2  3  3  3  3  3  3  4  4  4  4  4  4  2  3  4  2  3  4  2
TYPE ASSIGNMENTS      3  4  5  6  7  8  9 10  5  6  7  8  9 10  5  6  7  8  9 10
TYPE ASSIGNMENTS     11 12 13 17 14 15 18 19 16 20 11 12 13 17 14 15 18 19 16 20
TYPE ASSIGNMENTS      1  1  1  1  1  1  1  1  1  1  1  1  1  1  1  1  1  1  1  1
TYPE ASSIGNMENTS      1  1  1  1  1  1  1  1  1  1  1  2  2  2  2  2  2  3  3  3
TYPE ASSIGNMENTS      3  3  3  4  4  4  4  4  4  2  2  2  2  2  2  3  3  3  3  3
TYPE ASSIGNMENTS      3  4  4  4  4  4  4  2  3  4  2  3  4  2  3  4  5  6  7  8
TYPE ASSIGNMENTS      9 10  5  6  7  8  9 10  5  6  7  8  9 10 11 12 13 17 14 15
TYPE ASSIGNMENTS     18 19 16 20 11 12 13 17 14 15 18 19 16 20
EXPONENTS  0.8236000D+04 0.1235000D+04 0.2808000D+03 0.7927000D+02 0.2559000D+02
EXPONENTS  0.8997000D+01 0.3319000D+01 0.2808000D+03 0.7927000D+02 0.2559000D+02
EXPONENTS  0.8997000D+01 0.3319000D+01 0.3643000D+00 0.9059000D+00 0.1285000D+00
EXPONENTS  0.4402000D-01 0.1871000D+02 0.4133000D+01 0.1200000D+01 0.1871000D+02
EXPONENTS  0.4133000D+01 0.1200000D+01 0.1871000D+02 0.4133000D+01 0.1200000D+01
EXPONENTS  0.3827000D+00 0.3827000D+00 0.3827000D+00 0.1209000D+00 0.1209000D+00
EXPONENTS  0.1209000D+00 0.3569000D-01 0.3569000D-01 0.3569000D-01 0.1097000D+01
EXPONENTS  0.1097000D+01 0.1097000D+01 0.1097000D+01 0.1097000D+01 0.1097000D+01
EXPONENTS  0.3180000D+00 0.3180000D+00 0.3180000D+00 0.3180000D+00 0.3180000D+00
EXPONENTS  0.3180000D+00 0.1000000D+00 0.1000000D+00 0.1000000D+00 0.1000000D+00
EXPONENTS  0.1000000D+00 0.1000000D+00 0.7610000D+00 0.7610000D+00 0.7610000D+00
EXPONENTS  0.7610000D+00 0.7610000D+00 0.7610000D+00 0.7610000D+00 0.7610000D+00
EXPONENTS  0.7610000D+00 0.7610000D+00 0.2680000D+00 0.2680000D+00 0.2680000D+00
EXPONENTS  0.2680000D+00 0.2680000D+00 0.2680000D+00 0.2680000D+00 0.2680000D+00
EXPONENTS  0.2680000D+00 0.2680000D+00 0.4561000D+06 0.6833000D+05 0.1555000D+05
EXPONENTS  0.4405000D+04 0.1439000D+04 0.5204000D+03 0.2031000D+03 0.8396000D+02
EXPONENTS  0.3620000D+02 0.1583000D+02 0.6334000D+01 0.4405000D+04 0.1439000D+04
EXPONENTS  0.5204000D+03 0.2031000D+03 0.8396000D+02 0.3620000D+02 0.1583000D+02
EXPONENTS  0.6334000D+01 0.2694000D+01 0.1439000D+04 0.2031000D+03 0.8396000D+02
EXPONENTS  0.3620000D+02 0.1583000D+02 0.6334000D+01 0.2694000D+01 0.4313000D+00
EXPONENTS  0.9768000D+00 0.1625000D+00 0.5910000D-01 0.6633000D+03 0.1568000D+03
EXPONENTS  0.4998000D+02 0.1842000D+02 0.7240000D+01 0.2922000D+01 0.6633000D+03
EXPONENTS  0.1568000D+03 0.4998000D+02 0.1842000D+02 0.7240000D+01 0.2922000D+01
EXPONENTS  0.6633000D+03 0.1568000D+03 0.4998000D+02 0.1842000D+02 0.7240000D+01
EXPONENTS  0.2922000D+01 0.1568000D+03 0.4998000D+02 0.1842000D+02 0.7240000D+01
EXPONENTS  0.2922000D+01 0.3818000D+00 0.1568000D+03 0.4998000D+02 0.1842000D+02
EXPONENTS  0.7240000D+01 0.2922000D+01 0.3818000D+00 0.1568000D+03 0.4998000D+02
EXPONENTS  0.1842000D+02 0.7240000D+01 0.2922000D+01 0.3818000D+00 0.1022000D+01
EXPONENTS  0.1022000D+01 0.1022000D+01 0.1301000D+00 0.1301000D+00 0.1301000D+00
EXPONENTS  0.4190000D-01 0.4190000D-01 0.4190000D-01 0.1046000D+01 0.1046000D+01
EXPONENTS  0.1046000D+01 0.1046000D+01 0.1046000D+01 0.1046000D+01 0.3440000D+00
EXPONENTS  0.3440000D+00 0.3440000D+00 0.3440000D+00 0.3440000D+00 0.3440000D+00
EXPONENTS  0.1350000D+00 0.1350000D+00 0.1350000D+00 0.1350000D+00 0.1350000D+00
EXPONENTS  0.1350000D+00 0.7060000D+00 0.7060000D+00 0.7060000D+00 0.7060000D+00
EXPONENTS  0.7060000D+00 0.7060000D+00 0.7060000D+00 0.7060000D+00 0.7060000D+00
EXPONENTS  0.7060000D+00 0.3120000D+00 0.3120000D+00 0.3120000D+00 0.3120000D+00
EXPONENTS  0.3120000D+00 0.3120000D+00 0.3120000D+00 0.3120000D+00 0.3120000D+00
EXPONENTS  0.3120000D+00 0.4561000D+06 0.6833000D+05 0.1555000D+05 0.4405000D+04
EXPONENTS  0.1439000D+04 0.5204000D+03 0.2031000D+03 0.8396000D+02 0.3620000D+02
EXPONENTS  0.1583000D+02 0.6334000D+01 0.4405000D+04 0.1439000D+04 0.5204000D+03
EXPONENTS  0.2031000D+03 0.8396000D+02 0.3620000D+02 0.1583000D+02 0.6334000D+01
EXPONENTS  0.2694000D+01 0.1439000D+04 0.2031000D+03 0.8396000D+02 0.3620000D+02
EXPONENTS  0.1583000D+02 0.6334000D+01 0.2694000D+01 0.4313000D+00 0.9768000D+00
EXPONENTS  0.1625000D+00 0.5910000D-01 0.6633000D+03 0.1568000D+03 0.4998000D+02
EXPONENTS  0.1842000D+02 0.7240000D+01 0.2922000D+01 0.6633000D+03 0.1568000D+03
EXPONENTS  0.4998000D+02 0.1842000D+02 0.7240000D+01 0.2922000D+01 0.6633000D+03
EXPONENTS  0.1568000D+03 0.4998000D+02 0.1842000D+02 0.7240000D+01 0.2922000D+01
EXPONENTS  0.1568000D+03 0.4998000D+02 0.1842000D+02 0.7240000D+01 0.2922000D+01
EXPONENTS  0.3818000D+00 0.1568000D+03 0.4998000D+02 0.1842000D+02 0.7240000D+01
EXPONENTS  0.2922000D+01 0.3818000D+00 0.1568000D+03 0.4998000D+02 0.1842000D+02
EXPONENTS  0.7240000D+01 0.2922000D+01 0.3818000D+00 0.1022000D+01 0.1022000D+01
EXPONENTS  0.1022000D+01 0.1301000D+00 0.1301000D+00 0.1301000D+00 0.4190000D-01
EXPONENTS  0.4190000D-01 0.4190000D-01 0.1046000D+01 0.1046000D+01 0.1046000D+01
EXPONENTS  0.1046000D+01 0.1046000D+01 0.1046000D+01 0.3440000D+00 0.3440000D+00
EXPONENTS  0.3440000D+00 0.3440000D+00 0.3440000D+00 0.3440000D+00 0.1350000D+00
EXPONENTS  0.1350000D+00 0.1350000D+00 0.1350000D+00 0.1350000D+00 0.1350000D+00
EXPONENTS  0.7060000D+00 0.7060000D+00 0.7060000D+00 0.7060000D+00 0.7060000D+00
EXPONENTS  0.7060000D+00 0.7060000D+00 0.7060000D+00 0.7060000D+00 0.7060000D+00
EXPONENTS  0.3120000D+00 0.3120000D+00 0.3120000D+00 0.3120000D+00 0.3120000D+00
EXPONENTS  0.3120000D+00 0.3120000D+00 0.3120000D+00 0.3120000D+00 0.3120000D+00
EXPONENTS  0.3741000D+06 0.5605000D+05 0.1276000D+05 0.3615000D+04 0.1183000D+04
EXPONENTS  0.4288000D+03 0.1678000D+03 0.6947000D+02 0.2984000D+02 0.1272000D+02
EXPONENTS  0.5244000D+01 0.3615000D+04 0.1183000D+04 0.4288000D+03 0.1678000D+03
EXPONENTS  0.6947000D+02 0.2984000D+02 0.1272000D+02 0.5244000D+01 0.2219000D+01
EXPONENTS  0.1183000D+04 0.1678000D+03 0.6947000D+02 0.2984000D+02 0.1272000D+02
EXPONENTS  0.5244000D+01 0.2219000D+01 0.3490000D+00 0.7767000D+00 0.1322000D+00
EXPONENTS  0.4970000D-01 0.5744000D+03 0.1358000D+03 0.4319000D+02 0.1587000D+02
EXPONENTS  0.6208000D+01 0.2483000D+01 0.5744000D+03 0.1358000D+03 0.4319000D+02
EXPONENTS  0.1587000D+02 0.6208000D+01 0.2483000D+01 0.5744000D+03 0.1358000D+03
EXPONENTS  0.4319000D+02 0.1587000D+02 0.6208000D+01 0.2483000D+01 0.1358000D+03
EXPONENTS  0.4319000D+02 0.1587000D+02 0.6208000D+01 0.2483000D+01 0.3229000D+00
EXPONENTS  0.1358000D+03 0.4319000D+02 0.1587000D+02 0.6208000D+01 0.2483000D+01
EXPONENTS  0.3229000D+00 0.1358000D+03 0.4319000D+02 0.1587000D+02 0.6208000D+01
EXPONENTS  0.2483000D+01 0.3229000D+00 0.8688000D+00 0.8688000D+00 0.8688000D+00
EXPONENTS  0.1098000D+00 0.1098000D+00 0.1098000D+00 0.3510000D-01 0.3510000D-01
EXPONENTS  0.3510000D-01 0.2690000D+00 0.2690000D+00 0.2690000D+00 0.2690000D+00
EXPONENTS  0.2690000D+00 0.2690000D+00 0.8190000D+00 0.8190000D+00 0.8190000D+00
EXPONENTS  0.8190000D+00 0.8190000D+00 0.8190000D+00 0.1010000D+00 0.1010000D+00
EXPONENTS  0.1010000D+00 0.1010000D+00 0.1010000D+00 0.1010000D+00 0.5570000D+00
EXPONENTS  0.5570000D+00 0.5570000D+00 0.5570000D+00 0.5570000D+00 0.5570000D+00
EXPONENTS  0.5570000D+00 0.5570000D+00 0.5570000D+00 0.5570000D+00 0.2180000D+00
EXPONENTS  0.2180000D+00 0.2180000D+00 0.2180000D+00 0.2180000D+00 0.2180000D+00
EXPONENTS  0.2180000D+00 0.2180000D+00 0.2180000D+00 0.2180000D+00
MO    1     MO 0.0        OCC NO =    2.0000385  ORB. ENERGY =    0.000000
  0.42928541D-04  0.80027449D-04  0.13525729D-03  0.20331694D-03  0.24973844D-03
  0.21077043D-03  0.79255187D-04  0.11186761D-06  0.83614108D-06  0.31248501D-05
  0.87178453D-05  0.11679509D-04 -0.13791323D-04 -0.52865132D-06  0.20659258D-04
  0.61242182D-07 -0.41130346D-12 -0.38562314D-12 -0.27458665D-12  0.74630520D-03
  0.69970856D-03  0.49823418D-03 -0.10935272D-03 -0.10252513D-03 -0.73003999D-04
 -0.89929717D-13  0.19686427D-03 -0.72472353D-04 -0.11858241D-13  0.30932268D-03
  0.42294014D-04  0.18976977D-14 -0.10434761D-04  0.30196809D-05  0.61808968D-05
 -0.70709712D-04  0.64528815D-04  0.11828029D-12  0.10413636D-12  0.26804123D-03
 -0.49579407D-05  0.29801032D-04 -0.24843092D-04 -0.13734157D-13 -0.82078797D-14
  0.28045043D-03 -0.27750845D-06 -0.12138944D-04  0.12416453D-04  0.10359427D-13
  0.11806585D-13  0.18645662D-03  0.64952088D-14  0.24659896D-03 -0.11397935D-04
 -0.14192729D-13  0.26524243D-04  0.23106699D-04 -0.52928968D-14 -0.76632112D-03
  0.11087105D-04 -0.51679976D-13 -0.16993109D-14 -0.30003446D-03  0.77490551D-05
  0.99805419D-14 -0.21509666D-04 -0.94580643D-05 -0.48826093D-14  0.92161304D-03
 -0.13789101D-04  0.38141949D-13 -0.12119199D-02 -0.22673728D-02 -0.39175172D-02
 -0.63507557D-02 -0.96442319D-02 -0.13404575D-01 -0.15937013D-01 -0.14197245D-01
 -0.70506519D-02 -0.11350953D-02 -0.11975926D-04 -0.59744381D-05 -0.19929725D-03
 -0.69451102D-03 -0.25010467D-02 -0.55132461D-02 -0.77608711D-02  0.37021885D-03
  0.10156448D-01  0.60054439D-02  0.22561868D-06  0.27327932D-05  0.56989521D-05
  0.16343603D-04  0.84870052D-06 -0.70481540D-04 -0.18211076D-03  0.14837528D-03
  0.34447753D-03 -0.18461687D-03 -0.93873910D-04  0.16695030D-08  0.21991261D-08
  0.24259803D-08  0.20149666D-08  0.10700032D-08  0.27606641D-09 -0.51677522D+01
 -0.68071386D+01 -0.75093394D+01 -0.62370943D+01 -0.33120702D+01 -0.85453141D+00
  0.70787972D+01  0.93244318D+01  0.10286308D+02  0.85435841D+01  0.45368802D+01
  0.11705388D+01 -0.69060173D-13  0.66762931D-12  0.94142702D-12  0.13464897D-11
 -0.68184342D-14 -0.12348580D-11  0.26592460D-03 -0.25707880D-02 -0.36250794D-02
 -0.51848225D-02  0.26255211D-04  0.47549712D-02 -0.35352196D-03  0.34176228D-02
  0.48192049D-02  0.68927379D-02 -0.34903854D-04 -0.63212907D-02  0.11018665D-10
 -0.33253058D-01  0.45725874D-01 -0.64353392D-13  0.35454836D-03 -0.51715650D-03
 -0.36089039D-14  0.10340651D-04 -0.20155071D-04  0.56486995D-05 -0.84987093D-03
  0.84422223D-03  0.15649998D-12  0.11089331D-12  0.76395912D-03  0.42406217D-04
  0.50424065D-03 -0.54664686D-03 -0.93899695D-13 -0.60236445D-13 -0.38025267D-03
 -0.15823655D-05 -0.50256629D-05  0.66080284D-05  0.88798446D-14  0.54694539D-14
  0.45943124D-05  0.33532522D-14 -0.18636726D-04 -0.10456050D-04 -0.63053337D-14
  0.44115597D-04  0.36983589D-04 -0.37544230D-14  0.11794580D-04 -0.56154409D-05
 -0.25902763D-14  0.44523686D-14  0.87945351D-04 -0.40416347D-04 -0.12098610D-13
 -0.92259616D-05  0.47233170D-04 -0.12584962D-14 -0.25461009D-03  0.74015870D-04
 -0.25739841D-13  0.15448599D-02  0.28902681D-02  0.49937422D-02  0.80954429D-02
  0.12293707D-01  0.17087096D-01  0.20315248D-01  0.18097529D-01  0.89876154D-02
  0.14469300D-02  0.15265967D-04  0.75883944D-05  0.25313614D-03  0.88212875D-03
  0.31766885D-02  0.70026144D-02  0.98574210D-02 -0.47023111D-03 -0.12900147D-01
 -0.76277763D-02 -0.22991412D-06 -0.27848214D-05 -0.58074515D-05 -0.16654760D-04
 -0.86485849D-06  0.71823402D-04  0.18557788D-03 -0.15120012D-03 -0.41620758D-03
  0.23336622D-03  0.11927859D-03  0.10648461D-09  0.14026514D-09  0.15473440D-09
  0.12851904D-09  0.68247174D-10  0.17608128D-10 -0.45148808D+01 -0.59471542D+01
 -0.65606420D+01 -0.54491269D+01 -0.28936376D+01 -0.74657362D+00 -0.60761682D+01
 -0.80037350D+01 -0.88293725D+01 -0.73334852D+01 -0.38942841D+01 -0.10047457D+01
 -0.19933698D-15  0.19270617D-14  0.27173581D-14  0.38865410D-14 -0.19680896D-16
 -0.35643246D-14  0.23651353D-03 -0.22864607D-02 -0.32241482D-02 -0.46113849D-02
  0.23351404D-04  0.42290748D-02  0.30342703D-03 -0.29333373D-02 -0.41363118D-02
 -0.59160201D-02  0.29957893D-04  0.54255484D-02  0.77407127D-12 -0.29033745D-01
 -0.39212710D-01  0.59202740D-14  0.33134802D-03  0.49439303D-03 -0.71306344D-15
  0.88087839D-05  0.18732312D-04 -0.95930747D-05  0.77282847D-03 -0.76323539D-03
  0.35360779D-13  0.15265124D-14  0.70784587D-03 -0.41042498D-04 -0.44832691D-03
  0.48936940D-03 -0.33254757D-14  0.56481171D-14 -0.31309458D-03  0.25238271D-05
 -0.18370514D-05 -0.68677563D-06 -0.24915028D-14 -0.35849645D-14  0.20867938D-05
 -0.18159440D-14 -0.25648182D-04  0.92200977D-05 -0.14688373D-13  0.53700273D-04
 -0.37062780D-04  0.20136205D-13  0.23244272D-04  0.94024868D-05  0.21362928D-14
  0.82120179D-15  0.80505093D-04  0.40406965D-04  0.59762836D-14 -0.87609854D-05
 -0.39883588D-04 -0.84398889D-14 -0.23275429D-03 -0.81337305D-04 -0.38028018D-14
 -0.24803915D-04 -0.46373418D-04 -0.80147049D-04 -0.12963455D-03 -0.19593828D-03
 -0.26984758D-03 -0.31541896D-03 -0.27260640D-03 -0.12722682D-03 -0.17236443D-04
  0.12606983D-06 -0.27106159D-06 -0.34844695D-05 -0.12710844D-04 -0.42886072D-04
 -0.94197057D-04 -0.12167690D-03  0.19554514D-04  0.16403913D-03  0.90022558D-04
 -0.48626452D-07 -0.55388552D-06 -0.11500660D-05 -0.31623894D-05  0.41004010D-06
  0.14298885D-04  0.35663689D-04 -0.29521886D-04 -0.15995351D-04 -0.75907614D-04
 -0.11511753D-04 -0.30201453D-10 -0.39622589D-10 -0.43457405D-10 -0.35755443D-10
 -0.18848237D-10 -0.49039567D-11  0.83909783D+00  0.11008486D+01  0.12073927D+01
  0.99340635D+00  0.52366734D+00  0.13624839D+00  0.37911959D-01  0.49738334D-01
  0.54552188D-01  0.44883897D-01  0.23660238D-01  0.61559490D-02 -0.13808000D-14
 -0.49564686D-13 -0.78635616D-13 -0.93377382D-13 -0.14130459D-13  0.10283883D-12
  0.22723234D-04  0.81566481D-03  0.12940727D-02  0.15366716D-02  0.23253892D-03
 -0.16923747D-02  0.38895888D-06  0.13961925D-04  0.22150943D-04  0.26303566D-04
  0.39804228D-05 -0.28968771D-04 -0.14000284D-12  0.59041017D-02  0.27812368D-03
 -0.47782055D-15 -0.51984620D-03  0.74317057D-06 -0.42744113D-15 -0.66997523D-05
 -0.29978835D-06 -0.80497894D-05  0.62443644D-06  0.74253529D-05 -0.10960858D-13
 -0.60727891D-14  0.68909094D-03  0.80426520D-05 -0.74178656D-05 -0.62478639D-06
  0.22273782D-13  0.17502345D-13 -0.10397227D-03 -0.16085426D-05  0.10084540D-05
  0.60008856D-06 -0.27673955D-14  0.40502380D-14  0.76204022D-04 -0.15926232D-14
  0.63048337D-04 -0.33674357D-05 -0.58636515D-15  0.22980837D-04  0.24292243D-05
  0.53642347D-14 -0.21212585D-03  0.76730827D-05 -0.66842506D-14  0.68763794D-15
  0.27062298D-04 -0.48537414D-06 -0.20668434D-14  0.21496624D-05  0.34497277D-05
  0.39295380D-17 -0.83336558D-04 -0.19936053D-05  0.98706991D-14
MO    2     MO 0.0        OCC NO =    2.0000376  ORB. ENERGY =    0.000000
 -0.56349771D-03 -0.10504733D-02 -0.17754429D-02 -0.26688218D-02 -0.32781696D-02
 -0.27666595D-02 -0.10403362D-02 -0.10867853D-05 -0.81230465D-05 -0.30357680D-04
 -0.84693199D-04 -0.11346554D-03  0.13398164D-03  0.18102675D-04 -0.44381184D-03
 -0.64671018D-04  0.47281581D-12  0.44329488D-12  0.31565236D-12  0.10158334D-04
  0.95240834D-05  0.67817148D-05  0.81200434D-03  0.76130568D-03  0.54209500D-03
  0.94779352D-13  0.19076379D-04  0.57058959D-03  0.81615918D-15  0.75954426D-05
 -0.50524226D-03 -0.17162902D-14 -0.13860651D-05 -0.45955365D-04 -0.63513321D-04
  0.71271004D-03 -0.64919672D-03 -0.31938032D-12 -0.93967824D-13  0.25344912D-04
  0.63053853D-04 -0.11058248D-03  0.47528625D-04  0.30332753D-13 -0.40805157D-15
  0.15805777D-04  0.47711324D-05  0.16267302D-03 -0.16744415D-03 -0.30883551D-13
 -0.11445392D-13  0.19925193D-04 -0.92038824D-14  0.14686212D-04  0.99441411D-04
  0.20927260D-13 -0.33624957D-06 -0.18907473D-03  0.66843871D-14 -0.43722387D-04
 -0.10924950D-03  0.12578925D-12  0.36619566D-14 -0.17562237D-04 -0.74020030D-04
 -0.11711796D-13  0.48195146D-06  0.97785349D-04  0.72592591D-15  0.52204761D-04
  0.12427474D-03 -0.94376580D-13 -0.10613903D-02 -0.19857480D-02 -0.34309322D-02
 -0.55619441D-02 -0.84463459D-02 -0.11739626D-01 -0.13957516D-01 -0.12433840D-01
 -0.61749080D-02 -0.99410794D-03 -0.10488426D-04 -0.54001606D-05 -0.18014032D-03
 -0.62775294D-03 -0.22606400D-02 -0.49832995D-02 -0.70148773D-02  0.33463251D-03
  0.91801852D-02  0.54281860D-02  0.28945700D-06  0.35060312D-05  0.73114584D-05
  0.20967990D-04  0.10888385D-05 -0.90424141D-04 -0.23363861D-03  0.19035775D-03
  0.21196193D-03 -0.39029704D-03 -0.18390638D-03 -0.30951168D-08 -0.40769929D-08
 -0.44975613D-08 -0.37355768D-08 -0.19836950D-08 -0.51180367D-09  0.38379337D+01
  0.50554565D+01  0.55769598D+01  0.46321018D+01  0.24597746D+01  0.63463470D+00
 -0.65401626D+01 -0.86149241D+01 -0.95036098D+01 -0.78934920D+01 -0.41916633D+01
 -0.10814710D+01  0.13072659D-12 -0.12637806D-11 -0.17820626D-11 -0.25488209D-11
  0.12906870D-13  0.23375091D-11 -0.16506358D-03  0.15957285D-02  0.22501438D-02
  0.32183009D-02 -0.16297023D-04 -0.29514854D-02  0.30652937D-03 -0.29633287D-02
 -0.41786028D-02 -0.59765074D-02  0.30264192D-04  0.54810209D-02 -0.20363009D-10
  0.24802573D-01 -0.42332663D-01  0.12758578D-12 -0.12067812D-03  0.96741963D-04
  0.59874965D-14 -0.99179043D-05  0.11564086D-04  0.15375406D-04  0.42008130D-03
 -0.43545671D-03 -0.32677043D-12 -0.21070485D-12 -0.38568114D-03  0.27787003D-04
 -0.25746054D-03  0.22967354D-03  0.17766097D-12  0.11842418D-12  0.39103967D-03
 -0.34829192D-05  0.47074368D-04 -0.43591448D-04 -0.14257684D-13 -0.13758857D-13
 -0.25042763D-04 -0.63471651D-14 -0.32637916D-04  0.39363139D-06 -0.18330274D-14
  0.64536270D-04  0.33584238D-04  0.20874523D-13  0.33377477D-04 -0.34765132D-04
  0.36927749D-15 -0.78181072D-14 -0.41986117D-04 -0.14135831D-04  0.27196938D-13
  0.17107147D-04 -0.39535062D-04 -0.37426166D-14  0.10885120D-03  0.81942556D-04
  0.51178995D-13 -0.52281525D-03 -0.97813155D-03 -0.16899944D-02 -0.27396794D-02
 -0.41604661D-02 -0.57826565D-02 -0.68751354D-02 -0.61246095D-02 -0.30416106D-02
 -0.48967358D-03 -0.51663455D-05 -0.28326037D-05 -0.94490919D-04 -0.32928193D-03
 -0.11857976D-02 -0.26139431D-02 -0.36795883D-02  0.17552835D-03  0.48153803D-02
  0.28473042D-02  0.29292603D-06  0.35480496D-05  0.73990834D-05  0.21219283D-04
  0.11018878D-05 -0.91507839D-04 -0.23643868D-03  0.19263911D-03  0.60458929D-04
 -0.31539164D-03 -0.15825462D-03  0.12583034D-08  0.16574800D-08  0.18284599D-08
  0.15186791D-08  0.80646074D-09  0.20807109D-09 -0.45046324D+01 -0.59336547D+01
 -0.65457499D+01 -0.54367578D+01 -0.28870693D+01 -0.74487896D+00 -0.75367000D+01
 -0.99275970D+01 -0.10951694D+02 -0.90962390D+01 -0.48303553D+01 -0.12462569D+01
 -0.60022686D-13  0.58026071D-12  0.81822817D-12  0.11702827D-11 -0.59261470D-14
 -0.10732596D-11  0.19781604D-03 -0.19123582D-02 -0.26966247D-02 -0.38568867D-02
  0.19530731D-04  0.35371288D-02  0.35433210D-03 -0.34254548D-02 -0.48302488D-02
 -0.69085335D-02  0.34983841D-04  0.63357768D-02  0.81426580D-11 -0.29084826D-01
 -0.48747171D-01 -0.61133838D-13  0.16444574D-03  0.17344397D-03 -0.18566585D-14
  0.11513476D-04  0.15077168D-04  0.14413706D-04  0.52488822D-03 -0.53930192D-03
 -0.20308184D-12  0.90537903D-13  0.50466390D-03  0.21837848D-04 -0.30918075D-03
  0.28734290D-03  0.80368745D-13 -0.58214034D-13 -0.43158677D-03 -0.20769928D-05
  0.47403719D-04 -0.45326727D-04 -0.64573872D-14  0.13732324D-13  0.28841367D-04
  0.57438927D-14  0.27373556D-04  0.17273817D-05  0.19058792D-13 -0.53385524D-04
  0.27026519D-04 -0.36290470D-13 -0.28735144D-04 -0.32208664D-04  0.80855704D-14
  0.15391561D-14  0.51438424D-04 -0.95365379D-05 -0.18684435D-13 -0.19443846D-04
 -0.43373959D-04  0.14066967D-13 -0.13487143D-03  0.71983573D-04  0.23077741D-13
  0.51351357D-03  0.96006535D-03  0.16592783D-02  0.26838142D-02  0.40564954D-02
  0.55866340D-02  0.65300949D-02  0.56437495D-02  0.26339673D-02  0.35684477D-03
 -0.26100141D-05  0.64797369D-05  0.83296366D-04  0.30385317D-03  0.10251931D-02
  0.22517840D-02  0.29086907D-02 -0.46745135D-03 -0.39213612D-02 -0.21519924D-02
  0.23010826D-06  0.26210761D-05  0.54422988D-05  0.14964939D-04 -0.19403763D-05
 -0.67664641D-04 -0.16876636D-03  0.13970235D-03 -0.27593183D-04  0.11698887D-02
  0.25922982D-03 -0.70754146D-10 -0.92825416D-10 -0.10180939D-09 -0.83765701D-10
 -0.44156515D-10 -0.11488695D-10  0.26052828D-01  0.34179828D-01  0.37487874D-01
  0.30843894D-01  0.16259147D-01  0.42303242D-02 -0.57187073D+00 -0.75026187D+00
 -0.82287490D+00 -0.67703668D+00 -0.35689524D+00 -0.92857429D-01  0.82208085D-15
  0.29509111D-13  0.46816944D-13  0.55593685D-13  0.84127899D-14 -0.61226708D-13
  0.11059680D-05  0.39699421D-04  0.62984126D-04  0.74791718D-04  0.11317958D-04
 -0.82369979D-04 -0.45463178D-05 -0.16319295D-03 -0.25890970D-03 -0.30744733D-03
 -0.46524885D-04  0.33859939D-03 -0.64056458D-12  0.18635713D-03 -0.39208010D-02
  0.31180986D-14 -0.43707104D-04 -0.11723932D-03  0.49461760D-15 -0.55294380D-06
 -0.11012748D-06  0.19614819D-04  0.45923699D-04 -0.65538518D-04  0.25686983D-13
 -0.56428327D-14  0.37417785D-04 -0.91478224D-04  0.91742535D-04 -0.26431084D-06
 -0.55933141D-13 -0.10126112D-13 -0.14311422D-04  0.10305458D-04 -0.89466421D-05
 -0.13588154D-05  0.83167999D-14 -0.51080665D-14  0.64227007D-05 -0.99222408D-17
  0.22451261D-05  0.32886254D-04  0.26355112D-14  0.20716264D-05  0.45569345D-04
 -0.26057445D-14 -0.88070045D-05 -0.14422811D-03  0.23372905D-13 -0.11651648D-14
  0.16491021D-05  0.97851884D-05  0.10553272D-14 -0.81352908D-06 -0.19717942D-04
  0.24401671D-14 -0.41337771D-05 -0.96376235D-05 -0.25590037D-13
MO    3     MO 0.0        OCC NO =    2.0000330  ORB. ENERGY =    0.000000
  0.25542014D-11  0.47615460D-11  0.80476615D-11  0.12097136D-10  0.14859165D-10
  0.12540611D-10  0.47155973D-11 -0.93965276D-16 -0.70233222D-15 -0.26247759D-14
 -0.73227160D-14 -0.98104206D-14  0.11584277D-13  0.25434123D-12 -0.12973784D-12
 -0.13517134D-13 -0.66042035D-04 -0.61918606D-04 -0.44089736D-04 -0.36286963D-12
 -0.34021334D-12 -0.24225217D-12 -0.87241534D-13 -0.81794483D-13 -0.58242545D-13
 -0.59750030D-05 -0.25857808D-12  0.14931710D-12  0.15194134D-05  0.11824833D-12
 -0.14975241D-12 -0.28542788D-06  0.95987618D-14 -0.17553351D-13 -0.35671777D-13
  0.19112740D-12 -0.15545562D-12  0.11748441D-02  0.12862536D-04 -0.30816058D-12
  0.32187369D-13 -0.48391739D-13  0.16204370D-13 -0.10417662D-03 -0.71179296D-05
  0.14337089D-12  0.20824153D-14  0.38794279D-13 -0.40876694D-13  0.11681497D-03
  0.15235327D-05 -0.32987126D-13  0.22314623D-05  0.49233142D-14  0.23692664D-13
 -0.26841210D-05  0.67910110D-13 -0.35866381D-13 -0.40102660D-05 -0.82680052D-13
 -0.35211610D-13 -0.46342266D-03 -0.13166561D-05  0.32705748D-14 -0.25415269D-13
  0.14967225D-05 -0.16611064D-13  0.25320697D-13  0.24532458D-05  0.67993400D-14
  0.50925109D-13  0.34831743D-03  0.17682023D-10  0.33081178D-10  0.57156938D-10
  0.92658113D-10  0.14071024D-09  0.19557399D-09  0.23252249D-09  0.20713911D-09
  0.10286966D-09  0.16561145D-10  0.17472987D-12  0.61959192D-13  0.20668549D-11
  0.72025756D-11  0.25937641D-10  0.57176302D-10  0.80485779D-10 -0.38394340D-11
 -0.10532962D-09 -0.62280744D-10  0.14700150D-14  0.17805472D-13  0.37131434D-13
  0.10648649D-12  0.55296951D-14 -0.45922138D-12 -0.11865399D-11  0.96673683D-12
 -0.39445685D-11  0.12310133D-12  0.23274432D-13  0.81772110D+01  0.10771300D+02
  0.11882430D+02  0.98692883D+01  0.52408659D+01  0.13521708D+01  0.20909601D-08
  0.27542837D-08  0.30384060D-08  0.25236341D-08  0.13401197D-08  0.34575790D-09
 -0.21175659D-08 -0.27893297D-08 -0.30770673D-08 -0.25557453D-08 -0.13571717D-08
 -0.35015739D-09 -0.35811107D-03  0.34619874D-02  0.48817636D-02  0.69822134D-02
 -0.35356946D-04 -0.64033482D-02 -0.92866244D-13  0.89777109D-12  0.12659510D-11
  0.18106448D-11 -0.91688502D-14 -0.16605320D-11  0.99099738D-13 -0.95803250D-12
 -0.13509258D-11 -0.19321813D-11  0.97842942D-14  0.17719925D-11  0.53576826D-01
  0.13679204D-10 -0.13568920D-10 -0.34847416D-03 -0.84205885D-13  0.74625687D-13
 -0.14474195D-04 -0.33599157D-14  0.66979252D-14 -0.31131251D-13  0.19411364D-12
 -0.16298239D-12  0.98986805D-03  0.56581423D-03 -0.16322749D-12  0.14701087D-13
 -0.12437754D-12  0.10967646D-12 -0.48358148D-03 -0.33498018D-03  0.78639400D-13
  0.93065559D-15  0.79180439D-14 -0.88486995D-14  0.39440037D-04  0.52612070D-04
 -0.96668936D-14  0.22477810D-04  0.49593816D-14  0.39456408D-14  0.41640590D-04
 -0.16376394D-13 -0.12192220D-13 -0.10907402D-03  0.14982492D-14  0.35529742D-15
 -0.20130948D-04  0.17087015D-04 -0.22364328D-13  0.65436750D-14 -0.85078094D-04
  0.24570400D-13 -0.50735543D-14  0.33817050D-04  0.42522584D-13 -0.14557471D-13
 -0.13885033D-03  0.22964889D-10  0.42964856D-10  0.74233741D-10  0.12034162D-09
  0.18275029D-09  0.25400571D-09  0.30199333D-09  0.26902615D-09  0.13360408D-09
  0.21509126D-10  0.22693398D-12 -0.27308088D-13 -0.91095210D-12 -0.31744857D-11
 -0.11431837D-10 -0.25200062D-10 -0.35473554D-10  0.16922041D-11  0.46423305D-10
  0.27449810D-10 -0.66863816D-15 -0.80988410D-14 -0.16889279D-13 -0.48435512D-13
 -0.25151887D-14  0.20887742D-12  0.53969913D-12 -0.43972145D-12  0.15267559D-11
 -0.18776323D-12 -0.17089835D-12 -0.82498306D+01 -0.10866957D+02 -0.11987954D+02
 -0.99569348D+01 -0.52874087D+01 -0.13641791D+01  0.29908006D-09  0.39395840D-09
  0.43459778D-09  0.36096749D-09  0.19168375D-09  0.49455410D-10 -0.19371694D-08
 -0.25517053D-08 -0.28149304D-08 -0.23380201D-08 -0.12415535D-08 -0.32032730D-09
  0.35983800D-03 -0.34786822D-02 -0.49053050D-02 -0.70158838D-02  0.35527448D-04
  0.64342272D-02 -0.11170344D-13  0.10798769D-12  0.15227392D-12  0.21779199D-12
 -0.11028680D-14 -0.19973579D-12  0.90046156D-13 -0.87050830D-12 -0.12275076D-11
 -0.17556605D-11  0.88904179D-14  0.16101063D-11 -0.54005747D-01  0.26966747D-11
 -0.12987803D-10  0.35895889D-03  0.25889051D-13  0.71633765D-14  0.15360360D-04
  0.53254440D-14  0.13037339D-14  0.77160690D-13  0.35029537D-13 -0.11219023D-12
  0.99109525D-03 -0.55904491D-03  0.21931824D-12 -0.23248377D-13 -0.52395303D-15
  0.23772330D-13 -0.47208915D-03  0.32159889D-03 -0.21103058D-12  0.90534778D-15
  0.11014360D-13 -0.11919707D-13  0.38568726D-04 -0.51649635D-04  0.11559897D-13
 -0.19822378D-04  0.91355755D-14 -0.61767438D-14 -0.46852720D-04 -0.34467376D-13
  0.25188897D-13  0.10631985D-03  0.70606499D-14 -0.66586651D-14 -0.14287187D-04
 -0.17190722D-04  0.52761734D-14 -0.14913434D-13  0.85709042D-04  0.15389259D-13
 -0.18614905D-13 -0.34136876D-04 -0.31217779D-13  0.63355208D-13 -0.13510990D-03
  0.28451603D-10  0.53193137D-10  0.91933551D-10  0.14869873D-09  0.22475315D-09
  0.30953163D-09  0.36180478D-09  0.31269615D-09  0.14593692D-09  0.19771251D-10
 -0.14460978D-12  0.11533766D-12  0.14826541D-11  0.54085089D-11  0.18248175D-10
  0.40081180D-10  0.51773952D-10 -0.83205146D-11 -0.69799228D-10 -0.38304916D-10
  0.98319153D-15  0.11199163D-13  0.23253499D-13  0.63941216D-13 -0.82907130D-14
 -0.28911306D-12 -0.72109389D-12  0.59691108D-12 -0.21240567D-11  0.34467194D-12
  0.10832191D-12 -0.17576424D-02 -0.23059269D-02 -0.25291028D-02 -0.20808696D-02
 -0.10969161D-02 -0.28539694D-03  0.22996310D-08  0.30169851D-08  0.33089797D-08
  0.27225289D-08  0.14351624D-08  0.37340226D-09 -0.67042656D-09 -0.87956152D-09
 -0.96468864D-09 -0.79371675D-09 -0.41840234D-09 -0.10886042D-09  0.80381830D-08
  0.28853565D-06  0.45776905D-06  0.54358670D-06  0.82258995D-07 -0.59866555D-06
  0.20121927D-13  0.72228928D-12  0.11459300D-11  0.13607568D-11  0.20591837D-12