 Entering Gaussian System, Link 0=/home/bruns/programas/chemistry/gaussian/g09/g09
 Input=GAUSSIAN.com
 Output=GAUSSIAN.log
 Initial command:
 /home/bruns/programas/chemistry/gaussian/g09/l1.exe /home/bruns/programas/chemistry/gaussian/work/Gau-66959.inp -scrdir=/home/bruns/programas/chemistry/gaussian/work/
 Entering Link 1 = /home/bruns/programas/chemistry/gaussian/g09/l1.exe PID=     66961.
  
 Copyright (c) 1988,1990,1992,1993,1995,1998,2003,2009,2010,
            Gaussian, Inc.  All Rights Reserved.
  
 This is part of the Gaussian(R) 09 program.  It is based on
 the Gaussian(R) 03 system (copyright 2003, Gaussian, Inc.),
 the Gaussian(R) 98 system (copyright 1998, Gaussian, Inc.),
 the Gaussian(R) 94 system (copyright 1995, Gaussian, Inc.),
 the Gaussian 92(TM) system (copyright 1992, Gaussian, Inc.),
 the Gaussian 90(TM) system (copyright 1990, Gaussian, Inc.),
 the Gaussian 88(TM) system (copyright 1988, Gaussian, Inc.),
 the Gaussian 86(TM) system (copyright 1986, Carnegie Mellon
 University), and the Gaussian 82(TM) system (copyright 1983,
 Carnegie Mellon University). Gaussian is a federally registered
 trademark of Gaussian, Inc.
  
 This software contains proprietary and confidential information,
 including trade secrets, belonging to Gaussian, Inc.
  
 This software is provided under written license and may be
 used, copied, transmitted, or stored only in accord with that
 written license.
  
 The following legend is applicable only to US Government
 contracts under FAR:
  
                    RESTRICTED RIGHTS LEGEND
  
 Use, reproduction and disclosure by the US Government is
 subject to restrictions as set forth in subparagraphs (a)
 and (c) of the Commercial Computer Software - Restricted
 Rights clause in FAR 52.227-19.
  
 Gaussian, Inc.
 340 Quinnipiac St., Bldg. 40, Wallingford CT 06492
  
  
 ---------------------------------------------------------------
 Warning -- This program may not be used in any manner that
 competes with the business of Gaussian, Inc. or will provide
 assistance to any competitor of Gaussian, Inc.  The licensee
 of this program is prohibited from giving any competitor of
 Gaussian, Inc. access to this program.  By using this program,
 the user acknowledges that Gaussian, Inc. is engaged in the
 business of creating and licensing software in the field of
 computational chemistry and represents and warrants to the
 licensee that it is not a competitor of Gaussian, Inc. and that
 it will not use this program in any manner prohibited above.
 ---------------------------------------------------------------
  

 Cite this work as:
 Gaussian 09, Revision B.01,
 M. J. Frisch, G. W. Trucks, H. B. Schlegel, G. E. Scuseria, 
 M. A. Robb, J. R. Cheeseman, G. Scalmani, V. Barone, B. Mennucci, 
 G. A. Petersson, H. Nakatsuji, M. Caricato, X. Li, H. P. Hratchian, 
 A. F. Izmaylov, J. Bloino, G. Zheng, J. L. Sonnenberg, M. Hada, 
 M. Ehara, K. Toyota, R. Fukuda, J. Hasegawa, M. Ishida, T. Nakajima, 
 Y. Honda, O. Kitao, H. Nakai, T. Vreven, J. A. Montgomery, Jr., 
 J. E. Peralta, F. Ogliaro, M. Bearpark, J. J. Heyd, E. Brothers, 
 K. N. Kudin, V. N. Staroverov, T. Keith, R. Kobayashi, J. Normand, 
 K. Raghavachari, A. Rendell, J. C. Burant, S. S. Iyengar, J. Tomasi, 
 M. Cossi, N. Rega, J. M. Millam, M. Klene, J. E. Knox, J. B. Cross, 
 V. Bakken, C. Adamo, J. Jaramillo, R. Gomperts, R. E. Stratmann, 
 O. Yazyev, A. J. Austin, R. Cammi, C. Pomelli, J. W. Ochterski, 
 R. L. Martin, K. Morokuma, V. G. Zakrzewski, G. A. Voth, 
 P. Salvador, J. J. Dannenberg, S. Dapprich, A. D. Daniels, 
 O. Farkas, J. B. Foresman, J. V. Ortiz, J. Cioslowski, 
 and D. J. Fox, Gaussian, Inc., Wallingford CT, 2010.
 
 ******************************************
 Gaussian 09:  EM64L-G09RevB.01 12-Aug-2010
                28-Nov-2021 
 ******************************************
 %nproc=8
 Will use up to    8 processors via shared memory.
 %mem=8GB
 -----------------------------------------------------
 # qcisd/aug-cc-pvtz nosymm density=current output=wfn
 -----------------------------------------------------
 1/30=1,38=1/1;
 2/12=2,15=1,17=6,18=5,40=1/2;
 3/5=16,6=1,7=10,11=9,16=1,25=1,30=1,71=1/1,2,3;
 4//1;
 5/5=2,38=5/2;
 8/6=4,9=120000,10=1/1,4;
 9/5=8,15=1/13;
 11/28=-7,31=1,32=3,42=3/11;
 10/5=6,13=10,31=1/2;
 6/7=2,8=2,9=2,10=2,22=-1,31=1/1;
 99/5=1,6=1100,9=1/99;
 ------------------
 cl2cs-wavefunction
 ------------------
 Symbolic Z-matrix:
 Charge =  0 Multiplicity = 1
 C                     0.        0.       -0.52291 
 Cl                    0.       -1.43074  -1.5009 
 Cl                    0.        1.43074  -1.5009 
 S                     0.        0.        1.09181 
 
                          Input orientation:                          
 ---------------------------------------------------------------------
 Center     Atomic      Atomic             Coordinates (Angstroms)
 Number     Number       Type             X           Y           Z
 ---------------------------------------------------------------------
      1          6           0        0.000000    0.000000   -0.522914
      2         17           0        0.000000   -1.430735   -1.500900
      3         17           0        0.000000    1.430735   -1.500900
      4         16           0        0.000000    0.000000    1.091815
 ---------------------------------------------------------------------
                    Distance matrix (angstroms):
                    1          2          3          4
     1  C    0.000000
     2  Cl   1.733049   0.000000
     3  Cl   1.733049   2.861470   0.000000
     4  S    1.614729   2.961279   2.961279   0.000000
 Symmetry turned off by external request.
 Stoichiometry    CCl2S
 Framework group  C2V[C2(CS),SGV(Cl2)]
 Deg. of freedom     3
 Full point group                 C2V     NOp   4
 Rotational constants (GHZ):      3.5301033      3.4196840      1.7370082
 Standard basis: Aug-CC-pVTZ (5D, 7F)
 Integral buffers will be    131072 words long.
 Raffenetti 1 integral format.
 Two-electron integral symmetry is turned off.
   196 basis functions,   414 primitive gaussians,   232 cartesian basis functions
    28 alpha electrons       28 beta electrons
       nuclear repulsion energy       244.4088290523 Hartrees.
 NAtoms=    4 NActive=    4 NUniq=    4 SFac= 1.00D+00 NAtFMM=   50 NAOKFM=F Big=F
 One-electron integrals computed using PRISM.
 NBasis=   196 RedAO= T  NBF=   196
 NBsUse=   196 1.00D-06 NBFU=   196
 Harris functional with IExCor=  205 diagonalized for initial guess.
 ExpMin= 3.51D-02 ExpMax= 4.56D+05 ExpMxC= 1.44D+03 IAcc=3 IRadAn=         0 AccDes= 0.00D+00
 HarFok:  IExCor=  205 AccDes= 0.00D+00 IRadAn=         0 IDoV= 1
 ScaDFX=  1.000000  1.000000  1.000000  1.000000
 FoFCou: FMM=F IPFlag=           0 FMFlag=      100000 FMFlg1=           0
         NFxFlg=           0 DoJE=T BraDBF=F KetDBF=T FulRan=T
         Omega=  0.000000  0.000000  1.000000  0.000000  0.000000 ICntrl=     500 IOpCl=  0
         NMat0=    1 NMatS0=    1 NMatT0=    0 NMatD0=    1 NMtDS0=    0 NMtDT0=    0
         I1Cent=           4 NGrid=           0.
 Symmetry not used in FoFCou.
 Requested convergence on RMS density matrix=1.00D-08 within 128 cycles.
 Requested convergence on MAX density matrix=1.00D-06.
 Requested convergence on             energy=1.00D-06.
 No special actions if energy rises.
 Keep R1 ints in memory in canonical form, NReq=371777346.
 SCF Done:  E(RHF) =  -1354.42561486     A.U. after   12 cycles
             Convg  =    0.9742D-08             -V/T =  2.0002
 ExpMin= 3.51D-02 ExpMax= 4.56D+05 ExpMxC= 1.44D+03 IAcc=3 IRadAn=         5 AccDes= 0.00D+00
 HarFok:  IExCor=  205 AccDes= 0.00D+00 IRadAn=         5 IDoV=-2
 ScaDFX=  1.000000  1.000000  1.000000  1.000000
 Range of M.O.s used for correlation:    17   196
 NBasis=   196 NAE=    28 NBE=    28 NFC=    16 NFV=     0
 NROrb=    180 NOA=    12 NOB=    12 NVA=   168 NVB=   168

 **** Warning!!: The largest alpha MO coefficient is  0.31368768D+02

 Semi-Direct transformation.
 ModeAB=           2 MOrb=            12 LenV=    1072680001
 LASXX=     33405819 LTotXX=    33405819 LenRXX=    33405819
 LTotAB=    33954012 MaxLAS=    58380480 LenRXY=    58380480
 NonZer=    66811638 LenScr=   100987392 LnRSAI=           0
 LnScr1=           0 LExtra=           0 Total=    192773691
 MaxDsk=          -1 SrtSym=           F ITran=            4
 JobTyp=0 Pass  1:  I=   1 to  12.
 (rs|ai) integrals will be sorted in core.
 Spin components of T(2) and E(2):
     alpha-alpha T2 =       0.3962174701D-01 E2=     -0.9369033201D-01
     alpha-beta  T2 =       0.2078219342D+00 E2=     -0.5373525245D+00
     beta-beta   T2 =       0.3962174701D-01 E2=     -0.9369033201D-01
 ANorm=    0.1134489060D+01
 E2 =    -0.7247331885D+00 EUMP2 =    -0.13551503480446D+04
 R2 and R3 integrals will be kept in memory, NReq=   736864364.
 Iterations=  50 Convergence= 0.100D-07
 Iteration Nr.   1
 **********************
 DD1Dir will call FoFMem   1 times, MxPair=       156
 NAB=    78 NAA=     0 NBB=     0.
 MP4(R+Q)=  0.24971253D-01
 E3=       -0.32468292D-01        EUMP3=      -0.13551828163D+04
 E4(DQ)=    0.30893346D-02        UMP4(DQ)=   -0.13551797270D+04
 E4(SDQ)=  -0.38384807D-02        UMP4(SDQ)=  -0.13551866548D+04
 DE(Corr)= -0.73223023     E(Corr)=     -1355.1578451    
 NORM(A)=   0.11383653D+01
 Iteration Nr.   2
 **********************
 DD1Dir will call FoFMem   1 times, MxPair=       156
 NAB=    78 NAA=     0 NBB=     0.
 DE(Corr)= -0.75676734     E(CORR)=     -1355.1823822     Delta=-2.45D-02
 NORM(A)=   0.11494548D+01
 Iteration Nr.   3
 **********************
 DD1Dir will call FoFMem   1 times, MxPair=       156
 NAB=    78 NAA=     0 NBB=     0.
 DE(Corr)= -0.75588889     E(CORR)=     -1355.1815037     Delta= 8.78D-04
 NORM(A)=   0.11522706D+01
 Iteration Nr.   4
 **********************
 DD1Dir will call FoFMem   1 times, MxPair=       156
 NAB=    78 NAA=     0 NBB=     0.
 DE(Corr)= -0.75819267     E(CORR)=     -1355.1838075     Delta=-2.30D-03
 NORM(A)=   0.11533881D+01
 Iteration Nr.   5
 **********************
 DD1Dir will call FoFMem   1 times, MxPair=       156
 NAB=    78 NAA=     0 NBB=     0.
 DE(Corr)= -0.75848006     E(CORR)=     -1355.1840949     Delta=-2.87D-04
 NORM(A)=   0.11539510D+01
 Iteration Nr.   6
 **********************
 DD1Dir will call FoFMem   1 times, MxPair=       156
 NAB=    78 NAA=     0 NBB=     0.
 DE(Corr)= -0.75853511     E(CORR)=     -1355.1841500     Delta=-5.50D-05
 NORM(A)=   0.11540192D+01
 Iteration Nr.   7
 **********************
 DD1Dir will call FoFMem   1 times, MxPair=       156
 NAB=    78 NAA=     0 NBB=     0.
 DE(Corr)= -0.75854280     E(CORR)=     -1355.1841577     Delta=-7.69D-06
 NORM(A)=   0.11540243D+01
 Iteration Nr.   8
 **********************
 DD1Dir will call FoFMem   1 times, MxPair=       156
 NAB=    78 NAA=     0 NBB=     0.
 DE(Corr)= -0.75854108     E(CORR)=     -1355.1841559     Delta= 1.72D-06
 NORM(A)=   0.11540313D+01
 Iteration Nr.   9
 **********************
 DD1Dir will call FoFMem   1 times, MxPair=       156
 NAB=    78 NAA=     0 NBB=     0.
 DE(Corr)= -0.75854087     E(CORR)=     -1355.1841557     Delta= 2.12D-07
 NORM(A)=   0.11540299D+01
 Iteration Nr.  10
 **********************
 DD1Dir will call FoFMem   1 times, MxPair=       156
 NAB=    78 NAA=     0 NBB=     0.
 DE(Corr)= -0.75854197     E(CORR)=     -1355.1841568     Delta=-1.11D-06
 NORM(A)=   0.11540318D+01
 Iteration Nr.  11
 **********************
 DD1Dir will call FoFMem   1 times, MxPair=       156
 NAB=    78 NAA=     0 NBB=     0.
 DE(Corr)= -0.75854263     E(CORR)=     -1355.1841575     Delta=-6.59D-07
 NORM(A)=   0.11540328D+01
 Iteration Nr.  12
 **********************
 DD1Dir will call FoFMem   1 times, MxPair=       156
 NAB=    78 NAA=     0 NBB=     0.
 DE(Corr)= -0.75854289     E(CORR)=     -1355.1841577     Delta=-2.59D-07
 NORM(A)=   0.11540336D+01
 Iteration Nr.  13
 **********************
 DD1Dir will call FoFMem   1 times, MxPair=       156
 NAB=    78 NAA=     0 NBB=     0.
 DE(Corr)= -0.75854319     E(CORR)=     -1355.1841580     Delta=-2.94D-07
 NORM(A)=   0.11540341D+01
 Iteration Nr.  14
 **********************
 DD1Dir will call FoFMem   1 times, MxPair=       156
 NAB=    78 NAA=     0 NBB=     0.
 DE(Corr)= -0.75854322     E(CORR)=     -1355.1841581     Delta=-3.23D-08
 NORM(A)=   0.11540343D+01
 Iteration Nr.  15
 **********************
 DD1Dir will call FoFMem   1 times, MxPair=       156
 NAB=    78 NAA=     0 NBB=     0.
 DE(Corr)= -0.75854328     E(CORR)=     -1355.1841581     Delta=-5.91D-08
 NORM(A)=   0.11540344D+01
 Iteration Nr.  16
 **********************
 DD1Dir will call FoFMem   1 times, MxPair=       156
 NAB=    78 NAA=     0 NBB=     0.
 DE(Corr)= -0.75854329     E(CORR)=     -1355.1841581     Delta=-1.24D-08
 NORM(A)=   0.11540345D+01
 Iteration Nr.  17
 **********************
 DD1Dir will call FoFMem   1 times, MxPair=       156
 NAB=    78 NAA=     0 NBB=     0.
 DE(Corr)= -0.75854329     E(CORR)=     -1355.1841581     Delta=-1.84D-10
 NORM(A)=   0.11540345D+01
 Iteration Nr.  18
 **********************
 DD1Dir will call FoFMem   1 times, MxPair=       156
 NAB=    78 NAA=     0 NBB=     0.
 DE(Corr)= -0.75854329     E(CORR)=     -1355.1841582     Delta=-4.38D-09
 NORM(A)=   0.11540345D+01
 Iteration Nr.  19
 **********************
 DD1Dir will call FoFMem   1 times, MxPair=       156
 NAB=    78 NAA=     0 NBB=     0.
 DE(Corr)= -0.75854329     E(CORR)=     -1355.1841581     Delta= 1.81D-09
 NORM(A)=   0.11540345D+01
 Largest amplitude= 9.10D-02

 Z-AMPLITUDE ITERATIONS

 Iteration Nr.   1
 **********************
 DD1Dir will call FoFMem   1 times, MxPair=       156
 NAB=    78 NAA=     0 NBB=     0.
 DE(Z)  -0.72654635D+00          E(Z)=    -0.13551521612D+04
 NORM(A)=   0.11540675D+01
 Iteration Nr.   2
 **********************
 DD1Dir will call FoFMem   1 times, MxPair=       156
 NAB=    78 NAA=     0 NBB=     0.
 DE(Z)  -0.72654717D+00          E(Z)=    -0.13551521620D+04
 NORM(A)=   0.11540648D+01
 Iteration Nr.   3
 **********************
 DD1Dir will call FoFMem   1 times, MxPair=       156
 NAB=    78 NAA=     0 NBB=     0.
 DE(Z)  -0.72654712D+00          E(Z)=    -0.13551521620D+04
 NORM(A)=   0.11541810D+01
 Iteration Nr.   4
 **********************
 DD1Dir will call FoFMem   1 times, MxPair=       156
 NAB=    78 NAA=     0 NBB=     0.
 DE(Z)  -0.72655021D+00          E(Z)=    -0.13551521651D+04
 NORM(A)=   0.11547585D+01
 Iteration Nr.   5
 **********************
 DD1Dir will call FoFMem   1 times, MxPair=       156
 NAB=    78 NAA=     0 NBB=     0.
 DE(Z)  -0.72656615D+00          E(Z)=    -0.13551521810D+04
 NORM(A)=   0.11406778D+01
 Iteration Nr.   6
 **********************
 DD1Dir will call FoFMem   1 times, MxPair=       156
 NAB=    78 NAA=     0 NBB=     0.
 DE(Z)  -0.72617546D+00          E(Z)=    -0.13551517903D+04
 NORM(A)=   0.11406774D+01
 Iteration Nr.   7
 **********************
 DD1Dir will call FoFMem   1 times, MxPair=       156
 NAB=    78 NAA=     0 NBB=     0.
 DE(Z)  -0.72617335D+00          E(Z)=    -0.13551517882D+04
 NORM(A)=   0.11406768D+01
 Iteration Nr.   8
 **********************
 DD1Dir will call FoFMem   1 times, MxPair=       156
 NAB=    78 NAA=     0 NBB=     0.
 DE(Z)  -0.72617392D+00          E(Z)=    -0.13551517888D+04
 NORM(A)=   0.11406775D+01
 Iteration Nr.   9
 **********************
 DD1Dir will call FoFMem   1 times, MxPair=       156
 NAB=    78 NAA=     0 NBB=     0.
 DE(Z)  -0.72617398D+00          E(Z)=    -0.13551517888D+04
 NORM(A)=   0.11406782D+01
 Iteration Nr.  10
 **********************
 DD1Dir will call FoFMem   1 times, MxPair=       156
 NAB=    78 NAA=     0 NBB=     0.
 DE(Z)  -0.72617380D+00          E(Z)=    -0.13551517887D+04
 NORM(A)=   0.11406786D+01
 Iteration Nr.  11
 **********************
 DD1Dir will call FoFMem   1 times, MxPair=       156
 NAB=    78 NAA=     0 NBB=     0.
 DE(Z)  -0.72617403D+00          E(Z)=    -0.13551517889D+04
 NORM(A)=   0.11406787D+01
 Iteration Nr.  12
 **********************
 DD1Dir will call FoFMem   1 times, MxPair=       156
 NAB=    78 NAA=     0 NBB=     0.
 DE(Z)  -0.72617399D+00          E(Z)=    -0.13551517888D+04
 NORM(A)=   0.11406787D+01
 Iteration Nr.  13
 **********************
 DD1Dir will call FoFMem   1 times, MxPair=       156
 NAB=    78 NAA=     0 NBB=     0.
 DE(Z)  -0.72617402D+00          E(Z)=    -0.13551517889D+04
 NORM(A)=   0.11406787D+01
 Iteration Nr.  14
 **********************
 DD1Dir will call FoFMem   1 times, MxPair=       156
 NAB=    78 NAA=     0 NBB=     0.
 DE(Z)  -0.72617400D+00          E(Z)=    -0.13551517889D+04
 NORM(A)=   0.11406786D+01
 Iteration Nr.  15
 **********************
 DD1Dir will call FoFMem   1 times, MxPair=       156
 NAB=    78 NAA=     0 NBB=     0.
 DE(Z)  -0.72617400D+00          E(Z)=    -0.13551517889D+04
 NORM(A)=   0.11406786D+01
 Discarding MO integrals.
          Differentiating once with respect to electric field.
                with respect to dipole field.
          Electric field/nuclear overlap derivatives assumed to be zero.
          Keep R1 ints in memory in canonical form, NReq=367211061.
          There are     1 degrees of freedom in the 1st order CPHF.  IDoFFX=0.
 LinEq1:  Iter=  0 NonCon=     1 RMS=2.09D-03 Max=6.37D-02
 AX will form     1 AO Fock derivatives at one time.
 LinEq1:  Iter=  1 NonCon=     1 RMS=9.30D-04 Max=1.71D-02
 LinEq1:  Iter=  2 NonCon=     1 RMS=4.17D-04 Max=1.04D-02
 LinEq1:  Iter=  3 NonCon=     1 RMS=1.06D-04 Max=1.89D-03
 LinEq1:  Iter=  4 NonCon=     1 RMS=2.64D-05 Max=9.47D-04
 LinEq1:  Iter=  5 NonCon=     1 RMS=8.90D-06 Max=2.33D-04
 LinEq1:  Iter=  6 NonCon=     1 RMS=2.64D-06 Max=9.35D-05
 LinEq1:  Iter=  7 NonCon=     1 RMS=7.72D-07 Max=1.41D-05
 LinEq1:  Iter=  8 NonCon=     1 RMS=1.42D-07 Max=2.24D-06
 LinEq1:  Iter=  9 NonCon=     1 RMS=2.66D-08 Max=3.87D-07
 LinEq1:  Iter= 10 NonCon=     1 RMS=7.15D-09 Max=1.89D-07
 LinEq1:  Iter= 11 NonCon=     1 RMS=1.48D-09 Max=2.44D-08
 LinEq1:  Iter= 12 NonCon=     1 RMS=3.40D-10 Max=5.86D-09
 LinEq1:  Iter= 13 NonCon=     0 RMS=7.27D-11 Max=8.95D-10
 Linear equations converged to 1.000D-10 1.000D-09 after    13 iterations.
 End of Minotr Frequency-dependent properties file   721 does not exist.
 End of Minotr Frequency-dependent properties file   722 does not exist.

 **********************************************************************

            Population analysis using the QCI/CC density.

 **********************************************************************

     Natural Orbital Coefficients:
                           1         2         3         4         5
     Eigenvalues --     2.00004   2.00004   2.00003   2.00003   2.00003
   1 1   C  1S          0.00000  -0.00226   0.00000   0.00000   0.00000
   2        2S          0.00000   0.00039   0.00000   0.00000   0.00000
   3        3S          0.00000   0.00001   0.00000   0.00000   0.00000
   4        4S          0.00000  -0.00294   0.00000   0.00000   0.00000
   5        5S          0.00000  -0.00098   0.00000   0.00000   0.00000
   6        6PX         0.00000   0.00000   0.00000   0.00160   0.00000
   7        6PY         0.00034   0.00000   0.00000   0.00000  -0.00102
   8        6PZ         0.00000   0.00039   0.00000   0.00000   0.00000
   9        7PX         0.00000   0.00000   0.00000   0.00171   0.00000
  10        7PY         0.00046   0.00000   0.00000   0.00000  -0.00222
  11        7PZ         0.00000   0.00134   0.00000   0.00000   0.00000
  12        8PX         0.00000   0.00000   0.00000  -0.00088   0.00000
  13        8PY         0.00296   0.00000   0.00000   0.00000   0.00656
  14        8PZ         0.00000  -0.00495   0.00000   0.00000   0.00000
  15        9PX         0.00000   0.00000   0.00000  -0.00099   0.00000
  16        9PY        -0.00048   0.00000   0.00000   0.00000   0.00156
  17        9PZ         0.00000  -0.00208   0.00000   0.00000   0.00000
  18       10D 0        0.00000  -0.00034   0.00000   0.00000   0.00000
  19       10D+1        0.00000   0.00000   0.00000  -0.00028   0.00000
  20       10D-1        0.00008   0.00000   0.00000   0.00000  -0.00035
  21       10D+2        0.00000  -0.00023   0.00000   0.00000   0.00000
  22       10D-2        0.00000   0.00000   0.00035   0.00000   0.00000
  23       11D 0        0.00000   0.00021   0.00000   0.00000   0.00000
  24       11D+1        0.00000   0.00000   0.00000   0.00010   0.00000
  25       11D-1        0.00068   0.00000   0.00000   0.00000   0.00108
  26       11D+2        0.00000   0.00046   0.00000   0.00000   0.00000
  27       11D-2        0.00000   0.00000  -0.00027   0.00000   0.00000
  28       12D 0        0.00000  -0.00574   0.00000   0.00000   0.00000
  29       12D+1        0.00000   0.00000   0.00000  -0.00269   0.00000
  30       12D-1        0.00367   0.00000   0.00000   0.00000  -0.00330
  31       12D+2        0.00000  -0.00311   0.00000   0.00000   0.00000
  32       12D-2        0.00000   0.00000   0.00229   0.00000   0.00000
  33       13F 0        0.00000   0.00012   0.00000   0.00000   0.00000
  34       13F+1        0.00000   0.00000   0.00000   0.00004   0.00000
  35       13F-1       -0.00039   0.00000   0.00000   0.00000  -0.00029
  36       13F+2        0.00000  -0.00003   0.00000   0.00000   0.00000
  37       13F-2        0.00000   0.00000  -0.00015   0.00000   0.00000
  38       13F+3        0.00000   0.00000   0.00000  -0.00009   0.00000
  39       13F-3       -0.00009   0.00000   0.00000   0.00000   0.00009
  40       14F 0        0.00000  -0.00098   0.00000   0.00000   0.00000
  41       14F+1        0.00000   0.00000   0.00000   0.00005   0.00000
  42       14F-1        0.00492   0.00000   0.00000   0.00000   0.00168
  43       14F+2        0.00000  -0.00010   0.00000   0.00000   0.00000
  44       14F-2        0.00000   0.00000   0.00117   0.00000   0.00000
  45       14F+3        0.00000   0.00000   0.00000   0.00058   0.00000
  46       14F-3        0.00115   0.00000   0.00000   0.00000  -0.00011
  47 2   Cl 1S         -0.00233  -0.00125   0.00000   0.00000   0.02531
  48        2S          0.00828   0.00470   0.00000   0.00000  -0.08598
  49        3S          0.00033   0.00044   0.00000   0.00000   0.00237
  50        4S          0.00057   0.00018   0.00000   0.00000  -0.00638
  51        5S         -0.00114  -0.00193   0.00000   0.00000   0.00398
  52        6S         -0.00125  -0.00200   0.00000   0.00000   0.00411
  53        7PX         0.00000   0.00000   0.69246  -0.68716   0.00000
  54        7PY        -0.41001   0.35356   0.00000   0.00000   0.13907
  55        7PZ         0.55552  -0.59448   0.00000   0.00000   0.03274
  56        8PX         0.00000   0.00000  -0.01495   0.01334   0.00000
  57        8PY         0.01052  -0.00760   0.00000   0.00000  -0.00291
  58        8PZ        -0.01370   0.01380   0.00000   0.00000  -0.00147
  59        9PX         0.00000   0.00000   0.03672  -0.03691   0.00000
  60        9PY        -0.02136   0.01849   0.00000   0.00000   0.00769
  61        9PZ         0.02904  -0.03115   0.00000   0.00000   0.00188
  62       10PX         0.00000   0.00000  -0.00318   0.00276   0.00000
  63       10PY         0.00310  -0.00128   0.00000   0.00000   0.00067
  64       10PZ        -0.00454   0.00120   0.00000   0.00000   0.00015
  65       11PX         0.00000   0.00000  -0.00055   0.00078   0.00000
  66       11PY         0.00036  -0.00040   0.00000   0.00000   0.00030
  67       11PZ        -0.00072   0.00049   0.00000   0.00000   0.00021
  68       12D 0        0.00045  -0.00027   0.00000   0.00000   0.00008
  69       12D+1        0.00000   0.00000   0.00018  -0.00018   0.00000
  70       12D-1        0.00024  -0.00014   0.00000   0.00000   0.00010
  71       12D+2        0.00027  -0.00015   0.00000   0.00000  -0.00006
  72       12D-2        0.00000   0.00000   0.00032  -0.00020   0.00000
  73       13D 0       -0.00203   0.00102   0.00000   0.00000   0.00007
  74       13D+1        0.00000   0.00000  -0.00074   0.00057   0.00000
  75       13D-1       -0.00078   0.00093   0.00000   0.00000  -0.00048
  76       13D+2       -0.00099   0.00070   0.00000   0.00000   0.00015
  77       13D-2        0.00000   0.00000  -0.00108   0.00100   0.00000
  78       14D 0        0.00008  -0.00091   0.00000   0.00000   0.00001
  79       14D+1        0.00000   0.00000   0.00061   0.00006   0.00000
  80       14D-1        0.00004  -0.00032   0.00000   0.00000   0.00009
  81       14D+2       -0.00001  -0.00059   0.00000   0.00000   0.00015
  82       14D-2        0.00000   0.00000   0.00045  -0.00047   0.00000
  83       15F 0       -0.00002   0.00000   0.00000   0.00000   0.00004
  84       15F+1        0.00000   0.00000  -0.00007  -0.00005   0.00000
  85       15F-1        0.00001   0.00002   0.00000   0.00000   0.00003
  86       15F+2        0.00002   0.00002   0.00000   0.00000  -0.00003
  87       15F-2        0.00000   0.00000  -0.00001  -0.00003   0.00000
  88       15F+3        0.00000   0.00000  -0.00001  -0.00003   0.00000
  89       15F-3        0.00003   0.00004   0.00000   0.00000  -0.00005
  90       16F 0       -0.00038  -0.00011   0.00000   0.00000   0.00019
  91       16F+1        0.00000   0.00000   0.00013   0.00018   0.00000
  92       16F-1       -0.00093   0.00046   0.00000   0.00000  -0.00017
  93       16F+2       -0.00009  -0.00028   0.00000   0.00000   0.00029
  94       16F-2        0.00000   0.00000  -0.00033   0.00033   0.00000
  95       16F+3        0.00000   0.00000   0.00030  -0.00022   0.00000
  96       16F-3       -0.00028   0.00019   0.00000   0.00000   0.00020
  97 3   Cl 1S          0.00233  -0.00125   0.00000   0.00000  -0.02531
  98        2S         -0.00828   0.00470   0.00000   0.00000   0.08598
  99        3S         -0.00033   0.00044   0.00000   0.00000  -0.00237
 100        4S         -0.00057   0.00018   0.00000   0.00000   0.00638
 101        5S          0.00114  -0.00193   0.00000   0.00000  -0.00398
 102        6S          0.00125  -0.00200   0.00000   0.00000  -0.00411
 103        7PX         0.00000   0.00000  -0.69246  -0.68716   0.00000
 104        7PY        -0.41001  -0.35356   0.00000   0.00000   0.13907
 105        7PZ        -0.55552  -0.59448   0.00000   0.00000  -0.03274
 106        8PX         0.00000   0.00000   0.01495   0.01334   0.00000
 107        8PY         0.01052   0.00760   0.00000   0.00000  -0.00291
 108        8PZ         0.01370   0.01380   0.00000   0.00000   0.00147
 109        9PX         0.00000   0.00000  -0.03672  -0.03691   0.00000
 110        9PY        -0.02136  -0.01849   0.00000   0.00000   0.00769
 111        9PZ        -0.02904  -0.03115   0.00000   0.00000  -0.00188
 112       10PX         0.00000   0.00000   0.00318   0.00276   0.00000
 113       10PY         0.00310   0.00128   0.00000   0.00000   0.00067
 114       10PZ         0.00454   0.00120   0.00000   0.00000  -0.00015
 115       11PX         0.00000   0.00000   0.00055   0.00078   0.00000
 116       11PY         0.00036   0.00040   0.00000   0.00000   0.00030
 117       11PZ         0.00072   0.00049   0.00000   0.00000  -0.00021
 118       12D 0       -0.00045  -0.00027   0.00000   0.00000  -0.00008
 119       12D+1        0.00000   0.00000  -0.00018  -0.00018   0.00000
 120       12D-1        0.00024   0.00014   0.00000   0.00000   0.00010
 121       12D+2       -0.00027  -0.00015   0.00000   0.00000   0.00006
 122       12D-2        0.00000   0.00000   0.00032   0.00020   0.00000
 123       13D 0        0.00203   0.00102   0.00000   0.00000  -0.00007
 124       13D+1        0.00000   0.00000   0.00074   0.00057   0.00000
 125       13D-1       -0.00078  -0.00093   0.00000   0.00000  -0.00048
 126       13D+2        0.00099   0.00070   0.00000   0.00000  -0.00015
 127       13D-2        0.00000   0.00000  -0.00108  -0.00100   0.00000
 128       14D 0       -0.00008  -0.00091   0.00000   0.00000  -0.00001
 129       14D+1        0.00000   0.00000  -0.00061   0.00006   0.00000
 130       14D-1        0.00004   0.00032   0.00000   0.00000   0.00009
 131       14D+2        0.00001  -0.00059   0.00000   0.00000  -0.00015
 132       14D-2        0.00000   0.00000   0.00045   0.00047   0.00000
 133       15F 0        0.00002   0.00000   0.00000   0.00000  -0.00004
 134       15F+1        0.00000   0.00000   0.00007  -0.00005   0.00000
 135       15F-1        0.00001  -0.00002   0.00000   0.00000   0.00003
 136       15F+2       -0.00002   0.00002   0.00000   0.00000   0.00003
 137       15F-2        0.00000   0.00000  -0.00001   0.00003   0.00000
 138       15F+3        0.00000   0.00000   0.00001  -0.00003   0.00000
 139       15F-3        0.00003  -0.00004   0.00000   0.00000  -0.00005
 140       16F 0        0.00038  -0.00011   0.00000   0.00000  -0.00019
 141       16F+1        0.00000   0.00000  -0.00013   0.00018   0.00000
 142       16F-1       -0.00093  -0.00046   0.00000   0.00000  -0.00017
 143       16F+2        0.00009  -0.00028   0.00000   0.00000  -0.00029
 144       16F-2        0.00000   0.00000  -0.00033  -0.00033   0.00000
 145       16F+3        0.00000   0.00000  -0.00030  -0.00022   0.00000
 146       16F-3       -0.00028  -0.00019   0.00000   0.00000   0.00020
 147 4   S  1S          0.00000   0.00086   0.00000   0.00000   0.00000
 148        2S          0.00000  -0.00300   0.00000   0.00000   0.00000
 149        3S          0.00000   0.00036   0.00000   0.00000   0.00000
 150        4S          0.00000  -0.00005   0.00000   0.00000   0.00000
 151        5S          0.00000   0.00750   0.00000   0.00000   0.00000
 152        6S          0.00000   0.00349   0.00000   0.00000   0.00000
 153        7PX         0.00000   0.00000   0.00000   0.11537   0.00000
 154        7PY         0.08302   0.00000   0.00000   0.00000   0.94795
 155        7PZ         0.00000  -0.05605   0.00000   0.00000   0.00000
 156        8PX         0.00000   0.00000   0.00000  -0.00354   0.00000
 157        8PY        -0.00477   0.00000   0.00000   0.00000  -0.01849
 158        8PZ         0.00000   0.00093   0.00000   0.00000   0.00000
 159        9PX         0.00000   0.00000   0.00000   0.00666   0.00000
 160        9PY         0.00489   0.00000   0.00000   0.00000   0.05473
 161        9PZ         0.00000  -0.00321   0.00000   0.00000   0.00000
 162       10PX         0.00000   0.00000   0.00000   0.00140   0.00000
 163       10PY        -0.00570   0.00000   0.00000   0.00000  -0.00509
 164       10PZ         0.00000  -0.00137   0.00000   0.00000   0.00000
 165       11PX         0.00000   0.00000   0.00000   0.00023   0.00000
 166       11PY        -0.00030   0.00000   0.00000   0.00000  -0.00114
 167       11PZ         0.00000  -0.00002   0.00000   0.00000   0.00000
 168       12D 0        0.00000  -0.00037   0.00000   0.00000   0.00000
 169       12D+1        0.00000   0.00000   0.00000  -0.00001   0.00000
 170       12D-1        0.00238   0.00000   0.00000   0.00000   0.00267
 171       12D+2        0.00000  -0.00008   0.00000   0.00000   0.00000
 172       12D-2        0.00000   0.00000  -0.00032   0.00000   0.00000
 173       13D 0        0.00000   0.00000   0.00000   0.00000   0.00000
 174       13D+1        0.00000   0.00000   0.00000  -0.00006   0.00000
 175       13D-1       -0.00006   0.00000   0.00000   0.00000  -0.00034
 176       13D+2        0.00000  -0.00009   0.00000   0.00000   0.00000
 177       13D-2        0.00000   0.00000   0.00010   0.00000   0.00000
 178       14D 0        0.00000  -0.00003   0.00000   0.00000   0.00000
 179       14D+1        0.00000   0.00000   0.00000  -0.00139   0.00000
 180       14D-1        0.00146   0.00000   0.00000   0.00000  -0.00030
 181       14D+2        0.00000   0.00037   0.00000   0.00000   0.00000
 182       14D-2        0.00000   0.00000  -0.00061   0.00000   0.00000
 183       15F 0        0.00000   0.00008   0.00000   0.00000   0.00000
 184       15F+1        0.00000   0.00000   0.00000  -0.00008   0.00000
 185       15F-1       -0.00022   0.00000   0.00000   0.00000  -0.00019
 186       15F+2        0.00000   0.00012   0.00000   0.00000   0.00000
 187       15F-2        0.00000   0.00000  -0.00006   0.00000   0.00000
 188       15F+3        0.00000   0.00000   0.00000   0.00001   0.00000
 189       15F-3       -0.00003   0.00000   0.00000   0.00000   0.00009
 190       16F 0        0.00000   0.00020   0.00000   0.00000   0.00000
 191       16F+1        0.00000   0.00000   0.00000   0.00024   0.00000
 192       16F-1       -0.00071   0.00000   0.00000   0.00000  -0.00088
 193       16F+2        0.00000  -0.00006   0.00000   0.00000   0.00000
 194       16F-2        0.00000   0.00000   0.00051   0.00000   0.00000
 195       16F+3        0.00000   0.00000   0.00000  -0.00017   0.00000
 196       16F-3       -0.00016   0.00000   0.00000   0.00000  -0.00018
                           6         7         8         9        10
     Eigenvalues --     2.00003   2.00003   2.00002   2.00001   2.00001
   1 1   C  1S         -0.15962   0.00000  -0.15330   0.62808   0.00000
   2        2S          0.00329   0.00000   0.00295  -0.01102   0.00000
   3        3S         -0.00585   0.00000  -0.00599   0.02485   0.00000
   4        4S         -0.00845   0.00000  -0.00715   0.00684   0.00000
   5        5S         -0.00141   0.00000   0.00023   0.00388   0.00000
   6        6PX         0.00000   0.00000   0.00000   0.00000   0.00000
   7        6PY         0.00000  -0.00089   0.00000   0.00000   0.00270
   8        6PZ        -0.00013   0.00000   0.00108  -0.00194   0.00000
   9        7PX         0.00000   0.00000   0.00000   0.00000   0.00000
  10        7PY         0.00000  -0.00028   0.00000   0.00000  -0.00025
  11        7PZ        -0.00077   0.00000  -0.00062   0.00117   0.00000
  12        8PX         0.00000   0.00000   0.00000   0.00000   0.00000
  13        8PY         0.00000   0.00298   0.00000   0.00000  -0.00196
  14        8PZ         0.00156   0.00000  -0.00702   0.00467   0.00000
  15        9PX         0.00000   0.00000   0.00000   0.00000   0.00000
  16        9PY         0.00000  -0.00060   0.00000   0.00000   0.00066
  17        9PZ        -0.00055   0.00000   0.00018   0.00099   0.00000
  18       10D 0       -0.00003   0.00000  -0.00010   0.00009   0.00000
  19       10D+1        0.00000   0.00000   0.00000   0.00000   0.00000
  20       10D-1        0.00000  -0.00011   0.00000   0.00000   0.00000
  21       10D+2        0.00006   0.00000   0.00003  -0.00016   0.00000
  22       10D-2        0.00000   0.00000   0.00000   0.00000   0.00000
  23       11D 0       -0.00045   0.00000  -0.00093   0.00043   0.00000
  24       11D+1        0.00000   0.00000   0.00000   0.00000   0.00000
  25       11D-1        0.00000  -0.00117   0.00000   0.00000   0.00252
  26       11D+2        0.00082   0.00000  -0.00028   0.00068   0.00000
  27       11D-2        0.00000   0.00000   0.00000   0.00000   0.00000
  28       12D 0        0.00055   0.00000  -0.00173   0.00215   0.00000
  29       12D+1        0.00000   0.00000   0.00000   0.00000   0.00000
  30       12D-1        0.00000  -0.00445   0.00000   0.00000   0.00483
  31       12D+2        0.00136   0.00000  -0.00073   0.00007   0.00000
  32       12D-2        0.00000   0.00000   0.00000   0.00000   0.00000
  33       13F 0       -0.00012   0.00000  -0.00001  -0.00003   0.00000
  34       13F+1        0.00000   0.00000   0.00000   0.00000   0.00000
  35       13F-1        0.00000  -0.00003   0.00000   0.00000  -0.00001
  36       13F+2       -0.00004   0.00000  -0.00006   0.00000   0.00000
  37       13F-2        0.00000   0.00000   0.00000   0.00000   0.00000
  38       13F+3        0.00000   0.00000   0.00000   0.00000   0.00000
  39       13F-3        0.00000   0.00003   0.00000   0.00000  -0.00009
  40       14F 0        0.00013   0.00000   0.00041  -0.00148   0.00000
  41       14F+1        0.00000   0.00000   0.00000   0.00000   0.00000
  42       14F-1        0.00000   0.00002   0.00000   0.00000   0.00135
  43       14F+2       -0.00018   0.00000   0.00054  -0.00101   0.00000
  44       14F-2        0.00000   0.00000   0.00000   0.00000   0.00000
  45       14F+3        0.00000   0.00000   0.00000   0.00000   0.00000
  46       14F-3        0.00000  -0.00036   0.00000   0.00000   0.00083
  47 2   Cl 1S         -0.17635  -0.17567   0.01439  -0.04976  -0.10510
  48        2S          0.59494   0.59283  -0.04885   0.17029   0.35714
  49        3S         -0.01768  -0.01744   0.00126  -0.00225  -0.00578
  50        4S          0.04624   0.04607  -0.00373   0.01360   0.02981
  51        5S         -0.00146   0.00012  -0.00140  -0.00014  -0.00796
  52        6S         -0.00054  -0.00073  -0.00009  -0.00015   0.00171
  53        7PX         0.00000   0.00000   0.00000   0.00000   0.00000
  54        7PY        -0.29406  -0.26058   0.05340   0.12845   0.47082
  55        7PZ        -0.17227  -0.21537   0.00121   0.09653   0.34977
  56        8PX         0.00000   0.00000   0.00000   0.00000   0.00000
  57        8PY         0.00535   0.00491  -0.00140  -0.00127  -0.00805
  58        8PZ         0.00308   0.00410  -0.00037  -0.00081  -0.00634
  59        9PX         0.00000   0.00000   0.00000   0.00000   0.00000
  60        9PY        -0.01676  -0.01486   0.00302   0.00777   0.02889
  61        9PZ        -0.00984  -0.01225   0.00008   0.00583   0.02158
  62       10PX         0.00000   0.00000   0.00000   0.00000   0.00000
  63       10PY         0.00184   0.00184  -0.00054  -0.00012  -0.00044
  64       10PZ         0.00148   0.00086  -0.00048   0.00078  -0.00039
  65       11PX         0.00000   0.00000   0.00000   0.00000   0.00000
  66       11PY        -0.00005   0.00012  -0.00003  -0.00003   0.00011
  67       11PZ         0.00009  -0.00009  -0.00013  -0.00009   0.00024
  68       12D 0       -0.00004  -0.00002   0.00002  -0.00001   0.00000
  69       12D+1        0.00000   0.00000   0.00000   0.00000   0.00000
  70       12D-1        0.00018   0.00018   0.00002   0.00010   0.00041
  71       12D+2       -0.00008  -0.00007   0.00002  -0.00014  -0.00032
  72       12D-2        0.00000   0.00000   0.00000   0.00000   0.00000
  73       13D 0       -0.00007   0.00023   0.00014  -0.00010  -0.00055
  74       13D+1        0.00000   0.00000   0.00000   0.00000   0.00000
  75       13D-1        0.00039   0.00045  -0.00010   0.00000  -0.00220
  76       13D+2       -0.00048  -0.00032   0.00013   0.00032   0.00119
  77       13D-2        0.00000   0.00000   0.00000   0.00000   0.00000
  78       14D 0        0.00000  -0.00024   0.00018  -0.00003   0.00006
  79       14D+1        0.00000   0.00000   0.00000   0.00000   0.00000
  80       14D-1        0.00029   0.00018   0.00004   0.00026   0.00017
  81       14D+2       -0.00020   0.00021  -0.00005   0.00008  -0.00081
  82       14D-2        0.00000   0.00000   0.00000   0.00000   0.00000
  83       15F 0        0.00001   0.00004   0.00001   0.00000  -0.00004
  84       15F+1        0.00000   0.00000   0.00000   0.00000   0.00000
  85       15F-1        0.00000   0.00003   0.00000   0.00000  -0.00009
  86       15F+2       -0.00001  -0.00001   0.00000   0.00000   0.00004
  87       15F-2        0.00000   0.00000   0.00000   0.00000   0.00000
  88       15F+3        0.00000   0.00000   0.00000   0.00000   0.00000
  89       15F-3       -0.00003  -0.00003   0.00002   0.00000   0.00003
  90       16F 0       -0.00007  -0.00011   0.00009  -0.00024   0.00030
  91       16F+1        0.00000   0.00000   0.00000   0.00000   0.00000
  92       16F-1        0.00002   0.00007   0.00003   0.00000  -0.00042
  93       16F+2       -0.00014  -0.00012   0.00005  -0.00004   0.00052
  94       16F-2        0.00000   0.00000   0.00000   0.00000   0.00000
  95       16F+3        0.00000   0.00000   0.00000   0.00000   0.00000
  96       16F-3       -0.00010   0.00001  -0.00004   0.00016   0.00011
  97 3   Cl 1S         -0.17635   0.17567   0.01439  -0.04976   0.10510
  98        2S          0.59494  -0.59283  -0.04885   0.17029  -0.35714
  99        3S         -0.01768   0.01744   0.00126  -0.00225   0.00578
 100        4S          0.04624  -0.04607  -0.00373   0.01360  -0.02981
 101        5S         -0.00146  -0.00012  -0.00140  -0.00014   0.00796
 102        6S         -0.00054   0.00073  -0.00009  -0.00015  -0.00171
 103        7PX         0.00000   0.00000   0.00000   0.00000   0.00000
 104        7PY         0.29406  -0.26058  -0.05340  -0.12845   0.47082
 105        7PZ        -0.17227   0.21537   0.00121   0.09653  -0.34977
 106        8PX         0.00000   0.00000   0.00000   0.00000   0.00000
 107        8PY        -0.00535   0.00491   0.00140   0.00127  -0.00805
 108        8PZ         0.00308  -0.00410  -0.00037  -0.00081   0.00634
 109        9PX         0.00000   0.00000   0.00000   0.00000   0.00000
 110        9PY         0.01676  -0.01486  -0.00302  -0.00777   0.02889
 111        9PZ        -0.00984   0.01225   0.00008   0.00583  -0.02158
 112       10PX         0.00000   0.00000   0.00000   0.00000   0.00000
 113       10PY        -0.00184   0.00184   0.00054   0.00012  -0.00044
 114       10PZ         0.00148  -0.00086  -0.00048   0.00078   0.00039
 115       11PX         0.00000   0.00000   0.00000   0.00000   0.00000
 116       11PY         0.00005   0.00012   0.00003   0.00003   0.00011
 117       11PZ         0.00009   0.00009  -0.00013  -0.00009  -0.00024
 118       12D 0       -0.00004   0.00002   0.00002  -0.00001   0.00000
 119       12D+1        0.00000   0.00000   0.00000   0.00000   0.00000
 120       12D-1       -0.00018   0.00018  -0.00002  -0.00010   0.00041
 121       12D+2       -0.00008   0.00007   0.00002  -0.00014   0.00032
 122       12D-2        0.00000   0.00000   0.00000   0.00000   0.00000
 123       13D 0       -0.00007  -0.00023   0.00014  -0.00010   0.00055
 124       13D+1        0.00000   0.00000   0.00000   0.00000   0.00000
 125       13D-1       -0.00039   0.00045   0.00010   0.00000  -0.00220
 126       13D+2       -0.00048   0.00032   0.00013   0.00032  -0.00119
 127       13D-2        0.00000   0.00000   0.00000   0.00000   0.00000
 128       14D 0        0.00000   0.00024   0.00018  -0.00003  -0.00006
 129       14D+1        0.00000   0.00000   0.00000   0.00000   0.00000
 130       14D-1       -0.00029   0.00018  -0.00004  -0.00026   0.00017
 131       14D+2       -0.00020  -0.00021  -0.00005   0.00008   0.00081
 132       14D-2        0.00000   0.00000   0.00000   0.00000   0.00000
 133       15F 0        0.00001  -0.00004   0.00001   0.00000   0.00004
 134       15F+1        0.00000   0.00000   0.00000   0.00000   0.00000
 135       15F-1        0.00000   0.00003   0.00000   0.00000  -0.00009
 136       15F+2       -0.00001   0.00001   0.00000   0.00000  -0.00004
 137       15F-2        0.00000   0.00000   0.00000   0.00000   0.00000
 138       15F+3        0.00000   0.00000   0.00000   0.00000   0.00000
 139       15F-3        0.00003  -0.00003  -0.00002   0.00000   0.00003
 140       16F 0       -0.00007   0.00011   0.00009  -0.00024  -0.00030
 141       16F+1        0.00000   0.00000   0.00000   0.00000   0.00000
 142       16F-1       -0.00002   0.00007  -0.00003   0.00000  -0.00042
 143       16F+2       -0.00014   0.00012   0.00005  -0.00004  -0.00052
 144       16F-2        0.00000   0.00000   0.00000   0.00000   0.00000
 145       16F+3        0.00000   0.00000   0.00000   0.00000   0.00000
 146       16F-3        0.00010   0.00001   0.00004  -0.00016   0.00011
 147 4   S  1S         -0.01626   0.00000  -0.22133  -0.14700   0.00000
 148        2S          0.05536   0.00000   0.75656   0.50767   0.00000
 149        3S         -0.00164   0.00000  -0.02087  -0.00748   0.00000
 150        4S          0.00357   0.00000   0.05073   0.03650   0.00000
 151        5S          0.00134   0.00000   0.00611  -0.01164   0.00000
 152        6S          0.00201   0.00000  -0.00087  -0.00381   0.00000
 153        7PX         0.00000   0.00000   0.00000   0.00000   0.00000
 154        7PY         0.00000   0.19561   0.00000   0.00000  -0.09863
 155        7PZ         0.03916   0.00000   0.60482  -0.45125   0.00000
 156        8PX         0.00000   0.00000   0.00000   0.00000   0.00000
 157        8PY         0.00000  -0.00316   0.00000   0.00000  -0.00024
 158        8PZ        -0.00127   0.00000  -0.01136   0.00790   0.00000
 159        9PX         0.00000   0.00000   0.00000   0.00000   0.00000
 160        9PY         0.00000   0.01144   0.00000   0.00000  -0.00597
 161        9PZ         0.00257   0.00000   0.03721  -0.02957   0.00000
 162       10PX         0.00000   0.00000   0.00000   0.00000   0.00000
 163       10PY         0.00000   0.00177   0.00000   0.00000  -0.00357
 164       10PZ        -0.00206   0.00000  -0.00643   0.00524   0.00000
 165       11PX         0.00000   0.00000   0.00000   0.00000   0.00000
 166       11PY         0.00000   0.00019   0.00000   0.00000  -0.00025
 167       11PZ        -0.00021   0.00000   0.00013   0.00027   0.00000
 168       12D 0        0.00077   0.00000   0.00205  -0.00261   0.00000
 169       12D+1        0.00000   0.00000   0.00000   0.00000   0.00000
 170       12D-1        0.00000   0.00021   0.00000   0.00000   0.00079
 171       12D+2       -0.00004   0.00000  -0.00044   0.00020   0.00000
 172       12D-2        0.00000   0.00000   0.00000   0.00000   0.00000
 173       13D 0        0.00006   0.00000   0.00014   0.00022   0.00000
 174       13D+1        0.00000   0.00000   0.00000   0.00000   0.00000
 175       13D-1        0.00000   0.00002   0.00000   0.00000  -0.00006
 176       13D+2        0.00003   0.00000   0.00031   0.00015   0.00000
 177       13D-2        0.00000   0.00000   0.00000   0.00000   0.00000
 178       14D 0        0.00052   0.00000   0.00101  -0.00073   0.00000
 179       14D+1        0.00000   0.00000   0.00000   0.00000   0.00000
 180       14D-1        0.00000  -0.00074   0.00000   0.00000   0.00094
 181       14D+2       -0.00032   0.00000   0.00039   0.00004   0.00000
 182       14D-2        0.00000   0.00000   0.00000   0.00000   0.00000
 183       15F 0       -0.00013   0.00000  -0.00016   0.00027   0.00000
 184       15F+1        0.00000   0.00000   0.00000   0.00000   0.00000
 185       15F-1        0.00000  -0.00001   0.00000   0.00000  -0.00006
 186       15F+2       -0.00001   0.00000   0.00012  -0.00015   0.00000
 187       15F-2        0.00000   0.00000   0.00000   0.00000   0.00000
 188       15F+3        0.00000   0.00000   0.00000   0.00000   0.00000
 189       15F-3        0.00000   0.00003   0.00000   0.00000  -0.00005
 190       16F 0       -0.00013   0.00000  -0.00045   0.00047   0.00000
 191       16F+1        0.00000   0.00000   0.00000   0.00000   0.00000
 192       16F-1        0.00000  -0.00004   0.00000   0.00000  -0.00030
 193       16F+2        0.00012   0.00000  -0.00008  -0.00014   0.00000
 194       16F-2        0.00000   0.00000   0.00000   0.00000   0.00000
 195       16F+3        0.00000   0.00000   0.00000   0.00000   0.00000
 196       16F-3        0.00000   0.00000   0.00000   0.00000  -0.00004
                          11        12        13        14        15
     Eigenvalues --     2.00001   2.00001   2.00000   2.00000   2.00000
   1 1   C  1S          0.18698   0.00000   0.69561   0.00214   0.00125
   2        2S         -0.00359   0.00000  -0.00701  -0.00004  -0.00005
   3        3S          0.00643   0.00000   0.02991   0.00013   0.00005
   4        4S          0.01083   0.00000  -0.02285  -0.00045  -0.00006
   5        5S          0.00458   0.00000  -0.00564  -0.00023  -0.00011
   6        6PX         0.00000  -0.00179   0.00000   0.00000   0.00000
   7        6PY         0.00000   0.00000   0.00000   0.00000   0.00000
   8        6PZ         0.00229   0.00000  -0.00124  -0.00001   0.00001
   9        7PX         0.00000  -0.00139   0.00000   0.00000   0.00000
  10        7PY         0.00000   0.00000   0.00000   0.00000   0.00000
  11        7PZ         0.00151   0.00000   0.00240  -0.00002  -0.00008
  12        8PX         0.00000   0.00070   0.00000   0.00000   0.00000
  13        8PY         0.00000   0.00000   0.00000   0.00000   0.00000
  14        8PZ        -0.00368   0.00000   0.00227  -0.00007   0.00000
  15        9PX         0.00000  -0.00103   0.00000   0.00000   0.00000
  16        9PY         0.00000   0.00000   0.00000   0.00000   0.00000
  17        9PZ         0.00020   0.00000   0.00048  -0.00004  -0.00004
  18       10D 0        0.00005   0.00000   0.00028   0.00000   0.00000
  19       10D+1        0.00000  -0.00018   0.00000   0.00000   0.00000
  20       10D-1        0.00000   0.00000   0.00000   0.00000   0.00000
  21       10D+2       -0.00002   0.00000  -0.00021   0.00000   0.00000
  22       10D-2        0.00000   0.00000   0.00000   0.00000   0.00000
  23       11D 0        0.00067   0.00000  -0.00038  -0.00005  -0.00004
  24       11D+1        0.00000   0.00115   0.00000   0.00000   0.00000
  25       11D-1        0.00000   0.00000   0.00000   0.00000   0.00000
  26       11D+2       -0.00132   0.00000   0.00311   0.00006  -0.00002
  27       11D-2        0.00000   0.00000   0.00000   0.00000   0.00000
  28       12D 0       -0.00201   0.00000  -0.00130  -0.00007  -0.00005
  29       12D+1        0.00000  -0.00105   0.00000   0.00000   0.00000
  30       12D-1        0.00000   0.00000   0.00000   0.00000   0.00000
  31       12D+2       -0.00275   0.00000   0.00169   0.00002  -0.00001
  32       12D-2        0.00000   0.00000   0.00000   0.00000   0.00000
  33       13F 0        0.00027   0.00000   0.00027   0.00000   0.00000
  34       13F+1        0.00000  -0.00018   0.00000   0.00000   0.00000
  35       13F-1        0.00000   0.00000   0.00000   0.00000   0.00000
  36       13F+2       -0.00008   0.00000  -0.00004  -0.00001   0.00000
  37       13F-2        0.00000   0.00000   0.00000   0.00000   0.00000
  38       13F+3        0.00000   0.00007   0.00000   0.00000   0.00000
  39       13F-3        0.00000   0.00000   0.00000   0.00000   0.00000
  40       14F 0        0.00040   0.00000  -0.00114  -0.00003   0.00001
  41       14F+1        0.00000   0.00118   0.00000   0.00000   0.00000
  42       14F-1        0.00000   0.00000   0.00000   0.00000   0.00000
  43       14F+2        0.00069   0.00000  -0.00138  -0.00003   0.00002
  44       14F-2        0.00000   0.00000   0.00000   0.00000   0.00000
  45       14F+3        0.00000  -0.00014   0.00000   0.00000   0.00000
  46       14F-3        0.00000   0.00000   0.00000   0.00000   0.00000
  47 2   Cl 1S         -0.08791   0.00000   0.03005   0.58128  -0.39906
  48        2S          0.29933   0.00000  -0.10754   0.00540  -0.00417
  49        3S         -0.00473   0.00000   0.00058   0.00008  -0.00008
  50        4S          0.02487   0.00000  -0.00970   0.00009  -0.00010
  51        5S         -0.00742   0.00000   0.00902   0.00008   0.00004
  52        6S         -0.00064   0.00000   0.00343   0.00007   0.00005
  53        7PX         0.00000   0.08120   0.00000   0.00000   0.00000
  54        7PY         0.40938   0.00000  -0.27850  -0.00167  -0.00002
  55        7PZ         0.22566   0.00000  -0.18765  -0.00109  -0.00014
  56        8PX         0.00000  -0.00044   0.00000   0.00000   0.00000
  57        8PY        -0.00705   0.00000   0.00478   0.00008  -0.00004
  58        8PZ        -0.00411   0.00000   0.00344   0.00006  -0.00003
  59        9PX         0.00000   0.00475   0.00000   0.00000   0.00000
  60        9PY         0.02521   0.00000  -0.01800  -0.00013   0.00002
  61        9PZ         0.01392   0.00000  -0.01218  -0.00009   0.00000
  62       10PX         0.00000  -0.00069   0.00000   0.00000   0.00000
  63       10PY        -0.00097   0.00000   0.00355   0.00004   0.00006
  64       10PZ        -0.00168   0.00000   0.00240   0.00001   0.00002
  65       11PX         0.00000   0.00033   0.00000   0.00000   0.00000
  66       11PY         0.00005   0.00000   0.00028   0.00001   0.00001
  67       11PZ        -0.00003   0.00000   0.00011   0.00001   0.00002
  68       12D 0        0.00001   0.00000   0.00001   0.00000   0.00000
  69       12D+1        0.00000  -0.00006   0.00000   0.00000   0.00000
  70       12D-1        0.00033   0.00000  -0.00032   0.00000   0.00000
  71       12D+2       -0.00022   0.00000   0.00021   0.00000   0.00000
  72       12D-2        0.00000  -0.00004   0.00000   0.00000   0.00000
  73       13D 0        0.00034   0.00000   0.00006   0.00000   0.00000
  74       13D+1        0.00000  -0.00005   0.00000   0.00000   0.00000
  75       13D-1       -0.00144   0.00000   0.00193   0.00003  -0.00001
  76       13D+2        0.00138   0.00000  -0.00120  -0.00002   0.00000
  77       13D-2        0.00000  -0.00022   0.00000   0.00000   0.00000
  78       14D 0        0.00003   0.00000   0.00012   0.00000   0.00000
  79       14D+1        0.00000  -0.00023   0.00000   0.00000   0.00000
  80       14D-1        0.00014   0.00000   0.00067   0.00000   0.00002
  81       14D+2       -0.00024   0.00000  -0.00058   0.00000  -0.00002
  82       14D-2        0.00000  -0.00055   0.00000   0.00000   0.00000
  83       15F 0        0.00001   0.00000   0.00003   0.00000   0.00000
  84       15F+1        0.00000   0.00000   0.00000   0.00000   0.00000
  85       15F-1        0.00002   0.00000  -0.00001   0.00000   0.00000
  86       15F+2        0.00004   0.00000  -0.00001   0.00000   0.00000
  87       15F-2        0.00000  -0.00001   0.00000   0.00000   0.00000
  88       15F+3        0.00000  -0.00003   0.00000   0.00000   0.00000
  89       15F-3        0.00010   0.00000  -0.00004   0.00000   0.00000
  90       16F 0        0.00026   0.00000  -0.00026   0.00000   0.00000
  91       16F+1        0.00000   0.00001   0.00000   0.00000   0.00000
  92       16F-1        0.00000   0.00000   0.00032   0.00000   0.00000
  93       16F+2        0.00032   0.00000  -0.00045   0.00000   0.00000
  94       16F-2        0.00000   0.00000   0.00000   0.00000   0.00000
  95       16F+3        0.00000   0.00021   0.00000   0.00000   0.00000
  96       16F-3        0.00016   0.00000  -0.00018   0.00000   0.00000
  97 3   Cl 1S         -0.08791   0.00000   0.03005   0.58198  -0.39845
  98        2S          0.29933   0.00000  -0.10754   0.00541  -0.00417
  99        3S         -0.00473   0.00000   0.00058   0.00008  -0.00008
 100        4S          0.02487   0.00000  -0.00970   0.00009  -0.00010
 101        5S         -0.00742   0.00000   0.00902   0.00008   0.00004
 102        6S         -0.00064   0.00000   0.00343   0.00007   0.00005
 103        7PX         0.00000   0.08120   0.00000   0.00000   0.00000
 104        7PY        -0.40938   0.00000   0.27850   0.00167   0.00002
 105        7PZ         0.22566   0.00000  -0.18765  -0.00109  -0.00014
 106        8PX         0.00000  -0.00044   0.00000   0.00000   0.00000
 107        8PY         0.00705   0.00000  -0.00478  -0.00008   0.00004
 108        8PZ        -0.00411   0.00000   0.00344   0.00006  -0.00003
 109        9PX         0.00000   0.00475   0.00000   0.00000   0.00000
 110        9PY        -0.02521   0.00000   0.01800   0.00013  -0.00002
 111        9PZ         0.01392   0.00000  -0.01218  -0.00009   0.00000
 112       10PX         0.00000  -0.00069   0.00000   0.00000   0.00000
 113       10PY         0.00097   0.00000  -0.00355  -0.00004  -0.00006
 114       10PZ        -0.00168   0.00000   0.00240   0.00001   0.00002
 115       11PX         0.00000   0.00033   0.00000   0.00000   0.00000
 116       11PY        -0.00005   0.00000  -0.00028  -0.00001  -0.00001
 117       11PZ        -0.00003   0.00000   0.00011   0.00001   0.00002
 118       12D 0        0.00001   0.00000   0.00001   0.00000   0.00000
 119       12D+1        0.00000  -0.00006   0.00000   0.00000   0.00000
 120       12D-1       -0.00033   0.00000   0.00032   0.00000   0.00000
 121       12D+2       -0.00022   0.00000   0.00021   0.00000   0.00000
 122       12D-2        0.00000   0.00004   0.00000   0.00000   0.00000
 123       13D 0        0.00034   0.00000   0.00006   0.00000   0.00000
 124       13D+1        0.00000  -0.00005   0.00000   0.00000   0.00000
 125       13D-1        0.00144   0.00000  -0.00193  -0.00003   0.00001
 126       13D+2        0.00138   0.00000  -0.00120  -0.00002   0.00000
 127       13D-2        0.00000   0.00022   0.00000   0.00000   0.00000
 128       14D 0        0.00003   0.00000   0.00012   0.00000   0.00000
 129       14D+1        0.00000  -0.00023   0.00000   0.00000   0.00000
 130       14D-1       -0.00014   0.00000  -0.00067   0.00000  -0.00002
 131       14D+2       -0.00024   0.00000  -0.00058   0.00000  -0.00002
 132       14D-2        0.00000   0.00055   0.00000   0.00000   0.00000
 133       15F 0        0.00001   0.00000   0.00003   0.00000   0.00000
 134       15F+1        0.00000   0.00000   0.00000   0.00000   0.00000
 135       15F-1       -0.00002   0.00000   0.00001   0.00000   0.00000
 136       15F+2        0.00004   0.00000  -0.00001   0.00000   0.00000
 137       15F-2        0.00000   0.00001   0.00000   0.00000   0.00000
 138       15F+3        0.00000  -0.00003   0.00000   0.00000   0.00000
 139       15F-3       -0.00010   0.00000   0.00004   0.00000   0.00000
 140       16F 0        0.00026   0.00000  -0.00026   0.00000   0.00000
 141       16F+1        0.00000   0.00001   0.00000   0.00000   0.00000
 142       16F-1        0.00000   0.00000  -0.00032   0.00000   0.00000
 143       16F+2        0.00032   0.00000  -0.00045   0.00000   0.00000
 144       16F-2        0.00000   0.00000   0.00000   0.00000   0.00000
 145       16F+3        0.00000   0.00021   0.00000   0.00000   0.00000
 146       16F-3       -0.00016   0.00000   0.00018   0.00000   0.00000
 147 4   S  1S          0.09900   0.00000   0.05011   0.56368   0.82170
 148        2S         -0.34152   0.00000  -0.18542   0.00698   0.01096
 149        3S          0.00539   0.00000   0.00157   0.00019   0.00026
 150        4S         -0.02455   0.00000  -0.01377  -0.00005  -0.00001
 151        5S          0.00206   0.00000   0.00659   0.00018  -0.00003
 152        6S         -0.00456   0.00000   0.00128   0.00014   0.00004
 153        7PX         0.00000   0.96520   0.00000   0.00000   0.00000
 154        7PY         0.00000   0.00000   0.00000   0.00000   0.00000
 155        7PZ         0.43277   0.00000   0.43012   0.00249   0.00176
 156        8PX         0.00000  -0.01116   0.00000   0.00000   0.00000
 157        8PY         0.00000   0.00000   0.00000   0.00000   0.00000
 158        8PZ        -0.00525   0.00000  -0.00478  -0.00015  -0.00013
 159        9PX         0.00000   0.06173   0.00000   0.00000   0.00000
 160        9PY         0.00000   0.00000   0.00000   0.00000   0.00000
 161        9PZ         0.02785   0.00000   0.02857   0.00021   0.00017
 162       10PX         0.00000   0.00109   0.00000   0.00000   0.00000
 163       10PY         0.00000   0.00000   0.00000   0.00000   0.00000
 164       10PZ         0.00239   0.00000  -0.00205  -0.00008   0.00006
 165       11PX         0.00000  -0.00028   0.00000   0.00000   0.00000
 166       11PY         0.00000   0.00000   0.00000   0.00000   0.00000
 167       11PZ         0.00079   0.00000  -0.00016  -0.00001   0.00001
 168       12D 0        0.00056   0.00000   0.00122   0.00005   0.00004
 169       12D+1        0.00000   0.00213   0.00000   0.00000   0.00000
 170       12D-1        0.00000   0.00000   0.00000   0.00000   0.00000
 171       12D+2        0.00010   0.00000   0.00021   0.00000  -0.00001
 172       12D-2        0.00000   0.00000   0.00000   0.00000   0.00000
 173       13D 0       -0.00032   0.00000  -0.00061   0.00000   0.00001
 174       13D+1        0.00000  -0.00019   0.00000   0.00000   0.00000
 175       13D-1        0.00000   0.00000   0.00000   0.00000   0.00000
 176       13D+2       -0.00013   0.00000  -0.00007   0.00001   0.00001
 177       13D-2        0.00000   0.00000   0.00000   0.00000   0.00000
 178       14D 0       -0.00089   0.00000   0.00041  -0.00001  -0.00004
 179       14D+1        0.00000  -0.00049   0.00000   0.00000   0.00000
 180       14D-1        0.00000   0.00000   0.00000   0.00000   0.00000
 181       14D+2        0.00069   0.00000  -0.00014   0.00000   0.00001
 182       14D-2        0.00000   0.00000   0.00000   0.00000   0.00000
 183       15F 0        0.00016   0.00000   0.00037  -0.00001  -0.00001
 184       15F+1        0.00000  -0.00026   0.00000   0.00000   0.00000
 185       15F-1        0.00000   0.00000   0.00000   0.00000   0.00000
 186       15F+2        0.00010   0.00000   0.00009   0.00000   0.00000
 187       15F-2        0.00000   0.00000   0.00000   0.00000   0.00000
 188       15F+3        0.00000   0.00013   0.00000   0.00000   0.00000
 189       15F-3        0.00000   0.00000   0.00000   0.00000   0.00000
 190       16F 0       -0.00026   0.00000  -0.00038   0.00000   0.00000
 191       16F+1        0.00000  -0.00047   0.00000   0.00000   0.00000
 192       16F-1        0.00000   0.00000   0.00000   0.00000   0.00000
 193       16F+2       -0.00032   0.00000  -0.00019   0.00000   0.00000
 194       16F-2        0.00000   0.00000   0.00000   0.00000   0.00000
 195       16F+3        0.00000  -0.00012   0.00000   0.00000   0.00000
 196       16F-3        0.00000   0.00000   0.00000   0.00000   0.00000
                          16        17        18        19        20
     Eigenvalues --     2.00000   1.97694   1.97418   1.96984   1.95129
   1 1   C  1S          0.00000  -0.08499   0.00000  -0.06954  -0.03996
   2        2S          0.00000   0.21885   0.00000   0.18672   0.11119
   3        3S          0.00000   0.04774   0.00000   0.04458   0.02674
   4        4S          0.00000   0.04411   0.00000   0.06471   0.05572
   5        5S          0.00000   0.01138   0.00000   0.01673   0.00148
   6        6PX         0.00000   0.00000   0.00000   0.00000   0.00000
   7        6PY        -0.00001   0.00000   0.06091   0.00000   0.00000
   8        6PZ         0.00000  -0.01238   0.00000   0.10219  -0.05519
   9        7PX         0.00000   0.00000   0.00000   0.00000   0.00000
  10        7PY         0.00004   0.00000   0.08368   0.00000   0.00000
  11        7PZ         0.00000  -0.02291   0.00000   0.12821  -0.07693
  12        8PX         0.00000   0.00000   0.00000   0.00000   0.00000
  13        8PY        -0.00005   0.00000   0.00380   0.00000   0.00000
  14        8PZ         0.00000   0.00805   0.00000   0.00497  -0.04630
  15        9PX         0.00000   0.00000   0.00000   0.00000   0.00000
  16        9PY        -0.00001   0.00000   0.00829   0.00000   0.00000
  17        9PZ         0.00000  -0.00390   0.00000   0.00860  -0.02165
  18       10D 0        0.00000   0.00418   0.00000   0.00952   0.01023
  19       10D+1        0.00000   0.00000   0.00000   0.00000   0.00000
  20       10D-1        0.00000   0.00000  -0.00856   0.00000   0.00000
  21       10D+2        0.00000  -0.00711   0.00000   0.00114   0.00367
  22       10D-2        0.00000   0.00000   0.00000   0.00000   0.00000
  23       11D 0        0.00000   0.00594   0.00000   0.01128   0.03024
  24       11D+1        0.00000   0.00000   0.00000   0.00000   0.00000
  25       11D-1       -0.00006   0.00000  -0.01777   0.00000   0.00000
  26       11D+2        0.00000  -0.01111   0.00000   0.00282   0.01364
  27       11D-2        0.00000   0.00000   0.00000   0.00000   0.00000
  28       12D 0        0.00000   0.00393   0.00000   0.00435  -0.04142
  29       12D+1        0.00000   0.00000   0.00000   0.00000   0.00000
  30       12D-1       -0.00002   0.00000   0.01207   0.00000   0.00000
  31       12D+2        0.00000   0.00763   0.00000   0.00472  -0.02644
  32       12D-2        0.00000   0.00000   0.00000   0.00000   0.00000
  33       13F 0        0.00000   0.00394   0.00000   0.00469  -0.00111
  34       13F+1        0.00000   0.00000   0.00000   0.00000   0.00000
  35       13F-1        0.00000   0.00000   0.00187   0.00000   0.00000
  36       13F+2        0.00000   0.00461   0.00000  -0.00018   0.00163
  37       13F-2        0.00000   0.00000   0.00000   0.00000   0.00000
  38       13F+3        0.00000   0.00000   0.00000   0.00000   0.00000
  39       13F-3        0.00000   0.00000  -0.00242   0.00000   0.00000
  40       14F 0        0.00000   0.00137   0.00000  -0.00081  -0.00303
  41       14F+1        0.00000   0.00000   0.00000   0.00000   0.00000
  42       14F-1       -0.00001   0.00000   0.00062   0.00000   0.00000
  43       14F+2        0.00000   0.00185   0.00000   0.00000   0.00143
  44       14F-2        0.00000   0.00000   0.00000   0.00000   0.00000
  45       14F+3        0.00000   0.00000   0.00000   0.00000   0.00000
  46       14F-3       -0.00001   0.00000  -0.00068   0.00000   0.00000
  47 2   Cl 1S          0.70522   0.04552  -0.05312  -0.02096  -0.01154
  48        2S          0.00714  -0.17014   0.19869   0.07839   0.04382
  49        3S          0.00011   0.36396  -0.42583  -0.16918  -0.09547
  50        4S          0.00016   0.04413  -0.05352  -0.02218  -0.01500
  51        5S         -0.00004   0.21960  -0.26449  -0.11176  -0.09976
  52        6S         -0.00005  -0.00709   0.01010   0.00194  -0.02609
  53        7PX         0.00000   0.00000   0.00000   0.00000   0.00000
  54        7PY        -0.00051  -0.01660  -0.00005   0.00072  -0.11146
  55        7PZ        -0.00042  -0.00728   0.00750  -0.01928   0.10258
  56        8PX         0.00000   0.00000   0.00000   0.00000   0.00000
  57        8PY         0.00006   0.02470   0.01614  -0.00160   0.25421
  58        8PZ         0.00004   0.00527  -0.01009   0.04896  -0.24595
  59        9PX         0.00000   0.00000   0.00000   0.00000   0.00000
  60        9PY        -0.00006   0.01078   0.00735  -0.00002   0.12140
  61        9PZ        -0.00005   0.00273  -0.00424   0.02303  -0.11778
  62       10PX         0.00000   0.00000   0.00000   0.00000   0.00000
  63       10PY        -0.00006  -0.00079   0.01523  -0.00760   0.13134
  64       10PZ        -0.00003  -0.00331   0.00335   0.02661  -0.17771
  65       11PX         0.00000   0.00000   0.00000   0.00000   0.00000
  66       11PY        -0.00001  -0.00401   0.00285   0.00030   0.00048
  67       11PZ         0.00000  -0.00166   0.00319  -0.00022  -0.00599
  68       12D 0        0.00000  -0.00059  -0.00079   0.00275  -0.00687
  69       12D+1        0.00000   0.00000   0.00000   0.00000   0.00000
  70       12D-1        0.00001   0.00731  -0.00539   0.00276   0.00279
  71       12D+2        0.00000  -0.00603   0.00271   0.00049  -0.01016
  72       12D-2        0.00000   0.00000   0.00000   0.00000   0.00000
  73       13D 0        0.00000  -0.00129  -0.00179   0.00461  -0.00839
  74       13D+1        0.00000   0.00000   0.00000   0.00000   0.00000
  75       13D-1        0.00002   0.00707  -0.00470   0.00433   0.00192
  76       13D+2       -0.00001  -0.00634   0.00177   0.00143  -0.01206
  77       13D-2        0.00000   0.00000   0.00000   0.00000   0.00000
  78       14D 0        0.00000   0.00094   0.00106   0.00301  -0.00867
  79       14D+1        0.00000   0.00000   0.00000   0.00000   0.00000
  80       14D-1       -0.00002  -0.00197   0.00312   0.00199  -0.00370
  81       14D+2        0.00002   0.00178  -0.00254   0.00083  -0.00675
  82       14D-2        0.00000   0.00000   0.00000   0.00000   0.00000
  83       15F 0        0.00000  -0.00135   0.00089   0.00053  -0.00227
  84       15F+1        0.00000   0.00000   0.00000   0.00000   0.00000
  85       15F-1        0.00000   0.00068  -0.00153   0.00133  -0.00387
  86       15F+2        0.00000  -0.00255   0.00213  -0.00020  -0.00168
  87       15F-2        0.00000   0.00000   0.00000   0.00000   0.00000
  88       15F+3        0.00000   0.00000   0.00000   0.00000   0.00000
  89       15F-3        0.00000  -0.00189   0.00082   0.00061  -0.00343
  90       16F 0        0.00000  -0.00016  -0.00034   0.00001  -0.00041
  91       16F+1        0.00000   0.00000   0.00000   0.00000   0.00000
  92       16F-1        0.00000  -0.00020   0.00003   0.00150  -0.00208
  93       16F+2        0.00000   0.00009  -0.00067  -0.00029  -0.00057
  94       16F-2        0.00000   0.00000   0.00000   0.00000   0.00000
  95       16F+3        0.00000   0.00000   0.00000   0.00000   0.00000
  96       16F-3        0.00000   0.00028  -0.00039   0.00022  -0.00130
  97 3   Cl 1S         -0.70499   0.04552   0.05312  -0.02096  -0.01154
  98        2S         -0.00714  -0.17014  -0.19869   0.07839   0.04382
  99        3S         -0.00011   0.36396   0.42583  -0.16918  -0.09547
 100        4S         -0.00016   0.04413   0.05352  -0.02218  -0.01500
 101        5S          0.00004   0.21960   0.26449  -0.11176  -0.09976
 102        6S          0.00005  -0.00709  -0.01010   0.00194  -0.02609
 103        7PX         0.00000   0.00000   0.00000   0.00000   0.00000
 104        7PY        -0.00051   0.01660  -0.00005  -0.00072   0.11146
 105        7PZ         0.00042  -0.00728  -0.00750  -0.01928   0.10258
 106        8PX         0.00000   0.00000   0.00000   0.00000   0.00000
 107        8PY         0.00006  -0.02470   0.01614   0.00160  -0.25421
 108        8PZ        -0.00004   0.00527   0.01009   0.04896  -0.24595
 109        9PX         0.00000   0.00000   0.00000   0.00000   0.00000
 110        9PY        -0.00006  -0.01078   0.00735   0.00002  -0.12140
 111        9PZ         0.00005   0.00273   0.00424   0.02303  -0.11778
 112       10PX         0.00000   0.00000   0.00000   0.00000   0.00000
 113       10PY        -0.00006   0.00079   0.01523   0.00760  -0.13134
 114       10PZ         0.00003  -0.00331  -0.00335   0.02661  -0.17771
 115       11PX         0.00000   0.00000   0.00000   0.00000   0.00000
 116       11PY        -0.00001   0.00401   0.00285  -0.00030  -0.00048
 117       11PZ         0.00000  -0.00166  -0.00319  -0.00022  -0.00599
 118       12D 0        0.00000  -0.00059   0.00079   0.00275  -0.00687
 119       12D+1        0.00000   0.00000   0.00000   0.00000   0.00000
 120       12D-1        0.00001  -0.00731  -0.00539  -0.00276  -0.00279
 121       12D+2        0.00000  -0.00603  -0.00271   0.00049  -0.01016
 122       12D-2        0.00000   0.00000   0.00000   0.00000   0.00000
 123       13D 0        0.00000  -0.00129   0.00179   0.00461  -0.00839
 124       13D+1        0.00000   0.00000   0.00000   0.00000   0.00000
 125       13D-1        0.00002  -0.00707  -0.00470  -0.00433  -0.00192
 126       13D+2        0.00001  -0.00634  -0.00177   0.00143  -0.01206
 127       13D-2        0.00000   0.00000   0.00000   0.00000   0.00000
 128       14D 0        0.00000   0.00094  -0.00106   0.00301  -0.00867
 129       14D+1        0.00000   0.00000   0.00000   0.00000   0.00000
 130       14D-1       -0.00002   0.00197   0.00312  -0.00199   0.00370
 131       14D+2       -0.00002   0.00178   0.00254   0.00083  -0.00675
 132       14D-2        0.00000   0.00000   0.00000   0.00000   0.00000
 133       15F 0        0.00000  -0.00135  -0.00089   0.00053  -0.00227
 134       15F+1        0.00000   0.00000   0.00000   0.00000   0.00000
 135       15F-1        0.00000  -0.00068  -0.00153  -0.00133   0.00387
 136       15F+2        0.00000  -0.00255  -0.00213  -0.00020  -0.00168
 137       15F-2        0.00000   0.00000   0.00000   0.00000   0.00000
 138       15F+3        0.00000   0.00000   0.00000   0.00000   0.00000
 139       15F-3        0.00000   0.00189   0.00082  -0.00061   0.00343
 140       16F 0        0.00000  -0.00016   0.00034   0.00001  -0.00041
 141       16F+1        0.00000   0.00000   0.00000   0.00000   0.00000
 142       16F-1        0.00000   0.00020   0.00003  -0.00150   0.00208
 143       16F+2        0.00000   0.00009   0.00067  -0.00029  -0.00057
 144       16F-2        0.00000   0.00000   0.00000   0.00000   0.00000
 145       16F+3        0.00000   0.00000   0.00000   0.00000   0.00000
 146       16F-3        0.00000  -0.00028  -0.00039  -0.00022   0.00130
 147 4   S  1S          0.00063   0.01600   0.00000   0.05831   0.00476
 148        2S          0.00001  -0.06148   0.00000  -0.22307  -0.01823
 149        3S          0.00000   0.12757   0.00000   0.47257   0.04002
 150        4S          0.00000   0.01532   0.00000   0.06144   0.00564
 151        5S          0.00000   0.05355   0.00000   0.24572   0.07750
 152        6S          0.00000  -0.00254   0.00000  -0.03098   0.02530
 153        7PX         0.00000   0.00000   0.00000   0.00000   0.00000
 154        7PY         0.00024   0.00000  -0.01094   0.00000   0.00000
 155        7PZ         0.00000   0.02087   0.00000   0.04336   0.00172
 156        8PX         0.00000   0.00000   0.00000   0.00000   0.00000
 157        8PY         0.00002   0.00000   0.03206   0.00000   0.00000
 158        8PZ         0.00000  -0.03175   0.00000  -0.05426  -0.00595
 159        9PX         0.00000   0.00000   0.00000   0.00000   0.00000
 160        9PY         0.00001   0.00000   0.01215   0.00000   0.00000
 161        9PZ         0.00000  -0.01555   0.00000  -0.02999  -0.00160
 162       10PX         0.00000   0.00000   0.00000   0.00000   0.00000
 163       10PY         0.00002   0.00000   0.01008   0.00000   0.00000
 164       10PZ         0.00000   0.00046   0.00000   0.01597  -0.01754
 165       11PX         0.00000   0.00000   0.00000   0.00000   0.00000
 166       11PY         0.00000   0.00000  -0.00146   0.00000   0.00000
 167       11PZ         0.00000   0.00217   0.00000   0.00815   0.00040
 168       12D 0        0.00000   0.00670   0.00000   0.00995   0.00061
 169       12D+1        0.00000   0.00000   0.00000   0.00000   0.00000
 170       12D-1       -0.00002   0.00000  -0.00502   0.00000   0.00000
 171       12D+2        0.00000   0.00016   0.00000   0.00036   0.00321
 172       12D-2        0.00000   0.00000   0.00000   0.00000   0.00000
 173       13D 0        0.00000   0.00951   0.00000   0.02355   0.00109
 174       13D+1        0.00000   0.00000   0.00000   0.00000   0.00000
 175       13D-1        0.00000   0.00000  -0.00329   0.00000   0.00000
 176       13D+2        0.00000   0.00000   0.00000   0.00099   0.00236
 177       13D-2        0.00000   0.00000   0.00000   0.00000   0.00000
 178       14D 0        0.00000  -0.00218   0.00000  -0.00853  -0.00075
 179       14D+1        0.00000   0.00000   0.00000   0.00000   0.00000
 180       14D-1       -0.00001   0.00000   0.00195   0.00000   0.00000
 181       14D+2        0.00000  -0.00175   0.00000  -0.00092   0.00533
 182       14D-2        0.00000   0.00000   0.00000   0.00000   0.00000
 183       15F 0        0.00000  -0.00287   0.00000  -0.00856  -0.00075
 184       15F+1        0.00000   0.00000   0.00000   0.00000   0.00000
 185       15F-1        0.00000   0.00000   0.00167   0.00000   0.00000
 186       15F+2        0.00000   0.00017   0.00000  -0.00030  -0.00041
 187       15F-2        0.00000   0.00000   0.00000   0.00000   0.00000
 188       15F+3        0.00000   0.00000   0.00000   0.00000   0.00000
 189       15F-3        0.00000   0.00000   0.00009   0.00000   0.00000
 190       16F 0        0.00000   0.00055   0.00000   0.00483  -0.00012
 191       16F+1        0.00000   0.00000   0.00000   0.00000   0.00000
 192       16F-1        0.00001   0.00000   0.00080   0.00000   0.00000
 193       16F+2        0.00000  -0.00057   0.00000  -0.00074  -0.00132
 194       16F-2        0.00000   0.00000   0.00000   0.00000   0.00000
 195       16F+3        0.00000   0.00000   0.00000   0.00000   0.00000
 196       16F-3        0.00000   0.00000   0.00034   0.00000   0.00000
                          21        22        23        24        25
     Eigenvalues --     1.94887   1.94875   1.94805   1.94657   1.94102
   1 1   C  1S          0.12040   0.00000   0.00000   0.00000   0.00000
   2        2S         -0.33665   0.00000   0.00000   0.00000   0.00000
   3        3S         -0.08077   0.00000   0.00000   0.00000   0.00000
   4        4S         -0.21138   0.00000   0.00000   0.00000   0.00000
   5        5S         -0.00913   0.00000   0.00000   0.00000   0.00000
   6        6PX         0.00000   0.00000   0.09592   0.00000   0.00000
   7        6PY         0.00000   0.08033   0.00000   0.00000   0.16860
   8        6PZ         0.03881   0.00000   0.00000   0.00000   0.00000
   9        7PX         0.00000   0.00000   0.13702   0.00000   0.00000
  10        7PY         0.00000   0.11001   0.00000   0.00000   0.23754
  11        7PZ         0.06481   0.00000   0.00000   0.00000   0.00000
  12        8PX         0.00000   0.00000   0.06135   0.00000   0.00000
  13        8PY         0.00000   0.03457   0.00000   0.00000   0.08297
  14        8PZ        -0.01819   0.00000   0.00000   0.00000   0.00000
  15        9PX         0.00000   0.00000   0.00629   0.00000   0.00000
  16        9PY         0.00000   0.01051   0.00000   0.00000  -0.00729
  17        9PZ        -0.00359   0.00000   0.00000   0.00000   0.00000
  18       10D 0        0.00206   0.00000   0.00000   0.00000   0.00000
  19       10D+1        0.00000   0.00000  -0.00735   0.00000   0.00000
  20       10D-1        0.00000   0.00484   0.00000   0.00000  -0.00717
  21       10D+2        0.00756   0.00000   0.00000   0.00000   0.00000
  22       10D-2        0.00000   0.00000   0.00000   0.01063   0.00000
  23       11D 0        0.00763   0.00000   0.00000   0.00000   0.00000
  24       11D+1        0.00000   0.00000  -0.02331   0.00000   0.00000
  25       11D-1        0.00000   0.01681   0.00000   0.00000  -0.01374
  26       11D+2        0.01735   0.00000   0.00000   0.00000   0.00000
  27       11D-2        0.00000   0.00000   0.00000   0.03235   0.00000
  28       12D 0       -0.02169   0.00000   0.00000   0.00000   0.00000
  29       12D+1        0.00000   0.00000   0.01603   0.00000   0.00000
  30       12D-1        0.00000  -0.03727   0.00000   0.00000   0.01026
  31       12D+2       -0.00652   0.00000   0.00000   0.00000   0.00000
  32       12D-2        0.00000   0.00000   0.00000  -0.01090   0.00000
  33       13F 0       -0.00360   0.00000   0.00000   0.00000   0.00000
  34       13F+1        0.00000   0.00000   0.00223   0.00000   0.00000
  35       13F-1        0.00000  -0.00268   0.00000   0.00000   0.00760
  36       13F+2       -0.00482   0.00000   0.00000   0.00000   0.00000
  37       13F-2        0.00000   0.00000   0.00000  -0.00446   0.00000
  38       13F+3        0.00000   0.00000  -0.00484   0.00000   0.00000
  39       13F-3        0.00000  -0.00296   0.00000   0.00000  -0.00297
  40       14F 0       -0.00693   0.00000   0.00000   0.00000   0.00000
  41       14F+1        0.00000   0.00000   0.00237   0.00000   0.00000
  42       14F-1        0.00000  -0.00837   0.00000   0.00000  -0.00040
  43       14F+2       -0.00199   0.00000   0.00000   0.00000   0.00000
  44       14F-2        0.00000   0.00000   0.00000  -0.00572   0.00000
  45       14F+3        0.00000   0.00000  -0.00332   0.00000   0.00000
  46       14F-3        0.00000  -0.00300   0.00000   0.00000   0.00109
  47 2   Cl 1S          0.01476   0.00865   0.00000   0.00000   0.00669
  48        2S         -0.05605  -0.03345   0.00000   0.00000  -0.02698
  49        3S          0.12439   0.07078   0.00000   0.00000   0.05787
  50        4S          0.01977   0.01139   0.00000   0.00000   0.01088
  51        5S          0.12285   0.08875   0.00000   0.00000   0.08592
  52        6S          0.01414   0.03011   0.00000   0.00000   0.01575
  53        7PX         0.00000   0.00000  -0.15238   0.16889   0.00000
  54        7PY         0.04714  -0.06189   0.00000   0.00000   0.12992
  55        7PZ         0.08808   0.14352   0.00000   0.00000  -0.00361
  56        8PX         0.00000   0.00000   0.35728  -0.39491   0.00000
  57        8PY        -0.09300   0.15280   0.00000   0.00000  -0.28698
  58        8PZ        -0.19277  -0.33392   0.00000   0.00000   0.02251
  59        9PX         0.00000   0.00000   0.16766  -0.18733   0.00000
[...]
  54        7PY        -0.02347   0.00000  -0.01326   0.00454  -0.01611
  55        7PZ        -0.00128   0.00000  -0.00376  -0.01029  -0.01492
  56        8PX         0.00000  -0.19188   0.00000   0.00000   0.00000
  57        8PY        -0.38168   0.00000  -0.16695   0.06158  -0.25866
  58        8PZ        -0.02848   0.00000  -0.03742  -0.12863  -0.24107
  59        9PX         0.00000   0.06190   0.00000   0.00000   0.00000
  60        9PY         0.08618   0.00000   0.05163  -0.01683   0.06113
  61        9PZ         0.00147   0.00000   0.01559   0.04046   0.05728
  62       10PX         0.00000   0.84779   0.00000   0.00000   0.00000
  63       10PY         5.28154   0.00000   0.77836   0.51619   1.95641
  64       10PZ         2.68571   0.00000   0.54641   1.36395   1.39185
  65       11PX         0.00000  -2.38266   0.00000   0.00000   0.00000
  66       11PY         2.45143   0.00000  -1.72053   1.22148   1.51391
  67       11PZ         1.44477   0.00000   1.02191  -2.77375   1.45506
  68       12D 0       -0.01881   0.00000  -0.00995  -0.02337  -0.00528
  69       12D+1        0.00000  -0.01569   0.00000   0.00000   0.00000
  70       12D-1        0.01986   0.00000   0.00279  -0.00207   0.01726
  71       12D+2       -0.04189   0.00000   0.04324   0.00782   0.01275
  72       12D-2        0.00000  -0.02185   0.00000   0.00000   0.00000
  73       13D 0        0.11166   0.00000   0.05425   0.09105   0.00171
  74       13D+1        0.00000   0.06476   0.00000   0.00000   0.00000
  75       13D-1       -0.00314   0.00000   0.01534   0.04991  -0.09328
  76       13D+2        0.13035   0.00000  -0.14926  -0.03867  -0.03424
  77       13D-2        0.00000   0.09046   0.00000   0.00000   0.00000
  78       14D 0       -0.37859   0.00000  -0.02055  -0.19286   0.07082
  79       14D+1        0.00000  -0.09509   0.00000   0.00000   0.00000
  80       14D-1        1.30822   0.00000   0.14507   0.30369   0.51739
  81       14D+2       -1.06850   0.00000   0.31920  -0.01179  -0.32818
  82       14D-2        0.00000   0.11231   0.00000   0.00000   0.00000
  83       15F 0        0.01729   0.00000   0.02954   0.00249   0.00747
  84       15F+1        0.00000  -0.01068   0.00000   0.00000   0.00000
  85       15F-1       -0.03779   0.00000  -0.00595   0.01337  -0.00207
  86       15F+2        0.01994   0.00000   0.00822   0.02601   0.02259
  87       15F-2        0.00000  -0.00549   0.00000   0.00000   0.00000
  88       15F+3        0.00000   0.05182   0.00000   0.00000   0.00000
  89       15F-3       -0.01536   0.00000   0.01969  -0.00541   0.03301
  90       16F 0       -0.07323   0.00000  -0.06296  -0.04722   0.00440
  91       16F+1        0.00000   0.00597   0.00000   0.00000   0.00000
  92       16F-1        0.12951   0.00000   0.03322  -0.02553  -0.00428
  93       16F+2       -0.10589   0.00000  -0.01699  -0.07575  -0.04032
  94       16F-2        0.00000   0.02388   0.00000   0.00000   0.00000
  95       16F+3        0.00000  -0.13271   0.00000   0.00000   0.00000
  96       16F-3        0.00191   0.00000  -0.01900   0.01370  -0.07489
  97 3   Cl 1S          0.01575   0.00000  -0.01000   0.00521   0.00362
  98        2S          0.21132   0.00000  -0.18564   0.09831   0.08329
  99        3S          0.60097   0.00000  -0.41906   0.21733   0.16358
 100        4S         -0.02399   0.00000   0.16672  -0.10142  -0.10334
 101        5S         -4.82568   0.00000   0.88302   0.06179  -0.11791
 102        6S        -13.81809   0.00000  -7.10251   4.98153  10.12743
 103        7PX         0.00000  -0.01617   0.00000   0.00000   0.00000
 104        7PY        -0.02347   0.00000  -0.01326  -0.00454   0.01611
 105        7PZ         0.00128   0.00000   0.00376  -0.01029  -0.01492
 106        8PX         0.00000  -0.19188   0.00000   0.00000   0.00000
 107        8PY        -0.38168   0.00000  -0.16695  -0.06158   0.25866
 108        8PZ         0.02848   0.00000   0.03742  -0.12863  -0.24107
 109        9PX         0.00000   0.06190   0.00000   0.00000   0.00000
 110        9PY         0.08618   0.00000   0.05163   0.01683  -0.06113
 111        9PZ        -0.00147   0.00000  -0.01559   0.04046   0.05728
 112       10PX         0.00000   0.84779   0.00000   0.00000   0.00000
 113       10PY         5.28154   0.00000   0.77836  -0.51619  -1.95641
 114       10PZ        -2.68571   0.00000  -0.54641   1.36395   1.39185
 115       11PX         0.00000  -2.38266   0.00000   0.00000   0.00000
 116       11PY         2.45143   0.00000  -1.72053  -1.22148  -1.51391
 117       11PZ        -1.44477   0.00000  -1.02191  -2.77375   1.45506
 118       12D 0        0.01881   0.00000   0.00995  -0.02337  -0.00528
 119       12D+1        0.00000  -0.01569   0.00000   0.00000   0.00000
 120       12D-1        0.01986   0.00000   0.00279   0.00207  -0.01726
 121       12D+2        0.04189   0.00000  -0.04324   0.00782   0.01275
 122       12D-2        0.00000   0.02185   0.00000   0.00000   0.00000
 123       13D 0       -0.11166   0.00000  -0.05425   0.09105   0.00171
 124       13D+1        0.00000   0.06476   0.00000   0.00000   0.00000
 125       13D-1       -0.00314   0.00000   0.01534  -0.04991   0.09328
 126       13D+2       -0.13035   0.00000   0.14926  -0.03867  -0.03424
 127       13D-2        0.00000  -0.09046   0.00000   0.00000   0.00000
 128       14D 0        0.37859   0.00000   0.02055  -0.19286   0.07082
 129       14D+1        0.00000  -0.09509   0.00000   0.00000   0.00000
 130       14D-1        1.30822   0.00000   0.14507  -0.30369  -0.51739
 131       14D+2        1.06850   0.00000  -0.31920  -0.01179  -0.32818
 132       14D-2        0.00000  -0.11231   0.00000   0.00000   0.00000
 133       15F 0       -0.01729   0.00000  -0.02954   0.00249   0.00747
 134       15F+1        0.00000  -0.01068   0.00000   0.00000   0.00000
 135       15F-1       -0.03779   0.00000  -0.00595  -0.01337   0.00207
 136       15F+2       -0.01994   0.00000  -0.00822   0.02601   0.02259
 137       15F-2        0.00000   0.00549   0.00000   0.00000   0.00000
 138       15F+3        0.00000   0.05182   0.00000   0.00000   0.00000
 139       15F-3       -0.01536   0.00000   0.01969   0.00541  -0.03301
 140       16F 0        0.07323   0.00000   0.06296  -0.04722   0.00440
 141       16F+1        0.00000   0.00597   0.00000   0.00000   0.00000
 142       16F-1        0.12951   0.00000   0.03322   0.02553   0.00428
 143       16F+2        0.10589   0.00000   0.01699  -0.07575  -0.04032
 144       16F-2        0.00000  -0.02388   0.00000   0.00000   0.00000
 145       16F+3        0.00000  -0.13271   0.00000   0.00000   0.00000
 146       16F-3        0.00191   0.00000  -0.01900  -0.01370   0.07489
 147 4   S  1S          0.00000   0.00000   0.00000   0.00223  -0.00384
 148        2S          0.00000   0.00000   0.00000   0.00467  -0.06672
 149        3S          0.00000   0.00000   0.00000   0.07352  -0.17535
 150        4S          0.00000   0.00000   0.00000   0.10141   0.02917
 151        5S          0.00000   0.00000   0.00000  -3.80534   2.20125
 152        6S          0.00000   0.00000   0.00000 -15.49304   3.20290
 153        7PX         0.00000  -0.01949   0.00000   0.00000   0.00000
 154        7PY        -0.01728   0.00000   0.00333   0.00000   0.00000
 155        7PZ         0.00000   0.00000   0.00000  -0.00768  -0.00214
 156        8PX         0.00000  -0.08649   0.00000   0.00000   0.00000
 157        8PY        -0.26353   0.00000   0.12852   0.00000   0.00000
 158        8PZ         0.00000   0.00000   0.00000  -0.01119  -0.14691
 159        9PX         0.00000   0.07299   0.00000   0.00000   0.00000
 160        9PY         0.06445   0.00000  -0.01124   0.00000   0.00000
 161        9PZ         0.00000   0.00000   0.00000   0.02105   0.00388
 162       10PX         0.00000  -0.66424   0.00000   0.00000   0.00000
 163       10PY         3.39356   0.00000  -0.36659   0.00000   0.00000
 164       10PZ         0.00000   0.00000   0.00000   3.55686  -0.13985
 165       11PX         0.00000  -4.08976   0.00000   0.00000   0.00000
 166       11PY         0.03068   0.00000  -4.70213   0.00000   0.00000
 167       11PZ         0.00000   0.00000   0.00000  -1.09358   0.84542
 168       12D 0        0.00000   0.00000   0.00000  -0.46862   0.32492
 169       12D+1        0.00000  -0.34274   0.00000   0.00000   0.00000
 170       12D-1        0.07455   0.00000  -0.36780   0.00000   0.00000
 171       12D+2        0.00000   0.00000   0.00000   0.11755  -0.14100
 172       12D-2        0.00000   0.00000   0.00000   0.00000   0.00000
 173       13D 0        0.00000   0.00000   0.00000   0.08960  -0.07979
 174       13D+1        0.00000   0.07135   0.00000   0.00000   0.00000
 175       13D-1       -0.04081   0.00000   0.07189   0.00000   0.00000
 176       13D+2        0.00000   0.00000   0.00000  -0.03398   0.02903
 177       13D-2        0.00000   0.00000   0.00000   0.00000   0.00000
 178       14D 0        0.00000   0.00000   0.00000   0.24166  -1.19326
 179       14D+1        0.00000   1.25653   0.00000   0.00000   0.00000
 180       14D-1       -1.42795   0.00000   0.90483   0.00000   0.00000
 181       14D+2        0.00000   0.00000   0.00000  -0.44893   0.16319
 182       14D-2        0.00000   0.00000   0.00000   0.00000   0.00000
 183       15F 0        0.00000   0.00000   0.00000  -0.01254  -0.01603
 184       15F+1        0.00000   0.01528   0.00000   0.00000   0.00000
 185       15F-1        0.06944   0.00000   0.00440   0.00000   0.00000
 186       15F+2        0.00000   0.00000   0.00000  -0.01362   0.00179
 187       15F-2        0.00000   0.00000   0.00000   0.00000   0.00000
 188       15F+3        0.00000   0.02692   0.00000   0.00000   0.00000
 189       15F-3        0.00266   0.00000   0.04041   0.00000   0.00000
 190       16F 0        0.00000   0.00000   0.00000   0.07257   0.13895
 191       16F+1        0.00000  -0.01957   0.00000   0.00000   0.00000
 192       16F-1       -0.10111   0.00000   0.01798   0.00000   0.00000
 193       16F+2        0.00000   0.00000   0.00000   0.07249   0.01652
 194       16F-2        0.00000   0.00000   0.00000   0.00000   0.00000
 195       16F+3        0.00000  -0.06038   0.00000   0.00000   0.00000
 196       16F-3       -0.01670   0.00000  -0.09387   0.00000   0.00000
                         196
     Eigenvalues --     0.00000
   1 1   C  1S         -0.03639
   2        2S         -0.13407
   3        3S          0.13612
   4        4S          2.59143
   5        5S         21.30707
   6        6PX         0.00000
   7        6PY         0.00000
   8        6PZ         0.02172
   9        7PX         0.00000
  10        7PY         0.00000
  11        7PZ        -0.18973
  12        8PX         0.00000
  13        8PY         0.00000
  14        8PZ         1.19953
  15        9PX         0.00000
  16        9PY         0.00000
  17        9PZ         3.43975
  18       10D 0        0.01376
  19       10D+1        0.00000
  20       10D-1        0.00000
  21       10D+2       -0.03569
  22       10D-2        0.00000
  23       11D 0       -0.32515
  24       11D+1        0.00000
  25       11D-1        0.00000
  26       11D+2        0.17556
  27       11D-2        0.00000
  28       12D 0       -0.93137
  29       12D+1        0.00000
  30       12D-1        0.00000
  31       12D+2       -0.75172
  32       12D-2        0.00000
  33       13F 0       -0.02544
  34       13F+1        0.00000
  35       13F-1        0.00000
  36       13F+2       -0.00156
  37       13F-2        0.00000
  38       13F+3        0.00000
  39       13F-3        0.00000
  40       14F 0       -0.14177
  41       14F+1        0.00000
  42       14F-1        0.00000
  43       14F+2       -0.11905
  44       14F-2        0.00000
  45       14F+3        0.00000
  46       14F-3        0.00000
  47 2   Cl 1S         -0.00114
  48        2S         -0.01617
  49        3S         -0.04414
  50        4S          0.00033
  51        5S          0.39157
  52        6S         -3.61359
  53        7PX         0.00000
  54        7PY         0.00837
  55        7PZ         0.00383
  56        8PX         0.00000
  57        8PY         0.14767
  58        8PZ         0.09141
  59        9PX         0.00000
  60        9PY        -0.03050
  61        9PZ        -0.01225
  62       10PX         0.00000
  63       10PY         0.10561
  64       10PZ        -0.42525
  65       11PX         0.00000
  66       11PY        -0.75893
  67       11PZ        -1.06533
  68       12D 0        0.00843
  69       12D+1        0.00000
  70       12D-1       -0.01086
  71       12D+2       -0.00805
  72       12D-2        0.00000
  73       13D 0       -0.04090
  74       13D+1        0.00000
  75       13D-1        0.09088
  76       13D+2       -0.00875
  77       13D-2        0.00000
  78       14D 0       -0.05302
  79       14D+1        0.00000
  80       14D-1       -0.17372
  81       14D+2       -0.16298
  82       14D-2        0.00000
  83       15F 0       -0.00507
  84       15F+1        0.00000
  85       15F-1        0.00691
  86       15F+2       -0.00370
  87       15F-2        0.00000
  88       15F+3        0.00000
  89       15F-3       -0.00260
  90       16F 0        0.00334
  91       16F+1        0.00000
  92       16F-1       -0.02043
  93       16F+2       -0.00583
  94       16F-2        0.00000
  95       16F+3        0.00000
  96       16F-3       -0.00975
  97 3   Cl 1S         -0.00114
  98        2S         -0.01617
  99        3S         -0.04414
 100        4S          0.00033
 101        5S          0.39157
 102        6S         -3.61359
 103        7PX         0.00000
 104        7PY        -0.00837
 105        7PZ         0.00383
 106        8PX         0.00000
 107        8PY        -0.14767
 108        8PZ         0.09141
 109        9PX         0.00000
 110        9PY         0.03050
 111        9PZ        -0.01225
 112       10PX         0.00000
 113       10PY        -0.10561
 114       10PZ        -0.42525
 115       11PX         0.00000
 116       11PY         0.75893
 117       11PZ        -1.06533
 118       12D 0        0.00843
 119       12D+1        0.00000
 120       12D-1        0.01086
 121       12D+2       -0.00805
 122       12D-2        0.00000
 123       13D 0       -0.04090
 124       13D+1        0.00000
 125       13D-1       -0.09088
 126       13D+2       -0.00875
 127       13D-2        0.00000
 128       14D 0       -0.05302
 129       14D+1        0.00000
 130       14D-1        0.17372
 131       14D+2       -0.16298
 132       14D-2        0.00000
 133       15F 0       -0.00507
 134       15F+1        0.00000
 135       15F-1       -0.00691
 136       15F+2       -0.00370
 137       15F-2        0.00000
 138       15F+3        0.00000
 139       15F-3        0.00260
 140       16F 0        0.00334
 141       16F+1        0.00000
 142       16F-1        0.02043
 143       16F+2       -0.00583
 144       16F-2        0.00000
 145       16F+3        0.00000
 146       16F-3        0.00975
 147 4   S  1S         -0.00479
 148        2S         -0.11724
 149        3S         -0.25135
 150        4S          0.11028
 151        5S          2.68218
 152        6S        -18.14377
 153        7PX         0.00000
 154        7PY         0.00000
 155        7PZ        -0.04442
 156        8PX         0.00000
 157        8PY         0.00000
 158        8PZ        -0.88691
 159        9PX         0.00000
 160        9PY         0.00000
 161        9PZ         0.14056
 162       10PX         0.00000
 163       10PY         0.00000
 164       10PZ         3.40677
 165       11PX         0.00000
 166       11PY         0.00000
 167       11PZ         4.71718
 168       12D 0        0.30610
 169       12D+1        0.00000
 170       12D-1        0.00000
 171       12D+2        0.09291
 172       12D-2        0.00000
 173       13D 0       -0.00705
 174       13D+1        0.00000
 175       13D-1        0.00000
 176       13D+2       -0.02165
 177       13D-2        0.00000
 178       14D 0       -1.67067
 179       14D+1        0.00000
 180       14D-1        0.00000
 181       14D+2        0.02876
 182       14D-2        0.00000
 183       15F 0       -0.08558
 184       15F+1        0.00000
 185       15F-1        0.00000
 186       15F+2        0.01190
 187       15F-2        0.00000
 188       15F+3        0.00000
 189       15F-3        0.00000
 190       16F 0        0.18314
 191       16F+1        0.00000
 192       16F-1        0.00000
 193       16F+2       -0.08332
 194       16F-2        0.00000
 195       16F+3        0.00000
 196       16F-3        0.00000
          Condensed to atoms (all electrons):
              1          2          3          4
     1  C    5.675761   0.069311   0.069311   0.179845
     2  Cl   0.069311  17.189084  -0.118060  -0.126166
     3  Cl   0.069311  -0.118060  17.189084  -0.126166
     4  S    0.179845  -0.126166  -0.126166  16.049918
 Mulliken atomic charges:
              1
     1  C    0.005772
     2  Cl  -0.014170
     3  Cl  -0.014170
     4  S    0.022568
 Sum of Mulliken atomic charges =   0.00000
 Mulliken charges with hydrogens summed into heavy atoms:
              1
     1  C    0.005772
     2  Cl  -0.014170
     3  Cl  -0.014170
     4  S    0.022568
 Sum of Mulliken charges with hydrogens summed into heavy atoms =   0.00000
 Electronic spatial extent (au):  <R**2>=            691.9100
 Charge=              0.0000 electrons
 Dipole moment (field-independent basis, Debye):
    X=              0.0000    Y=              0.0000    Z=             -0.4768  Tot=              0.4768
 Quadrupole moment (field-independent basis, Debye-Ang):
   XX=            -43.1856   YY=            -43.2759   ZZ=            -42.5094
   XY=              0.0000   XZ=              0.0000   YZ=              0.0000
 Traceless Quadrupole moment (field-independent basis, Debye-Ang):
   XX=             -0.1953   YY=             -0.2856   ZZ=              0.4809
   XY=              0.0000   XZ=              0.0000   YZ=              0.0000
 Octapole moment (field-independent basis, Debye-Ang**2):
  XXX=              0.0000  YYY=              0.0000  ZZZ=             81.1866  XYY=              0.0000
  XXY=              0.0000  XXZ=             26.9542  XZZ=              0.0000  YZZ=              0.0000
  YYZ=             18.7420  XYZ=              0.0000
 Hexadecapole moment (field-independent basis, Debye-Ang**3):
 XXXX=            -50.9912 YYYY=           -340.3042 ZZZZ=           -478.9866 XXXY=              0.0000
 XXXZ=              0.0000 YYYX=              0.0000 YYYZ=              0.0000 ZZZX=              0.0000
 ZZZY=              0.0000 XXYY=            -69.2189 XXZZ=            -90.0314 YYZZ=           -127.5222
 XXYZ=              0.0000 YYXZ=              0.0000 ZZXY=              0.0000
 N-N= 2.444088290523D+02 E-N=-3.712348097373D+03  KE= 1.355006360654D+03
 1\1\GINC-TRAPISTA\SP\RQCISD-FC\Aug-CC-pVTZ\C1Cl2S1\BRUNS\28-Nov-2021\0
 \\# qcisd/aug-cc-pvtz nosymm density=current output=wfn\\cl2cs-wavefun
 ction\\0,1\C,0,0.,0.,-0.522914\Cl,0,0.,-1.430735,-1.5009\Cl,0,0.,1.430
 735,-1.5009\S,0,0.,0.,1.091815\\Version=EM64L-G09RevB.01\HF=-1354.4256
 149\MP2=-1355.150348\MP3=-1355.1828163\MP4D=-1355.2046983\MP4DQ=-1355.
 179727\MP4SDQ=-1355.1866548\QCISD=-1355.1841581\RMSD=9.742e-09\Dipole=
 0.,0.,-0.1875801\Quadrupole=-0.1452233,-0.2123453,0.3575685,0.,0.,0.\P
 G=C02V [C2(C1S1),SGV(Cl2)]\\@

 Writing a WFN file to GAUSSIAN.wfn.


 TO DETECT ERRORS, THE PROGRAMMER MUST HAVE A CONNIVING MIND,
 ONE THAT DELIGHTS IN UNCOVERING FLAWS WHERE BEAUTY AND
 PERFECTION WERE ONCE THOUGHT TO LIE.

             -- THE PSYCHOLOGY OF COMPUTER PROGRAMMING
                GERALD M. WEINBERG
 Job cpu time:  0 days  2 hours 14 minutes 15.7 seconds.
 File lengths (MBytes):  RWF=  18573 Int=      0 D2E=      0 Chk=      3 Scr=      1
 Normal termination of Gaussian 09 at Sun Nov 28 03:59:15 2021.
