 Entering Gaussian System, Link 0=/home/bruns/programas/chemistry/gaussian/g09/g09
 Input=GAUSSIAN.com
 Output=GAUSSIAN.log
 Initial command:
 /home/bruns/programas/chemistry/gaussian/g09/l1.exe /home/bruns/programas/chemistry/gaussian/work/Gau-61151.inp -scrdir=/home/bruns/programas/chemistry/gaussian/work/
 Entering Link 1 = /home/bruns/programas/chemistry/gaussian/g09/l1.exe PID=     61153.
  
 Copyright (c) 1988,1990,1992,1993,1995,1998,2003,2009,2010,
            Gaussian, Inc.  All Rights Reserved.
  
 This is part of the Gaussian(R) 09 program.  It is based on
 the Gaussian(R) 03 system (copyright 2003, Gaussian, Inc.),
 the Gaussian(R) 98 system (copyright 1998, Gaussian, Inc.),
 the Gaussian(R) 94 system (copyright 1995, Gaussian, Inc.),
 the Gaussian 92(TM) system (copyright 1992, Gaussian, Inc.),
 the Gaussian 90(TM) system (copyright 1990, Gaussian, Inc.),
 the Gaussian 88(TM) system (copyright 1988, Gaussian, Inc.),
 the Gaussian 86(TM) system (copyright 1986, Carnegie Mellon
 University), and the Gaussian 82(TM) system (copyright 1983,
 Carnegie Mellon University). Gaussian is a federally registered
 trademark of Gaussian, Inc.
  
 This software contains proprietary and confidential information,
 including trade secrets, belonging to Gaussian, Inc.
  
 This software is provided under written license and may be
 used, copied, transmitted, or stored only in accord with that
 written license.
  
 The following legend is applicable only to US Government
 contracts under FAR:
  
                    RESTRICTED RIGHTS LEGEND
  
 Use, reproduction and disclosure by the US Government is
 subject to restrictions as set forth in subparagraphs (a)
 and (c) of the Commercial Computer Software - Restricted
 Rights clause in FAR 52.227-19.
  
 Gaussian, Inc.
 340 Quinnipiac St., Bldg. 40, Wallingford CT 06492
  
  
 ---------------------------------------------------------------
 Warning -- This program may not be used in any manner that
 competes with the business of Gaussian, Inc. or will provide
 assistance to any competitor of Gaussian, Inc.  The licensee
 of this program is prohibited from giving any competitor of
 Gaussian, Inc. access to this program.  By using this program,
 the user acknowledges that Gaussian, Inc. is engaged in the
 business of creating and licensing software in the field of
 computational chemistry and represents and warrants to the
 licensee that it is not a competitor of Gaussian, Inc. and that
 it will not use this program in any manner prohibited above.
 ---------------------------------------------------------------
  

 Cite this work as:
 Gaussian 09, Revision B.01,
 M. J. Frisch, G. W. Trucks, H. B. Schlegel, G. E. Scuseria, 
 M. A. Robb, J. R. Cheeseman, G. Scalmani, V. Barone, B. Mennucci, 
 G. A. Petersson, H. Nakatsuji, M. Caricato, X. Li, H. P. Hratchian, 
 A. F. Izmaylov, J. Bloino, G. Zheng, J. L. Sonnenberg, M. Hada, 
 M. Ehara, K. Toyota, R. Fukuda, J. Hasegawa, M. Ishida, T. Nakajima, 
 Y. Honda, O. Kitao, H. Nakai, T. Vreven, J. A. Montgomery, Jr., 
 J. E. Peralta, F. Ogliaro, M. Bearpark, J. J. Heyd, E. Brothers, 
 K. N. Kudin, V. N. Staroverov, T. Keith, R. Kobayashi, J. Normand, 
 K. Raghavachari, A. Rendell, J. C. Burant, S. S. Iyengar, J. Tomasi, 
 M. Cossi, N. Rega, J. M. Millam, M. Klene, J. E. Knox, J. B. Cross, 
 V. Bakken, C. Adamo, J. Jaramillo, R. Gomperts, R. E. Stratmann, 
 O. Yazyev, A. J. Austin, R. Cammi, C. Pomelli, J. W. Ochterski, 
 R. L. Martin, K. Morokuma, V. G. Zakrzewski, G. A. Voth, 
 P. Salvador, J. J. Dannenberg, S. Dapprich, A. D. Daniels, 
 O. Farkas, J. B. Foresman, J. V. Ortiz, J. Cioslowski, 
 and D. J. Fox, Gaussian, Inc., Wallingford CT, 2010.
 
 ******************************************
 Gaussian 09:  EM64L-G09RevB.01 12-Aug-2010
                27-Nov-2021 
 ******************************************
 %nproc=8
 Will use up to    8 processors via shared memory.
 %mem=8GB
 -----------------------------------------------------
 # qcisd/aug-cc-pvtz nosymm density=current output=wfn
 -----------------------------------------------------
 1/30=1,38=1/1;
 2/12=2,15=1,17=6,18=5,40=1/2;
 3/5=16,6=1,7=10,11=9,16=1,25=1,30=1,71=1/1,2,3;
 4//1;
 5/5=2,38=5/2;
 8/6=4,9=120000,10=1/1,4;
 9/5=8,15=1/13;
 11/28=-7,31=1,32=3,42=3/11;
 10/5=6,13=10,31=1/2;
 6/7=2,8=2,9=2,10=2,22=-1,31=1/1;
 99/5=1,6=1100,9=1/99;
 ------------------
 cl2cs-wavefunction
 ------------------
 Symbolic Z-matrix:
 Charge =  0 Multiplicity = 1
 C                     0.        0.       -0.52291 
 Cl                    0.       -1.43074  -1.5109 
 Cl                    0.        1.43074  -1.5009 
 S                     0.        0.        1.08181 
 
                          Input orientation:                          
 ---------------------------------------------------------------------
 Center     Atomic      Atomic             Coordinates (Angstroms)
 Number     Number       Type             X           Y           Z
 ---------------------------------------------------------------------
      1          6           0        0.000000    0.000000   -0.522914
      2         17           0        0.000000   -1.430735   -1.510900
      3         17           0        0.000000    1.430735   -1.500900
      4         16           0        0.000000    0.000000    1.081815
 ---------------------------------------------------------------------
                    Distance matrix (angstroms):
                    1          2          3          4
     1  C    0.000000
     2  Cl   1.738712   0.000000
     3  Cl   1.733049   2.861487   0.000000
     4  S    1.604729   2.961279   2.952528   0.000000
 Symmetry turned off by external request.
 Stoichiometry    CCl2S
 Framework group  CS[SG(CCl2S)]
 Deg. of freedom     5
 Full point group                 CS      NOp   2
 Rotational constants (GHZ):      3.5315947      3.4308842      1.7402555
 Standard basis: Aug-CC-pVTZ (5D, 7F)
 Integral buffers will be    131072 words long.
 Raffenetti 1 integral format.
 Two-electron integral symmetry is turned off.
   196 basis functions,   414 primitive gaussians,   232 cartesian basis functions
    28 alpha electrons       28 beta electrons
       nuclear repulsion energy       244.6471898189 Hartrees.
 NAtoms=    4 NActive=    4 NUniq=    4 SFac= 1.00D+00 NAtFMM=   50 NAOKFM=F Big=F
 One-electron integrals computed using PRISM.
 NBasis=   196 RedAO= T  NBF=   196
 NBsUse=   196 1.00D-06 NBFU=   196
 Harris functional with IExCor=  205 diagonalized for initial guess.
 ExpMin= 3.51D-02 ExpMax= 4.56D+05 ExpMxC= 1.44D+03 IAcc=3 IRadAn=         0 AccDes= 0.00D+00
 HarFok:  IExCor=  205 AccDes= 0.00D+00 IRadAn=         0 IDoV= 1
 ScaDFX=  1.000000  1.000000  1.000000  1.000000
 FoFCou: FMM=F IPFlag=           0 FMFlag=      100000 FMFlg1=           0
         NFxFlg=           0 DoJE=T BraDBF=F KetDBF=T FulRan=T
         Omega=  0.000000  0.000000  1.000000  0.000000  0.000000 ICntrl=     500 IOpCl=  0
         NMat0=    1 NMatS0=    1 NMatT0=    0 NMatD0=    1 NMtDS0=    0 NMtDT0=    0
         I1Cent=           4 NGrid=           0.
 Symmetry not used in FoFCou.
 Requested convergence on RMS density matrix=1.00D-08 within 128 cycles.
 Requested convergence on MAX density matrix=1.00D-06.
 Requested convergence on             energy=1.00D-06.
 No special actions if energy rises.
 Keep R1 ints in memory in canonical form, NReq=371777346.
 SCF Done:  E(RHF) =  -1354.42590963     A.U. after   12 cycles
             Convg  =    0.9893D-08             -V/T =  2.0001
 ExpMin= 3.51D-02 ExpMax= 4.56D+05 ExpMxC= 1.44D+03 IAcc=3 IRadAn=         5 AccDes= 0.00D+00
 HarFok:  IExCor=  205 AccDes= 0.00D+00 IRadAn=         5 IDoV=-2
 ScaDFX=  1.000000  1.000000  1.000000  1.000000
 Range of M.O.s used for correlation:    17   196
 NBasis=   196 NAE=    28 NBE=    28 NFC=    16 NFV=     0
 NROrb=    180 NOA=    12 NOB=    12 NVA=   168 NVB=   168

 **** Warning!!: The largest alpha MO coefficient is  0.31048529D+02

 Semi-Direct transformation.
 ModeAB=           2 MOrb=            12 LenV=    1072679931
 LASXX=     33405819 LTotXX=    33405819 LenRXX=    33405819
 LTotAB=    33954012 MaxLAS=    58380480 LenRXY=    58380480
 NonZer=    66811638 LenScr=   100987392 LnRSAI=           0
 LnScr1=           0 LExtra=           0 Total=    192773691
 MaxDsk=          -1 SrtSym=           F ITran=            4
 JobTyp=0 Pass  1:  I=   1 to  12.
 (rs|ai) integrals will be sorted in core.
 Spin components of T(2) and E(2):
     alpha-alpha T2 =       0.3955684200D-01 E2=     -0.9366217442D-01
     alpha-beta  T2 =       0.2074228692D+00 E2=     -0.5371417963D+00
     beta-beta   T2 =       0.3955684200D-01 E2=     -0.9366217442D-01
 ANorm=    0.1134255947D+01
 E2 =    -0.7244661452D+00 EUMP2 =    -0.13551503757781D+04
 R2 and R3 integrals will be kept in memory, NReq=   736864364.
 Iterations=  50 Convergence= 0.100D-07
 Iteration Nr.   1
 **********************
 DD1Dir will call FoFMem   1 times, MxPair=       156
 NAB=    78 NAA=     0 NBB=     0.
 MP4(R+Q)=  0.24908169D-01
 E3=       -0.32573513D-01        EUMP3=      -0.13551829493D+04
 E4(DQ)=    0.30940541D-02        UMP4(DQ)=   -0.13551798552D+04
 E4(SDQ)=  -0.37559704D-02        UMP4(SDQ)=  -0.13551867053D+04
 DE(Corr)= -0.73213149     E(Corr)=     -1355.1580411    
 NORM(A)=   0.11381750D+01
 Iteration Nr.   2
 **********************
 DD1Dir will call FoFMem   1 times, MxPair=       156
 NAB=    78 NAA=     0 NBB=     0.
 DE(Corr)= -0.75651995     E(CORR)=     -1355.1824296     Delta=-2.44D-02
 NORM(A)=   0.11491962D+01
 Iteration Nr.   3
 **********************
 DD1Dir will call FoFMem   1 times, MxPair=       156
 NAB=    78 NAA=     0 NBB=     0.
 DE(Corr)= -0.75568701     E(CORR)=     -1355.1815966     Delta= 8.33D-04
 NORM(A)=   0.11519526D+01
 Iteration Nr.   4
 **********************
 DD1Dir will call FoFMem   1 times, MxPair=       156
 NAB=    78 NAA=     0 NBB=     0.
 DE(Corr)= -0.75795974     E(CORR)=     -1355.1838694     Delta=-2.27D-03
 NORM(A)=   0.11530347D+01
 Iteration Nr.   5
 **********************
 DD1Dir will call FoFMem   1 times, MxPair=       156
 NAB=    78 NAA=     0 NBB=     0.
 DE(Corr)= -0.75823936     E(CORR)=     -1355.1841490     Delta=-2.80D-04
 NORM(A)=   0.11535751D+01
 Iteration Nr.   6
 **********************
 DD1Dir will call FoFMem   1 times, MxPair=       156
 NAB=    78 NAA=     0 NBB=     0.
 DE(Corr)= -0.75829262     E(CORR)=     -1355.1842023     Delta=-5.33D-05
 NORM(A)=   0.11536388D+01
 Iteration Nr.   7
 **********************
 DD1Dir will call FoFMem   1 times, MxPair=       156
 NAB=    78 NAA=     0 NBB=     0.
 DE(Corr)= -0.75829996     E(CORR)=     -1355.1842096     Delta=-7.34D-06
 NORM(A)=   0.11536443D+01
 Iteration Nr.   8
 **********************
 DD1Dir will call FoFMem   1 times, MxPair=       156
 NAB=    78 NAA=     0 NBB=     0.
 DE(Corr)= -0.75829808     E(CORR)=     -1355.1842077     Delta= 1.88D-06
 NORM(A)=   0.11536509D+01
 Iteration Nr.   9
 **********************
 DD1Dir will call FoFMem   1 times, MxPair=       156
 NAB=    78 NAA=     0 NBB=     0.
 DE(Corr)= -0.75829813     E(CORR)=     -1355.1842078     Delta=-5.09D-08
 NORM(A)=   0.11536498D+01
 Iteration Nr.  10
 **********************
 DD1Dir will call FoFMem   1 times, MxPair=       156
 NAB=    78 NAA=     0 NBB=     0.
 DE(Corr)= -0.75829912     E(CORR)=     -1355.1842088     Delta=-9.94D-07
 NORM(A)=   0.11536517D+01
 Iteration Nr.  11
 **********************
 DD1Dir will call FoFMem   1 times, MxPair=       156
 NAB=    78 NAA=     0 NBB=     0.
 DE(Corr)= -0.75829982     E(CORR)=     -1355.1842095     Delta=-6.96D-07
 NORM(A)=   0.11536527D+01
 Iteration Nr.  12
 **********************
 DD1Dir will call FoFMem   1 times, MxPair=       156
 NAB=    78 NAA=     0 NBB=     0.
 DE(Corr)= -0.75830004     E(CORR)=     -1355.1842097     Delta=-2.28D-07
 NORM(A)=   0.11536534D+01
 Iteration Nr.  13
 **********************
 DD1Dir will call FoFMem   1 times, MxPair=       156
 NAB=    78 NAA=     0 NBB=     0.
 DE(Corr)= -0.75830034     E(CORR)=     -1355.1842100     Delta=-2.94D-07
 NORM(A)=   0.11536539D+01
 Iteration Nr.  14
 **********************
 DD1Dir will call FoFMem   1 times, MxPair=       156
 NAB=    78 NAA=     0 NBB=     0.
 DE(Corr)= -0.75830037     E(CORR)=     -1355.1842100     Delta=-2.83D-08
 NORM(A)=   0.11536541D+01
 Iteration Nr.  15
 **********************
 DD1Dir will call FoFMem   1 times, MxPair=       156
 NAB=    78 NAA=     0 NBB=     0.
 DE(Corr)= -0.75830042     E(CORR)=     -1355.1842101     Delta=-5.70D-08
 NORM(A)=   0.11536542D+01
 Iteration Nr.  16
 **********************
 DD1Dir will call FoFMem   1 times, MxPair=       156
 NAB=    78 NAA=     0 NBB=     0.
 DE(Corr)= -0.75830044     E(CORR)=     -1355.1842101     Delta=-1.18D-08
 NORM(A)=   0.11536543D+01
 Iteration Nr.  17
 **********************
 DD1Dir will call FoFMem   1 times, MxPair=       156
 NAB=    78 NAA=     0 NBB=     0.
 DE(Corr)= -0.75830044     E(CORR)=     -1355.1842101     Delta= 6.21D-10
 NORM(A)=   0.11536543D+01
 Iteration Nr.  18
 **********************
 DD1Dir will call FoFMem   1 times, MxPair=       156
 NAB=    78 NAA=     0 NBB=     0.
 DE(Corr)= -0.75830041     E(CORR)=     -1355.1842100     Delta= 2.92D-08
 NORM(A)=   0.11536543D+01
 Iteration Nr.  19
 **********************
 DD1Dir will call FoFMem   1 times, MxPair=       156
 NAB=    78 NAA=     0 NBB=     0.
 DE(Corr)= -0.75830045     E(CORR)=     -1355.1842101     Delta=-4.64D-08
 NORM(A)=   0.11536543D+01
 Iteration Nr.  20
 **********************
 DD1Dir will call FoFMem   1 times, MxPair=       156
 NAB=    78 NAA=     0 NBB=     0.
 DE(Corr)= -0.75830044     E(CORR)=     -1355.1842101     Delta= 1.10D-08
 NORM(A)=   0.11536543D+01
 Iteration Nr.  21
 **********************
 DD1Dir will call FoFMem   1 times, MxPair=       156
 NAB=    78 NAA=     0 NBB=     0.
 DE(Corr)= -0.75830044     E(CORR)=     -1355.1842101     Delta= 1.56D-11
 NORM(A)=   0.11536543D+01
 Iteration Nr.  22
 **********************
 DD1Dir will call FoFMem   1 times, MxPair=       156
 NAB=    78 NAA=     0 NBB=     0.
 DE(Corr)= -0.75830044     E(CORR)=     -1355.1842101     Delta= 1.04D-09
 NORM(A)=   0.11536543D+01
 Largest amplitude= 8.91D-02

 Z-AMPLITUDE ITERATIONS

 Iteration Nr.   1
 **********************
 DD1Dir will call FoFMem   1 times, MxPair=       156
 NAB=    78 NAA=     0 NBB=     0.
 DE(Z)  -0.72641898D+00          E(Z)=    -0.13551523286D+04
 NORM(A)=   0.11537004D+01
 Iteration Nr.   2
 **********************
 DD1Dir will call FoFMem   1 times, MxPair=       156
 NAB=    78 NAA=     0 NBB=     0.
 DE(Z)  -0.72642020D+00          E(Z)=    -0.13551523298D+04
 NORM(A)=   0.11537332D+01
 Iteration Nr.   3
 **********************
 DD1Dir will call FoFMem   1 times, MxPair=       156
 NAB=    78 NAA=     0 NBB=     0.
 DE(Z)  -0.72642107D+00          E(Z)=    -0.13551523307D+04
 NORM(A)=   0.11537509D+01
 Iteration Nr.   4
 **********************
 DD1Dir will call FoFMem   1 times, MxPair=       156
 NAB=    78 NAA=     0 NBB=     0.
 DE(Z)  -0.72642164D+00          E(Z)=    -0.13551523313D+04
 NORM(A)=   0.11538214D+01
 Iteration Nr.   5
 **********************
 DD1Dir will call FoFMem   1 times, MxPair=       156
 NAB=    78 NAA=     0 NBB=     0.
 DE(Z)  -0.72642374D+00          E(Z)=    -0.13551523334D+04
 NORM(A)=   0.11403922D+01
 Iteration Nr.   6
 **********************
 DD1Dir will call FoFMem   1 times, MxPair=       156
 NAB=    78 NAA=     0 NBB=     0.
 DE(Z)  -0.72603444D+00          E(Z)=    -0.13551519441D+04
 NORM(A)=   0.11403924D+01
 Iteration Nr.   7
 **********************
 DD1Dir will call FoFMem   1 times, MxPair=       156
 NAB=    78 NAA=     0 NBB=     0.
 DE(Z)  -0.72603303D+00          E(Z)=    -0.13551519427D+04
 NORM(A)=   0.11403921D+01
 Iteration Nr.   8
 **********************
 DD1Dir will call FoFMem   1 times, MxPair=       156
 NAB=    78 NAA=     0 NBB=     0.
 DE(Z)  -0.72603338D+00          E(Z)=    -0.13551519430D+04
 NORM(A)=   0.11403924D+01
 Iteration Nr.   9
 **********************
 DD1Dir will call FoFMem   1 times, MxPair=       156
 NAB=    78 NAA=     0 NBB=     0.
 DE(Z)  -0.72603322D+00          E(Z)=    -0.13551519429D+04
 NORM(A)=   0.11403927D+01
 Iteration Nr.  10
 **********************
 DD1Dir will call FoFMem   1 times, MxPair=       156
 NAB=    78 NAA=     0 NBB=     0.
 DE(Z)  -0.72603301D+00          E(Z)=    -0.13551519426D+04
 NORM(A)=   0.11403930D+01
 Iteration Nr.  11
 **********************
 DD1Dir will call FoFMem   1 times, MxPair=       156
 NAB=    78 NAA=     0 NBB=     0.
 DE(Z)  -0.72603319D+00          E(Z)=    -0.13551519428D+04
 NORM(A)=   0.11403931D+01
 Iteration Nr.  12
 **********************
 DD1Dir will call FoFMem   1 times, MxPair=       156
 NAB=    78 NAA=     0 NBB=     0.
 DE(Z)  -0.72603315D+00          E(Z)=    -0.13551519428D+04
 NORM(A)=   0.11403931D+01
 Iteration Nr.  13
 **********************
 DD1Dir will call FoFMem   1 times, MxPair=       156
 NAB=    78 NAA=     0 NBB=     0.
 DE(Z)  -0.72603317D+00          E(Z)=    -0.13551519428D+04
 NORM(A)=   0.11403931D+01
 Iteration Nr.  14
 **********************
 DD1Dir will call FoFMem   1 times, MxPair=       156
 NAB=    78 NAA=     0 NBB=     0.
 DE(Z)  -0.72603317D+00          E(Z)=    -0.13551519428D+04
 NORM(A)=   0.11403931D+01
 Discarding MO integrals.
          Differentiating once with respect to electric field.
                with respect to dipole field.
          Electric field/nuclear overlap derivatives assumed to be zero.
          Keep R1 ints in memory in canonical form, NReq=367211061.
          There are     1 degrees of freedom in the 1st order CPHF.  IDoFFX=0.
 LinEq1:  Iter=  0 NonCon=     1 RMS=2.08D-03 Max=6.35D-02
 AX will form     1 AO Fock derivatives at one time.
 LinEq1:  Iter=  1 NonCon=     1 RMS=9.31D-04 Max=1.79D-02
 LinEq1:  Iter=  2 NonCon=     1 RMS=4.12D-04 Max=1.02D-02
 LinEq1:  Iter=  3 NonCon=     1 RMS=1.04D-04 Max=1.79D-03
 LinEq1:  Iter=  4 NonCon=     1 RMS=2.43D-05 Max=7.86D-04
 LinEq1:  Iter=  5 NonCon=     1 RMS=7.91D-06 Max=1.93D-04
 LinEq1:  Iter=  6 NonCon=     1 RMS=2.39D-06 Max=8.95D-05
 LinEq1:  Iter=  7 NonCon=     1 RMS=7.34D-07 Max=1.29D-05
 LinEq1:  Iter=  8 NonCon=     1 RMS=1.36D-07 Max=2.08D-06
 LinEq1:  Iter=  9 NonCon=     1 RMS=2.60D-08 Max=3.79D-07
 LinEq1:  Iter= 10 NonCon=     1 RMS=6.97D-09 Max=1.68D-07
 LinEq1:  Iter= 11 NonCon=     1 RMS=1.43D-09 Max=2.23D-08
 LinEq1:  Iter= 12 NonCon=     1 RMS=3.31D-10 Max=5.36D-09
 LinEq1:  Iter= 13 NonCon=     0 RMS=7.43D-11 Max=8.79D-10
 Linear equations converged to 1.000D-10 1.000D-09 after    13 iterations.
 End of Minotr Frequency-dependent properties file   721 does not exist.
 End of Minotr Frequency-dependent properties file   722 does not exist.

 **********************************************************************

            Population analysis using the QCI/CC density.

 **********************************************************************

     Natural Orbital Coefficients:
                           1         2         3         4         5
     Eigenvalues --     2.00004   2.00004   2.00003   2.00003   2.00003
   1 1   C  1S          0.00002  -0.00157   0.00000   0.00000   0.00089
   2        2S          0.00001   0.00038   0.00000   0.00000  -0.00003
   3        3S          0.00000   0.00003   0.00000   0.00000   0.00003
   4        4S         -0.00011  -0.00291   0.00000   0.00000   0.00005
   5        5S         -0.00004  -0.00093   0.00000   0.00000   0.00000
   6        6PX         0.00000   0.00000   0.00001   0.00158   0.00000
   7        6PY         0.00034   0.00000   0.00000   0.00000  -0.00106
   8        6PZ         0.00001   0.00037   0.00000   0.00000  -0.00002
   9        7PX         0.00000   0.00000   0.00000   0.00169   0.00000
  10        7PY         0.00046  -0.00002   0.00000   0.00000  -0.00225
  11        7PZ         0.00004   0.00133   0.00000   0.00000  -0.00001
  12        8PX         0.00000   0.00000   0.00001  -0.00093   0.00000
  13        8PY         0.00307  -0.00008   0.00000   0.00000   0.00660
  14        8PZ        -0.00014  -0.00505   0.00000   0.00000   0.00007
  15        9PX         0.00000   0.00000   0.00000  -0.00101   0.00000
  16        9PY        -0.00048   0.00002   0.00000   0.00000   0.00157
  17        9PZ        -0.00007  -0.00208   0.00000   0.00000   0.00001
  18       10D 0       -0.00001  -0.00033   0.00000   0.00000   0.00000
  19       10D+1        0.00000   0.00000   0.00000  -0.00028   0.00000
  20       10D-1        0.00008   0.00000   0.00000   0.00000  -0.00036
  21       10D+2       -0.00001  -0.00023   0.00000   0.00000   0.00000
  22       10D-2        0.00000   0.00000   0.00035   0.00000   0.00000
  23       11D 0        0.00003   0.00020   0.00000   0.00000   0.00001
  24       11D+1        0.00000   0.00000   0.00001   0.00010   0.00000
  25       11D-1        0.00075  -0.00003   0.00000   0.00000   0.00114
  26       11D+2        0.00003   0.00045   0.00000   0.00000   0.00001
  27       11D-2        0.00000   0.00000  -0.00026  -0.00001   0.00000
  28       12D 0       -0.00016  -0.00572   0.00000   0.00000   0.00001
  29       12D+1        0.00000   0.00000   0.00002  -0.00272   0.00000
  30       12D-1        0.00369  -0.00008   0.00000   0.00000  -0.00332
  31       12D+2       -0.00009  -0.00311   0.00000   0.00000   0.00001
  32       12D-2        0.00000   0.00000   0.00229   0.00000   0.00000
  33       13F 0        0.00000   0.00013   0.00000   0.00000   0.00000
  34       13F+1        0.00000   0.00000   0.00000   0.00004   0.00000
  35       13F-1       -0.00039   0.00001   0.00000   0.00000  -0.00029
  36       13F+2        0.00000  -0.00003   0.00000   0.00000   0.00000
  37       13F-2        0.00000   0.00000  -0.00015   0.00000   0.00000
  38       13F+3        0.00000   0.00000   0.00000  -0.00009   0.00000
  39       13F-3       -0.00009   0.00000   0.00000   0.00000   0.00009
  40       14F 0       -0.00001  -0.00099   0.00000   0.00000   0.00000
  41       14F+1        0.00000   0.00000   0.00000   0.00005   0.00000
  42       14F-1        0.00489  -0.00014   0.00000   0.00000   0.00169
  43       14F+2        0.00001  -0.00010   0.00000   0.00000  -0.00001
  44       14F-2        0.00000   0.00000   0.00117   0.00000   0.00000
  45       14F+3        0.00000   0.00000   0.00000   0.00057   0.00000
  46       14F-3        0.00114  -0.00003   0.00000   0.00000  -0.00011
  47 2   Cl 1S         -0.00219  -0.00127   0.00000   0.00000   0.02507
  48        2S          0.00780   0.00478   0.00000   0.00000  -0.08518
  49        3S          0.00037   0.00043   0.00000   0.00000   0.00235
  50        4S          0.00053   0.00019   0.00000   0.00000  -0.00632
  51        5S         -0.00118  -0.00191   0.00000   0.00000   0.00399
  52        6S         -0.00132  -0.00199   0.00000   0.00000   0.00413
  53        7PX         0.00000   0.00000   0.69391  -0.68575   0.00000
  54        7PY        -0.40153   0.36963   0.00000   0.00000   0.13812
  55        7PZ         0.53509  -0.60908   0.00000   0.00000   0.03415
  56        8PX         0.00000   0.00000  -0.01497   0.01331   0.00000
  57        8PY         0.01031  -0.00799   0.00000   0.00000  -0.00290
  58        8PZ        -0.01317   0.01415   0.00000   0.00000  -0.00150
  59        9PX         0.00000   0.00000   0.03679  -0.03683   0.00000
  60        9PY        -0.02091   0.01933   0.00000   0.00000   0.00763
  61        9PZ         0.02797  -0.03191   0.00000   0.00000   0.00195
  62       10PX         0.00000   0.00000  -0.00320   0.00276   0.00000
  63       10PY         0.00305  -0.00143   0.00000   0.00000   0.00066
  64       10PZ        -0.00446   0.00134   0.00000   0.00000   0.00018
  65       11PX         0.00000   0.00000  -0.00056   0.00078   0.00000
  66       11PY         0.00035  -0.00042   0.00000   0.00000   0.00030
  67       11PZ        -0.00071   0.00051   0.00000   0.00000   0.00021
  68       12D 0        0.00044  -0.00029   0.00000   0.00000   0.00008
  69       12D+1        0.00000   0.00000   0.00018  -0.00018   0.00000
  70       12D-1        0.00023  -0.00015   0.00000   0.00000   0.00011
  71       12D+2        0.00026  -0.00016   0.00000   0.00000  -0.00007
  72       12D-2        0.00000   0.00000   0.00032  -0.00020   0.00000
  73       13D 0       -0.00198   0.00108   0.00000   0.00000   0.00007
  74       13D+1        0.00000   0.00000  -0.00075   0.00057   0.00000
  75       13D-1       -0.00072   0.00094   0.00000   0.00000  -0.00048
  76       13D+2       -0.00095   0.00074   0.00000   0.00000   0.00015
  77       13D-2        0.00000   0.00000  -0.00107   0.00099   0.00000
  78       14D 0        0.00006  -0.00091   0.00000   0.00000   0.00002
  79       14D+1        0.00000   0.00000   0.00061   0.00006   0.00000
  80       14D-1        0.00004  -0.00031   0.00000   0.00000   0.00010
  81       14D+2       -0.00001  -0.00058   0.00000   0.00000   0.00015
  82       14D-2        0.00000   0.00000   0.00045  -0.00047   0.00000
  83       15F 0       -0.00001   0.00000   0.00000   0.00000   0.00004
  84       15F+1        0.00000   0.00000  -0.00007  -0.00005   0.00000
  85       15F-1        0.00001   0.00002   0.00000   0.00000   0.00002
  86       15F+2        0.00002   0.00002   0.00000   0.00000  -0.00003
  87       15F-2        0.00000   0.00000   0.00000  -0.00003   0.00000
  88       15F+3        0.00000   0.00000  -0.00001  -0.00003   0.00000
  89       15F-3        0.00004   0.00004   0.00000   0.00000  -0.00005
  90       16F 0       -0.00039  -0.00009   0.00000   0.00000   0.00018
  91       16F+1        0.00000   0.00000   0.00013   0.00018   0.00000
  92       16F-1       -0.00090   0.00049   0.00000   0.00000  -0.00017
  93       16F+2       -0.00010  -0.00028   0.00000   0.00000   0.00029
  94       16F-2        0.00000   0.00000  -0.00033   0.00032   0.00000
  95       16F+3        0.00000   0.00000   0.00030  -0.00022   0.00000
  96       16F-3       -0.00026   0.00020   0.00000   0.00000   0.00021
  97 3   Cl 1S          0.00211  -0.00148   0.00000   0.00000  -0.02474
  98        2S         -0.00751   0.00549   0.00000   0.00000   0.08407
  99        3S         -0.00034   0.00044   0.00000   0.00000  -0.00232
 100        4S         -0.00052   0.00024   0.00000   0.00000   0.00623
 101        5S          0.00110  -0.00198   0.00000   0.00000  -0.00394
 102        6S          0.00121  -0.00207   0.00000   0.00000  -0.00409
 103        7PX         0.00000   0.00000  -0.69101  -0.68861   0.00000
 104        7PY        -0.41966  -0.34004   0.00000   0.00000   0.13947
 105        7PZ        -0.57423  -0.57745   0.00000   0.00000  -0.03081
 106        8PX         0.00000   0.00000   0.01492   0.01337   0.00000
 107        8PY         0.01070   0.00726   0.00000   0.00000  -0.00293
 108        8PZ         0.01413   0.01338   0.00000   0.00000   0.00144
 109        9PX         0.00000   0.00000  -0.03665  -0.03699   0.00000
 110        9PY        -0.02186  -0.01779   0.00000   0.00000   0.00771
 111        9PZ        -0.03002  -0.03026   0.00000   0.00000  -0.00177
 112       10PX         0.00000   0.00000   0.00318   0.00277   0.00000
 113       10PY         0.00310   0.00121   0.00000   0.00000   0.00064
 114       10PZ         0.00458   0.00107   0.00000   0.00000  -0.00013
 115       11PX         0.00000   0.00000   0.00055   0.00078   0.00000
 116       11PY         0.00037   0.00039   0.00000   0.00000   0.00029
 117       11PZ         0.00074   0.00047   0.00000   0.00000  -0.00021
 118       12D 0       -0.00046  -0.00026   0.00000   0.00000  -0.00008
 119       12D+1        0.00000   0.00000  -0.00018  -0.00018   0.00000
 120       12D-1        0.00024   0.00014   0.00000   0.00000   0.00011
 121       12D+2       -0.00027  -0.00014   0.00000   0.00000   0.00007
 122       12D-2        0.00000   0.00000   0.00032   0.00020   0.00000
 123       13D 0        0.00205   0.00096   0.00000   0.00000  -0.00008
 124       13D+1        0.00000   0.00000   0.00074   0.00057   0.00000
 125       13D-1       -0.00081  -0.00091   0.00000   0.00000  -0.00048
 126       13D+2        0.00100   0.00067   0.00000   0.00000  -0.00016
 127       13D-2        0.00000   0.00000  -0.00108  -0.00100   0.00000
 128       14D 0       -0.00011  -0.00090   0.00000   0.00000  -0.00001
 129       14D+1        0.00000   0.00000  -0.00060   0.00006   0.00000
 130       14D-1        0.00005   0.00032   0.00000   0.00000   0.00008
 131       14D+2       -0.00002  -0.00058   0.00000   0.00000  -0.00016
 132       14D-2        0.00000   0.00000   0.00045   0.00048   0.00000
 133       15F 0        0.00001   0.00000   0.00000   0.00000  -0.00004
 134       15F+1        0.00000   0.00000   0.00007  -0.00005   0.00000
 135       15F-1        0.00001  -0.00002   0.00000   0.00000   0.00003
 136       15F+2       -0.00002   0.00002   0.00000   0.00000   0.00003
 137       15F-2        0.00000   0.00000  -0.00001   0.00003   0.00000
 138       15F+3        0.00000   0.00000   0.00001  -0.00003   0.00000
 139       15F-3        0.00003  -0.00004   0.00000   0.00000  -0.00005
 140       16F 0        0.00037  -0.00012   0.00000   0.00000  -0.00019
 141       16F+1        0.00000   0.00000  -0.00013   0.00018   0.00000
 142       16F-1       -0.00094  -0.00044   0.00000   0.00000  -0.00017
 143       16F+2        0.00007  -0.00029   0.00000   0.00000  -0.00030
 144       16F-2        0.00000   0.00000  -0.00033  -0.00033   0.00000
 145       16F+3        0.00000   0.00000  -0.00030  -0.00022   0.00000
 146       16F-3       -0.00028  -0.00018   0.00000   0.00000   0.00021
 147 4   S  1S         -0.00001   0.00092   0.00000   0.00000   0.00085
 148        2S          0.00001  -0.00317   0.00000   0.00000  -0.00289
 149        3S         -0.00001   0.00040   0.00000   0.00000   0.00010
 150        4S          0.00000  -0.00005   0.00000   0.00000  -0.00019
 151        5S          0.00021   0.00754   0.00000   0.00000  -0.00007
 152        6S          0.00011   0.00347   0.00000   0.00000  -0.00002
 153        7PX         0.00000   0.00000   0.00006   0.11519   0.00000
 154        7PY         0.08323  -0.00104   0.00000   0.00000   0.94824
 155        7PZ        -0.00204  -0.05707   0.00000   0.00000  -0.00552
 156        8PX         0.00000   0.00000  -0.00001  -0.00354   0.00000
 157        8PY        -0.00481   0.00011   0.00000   0.00000  -0.01855
 158        8PZ         0.00005   0.00095   0.00000   0.00000   0.00011
 159        9PX         0.00000   0.00000   0.00000   0.00665   0.00000
 160        9PY         0.00490  -0.00007   0.00000   0.00000   0.05480
 161        9PZ        -0.00011  -0.00328   0.00000   0.00000  -0.00033
 162       10PX         0.00000   0.00000  -0.00002   0.00146   0.00000
 163       10PY        -0.00576   0.00014   0.00000   0.00000  -0.00507
 164       10PZ        -0.00004  -0.00132   0.00000   0.00000   0.00007
 165       11PX         0.00000   0.00000   0.00000   0.00024   0.00000
 166       11PY        -0.00031   0.00000   0.00000   0.00000  -0.00114
 167       11PZ         0.00000  -0.00001   0.00000   0.00000   0.00000
 168       12D 0       -0.00002  -0.00039   0.00000   0.00000  -0.00002
 169       12D+1        0.00000   0.00000   0.00000  -0.00001   0.00000
 170       12D-1        0.00239  -0.00007   0.00000   0.00000   0.00270
 171       12D+2       -0.00001  -0.00008   0.00000   0.00000   0.00000
 172       12D-2        0.00000   0.00000  -0.00033   0.00000   0.00000
 173       13D 0        0.00000   0.00000   0.00000   0.00000   0.00000
 174       13D+1        0.00000   0.00000   0.00000  -0.00006   0.00000
 175       13D-1       -0.00005   0.00000   0.00000   0.00000  -0.00033
 176       13D+2        0.00000  -0.00009   0.00000   0.00000   0.00000
 177       13D-2        0.00000   0.00000   0.00010   0.00000   0.00000
 178       14D 0        0.00000  -0.00004   0.00000   0.00000  -0.00001
 179       14D+1        0.00000   0.00000   0.00000  -0.00141   0.00000
 180       14D-1        0.00148  -0.00004   0.00000   0.00000  -0.00029
 181       14D+2        0.00001   0.00038   0.00000   0.00000   0.00000
 182       14D-2        0.00000   0.00000  -0.00061   0.00000   0.00000
 183       15F 0        0.00000   0.00008   0.00000   0.00000   0.00000
 184       15F+1        0.00000   0.00000   0.00000  -0.00008   0.00000
 185       15F-1       -0.00022   0.00001   0.00000   0.00000  -0.00019
 186       15F+2        0.00001   0.00012   0.00000   0.00000   0.00000
 187       15F-2        0.00000   0.00000  -0.00006   0.00000   0.00000
 188       15F+3        0.00000   0.00000   0.00000   0.00001   0.00000
 189       15F-3       -0.00003   0.00000   0.00000   0.00000   0.00009
 190       16F 0        0.00001   0.00020   0.00000   0.00000   0.00000
 191       16F+1        0.00000   0.00000   0.00000   0.00024   0.00000
 192       16F-1       -0.00070   0.00002   0.00000   0.00000  -0.00089
 193       16F+2        0.00000  -0.00006   0.00000   0.00000   0.00000
 194       16F-2        0.00000   0.00000   0.00052   0.00000   0.00000
 195       16F+3        0.00000   0.00000   0.00000  -0.00017   0.00000
 196       16F-3       -0.00017   0.00000   0.00000   0.00000  -0.00018
                           6         7         8         9        10
     Eigenvalues --     2.00003   2.00003   2.00002   2.00001   2.00001
   1 1   C  1S         -0.16137  -0.01869  -0.15461   0.60594   0.04377
   2        2S          0.00332   0.00038   0.00299  -0.01067  -0.00082
   3        3S         -0.00593  -0.00069  -0.00606   0.02405   0.00153
   4        4S         -0.00862  -0.00097  -0.00735   0.00618   0.00237
   5        5S         -0.00143  -0.00015   0.00013   0.00360   0.00102
   6        6PX         0.00000   0.00000   0.00000   0.00000   0.00000
   7        6PY         0.00012  -0.00088  -0.00001  -0.00003  -0.00263
   8        6PZ        -0.00010  -0.00002   0.00114  -0.00214   0.00049
   9        7PX         0.00000   0.00000   0.00000   0.00000   0.00000
  10        7PY         0.00002  -0.00029  -0.00001   0.00000   0.00023
  11        7PZ        -0.00081  -0.00010  -0.00061   0.00102   0.00034
  12        8PX         0.00000   0.00000   0.00000   0.00000   0.00000
  13        8PY        -0.00040   0.00286   0.00004   0.00005   0.00183
  14        8PZ         0.00136   0.00021  -0.00722   0.00486  -0.00073
  15        9PX         0.00000   0.00000   0.00000   0.00000   0.00000
  16        9PY         0.00007  -0.00061   0.00000  -0.00001  -0.00066
  17        9PZ        -0.00056  -0.00007   0.00016   0.00099   0.00005
  18       10D 0       -0.00003   0.00000  -0.00010   0.00009   0.00001
  19       10D+1        0.00000   0.00000   0.00000   0.00000   0.00000
  20       10D-1        0.00001  -0.00011   0.00000   0.00000   0.00000
  21       10D+2        0.00006   0.00001   0.00002  -0.00015   0.00000
  22       10D-2        0.00000   0.00000   0.00000   0.00000   0.00000
  23       11D 0       -0.00047  -0.00006  -0.00091   0.00035   0.00014
  24       11D+1        0.00000   0.00000   0.00000   0.00000   0.00000
  25       11D-1        0.00016  -0.00117   0.00000  -0.00003  -0.00251
  26       11D+2        0.00080   0.00010  -0.00031   0.00075  -0.00028
  27       11D-2        0.00000   0.00000   0.00000   0.00000   0.00000
  28       12D 0        0.00049   0.00005  -0.00176   0.00229  -0.00045
  29       12D+1        0.00000   0.00000   0.00000   0.00000   0.00000
  30       12D-1        0.00055  -0.00440  -0.00005  -0.00002  -0.00470
  31       12D+2        0.00133   0.00015  -0.00076   0.00027  -0.00060
  32       12D-2        0.00000   0.00000   0.00000   0.00000   0.00000
  33       13F 0       -0.00013  -0.00002   0.00000  -0.00005   0.00006
  34       13F+1        0.00000   0.00000   0.00000   0.00000   0.00000
  35       13F-1        0.00000  -0.00003   0.00000   0.00000   0.00001
  36       13F+2       -0.00004   0.00000  -0.00006   0.00001  -0.00002
  37       13F-2        0.00000   0.00000   0.00000   0.00000   0.00000
  38       13F+3        0.00000   0.00000   0.00000   0.00000   0.00000
  39       13F-3        0.00000   0.00003   0.00000   0.00000   0.00008
  40       14F 0        0.00014   0.00001   0.00044  -0.00151   0.00007
  41       14F+1        0.00000   0.00000   0.00000   0.00000   0.00000
  42       14F-1        0.00000   0.00001   0.00002  -0.00003  -0.00135
  43       14F+2       -0.00017  -0.00003   0.00056  -0.00104   0.00013
  44       14F-2        0.00000   0.00000   0.00000   0.00000   0.00000
  45       14F+3        0.00000   0.00000   0.00000   0.00000   0.00000
  46       14F-3        0.00005  -0.00035   0.00000  -0.00002  -0.00082
  47 2   Cl 1S         -0.15308  -0.19705   0.01702  -0.04103   0.08259
  48        2S          0.51639   0.66496  -0.05773   0.14053  -0.28046
  49        3S         -0.01533  -0.01953   0.00151  -0.00178   0.00454
  50        4S          0.04015   0.05169  -0.00442   0.01113  -0.02344
  51        5S         -0.00155  -0.00015  -0.00137   0.00046   0.00615
  52        6S         -0.00046  -0.00082  -0.00006  -0.00013  -0.00181
  53        7PX         0.00000   0.00000   0.00000   0.00000   0.00000
  54        7PY        -0.25478  -0.29236   0.05959   0.09069  -0.36966
  55        7PZ        -0.14373  -0.23457   0.00334   0.07578  -0.29467
  56        8PX         0.00000   0.00000   0.00000   0.00000   0.00000
  57        8PY         0.00459   0.00547  -0.00153  -0.00063   0.00630
  58        8PZ         0.00251   0.00443  -0.00043  -0.00041   0.00533
  59        9PX         0.00000   0.00000   0.00000   0.00000   0.00000
  60        9PY        -0.01452  -0.01667   0.00337   0.00545  -0.02266
  61        9PZ        -0.00821  -0.01335   0.00020   0.00455  -0.01819
  62       10PX         0.00000   0.00000   0.00000   0.00000   0.00000
  63       10PY         0.00156   0.00202  -0.00057  -0.00006   0.00022
  64       10PZ         0.00133   0.00104  -0.00053   0.00094   0.00005
  65       11PX         0.00000   0.00000   0.00000   0.00000   0.00000
  66       11PY        -0.00006   0.00012  -0.00002  -0.00004  -0.00009
  67       11PZ         0.00010  -0.00007  -0.00013  -0.00010  -0.00024
  68       12D 0       -0.00004  -0.00002   0.00002  -0.00001   0.00000
  69       12D+1        0.00000   0.00000   0.00000   0.00000   0.00000
  70       12D-1        0.00016   0.00020   0.00002   0.00007  -0.00033
  71       12D+2       -0.00007  -0.00009   0.00002  -0.00012   0.00026
  72       12D-2        0.00000   0.00000   0.00000   0.00000   0.00000
  73       13D 0       -0.00010   0.00022   0.00015  -0.00011   0.00063
  74       13D+1        0.00000   0.00000   0.00000   0.00000   0.00000
  75       13D-1        0.00032   0.00048  -0.00012   0.00015   0.00184
  76       13D+2       -0.00042  -0.00036   0.00014   0.00020  -0.00085
  77       13D-2        0.00000   0.00000   0.00000   0.00000   0.00000
  78       14D 0        0.00003  -0.00023   0.00018  -0.00001  -0.00004
  79       14D+1        0.00000   0.00000   0.00000   0.00000   0.00000
  80       14D-1        0.00026   0.00022   0.00003   0.00025  -0.00013
  81       14D+2       -0.00023   0.00018  -0.00004   0.00011   0.00074
  82       14D-2        0.00000   0.00000   0.00000   0.00000   0.00000
  83       15F 0        0.00000   0.00004   0.00001   0.00000   0.00004
  84       15F+1        0.00000   0.00000   0.00000   0.00000   0.00000
  85       15F-1        0.00000   0.00003   0.00000   0.00000   0.00009
  86       15F+2       -0.00001  -0.00001   0.00000  -0.00001  -0.00003
  87       15F-2        0.00000   0.00000   0.00000   0.00000   0.00000
  88       15F+3        0.00000   0.00000   0.00000   0.00000   0.00000
  89       15F-3       -0.00002  -0.00003   0.00002   0.00000  -0.00001
  90       16F 0       -0.00005  -0.00012   0.00010  -0.00026  -0.00023
  91       16F+1        0.00000   0.00000   0.00000   0.00000   0.00000
  92       16F-1        0.00000   0.00008   0.00003   0.00002   0.00042
  93       16F+2       -0.00011  -0.00014   0.00006  -0.00007  -0.00044
  94       16F-2        0.00000   0.00000   0.00000   0.00000   0.00000
  95       16F+3        0.00000   0.00000   0.00000   0.00000   0.00000
  96       16F-3       -0.00010   0.00000  -0.00004   0.00015  -0.00007
  97 3   Cl 1S         -0.19664   0.15219   0.01885  -0.04405  -0.12197
  98        2S          0.66339  -0.51363  -0.06388   0.15080   0.41460
  99        3S         -0.01969   0.01509   0.00169  -0.00195  -0.00668
 100        4S          0.05157  -0.03992  -0.00490   0.01199   0.03457
 101        5S         -0.00146  -0.00028  -0.00142   0.00029  -0.00936
 102        6S         -0.00064   0.00066  -0.00009  -0.00008   0.00153
 103        7PX         0.00000   0.00000   0.00000   0.00000   0.00000
 104        7PY         0.32376  -0.22242  -0.06112  -0.10215  -0.54935
 105        7PZ        -0.19751   0.19123   0.00496   0.08344   0.39033
 106        8PX         0.00000   0.00000   0.00000   0.00000   0.00000
 107        8PY        -0.00590   0.00421   0.00156   0.00082   0.00940
 108        8PZ         0.00356  -0.00367  -0.00044  -0.00058  -0.00708
 109        9PX         0.00000   0.00000   0.00000   0.00000   0.00000
 110        9PY         0.01845  -0.01269  -0.00346  -0.00615  -0.03372
 111        9PZ        -0.01127   0.01087   0.00029   0.00503   0.02408
 112       10PX         0.00000   0.00000   0.00000   0.00000   0.00000
 113       10PY        -0.00206   0.00158   0.00061   0.00006   0.00062
 114       10PZ         0.00156  -0.00068  -0.00052   0.00089  -0.00078
 115       11PX         0.00000   0.00000   0.00000   0.00000   0.00000
 116       11PY         0.00003   0.00013   0.00003   0.00003  -0.00011
 117       11PZ         0.00008   0.00010  -0.00013  -0.00009   0.00022
 118       12D 0       -0.00005   0.00001   0.00002  -0.00001   0.00000
 119       12D+1        0.00000   0.00000   0.00000   0.00000   0.00000
 120       12D-1       -0.00020   0.00015  -0.00002  -0.00008  -0.00047
 121       12D+2       -0.00009   0.00006   0.00003  -0.00013  -0.00036
 122       12D-2        0.00000   0.00000   0.00000   0.00000   0.00000
 123       13D 0       -0.00004  -0.00023   0.00015  -0.00014  -0.00047
 124       13D+1        0.00000   0.00000   0.00000   0.00000   0.00000
 125       13D-1       -0.00044   0.00040   0.00011  -0.00008   0.00246
 126       13D+2       -0.00051   0.00026   0.00015   0.00023   0.00146
 127       13D-2        0.00000   0.00000   0.00000   0.00000   0.00000
 128       14D 0       -0.00003   0.00023   0.00019  -0.00003   0.00004
 129       14D+1        0.00000   0.00000   0.00000   0.00000   0.00000
 130       14D-1       -0.00031   0.00015  -0.00003  -0.00025  -0.00018
 131       14D+2       -0.00018  -0.00023  -0.00004   0.00009  -0.00085
 132       14D-2        0.00000   0.00000   0.00000   0.00000   0.00000
 133       15F 0        0.00001  -0.00004   0.00001   0.00000  -0.00004
 134       15F+1        0.00000   0.00000   0.00000   0.00000   0.00000
 135       15F-1        0.00000   0.00003   0.00000   0.00000   0.00008
 136       15F+2       -0.00001   0.00001   0.00000   0.00000   0.00005
 137       15F-2        0.00000   0.00000   0.00000   0.00000   0.00000
 138       15F+3        0.00000   0.00000   0.00000   0.00000   0.00000
 139       15F-3        0.00003  -0.00003  -0.00002   0.00000  -0.00005
 140       16F 0       -0.00008   0.00010   0.00010  -0.00026   0.00035
 141       16F+1        0.00000   0.00000   0.00000   0.00000   0.00000
 142       16F-1       -0.00002   0.00007  -0.00003   0.00000   0.00041
 143       16F+2       -0.00015   0.00011   0.00006  -0.00006   0.00058
 144       16F-2        0.00000   0.00000   0.00000   0.00000   0.00000
 145       16F+3        0.00000   0.00000   0.00000   0.00000   0.00000
 146       16F-3        0.00010   0.00002   0.00004  -0.00015  -0.00015
 147 4   S  1S         -0.02028  -0.00139  -0.21785  -0.15779   0.02097
 148        2S          0.06912   0.00472   0.74460   0.54495  -0.07235
 149        3S         -0.00203  -0.00013  -0.02071  -0.00821   0.00117
 150        4S          0.00448   0.00030   0.04991   0.03917  -0.00519
 151        5S          0.00158   0.00016   0.00651  -0.01188   0.00038
 152        6S          0.00203   0.00024  -0.00077  -0.00355  -0.00102
 153        7PX         0.00000   0.00000   0.00000   0.00000   0.00000
 154        7PY        -0.02313   0.19206   0.00674  -0.00067   0.09732
 155        7PZ         0.05273   0.00249   0.61522  -0.47740   0.09028
 156        8PX         0.00000   0.00000   0.00000   0.00000   0.00000
 157        8PY         0.00037  -0.00309  -0.00012   0.00003   0.00028
 158        8PZ        -0.00156  -0.00012  -0.01162   0.00828  -0.00109
 159        9PX         0.00000   0.00000   0.00000   0.00000   0.00000
 160        9PY        -0.00135   0.01124   0.00040  -0.00004   0.00589
 161        9PZ         0.00340   0.00017   0.03785  -0.03124   0.00580
 162       10PX         0.00000   0.00000   0.00000   0.00000   0.00000
 163       10PY        -0.00022   0.00181  -0.00001   0.00002   0.00356
 164       10PZ        -0.00225  -0.00023  -0.00663   0.00508   0.00055
 165       11PX         0.00000   0.00000   0.00000   0.00000   0.00000
 166       11PY        -0.00002   0.00020   0.00000   0.00000   0.00026
 167       11PZ        -0.00021  -0.00002   0.00012   0.00022   0.00017
 168       12D 0        0.00083   0.00009   0.00211  -0.00265   0.00011
 169       12D+1        0.00000   0.00000   0.00000   0.00000   0.00000
 170       12D-1       -0.00002   0.00019   0.00002  -0.00002  -0.00081
 171       12D+2       -0.00005   0.00000  -0.00044   0.00019   0.00003
 172       12D-2        0.00000   0.00000   0.00000   0.00000   0.00000
 173       13D 0        0.00007   0.00001   0.00014   0.00022  -0.00007
 174       13D+1        0.00000   0.00000   0.00000   0.00000   0.00000
 175       13D-1        0.00000   0.00002   0.00000   0.00000   0.00006
 176       13D+2        0.00004   0.00000   0.00030   0.00016  -0.00003
 177       13D-2        0.00000   0.00000   0.00000   0.00000   0.00000
 178       14D 0        0.00054   0.00006   0.00103  -0.00067  -0.00019
 179       14D+1        0.00000   0.00000   0.00000   0.00000   0.00000
 180       14D-1        0.00009  -0.00074  -0.00001   0.00000  -0.00093
 181       14D+2       -0.00031  -0.00004   0.00039   0.00000   0.00015
 182       14D-2        0.00000   0.00000   0.00000   0.00000   0.00000
 183       15F 0       -0.00014  -0.00002  -0.00016   0.00025   0.00004
 184       15F+1        0.00000   0.00000   0.00000   0.00000   0.00000
 185       15F-1        0.00000   0.00000   0.00000   0.00000   0.00006
 186       15F+2       -0.00001   0.00000   0.00012  -0.00016   0.00002
 187       15F-2        0.00000   0.00000   0.00000   0.00000   0.00000
 188       15F+3        0.00000   0.00000   0.00000   0.00000   0.00000
 189       15F-3        0.00000   0.00003   0.00000   0.00000   0.00005
 190       16F 0       -0.00014  -0.00002  -0.00046   0.00048  -0.00006
 191       16F+1        0.00000   0.00000   0.00000   0.00000   0.00000
 192       16F-1        0.00000  -0.00004  -0.00001   0.00001   0.00031
 193       16F+2        0.00012   0.00001  -0.00008  -0.00011  -0.00007
 194       16F-2        0.00000   0.00000   0.00000   0.00000   0.00000
 195       16F+3        0.00000   0.00000   0.00000   0.00000   0.00000
 196       16F-3        0.00000   0.00000   0.00000   0.00000   0.00004
                          11        12        13        14        15
     Eigenvalues --     2.00001   2.00001   2.00000   2.00000   2.00000
   1 1   C  1S          0.23546   0.00000   0.69821   0.00180   0.00171
   2        2S         -0.00439   0.00000  -0.00700  -0.00003  -0.00006
   3        3S          0.00837   0.00000   0.03002   0.00011   0.00008
   4        4S          0.01142   0.00000  -0.02256  -0.00042  -0.00015
   5        5S          0.00486   0.00000  -0.00551  -0.00020  -0.00015
   6        6PX         0.00000  -0.00182   0.00000   0.00000   0.00000
   7        6PY         0.00057   0.00000   0.00000   0.00000   0.00000
   8        6PZ         0.00208   0.00000  -0.00126  -0.00001   0.00000
   9        7PX         0.00000  -0.00140   0.00000   0.00000   0.00000
  10        7PY        -0.00005   0.00000  -0.00001   0.00000   0.00000
  11        7PZ         0.00166   0.00000   0.00250   0.00000  -0.00008
  12        8PX         0.00000   0.00072   0.00000   0.00000   0.00000
  13        8PY        -0.00035   0.00000  -0.00002   0.00000   0.00000
  14        8PZ        -0.00303   0.00000   0.00247  -0.00006  -0.00001
  15        9PX         0.00000  -0.00103   0.00000   0.00000   0.00000
  16        9PY         0.00015   0.00000   0.00000   0.00000   0.00000
  17        9PZ         0.00030   0.00000   0.00052  -0.00003  -0.00005
  18       10D 0        0.00007   0.00000   0.00030   0.00000   0.00000
  19       10D+1        0.00000  -0.00019   0.00000   0.00000   0.00000
  20       10D-1        0.00000   0.00000   0.00000   0.00000   0.00000
  21       10D+2       -0.00003   0.00000  -0.00021   0.00000   0.00000
  22       10D-2        0.00000   0.00000   0.00000   0.00000   0.00000
  23       11D 0        0.00075   0.00000  -0.00033  -0.00004  -0.00005
  24       11D+1        0.00000   0.00118   0.00000   0.00000   0.00000
  25       11D-1        0.00058   0.00000  -0.00002   0.00000   0.00000
  26       11D+2       -0.00123   0.00000   0.00311   0.00006  -0.00001
  27       11D-2        0.00000   0.00000   0.00000   0.00000   0.00000
  28       12D 0       -0.00172   0.00000  -0.00127  -0.00006  -0.00007
  29       12D+1        0.00000  -0.00102   0.00000   0.00000   0.00000
  30       12D-1        0.00108   0.00000  -0.00003   0.00000   0.00000
  31       12D+2       -0.00265   0.00000   0.00169   0.00003  -0.00001
  32       12D-2        0.00000   0.00001   0.00000   0.00000   0.00000
  33       13F 0        0.00026   0.00000   0.00027   0.00000   0.00000
  34       13F+1        0.00000  -0.00018   0.00000   0.00000   0.00000
  35       13F-1       -0.00001   0.00000   0.00000   0.00000   0.00000
  36       13F+2       -0.00007   0.00000  -0.00005  -0.00001   0.00000
  37       13F-2        0.00000   0.00000   0.00000   0.00000   0.00000
  38       13F+3        0.00000   0.00007   0.00000   0.00000   0.00000
  39       13F-3       -0.00001   0.00000   0.00000   0.00000   0.00000
  40       14F 0        0.00029   0.00000  -0.00113  -0.00003   0.00001
  41       14F+1        0.00000   0.00119   0.00000   0.00000   0.00000
  42       14F-1        0.00033   0.00000   0.00002   0.00000   0.00000
  43       14F+2        0.00060   0.00000  -0.00139  -0.00003   0.00001
  44       14F-2        0.00000   0.00000   0.00000   0.00000   0.00000
  45       14F+3        0.00000  -0.00014   0.00000   0.00000   0.00000
  46       14F-3        0.00019   0.00000   0.00000   0.00000   0.00000
  47 2   Cl 1S         -0.11135   0.00000   0.02987   0.67697  -0.27214
  48        2S          0.37903   0.00000  -0.10683   0.00642  -0.00300
  49        3S         -0.00595   0.00000   0.00055   0.00010  -0.00006
  50        4S          0.03148   0.00000  -0.00965   0.00012  -0.00008
  51        5S         -0.00890   0.00000   0.00903   0.00007   0.00006
  52        6S         -0.00026   0.00000   0.00342   0.00005   0.00006
  53        7PX         0.00000   0.08087   0.00000   0.00000   0.00000
  54        7PY         0.50977   0.00000  -0.27825  -0.00162  -0.00039
  55        7PZ         0.30688   0.00000  -0.18963  -0.00104  -0.00039
  56        8PX         0.00000  -0.00044   0.00000   0.00000   0.00000
  57        8PY        -0.00866   0.00000   0.00477   0.00008  -0.00002
  58        8PZ        -0.00550   0.00000   0.00347   0.00006  -0.00002
  59        9PX         0.00000   0.00473   0.00000   0.00000   0.00000
  60        9PY         0.03135   0.00000  -0.01799  -0.00013  -0.00001
  61        9PZ         0.01892   0.00000  -0.01231  -0.00009  -0.00002
  62       10PX         0.00000  -0.00069   0.00000   0.00000   0.00000
  63       10PY        -0.00104   0.00000   0.00356   0.00002   0.00006
  64       10PZ        -0.00167   0.00000   0.00242   0.00000   0.00002
  65       11PX         0.00000   0.00034   0.00000   0.00000   0.00000
  66       11PY         0.00006   0.00000   0.00028   0.00000   0.00001
  67       11PZ         0.00001   0.00000   0.00011   0.00001   0.00002
  68       12D 0        0.00002   0.00000   0.00000   0.00000   0.00000
  69       12D+1        0.00000  -0.00006   0.00000   0.00000   0.00000
  70       12D-1        0.00042   0.00000  -0.00032   0.00000   0.00000
  71       12D+2       -0.00030   0.00000   0.00021   0.00000   0.00000
  72       12D-2        0.00000  -0.00004   0.00000   0.00000   0.00000
  73       13D 0        0.00017   0.00000   0.00007   0.00000   0.00000
  74       13D+1        0.00000  -0.00005   0.00000   0.00000   0.00000
  75       13D-1       -0.00189   0.00000   0.00195   0.00003  -0.00001
  76       13D+2        0.00160   0.00000  -0.00120  -0.00002   0.00000
  77       13D-2        0.00000  -0.00022   0.00000   0.00000   0.00000
  78       14D 0        0.00003   0.00000   0.00012   0.00000   0.00000
  79       14D+1        0.00000  -0.00023   0.00000   0.00000   0.00000
  80       14D-1        0.00019   0.00000   0.00067  -0.00001   0.00001
  81       14D+2       -0.00040   0.00000  -0.00057   0.00000  -0.00002
  82       14D-2        0.00000  -0.00054   0.00000   0.00000   0.00000
  83       15F 0        0.00000   0.00000   0.00002   0.00000   0.00000
  84       15F+1        0.00000   0.00000   0.00000   0.00000   0.00000
  85       15F-1        0.00000   0.00000  -0.00001   0.00000   0.00000
  86       15F+2        0.00004   0.00000  -0.00001   0.00000   0.00000
  87       15F-2        0.00000  -0.00001   0.00000   0.00000   0.00000
  88       15F+3        0.00000  -0.00003   0.00000   0.00000   0.00000
  89       15F-3        0.00011   0.00000  -0.00005   0.00000   0.00000
  90       16F 0        0.00030   0.00000  -0.00026   0.00000   0.00000
  91       16F+1        0.00000   0.00001   0.00000   0.00000   0.00000
  92       16F-1       -0.00010   0.00000   0.00033   0.00000   0.00000
  93       16F+2        0.00042   0.00000  -0.00046   0.00000   0.00000
  94       16F-2        0.00000   0.00000   0.00000   0.00000   0.00000
  95       16F+3        0.00000   0.00020   0.00000   0.00000   0.00000
  96       16F-3        0.00018   0.00000  -0.00018   0.00000   0.00000
  97 3   Cl 1S         -0.06670   0.00000   0.02999   0.63505  -0.24295
  98        2S          0.22734   0.00000  -0.10729   0.00599  -0.00270
  99        3S         -0.00354   0.00000   0.00058   0.00009  -0.00006
 100        4S          0.01881   0.00000  -0.00968   0.00011  -0.00007
 101        5S         -0.00550   0.00000   0.00902   0.00007   0.00005
 102        6S         -0.00102   0.00000   0.00341   0.00005   0.00006
 103        7PX         0.00000   0.08129   0.00000   0.00000   0.00000
 104        7PY        -0.30637   0.00000   0.27875   0.00160   0.00041
 105        7PZ         0.15115   0.00000  -0.18718  -0.00101  -0.00040
 106        8PX         0.00000  -0.00044   0.00000   0.00000   0.00000
 107        8PY         0.00522   0.00000  -0.00478  -0.00008   0.00002
 108        8PZ        -0.00268   0.00000   0.00344   0.00006  -0.00001
 109        9PX         0.00000   0.00475   0.00000   0.00000   0.00000
 110        9PY        -0.01888   0.00000   0.01802   0.00013   0.00002
 111        9PZ         0.00930   0.00000  -0.01215  -0.00009  -0.00002
 112       10PX         0.00000  -0.00069   0.00000   0.00000   0.00000
 113       10PY         0.00088   0.00000  -0.00354  -0.00003  -0.00006
 114       10PZ        -0.00148   0.00000   0.00242   0.00001   0.00002
 115       11PX         0.00000   0.00034   0.00000   0.00000   0.00000
 116       11PY        -0.00002   0.00000  -0.00027  -0.00001  -0.00001
 117       11PZ        -0.00009   0.00000   0.00010   0.00001   0.00002
 118       12D 0        0.00001   0.00000   0.00001   0.00000   0.00000
 119       12D+1        0.00000  -0.00006   0.00000   0.00000   0.00000
 120       12D-1       -0.00024   0.00000   0.00032   0.00000   0.00000
 121       12D+2       -0.00016   0.00000   0.00021   0.00000   0.00000
 122       12D-2        0.00000   0.00005   0.00000   0.00000   0.00000
 123       13D 0        0.00045   0.00000   0.00006   0.00000   0.00000
 124       13D+1        0.00000  -0.00005   0.00000   0.00000   0.00000
 125       13D-1        0.00092   0.00000  -0.00194  -0.00003   0.00000
 126       13D+2        0.00111   0.00000  -0.00120  -0.00002   0.00000
 127       13D-2        0.00000   0.00022   0.00000   0.00000   0.00000
 128       14D 0        0.00002   0.00000   0.00012   0.00000   0.00000
 129       14D+1        0.00000  -0.00023   0.00000   0.00000   0.00000
 130       14D-1       -0.00012   0.00000  -0.00067   0.00001  -0.00001
 131       14D+2       -0.00004   0.00000  -0.00057   0.00000  -0.00002
 132       14D-2        0.00000   0.00055   0.00000   0.00000   0.00000
 133       15F 0        0.00002   0.00000   0.00003   0.00000   0.00000
 134       15F+1        0.00000   0.00000   0.00000   0.00000   0.00000
 135       15F-1       -0.00005   0.00000   0.00001   0.00000   0.00000
 136       15F+2        0.00002   0.00000  -0.00001   0.00000   0.00000
 137       15F-2        0.00000   0.00001   0.00000   0.00000   0.00000
 138       15F+3        0.00000  -0.00003   0.00000   0.00000   0.00000
 139       15F-3       -0.00009   0.00000   0.00005   0.00000   0.00000
 140       16F 0        0.00017   0.00000  -0.00026   0.00000   0.00000
 141       16F+1        0.00000   0.00001   0.00000   0.00000   0.00000
 142       16F-1       -0.00010   0.00000  -0.00032   0.00000   0.00000
 143       16F+2        0.00019   0.00000  -0.00045   0.00000   0.00000
 144       16F-2        0.00000   0.00000   0.00000   0.00000   0.00000
 145       16F+3        0.00000   0.00020   0.00000   0.00000   0.00000
 146       16F-3       -0.00014   0.00000   0.00018   0.00000   0.00000
 147 4   S  1S          0.08615   0.00000   0.05010   0.36467   0.92731
 148        2S         -0.29716   0.00000  -0.18546   0.00432   0.01219
 149        3S          0.00475   0.00000   0.00155   0.00013   0.00030
 150        4S         -0.02133   0.00000  -0.01375  -0.00004  -0.00003
 151        5S          0.00077   0.00000   0.00631   0.00018   0.00000
 152        6S         -0.00486   0.00000   0.00115   0.00013   0.00007
 153        7PX         0.00000   0.96522   0.00000   0.00000   0.00000
 154        7PY        -0.02055   0.00000   0.00149   0.00001   0.00000
 155        7PZ         0.38056   0.00000   0.42553   0.00201   0.00229
 156        8PX         0.00000  -0.01126   0.00000   0.00000   0.00000
 157        8PY        -0.00010   0.00000  -0.00002   0.00000   0.00000
 158        8PZ        -0.00433   0.00000  -0.00462  -0.00011  -0.00016
 159        9PX         0.00000   0.06175   0.00000   0.00000   0.00000
 160        9PY        -0.00124   0.00000   0.00010   0.00000   0.00000
 161        9PZ         0.02443   0.00000   0.02825   0.00016   0.00022
 162       10PX         0.00000   0.00104   0.00000   0.00000   0.00000
 163       10PY        -0.00084   0.00000   0.00002   0.00000   0.00000
 164       10PZ         0.00290   0.00000  -0.00190  -0.00009   0.00004
 165       11PX         0.00000  -0.00028   0.00000   0.00000   0.00000
 166       11PY        -0.00006   0.00000   0.00000   0.00000   0.00000
 167       11PZ         0.00079   0.00000  -0.00015  -0.00001   0.00001
 168       12D 0        0.00029   0.00000   0.00114   0.00004   0.00005
 169       12D+1        0.00000   0.00217   0.00000   0.00000   0.00000
 170       12D-1        0.00021   0.00000   0.00001   0.00000   0.00000
 171       12D+2        0.00011   0.00000   0.00022   0.00000  -0.00001
 172       12D-2        0.00000   0.00000   0.00000   0.00000   0.00000
 173       13D 0       -0.00030   0.00000  -0.00062   0.00000   0.00001
 174       13D+1        0.00000  -0.00018   0.00000   0.00000   0.00000
 175       13D-1       -0.00001   0.00000   0.00000   0.00000   0.00000
 176       13D+2       -0.00011   0.00000  -0.00008   0.00000   0.00001
 177       13D-2        0.00000   0.00000   0.00000   0.00000   0.00000
 178       14D 0       -0.00094   0.00000   0.00039   0.00000  -0.00004
 179       14D+1        0.00000  -0.00048   0.00000   0.00000   0.00000
 180       14D-1        0.00022   0.00000  -0.00001   0.00000   0.00000
 181       14D+2        0.00067   0.00000  -0.00015   0.00000   0.00001
 182       14D-2        0.00000   0.00000   0.00000   0.00000   0.00000
 183       15F 0        0.00019   0.00000   0.00039  -0.00001  -0.00002
 184       15F+1        0.00000  -0.00026   0.00000   0.00000   0.00000
 185       15F-1       -0.00002   0.00000   0.00000   0.00000   0.00000
 186       15F+2        0.00008   0.00000   0.00009   0.00000   0.00000
 187       15F-2        0.00000   0.00000   0.00000   0.00000   0.00000
 188       15F+3        0.00000   0.00013   0.00000   0.00000   0.00000
 189       15F-3       -0.00001   0.00000   0.00000   0.00000   0.00000
 190       16F 0       -0.00022   0.00000  -0.00037   0.00000   0.00000
 191       16F+1        0.00000  -0.00048   0.00000   0.00000   0.00000
 192       16F-1       -0.00008   0.00000   0.00000   0.00000   0.00000
 193       16F+2       -0.00032   0.00000  -0.00019   0.00000   0.00000
 194       16F-2        0.00000   0.00000   0.00000   0.00000   0.00000
 195       16F+3        0.00000  -0.00012   0.00000   0.00000   0.00000
 196       16F-3       -0.00001   0.00000   0.00000   0.00000   0.00000
                          16        17        18        19        20
     Eigenvalues --     2.00000   1.97694   1.97417   1.97000   1.95129
   1 1   C  1S         -0.00002  -0.08551   0.00039  -0.06969  -0.03882
   2        2S          0.00000   0.22022  -0.00103   0.18709   0.10802
   3        3S          0.00000   0.04806  -0.00020   0.04478   0.02600
   4        4S          0.00001   0.04419  -0.00057   0.06276   0.05324
   5        5S          0.00000   0.01143  -0.00020   0.01591   0.00160
   6        6PX         0.00000   0.00000   0.00000   0.00000   0.00000
   7        6PY        -0.00001   0.00088   0.06059  -0.00021   0.00039
   8        6PZ         0.00000  -0.01095   0.00007   0.10373  -0.05387
   9        7PX         0.00000   0.00000   0.00000   0.00000   0.00000
  10        7PY         0.00004   0.00118   0.08337  -0.00018   0.00056
  11        7PZ         0.00000  -0.02130   0.00022   0.12959  -0.07510
  12        8PX         0.00000   0.00000   0.00000   0.00000   0.00000
  13        8PY        -0.00005   0.00013   0.00403  -0.00005   0.00024
  14        8PZ         0.00000   0.00817  -0.00014   0.00442  -0.04700
  15        9PX         0.00000   0.00000   0.00000   0.00000   0.00000
  16        9PY        -0.00001   0.00009   0.00830  -0.00003  -0.00002
  17        9PZ         0.00000  -0.00378   0.00005   0.00843  -0.02169
  18       10D 0        0.00000   0.00437  -0.00007   0.00972   0.01023
  19       10D+1        0.00000   0.00000   0.00000   0.00000   0.00000
  20       10D-1        0.00000  -0.00012  -0.00847   0.00003  -0.00010
  21       10D+2        0.00000  -0.00703  -0.00001   0.00121   0.00375
  22       10D-2        0.00000   0.00000   0.00000   0.00000   0.00000
  23       11D 0        0.00000   0.00614  -0.00014   0.01116   0.03023
  24       11D+1        0.00000   0.00000   0.00000   0.00000   0.00000
  25       11D-1       -0.00006  -0.00021  -0.01776   0.00005  -0.00022
  26       11D+2        0.00000  -0.01094   0.00002   0.00307   0.01386
  27       11D-2        0.00000   0.00000   0.00000   0.00000   0.00000
  28       12D 0        0.00000   0.00394  -0.00002   0.00381  -0.04128
  29       12D+1        0.00000   0.00000   0.00000   0.00000   0.00000
  30       12D-1       -0.00002   0.00016   0.01204  -0.00006   0.00039
  31       12D+2        0.00000   0.00770   0.00000   0.00473  -0.02632
  32       12D-2        0.00000   0.00000   0.00000   0.00000   0.00000
  33       13F 0        0.00000   0.00397  -0.00001   0.00471  -0.00117
  34       13F+1        0.00000   0.00000   0.00000   0.00000   0.00000
  35       13F-1        0.00000   0.00000   0.00192  -0.00002   0.00004
  36       13F+2        0.00000   0.00458  -0.00002  -0.00022   0.00154
  37       13F-2        0.00000   0.00000   0.00000   0.00000   0.00000
  38       13F+3        0.00000   0.00000   0.00000   0.00000   0.00000
  39       13F-3        0.00000  -0.00005  -0.00240  -0.00001  -0.00001
  40       14F 0        0.00000   0.00132  -0.00002  -0.00095  -0.00314
  41       14F+1        0.00000   0.00000   0.00000   0.00000   0.00000
  42       14F-1       -0.00001   0.00000   0.00054   0.00009  -0.00014
  43       14F+2        0.00000   0.00182  -0.00003  -0.00010   0.00145
  44       14F-2        0.00000   0.00000   0.00000   0.00000   0.00000
  45       14F+3        0.00000   0.00000   0.00000   0.00000   0.00000
  46       14F-3       -0.00001  -0.00001  -0.00070   0.00002  -0.00002
  47 2   Cl 1S          0.67978   0.04493  -0.05354  -0.02128  -0.01131
  48        2S          0.00690  -0.16795   0.20026   0.07963   0.04295
  49        3S          0.00011   0.35921  -0.42914  -0.17176  -0.09351
  50        4S          0.00016   0.04352  -0.05395  -0.02250  -0.01470
  51        5S         -0.00005   0.21731  -0.26675  -0.11287  -0.09758
  52        6S         -0.00005  -0.00649   0.01000   0.00240  -0.02616
  53        7PX         0.00000   0.00000   0.00000   0.00000   0.00000
  54        7PY        -0.00045  -0.01628  -0.00015   0.00101  -0.11120
  55        7PZ        -0.00039  -0.00723   0.00745  -0.01875   0.10366
  56        8PX         0.00000   0.00000   0.00000   0.00000   0.00000
  57        8PY         0.00006   0.02450   0.01621  -0.00205   0.25395
  58        8PZ         0.00004   0.00542  -0.00989   0.04786  -0.24824
  59        9PX         0.00000   0.00000   0.00000   0.00000   0.00000
  60        9PY        -0.00006   0.01058   0.00744  -0.00028   0.12123
  61        9PZ        -0.00004   0.00272  -0.00413   0.02247  -0.11893
  62       10PX         0.00000   0.00000   0.00000   0.00000   0.00000
  63       10PY        -0.00006  -0.00044   0.01522  -0.00739   0.13204
  64       10PZ        -0.00003  -0.00284   0.00337   0.02615  -0.17878
  65       11PX         0.00000   0.00000   0.00000   0.00000   0.00000
  66       11PY        -0.00001  -0.00392   0.00287   0.00038   0.00058
  67       11PZ         0.00000  -0.00162   0.00320  -0.00013  -0.00615
  68       12D 0        0.00000  -0.00051  -0.00082   0.00273  -0.00678
  69       12D+1        0.00000   0.00000   0.00000   0.00000   0.00000
  70       12D-1        0.00001   0.00720  -0.00536   0.00263   0.00263
  71       12D+2        0.00000  -0.00588   0.00267   0.00056  -0.00989
  72       12D-2        0.00000   0.00000   0.00000   0.00000   0.00000
  73       13D 0        0.00000  -0.00120  -0.00179   0.00459  -0.00829
  74       13D+1        0.00000   0.00000   0.00000   0.00000   0.00000
  75       13D-1        0.00002   0.00711  -0.00470   0.00421   0.00185
  76       13D+2       -0.00001  -0.00628   0.00178   0.00148  -0.01183
  77       13D-2        0.00000   0.00000   0.00000   0.00000   0.00000
  78       14D 0        0.00000   0.00100   0.00109   0.00303  -0.00870
  79       14D+1        0.00000   0.00000   0.00000   0.00000   0.00000
  80       14D-1       -0.00002  -0.00184   0.00310   0.00198  -0.00356
  81       14D+2        0.00002   0.00168  -0.00249   0.00076  -0.00672
  82       14D-2        0.00000   0.00000   0.00000   0.00000   0.00000
  83       15F 0        0.00000  -0.00131   0.00086   0.00054  -0.00225
  84       15F+1        0.00000   0.00000   0.00000   0.00000   0.00000
  85       15F-1        0.00000   0.00070  -0.00154   0.00129  -0.00383
  86       15F+2        0.00000  -0.00250   0.00210  -0.00016  -0.00164
  87       15F-2        0.00000   0.00000   0.00000   0.00000   0.00000
  88       15F+3        0.00000   0.00000   0.00000   0.00000   0.00000
  89       15F-3        0.00000  -0.00184   0.00080   0.00062  -0.00335
  90       16F 0        0.00000  -0.00018  -0.00033   0.00003  -0.00046
  91       16F+1        0.00000   0.00000   0.00000   0.00000   0.00000
  92       16F-1        0.00000  -0.00016   0.00004   0.00151  -0.00207
  93       16F+2        0.00000   0.00005  -0.00065  -0.00028  -0.00062
  94       16F-2        0.00000   0.00000   0.00000   0.00000   0.00000
  95       16F+3        0.00000   0.00000   0.00000   0.00000   0.00000
  96       16F-3        0.00000   0.00025  -0.00037   0.00022  -0.00133
  97 3   Cl 1S         -0.72950   0.04578   0.05270  -0.02145  -0.01138
  98        2S         -0.00737  -0.17112  -0.19713   0.08023   0.04320
  99        3S         -0.00012   0.36602   0.42245  -0.17311  -0.09407
 100        4S         -0.00016   0.04437   0.05310  -0.02266  -0.01479
 101        5S          0.00004   0.22102   0.26244  -0.11381  -0.09840
 102        6S          0.00005  -0.00702  -0.00997   0.00237  -0.02614
 103        7PX         0.00000   0.00000   0.00000   0.00000   0.00000
 104        7PY        -0.00055   0.01659  -0.00024  -0.00088   0.11094
 105        7PZ         0.00045  -0.00743  -0.00751  -0.01895   0.10329
 106        8PX         0.00000   0.00000   0.00000   0.00000   0.00000
 107        8PY         0.00007  -0.02459   0.01643   0.00178  -0.25316
 108        8PZ        -0.00005   0.00563   0.01020   0.04838  -0.24751
 109        9PX         0.00000   0.00000   0.00000   0.00000   0.00000
 110        9PY        -0.00007  -0.01073   0.00748   0.00012  -0.12086
 111        9PZ         0.00005   0.00288   0.00431   0.02269  -0.11853
 112       10PX         0.00000   0.00000   0.00000   0.00000   0.00000
 113       10PY        -0.00006   0.00094   0.01533   0.00732  -0.13109
 114       10PZ         0.00003  -0.00310  -0.00324   0.02639  -0.17841
 115       11PX         0.00000   0.00000   0.00000   0.00000   0.00000
 116       11PY        -0.00001   0.00403   0.00282  -0.00037  -0.00048
 117       11PZ         0.00000  -0.00168  -0.00316  -0.00015  -0.00603
 118       12D 0        0.00000  -0.00056   0.00080   0.00276  -0.00684
 119       12D+1        0.00000   0.00000   0.00000   0.00000   0.00000
 120       12D-1        0.00001  -0.00737  -0.00534  -0.00268  -0.00263
 121       12D+2        0.00000  -0.00605  -0.00265   0.00056  -0.01004
 122       12D-2        0.00000   0.00000   0.00000   0.00000   0.00000
 123       13D 0        0.00000  -0.00121   0.00179   0.00467  -0.00837
 124       13D+1        0.00000   0.00000   0.00000   0.00000   0.00000
 125       13D-1        0.00002  -0.00715  -0.00463  -0.00429  -0.00178
 126       13D+2        0.00001  -0.00633  -0.00171   0.00150  -0.01194
 127       13D-2        0.00000   0.00000   0.00000   0.00000   0.00000
 128       14D 0        0.00000   0.00099  -0.00106   0.00303  -0.00868
 129       14D+1        0.00000   0.00000   0.00000   0.00000   0.00000
 130       14D-1       -0.00002   0.00196   0.00312  -0.00203   0.00366
 131       14D+2       -0.00002   0.00183   0.00252   0.00077  -0.00670
 132       14D-2        0.00000   0.00000   0.00000   0.00000   0.00000
 133       15F 0        0.00000  -0.00135  -0.00088   0.00055  -0.00222
 134       15F+1        0.00000   0.00000   0.00000   0.00000   0.00000
 135       15F-1        0.00000  -0.00071  -0.00153  -0.00132   0.00387
 136       15F+2        0.00000  -0.00256  -0.00211  -0.00017  -0.00163
 137       15F-2        0.00000   0.00000   0.00000   0.00000   0.00000
 138       15F+3        0.00000   0.00000   0.00000   0.00000   0.00000
 139       15F-3        0.00000   0.00189   0.00080  -0.00064   0.00339
 140       16F 0        0.00000  -0.00016   0.00034   0.00002  -0.00042
 141       16F+1        0.00000   0.00000   0.00000   0.00000   0.00000
 142       16F-1        0.00000   0.00018   0.00004  -0.00152   0.00208
 143       16F+2        0.00000   0.00010   0.00067  -0.00028  -0.00057
 144       16F-2        0.00000   0.00000   0.00000   0.00000   0.00000
 145       16F+3        0.00000   0.00000   0.00000   0.00000   0.00000
 146       16F-3        0.00000  -0.00029  -0.00039  -0.00023   0.00130
 147 4   S  1S          0.00836   0.01650  -0.00010   0.05806   0.00494
 148        2S          0.00013  -0.06340   0.00037  -0.22217  -0.01890
 149        3S          0.00000   0.13142  -0.00077   0.47028   0.04165
 150        4S          0.00000   0.01581  -0.00009   0.06112   0.00586
 151        5S         -0.00001   0.05481  -0.00016   0.24365   0.07947
 152        6S          0.00000  -0.00317   0.00012  -0.03121   0.02520
 153        7PX         0.00000   0.00000   0.00000   0.00000   0.00000
 154        7PY         0.00024  -0.00009  -0.01104  -0.00001  -0.00010
 155        7PZ        -0.00002   0.02164  -0.00012   0.04434   0.00151
 156        8PX         0.00000   0.00000   0.00000   0.00000   0.00000
 157        8PY         0.00002   0.00029   0.03234   0.00001   0.00036
 158        8PZ         0.00000  -0.03272   0.00016  -0.05562  -0.00554
 159        9PX         0.00000   0.00000   0.00000   0.00000   0.00000
 160        9PY         0.00001   0.00011   0.01225   0.00003   0.00010
 161        9PZ         0.00000  -0.01618   0.00009  -0.03098  -0.00141
 162       10PX         0.00000   0.00000   0.00000   0.00000   0.00000
 163       10PY         0.00002   0.00001   0.01002   0.00005   0.00008
 164       10PZ         0.00000   0.00086  -0.00010   0.01611  -0.01733
 165       11PX         0.00000   0.00000   0.00000   0.00000   0.00000
 166       11PY         0.00000  -0.00002  -0.00149   0.00001   0.00001
 167       11PZ         0.00000   0.00231  -0.00004   0.00822   0.00053
 168       12D 0        0.00000   0.00675  -0.00004   0.00985   0.00057
 169       12D+1        0.00000   0.00000   0.00000   0.00000   0.00000
 170       12D-1       -0.00002  -0.00005  -0.00509   0.00003  -0.00006
 171       12D+2        0.00000   0.00017   0.00000   0.00038   0.00323
 172       12D-2        0.00000   0.00000   0.00000   0.00000   0.00000
 173       13D 0        0.00000   0.00991  -0.00006   0.02410   0.00112
 174       13D+1        0.00000   0.00000   0.00000   0.00000   0.00000
 175       13D-1        0.00000  -0.00005  -0.00337   0.00001   0.00000
 176       13D+2        0.00000   0.00000  -0.00001   0.00099   0.00240
 177       13D-2        0.00000   0.00000   0.00000   0.00000   0.00000
 178       14D 0        0.00000  -0.00237   0.00003  -0.00879  -0.00076
 179       14D+1        0.00000   0.00000   0.00000   0.00000   0.00000
 180       14D-1       -0.00001   0.00005   0.00198  -0.00001   0.00002
 181       14D+2        0.00000  -0.00175   0.00000  -0.00088   0.00538
 182       14D-2        0.00000   0.00000   0.00000   0.00000   0.00000
 183       15F 0        0.00000  -0.00300   0.00002  -0.00874  -0.00076
 184       15F+1        0.00000   0.00000   0.00000   0.00000   0.00000
 185       15F-1        0.00000   0.00003   0.00170  -0.00001   0.00001
 186       15F+2        0.00000   0.00018   0.00000  -0.00031  -0.00041
 187       15F-2        0.00000   0.00000   0.00000   0.00000   0.00000
 188       15F+3        0.00000   0.00000   0.00000   0.00000   0.00000
 189       15F-3        0.00000   0.00000   0.00009   0.00000   0.00001
 190       16F 0        0.00000   0.00068   0.00000   0.00506  -0.00011
 191       16F+1        0.00000   0.00000   0.00000   0.00000   0.00000
 192       16F-1        0.00001   0.00000   0.00078  -0.00001   0.00003
 193       16F+2        0.00000  -0.00060   0.00000  -0.00075  -0.00131
 194       16F-2        0.00000   0.00000   0.00000   0.00000   0.00000
 195       16F+3        0.00000   0.00000   0.00000   0.00000   0.00000
 196       16F-3        0.00000   0.00000   0.00035   0.00000   0.00000
                          21        22        23        24        25
     Eigenvalues --     1.94885   1.94874   1.94806   1.94659   1.94100
   1 1   C  1S          0.11712   0.02952   0.00000   0.00000   0.00192
   2        2S         -0.32742  -0.08253   0.00000   0.00000  -0.00542
   3        3S         -0.07855  -0.01981   0.00000   0.00000  -0.00137
   4        4S         -0.20481  -0.05198   0.00000   0.00000  -0.00405
   5        5S         -0.00781  -0.00199   0.00000   0.00000  -0.00002
   6        6PX         0.00000   0.00000   0.09584   0.00079   0.00000
   7        6PY        -0.02148   0.07752   0.00000   0.00000   0.16847
   8        6PZ         0.03652   0.00939   0.00000   0.00000  -0.00347
   9        7PX         0.00000   0.00000   0.13689   0.00108   0.00000
  10        7PY        -0.02949   0.10620   0.00000   0.00000   0.23752
  11        7PZ         0.06170   0.01584   0.00000   0.00000  -0.00434
  12        8PX         0.00000   0.00000   0.06212   0.00024   0.00000
  13        8PY        -0.00912   0.03296   0.00000   0.00000   0.08369
  14        8PZ        -0.01820  -0.00475   0.00000   0.00000  -0.00106
  15        9PX         0.00000   0.00000   0.00655  -0.00003   0.00000
  16        9PY        -0.00244   0.01017   0.00000   0.00000  -0.00707
  17        9PZ        -0.00311  -0.00062   0.00000   0.00000   0.00027
  18       10D 0        0.00176   0.00034   0.00000   0.00000  -0.00024
  19       10D+1        0.00000   0.00000  -0.00722  -0.00003   0.00000
  20       10D-1       -0.00104   0.00479   0.00000   0.00000  -0.00670
  21       10D+2        0.00718   0.00173   0.00000   0.00000  -0.00014
  22       10D-2        0.00000   0.00000   0.00008   0.01055   0.00000
  23       11D 0        0.00698   0.00157   0.00000   0.00000  -0.00025
  24       11D+1        0.00000   0.00000  -0.02314  -0.00002   0.00000
  25       11D-1       -0.00374   0.01613   0.00000   0.00000  -0.01335
  26       11D+2        0.01644   0.00400   0.00000   0.00000  -0.00018
  27       11D-2        0.00000   0.00000   0.00011   0.03220   0.00000
  28       12D 0       -0.02065  -0.00514   0.00000   0.00000  -0.00023
  29       12D+1        0.00000   0.00000   0.01641   0.00003   0.00000
  30       12D-1        0.00875  -0.03597   0.00000   0.00000   0.01026
  31       12D+2       -0.00621  -0.00151   0.00000   0.00000  -0.00007
  32       12D-2        0.00000   0.00000   0.00008  -0.01075   0.00000
  33       13F 0       -0.00348  -0.00088   0.00000   0.00000  -0.00007
  34       13F+1        0.00000   0.00000   0.00228   0.00000   0.00000
  35       13F-1        0.00058  -0.00252   0.00000   0.00000   0.00774
  36       13F+2       -0.00463  -0.00118   0.00000   0.00000   0.00005
  37       13F-2        0.00000   0.00000  -0.00002  -0.00443   0.00000
  38       13F+3        0.00000   0.00000  -0.00480  -0.00005   0.00000
  39       13F-3        0.00078  -0.00284   0.00000   0.00000  -0.00292
  40       14F 0       -0.00665  -0.00173   0.00000   0.00000   0.00001
  41       14F+1        0.00000   0.00000   0.00236  -0.00004   0.00000
  42       14F-1        0.00214  -0.00852   0.00000   0.00000  -0.00078
  43       14F+2       -0.00191  -0.00053   0.00000   0.00000  -0.00007
  44       14F-2        0.00000   0.00000   0.00006  -0.00575   0.00000
  45       14F+3        0.00000   0.00000  -0.00336  -0.00002   0.00000
  46       14F-3        0.00071  -0.00300   0.00000   0.00000   0.00099
  47 2   Cl 1S          0.01213   0.01202   0.00000   0.00000   0.00682
  48        2S         -0.04590  -0.04623   0.00000   0.00000  -0.02746
  49        3S          0.10266   0.09921   0.00000   0.00000   0.05886
  50        4S          0.01629   0.01590   0.00000   0.00000   0.01098
  51        5S          0.09579   0.11536   0.00000   0.00000   0.08603
  52        6S          0.00577   0.03244   0.00000   0.00000   0.01588
[...]
  55        7PZ         0.00146   0.00000  -0.00381  -0.01068  -0.01451
  56        8PX         0.00000  -0.19109   0.00000   0.00000   0.00000
  57        8PY         0.38308   0.00000  -0.16889   0.04945  -0.25483
  58        8PZ         0.03123   0.00000  -0.03981  -0.13557  -0.23621
  59        9PX         0.00000   0.06221   0.00000   0.00000   0.00000
  60        9PY        -0.08708   0.00000   0.05179  -0.01451   0.06022
  61        9PZ        -0.00199   0.00000   0.01562   0.04179   0.05558
  62       10PX         0.00000   0.82644   0.00000   0.00000   0.00000
  63       10PY        -5.24094   0.00000   0.77480   0.58854   1.90605
  64       10PZ        -2.68667   0.00000   0.55271   1.39903   1.36974
  65       11PX         0.00000  -2.38286   0.00000   0.00000   0.00000
  66       11PY        -2.41660   0.00000  -1.71150   1.25089   1.49717
  67       11PZ        -1.43926   0.00000   1.07295  -2.69356   1.54733
  68       12D 0        0.01906   0.00000  -0.00957  -0.02379  -0.00483
  69       12D+1        0.00000  -0.01548   0.00000   0.00000   0.00000
  70       12D-1       -0.01928   0.00000   0.00323  -0.00142   0.01724
  71       12D+2        0.04028   0.00000   0.04297   0.00846   0.01265
  72       12D-2        0.00000  -0.02197   0.00000   0.00000   0.00000
  73       13D 0       -0.11219   0.00000   0.05223   0.09316  -0.00043
  74       13D+1        0.00000   0.06456   0.00000   0.00000   0.00000
  75       13D-1        0.00222   0.00000   0.01267   0.04610  -0.09242
  76       13D+2       -0.12464   0.00000  -0.14839  -0.03965  -0.03461
  77       13D-2        0.00000   0.09124   0.00000   0.00000   0.00000
  78       14D 0        0.37260   0.00000  -0.00946  -0.19083   0.08468
  79       14D+1        0.00000  -0.09767   0.00000   0.00000   0.00000
  80       14D-1       -1.29222   0.00000   0.15016   0.32175   0.51361
  81       14D+2        1.04031   0.00000   0.31372  -0.02318  -0.31682
  82       14D-2        0.00000   0.09818   0.00000   0.00000   0.00000
  83       15F 0       -0.01703   0.00000   0.02951   0.00288   0.00717
  84       15F+1        0.00000  -0.01122   0.00000   0.00000   0.00000
  85       15F-1        0.03795   0.00000  -0.00641   0.01303  -0.00298
  86       15F+2       -0.01919   0.00000   0.00814   0.02683   0.02152
  87       15F-2        0.00000  -0.00555   0.00000   0.00000   0.00000
  88       15F+3        0.00000   0.05117   0.00000   0.00000   0.00000
  89       15F-3        0.01643   0.00000   0.02012  -0.00419   0.03248
  90       16F 0        0.07175   0.00000  -0.06176  -0.04666   0.00470
  91       16F+1        0.00000   0.00728   0.00000   0.00000   0.00000
  92       16F-1       -0.12969   0.00000   0.03423  -0.02364  -0.00138
  93       16F+2        0.10299   0.00000  -0.01672  -0.07718  -0.03933
  94       16F-2        0.00000   0.02351   0.00000   0.00000   0.00000
  95       16F+3        0.00000  -0.13008   0.00000   0.00000   0.00000
  96       16F-3       -0.00495   0.00000  -0.02054   0.01097  -0.07397
  97 3   Cl 1S         -0.01572   0.00000  -0.01007   0.00517   0.00354
  98        2S         -0.21090   0.00000  -0.18672   0.09797   0.08163
  99        3S         -0.59988   0.00000  -0.42176   0.21584   0.16016
 100        4S          0.02367   0.00000   0.16762  -0.10189  -0.10138
 101        5S          4.84790   0.00000   0.89577   0.06217  -0.12749
 102        6S         13.82104   0.00000  -7.09594   5.19245  10.09886
 103        7PX         0.00000  -0.01624   0.00000   0.00000   0.00000
 104        7PY         0.02325   0.00000  -0.01284  -0.00423   0.01642
 105        7PZ        -0.00104   0.00000   0.00375  -0.01077  -0.01458
 106        8PX         0.00000  -0.19192   0.00000   0.00000   0.00000
 107        8PY         0.37882   0.00000  -0.16135  -0.05532   0.26278
 108        8PZ        -0.02606   0.00000   0.03719  -0.13680  -0.23724
 109        9PX         0.00000   0.06220   0.00000   0.00000   0.00000
 110        9PY        -0.08544   0.00000   0.05009   0.01572  -0.06225
 111        9PZ         0.00065   0.00000  -0.01558   0.04229   0.05583
 112       10PX         0.00000   0.84049   0.00000   0.00000   0.00000
 113       10PY        -5.29384   0.00000   0.77268  -0.57717  -1.93515
 114       10PZ         2.66527   0.00000  -0.56629   1.39093   1.37773
 115       11PX         0.00000  -2.37642   0.00000   0.00000   0.00000
 116       11PY        -2.45750   0.00000  -1.70760  -1.28338  -1.47957
 117       11PZ         1.47679   0.00000  -0.99285  -2.73759   1.55279
 118       12D 0       -0.01783   0.00000   0.01029  -0.02323  -0.00532
 119       12D+1        0.00000  -0.01477   0.00000   0.00000   0.00000
 120       12D-1       -0.02057   0.00000   0.00305   0.00118  -0.01709
 121       12D+2       -0.04260   0.00000  -0.04304   0.00744   0.01301
 122       12D-2        0.00000   0.02166   0.00000   0.00000   0.00000
 123       13D 0        0.10710   0.00000  -0.05515   0.08882   0.00274
 124       13D+1        0.00000   0.06193   0.00000   0.00000   0.00000
 125       13D-1        0.00594   0.00000   0.01577  -0.04454   0.09320
 126       13D+2        0.13183   0.00000   0.14962  -0.03729  -0.03420
 127       13D-2        0.00000  -0.09024   0.00000   0.00000   0.00000
 128       14D 0       -0.38384   0.00000   0.01894  -0.19306   0.08042
 129       14D+1        0.00000  -0.08932   0.00000   0.00000   0.00000
 130       14D-1       -1.31238   0.00000   0.15446  -0.31764  -0.51518
 131       14D+2       -1.07273   0.00000  -0.31559  -0.03412  -0.31753
 132       14D-2        0.00000  -0.10509   0.00000   0.00000   0.00000
 133       15F 0        0.01781   0.00000  -0.02906   0.00194   0.00779
 134       15F+1        0.00000  -0.01137   0.00000   0.00000   0.00000
 135       15F-1        0.03700   0.00000  -0.00608  -0.01351   0.00292
 136       15F+2        0.01971   0.00000  -0.00826   0.02626   0.02186
 137       15F-2        0.00000   0.00518   0.00000   0.00000   0.00000
 138       15F+3        0.00000   0.05095   0.00000   0.00000   0.00000
 139       15F-3        0.01547   0.00000   0.01963   0.00427  -0.03320
 140       16F 0       -0.07536   0.00000   0.06274  -0.04514   0.00455
 141       16F+1        0.00000   0.00784   0.00000   0.00000   0.00000
 142       16F-1       -0.12697   0.00000   0.03379   0.02761   0.00089
 143       16F+2       -0.10587   0.00000   0.01800  -0.07576  -0.03877
 144       16F-2        0.00000  -0.02300   0.00000   0.00000   0.00000
 145       16F+3        0.00000  -0.13009   0.00000   0.00000   0.00000
 146       16F-3       -0.00221   0.00000  -0.01943  -0.01015   0.07448
 147 4   S  1S          0.00028   0.00000   0.00004   0.00199  -0.00374
 148        2S          0.00427   0.00000   0.00116   0.00031  -0.06289
 149        3S          0.01195   0.00000   0.00227   0.06252  -0.16863
 150        4S         -0.00210   0.00000  -0.00182   0.10465   0.02355
 151        5S         -0.05052   0.00000   0.03511  -3.79363   2.28489
 152        6S         -0.15386   0.00000   0.19632 -15.56191   4.02746
 153        7PX         0.00000  -0.01988   0.00000   0.00000   0.00000
 154        7PY         0.01745   0.00000   0.00360   0.00008   0.00011
 155        7PZ        -0.00076   0.00000   0.00018  -0.00752  -0.00133
 156        8PX         0.00000  -0.08915   0.00000   0.00000   0.00000
 157        8PY         0.26711   0.00000   0.13306   0.00220   0.00108
 158        8PZ        -0.01265   0.00000   0.00153  -0.01045  -0.13262
 159        9PX         0.00000   0.07459   0.00000   0.00000   0.00000
 160        9PY        -0.06509   0.00000  -0.01200  -0.00022  -0.00041
 161        9PZ         0.00250   0.00000  -0.00063   0.02077   0.00100
 162       10PX         0.00000  -0.64389   0.00000   0.00000   0.00000
 163       10PY        -3.51443   0.00000  -0.43536   0.02985  -0.00833
 164       10PZ         0.06547   0.00000  -0.03430   3.58721  -0.31276
 165       11PX         0.00000  -4.11665   0.00000   0.00000   0.00000
 166       11PY        -0.05408   0.00000  -4.74596  -0.02262   0.02157
 167       11PZ         0.03763   0.00000  -0.00075  -1.08146   0.78433
 168       12D 0        0.00182   0.00000   0.00355  -0.45951   0.32772
 169       12D+1        0.00000  -0.34304   0.00000   0.00000   0.00000
 170       12D-1       -0.07535   0.00000  -0.36360  -0.00596   0.00134
 171       12D+2        0.00184   0.00000  -0.00166   0.11200  -0.14647
 172       12D-2        0.00000  -0.00051   0.00000   0.00000   0.00000
 173       13D 0        0.00065   0.00000  -0.00097   0.08650  -0.08153
 174       13D+1        0.00000   0.07031   0.00000   0.00000   0.00000
 175       13D-1        0.04193   0.00000   0.07085   0.00049  -0.00013
 176       13D+2       -0.00034   0.00000   0.00035  -0.03280   0.03021
 177       13D-2        0.00000   0.00018   0.00000   0.00000   0.00000
 178       14D 0       -0.01289   0.00000  -0.00705   0.19941  -1.16390
 179       14D+1        0.00000   1.24507   0.00000   0.00000   0.00000
 180       14D-1        1.47522   0.00000   0.93554  -0.00980   0.00321
 181       14D+2        0.00665   0.00000   0.00235  -0.44181   0.17018
 182       14D-2        0.00000   0.00524   0.00000   0.00000   0.00000
 183       15F 0       -0.00097   0.00000   0.00025  -0.01271  -0.01321
 184       15F+1        0.00000   0.01539   0.00000   0.00000   0.00000
 185       15F-1       -0.06871   0.00000   0.00548   0.00004   0.00016
 186       15F+2        0.00029   0.00000   0.00008  -0.01320   0.00175
 187       15F-2        0.00000   0.00022   0.00000   0.00000   0.00000
 188       15F+3        0.00000   0.02671   0.00000   0.00000   0.00000
 189       15F-3       -0.00307   0.00000   0.04050   0.00042  -0.00027
 190       16F 0        0.00022   0.00000   0.00062   0.07666   0.13428
 191       16F+1        0.00000  -0.01814   0.00000   0.00000   0.00000
 192       16F-1        0.09801   0.00000   0.01258   0.00270  -0.00127
 193       16F+2       -0.00308   0.00000   0.00006   0.07231   0.01784
 194       16F-2        0.00000  -0.00134   0.00000   0.00000   0.00000
 195       16F+3        0.00000  -0.06012   0.00000   0.00000   0.00000
 196       16F-3        0.01744   0.00000  -0.09422  -0.00093   0.00073
                         196
     Eigenvalues --     0.00000
   1 1   C  1S         -0.03331
   2        2S         -0.12046
   3        3S          0.13354
   4        4S          2.57275
   5        5S         20.99946
   6        6PX         0.00000
   7        6PY         0.00016
   8        6PZ         0.02254
   9        7PX         0.00000
  10        7PY        -0.00050
  11        7PZ        -0.20431
  12        8PX         0.00000
  13        8PY         0.02659
  14        8PZ         1.16795
  15        9PX         0.00000
  16        9PY         0.04579
  17        9PZ         3.35636
  18       10D 0        0.01277
  19       10D+1        0.00000
  20       10D-1        0.00005
  21       10D+2       -0.03514
  22       10D-2        0.00000
  23       11D 0       -0.33464
  24       11D+1        0.00000
  25       11D-1        0.00053
  26       11D+2        0.17074
  27       11D-2        0.00000
  28       12D 0       -0.98956
  29       12D+1        0.00000
  30       12D-1       -0.00473
  31       12D+2       -0.73878
  32       12D-2        0.00000
  33       13F 0       -0.02584
  34       13F+1        0.00000
  35       13F-1       -0.00001
  36       13F+2       -0.00077
  37       13F-2        0.00000
  38       13F+3        0.00000
  39       13F-3       -0.00002
  40       14F 0       -0.14241
  41       14F+1        0.00000
  42       14F-1        0.00100
  43       14F+2       -0.11993
  44       14F-2        0.00000
  45       14F+3        0.00000
  46       14F-3        0.00020
  47 2   Cl 1S         -0.00106
  48        2S         -0.01448
  49        3S         -0.04067
  50        4S         -0.00158
  51        5S          0.38817
  52        6S         -3.39459
  53        7PX         0.00000
  54        7PY         0.00794
  55        7PZ         0.00370
  56        8PX         0.00000
  57        8PY         0.14065
  58        8PZ         0.08909
  59        9PX         0.00000
  60        9PY        -0.02883
  61        9PZ        -0.01169
  62       10PX         0.00000
  63       10PY         0.14875
  64       10PZ        -0.40771
  65       11PX         0.00000
  66       11PY        -0.73539
  67       11PZ        -1.01749
  68       12D 0        0.00821
  69       12D+1        0.00000
  70       12D-1       -0.01056
  71       12D+2       -0.00784
  72       12D-2        0.00000
  73       13D 0       -0.03986
  74       13D+1        0.00000
  75       13D-1        0.08905
  76       13D+2       -0.00877
  77       13D-2        0.00000
  78       14D 0       -0.05397
  79       14D+1        0.00000
  80       14D-1       -0.16431
  81       14D+2       -0.16959
  82       14D-2        0.00000
  83       15F 0       -0.00500
  84       15F+1        0.00000
  85       15F-1        0.00657
  86       15F+2       -0.00326
  87       15F-2        0.00000
  88       15F+3        0.00000
  89       15F-3       -0.00189
  90       16F 0        0.00377
  91       16F+1        0.00000
  92       16F-1       -0.01987
  93       16F+2       -0.00619
  94       16F-2        0.00000
  95       16F+3        0.00000
  96       16F-3       -0.01095
  97 3   Cl 1S         -0.00101
  98        2S         -0.01402
  99        3S         -0.03897
 100        4S         -0.00111
 101        5S          0.37510
 102        6S         -3.50491
 103        7PX         0.00000
 104        7PY        -0.00816
 105        7PZ         0.00364
 106        8PX         0.00000
 107        8PY        -0.14471
 108        8PZ         0.08879
 109        9PX         0.00000
 110        9PY         0.02959
 111        9PZ        -0.01142
 112       10PX         0.00000
 113       10PY        -0.11996
 114       10PZ        -0.42306
 115       11PX         0.00000
 116       11PY         0.73398
 117       11PZ        -1.02885
 118       12D 0        0.00839
 119       12D+1        0.00000
 120       12D-1        0.01036
 121       12D+2       -0.00802
 122       12D-2        0.00000
 123       13D 0       -0.04112
 124       13D+1        0.00000
 125       13D-1       -0.08817
 126       13D+2       -0.00845
 127       13D-2        0.00000
 128       14D 0       -0.05124
 129       14D+1        0.00000
 130       14D-1        0.17285
 131       14D+2       -0.16594
 132       14D-2        0.00000
 133       15F 0       -0.00504
 134       15F+1        0.00000
 135       15F-1       -0.00678
 136       15F+2       -0.00372
 137       15F-2        0.00000
 138       15F+3        0.00000
 139       15F-3        0.00223
 140       16F 0        0.00428
 141       16F+1        0.00000
 142       16F-1        0.02079
 143       16F+2       -0.00465
 144       16F-2        0.00000
 145       16F+3        0.00000
 146       16F-3        0.01026
 147 4   S  1S         -0.00436
 148        2S         -0.11022
 149        3S         -0.23210
 150        4S          0.10617
 151        5S          2.75548
 152        6S        -18.14116
 153        7PX         0.00000
 154        7PY        -0.00008
 155        7PZ        -0.04536
 156        8PX         0.00000
 157        8PY        -0.00152
 158        8PZ        -0.91056
 159        9PX         0.00000
 160        9PY         0.00027
 161        9PZ         0.14224
 162       10PX         0.00000
 163       10PY         0.00037
 164       10PZ         3.43297
 165       11PX         0.00000
 166       11PY        -0.00986
 167       11PZ         4.74758
 168       12D 0        0.31514
 169       12D+1        0.00000
 170       12D-1        0.00157
 171       12D+2        0.09091
 172       12D-2        0.00000
 173       13D 0       -0.00625
 174       13D+1        0.00000
 175       13D-1       -0.00016
 176       13D+2       -0.02091
 177       13D-2        0.00000
 178       14D 0       -1.70768
 179       14D+1        0.00000
 180       14D-1       -0.00061
 181       14D+2        0.03780
 182       14D-2        0.00000
 183       15F 0       -0.08748
 184       15F+1        0.00000
 185       15F-1       -0.00012
 186       15F+2        0.01202
 187       15F-2        0.00000
 188       15F+3        0.00000
 189       15F-3        0.00011
 190       16F 0        0.18787
 191       16F+1        0.00000
 192       16F-1       -0.00035
 193       16F+2       -0.08509
 194       16F-2        0.00000
 195       16F+3        0.00000
 196       16F-3       -0.00037
          Condensed to atoms (all electrons):
              1          2          3          4
     1  C    5.668784   0.074589   0.072206   0.177993
     2  Cl   0.074589  17.190931  -0.119224  -0.126852
     3  Cl   0.072206  -0.119224  17.190309  -0.128332
     4  S    0.177993  -0.126852  -0.128332  16.049218
 Mulliken atomic charges:
              1
     1  C    0.006428
     2  Cl  -0.019443
     3  Cl  -0.014958
     4  S    0.027973
 Sum of Mulliken atomic charges =   0.00000
 Mulliken charges with hydrogens summed into heavy atoms:
              1
     1  C    0.006428
     2  Cl  -0.019443
     3  Cl  -0.014958
     4  S    0.027973
 Sum of Mulliken charges with hydrogens summed into heavy atoms =   0.00000
 Electronic spatial extent (au):  <R**2>=            692.5264
 Charge=              0.0000 electrons
 Dipole moment (field-independent basis, Debye):
    X=              0.0000    Y=              0.0181    Z=             -0.4135  Tot=              0.4139
 Quadrupole moment (field-independent basis, Debye-Ang):
   XX=            -43.1616   YY=            -43.3246   ZZ=            -42.5250
   XY=              0.0000   XZ=              0.0000   YZ=             -0.0116
 Traceless Quadrupole moment (field-independent basis, Debye-Ang):
   XX=             -0.1578   YY=             -0.3209   ZZ=              0.4787
   XY=              0.0000   XZ=              0.0000   YZ=             -0.0116
 Octapole moment (field-independent basis, Debye-Ang**2):
  XXX=              0.0000  YYY=              0.1062  ZZZ=             82.0802  XYY=              0.0000
  XXY=              0.0225  XXZ=             27.2823  XZZ=              0.0000  YZZ=              0.0121
  YYZ=             19.1590  XYZ=              0.0000
 Hexadecapole moment (field-independent basis, Debye-Ang**3):
 XXXX=            -50.9122 YYYY=           -340.7857 ZZZZ=           -479.7842 XXXY=              0.0000
 XXXZ=              0.0000 YYYX=              0.0000 YYYZ=             -0.6078 ZZZX=              0.0000
 ZZZY=             -0.4407 XXYY=            -69.2547 XXZZ=            -90.1362 YYZZ=           -127.6433
 XXYZ=             -0.2022 YYXZ=              0.0000 ZZXY=              0.0000
 N-N= 2.446471898189D+02 E-N=-3.712856286761D+03  KE= 1.355026353775D+03
 1\1\GINC-TRAPISTA\SP\RQCISD-FC\Aug-CC-pVTZ\C1Cl2S1\BRUNS\27-Nov-2021\0
 \\# qcisd/aug-cc-pvtz nosymm density=current output=wfn\\cl2cs-wavefun
 ction\\0,1\C,0,0.,0.,-0.522914\Cl,0,0.,-1.430735,-1.5109\Cl,0,0.,1.430
 735,-1.5009\S,0,0.,0.,1.081815\\Version=EM64L-G09RevB.01\HF=-1354.4259
 096\MP2=-1355.1503758\MP3=-1355.1829493\MP4D=-1355.2047634\MP4DQ=-1355
 .1798552\MP4SDQ=-1355.1867053\QCISD=-1355.1842101\RMSD=9.893e-09\Dipol
 e=0.,0.0071023,-0.1627011\Quadrupole=-0.1173523,-0.2385519,0.3559042,0
 .,0.,-0.0086402\PG=CS [SG(C1Cl2S1)]\\@

 Writing a WFN file to GAUSSIAN.wfn.


 O WAD SOME POWER THE GIFTIE GIE US       
 TO SEE OURSELS AS OTHERS SEE US.....     
 IT WOULD FRAE MONIE A BLUNDER FREE US,   
                     AND FOOLISH NOTION...
 WHAT AIRS IN DRESS AND GAIT WAD LEA'E US,
                     AND EV'N DEVOTION....
                                          
              (ROBERT BURNS 'TO A LOUSE') 
 Job cpu time:  0 days  2 hours 25 minutes 37.3 seconds.
 File lengths (MBytes):  RWF=  18573 Int=      0 D2E=      0 Chk=      3 Scr=      1
 Normal termination of Gaussian 09 at Sat Nov 27 23:48:31 2021.
