 cl2cs-wavefunction
GAUSSIAN            196 MOL ORBITALS    414 PRIMITIVES        4 NUCLEI
  C    1    (CENTRE  1)   0.00000000  0.00000000 -0.98816425  CHARGE =  6.0
  Cl   2    (CENTRE  2)   0.00000000 -2.70369732 -2.83628995  CHARGE = 17.0
  Cl   3    (CENTRE  3)   0.00000000  2.68480006 -2.83628995  CHARGE = 17.0
  S    4    (CENTRE  4)   0.00000000  0.00000000  2.04433408  CHARGE = 16.0
CENTRE ASSIGNMENTS    1  1  1  1  1  1  1  1  1  1  1  1  1  1  1  1  1  1  1  1
CENTRE ASSIGNMENTS    1  1  1  1  1  1  1  1  1  1  1  1  1  1  1  1  1  1  1  1
CENTRE ASSIGNMENTS    1  1  1  1  1  1  1  1  1  1  1  1  1  1  1  1  1  1  1  1
CENTRE ASSIGNMENTS    1  1  1  1  1  1  1  1  1  1  1  1  2  2  2  2  2  2  2  2
CENTRE ASSIGNMENTS    2  2  2  2  2  2  2  2  2  2  2  2  2  2  2  2  2  2  2  2
CENTRE ASSIGNMENTS    2  2  2  2  2  2  2  2  2  2  2  2  2  2  2  2  2  2  2  2
CENTRE ASSIGNMENTS    2  2  2  2  2  2  2  2  2  2  2  2  2  2  2  2  2  2  2  2
CENTRE ASSIGNMENTS    2  2  2  2  2  2  2  2  2  2  2  2  2  2  2  2  2  2  2  2
CENTRE ASSIGNMENTS    2  2  2  2  2  2  2  2  2  2  2  2  2  2  2  2  2  2  2  2
CENTRE ASSIGNMENTS    2  2  2  2  2  2  3  3  3  3  3  3  3  3  3  3  3  3  3  3
CENTRE ASSIGNMENTS    3  3  3  3  3  3  3  3  3  3  3  3  3  3  3  3  3  3  3  3
CENTRE ASSIGNMENTS    3  3  3  3  3  3  3  3  3  3  3  3  3  3  3  3  3  3  3  3
CENTRE ASSIGNMENTS    3  3  3  3  3  3  3  3  3  3  3  3  3  3  3  3  3  3  3  3
CENTRE ASSIGNMENTS    3  3  3  3  3  3  3  3  3  3  3  3  3  3  3  3  3  3  3  3
CENTRE ASSIGNMENTS    3  3  3  3  3  3  3  3  3  3  3  3  3  3  3  3  3  3  3  3
CENTRE ASSIGNMENTS    4  4  4  4  4  4  4  4  4  4  4  4  4  4  4  4  4  4  4  4
CENTRE ASSIGNMENTS    4  4  4  4  4  4  4  4  4  4  4  4  4  4  4  4  4  4  4  4
CENTRE ASSIGNMENTS    4  4  4  4  4  4  4  4  4  4  4  4  4  4  4  4  4  4  4  4
CENTRE ASSIGNMENTS    4  4  4  4  4  4  4  4  4  4  4  4  4  4  4  4  4  4  4  4
CENTRE ASSIGNMENTS    4  4  4  4  4  4  4  4  4  4  4  4  4  4  4  4  4  4  4  4
CENTRE ASSIGNMENTS    4  4  4  4  4  4  4  4  4  4  4  4  4  4
TYPE ASSIGNMENTS      1  1  1  1  1  1  1  1  1  1  1  1  1  1  1  1  2  2  2  3
TYPE ASSIGNMENTS      3  3  4  4  4  2  3  4  2  3  4  2  3  4  5  6  7  8  9 10
TYPE ASSIGNMENTS      5  6  7  8  9 10  5  6  7  8  9 10 11 12 13 17 14 15 18 19
TYPE ASSIGNMENTS     16 20 11 12 13 17 14 15 18 19 16 20  1  1  1  1  1  1  1  1
TYPE ASSIGNMENTS      1  1  1  1  1  1  1  1  1  1  1  1  1  1  1  1  1  1  1  1
TYPE ASSIGNMENTS      1  1  1  2  2  2  2  2  2  3  3  3  3  3  3  4  4  4  4  4
TYPE ASSIGNMENTS      4  2  2  2  2  2  2  3  3  3  3  3  3  4  4  4  4  4  4  2
TYPE ASSIGNMENTS      3  4  2  3  4  2  3  4  5  6  7  8  9 10  5  6  7  8  9 10
TYPE ASSIGNMENTS      5  6  7  8  9 10 11 12 13 17 14 15 18 19 16 20 11 12 13 17
TYPE ASSIGNMENTS     14 15 18 19 16 20  1  1  1  1  1  1  1  1  1  1  1  1  1  1
TYPE ASSIGNMENTS      1  1  1  1  1  1  1  1  1  1  1  1  1  1  1  1  1  2  2  2
TYPE ASSIGNMENTS      2  2  2  3  3  3  3  3  3  4  4  4  4  4  4  2  2  2  2  2
TYPE ASSIGNMENTS      2  3  3  3  3  3  3  4  4  4  4  4  4  2  3  4  2  3  4  2
TYPE ASSIGNMENTS      3  4  5  6  7  8  9 10  5  6  7  8  9 10  5  6  7  8  9 10
TYPE ASSIGNMENTS     11 12 13 17 14 15 18 19 16 20 11 12 13 17 14 15 18 19 16 20
TYPE ASSIGNMENTS      1  1  1  1  1  1  1  1  1  1  1  1  1  1  1  1  1  1  1  1
TYPE ASSIGNMENTS      1  1  1  1  1  1  1  1  1  1  1  2  2  2  2  2  2  3  3  3
TYPE ASSIGNMENTS      3  3  3  4  4  4  4  4  4  2  2  2  2  2  2  3  3  3  3  3
TYPE ASSIGNMENTS      3  4  4  4  4  4  4  2  3  4  2  3  4  2  3  4  5  6  7  8
TYPE ASSIGNMENTS      9 10  5  6  7  8  9 10  5  6  7  8  9 10 11 12 13 17 14 15
TYPE ASSIGNMENTS     18 19 16 20 11 12 13 17 14 15 18 19 16 20
EXPONENTS  0.8236000D+04 0.1235000D+04 0.2808000D+03 0.7927000D+02 0.2559000D+02
EXPONENTS  0.8997000D+01 0.3319000D+01 0.2808000D+03 0.7927000D+02 0.2559000D+02
EXPONENTS  0.8997000D+01 0.3319000D+01 0.3643000D+00 0.9059000D+00 0.1285000D+00
EXPONENTS  0.4402000D-01 0.1871000D+02 0.4133000D+01 0.1200000D+01 0.1871000D+02
EXPONENTS  0.4133000D+01 0.1200000D+01 0.1871000D+02 0.4133000D+01 0.1200000D+01
EXPONENTS  0.3827000D+00 0.3827000D+00 0.3827000D+00 0.1209000D+00 0.1209000D+00
EXPONENTS  0.1209000D+00 0.3569000D-01 0.3569000D-01 0.3569000D-01 0.1097000D+01
EXPONENTS  0.1097000D+01 0.1097000D+01 0.1097000D+01 0.1097000D+01 0.1097000D+01
EXPONENTS  0.3180000D+00 0.3180000D+00 0.3180000D+00 0.3180000D+00 0.3180000D+00
EXPONENTS  0.3180000D+00 0.1000000D+00 0.1000000D+00 0.1000000D+00 0.1000000D+00
EXPONENTS  0.1000000D+00 0.1000000D+00 0.7610000D+00 0.7610000D+00 0.7610000D+00
EXPONENTS  0.7610000D+00 0.7610000D+00 0.7610000D+00 0.7610000D+00 0.7610000D+00
EXPONENTS  0.7610000D+00 0.7610000D+00 0.2680000D+00 0.2680000D+00 0.2680000D+00
EXPONENTS  0.2680000D+00 0.2680000D+00 0.2680000D+00 0.2680000D+00 0.2680000D+00
EXPONENTS  0.2680000D+00 0.2680000D+00 0.4561000D+06 0.6833000D+05 0.1555000D+05
EXPONENTS  0.4405000D+04 0.1439000D+04 0.5204000D+03 0.2031000D+03 0.8396000D+02
EXPONENTS  0.3620000D+02 0.1583000D+02 0.6334000D+01 0.4405000D+04 0.1439000D+04
EXPONENTS  0.5204000D+03 0.2031000D+03 0.8396000D+02 0.3620000D+02 0.1583000D+02
EXPONENTS  0.6334000D+01 0.2694000D+01 0.1439000D+04 0.2031000D+03 0.8396000D+02
EXPONENTS  0.3620000D+02 0.1583000D+02 0.6334000D+01 0.2694000D+01 0.4313000D+00
EXPONENTS  0.9768000D+00 0.1625000D+00 0.5910000D-01 0.6633000D+03 0.1568000D+03
EXPONENTS  0.4998000D+02 0.1842000D+02 0.7240000D+01 0.2922000D+01 0.6633000D+03
EXPONENTS  0.1568000D+03 0.4998000D+02 0.1842000D+02 0.7240000D+01 0.2922000D+01
EXPONENTS  0.6633000D+03 0.1568000D+03 0.4998000D+02 0.1842000D+02 0.7240000D+01
EXPONENTS  0.2922000D+01 0.1568000D+03 0.4998000D+02 0.1842000D+02 0.7240000D+01
EXPONENTS  0.2922000D+01 0.3818000D+00 0.1568000D+03 0.4998000D+02 0.1842000D+02
EXPONENTS  0.7240000D+01 0.2922000D+01 0.3818000D+00 0.1568000D+03 0.4998000D+02
EXPONENTS  0.1842000D+02 0.7240000D+01 0.2922000D+01 0.3818000D+00 0.1022000D+01
EXPONENTS  0.1022000D+01 0.1022000D+01 0.1301000D+00 0.1301000D+00 0.1301000D+00
EXPONENTS  0.4190000D-01 0.4190000D-01 0.4190000D-01 0.1046000D+01 0.1046000D+01
EXPONENTS  0.1046000D+01 0.1046000D+01 0.1046000D+01 0.1046000D+01 0.3440000D+00
EXPONENTS  0.3440000D+00 0.3440000D+00 0.3440000D+00 0.3440000D+00 0.3440000D+00
EXPONENTS  0.1350000D+00 0.1350000D+00 0.1350000D+00 0.1350000D+00 0.1350000D+00
EXPONENTS  0.1350000D+00 0.7060000D+00 0.7060000D+00 0.7060000D+00 0.7060000D+00
EXPONENTS  0.7060000D+00 0.7060000D+00 0.7060000D+00 0.7060000D+00 0.7060000D+00
EXPONENTS  0.7060000D+00 0.3120000D+00 0.3120000D+00 0.3120000D+00 0.3120000D+00
EXPONENTS  0.3120000D+00 0.3120000D+00 0.3120000D+00 0.3120000D+00 0.3120000D+00
EXPONENTS  0.3120000D+00 0.4561000D+06 0.6833000D+05 0.1555000D+05 0.4405000D+04
EXPONENTS  0.1439000D+04 0.5204000D+03 0.2031000D+03 0.8396000D+02 0.3620000D+02
EXPONENTS  0.1583000D+02 0.6334000D+01 0.4405000D+04 0.1439000D+04 0.5204000D+03
EXPONENTS  0.2031000D+03 0.8396000D+02 0.3620000D+02 0.1583000D+02 0.6334000D+01
EXPONENTS  0.2694000D+01 0.1439000D+04 0.2031000D+03 0.8396000D+02 0.3620000D+02
EXPONENTS  0.1583000D+02 0.6334000D+01 0.2694000D+01 0.4313000D+00 0.9768000D+00
EXPONENTS  0.1625000D+00 0.5910000D-01 0.6633000D+03 0.1568000D+03 0.4998000D+02
EXPONENTS  0.1842000D+02 0.7240000D+01 0.2922000D+01 0.6633000D+03 0.1568000D+03
EXPONENTS  0.4998000D+02 0.1842000D+02 0.7240000D+01 0.2922000D+01 0.6633000D+03
EXPONENTS  0.1568000D+03 0.4998000D+02 0.1842000D+02 0.7240000D+01 0.2922000D+01
EXPONENTS  0.1568000D+03 0.4998000D+02 0.1842000D+02 0.7240000D+01 0.2922000D+01
EXPONENTS  0.3818000D+00 0.1568000D+03 0.4998000D+02 0.1842000D+02 0.7240000D+01
EXPONENTS  0.2922000D+01 0.3818000D+00 0.1568000D+03 0.4998000D+02 0.1842000D+02
EXPONENTS  0.7240000D+01 0.2922000D+01 0.3818000D+00 0.1022000D+01 0.1022000D+01
EXPONENTS  0.1022000D+01 0.1301000D+00 0.1301000D+00 0.1301000D+00 0.4190000D-01
EXPONENTS  0.4190000D-01 0.4190000D-01 0.1046000D+01 0.1046000D+01 0.1046000D+01
EXPONENTS  0.1046000D+01 0.1046000D+01 0.1046000D+01 0.3440000D+00 0.3440000D+00
EXPONENTS  0.3440000D+00 0.3440000D+00 0.3440000D+00 0.3440000D+00 0.1350000D+00
EXPONENTS  0.1350000D+00 0.1350000D+00 0.1350000D+00 0.1350000D+00 0.1350000D+00
EXPONENTS  0.7060000D+00 0.7060000D+00 0.7060000D+00 0.7060000D+00 0.7060000D+00
EXPONENTS  0.7060000D+00 0.7060000D+00 0.7060000D+00 0.7060000D+00 0.7060000D+00
EXPONENTS  0.3120000D+00 0.3120000D+00 0.3120000D+00 0.3120000D+00 0.3120000D+00
EXPONENTS  0.3120000D+00 0.3120000D+00 0.3120000D+00 0.3120000D+00 0.3120000D+00
EXPONENTS  0.3741000D+06 0.5605000D+05 0.1276000D+05 0.3615000D+04 0.1183000D+04
EXPONENTS  0.4288000D+03 0.1678000D+03 0.6947000D+02 0.2984000D+02 0.1272000D+02
EXPONENTS  0.5244000D+01 0.3615000D+04 0.1183000D+04 0.4288000D+03 0.1678000D+03
EXPONENTS  0.6947000D+02 0.2984000D+02 0.1272000D+02 0.5244000D+01 0.2219000D+01
EXPONENTS  0.1183000D+04 0.1678000D+03 0.6947000D+02 0.2984000D+02 0.1272000D+02
EXPONENTS  0.5244000D+01 0.2219000D+01 0.3490000D+00 0.7767000D+00 0.1322000D+00
EXPONENTS  0.4970000D-01 0.5744000D+03 0.1358000D+03 0.4319000D+02 0.1587000D+02
EXPONENTS  0.6208000D+01 0.2483000D+01 0.5744000D+03 0.1358000D+03 0.4319000D+02
EXPONENTS  0.1587000D+02 0.6208000D+01 0.2483000D+01 0.5744000D+03 0.1358000D+03
EXPONENTS  0.4319000D+02 0.1587000D+02 0.6208000D+01 0.2483000D+01 0.1358000D+03
EXPONENTS  0.4319000D+02 0.1587000D+02 0.6208000D+01 0.2483000D+01 0.3229000D+00
EXPONENTS  0.1358000D+03 0.4319000D+02 0.1587000D+02 0.6208000D+01 0.2483000D+01
EXPONENTS  0.3229000D+00 0.1358000D+03 0.4319000D+02 0.1587000D+02 0.6208000D+01
EXPONENTS  0.2483000D+01 0.3229000D+00 0.8688000D+00 0.8688000D+00 0.8688000D+00
EXPONENTS  0.1098000D+00 0.1098000D+00 0.1098000D+00 0.3510000D-01 0.3510000D-01
EXPONENTS  0.3510000D-01 0.2690000D+00 0.2690000D+00 0.2690000D+00 0.2690000D+00
EXPONENTS  0.2690000D+00 0.2690000D+00 0.8190000D+00 0.8190000D+00 0.8190000D+00
EXPONENTS  0.8190000D+00 0.8190000D+00 0.8190000D+00 0.1010000D+00 0.1010000D+00
EXPONENTS  0.1010000D+00 0.1010000D+00 0.1010000D+00 0.1010000D+00 0.5570000D+00
EXPONENTS  0.5570000D+00 0.5570000D+00 0.5570000D+00 0.5570000D+00 0.5570000D+00
EXPONENTS  0.5570000D+00 0.5570000D+00 0.5570000D+00 0.5570000D+00 0.2180000D+00
EXPONENTS  0.2180000D+00 0.2180000D+00 0.2180000D+00 0.2180000D+00 0.2180000D+00
EXPONENTS  0.2180000D+00 0.2180000D+00 0.2180000D+00 0.2180000D+00
MO    1     MO 0.0        OCC NO =    2.0000386  ORB. ENERGY =    0.000000
 -0.10525673D-04 -0.19621975D-04 -0.33163811D-04 -0.49851394D-04 -0.61233509D-04
 -0.51678921D-04 -0.19432624D-04 -0.47007538D-07 -0.35135222D-06 -0.13130835D-05
 -0.36632985D-05 -0.49078100D-05  0.57952084D-05  0.15324745D-05 -0.15806441D-04
 -0.16425091D-05 -0.49716601D-13 -0.46612474D-13 -0.33190858D-13  0.73716696D-03
  0.69114089D-03  0.49213348D-03  0.50675960D-04  0.47511934D-04  0.33831327D-04
 -0.10518953D-13  0.19528265D-03  0.33065533D-04 -0.10518737D-14  0.31020139D-03
 -0.21933060D-04 -0.34429400D-15 -0.10469237D-04 -0.17353965D-05 -0.28830917D-05
  0.38446037D-04 -0.35562945D-04 -0.69919333D-13 -0.14197279D-13  0.27715410D-03
  0.28193452D-05 -0.14435262D-04  0.11615916D-04  0.15104776D-13  0.69703533D-14
  0.27438713D-03  0.16770376D-06  0.66698635D-05 -0.68375672D-05 -0.13982700D-14
  0.77072631D-15  0.18601530D-03  0.10467619D-14  0.24685630D-03  0.60103121D-05
  0.15259157D-14  0.27493809D-04 -0.11438622D-04 -0.46662016D-14 -0.76806271D-03
 -0.65923146D-05  0.24112759D-13 -0.36831178D-15 -0.30193149D-03 -0.46514582D-05
 -0.10602260D-14 -0.21528345D-04  0.47756102D-05  0.21651613D-14  0.92732280D-03
  0.91787644D-05 -0.20740656D-13 -0.14207282D-02 -0.26580308D-02 -0.45924877D-02
 -0.74449621D-02 -0.11305889D-01 -0.15714123D-01 -0.18682888D-01 -0.16643365D-01
 -0.82654472D-02 -0.13306671D-02 -0.14039324D-04 -0.69964985D-05 -0.23339148D-03
 -0.81332257D-03 -0.29289063D-02 -0.64564094D-02 -0.90885406D-02  0.43355301D-03
  0.11893934D-01  0.70328086D-02  0.23808836D-06  0.28838315D-05  0.60139265D-05
  0.17246894D-04  0.89560720D-06 -0.74376972D-04 -0.19217581D-03  0.15657581D-03
  0.38778648D-03 -0.21559243D-03 -0.11213154D-03 -0.36583846D-09 -0.48189483D-09
 -0.53160543D-09 -0.44153993D-09 -0.23446996D-09 -0.60494475D-10 -0.47003168D+01
 -0.61914168D+01 -0.68301019D+01 -0.56729344D+01 -0.30124856D+01 -0.77723703D+00
  0.62975848D+01  0.82953923D+01  0.91511163D+01  0.76007186D+01  0.40361925D+01
  0.10413588D+01  0.16667175D-13 -0.16112752D-12 -0.22720662D-12 -0.32496557D-12
  0.16455799D-14  0.29802408D-12  0.24558583D-03 -0.23741658D-02 -0.33478216D-02
 -0.47882705D-02  0.24247128D-04  0.43912957D-02 -0.31508742D-03  0.30460625D-02
  0.42952661D-02  0.61433667D-02 -0.31109144D-04 -0.56340467D-02 -0.23711830D-11
 -0.30231278D-01  0.40650983D-01  0.26290453D-13  0.34408510D-03 -0.50088068D-03
  0.11076002D-14  0.93490052D-05 -0.19034958D-04  0.10937639D-04 -0.80027099D-03
  0.78933335D-03 -0.52604236D-13 -0.29247174D-13  0.71884824D-03  0.41889430D-04
  0.46592296D-03 -0.50781239D-03  0.25136343D-13  0.16141774D-13 -0.32305927D-03
 -0.24703162D-05  0.92599679D-06  0.15443194D-05  0.85546906D-15 -0.21032873D-15
  0.26892063D-05  0.39839983D-15 -0.26355404D-04 -0.98881613D-05 -0.42614741D-14
  0.55068694D-04  0.37206086D-04  0.30662746D-14  0.23997519D-04 -0.75416022D-05
 -0.67693668D-14 -0.18833350D-14  0.82874673D-04 -0.41527591D-04  0.66231109D-14
 -0.95804035D-05  0.41844509D-04 -0.97310607D-15 -0.23904362D-03  0.82738266D-04
  0.12205547D-13  0.12959335D-02  0.24245532D-02  0.41890902D-02  0.67910073D-02
  0.10312796D-01  0.14333817D-01  0.17041810D-01  0.15181436D-01  0.75394222D-02
  0.12137832D-02  0.12806130D-04  0.63811758D-05  0.21286534D-03  0.74179310D-03
  0.26713171D-02  0.58885860D-02  0.82892286D-02 -0.39542322D-03 -0.10847895D-01
 -0.64142924D-02 -0.22612224D-06 -0.27388925D-05 -0.57116715D-05 -0.16380080D-04
 -0.85059472D-06  0.70638847D-04  0.18251721D-03 -0.14870644D-03 -0.36425655D-03
  0.19220544D-03  0.99425997D-04  0.35039953D-09  0.46155815D-09  0.50917089D-09
  0.42290629D-09  0.22457497D-09  0.57941517D-10 -0.50497183D+01 -0.66516603D+01
 -0.73378225D+01 -0.60946361D+01 -0.32364209D+01 -0.83501351D+00 -0.68484870D+01
 -0.90210594D+01 -0.99516407D+01 -0.82656168D+01 -0.43892719D+01 -0.11324551D+01
 -0.15191642D-13  0.14686302D-12  0.20709219D-12  0.29619661D-12 -0.14998980D-14
 -0.27164023D-12  0.26125389D-03 -0.25256345D-02 -0.35614084D-02 -0.50937561D-02
  0.25794064D-04  0.46714547D-02  0.34254825D-03 -0.33115361D-02 -0.46696115D-02
 -0.66787797D-02  0.33820400D-04  0.61250709D-02  0.22964921D-11 -0.32490288D-01
 -0.44228142D-01 -0.20693981D-13  0.35573474D-03  0.51406651D-03 -0.56739310D-15
  0.10161179D-04  0.19945203D-04 -0.93013606D-05  0.84212987D-03 -0.83282851D-03
 -0.42549676D-13  0.22392100D-13  0.75024742D-03 -0.42115783D-04 -0.49553081D-03
  0.53764659D-03  0.24820540D-13 -0.16396104D-13 -0.36034445D-03  0.19844803D-05
  0.27987161D-05 -0.47831964D-05  0.10524733D-16  0.35262657D-15  0.41521839D-05
  0.55781316D-16 -0.22764497D-04  0.10159194D-04  0.31410082D-14  0.50169917D-04
 -0.36456692D-04 -0.33083521D-14  0.18123573D-04  0.59791112D-05  0.44667428D-15
  0.16177984D-14  0.86975982D-04  0.41377549D-04 -0.55666479D-14 -0.10320225D-04
 -0.45696638D-04  0.71325275D-15 -0.25060772D-03 -0.78436010D-04  0.91668578D-14
  0.44823680D-05  0.83802385D-05  0.14483543D-04  0.23426534D-04  0.35408422D-04
  0.48764728D-04  0.57000029D-04  0.49263279D-04  0.22991429D-04  0.31148341D-05
 -0.22782345D-07  0.54643155D-07  0.70243226D-06  0.25623719D-05  0.86453793D-05
  0.18989132D-04  0.24528779D-04 -0.39419835D-05 -0.33068556D-04 -0.18147597D-04
  0.11352162D-07  0.12930819D-06  0.26849041D-06  0.73828044D-06 -0.95726538D-07
 -0.33381679D-05 -0.83259210D-05  0.68920768D-05  0.60844465D-05  0.41795404D-04
  0.82020174D-05  0.14905902D-09  0.19555696D-09  0.21448366D-09  0.17647070D-09
  0.93025317D-10  0.24203438D-10  0.82564708D+00  0.10832020D+01  0.11880382D+01
  0.97748202D+00  0.51527294D+00  0.13406433D+00 -0.24833579D-01 -0.32580243D-01
 -0.35733476D-01 -0.29400428D-01 -0.15498234D-01 -0.40323489D-02  0.80749299D-15
  0.28985470D-13  0.45986175D-13  0.54607173D-13  0.82635045D-14 -0.60140238D-13
  0.22653974D-04  0.81317871D-03  0.12901284D-02  0.15319879D-02  0.23183015D-03
 -0.16872164D-02 -0.29688878D-06 -0.10657010D-04 -0.16907613D-04 -0.20077272D-04
 -0.30382205D-05  0.22111599D-04  0.11317702D-11  0.58138985D-02 -0.17390264D-03
 -0.11374919D-14 -0.51992649D-03 -0.94007117D-06 -0.18546634D-15 -0.66949343D-05
  0.10437172D-06  0.24539146D-05  0.29127870D-05 -0.53667016D-05  0.50243124D-14
  0.78602321D-14  0.69050862D-03 -0.39625771D-05  0.44450910D-05 -0.48251387D-06
 -0.90883218D-14 -0.37868125D-14 -0.10257651D-03  0.67358052D-06 -0.30502061D-06
 -0.36855991D-06  0.49180865D-15  0.17388767D-15  0.76463573D-04  0.98313765D-15
  0.62950564D-04  0.22678079D-05 -0.50240118D-15  0.22445387D-04  0.11944316D-05
 -0.24470118D-14 -0.21129708D-03 -0.79978553D-05 -0.77180584D-15  0.16419165D-15
  0.27127144D-04  0.57815649D-06  0.41417095D-15  0.21758096D-05 -0.14183145D-05
 -0.90674589D-15 -0.83557243D-04 -0.31615497D-06 -0.31534097D-14
MO    2     MO 0.0        OCC NO =    2.0000377  ORB. ENERGY =    0.000000
 -0.57837738D-03 -0.10782120D-02 -0.18223251D-02 -0.27392945D-02 -0.33647327D-02
 -0.28397157D-02 -0.10678073D-02 -0.10990886D-05 -0.82150066D-05 -0.30701355D-04
 -0.85652001D-04 -0.11475007D-03  0.13549843D-03  0.17040866D-04 -0.44538966D-03
 -0.64079020D-04 -0.27344055D-12 -0.25636790D-12 -0.18254922D-12 -0.46282480D-05
 -0.43392766D-05 -0.30898235D-05  0.82568817D-03  0.77413515D-03  0.55123034D-03
 -0.60108090D-13 -0.91965735D-05  0.58513156D-03 -0.60474171D-14 -0.77825333D-05
 -0.50876211D-03  0.38286952D-15  0.55814303D-06 -0.45842146D-04 -0.64611056D-04
  0.72225649D-03 -0.65764543D-03 -0.11301630D-13  0.78634888D-13 -0.14255055D-04
  0.63782194D-04 -0.11779931D-03  0.54017114D-04  0.31366020D-14 -0.11665875D-13
 -0.10498209D-04  0.48374899D-05  0.16351568D-03 -0.16835317D-03 -0.64615789D-15
  0.51866011D-14 -0.97283594D-05  0.58097172D-14 -0.82889946D-05  0.10302074D-03
 -0.12302112D-13 -0.11052663D-05 -0.19523267D-03 -0.51270397D-14  0.25972250D-04
 -0.11382956D-03  0.43330607D-14 -0.16872569D-14  0.10646605D-04 -0.76395764D-04
  0.86623085D-14  0.34778581D-06  0.10004933D-03 -0.36005377D-14 -0.32287601D-04
  0.12913797D-03 -0.35239159D-14 -0.63854378D-03 -0.11946473D-02 -0.20640855D-02
 -0.33461251D-02 -0.50814121D-02 -0.70626847D-02 -0.83969910D-02 -0.74803313D-02
 -0.37148907D-02 -0.59806598D-03 -0.63099493D-05 -0.33924638D-05 -0.11316691D-03
 -0.39436403D-03 -0.14201687D-02 -0.31305853D-02 -0.44068536D-02  0.21022128D-03
  0.57671333D-02  0.34100698D-02  0.29963739D-06  0.36293405D-05  0.75686070D-05
  0.21705447D-04  0.11271336D-05 -0.93604415D-04 -0.24185583D-03  0.19705275D-03
  0.93418764D-04 -0.33738171D-03 -0.16443504D-03  0.54980200D-09  0.72421785D-09
  0.79892566D-09  0.66357031D-09  0.35237425D-09  0.90914398D-10  0.43917581D+01
  0.57849727D+01  0.63817305D+01  0.53005269D+01  0.28147268D+01  0.72621424D+00
 -0.73043920D+01 -0.96215930D+01 -0.10614123D+02 -0.88158604D+01 -0.46814665D+01
 -0.12078428D+01 -0.21308285D-13  0.20599479D-12  0.29047416D-12  0.41545489D-12
 -0.21038051D-14 -0.38101131D-12 -0.19258232D-03  0.18617620D-02  0.26252788D-02
  0.37548431D-02 -0.19013997D-04 -0.34435453D-02  0.34413500D-03 -0.33268757D-02
 -0.46912421D-02 -0.67097171D-02  0.33977063D-04  0.61534435D-02  0.36384361D-11
  0.28369449D-01 -0.47260980D-01 -0.23211405D-13 -0.15484269D-03  0.15574013D-03
 -0.10137076D-14 -0.11030212D-04  0.14121418D-04  0.15146586D-04  0.50361534D-03
 -0.51876193D-03  0.32701106D-13  0.37302636D-13 -0.47162458D-03  0.24248029D-04
 -0.30486527D-03  0.28061724D-03 -0.27568693D-13 -0.17576805D-13  0.42927006D-03
 -0.27190534D-05  0.47686525D-04 -0.44967471D-04  0.19988858D-14  0.94275872D-17
 -0.26633497D-04 -0.54970593D-15 -0.31430241D-04  0.13936401D-05 -0.41494436D-14
  0.60212575D-04  0.27667546D-04  0.57985614D-14  0.34078148D-04 -0.31848466D-04
  0.13616777D-14  0.21150137D-14 -0.50072744D-04 -0.10608419D-04 -0.28588860D-14
  0.18557682D-04 -0.42884459D-04 -0.34861549D-14  0.13166055D-03  0.74709717D-04
 -0.83220969D-14 -0.87562466D-03 -0.16382003D-02 -0.28304468D-02 -0.45884868D-02
 -0.69680574D-02 -0.96849443D-02 -0.11514657D-01 -0.10257656D-01 -0.50941690D-02
 -0.82011811D-03 -0.86527305D-05 -0.45261551D-05 -0.15098496D-03 -0.52615235D-03
 -0.18947598D-02 -0.41767622D-02 -0.58795331D-02  0.28047289D-03  0.76943901D-02
  0.45496447D-02  0.30244067D-06  0.36632950D-05  0.76394156D-05  0.21908514D-04
  0.11376786D-05 -0.94480137D-04 -0.24411853D-03  0.19889629D-03  0.16022880D-03
 -0.36755112D-03 -0.17602696D-03  0.63081726D-09  0.83093391D-09  0.91665017D-09
  0.76134974D-09  0.40429784D-09  0.10431096D-09 -0.40149256D+01 -0.52885962D+01
 -0.58341495D+01 -0.48457180D+01 -0.25732107D+01 -0.66390181D+00 -0.67699941D+01
 -0.89176660D+01 -0.98375815D+01 -0.81708817D+01 -0.43389649D+01 -0.11194756D+01
 -0.24844408D-13  0.24017975D-12  0.33867852D-12  0.48439987D-12 -0.24529328D-14
 -0.44424037D-12  0.17380146D-03 -0.16802007D-02 -0.23692583D-02 -0.33886661D-02
  0.17159728D-04  0.31077265D-02  0.31825209D-03 -0.30766564D-02 -0.43384067D-02
 -0.62050693D-02  0.31421597D-04  0.56906338D-02  0.41891805D-11 -0.25946523D-01
 -0.43819378D-01 -0.24956641D-13  0.12782117D-03  0.11456873D-03 -0.12469390D-14
  0.10189339D-04  0.12343184D-04  0.16401564D-04  0.44403829D-03 -0.46043985D-03
 -0.45858271D-13  0.45057958D-13  0.40886625D-03  0.27325775D-04 -0.27341069D-03
  0.24608491D-03  0.35119817D-13 -0.22900113D-13 -0.40609090D-03 -0.32913574D-05
  0.47622366D-04 -0.44331008D-04 -0.24524271D-14  0.56291813D-15  0.24897437D-04
  0.57577826D-15  0.33974238D-04  0.62702323D-06 -0.51740071D-14 -0.65767680D-04
  0.31120978D-04  0.34466723D-14 -0.36155034D-04 -0.33002047D-04 -0.26481978D-14
  0.23050788D-14  0.44461765D-04 -0.13358156D-04 -0.38102628D-14 -0.17444907D-04
 -0.40433287D-04 -0.31049737D-14 -0.11594039D-03  0.80507754D-04  0.10816402D-13
  0.51051014D-03  0.95445012D-03  0.16495735D-02  0.26681171D-02  0.40327698D-02
  0.55539589D-02  0.64919017D-02  0.56107404D-02  0.26185618D-02  0.35475766D-03
 -0.25947486D-05  0.64256230D-05  0.82600737D-04  0.30131562D-03  0.10166314D-02
  0.22329788D-02  0.28843995D-02 -0.46354754D-03 -0.38886129D-02 -0.21340206D-02
  0.24219877D-06  0.27587946D-05  0.57282521D-05  0.15751238D-04 -0.20423290D-05
 -0.71219927D-04 -0.17763381D-03  0.14704269D-03 -0.22114335D-04  0.11711803D-02
  0.25690881D-03 -0.30550987D-10 -0.40081158D-10 -0.43960356D-10 -0.36169256D-10
 -0.19066375D-10 -0.49607122D-11 -0.14874317D-01 -0.19514259D-01 -0.21402918D-01
 -0.17609677D-01 -0.92828202D-02 -0.24152152D-02 -0.57460001D+00 -0.75384254D+00
 -0.82680212D+00 -0.68026788D+00 -0.35859854D+00 -0.93300596D-01 -0.96420914D-15
 -0.34610896D-13 -0.54911054D-13 -0.65205192D-13 -0.98672642D-14  0.71812100D-13
 -0.64956637D-06 -0.23316595D-04 -0.36992362D-04 -0.43927295D-04 -0.66473576D-05
  0.48378223D-04 -0.46279061D-05 -0.16612161D-03 -0.26355610D-03 -0.31296478D-03
 -0.47359820D-04  0.34467590D-03 -0.17315136D-12 -0.10966030D-03 -0.39451960D-02
  0.38700158D-14  0.20422331D-04 -0.11375771D-03  0.17123848D-15  0.23366001D-06
  0.21982175D-07  0.21556574D-04  0.46840801D-04 -0.68397375D-04  0.94594159D-15
 -0.63909340D-14 -0.23904870D-04 -0.92140047D-04  0.91982960D-04  0.15708684D-06
 -0.61677801D-15  0.10613775D-13  0.19946700D-05  0.10666338D-04 -0.89869651D-05
 -0.16793726D-05  0.20264139D-15  0.14786157D-14 -0.31432153D-05 -0.11385938D-14
 -0.24611758D-05  0.34101748D-04 -0.10957291D-14 -0.11735362D-05  0.44335369D-04
  0.45115104D-14  0.85570635D-05 -0.14664061D-03 -0.36003080D-15  0.30823504D-15
 -0.93418232D-06  0.99385779D-05 -0.16861639D-14  0.12151828D-06 -0.20430149D-04
  0.76145876D-15  0.26810287D-05 -0.93855849D-05 -0.69043276D-15
MO    3     MO 0.0        OCC NO =    2.0000330  ORB. ENERGY =    0.000000
  0.20077441D-12  0.37428395D-12  0.63259086D-12  0.95090206D-12  0.11680129D-11
  0.98576165D-12  0.37067212D-12 -0.47989325D-16 -0.35869047D-15 -0.13405082D-14
 -0.37398091D-14 -0.50103132D-14  0.59162457D-14  0.53344926D-13 -0.18555983D-12
 -0.72813164D-13  0.30725077D-04  0.28806713D-04  0.20512095D-04  0.61431050D-12
  0.57595514D-12  0.41011437D-12 -0.28368446D-12 -0.26597221D-12 -0.18938806D-12
  0.23895075D-05  0.40387439D-13 -0.25644389D-13  0.12828811D-06 -0.12988429D-12
 -0.90085503D-14  0.11794995D-06 -0.36415696D-14 -0.38469763D-14 -0.69865827D-14
  0.60504986D-14  0.93608407D-15  0.11836566D-02 -0.70339752D-05  0.10877105D-12
  0.25129513D-13 -0.24285253D-13 -0.84425957D-15 -0.10949487D-03  0.42111493D-05
  0.11171399D-12  0.28162659D-14 -0.12028702D-13  0.92124363D-14  0.11698377D-03
 -0.24541329D-06  0.69602795D-13 -0.82708449D-06  0.59468923D-14 -0.71497542D-14
  0.61865715D-06 -0.26706986D-13  0.11207617D-13  0.18625963D-05  0.88663093D-14
  0.10241645D-13 -0.46828525D-03  0.41515428D-06 -0.13337786D-13 -0.69157105D-14
 -0.29292353D-06  0.19634492D-13  0.36587680D-15 -0.95253930D-06  0.20378867D-13
  0.20381255D-13  0.35300079D-03  0.26115341D-10  0.48859017D-10  0.84417544D-10
  0.13685076D-09  0.20782101D-09  0.28885165D-09  0.34342248D-09  0.30593268D-09
  0.15193264D-09  0.24459869D-10  0.25806607D-12  0.37760300D-13  0.12596204D-11
  0.43895249D-11  0.15807390D-10  0.34845424D-10  0.49051111D-10 -0.23398979D-11
 -0.64191897D-10 -0.37956267D-10  0.10164184D-14  0.12311309D-13  0.25673937D-13
  0.73628381D-13  0.38234193D-14 -0.31752129D-12 -0.82041402D-12  0.66843473D-12
 -0.24261325D-11 -0.14609986D-12 -0.27258224D-13  0.82348502D+01  0.10847224D+02
  0.11966186D+02  0.99388546D+01  0.52778076D+01  0.13617019D+01  0.34310671D-10
  0.45195180D-10  0.49857358D-10  0.41410440D-10  0.21990093D-10  0.56735589D-11
  0.55297926D-09  0.72840304D-09  0.80354258D-09  0.66740503D-09  0.35441059D-09
  0.91439785D-10 -0.36001211D-03  0.34803654D-02  0.49076786D-02  0.70192786D-02
 -0.35544639D-04 -0.64373405D-02  0.17665902D-14 -0.17078258D-13 -0.24082126D-13
 -0.34443811D-13  0.17441861D-15  0.31588223D-13 -0.22797758D-13  0.22039406D-12
  0.31077863D-12  0.44449565D-12 -0.22508634D-14 -0.40764443D-12  0.53934782D-01
  0.40828557D-12  0.37981878D-11 -0.35581507D-03 -0.44479932D-13 -0.15416148D-13
 -0.15049491D-04 -0.47509815D-15  0.20795600D-15  0.72247013D-14 -0.26143439D-13
  0.18918737D-13  0.99382815D-03  0.56565509D-03 -0.27678050D-13  0.18409209D-13
  0.15294721D-13 -0.33703930D-13 -0.47933643D-03 -0.32984156D-03 -0.35410155D-13
 -0.28725622D-14 -0.26284569D-14  0.55010191D-14  0.38814046D-04  0.52153958D-04
 -0.18336580D-14  0.20826762D-04  0.11110787D-14 -0.60240776D-14  0.45866575D-04
  0.17895318D-13  0.14939823D-13 -0.10834686D-03 -0.21228554D-13  0.31324100D-14
 -0.16305445D-04  0.17282192D-04  0.30975960D-14 -0.10415742D-14 -0.85860001D-04
 -0.19719207D-14  0.23519882D-14  0.34013424D-04 -0.73208674D-14  0.77273449D-15
 -0.13825204D-03 -0.28769714D-10 -0.53825066D-10 -0.92997775D-10 -0.15076032D-09
 -0.22894401D-09 -0.31821064D-09 -0.37832806D-09 -0.33702779D-09 -0.16737513D-09
 -0.26945979D-10 -0.28429600D-12 -0.76451961D-13 -0.25503094D-11 -0.88873177D-11
 -0.32004670D-10 -0.70550313D-10 -0.99312070D-10  0.47375094D-11  0.12996709D-09
  0.76848727D-10 -0.19900669D-14 -0.24104570D-13 -0.50267540D-13 -0.14415855D-12
 -0.74859529D-14  0.62168159D-12  0.16063058D-11 -0.13087424D-11  0.48100120D-11
  0.22075387D-12  0.53367912D-13 -0.81922112D+01 -0.10791059D+02 -0.11904227D+02
 -0.98873925D+01 -0.52504798D+01 -0.13546512D+01  0.57782453D-09  0.76113007D-09
  0.83964562D-09  0.69739143D-09  0.37033420D-09  0.95548159D-10 -0.94143368D-09
 -0.12400884D-08 -0.13680116D-08 -0.11362407D-08 -0.60337537D-09 -0.15567400D-09
  0.35879904D-03 -0.34686383D-02 -0.48911420D-02 -0.69956270D-02  0.35424870D-04
  0.64156497D-02 -0.20247101D-13  0.19573594D-12  0.27600811D-12  0.39476461D-12
 -0.19990324D-14 -0.36203638D-12  0.40241989D-13 -0.38903366D-12 -0.54857807D-12
 -0.78461175D-12  0.39731635D-14  0.71956298D-12 -0.53679353D-01  0.43933440D-11
 -0.65370197D-11  0.35110723D-03 -0.53825869D-13  0.89951280D-13  0.14690160D-04
 -0.12478033D-14  0.26379392D-14 -0.28901842D-14  0.46963488D-13 -0.44073304D-13
  0.99199868D-03 -0.56654680D-03 -0.94028379D-14 -0.42008639D-13  0.10135131D-13
  0.31873508D-13 -0.48394962D-03  0.33537943D-03 -0.10972285D-12  0.34830146D-14
 -0.27783908D-14 -0.70462378D-15  0.38884006D-04 -0.52500079D-04 -0.99342657D-14
 -0.21835105D-04 -0.68746825D-14  0.73562607D-14 -0.43850599D-04  0.28565166D-13
 -0.25171742D-13  0.10935591D-03 -0.79411186D-14  0.31029603D-14 -0.19042034D-04
 -0.17267580D-04  0.59614233D-14 -0.35981496D-14  0.85661872D-04  0.72192703D-15
 -0.37171710D-14 -0.33859134D-04 -0.18606197D-13  0.14511620D-13 -0.13992662D-03
 -0.15721454D-11 -0.29392841D-11 -0.50799566D-11 -0.82166204D-11 -0.12419147D-10
 -0.17103736D-10 -0.19992185D-10 -0.17278598D-10 -0.80640117D-11 -0.10924966D-11
  0.79906778D-14  0.88401977D-13  0.11363985D-11  0.41454185D-11  0.13986539D-10
  0.30720716D-10  0.39682785D-10 -0.63773613D-11 -0.53498481D-10 -0.29359276D-10
  0.72708600D-15  0.82819615D-14  0.17196338D-13  0.47285561D-13 -0.61311161D-14
 -0.21380377D-12 -0.53326057D-12  0.44142537D-12 -0.16106805D-11  0.42977062D-13
  0.83249989D-13  0.78102371D-03  0.10246587D-02  0.11238288D-02  0.92465251D-03
  0.48742423D-03  0.12681862D-03 -0.72089452D-09 -0.94577262D-09 -0.10373079D-08
 -0.85346567D-09 -0.44989857D-09 -0.11705515D-09 -0.50083878D-09 -0.65707200D-09
 -0.72066578D-09 -0.59294209D-09 -0.31256536D-09 -0.81323626D-10  0.15697263D-07
  0.56346318D-06  0.89394845D-06  0.10615364D-05  0.16063843D-06 -0.11690964D-05
 -0.53523386D-14 -0.19212557D-12 -0.30481204D-12 -0.36195494D-12 -0.54773323D-13