 cl2cs-wavefunction
GAUSSIAN            196 MOL ORBITALS    414 PRIMITIVES        4 NUCLEI
  C    1    (CENTRE  1)   0.00000000  0.00000000 -0.98816425  CHARGE =  6.0
  Cl   2    (CENTRE  2)   0.00000000 -2.70369732 -2.83628995  CHARGE = 17.0
  Cl   3    (CENTRE  3)   0.00000000  2.70369732 -2.85518721  CHARGE = 17.0
  S    4    (CENTRE  4)   0.00000000  0.00000000  2.04433408  CHARGE = 16.0
CENTRE ASSIGNMENTS    1  1  1  1  1  1  1  1  1  1  1  1  1  1  1  1  1  1  1  1
CENTRE ASSIGNMENTS    1  1  1  1  1  1  1  1  1  1  1  1  1  1  1  1  1  1  1  1
CENTRE ASSIGNMENTS    1  1  1  1  1  1  1  1  1  1  1  1  1  1  1  1  1  1  1  1
CENTRE ASSIGNMENTS    1  1  1  1  1  1  1  1  1  1  1  1  2  2  2  2  2  2  2  2
CENTRE ASSIGNMENTS    2  2  2  2  2  2  2  2  2  2  2  2  2  2  2  2  2  2  2  2
CENTRE ASSIGNMENTS    2  2  2  2  2  2  2  2  2  2  2  2  2  2  2  2  2  2  2  2
CENTRE ASSIGNMENTS    2  2  2  2  2  2  2  2  2  2  2  2  2  2  2  2  2  2  2  2
CENTRE ASSIGNMENTS    2  2  2  2  2  2  2  2  2  2  2  2  2  2  2  2  2  2  2  2
CENTRE ASSIGNMENTS    2  2  2  2  2  2  2  2  2  2  2  2  2  2  2  2  2  2  2  2
CENTRE ASSIGNMENTS    2  2  2  2  2  2  3  3  3  3  3  3  3  3  3  3  3  3  3  3
CENTRE ASSIGNMENTS    3  3  3  3  3  3  3  3  3  3  3  3  3  3  3  3  3  3  3  3
CENTRE ASSIGNMENTS    3  3  3  3  3  3  3  3  3  3  3  3  3  3  3  3  3  3  3  3
CENTRE ASSIGNMENTS    3  3  3  3  3  3  3  3  3  3  3  3  3  3  3  3  3  3  3  3
CENTRE ASSIGNMENTS    3  3  3  3  3  3  3  3  3  3  3  3  3  3  3  3  3  3  3  3
CENTRE ASSIGNMENTS    3  3  3  3  3  3  3  3  3  3  3  3  3  3  3  3  3  3  3  3
CENTRE ASSIGNMENTS    4  4  4  4  4  4  4  4  4  4  4  4  4  4  4  4  4  4  4  4
CENTRE ASSIGNMENTS    4  4  4  4  4  4  4  4  4  4  4  4  4  4  4  4  4  4  4  4
CENTRE ASSIGNMENTS    4  4  4  4  4  4  4  4  4  4  4  4  4  4  4  4  4  4  4  4
CENTRE ASSIGNMENTS    4  4  4  4  4  4  4  4  4  4  4  4  4  4  4  4  4  4  4  4
CENTRE ASSIGNMENTS    4  4  4  4  4  4  4  4  4  4  4  4  4  4  4  4  4  4  4  4
CENTRE ASSIGNMENTS    4  4  4  4  4  4  4  4  4  4  4  4  4  4
TYPE ASSIGNMENTS      1  1  1  1  1  1  1  1  1  1  1  1  1  1  1  1  2  2  2  3
TYPE ASSIGNMENTS      3  3  4  4  4  2  3  4  2  3  4  2  3  4  5  6  7  8  9 10
TYPE ASSIGNMENTS      5  6  7  8  9 10  5  6  7  8  9 10 11 12 13 17 14 15 18 19
TYPE ASSIGNMENTS     16 20 11 12 13 17 14 15 18 19 16 20  1  1  1  1  1  1  1  1
TYPE ASSIGNMENTS      1  1  1  1  1  1  1  1  1  1  1  1  1  1  1  1  1  1  1  1
TYPE ASSIGNMENTS      1  1  1  2  2  2  2  2  2  3  3  3  3  3  3  4  4  4  4  4
TYPE ASSIGNMENTS      4  2  2  2  2  2  2  3  3  3  3  3  3  4  4  4  4  4  4  2
TYPE ASSIGNMENTS      3  4  2  3  4  2  3  4  5  6  7  8  9 10  5  6  7  8  9 10
TYPE ASSIGNMENTS      5  6  7  8  9 10 11 12 13 17 14 15 18 19 16 20 11 12 13 17
TYPE ASSIGNMENTS     14 15 18 19 16 20  1  1  1  1  1  1  1  1  1  1  1  1  1  1
TYPE ASSIGNMENTS      1  1  1  1  1  1  1  1  1  1  1  1  1  1  1  1  1  2  2  2
TYPE ASSIGNMENTS      2  2  2  3  3  3  3  3  3  4  4  4  4  4  4  2  2  2  2  2
TYPE ASSIGNMENTS      2  3  3  3  3  3  3  4  4  4  4  4  4  2  3  4  2  3  4  2
TYPE ASSIGNMENTS      3  4  5  6  7  8  9 10  5  6  7  8  9 10  5  6  7  8  9 10
TYPE ASSIGNMENTS     11 12 13 17 14 15 18 19 16 20 11 12 13 17 14 15 18 19 16 20
TYPE ASSIGNMENTS      1  1  1  1  1  1  1  1  1  1  1  1  1  1  1  1  1  1  1  1
TYPE ASSIGNMENTS      1  1  1  1  1  1  1  1  1  1  1  2  2  2  2  2  2  3  3  3
TYPE ASSIGNMENTS      3  3  3  4  4  4  4  4  4  2  2  2  2  2  2  3  3  3  3  3
TYPE ASSIGNMENTS      3  4  4  4  4  4  4  2  3  4  2  3  4  2  3  4  5  6  7  8
TYPE ASSIGNMENTS      9 10  5  6  7  8  9 10  5  6  7  8  9 10 11 12 13 17 14 15
TYPE ASSIGNMENTS     18 19 16 20 11 12 13 17 14 15 18 19 16 20
EXPONENTS  0.8236000D+04 0.1235000D+04 0.2808000D+03 0.7927000D+02 0.2559000D+02
EXPONENTS  0.8997000D+01 0.3319000D+01 0.2808000D+03 0.7927000D+02 0.2559000D+02
EXPONENTS  0.8997000D+01 0.3319000D+01 0.3643000D+00 0.9059000D+00 0.1285000D+00
EXPONENTS  0.4402000D-01 0.1871000D+02 0.4133000D+01 0.1200000D+01 0.1871000D+02
EXPONENTS  0.4133000D+01 0.1200000D+01 0.1871000D+02 0.4133000D+01 0.1200000D+01
EXPONENTS  0.3827000D+00 0.3827000D+00 0.3827000D+00 0.1209000D+00 0.1209000D+00
EXPONENTS  0.1209000D+00 0.3569000D-01 0.3569000D-01 0.3569000D-01 0.1097000D+01
EXPONENTS  0.1097000D+01 0.1097000D+01 0.1097000D+01 0.1097000D+01 0.1097000D+01
EXPONENTS  0.3180000D+00 0.3180000D+00 0.3180000D+00 0.3180000D+00 0.3180000D+00
EXPONENTS  0.3180000D+00 0.1000000D+00 0.1000000D+00 0.1000000D+00 0.1000000D+00
EXPONENTS  0.1000000D+00 0.1000000D+00 0.7610000D+00 0.7610000D+00 0.7610000D+00
EXPONENTS  0.7610000D+00 0.7610000D+00 0.7610000D+00 0.7610000D+00 0.7610000D+00
EXPONENTS  0.7610000D+00 0.7610000D+00 0.2680000D+00 0.2680000D+00 0.2680000D+00
EXPONENTS  0.2680000D+00 0.2680000D+00 0.2680000D+00 0.2680000D+00 0.2680000D+00
EXPONENTS  0.2680000D+00 0.2680000D+00 0.4561000D+06 0.6833000D+05 0.1555000D+05
EXPONENTS  0.4405000D+04 0.1439000D+04 0.5204000D+03 0.2031000D+03 0.8396000D+02
EXPONENTS  0.3620000D+02 0.1583000D+02 0.6334000D+01 0.4405000D+04 0.1439000D+04
EXPONENTS  0.5204000D+03 0.2031000D+03 0.8396000D+02 0.3620000D+02 0.1583000D+02
EXPONENTS  0.6334000D+01 0.2694000D+01 0.1439000D+04 0.2031000D+03 0.8396000D+02
EXPONENTS  0.3620000D+02 0.1583000D+02 0.6334000D+01 0.2694000D+01 0.4313000D+00
EXPONENTS  0.9768000D+00 0.1625000D+00 0.5910000D-01 0.6633000D+03 0.1568000D+03
EXPONENTS  0.4998000D+02 0.1842000D+02 0.7240000D+01 0.2922000D+01 0.6633000D+03
EXPONENTS  0.1568000D+03 0.4998000D+02 0.1842000D+02 0.7240000D+01 0.2922000D+01
EXPONENTS  0.6633000D+03 0.1568000D+03 0.4998000D+02 0.1842000D+02 0.7240000D+01
EXPONENTS  0.2922000D+01 0.1568000D+03 0.4998000D+02 0.1842000D+02 0.7240000D+01
EXPONENTS  0.2922000D+01 0.3818000D+00 0.1568000D+03 0.4998000D+02 0.1842000D+02
EXPONENTS  0.7240000D+01 0.2922000D+01 0.3818000D+00 0.1568000D+03 0.4998000D+02
EXPONENTS  0.1842000D+02 0.7240000D+01 0.2922000D+01 0.3818000D+00 0.1022000D+01
EXPONENTS  0.1022000D+01 0.1022000D+01 0.1301000D+00 0.1301000D+00 0.1301000D+00
EXPONENTS  0.4190000D-01 0.4190000D-01 0.4190000D-01 0.1046000D+01 0.1046000D+01
EXPONENTS  0.1046000D+01 0.1046000D+01 0.1046000D+01 0.1046000D+01 0.3440000D+00
EXPONENTS  0.3440000D+00 0.3440000D+00 0.3440000D+00 0.3440000D+00 0.3440000D+00
EXPONENTS  0.1350000D+00 0.1350000D+00 0.1350000D+00 0.1350000D+00 0.1350000D+00
EXPONENTS  0.1350000D+00 0.7060000D+00 0.7060000D+00 0.7060000D+00 0.7060000D+00
EXPONENTS  0.7060000D+00 0.7060000D+00 0.7060000D+00 0.7060000D+00 0.7060000D+00
EXPONENTS  0.7060000D+00 0.3120000D+00 0.3120000D+00 0.3120000D+00 0.3120000D+00
EXPONENTS  0.3120000D+00 0.3120000D+00 0.3120000D+00 0.3120000D+00 0.3120000D+00
EXPONENTS  0.3120000D+00 0.4561000D+06 0.6833000D+05 0.1555000D+05 0.4405000D+04
EXPONENTS  0.1439000D+04 0.5204000D+03 0.2031000D+03 0.8396000D+02 0.3620000D+02
EXPONENTS  0.1583000D+02 0.6334000D+01 0.4405000D+04 0.1439000D+04 0.5204000D+03
EXPONENTS  0.2031000D+03 0.8396000D+02 0.3620000D+02 0.1583000D+02 0.6334000D+01
EXPONENTS  0.2694000D+01 0.1439000D+04 0.2031000D+03 0.8396000D+02 0.3620000D+02
EXPONENTS  0.1583000D+02 0.6334000D+01 0.2694000D+01 0.4313000D+00 0.9768000D+00
EXPONENTS  0.1625000D+00 0.5910000D-01 0.6633000D+03 0.1568000D+03 0.4998000D+02
EXPONENTS  0.1842000D+02 0.7240000D+01 0.2922000D+01 0.6633000D+03 0.1568000D+03
EXPONENTS  0.4998000D+02 0.1842000D+02 0.7240000D+01 0.2922000D+01 0.6633000D+03
EXPONENTS  0.1568000D+03 0.4998000D+02 0.1842000D+02 0.7240000D+01 0.2922000D+01
EXPONENTS  0.1568000D+03 0.4998000D+02 0.1842000D+02 0.7240000D+01 0.2922000D+01
EXPONENTS  0.3818000D+00 0.1568000D+03 0.4998000D+02 0.1842000D+02 0.7240000D+01
EXPONENTS  0.2922000D+01 0.3818000D+00 0.1568000D+03 0.4998000D+02 0.1842000D+02
EXPONENTS  0.7240000D+01 0.2922000D+01 0.3818000D+00 0.1022000D+01 0.1022000D+01
EXPONENTS  0.1022000D+01 0.1301000D+00 0.1301000D+00 0.1301000D+00 0.4190000D-01
EXPONENTS  0.4190000D-01 0.4190000D-01 0.1046000D+01 0.1046000D+01 0.1046000D+01
EXPONENTS  0.1046000D+01 0.1046000D+01 0.1046000D+01 0.3440000D+00 0.3440000D+00
EXPONENTS  0.3440000D+00 0.3440000D+00 0.3440000D+00 0.3440000D+00 0.1350000D+00
EXPONENTS  0.1350000D+00 0.1350000D+00 0.1350000D+00 0.1350000D+00 0.1350000D+00
EXPONENTS  0.7060000D+00 0.7060000D+00 0.7060000D+00 0.7060000D+00 0.7060000D+00
EXPONENTS  0.7060000D+00 0.7060000D+00 0.7060000D+00 0.7060000D+00 0.7060000D+00
EXPONENTS  0.3120000D+00 0.3120000D+00 0.3120000D+00 0.3120000D+00 0.3120000D+00
EXPONENTS  0.3120000D+00 0.3120000D+00 0.3120000D+00 0.3120000D+00 0.3120000D+00
EXPONENTS  0.3741000D+06 0.5605000D+05 0.1276000D+05 0.3615000D+04 0.1183000D+04
EXPONENTS  0.4288000D+03 0.1678000D+03 0.6947000D+02 0.2984000D+02 0.1272000D+02
EXPONENTS  0.5244000D+01 0.3615000D+04 0.1183000D+04 0.4288000D+03 0.1678000D+03
EXPONENTS  0.6947000D+02 0.2984000D+02 0.1272000D+02 0.5244000D+01 0.2219000D+01
EXPONENTS  0.1183000D+04 0.1678000D+03 0.6947000D+02 0.2984000D+02 0.1272000D+02
EXPONENTS  0.5244000D+01 0.2219000D+01 0.3490000D+00 0.7767000D+00 0.1322000D+00
EXPONENTS  0.4970000D-01 0.5744000D+03 0.1358000D+03 0.4319000D+02 0.1587000D+02
EXPONENTS  0.6208000D+01 0.2483000D+01 0.5744000D+03 0.1358000D+03 0.4319000D+02
EXPONENTS  0.1587000D+02 0.6208000D+01 0.2483000D+01 0.5744000D+03 0.1358000D+03
EXPONENTS  0.4319000D+02 0.1587000D+02 0.6208000D+01 0.2483000D+01 0.1358000D+03
EXPONENTS  0.4319000D+02 0.1587000D+02 0.6208000D+01 0.2483000D+01 0.3229000D+00
EXPONENTS  0.1358000D+03 0.4319000D+02 0.1587000D+02 0.6208000D+01 0.2483000D+01
EXPONENTS  0.3229000D+00 0.1358000D+03 0.4319000D+02 0.1587000D+02 0.6208000D+01
EXPONENTS  0.2483000D+01 0.3229000D+00 0.8688000D+00 0.8688000D+00 0.8688000D+00
EXPONENTS  0.1098000D+00 0.1098000D+00 0.1098000D+00 0.3510000D-01 0.3510000D-01
EXPONENTS  0.3510000D-01 0.2690000D+00 0.2690000D+00 0.2690000D+00 0.2690000D+00
EXPONENTS  0.2690000D+00 0.2690000D+00 0.8190000D+00 0.8190000D+00 0.8190000D+00
EXPONENTS  0.8190000D+00 0.8190000D+00 0.8190000D+00 0.1010000D+00 0.1010000D+00
EXPONENTS  0.1010000D+00 0.1010000D+00 0.1010000D+00 0.1010000D+00 0.5570000D+00
EXPONENTS  0.5570000D+00 0.5570000D+00 0.5570000D+00 0.5570000D+00 0.5570000D+00
EXPONENTS  0.5570000D+00 0.5570000D+00 0.5570000D+00 0.5570000D+00 0.2180000D+00
EXPONENTS  0.2180000D+00 0.2180000D+00 0.2180000D+00 0.2180000D+00 0.2180000D+00
EXPONENTS  0.2180000D+00 0.2180000D+00 0.2180000D+00 0.2180000D+00
MO    1     MO 0.0        OCC NO =    2.0000385  ORB. ENERGY =    0.000000
 -0.62607433D-05 -0.11671287D-04 -0.19726065D-04 -0.29651955D-04 -0.36422115D-04
 -0.30738980D-04 -0.11558659D-04  0.21993231D-07  0.16438578D-06  0.61434719D-06
  0.17139330D-05  0.22961977D-05 -0.27113813D-05 -0.25326855D-05  0.16712440D-04
  0.29272009D-05 -0.30722544D-12 -0.28804338D-12 -0.20510405D-12  0.73273519D-03
  0.68698581D-03  0.48917483D-03 -0.31174277D-04 -0.29227866D-04 -0.20811982D-04
 -0.67035473D-13  0.19589197D-03 -0.18660525D-04  0.77861194D-14  0.31233247D-03
  0.14733826D-04  0.31255583D-14 -0.10667173D-04  0.14880207D-05  0.17316565D-05
 -0.27917271D-04  0.26185614D-04 -0.40937301D-13  0.12297857D-12  0.25970989D-03
 -0.22657016D-05  0.95262814D-05 -0.72605798D-05  0.21715842D-14 -0.18782768D-13
  0.28740998D-03 -0.14145691D-06 -0.45180757D-05  0.46595326D-05 -0.52958368D-14
  0.12504555D-13  0.18718400D-03  0.70948752D-14  0.24445412D-03 -0.15421089D-05
 -0.19203292D-13  0.28292972D-04  0.71159805D-05 -0.20813334D-14 -0.76165532D-03
 -0.24896537D-05  0.17882279D-13 -0.26268001D-14 -0.29599034D-03  0.70044548D-06
  0.13963747D-13 -0.22566144D-04 -0.31077752D-05 -0.60833472D-14  0.91053717D-03
  0.10064388D-05 -0.13477898D-13 -0.13023098D-02 -0.24364827D-02 -0.42097016D-02
 -0.68244209D-02 -0.10363538D-01 -0.14404343D-01 -0.17125660D-01 -0.15256133D-01
 -0.75765182D-02 -0.12197553D-02 -0.12869139D-04 -0.64154087D-05 -0.21400729D-03
 -0.74577258D-03 -0.26856478D-02 -0.59201764D-02 -0.83336976D-02  0.39754454D-03
  0.10906091D-01  0.64487030D-02  0.22862823D-06  0.27692462D-05  0.57749710D-05
  0.16561611D-04  0.86002141D-06 -0.71421700D-04 -0.18453996D-03  0.15035447D-03
  0.36267651D-03 -0.20025079D-03 -0.10361393D-03  0.58706300D-09  0.77329930D-09
  0.85307018D-09  0.70854158D-09  0.37625524D-09  0.97075818D-10 -0.49777888D+01
 -0.65569123D+01 -0.72333006D+01 -0.60078225D+01 -0.31903205D+01 -0.82311936D+00
  0.68112249D+01  0.89719766D+01  0.98974946D+01  0.82206442D+01  0.43653902D+01
  0.11262935D+01 -0.22036614D-13  0.21303581D-12  0.30040273D-12  0.42965537D-12
 -0.21757143D-14 -0.39403450D-12  0.25672456D-03 -0.24818479D-02 -0.34996646D-02
 -0.50054462D-02  0.25346875D-04  0.45904662D-02 -0.33907091D-03  0.32779194D-02
  0.46222086D-02  0.66109810D-02 -0.33477077D-04 -0.60628931D-02  0.39033704D-11
 -0.32017290D-01  0.43972441D-01 -0.25577287D-13  0.34506790D-03 -0.51029519D-03
 -0.22151108D-14  0.99121921D-05 -0.20048242D-04  0.76070415D-05 -0.82543149D-03
  0.81782445D-03  0.36193812D-13  0.44554733D-13  0.75338390D-03  0.41676946D-04
  0.47997796D-03 -0.52165491D-03 -0.29816077D-13 -0.17070339D-13 -0.35778078D-03
 -0.17810771D-05 -0.37177585D-05  0.54988357D-05  0.17568232D-14 -0.27751694D-14
  0.46179765D-05 -0.21045833D-14 -0.21831742D-04 -0.96238040D-05 -0.81800307D-14
  0.47967315D-04  0.36177957D-04  0.14493781D-13  0.17527912D-04 -0.73065452D-05
  0.13962314D-13  0.30205552D-14  0.84945332D-04 -0.39754334D-04 -0.21773316D-14
 -0.91209225D-05  0.44618460D-04 -0.68843341D-14 -0.24571507D-03  0.74644543D-04
 -0.12717905D-13  0.13507077D-02  0.25270301D-02  0.43661474D-02  0.70780380D-02
  0.10748680D-01  0.14939654D-01  0.17762104D-01  0.15823099D-01  0.78580856D-02
  0.12650853D-02  0.13347397D-04  0.66663706D-05  0.22237896D-03  0.77494617D-03
  0.27907066D-02  0.61517655D-02  0.86597003D-02 -0.41309593D-03 -0.11332722D-01
 -0.67009674D-02 -0.24623987D-06 -0.29825662D-05 -0.62198274D-05 -0.17837382D-04
 -0.92627041D-06  0.76923442D-04  0.19875540D-03 -0.16193655D-03 -0.36774084D-03
  0.21555086D-03  0.11261711D-03  0.12047498D-08  0.15869373D-08  0.17506402D-08
  0.14540438D-08  0.77213761D-09  0.19921554D-09 -0.47627774D+01 -0.62736920D+01
 -0.69208643D+01 -0.57483197D+01 -0.30525173D+01 -0.78756541D+00 -0.63469390D+01
 -0.83604034D+01 -0.92228337D+01 -0.76602855D+01 -0.40678242D+01 -0.10495199D+01
 -0.49218971D-13  0.47581734D-12  0.67095212D-12  0.95963903D-12 -0.48594769D-14
 -0.88007950D-12  0.24744527D-03 -0.23921417D-02 -0.33731695D-02 -0.48245246D-02
  0.24430714D-04  0.44245441D-02  0.31607132D-03 -0.30555741D-02 -0.43086785D-02
 -0.61625500D-02  0.31206286D-04  0.56516396D-02  0.79539406D-11 -0.30626865D-01
 -0.40962781D-01 -0.48710138D-13  0.34012353D-03  0.49719525D-03 -0.33396190D-14
  0.94165776D-05  0.19136883D-04 -0.81578072D-05  0.79832661D-03 -0.79016881D-03
 -0.10976993D-12  0.89161830D-13  0.70541969D-03 -0.41987234D-04 -0.46109408D-03
  0.50308132D-03  0.64969158D-13 -0.41767206D-13 -0.31552852D-03  0.20661821D-05
  0.94273531D-06 -0.30089174D-05 -0.55575250D-14  0.21100954D-14  0.31159733D-05
  0.72309823D-15 -0.23964000D-04  0.96658943D-05 -0.51666312D-14  0.50636452D-04
 -0.37908588D-04  0.29973365D-14  0.21255547D-04  0.89109053D-05 -0.80633267D-14
  0.38141014D-14  0.81233501D-04  0.41703684D-04 -0.79813065D-14 -0.82852220D-05
 -0.41809275D-04 -0.34609978D-14 -0.23541528D-03 -0.83301776D-04  0.21066041D-13
  0.38575873D-05  0.72121480D-05  0.12464735D-04  0.20161196D-04  0.30472973D-04
  0.41967592D-04  0.49055005D-04  0.42396652D-04  0.19786739D-04  0.26806689D-05
 -0.19606798D-07  0.28523247D-07  0.36666347D-06  0.13375356D-05  0.45128120D-05
  0.99121601D-05  0.12803807D-04 -0.20576808D-05 -0.17261496D-04 -0.94728863D-05
  0.70016083D-08  0.79752671D-07  0.16559529D-06  0.45534500D-06 -0.59040709D-07
 -0.20588627D-05 -0.51351307D-05  0.42507868D-05 -0.12911865D-05 -0.33083317D-04
 -0.85586436D-05 -0.32207577D-09 -0.42254509D-09 -0.46344051D-09 -0.38130489D-09
 -0.20100226D-09 -0.52297007D-10  0.83232911D+00  0.10919685D+01  0.11976531D+01
  0.98539287D+00  0.51944309D+00  0.13514932D+00  0.20419531D-01  0.26789264D-01
  0.29382025D-01  0.24174645D-01  0.12743498D-01  0.33156185D-02 -0.29201462D-14
 -0.10482049D-12 -0.16630034D-12 -0.19747655D-12 -0.29883407D-13  0.21748584D-12
  0.22552886D-04  0.80955008D-03  0.12843715D-02  0.15251517D-02  0.23079566D-03
 -0.16796876D-02  0.22783365D-06  0.81782326D-05  0.12974971D-04  0.15407380D-04
  0.23315427D-05 -0.16968531D-04 -0.23668634D-11  0.58576549D-02  0.13552951D-03
 -0.91092465D-14 -0.51924696D-03  0.34673073D-05 -0.44996085D-15 -0.66077295D-05
  0.14636121D-07  0.22216325D-06 -0.30547408D-05  0.28325775D-05  0.42116241D-14
 -0.15960989D-13  0.68464710D-03  0.25572742D-05 -0.41425077D-05  0.15852335D-05
 -0.88510584D-14  0.22585598D-13 -0.10288997D-03 -0.28592385D-06  0.25720419D-06
  0.28719669D-07  0.14011878D-14  0.69168794D-14  0.76134651D-04 -0.44050477D-14
  0.62705790D-04 -0.13595645D-05 -0.59867385D-15  0.24295733D-04 -0.36360019D-05
  0.13813817D-13 -0.21241310D-03  0.77146953D-05  0.38734383D-14  0.10481340D-14
  0.26873880D-04 -0.45872546D-06 -0.21619378D-14  0.18349232D-05  0.56198890D-06
 -0.98246417D-15 -0.82456562D-04  0.81418748D-06 -0.42210424D-14
MO    2     MO 0.0        OCC NO =    2.0000376  ORB. ENERGY =    0.000000
 -0.52516321D-03 -0.97901002D-03 -0.16546603D-02 -0.24872631D-02 -0.30551572D-02
 -0.25784449D-02 -0.96956261D-03 -0.10992434D-05 -0.82161636D-05 -0.30705679D-04
 -0.85664064D-04 -0.11476623D-03  0.13551752D-03  0.21330336D-04 -0.44452552D-03
 -0.63692527D-04 -0.31477107D-13 -0.29511788D-13 -0.21014151D-13  0.62826818D-05
  0.58904136D-05  0.41943254D-05  0.81521542D-03  0.76431627D-03  0.54423872D-03
 -0.44853793D-14  0.78482606D-05  0.57213882D-03  0.10843377D-13  0.78708905D-05
 -0.51354152D-03  0.46851659D-15 -0.39105524D-06 -0.46057371D-04 -0.64923484D-04
  0.71227639D-03 -0.64735290D-03  0.11402023D-12  0.76843553D-14  0.11633865D-05
  0.64148508D-04 -0.10928686D-03  0.45138356D-04 -0.11216761D-13  0.13110953D-14
  0.11656507D-04  0.47830331D-05  0.16266581D-03 -0.16744884D-03  0.10801519D-13
  0.41283595D-14  0.40113543D-05  0.14228790D-14  0.62146826D-05  0.10092318D-03
 -0.14881989D-14  0.14316579D-05 -0.19085795D-03 -0.27804381D-14 -0.20075706D-04
 -0.11191158D-03 -0.50268199D-13 -0.11674299D-14 -0.85990559D-05 -0.75617424D-04
  0.19596984D-14 -0.57089174D-06  0.98554215D-04  0.15425913D-14  0.26368059D-04
  0.12829806D-03  0.36673154D-13 -0.91211391D-03 -0.17064678D-02 -0.29483978D-02
 -0.47796993D-02 -0.72584321D-02 -0.10088538D-01 -0.11994498D-01 -0.10685116D-01
 -0.53064545D-02 -0.85429427D-03 -0.90133092D-05 -0.46923453D-05 -0.15652878D-03
 -0.54547147D-03 -0.19643311D-02 -0.43301234D-02 -0.60954162D-02  0.29077122D-03
  0.79769107D-02  0.47166973D-02  0.29473687D-06  0.35699832D-05  0.74448236D-05
  0.21350458D-04  0.11086996D-05 -0.92073530D-04 -0.23790032D-03  0.19382998D-03
  0.16975266D-03 -0.36151439D-03 -0.17646686D-03  0.90316092D-09  0.11896742D-08
  0.13123969D-08  0.10900484D-08  0.57884593D-09  0.14934528D-09  0.40333775D+01
  0.53129017D+01  0.58609622D+01  0.48679880D+01  0.25850367D+01  0.66695298D+00
 -0.68493841D+01 -0.90222411D+01 -0.99529443D+01 -0.82666995D+01 -0.43898468D+01
 -0.11326034D+01 -0.38978961D-13  0.37682352D-12  0.53136050D-12  0.75998607D-12
 -0.38484625D-14 -0.69697891D-12 -0.17426775D-03  0.16847085D-02  0.23756148D-02
  0.33977576D-02 -0.17205766D-04 -0.31160642D-02  0.32112527D-03 -0.31044324D-02
 -0.43775738D-02 -0.62610886D-02  0.31705271D-04  0.57420087D-02  0.59339253D-11
  0.26056334D-01 -0.44320754D-01 -0.39077710D-13 -0.13528237D-03  0.11932747D-03
 -0.17961462D-14 -0.10532994D-04  0.12638689D-04  0.14806191D-04  0.44926944D-03
 -0.46407563D-03  0.11043017D-12  0.61408635D-13 -0.42032855D-03  0.26590058D-04
 -0.27063061D-03  0.24404055D-03 -0.54538570D-13 -0.35269489D-13  0.40243658D-03
 -0.25643028D-05  0.46914054D-04 -0.44349751D-04  0.39092985D-14  0.40873012D-14
 -0.27022952D-04  0.14847207D-14 -0.31235573D-04  0.89070672D-06  0.34098233D-14
  0.61415111D-04  0.30627151D-04 -0.78639853D-14  0.32291608D-04 -0.33299271D-04
  0.28569506D-14  0.24800910D-14 -0.44261787D-04 -0.13285225D-04 -0.97542427D-14
  0.18126373D-04 -0.39805521D-04  0.23139696D-14  0.11465899D-03  0.79661197D-04
 -0.16999580D-13 -0.78633206D-03 -0.14711434D-02 -0.25418094D-02 -0.41205718D-02
 -0.62574836D-02 -0.86973135D-02 -0.10340439D-01 -0.92116226D-02 -0.45746866D-02
 -0.73648584D-03 -0.77703606D-05 -0.40865589D-05 -0.13632076D-03 -0.47505057D-03
 -0.17107340D-02 -0.37711003D-02 -0.53084921D-02  0.25323237D-03  0.69470838D-02
  0.41077671D-02  0.28778119D-06  0.34857330D-05  0.72691286D-05  0.20846595D-04
  0.10825347D-05 -0.89900629D-04 -0.23228596D-03  0.18925567D-03  0.13439504D-03
 -0.34863959D-03 -0.16976518D-03 -0.70752812D-09 -0.93198005D-09 -0.10281199D-08
 -0.85393406D-09 -0.45346268D-09 -0.11699574D-09 -0.43843374D+01 -0.57751979D+01
 -0.63709473D+01 -0.52915706D+01 -0.28099708D+01 -0.72498716D+00 -0.72245510D+01
 -0.95164237D+01 -0.10498105D+02 -0.87194982D+01 -0.46302955D+01 -0.11946404D+01
  0.31141241D-13 -0.30105348D-12 -0.42451683D-12 -0.60717137D-12  0.30746303D-14
  0.55683341D-12  0.19179198D-03 -0.18541214D-02 -0.26145047D-02 -0.37394334D-02
  0.18935964D-04  0.34294131D-02  0.33956592D-03 -0.32827048D-02 -0.46289564D-02
 -0.66206322D-02  0.33525950D-04  0.60717442D-02 -0.46264754D-11 -0.28316821D-01
 -0.46737748D-01  0.31525736D-13  0.15931791D-03  0.14922493D-03  0.12745452D-14
  0.11223346D-04  0.13800274D-04  0.13427951D-04  0.49936992D-03 -0.51279787D-03
  0.85828688D-13 -0.48076645D-13  0.45279826D-03  0.24407312D-04 -0.30020382D-03
  0.27579651D-03 -0.40319897D-13  0.29954825D-13 -0.41384879D-03 -0.23673127D-05
  0.47160708D-04 -0.44793395D-04  0.28876906D-14 -0.55667370D-14  0.26722578D-04
 -0.21082394D-14  0.29642390D-04  0.17211190D-05 -0.64373139D-14 -0.57926962D-04
  0.28471440D-04  0.12762032D-13 -0.31000208D-04 -0.33634797D-04 -0.67560464D-14
 -0.12033054D-14  0.49426588D-04 -0.10171219D-04  0.78453508D-14 -0.18948260D-04
 -0.41887996D-04 -0.42354346D-14 -0.12933150D-03  0.72401652D-04 -0.10747612D-13
  0.53692526D-03  0.10038359D-02  0.17349267D-02  0.28061725D-02  0.42414358D-02
  0.58413352D-02  0.68278096D-02  0.59010547D-02  0.27540530D-02  0.37311375D-03
 -0.27290077D-05  0.67541304D-05  0.86823666D-04  0.31672025D-03  0.10686063D-02
  0.23471389D-02  0.30318633D-02 -0.48724622D-03 -0.40874166D-02 -0.22431215D-02
  0.24460583D-06  0.27862125D-05  0.57851814D-05  0.15907780D-04 -0.20626263D-05
 -0.71927735D-04 -0.17939920D-03  0.14850406D-03 -0.30859620D-04  0.11775175D-02
  0.26000849D-03 -0.49793494D-10 -0.65326233D-10 -0.71648739D-10 -0.58950424D-10
 -0.31075312D-10 -0.80852116D-11  0.10422183D-01  0.13673312D-01  0.14996664D-01
  0.12338803D-01  0.65043154D-02  0.16923005D-02 -0.57078890D+00 -0.74884258D+00
 -0.82131824D+00 -0.67575591D+00 -0.35622009D+00 -0.92681768D-01 -0.37596764D-15
 -0.13495596D-13 -0.21411101D-13 -0.25425026D-13 -0.38474765D-14  0.28001213D-13
  0.52680127D-06  0.18909864D-04  0.30000973D-04  0.35625236D-04  0.53910372D-05
 -0.39234958D-04 -0.44640969D-05 -0.16024157D-03 -0.25422728D-03 -0.30188709D-03
 -0.45683474D-04  0.33247576D-03 -0.37022348D-12  0.80797116D-04 -0.39161894D-02
 -0.94337072D-14 -0.12498326D-04 -0.11931192D-03 -0.11295326D-15 -0.10814237D-06
 -0.13792835D-06  0.20316817D-04  0.44445868D-04 -0.64762685D-04 -0.10150781D-13
  0.36950718D-14  0.20899398D-04 -0.91643375D-04  0.91020171D-04  0.62320420D-06
  0.21350949D-13 -0.31932391D-14  0.36293873D-05  0.10338657D-04 -0.91541828D-05
 -0.11844739D-05 -0.29950118D-14  0.29363175D-14  0.20677107D-05 -0.64331652D-15
  0.26440352D-05  0.32828033D-04 -0.73369577D-15  0.11668101D-05  0.44296491D-04
  0.26636453D-14 -0.90989159D-05 -0.14278059D-03 -0.75749698D-14  0.55778595D-15
  0.70993272D-06  0.95995150D-05  0.23750806D-15  0.15663755D-06 -0.19912910D-04
 -0.19108659D-14 -0.22864357D-05 -0.88856347D-05  0.97793010D-14
MO    3     MO 0.0        OCC NO =    2.0000330  ORB. ENERGY =    0.000000
  0.79435818D-11  0.14808437D-10  0.25028276D-10  0.37622166D-10  0.46212093D-10
  0.39001376D-10  0.14665536D-10  0.36154894D-15  0.27023543D-14  0.10099315D-13
  0.28175517D-13  0.37747424D-13 -0.44572670D-13  0.70595816D-12 -0.43341051D-12
 -0.52346812D-13  0.18270592D-04  0.17129842D-04  0.12197468D-04  0.10723044D-11
  0.10053535D-11  0.71587158D-12  0.17042861D-12  0.15978766D-12  0.11377833D-12
  0.11116233D-05  0.32819955D-12  0.72646443D-13  0.10553629D-05 -0.24876613D-12
 -0.57907305D-13  0.48719196D-07 -0.76755155D-14 -0.41788651D-14 -0.31451188D-13
  0.86056043D-13 -0.54604856D-13 -0.11669988D-02 -0.13578027D-05  0.42791979D-12
  0.58119648D-13 -0.34557868D-13 -0.23561780D-13  0.10076698D-03  0.31007758D-05
 -0.10378498D-12  0.51870431D-14  0.13228313D-13 -0.18415356D-13 -0.11604624D-03
  0.80330545D-06  0.69726553D-13 -0.23420339D-06 -0.32507738D-13  0.97175980D-14
  0.12239188D-05 -0.12196186D-12 -0.42438263D-13 -0.52130863D-06  0.21948507D-12
  0.13285469D-13  0.46112889D-03  0.13822660D-07  0.27648958D-13 -0.11760659D-13
 -0.92252735D-06  0.41027546D-13  0.61082347D-14  0.88105937D-06 -0.12397442D-12
  0.29173743D-13 -0.34615334D-03 -0.10975958D-10 -0.20534846D-10 -0.35479660D-10
 -0.57516697D-10 -0.87344624D-10 -0.12140081D-09 -0.14433626D-09 -0.12857976D-09
 -0.63855426D-10 -0.10280183D-10 -0.10846201D-12 -0.51181765D-13 -0.17073380D-11
 -0.59497311D-11 -0.21425945D-10 -0.47230829D-10 -0.66485764D-10  0.31715876D-11
  0.87008168D-10  0.51447385D-10 -0.95668393D-15 -0.11587779D-13 -0.24165091D-13
 -0.69301273D-13 -0.35987186D-14  0.29886070D-12  0.77219865D-12 -0.62915111D-12
  0.32516837D-11 -0.26710075D-12 -0.80230640D-13 -0.81964217D+01 -0.10796605D+02
 -0.11910345D+02 -0.98924742D+01 -0.52531783D+01 -0.13553475D+01  0.30037564D-09
  0.39566499D-09  0.43648041D-09  0.36253116D-09  0.19251411D-09  0.49669645D-10
 -0.85119300D-09 -0.11212203D-08 -0.12368815D-08 -0.10273269D-08 -0.54553911D-09
 -0.14075194D-09  0.35809233D-03 -0.34618062D-02 -0.48815081D-02 -0.69818480D-02
  0.35355095D-04  0.64030131D-02 -0.11244850D-13  0.10870797D-12  0.15328959D-12
  0.21924466D-12 -0.11102241D-14 -0.20106803D-12  0.48902230D-13 -0.47275529D-12
 -0.66663431D-12 -0.95346341D-12  0.48282045D-14  0.87441588D-12 -0.53679975D-01
  0.19740657D-11 -0.53951876D-11  0.35383884D-03 -0.15144428D-13  0.55897742D-13
  0.14930516D-04 -0.35341376D-14  0.17012497D-14  0.36061559D-13  0.88249163D-13
 -0.12431072D-12 -0.98774326D-03 -0.56104880D-03 -0.11002393D-12 -0.28317674D-15
 -0.28548317D-13  0.28831494D-13  0.47560151D-03  0.32768409D-03  0.11100952D-12
 -0.81632309D-14  0.11229118D-13 -0.30658871D-14 -0.38723448D-04 -0.51764049D-04
  0.51279431D-14 -0.21112559D-04 -0.85089444D-14 -0.10287933D-13 -0.44031855D-04
  0.41967807D-13  0.28769432D-13  0.10736953D-03 -0.16440974D-13  0.20943684D-14
  0.16696728D-04 -0.17051846D-04 -0.41055667D-14 -0.65831000D-14  0.84850880D-04
 -0.21223280D-13 -0.15109381D-13 -0.33695342D-04  0.33539980D-13  0.34858681D-13
  0.13695223D-03  0.28696862D-10  0.53688766D-10  0.92762280D-10  0.15037855D-09
  0.22836427D-09  0.31740484D-09  0.37737004D-09  0.33617434D-09  0.16695129D-09
  0.26877745D-10  0.28357608D-12 -0.49242812D-13 -0.16426578D-11 -0.57243335D-11
 -0.20614252D-10 -0.45441552D-10 -0.63967040D-10  0.30514363D-11  0.83711980D-10
  0.49498370D-10 -0.11753315D-14 -0.14236135D-13 -0.29687959D-13 -0.85139898D-13
 -0.44211964D-14  0.36716453D-12  0.94868263D-12 -0.77294196D-12  0.31290660D-11
  0.25662944D-12  0.10979196D-12  0.82307728D+01  0.10841853D+02  0.11960261D+02
  0.99339334D+01  0.52751943D+01  0.13610277D+01 -0.25685847D-09 -0.33834269D-09
 -0.37324495D-09 -0.31000916D-09 -0.16462347D-09 -0.42473714D-10 -0.77462242D-09
 -0.10203589D-08 -0.11256156D-08 -0.93491192D-09 -0.49646417D-09 -0.12809035D-09
 -0.35924854D-03  0.34729837D-02  0.48972696D-02  0.70043910D-02 -0.35469250D-04
 -0.64236872D-02  0.12134043D-13 -0.11730412D-12 -0.16541105D-12 -0.23658156D-12
  0.11980157D-14  0.21696760D-12  0.26206425D-13 -0.25334685D-12 -0.35724551D-12
 -0.51095558D-12  0.25874072D-14  0.46859446D-12  0.53888601D-01 -0.14320293D-11
 -0.52838535D-11 -0.35634576D-03 -0.72108050D-13  0.41793736D-13 -0.15076741D-04
 -0.33725790D-14  0.26249460D-14 -0.61459375D-13  0.37592335D-13  0.23867039D-13
 -0.98606130D-03  0.56980993D-03 -0.14399402D-12 -0.13346964D-13 -0.15260390D-13
  0.28607354D-13  0.47135046D-03 -0.32854807D-03 -0.33967255D-13  0.29904747D-15
  0.32382771D-14 -0.35373245D-14 -0.38715360D-04  0.51954025D-04 -0.99996068D-14
  0.20786212D-04  0.25749348D-15  0.15095843D-13  0.44882258D-04  0.30640545D-13
 -0.35942413D-13 -0.10724089D-03 -0.31413026D-13 -0.93451170D-14  0.12977074D-04
  0.17006583D-04  0.53137158D-14  0.78677093D-15 -0.83857091D-04 -0.16722083D-13
  0.38199006D-14  0.32837342D-04  0.78093506D-15 -0.61802134D-14  0.13764388D-03
 -0.34571399D-10 -0.64634712D-10 -0.11170799D-09 -0.18068308D-09 -0.27309642D-09
 -0.37611032D-09 -0.43962716D-09 -0.37995552D-09 -0.17732722D-09 -0.24023947D-10
  0.17571461D-12 -0.15918696D-12 -0.20463323D-11 -0.74647262D-11 -0.25185801D-10
 -0.55319321D-10 -0.71457473D-10  0.11483824D-10  0.96335633D-10  0.52867753D-10
 -0.12654358D-14 -0.14414100D-13 -0.29928868D-13 -0.82296787D-13  0.10670724D-13
  0.37210859D-12  0.92809792D-12 -0.76826602D-12  0.29634657D-11  0.19704505D-12
  0.38979830D-13  0.61491793D-03  0.80673736D-03  0.88481628D-03  0.72800018D-03
  0.38376030D-03  0.99847213D-04 -0.33840039D-08 -0.44396207D-08 -0.48693031D-08
 -0.40063159D-08 -0.21119019D-08 -0.54947716D-09  0.63724281D-09  0.83602632D-09
  0.91693994D-09  0.75443056D-09  0.39769290D-09  0.10347221D-09  0.35241399D-07
  0.12650122D-05  0.20069736D-05  0.23832196D-05  0.36064395D-06 -0.26246991D-05
 -0.30782300D-13 -0.11049501D-11 -0.17530310D-11 -0.20816705D-11 -0.31501162D-12