 Entering Gaussian System, Link 0=/home/bruns/programas/chemistry/gaussian/g09/g09
 Input=GAUSSIAN.com
 Output=GAUSSIAN.log
 Initial command:
 /home/bruns/programas/chemistry/gaussian/g09/l1.exe /home/bruns/programas/chemistry/gaussian/work/Gau-59588.inp -scrdir=/home/bruns/programas/chemistry/gaussian/work/
 Entering Link 1 = /home/bruns/programas/chemistry/gaussian/g09/l1.exe PID=     59590.
  
 Copyright (c) 1988,1990,1992,1993,1995,1998,2003,2009,2010,
            Gaussian, Inc.  All Rights Reserved.
  
 This is part of the Gaussian(R) 09 program.  It is based on
 the Gaussian(R) 03 system (copyright 2003, Gaussian, Inc.),
 the Gaussian(R) 98 system (copyright 1998, Gaussian, Inc.),
 the Gaussian(R) 94 system (copyright 1995, Gaussian, Inc.),
 the Gaussian 92(TM) system (copyright 1992, Gaussian, Inc.),
 the Gaussian 90(TM) system (copyright 1990, Gaussian, Inc.),
 the Gaussian 88(TM) system (copyright 1988, Gaussian, Inc.),
 the Gaussian 86(TM) system (copyright 1986, Carnegie Mellon
 University), and the Gaussian 82(TM) system (copyright 1983,
 Carnegie Mellon University). Gaussian is a federally registered
 trademark of Gaussian, Inc.
  
 This software contains proprietary and confidential information,
 including trade secrets, belonging to Gaussian, Inc.
  
 This software is provided under written license and may be
 used, copied, transmitted, or stored only in accord with that
 written license.
  
 The following legend is applicable only to US Government
 contracts under FAR:
  
                    RESTRICTED RIGHTS LEGEND
  
 Use, reproduction and disclosure by the US Government is
 subject to restrictions as set forth in subparagraphs (a)
 and (c) of the Commercial Computer Software - Restricted
 Rights clause in FAR 52.227-19.
  
 Gaussian, Inc.
 340 Quinnipiac St., Bldg. 40, Wallingford CT 06492
  
  
 ---------------------------------------------------------------
 Warning -- This program may not be used in any manner that
 competes with the business of Gaussian, Inc. or will provide
 assistance to any competitor of Gaussian, Inc.  The licensee
 of this program is prohibited from giving any competitor of
 Gaussian, Inc. access to this program.  By using this program,
 the user acknowledges that Gaussian, Inc. is engaged in the
 business of creating and licensing software in the field of
 computational chemistry and represents and warrants to the
 licensee that it is not a competitor of Gaussian, Inc. and that
 it will not use this program in any manner prohibited above.
 ---------------------------------------------------------------
  

 Cite this work as:
 Gaussian 09, Revision B.01,
 M. J. Frisch, G. W. Trucks, H. B. Schlegel, G. E. Scuseria, 
 M. A. Robb, J. R. Cheeseman, G. Scalmani, V. Barone, B. Mennucci, 
 G. A. Petersson, H. Nakatsuji, M. Caricato, X. Li, H. P. Hratchian, 
 A. F. Izmaylov, J. Bloino, G. Zheng, J. L. Sonnenberg, M. Hada, 
 M. Ehara, K. Toyota, R. Fukuda, J. Hasegawa, M. Ishida, T. Nakajima, 
 Y. Honda, O. Kitao, H. Nakai, T. Vreven, J. A. Montgomery, Jr., 
 J. E. Peralta, F. Ogliaro, M. Bearpark, J. J. Heyd, E. Brothers, 
 K. N. Kudin, V. N. Staroverov, T. Keith, R. Kobayashi, J. Normand, 
 K. Raghavachari, A. Rendell, J. C. Burant, S. S. Iyengar, J. Tomasi, 
 M. Cossi, N. Rega, J. M. Millam, M. Klene, J. E. Knox, J. B. Cross, 
 V. Bakken, C. Adamo, J. Jaramillo, R. Gomperts, R. E. Stratmann, 
 O. Yazyev, A. J. Austin, R. Cammi, C. Pomelli, J. W. Ochterski, 
 R. L. Martin, K. Morokuma, V. G. Zakrzewski, G. A. Voth, 
 P. Salvador, J. J. Dannenberg, S. Dapprich, A. D. Daniels, 
 O. Farkas, J. B. Foresman, J. V. Ortiz, J. Cioslowski, 
 and D. J. Fox, Gaussian, Inc., Wallingford CT, 2010.
 
 ******************************************
 Gaussian 09:  EM64L-G09RevB.01 12-Aug-2010
                27-Nov-2021 
 ******************************************
 %nproc=8
 Will use up to    8 processors via shared memory.
 %mem=8GB
 -----------------------------------------------------
 # qcisd/aug-cc-pvtz nosymm density=current output=wfn
 -----------------------------------------------------
 1/30=1,38=1/1;
 2/12=2,15=1,17=6,18=5,40=1/2;
 3/5=16,6=1,7=10,11=9,16=1,25=1,30=1,71=1/1,2,3;
 4//1;
 5/5=2,38=5/2;
 8/6=4,9=120000,10=1/1,4;
 9/5=8,15=1/13;
 11/28=-7,31=1,32=3,42=3/11;
 10/5=6,13=10,31=1/2;
 6/7=2,8=2,9=2,10=2,22=-1,31=1/1;
 99/5=1,6=1100,9=1/99;
 ------------------
 cl2cs-wavefunction
 ------------------
 Symbolic Z-matrix:
 Charge =  0 Multiplicity = 1
 C                     0.        0.       -0.52291 
 Cl                    0.       -1.42074  -1.5009 
 Cl                    0.        1.43074  -1.5009 
 S                     0.        0.        1.08181 
 
                          Input orientation:                          
 ---------------------------------------------------------------------
 Center     Atomic      Atomic             Coordinates (Angstroms)
 Number     Number       Type             X           Y           Z
 ---------------------------------------------------------------------
      1          6           0        0.000000    0.000000   -0.522914
      2         17           0        0.000000   -1.420735   -1.500900
      3         17           0        0.000000    1.430735   -1.500900
      4         16           0        0.000000    0.000000    1.081815
 ---------------------------------------------------------------------
                    Distance matrix (angstroms):
                    1          2          3          4
     1  C    0.000000
     2  Cl   1.724803   0.000000
     3  Cl   1.733049   2.851470   0.000000
     4  S    1.604729   2.947695   2.952528   0.000000
 Symmetry turned off by external request.
 Stoichiometry    CCl2S
 Framework group  CS[SG(CCl2S)]
 Deg. of freedom     5
 Full point group                 CS      NOp   2
 Rotational constants (GHZ):      3.5553540      3.4454648      1.7497735
 Standard basis: Aug-CC-pVTZ (5D, 7F)
 Integral buffers will be    131072 words long.
 Raffenetti 1 integral format.
 Two-electron integral symmetry is turned off.
   196 basis functions,   414 primitive gaussians,   232 cartesian basis functions
    28 alpha electrons       28 beta electrons
       nuclear repulsion energy       245.3092868901 Hartrees.
 NAtoms=    4 NActive=    4 NUniq=    4 SFac= 1.00D+00 NAtFMM=   50 NAOKFM=F Big=F
 One-electron integrals computed using PRISM.
 NBasis=   196 RedAO= T  NBF=   196
 NBsUse=   196 1.00D-06 NBFU=   196
 Harris functional with IExCor=  205 diagonalized for initial guess.
 ExpMin= 3.51D-02 ExpMax= 4.56D+05 ExpMxC= 1.44D+03 IAcc=3 IRadAn=         0 AccDes= 0.00D+00
 HarFok:  IExCor=  205 AccDes= 0.00D+00 IRadAn=         0 IDoV= 1
 ScaDFX=  1.000000  1.000000  1.000000  1.000000
 FoFCou: FMM=F IPFlag=           0 FMFlag=      100000 FMFlg1=           0
         NFxFlg=           0 DoJE=T BraDBF=F KetDBF=T FulRan=T
         Omega=  0.000000  0.000000  1.000000  0.000000  0.000000 ICntrl=     500 IOpCl=  0
         NMat0=    1 NMatS0=    1 NMatT0=    0 NMatD0=    1 NMtDS0=    0 NMtDT0=    0
         I1Cent=           4 NGrid=           0.
 Symmetry not used in FoFCou.
 Requested convergence on RMS density matrix=1.00D-08 within 128 cycles.
 Requested convergence on MAX density matrix=1.00D-06.
 Requested convergence on             energy=1.00D-06.
 No special actions if energy rises.
 Keep R1 ints in memory in canonical form, NReq=371777346.
 SCF Done:  E(RHF) =  -1354.42610052     A.U. after   12 cycles
             Convg  =    0.9854D-08             -V/T =  2.0001
 ExpMin= 3.51D-02 ExpMax= 4.56D+05 ExpMxC= 1.44D+03 IAcc=3 IRadAn=         5 AccDes= 0.00D+00
 HarFok:  IExCor=  205 AccDes= 0.00D+00 IRadAn=         5 IDoV=-2
 ScaDFX=  1.000000  1.000000  1.000000  1.000000
 Range of M.O.s used for correlation:    17   196
 NBasis=   196 NAE=    28 NBE=    28 NFC=    16 NFV=     0
 NROrb=    180 NOA=    12 NOB=    12 NVA=   168 NVB=   168

 **** Warning!!: The largest alpha MO coefficient is  0.31224182D+02

 Semi-Direct transformation.
 ModeAB=           2 MOrb=            12 LenV=    1072679749
 LASXX=     33405819 LTotXX=    33405819 LenRXX=    33405819
 LTotAB=    33954012 MaxLAS=    58380480 LenRXY=    58380480
 NonZer=    66811638 LenScr=   100987392 LnRSAI=           0
 LnScr1=           0 LExtra=           0 Total=    192773691
 MaxDsk=          -1 SrtSym=           F ITran=            4
 JobTyp=0 Pass  1:  I=   1 to  12.
 (rs|ai) integrals will be sorted in core.
 Spin components of T(2) and E(2):
     alpha-alpha T2 =       0.3950199924D-01 E2=     -0.9368358646D-01
     alpha-beta  T2 =       0.2070048066D+00 E2=     -0.5369324482D+00
     beta-beta   T2 =       0.3950199924D-01 E2=     -0.9368358646D-01
 ANorm=    0.1134023282D+01
 E2 =    -0.7242996211D+00 EUMP2 =    -0.13551504001420D+04
 R2 and R3 integrals will be kept in memory, NReq=   736864364.
 Iterations=  50 Convergence= 0.100D-07
 Iteration Nr.   1
 **********************
 DD1Dir will call FoFMem   1 times, MxPair=       156
 NAB=    78 NAA=     0 NBB=     0.
 MP4(R+Q)=  0.24857229D-01
 E3=       -0.32603513D-01        EUMP3=      -0.13551830037D+04
 E4(DQ)=    0.31235919D-02        UMP4(DQ)=   -0.13551798801D+04
 E4(SDQ)=  -0.36713156D-02        UMP4(SDQ)=  -0.13551866750D+04
 DE(Corr)= -0.73204590     E(Corr)=     -1355.1581464    
 NORM(A)=   0.11379501D+01
 Iteration Nr.   2
 **********************
 DD1Dir will call FoFMem   1 times, MxPair=       156
 NAB=    78 NAA=     0 NBB=     0.
 DE(Corr)= -0.75631226     E(CORR)=     -1355.1824128     Delta=-2.43D-02
 NORM(A)=   0.11489159D+01
 Iteration Nr.   3
 **********************
 DD1Dir will call FoFMem   1 times, MxPair=       156
 NAB=    78 NAA=     0 NBB=     0.
 DE(Corr)= -0.75551041     E(CORR)=     -1355.1816109     Delta= 8.02D-04
 NORM(A)=   0.11516437D+01
 Iteration Nr.   4
 **********************
 DD1Dir will call FoFMem   1 times, MxPair=       156
 NAB=    78 NAA=     0 NBB=     0.
 DE(Corr)= -0.75776163     E(CORR)=     -1355.1838621     Delta=-2.25D-03
 NORM(A)=   0.11527154D+01
 Iteration Nr.   5
 **********************
 DD1Dir will call FoFMem   1 times, MxPair=       156
 NAB=    78 NAA=     0 NBB=     0.
 DE(Corr)= -0.75803816     E(CORR)=     -1355.1841387     Delta=-2.77D-04
 NORM(A)=   0.11532495D+01
 Iteration Nr.   6
 **********************
 DD1Dir will call FoFMem   1 times, MxPair=       156
 NAB=    78 NAA=     0 NBB=     0.
 DE(Corr)= -0.75809073     E(CORR)=     -1355.1841912     Delta=-5.26D-05
 NORM(A)=   0.11533121D+01
 Iteration Nr.   7
 **********************
 DD1Dir will call FoFMem   1 times, MxPair=       156
 NAB=    78 NAA=     0 NBB=     0.
 DE(Corr)= -0.75809792     E(CORR)=     -1355.1841984     Delta=-7.19D-06
 NORM(A)=   0.11533173D+01
 Iteration Nr.   8
 **********************
 DD1Dir will call FoFMem   1 times, MxPair=       156
 NAB=    78 NAA=     0 NBB=     0.
 DE(Corr)= -0.75809604     E(CORR)=     -1355.1841966     Delta= 1.88D-06
 NORM(A)=   0.11533238D+01
 Iteration Nr.   9
 **********************
 DD1Dir will call FoFMem   1 times, MxPair=       156
 NAB=    78 NAA=     0 NBB=     0.
 DE(Corr)= -0.75809609     E(CORR)=     -1355.1841966     Delta=-4.83D-08
 NORM(A)=   0.11533226D+01
 Iteration Nr.  10
 **********************
 DD1Dir will call FoFMem   1 times, MxPair=       156
 NAB=    78 NAA=     0 NBB=     0.
 DE(Corr)= -0.75809706     E(CORR)=     -1355.1841976     Delta=-9.79D-07
 NORM(A)=   0.11533244D+01
 Iteration Nr.  11
 **********************
 DD1Dir will call FoFMem   1 times, MxPair=       156
 NAB=    78 NAA=     0 NBB=     0.
 DE(Corr)= -0.75809774     E(CORR)=     -1355.1841983     Delta=-6.76D-07
 NORM(A)=   0.11533254D+01
 Iteration Nr.  12
 **********************
 DD1Dir will call FoFMem   1 times, MxPair=       156
 NAB=    78 NAA=     0 NBB=     0.
 DE(Corr)= -0.75809796     E(CORR)=     -1355.1841985     Delta=-2.24D-07
 NORM(A)=   0.11533261D+01
 Iteration Nr.  13
 **********************
 DD1Dir will call FoFMem   1 times, MxPair=       156
 NAB=    78 NAA=     0 NBB=     0.
 DE(Corr)= -0.75809825     E(CORR)=     -1355.1841988     Delta=-2.82D-07
 NORM(A)=   0.11533266D+01
 Iteration Nr.  14
 **********************
 DD1Dir will call FoFMem   1 times, MxPair=       156
 NAB=    78 NAA=     0 NBB=     0.
 DE(Corr)= -0.75809827     E(CORR)=     -1355.1841988     Delta=-2.86D-08
 NORM(A)=   0.11533268D+01
 Iteration Nr.  15
 **********************
 DD1Dir will call FoFMem   1 times, MxPair=       156
 NAB=    78 NAA=     0 NBB=     0.
 DE(Corr)= -0.75809833     E(CORR)=     -1355.1841988     Delta=-5.42D-08
 NORM(A)=   0.11533269D+01
 Iteration Nr.  16
 **********************
 DD1Dir will call FoFMem   1 times, MxPair=       156
 NAB=    78 NAA=     0 NBB=     0.
 DE(Corr)= -0.75809834     E(CORR)=     -1355.1841989     Delta=-1.21D-08
 NORM(A)=   0.11533269D+01
 Iteration Nr.  17
 **********************
 DD1Dir will call FoFMem   1 times, MxPair=       156
 NAB=    78 NAA=     0 NBB=     0.
 DE(Corr)= -0.75809834     E(CORR)=     -1355.1841989     Delta= 1.25D-10
 NORM(A)=   0.11533269D+01
 Iteration Nr.  18
 **********************
 DD1Dir will call FoFMem   1 times, MxPair=       156
 NAB=    78 NAA=     0 NBB=     0.
 DE(Corr)= -0.75809835     E(CORR)=     -1355.1841989     Delta=-4.94D-09
 NORM(A)=   0.11533269D+01
 Iteration Nr.  19
 **********************
 DD1Dir will call FoFMem   1 times, MxPair=       156
 NAB=    78 NAA=     0 NBB=     0.
 DE(Corr)= -0.75809834     E(CORR)=     -1355.1841989     Delta= 3.40D-09
 NORM(A)=   0.11533269D+01
 Iteration Nr.  20
 **********************
 DD1Dir will call FoFMem   1 times, MxPair=       156
 NAB=    78 NAA=     0 NBB=     0.
 DE(Corr)= -0.75809834     E(CORR)=     -1355.1841989     Delta=-5.90D-10
 NORM(A)=   0.11533269D+01
 Largest amplitude= 8.90D-02

 Z-AMPLITUDE ITERATIONS

 Iteration Nr.   1
 **********************
 DD1Dir will call FoFMem   1 times, MxPair=       156
 NAB=    78 NAA=     0 NBB=     0.
 DE(Z)  -0.72630639D+00          E(Z)=    -0.13551524069D+04
 NORM(A)=   0.11535295D+01
 Iteration Nr.   2
 **********************
 DD1Dir will call FoFMem   1 times, MxPair=       156
 NAB=    78 NAA=     0 NBB=     0.
 DE(Z)  -0.72631179D+00          E(Z)=    -0.13551524123D+04
 NORM(A)=   0.11527464D+01
 Iteration Nr.   3
 **********************
 DD1Dir will call FoFMem   1 times, MxPair=       156
 NAB=    78 NAA=     0 NBB=     0.
 DE(Z)  -0.72629080D+00          E(Z)=    -0.13551523913D+04
 NORM(A)=   0.11537967D+01
 Iteration Nr.   4
 **********************
 DD1Dir will call FoFMem   1 times, MxPair=       156
 NAB=    78 NAA=     0 NBB=     0.
 DE(Z)  -0.72631946D+00          E(Z)=    -0.13551524200D+04
 NORM(A)=   0.11563028D+01
 Iteration Nr.   5
 **********************
 DD1Dir will call FoFMem   1 times, MxPair=       156
 NAB=    78 NAA=     0 NBB=     0.
 DE(Z)  -0.72639166D+00          E(Z)=    -0.13551524922D+04
 NORM(A)=   0.11401213D+01
 Iteration Nr.   6
 **********************
 DD1Dir will call FoFMem   1 times, MxPair=       156
 NAB=    78 NAA=     0 NBB=     0.
 DE(Z)  -0.72592009D+00          E(Z)=    -0.13551520206D+04
 NORM(A)=   0.11401211D+01
 Iteration Nr.   7
 **********************
 DD1Dir will call FoFMem   1 times, MxPair=       156
 NAB=    78 NAA=     0 NBB=     0.
 DE(Z)  -0.72591825D+00          E(Z)=    -0.13551520188D+04
 NORM(A)=   0.11401210D+01
 Iteration Nr.   8
 **********************
 DD1Dir will call FoFMem   1 times, MxPair=       156
 NAB=    78 NAA=     0 NBB=     0.
 DE(Z)  -0.72591878D+00          E(Z)=    -0.13551520193D+04
 NORM(A)=   0.11401215D+01
 Iteration Nr.   9
 **********************
 DD1Dir will call FoFMem   1 times, MxPair=       156
 NAB=    78 NAA=     0 NBB=     0.
 DE(Z)  -0.72591884D+00          E(Z)=    -0.13551520194D+04
 NORM(A)=   0.11401218D+01
 Iteration Nr.  10
 **********************
 DD1Dir will call FoFMem   1 times, MxPair=       156
 NAB=    78 NAA=     0 NBB=     0.
 DE(Z)  -0.72591865D+00          E(Z)=    -0.13551520192D+04
 NORM(A)=   0.11401221D+01
 Iteration Nr.  11
 **********************
 DD1Dir will call FoFMem   1 times, MxPair=       156
 NAB=    78 NAA=     0 NBB=     0.
 DE(Z)  -0.72591881D+00          E(Z)=    -0.13551520193D+04
 NORM(A)=   0.11401222D+01
 Iteration Nr.  12
 **********************
 DD1Dir will call FoFMem   1 times, MxPair=       156
 NAB=    78 NAA=     0 NBB=     0.
 DE(Z)  -0.72591877D+00          E(Z)=    -0.13551520193D+04
 NORM(A)=   0.11401222D+01
 Iteration Nr.  13
 **********************
 DD1Dir will call FoFMem   1 times, MxPair=       156
 NAB=    78 NAA=     0 NBB=     0.
 DE(Z)  -0.72591880D+00          E(Z)=    -0.13551520193D+04
 NORM(A)=   0.11401222D+01
 Iteration Nr.  14
 **********************
 DD1Dir will call FoFMem   1 times, MxPair=       156
 NAB=    78 NAA=     0 NBB=     0.
 DE(Z)  -0.72591879D+00          E(Z)=    -0.13551520193D+04
 NORM(A)=   0.11401222D+01
 Iteration Nr.  15
 **********************
 DD1Dir will call FoFMem   1 times, MxPair=       156
 NAB=    78 NAA=     0 NBB=     0.
 DE(Z)  -0.72591878D+00          E(Z)=    -0.13551520193D+04
 NORM(A)=   0.11401222D+01
 Discarding MO integrals.
          Differentiating once with respect to electric field.
                with respect to dipole field.
          Electric field/nuclear overlap derivatives assumed to be zero.
          Keep R1 ints in memory in canonical form, NReq=367211061.
          There are     1 degrees of freedom in the 1st order CPHF.  IDoFFX=0.
 LinEq1:  Iter=  0 NonCon=     1 RMS=2.08D-03 Max=6.34D-02
 AX will form     1 AO Fock derivatives at one time.
 LinEq1:  Iter=  1 NonCon=     1 RMS=9.26D-04 Max=1.74D-02
 LinEq1:  Iter=  2 NonCon=     1 RMS=4.09D-04 Max=1.01D-02
 LinEq1:  Iter=  3 NonCon=     1 RMS=1.03D-04 Max=1.79D-03
 LinEq1:  Iter=  4 NonCon=     1 RMS=2.45D-05 Max=8.19D-04
 LinEq1:  Iter=  5 NonCon=     1 RMS=8.05D-06 Max=2.01D-04
 LinEq1:  Iter=  6 NonCon=     1 RMS=2.43D-06 Max=8.99D-05
 LinEq1:  Iter=  7 NonCon=     1 RMS=7.35D-07 Max=1.31D-05
 LinEq1:  Iter=  8 NonCon=     1 RMS=1.36D-07 Max=2.10D-06
 LinEq1:  Iter=  9 NonCon=     1 RMS=2.56D-08 Max=3.79D-07
 LinEq1:  Iter= 10 NonCon=     1 RMS=6.91D-09 Max=1.31D-07
 LinEq1:  Iter= 11 NonCon=     1 RMS=1.43D-09 Max=1.98D-08
 LinEq1:  Iter= 12 NonCon=     1 RMS=3.34D-10 Max=5.44D-09
 LinEq1:  Iter= 13 NonCon=     0 RMS=7.65D-11 Max=8.35D-10
 Linear equations converged to 1.000D-10 1.000D-09 after    13 iterations.
 End of Minotr Frequency-dependent properties file   721 does not exist.
 End of Minotr Frequency-dependent properties file   722 does not exist.

 **********************************************************************

            Population analysis using the QCI/CC density.

 **********************************************************************

     Natural Orbital Coefficients:
                           1         2         3         4         5
     Eigenvalues --     2.00004   2.00004   2.00003   2.00003   2.00003
   1 1   C  1S          0.00003  -0.00173   0.00000   0.00000  -0.00023
   2        2S         -0.00002   0.00038   0.00000   0.00000   0.00001
   3        3S          0.00000   0.00003   0.00000   0.00000  -0.00001
   4        4S          0.00010  -0.00291   0.00000   0.00000  -0.00001
   5        5S          0.00002  -0.00094   0.00000   0.00000   0.00002
   6        6PX         0.00000   0.00000   0.00001   0.00160   0.00000
   7        6PY         0.00034   0.00000   0.00000   0.00000  -0.00104
   8        6PZ        -0.00002   0.00038   0.00000   0.00000   0.00002
   9        7PX         0.00000   0.00000   0.00001   0.00170   0.00000
  10        7PY         0.00046   0.00002   0.00000   0.00000  -0.00226
  11        7PZ        -0.00008   0.00136   0.00000   0.00000   0.00000
  12        8PX         0.00000   0.00000   0.00000  -0.00094   0.00000
  13        8PY         0.00305   0.00008   0.00000   0.00000   0.00662
  14        8PZ         0.00022  -0.00501   0.00000   0.00000  -0.00001
  15        9PX         0.00000   0.00000   0.00001  -0.00101   0.00000
  16        9PY        -0.00047  -0.00003   0.00000   0.00000   0.00156
  17        9PZ         0.00008  -0.00207   0.00000   0.00000   0.00000
  18       10D 0        0.00002  -0.00034   0.00000   0.00000   0.00000
  19       10D+1        0.00000   0.00000   0.00000  -0.00028   0.00000
  20       10D-1        0.00008   0.00000   0.00000   0.00000  -0.00036
  21       10D+2        0.00001  -0.00023   0.00000   0.00000   0.00000
  22       10D-2        0.00000   0.00000  -0.00035   0.00000   0.00000
  23       11D 0       -0.00005   0.00024   0.00000   0.00000   0.00000
  24       11D+1        0.00000   0.00000   0.00001   0.00011   0.00000
  25       11D-1        0.00071   0.00003   0.00000   0.00000   0.00115
  26       11D+2       -0.00004   0.00047   0.00000   0.00000   0.00000
  27       11D-2        0.00000   0.00000   0.00029   0.00001   0.00000
  28       12D 0        0.00023  -0.00575   0.00000   0.00000  -0.00002
  29       12D+1        0.00000   0.00000   0.00000  -0.00274   0.00000
  30       12D-1        0.00367   0.00019   0.00000   0.00000  -0.00337
  31       12D+2        0.00013  -0.00313   0.00000   0.00000  -0.00002
  32       12D-2        0.00000   0.00000  -0.00231  -0.00001   0.00000
  33       13F 0       -0.00001   0.00013   0.00000   0.00000   0.00000
  34       13F+1        0.00000   0.00000   0.00000   0.00005   0.00000
  35       13F-1       -0.00039  -0.00001   0.00000   0.00000  -0.00030
  36       13F+2        0.00000  -0.00003   0.00000   0.00000   0.00000
  37       13F-2        0.00000   0.00000   0.00015   0.00000   0.00000
  38       13F+3        0.00000   0.00000   0.00000  -0.00009   0.00000
  39       13F-3       -0.00009   0.00000   0.00000   0.00000   0.00009
  40       14F 0        0.00006  -0.00100   0.00000   0.00000   0.00000
  41       14F+1        0.00000   0.00000  -0.00001   0.00005   0.00000
  42       14F-1        0.00498   0.00017   0.00000   0.00000   0.00170
  43       14F+2        0.00001  -0.00010   0.00000   0.00000   0.00000
  44       14F-2        0.00000   0.00000  -0.00120  -0.00001   0.00000
  45       14F+3        0.00000   0.00000   0.00000   0.00059   0.00000
  46       14F-3        0.00117   0.00004   0.00000   0.00000  -0.00011
  47 2   Cl 1S         -0.00210  -0.00142   0.00000   0.00000   0.02428
  48        2S          0.00747   0.00530   0.00000   0.00000  -0.08252
  49        3S          0.00034   0.00045   0.00000   0.00000   0.00229
  50        4S          0.00052   0.00023   0.00000   0.00000  -0.00611
  51        5S         -0.00105  -0.00201   0.00000   0.00000   0.00395
  52        6S         -0.00116  -0.00206   0.00000   0.00000   0.00406
  53        7PX         0.00000   0.00000  -0.69066  -0.68889   0.00000
  54        7PY        -0.42573   0.33849   0.00000   0.00000   0.13897
  55        7PZ         0.57737  -0.57076   0.00000   0.00000   0.03164
  56        8PX         0.00000   0.00000   0.01495   0.01340   0.00000
  57        8PY         0.01089  -0.00724   0.00000   0.00000  -0.00293
  58        8PZ        -0.01427   0.01326   0.00000   0.00000  -0.00146
  59        9PX         0.00000   0.00000  -0.03665  -0.03703   0.00000
  60        9PY        -0.02218   0.01771   0.00000   0.00000   0.00769
  61        9PZ         0.03020  -0.02992   0.00000   0.00000   0.00182
  62       10PX         0.00000   0.00000   0.00315   0.00274   0.00000
  63       10PY         0.00319  -0.00115   0.00000   0.00000   0.00060
  64       10PZ        -0.00462   0.00103   0.00000   0.00000   0.00009
  65       11PX         0.00000   0.00000   0.00054   0.00078   0.00000
  66       11PY         0.00038  -0.00038   0.00000   0.00000   0.00029
  67       11PZ        -0.00074   0.00046   0.00000   0.00000   0.00020
  68       12D 0        0.00047  -0.00026   0.00000   0.00000   0.00008
  69       12D+1        0.00000   0.00000  -0.00018  -0.00018   0.00000
  70       12D-1        0.00024  -0.00013   0.00000   0.00000   0.00011
  71       12D+2        0.00028  -0.00014   0.00000   0.00000  -0.00007
  72       12D-2        0.00000   0.00000  -0.00032  -0.00020   0.00000
  73       13D 0       -0.00211   0.00097   0.00000   0.00000   0.00008
  74       13D+1        0.00000   0.00000   0.00076   0.00059   0.00000
  75       13D-1       -0.00082   0.00092   0.00000   0.00000  -0.00050
  76       13D+2       -0.00103   0.00068   0.00000   0.00000   0.00017
  77       13D-2        0.00000   0.00000   0.00110   0.00102   0.00000
  78       14D 0        0.00010  -0.00090   0.00000   0.00000   0.00000
  79       14D+1        0.00000   0.00000  -0.00061   0.00006   0.00000
  80       14D-1        0.00005  -0.00029   0.00000   0.00000   0.00006
  81       14D+2        0.00001  -0.00059   0.00000   0.00000   0.00018
  82       14D-2        0.00000   0.00000  -0.00045  -0.00048   0.00000
  83       15F 0       -0.00002   0.00000   0.00000   0.00000   0.00005
  84       15F+1        0.00000   0.00000   0.00007  -0.00005   0.00000
  85       15F-1        0.00001   0.00002   0.00000   0.00000   0.00003
  86       15F+2        0.00002   0.00002   0.00000   0.00000  -0.00003
  87       15F-2        0.00000   0.00000   0.00001  -0.00003   0.00000
  88       15F+3        0.00000   0.00000   0.00001  -0.00003   0.00000
  89       15F-3        0.00003   0.00005   0.00000   0.00000  -0.00005
  90       16F 0       -0.00039  -0.00012   0.00000   0.00000   0.00018
  91       16F+1        0.00000   0.00000  -0.00013   0.00018   0.00000
  92       16F-1       -0.00096   0.00044   0.00000   0.00000  -0.00017
  93       16F+2       -0.00008  -0.00029   0.00000   0.00000   0.00030
  94       16F-2        0.00000   0.00000   0.00034   0.00033   0.00000
  95       16F+3        0.00000   0.00000  -0.00030  -0.00022   0.00000
  96       16F-3       -0.00029   0.00018   0.00000   0.00000   0.00021
  97 3   Cl 1S          0.00230  -0.00103   0.00000   0.00000  -0.02433
  98        2S         -0.00819   0.00397   0.00000   0.00000   0.08268
  99        3S         -0.00035   0.00045   0.00000   0.00000  -0.00228
 100        4S         -0.00055   0.00013   0.00000   0.00000   0.00612
 101        5S          0.00118  -0.00185   0.00000   0.00000  -0.00398
 102        6S          0.00131  -0.00192   0.00000   0.00000  -0.00410
 103        7PX         0.00000   0.00000   0.69425  -0.68535   0.00000
 104        7PY        -0.39627  -0.37026   0.00000   0.00000   0.13747
 105        7PZ        -0.53093  -0.61581   0.00000   0.00000  -0.03380
 106        8PX         0.00000   0.00000  -0.01500   0.01331   0.00000
 107        8PY         0.01023   0.00802   0.00000   0.00000  -0.00290
 108        8PZ         0.01313   0.01434   0.00000   0.00000   0.00150
 109        9PX         0.00000   0.00000   0.03682  -0.03682   0.00000
 110        9PY        -0.02064  -0.01937   0.00000   0.00000   0.00760
 111        9PZ        -0.02775  -0.03227   0.00000   0.00000  -0.00193
 112       10PX         0.00000   0.00000  -0.00319   0.00275   0.00000
 113       10PY         0.00309   0.00139   0.00000   0.00000   0.00064
 114       10PZ         0.00450   0.00140   0.00000   0.00000  -0.00012
 115       11PX         0.00000   0.00000  -0.00056   0.00078   0.00000
 116       11PY         0.00035   0.00041   0.00000   0.00000   0.00030
 117       11PZ         0.00070   0.00052   0.00000   0.00000  -0.00020
 118       12D 0       -0.00044  -0.00029   0.00000   0.00000  -0.00008
 119       12D+1        0.00000   0.00000   0.00018  -0.00018   0.00000
 120       12D-1        0.00023   0.00015   0.00000   0.00000   0.00011
 121       12D+2       -0.00026  -0.00016   0.00000   0.00000   0.00007
 122       12D-2        0.00000   0.00000  -0.00032   0.00020   0.00000
 123       13D 0        0.00200   0.00110   0.00000   0.00000  -0.00008
 124       13D+1        0.00000   0.00000  -0.00075   0.00057   0.00000
 125       13D-1       -0.00073  -0.00097   0.00000   0.00000  -0.00049
 126       13D+2        0.00096   0.00075   0.00000   0.00000  -0.00016
 127       13D-2        0.00000   0.00000   0.00109  -0.00100   0.00000
 128       14D 0       -0.00003  -0.00091   0.00000   0.00000  -0.00001
 129       14D+1        0.00000   0.00000   0.00061   0.00006   0.00000
 130       14D-1        0.00003   0.00031   0.00000   0.00000   0.00008
 131       14D+2        0.00004  -0.00059   0.00000   0.00000  -0.00017
 132       14D-2        0.00000   0.00000  -0.00045   0.00048   0.00000
 133       15F 0        0.00001   0.00000   0.00000   0.00000  -0.00004
 134       15F+1        0.00000   0.00000  -0.00007  -0.00005   0.00000
 135       15F-1        0.00001  -0.00002   0.00000   0.00000   0.00003
 136       15F+2       -0.00002   0.00002   0.00000   0.00000   0.00003
 137       15F-2        0.00000   0.00000   0.00001   0.00003   0.00000
 138       15F+3        0.00000   0.00000  -0.00001  -0.00003   0.00000
 139       15F-3        0.00004  -0.00004   0.00000   0.00000  -0.00005
 140       16F 0        0.00039  -0.00010   0.00000   0.00000  -0.00018
 141       16F+1        0.00000   0.00000   0.00013   0.00018   0.00000
 142       16F-1       -0.00091  -0.00050   0.00000   0.00000  -0.00017
 143       16F+2        0.00010  -0.00028   0.00000   0.00000  -0.00030
 144       16F-2        0.00000   0.00000   0.00033  -0.00033   0.00000
 145       16F+3        0.00000   0.00000   0.00030  -0.00022   0.00000
 146       16F-3       -0.00027  -0.00020   0.00000   0.00000   0.00021
 147 4   S  1S         -0.00001   0.00087   0.00000   0.00000  -0.00081
 148        2S          0.00003  -0.00301   0.00000   0.00000   0.00276
 149        3S         -0.00002   0.00039   0.00000   0.00000  -0.00009
 150        4S         -0.00001  -0.00004   0.00000   0.00000   0.00018
 151        5S         -0.00027   0.00750   0.00000   0.00000   0.00002
 152        6S         -0.00011   0.00342   0.00000   0.00000   0.00000
 153        7PX         0.00000   0.00000   0.00008   0.11581   0.00000
 154        7PY         0.08256   0.00149   0.00000   0.00000   0.94876
 155        7PZ         0.00248  -0.05746   0.00000   0.00000   0.00340
 156        8PX         0.00000   0.00000   0.00000  -0.00356   0.00000
 157        8PY        -0.00483  -0.00014   0.00000   0.00000  -0.01861
 158        8PZ        -0.00006   0.00099   0.00000   0.00000  -0.00007
 159        9PX         0.00000   0.00000   0.00000   0.00669   0.00000
 160        9PY         0.00486   0.00009   0.00000   0.00000   0.05481
 161        9PZ         0.00015  -0.00330   0.00000   0.00000   0.00020
 162       10PX         0.00000   0.00000   0.00000   0.00147   0.00000
 163       10PY        -0.00577  -0.00023   0.00000   0.00000  -0.00510
 164       10PZ         0.00001  -0.00126   0.00000   0.00000  -0.00003
 165       11PX         0.00000   0.00000   0.00000   0.00024   0.00000
 166       11PY        -0.00031  -0.00001   0.00000   0.00000  -0.00114
 167       11PZ         0.00000   0.00000   0.00000   0.00000   0.00000
 168       12D 0        0.00003  -0.00041   0.00000   0.00000   0.00001
 169       12D+1        0.00000   0.00000   0.00000  -0.00001   0.00000
 170       12D-1        0.00241   0.00008   0.00000   0.00000   0.00272
 171       12D+2        0.00000  -0.00009   0.00000   0.00000   0.00000
 172       12D-2        0.00000   0.00000   0.00033   0.00000   0.00000
 173       13D 0        0.00000   0.00000   0.00000   0.00000   0.00000
 174       13D+1        0.00000   0.00000   0.00000  -0.00006   0.00000
 175       13D-1       -0.00005   0.00000   0.00000   0.00000  -0.00034
 176       13D+2        0.00000  -0.00009   0.00000   0.00000   0.00000
 177       13D-2        0.00000   0.00000  -0.00010   0.00000   0.00000
 178       14D 0        0.00001  -0.00006   0.00000   0.00000   0.00001
 179       14D+1        0.00000   0.00000   0.00000  -0.00142   0.00000
 180       14D-1        0.00148   0.00006   0.00000   0.00000  -0.00029
 181       14D+2       -0.00002   0.00038   0.00000   0.00000   0.00000
 182       14D-2        0.00000   0.00000   0.00062   0.00000   0.00000
 183       15F 0       -0.00001   0.00009   0.00000   0.00000   0.00000
 184       15F+1        0.00000   0.00000   0.00000  -0.00008   0.00000
 185       15F-1       -0.00022  -0.00001   0.00000   0.00000  -0.00019
 186       15F+2       -0.00001   0.00012   0.00000   0.00000   0.00000
 187       15F-2        0.00000   0.00000   0.00006   0.00000   0.00000
 188       15F+3        0.00000   0.00000   0.00000   0.00001   0.00000
 189       15F-3       -0.00003   0.00000   0.00000   0.00000   0.00009
 190       16F 0       -0.00001   0.00021   0.00000   0.00000   0.00000
 191       16F+1        0.00000   0.00000   0.00000   0.00024   0.00000
 192       16F-1       -0.00071  -0.00002   0.00000   0.00000  -0.00089
 193       16F+2        0.00001  -0.00006   0.00000   0.00000   0.00000
 194       16F-2        0.00000   0.00000  -0.00052   0.00000   0.00000
 195       16F+3        0.00000   0.00000   0.00000  -0.00017   0.00000
 196       16F-3       -0.00017  -0.00001   0.00000   0.00000  -0.00018
                           6         7         8         9        10
     Eigenvalues --     2.00003   2.00003   2.00002   2.00001   2.00001
   1 1   C  1S         -0.16118   0.02951  -0.15458   0.60642   0.04586
   2        2S          0.00332  -0.00061   0.00300  -0.01070  -0.00087
   3        3S         -0.00592   0.00109  -0.00606   0.02407   0.00159
   4        4S         -0.00877   0.00157  -0.00737   0.00630   0.00260
   5        5S         -0.00150   0.00026   0.00014   0.00367   0.00111
   6        6PX         0.00000   0.00000   0.00000   0.00000   0.00000
   7        6PY        -0.00018  -0.00088   0.00000   0.00005   0.00263
   8        6PZ        -0.00011   0.00002   0.00115  -0.00210   0.00060
   9        7PX         0.00000   0.00000   0.00000   0.00000   0.00000
  10        7PY        -0.00003  -0.00027   0.00001   0.00000  -0.00025
  11        7PZ        -0.00079   0.00015  -0.00061   0.00104   0.00037
  12        8PX         0.00000   0.00000   0.00000   0.00000   0.00000
  13        8PY         0.00057   0.00287  -0.00002  -0.00002  -0.00180
  14        8PZ         0.00142  -0.00022  -0.00723   0.00478  -0.00089
  15        9PX         0.00000   0.00000   0.00000   0.00000   0.00000
  16        9PY        -0.00010  -0.00060  -0.00001   0.00001   0.00064
  17        9PZ        -0.00055   0.00011   0.00016   0.00098   0.00005
  18       10D 0       -0.00003   0.00001  -0.00010   0.00009   0.00002
  19       10D+1        0.00000   0.00000   0.00000   0.00000   0.00000
  20       10D-1       -0.00002  -0.00011   0.00000   0.00000   0.00000
  21       10D+2        0.00006  -0.00001   0.00002  -0.00015   0.00000
  22       10D-2        0.00000   0.00000   0.00000   0.00000   0.00000
  23       11D 0       -0.00047   0.00009  -0.00091   0.00036   0.00016
  24       11D+1        0.00000   0.00000   0.00000   0.00000   0.00000
  25       11D-1       -0.00024  -0.00118   0.00000   0.00003   0.00247
  26       11D+2        0.00082  -0.00015  -0.00031   0.00074  -0.00031
  27       11D-2        0.00000   0.00000   0.00000   0.00000   0.00000
  28       12D 0        0.00050  -0.00009  -0.00176   0.00224  -0.00050
  29       12D+1        0.00000   0.00000   0.00000   0.00000   0.00000
  30       12D-1       -0.00087  -0.00442   0.00004   0.00008   0.00469
  31       12D+2        0.00135  -0.00024  -0.00076   0.00022  -0.00067
  32       12D-2        0.00000   0.00000   0.00000   0.00000   0.00000
  33       13F 0       -0.00012   0.00002  -0.00001  -0.00004   0.00006
  34       13F+1        0.00000   0.00000   0.00000   0.00000   0.00000
  35       13F-1        0.00000  -0.00003   0.00000   0.00000  -0.00001
  36       13F+2       -0.00004   0.00001  -0.00006   0.00000  -0.00003
  37       13F-2        0.00000   0.00000   0.00000   0.00000   0.00000
  38       13F+3        0.00000   0.00000   0.00000   0.00000   0.00000
  39       13F-3        0.00001   0.00003   0.00000   0.00000  -0.00009
  40       14F 0        0.00015  -0.00002   0.00044  -0.00153   0.00009
  41       14F+1        0.00000   0.00000   0.00000   0.00000   0.00000
  42       14F-1       -0.00001  -0.00001   0.00000   0.00003   0.00138
  43       14F+2       -0.00016   0.00003   0.00056  -0.00105   0.00016
  44       14F-2        0.00000   0.00000   0.00000   0.00000   0.00000
  45       14F+3        0.00000   0.00000   0.00000   0.00000   0.00000
  46       14F-3       -0.00007  -0.00036   0.00000   0.00002   0.00081
  47 2   Cl 1S         -0.20454  -0.13944   0.01734  -0.04679  -0.12541
  48        2S          0.69009   0.47062  -0.05882   0.16017   0.42634
  49        3S         -0.02055  -0.01385   0.00154  -0.00209  -0.00691
  50        4S          0.05362   0.03657  -0.00451   0.01277   0.03553
  51        5S         -0.00126   0.00048  -0.00144   0.00010  -0.00959
  52        6S         -0.00062  -0.00062  -0.00010  -0.00010   0.00147
  53        7PX         0.00000   0.00000   0.00000   0.00000   0.00000
  54        7PY        -0.34059  -0.20497   0.05948   0.11107   0.55382
  55        7PZ        -0.21341  -0.18211   0.00374   0.08968   0.39525
  56        8PX         0.00000   0.00000   0.00000   0.00000   0.00000
  57        8PY         0.00627   0.00392  -0.00152  -0.00099  -0.00951
  58        8PZ         0.00389   0.00353  -0.00043  -0.00068  -0.00723
  59        9PX         0.00000   0.00000   0.00000   0.00000   0.00000
  60        9PY        -0.01942  -0.01169   0.00336   0.00671   0.03399
  61        9PZ        -0.01218  -0.01036   0.00022   0.00541   0.02439
  62       10PX         0.00000   0.00000   0.00000   0.00000   0.00000
  63       10PY         0.00221   0.00148  -0.00058  -0.00010  -0.00066
  64       10PZ         0.00166   0.00059  -0.00052   0.00087  -0.00084
  65       11PX         0.00000   0.00000   0.00000   0.00000   0.00000
  66       11PY        -0.00002   0.00013  -0.00003  -0.00003   0.00011
  67       11PZ         0.00007  -0.00010  -0.00013  -0.00009   0.00022
  68       12D 0       -0.00005  -0.00001   0.00002  -0.00001   0.00001
  69       12D+1        0.00000   0.00000   0.00000   0.00000   0.00000
  70       12D-1        0.00021   0.00014   0.00002   0.00009   0.00048
  71       12D+2       -0.00009  -0.00005   0.00003  -0.00014  -0.00036
  72       12D-2        0.00000   0.00000   0.00000   0.00000   0.00000
  73       13D 0       -0.00002   0.00024   0.00015  -0.00013  -0.00049
  74       13D+1        0.00000   0.00000   0.00000   0.00000   0.00000
  75       13D-1        0.00050   0.00039  -0.00011   0.00004  -0.00251
  76       13D+2       -0.00055  -0.00023   0.00014   0.00027   0.00148
  77       13D-2        0.00000   0.00000   0.00000   0.00000   0.00000
  78       14D 0       -0.00004  -0.00024   0.00018  -0.00002   0.00005
  79       14D+1        0.00000   0.00000   0.00000   0.00000   0.00000
  80       14D-1        0.00033   0.00013   0.00004   0.00025   0.00018
  81       14D+2       -0.00016   0.00025  -0.00005   0.00008  -0.00084
  82       14D-2        0.00000   0.00000   0.00000   0.00000   0.00000
  83       15F 0        0.00001   0.00004   0.00001   0.00000  -0.00004
  84       15F+1        0.00000   0.00000   0.00000   0.00000   0.00000
  85       15F-1        0.00001   0.00003   0.00001   0.00000  -0.00008
  86       15F+2       -0.00001  -0.00001   0.00000   0.00000   0.00005
  87       15F-2        0.00000   0.00000   0.00000   0.00000   0.00000
  88       15F+3        0.00000   0.00000   0.00000   0.00000   0.00000
  89       15F-3       -0.00004  -0.00002   0.00002   0.00000   0.00005
  90       16F 0       -0.00009  -0.00010   0.00010  -0.00025   0.00035
  91       16F+1        0.00000   0.00000   0.00000   0.00000   0.00000
  92       16F-1        0.00003   0.00007   0.00003   0.00000  -0.00042
  93       16F+2       -0.00016  -0.00010   0.00006  -0.00005   0.00059
  94       16F-2        0.00000   0.00000   0.00000   0.00000   0.00000
  95       16F+3        0.00000   0.00000   0.00000   0.00000   0.00000
  96       16F-3       -0.00010   0.00003  -0.00004   0.00016   0.00015
  97 3   Cl 1S         -0.14031   0.20531   0.01781  -0.04245   0.07981
  98        2S          0.47330  -0.69284  -0.06041   0.14539  -0.27106
  99        3S         -0.01410   0.02041   0.00159  -0.00185   0.00441
 100        4S          0.03679  -0.05385  -0.00463   0.01154  -0.02265
 101        5S         -0.00147   0.00015  -0.00137   0.00039   0.00590
 102        6S         -0.00038   0.00084  -0.00005  -0.00015  -0.00176
 103        7PX         0.00000   0.00000   0.00000   0.00000   0.00000
 104        7PY         0.23951  -0.31119  -0.06063  -0.09536   0.35296
 105        7PZ        -0.12970   0.24427   0.00401   0.07732  -0.28237
 106        8PX         0.00000   0.00000   0.00000   0.00000   0.00000
 107        8PY        -0.00432   0.00583   0.00155   0.00071  -0.00603
 108        8PZ         0.00226  -0.00463  -0.00043  -0.00045   0.00515
 109        9PX         0.00000   0.00000   0.00000   0.00000   0.00000
 110        9PY         0.01365  -0.01775  -0.00343  -0.00575   0.02163
 111        9PZ        -0.00741   0.01390   0.00024   0.00465  -0.01743
 112       10PX         0.00000   0.00000   0.00000   0.00000   0.00000
 113       10PY        -0.00147   0.00214   0.00058   0.00006  -0.00023
 114       10PZ         0.00129  -0.00112  -0.00052   0.00088   0.00000
 115       11PX         0.00000   0.00000   0.00000   0.00000   0.00000
 116       11PY         0.00007   0.00011   0.00003   0.00003   0.00009
 117       11PZ         0.00010   0.00007  -0.00013  -0.00010  -0.00023
 118       12D 0       -0.00004   0.00002   0.00002  -0.00001   0.00000
 119       12D+1        0.00000   0.00000   0.00000   0.00000   0.00000
 120       12D-1       -0.00014   0.00021  -0.00002  -0.00008   0.00031
 121       12D+2       -0.00007   0.00009   0.00002  -0.00013   0.00025
 122       12D-2        0.00000   0.00000   0.00000   0.00000   0.00000
 123       13D 0       -0.00011  -0.00022   0.00015  -0.00011   0.00064
 124       13D+1        0.00000   0.00000   0.00000   0.00000   0.00000
 125       13D-1       -0.00029   0.00053   0.00011  -0.00013  -0.00179
 126       13D+2       -0.00041   0.00040   0.00015   0.00022  -0.00080
 127       13D-2        0.00000   0.00000   0.00000   0.00000   0.00000
 128       14D 0        0.00005   0.00024   0.00018  -0.00003  -0.00004
 129       14D+1        0.00000   0.00000   0.00000   0.00000   0.00000
 130       14D-1       -0.00026   0.00024  -0.00003  -0.00025   0.00012
 131       14D+2       -0.00024  -0.00017  -0.00004   0.00010   0.00071
 132       14D-2        0.00000   0.00000   0.00000   0.00000   0.00000
 133       15F 0        0.00000  -0.00004   0.00001   0.00000   0.00004
 134       15F+1        0.00000   0.00000   0.00000   0.00000   0.00000
 135       15F-1        0.00001   0.00003  -0.00001   0.00000  -0.00010
 136       15F+2       -0.00001   0.00001   0.00000  -0.00001  -0.00003
 137       15F-2        0.00000   0.00000   0.00000   0.00000   0.00000
 138       15F+3        0.00000   0.00000   0.00000   0.00000   0.00000
 139       15F-3        0.00003  -0.00003  -0.00002   0.00000   0.00000
 140       16F 0       -0.00005   0.00013   0.00010  -0.00026  -0.00023
 141       16F+1        0.00000   0.00000   0.00000   0.00000   0.00000
 142       16F-1        0.00000   0.00008  -0.00003  -0.00001  -0.00041
 143       16F+2       -0.00011   0.00015   0.00006  -0.00007  -0.00043
 144       16F-2        0.00000   0.00000   0.00000   0.00000   0.00000
 145       16F+3        0.00000   0.00000   0.00000   0.00000   0.00000
 146       16F-3        0.00010  -0.00001   0.00004  -0.00015   0.00007
 147 4   S  1S         -0.01952   0.00383  -0.21776  -0.15665   0.02549
 148        2S          0.06650  -0.01304   0.74430   0.54104  -0.08796
 149        3S         -0.00196   0.00038  -0.02071  -0.00812   0.00141
 150        4S          0.00430  -0.00085   0.04989   0.03889  -0.00632
 151        5S          0.00157  -0.00031   0.00653  -0.01183   0.00055
 152        6S          0.00205  -0.00038  -0.00078  -0.00361  -0.00112
 153        7PX         0.00000   0.00000   0.00000   0.00000   0.00000
 154        7PY         0.03547   0.18816  -0.00411  -0.00113  -0.09597
 155        7PZ         0.05049  -0.00991   0.61589  -0.47242   0.10773
 156        8PX         0.00000   0.00000   0.00000   0.00000   0.00000
 157        8PY        -0.00056  -0.00302   0.00007  -0.00001  -0.00029
 158        8PZ        -0.00152   0.00030  -0.01164   0.00820  -0.00133
 159        9PX         0.00000   0.00000   0.00000   0.00000   0.00000
 160        9PY         0.00207   0.01101  -0.00024  -0.00007  -0.00581
 161        9PZ         0.00327  -0.00064   0.03790  -0.03093   0.00693
 162       10PX         0.00000   0.00000   0.00000   0.00000   0.00000
 163       10PY         0.00038   0.00184  -0.00001  -0.00007  -0.00357
 164       10PZ        -0.00224   0.00042  -0.00665   0.00511   0.00057
 165       11PX         0.00000   0.00000   0.00000   0.00000   0.00000
 166       11PY         0.00004   0.00019   0.00000   0.00000  -0.00025
 167       11PZ        -0.00022   0.00004   0.00012   0.00023   0.00019
 168       12D 0        0.00082  -0.00015   0.00212  -0.00265   0.00016
 169       12D+1        0.00000   0.00000   0.00000   0.00000   0.00000
 170       12D-1        0.00002   0.00018  -0.00001   0.00002   0.00082
 171       12D+2       -0.00005   0.00001  -0.00044   0.00020   0.00003
 172       12D-2        0.00000   0.00000   0.00000   0.00000   0.00000
 173       13D 0        0.00007  -0.00001   0.00014   0.00022  -0.00008
 174       13D+1        0.00000   0.00000   0.00000   0.00000   0.00000
 175       13D-1        0.00001   0.00002   0.00000   0.00000  -0.00006
 176       13D+2        0.00004  -0.00001   0.00030   0.00016  -0.00003
 177       13D-2        0.00000   0.00000   0.00000   0.00000   0.00000
 178       14D 0        0.00054  -0.00010   0.00104  -0.00068  -0.00021
 179       14D+1        0.00000   0.00000   0.00000   0.00000   0.00000
 180       14D-1       -0.00015  -0.00075   0.00001   0.00002   0.00094
 181       14D+2       -0.00031   0.00006   0.00039   0.00001   0.00017
 182       14D-2        0.00000   0.00000   0.00000   0.00000   0.00000
 183       15F 0       -0.00013   0.00003  -0.00016   0.00025   0.00004
 184       15F+1        0.00000   0.00000   0.00000   0.00000   0.00000
 185       15F-1        0.00000   0.00000   0.00000   0.00000  -0.00006
 186       15F+2        0.00000   0.00000   0.00012  -0.00016   0.00002
 187       15F-2        0.00000   0.00000   0.00000   0.00000   0.00000
 188       15F+3        0.00000   0.00000   0.00000   0.00000   0.00000
 189       15F-3        0.00001   0.00003   0.00000   0.00000  -0.00005
 190       16F 0       -0.00014   0.00003  -0.00046   0.00048  -0.00007
 191       16F+1        0.00000   0.00000   0.00000   0.00000   0.00000
 192       16F-1        0.00000  -0.00003   0.00000  -0.00001  -0.00031
 193       16F+2        0.00012  -0.00002  -0.00008  -0.00012  -0.00008
 194       16F-2        0.00000   0.00000   0.00000   0.00000   0.00000
 195       16F+3        0.00000   0.00000   0.00000   0.00000   0.00000
 196       16F-3        0.00000   0.00000   0.00000   0.00000  -0.00003
                          11        12        13        14        15
     Eigenvalues --     2.00001   2.00001   2.00000   2.00000   2.00000
   1 1   C  1S          0.22250   0.00000   0.70155   0.00186   0.00166
   2        2S         -0.00417   0.00000  -0.00706  -0.00003  -0.00006
   3        3S          0.00788   0.00000   0.03017   0.00011   0.00007
   4        4S          0.01112   0.00000  -0.02255  -0.00043  -0.00014
   5        5S          0.00474   0.00000  -0.00549  -0.00020  -0.00015
   6        6PX         0.00000  -0.00183   0.00000   0.00000   0.00000
   7        6PY        -0.00067   0.00000   0.00000   0.00000   0.00000
   8        6PZ         0.00211   0.00000  -0.00126  -0.00001   0.00000
   9        7PX         0.00000  -0.00141   0.00000   0.00000   0.00000
  10        7PY         0.00005   0.00000   0.00002   0.00000   0.00000
  11        7PZ         0.00161   0.00000   0.00253   0.00000  -0.00008
  12        8PX         0.00000   0.00075   0.00000   0.00000   0.00000
  13        8PY         0.00048   0.00000  -0.00001   0.00000   0.00000
  14        8PZ        -0.00305   0.00000   0.00248  -0.00006  -0.00001
  15        9PX         0.00000  -0.00104   0.00000   0.00000   0.00000
  16        9PY        -0.00018   0.00000   0.00000   0.00000   0.00000
  17        9PZ         0.00028   0.00000   0.00052  -0.00003  -0.00005
  18       10D 0        0.00006   0.00000   0.00030   0.00000   0.00000
  19       10D+1        0.00000  -0.00019   0.00000   0.00000   0.00000
  20       10D-1        0.00000   0.00000   0.00000   0.00000   0.00000
  21       10D+2       -0.00003   0.00000  -0.00021   0.00000   0.00000
  22       10D-2        0.00000   0.00000   0.00000   0.00000   0.00000
  23       11D 0        0.00072   0.00000  -0.00031  -0.00004  -0.00005
  24       11D+1        0.00000   0.00118   0.00000   0.00000   0.00000
  25       11D-1       -0.00064   0.00000   0.00000   0.00000   0.00000
  26       11D+2       -0.00122   0.00000   0.00311   0.00006  -0.00001
  27       11D-2        0.00000   0.00000   0.00000   0.00000   0.00000
  28       12D 0       -0.00176   0.00000  -0.00124  -0.00006  -0.00006
  29       12D+1        0.00000  -0.00103   0.00000   0.00000   0.00000
  30       12D-1       -0.00117   0.00000  -0.00001   0.00000   0.00000
  31       12D+2       -0.00264   0.00000   0.00170   0.00003  -0.00001
  32       12D-2        0.00000   0.00000   0.00000   0.00000   0.00000
  33       13F 0        0.00025   0.00000   0.00028   0.00000   0.00000
  34       13F+1        0.00000  -0.00018   0.00000   0.00000   0.00000
  35       13F-1        0.00000   0.00000   0.00000   0.00000   0.00000
  36       13F+2       -0.00008   0.00000  -0.00004  -0.00001   0.00000
  37       13F-2        0.00000   0.00000   0.00000   0.00000   0.00000
  38       13F+3        0.00000   0.00007   0.00000   0.00000   0.00000
  39       13F-3        0.00002   0.00000   0.00000   0.00000   0.00000
  40       14F 0        0.00029   0.00000  -0.00113  -0.00003   0.00001
  41       14F+1        0.00000   0.00119   0.00000   0.00000   0.00000
  42       14F-1       -0.00034   0.00000   0.00000   0.00000   0.00000
  43       14F+2        0.00058   0.00000  -0.00138  -0.00003   0.00002
  44       14F-2        0.00000   0.00000   0.00000   0.00000   0.00000
  45       14F+3        0.00000  -0.00014   0.00000   0.00000   0.00000
  46       14F-3       -0.00021   0.00000   0.00000   0.00000   0.00000
  47 2   Cl 1S         -0.06284   0.00000   0.03006   0.62730  -0.25997
  48        2S          0.21425   0.00000  -0.10757   0.00588  -0.00285
  49        3S         -0.00335   0.00000   0.00061   0.00009  -0.00006
  50        4S          0.01772   0.00000  -0.00971   0.00010  -0.00007
  51        5S         -0.00520   0.00000   0.00909   0.00008   0.00005
  52        6S         -0.00107   0.00000   0.00342   0.00006   0.00006
  53        7PX         0.00000   0.08178   0.00000   0.00000   0.00000
  54        7PY         0.28486   0.00000  -0.27608  -0.00161  -0.00035
  55        7PZ         0.13682   0.00000  -0.18734  -0.00103  -0.00036
  56        8PX         0.00000  -0.00044   0.00000   0.00000   0.00000
  57        8PY        -0.00488   0.00000   0.00477   0.00008  -0.00002
  58        8PZ        -0.00245   0.00000   0.00347   0.00006  -0.00002
  59        9PX         0.00000   0.00478   0.00000   0.00000   0.00000
  60        9PY         0.01755   0.00000  -0.01785  -0.00013  -0.00001
  61        9PZ         0.00842   0.00000  -0.01216  -0.00009  -0.00001
  62       10PX         0.00000  -0.00070   0.00000   0.00000   0.00000
  63       10PY        -0.00082   0.00000   0.00354   0.00003   0.00006
  64       10PZ        -0.00149   0.00000   0.00243   0.00001   0.00002
  65       11PX         0.00000   0.00034   0.00000   0.00000   0.00000
  66       11PY         0.00002   0.00000   0.00027   0.00001   0.00001
  67       11PZ        -0.00010   0.00000   0.00010   0.00001   0.00002
  68       12D 0        0.00002   0.00000   0.00000   0.00000   0.00000
  69       12D+1        0.00000  -0.00007   0.00000   0.00000   0.00000
  70       12D-1        0.00023   0.00000  -0.00031   0.00000   0.00000
  71       12D+2       -0.00014   0.00000   0.00020   0.00000   0.00000
  72       12D-2        0.00000  -0.00005   0.00000   0.00000   0.00000
  73       13D 0        0.00046   0.00000   0.00007   0.00000   0.00000
  74       13D+1        0.00000  -0.00005   0.00000   0.00000   0.00000
  75       13D-1       -0.00084   0.00000   0.00194   0.00003  -0.00001
  76       13D+2        0.00105   0.00000  -0.00119  -0.00002   0.00000
  77       13D-2        0.00000  -0.00023   0.00000   0.00000   0.00000
  78       14D 0        0.00000   0.00000   0.00013   0.00000   0.00000
  79       14D+1        0.00000  -0.00023   0.00000   0.00000   0.00000
  80       14D-1        0.00011   0.00000   0.00067  -0.00001   0.00001
  81       14D+2       -0.00003   0.00000  -0.00056   0.00000  -0.00002
  82       14D-2        0.00000  -0.00055   0.00000   0.00000   0.00000
  83       15F 0        0.00002   0.00000   0.00003   0.00000   0.00000
  84       15F+1        0.00000   0.00000   0.00000   0.00000   0.00000
  85       15F-1        0.00005   0.00000  -0.00002   0.00000   0.00000
  86       15F+2        0.00002   0.00000   0.00000   0.00000   0.00000
  87       15F-2        0.00000  -0.00001   0.00000   0.00000   0.00000
  88       15F+3        0.00000  -0.00003   0.00000   0.00000   0.00000
  89       15F-3        0.00010   0.00000  -0.00004   0.00000   0.00000
  90       16F 0        0.00016   0.00000  -0.00026   0.00000   0.00000
  91       16F+1        0.00000   0.00001   0.00000   0.00000   0.00000
  92       16F-1        0.00010   0.00000   0.00032   0.00000   0.00000
  93       16F+2        0.00018   0.00000  -0.00045   0.00000   0.00000
  94       16F-2        0.00000   0.00000   0.00000   0.00000   0.00000
  95       16F+3        0.00000   0.00020   0.00000   0.00000   0.00000
  96       16F-3        0.00013   0.00000  -0.00017   0.00000   0.00000
  97 3   Cl 1S         -0.11471   0.00000   0.02971   0.66963  -0.29190
  98        2S          0.39046   0.00000  -0.10629   0.00633  -0.00318
  99        3S         -0.00618   0.00000   0.00057   0.00010  -0.00007
 100        4S          0.03243   0.00000  -0.00960   0.00011  -0.00008
 101        5S         -0.00911   0.00000   0.00903   0.00007   0.00005
 102        6S         -0.00018   0.00000   0.00342   0.00005   0.00006
 103        7PX         0.00000   0.08125   0.00000   0.00000   0.00000
 104        7PY        -0.52149   0.00000   0.27661   0.00164   0.00033
 105        7PZ         0.31236   0.00000  -0.18680  -0.00104  -0.00035
 106        8PX         0.00000  -0.00044   0.00000   0.00000   0.00000
 107        8PY         0.00890   0.00000  -0.00477  -0.00008   0.00002
 108        8PZ        -0.00561   0.00000   0.00343   0.00006  -0.00002
 109        9PX         0.00000   0.00475   0.00000   0.00000   0.00000
 110        9PY        -0.03207   0.00000   0.01788   0.00013   0.00001
 111        9PZ         0.01925   0.00000  -0.01212  -0.00009  -0.00001
 112       10PX         0.00000  -0.00069   0.00000   0.00000   0.00000
 113       10PY         0.00104   0.00000  -0.00355  -0.00003  -0.00006
 114       10PZ        -0.00167   0.00000   0.00242   0.00001   0.00002
 115       11PX         0.00000   0.00034   0.00000   0.00000   0.00000
 116       11PY        -0.00007   0.00000  -0.00027   0.00000  -0.00001
 117       11PZ         0.00002   0.00000   0.00010   0.00001   0.00002
 118       12D 0        0.00001   0.00000   0.00001   0.00000   0.00000
 119       12D+1        0.00000  -0.00007   0.00000   0.00000   0.00000
 120       12D-1       -0.00043   0.00000   0.00031   0.00000   0.00000
 121       12D+2       -0.00030   0.00000   0.00020   0.00000   0.00000
 122       12D-2        0.00000   0.00005   0.00000   0.00000   0.00000
 123       13D 0        0.00019   0.00000   0.00006   0.00000   0.00000
 124       13D+1        0.00000  -0.00005   0.00000   0.00000   0.00000
 125       13D-1        0.00193   0.00000  -0.00194  -0.00003   0.00001
 126       13D+2        0.00165   0.00000  -0.00120  -0.00002   0.00000
 127       13D-2        0.00000   0.00022   0.00000   0.00000   0.00000
 128       14D 0        0.00003   0.00000   0.00012   0.00000   0.00000
 129       14D+1        0.00000  -0.00023   0.00000   0.00000   0.00000
 130       14D-1       -0.00019   0.00000  -0.00067   0.00001  -0.00001
 131       14D+2       -0.00043   0.00000  -0.00057   0.00000  -0.00002
 132       14D-2        0.00000   0.00055   0.00000   0.00000   0.00000
 133       15F 0        0.00000   0.00000   0.00002   0.00000   0.00000
 134       15F+1        0.00000   0.00000   0.00000   0.00000   0.00000
 135       15F-1        0.00000   0.00000   0.00001   0.00000   0.00000
 136       15F+2        0.00004   0.00000  -0.00001   0.00000   0.00000
 137       15F-2        0.00000   0.00001   0.00000   0.00000   0.00000
 138       15F+3        0.00000  -0.00003   0.00000   0.00000   0.00000
 139       15F-3       -0.00011   0.00000   0.00005   0.00000   0.00000
 140       16F 0        0.00031   0.00000  -0.00026   0.00000   0.00000
 141       16F+1        0.00000   0.00001   0.00000   0.00000   0.00000
 142       16F-1        0.00010   0.00000  -0.00032   0.00000   0.00000
 143       16F+2        0.00043   0.00000  -0.00045   0.00000   0.00000
 144       16F-2        0.00000   0.00000   0.00000   0.00000   0.00000
 145       16F+3        0.00000   0.00020   0.00000   0.00000   0.00000
 146       16F-3       -0.00019   0.00000   0.00017   0.00000   0.00000
 147 4   S  1S          0.08744   0.00000   0.04989   0.39071   0.91664
 148        2S         -0.30162   0.00000  -0.18470   0.00466   0.01206
 149        3S          0.00484   0.00000   0.00154   0.00014   0.00029
 150        4S         -0.02165   0.00000  -0.01369  -0.00004  -0.00003
 151        5S          0.00098   0.00000   0.00624   0.00018   0.00000
 152        6S         -0.00474   0.00000   0.00112   0.00013   0.00007
 153        7PX         0.00000   0.96515   0.00000   0.00000   0.00000
 154        7PY         0.02479   0.00000  -0.00097  -0.00001   0.00000
 155        7PZ         0.38248   0.00000   0.42446   0.00207   0.00223
 156        8PX         0.00000  -0.01127   0.00000   0.00000   0.00000
 157        8PY         0.00007   0.00000   0.00001   0.00000   0.00000
 158        8PZ        -0.00442   0.00000  -0.00459  -0.00012  -0.00016
 159        9PX         0.00000   0.06175   0.00000   0.00000   0.00000
 160        9PY         0.00150   0.00000  -0.00006   0.00000   0.00000
 161        9PZ         0.02456   0.00000   0.02818   0.00017   0.00021
 162       10PX         0.00000   0.00103   0.00000   0.00000   0.00000
 163       10PY         0.00088   0.00000   0.00001   0.00000   0.00000
 164       10PZ         0.00277   0.00000  -0.00186  -0.00009   0.00005
 165       11PX         0.00000  -0.00028   0.00000   0.00000   0.00000
 166       11PY         0.00007   0.00000   0.00000   0.00000   0.00000
 167       11PZ         0.00078   0.00000  -0.00015  -0.00001   0.00001
 168       12D 0        0.00034   0.00000   0.00112   0.00004   0.00005
 169       12D+1        0.00000   0.00217   0.00000   0.00000   0.00000
 170       12D-1       -0.00020   0.00000   0.00000   0.00000   0.00000
 171       12D+2        0.00011   0.00000   0.00022   0.00000  -0.00001
 172       12D-2        0.00000   0.00000   0.00000   0.00000   0.00000
 173       13D 0       -0.00030   0.00000  -0.00062   0.00000   0.00001
 174       13D+1        0.00000  -0.00018   0.00000   0.00000   0.00000
 175       13D-1        0.00002   0.00000   0.00000   0.00000   0.00000
 176       13D+2       -0.00011   0.00000  -0.00008   0.00000   0.00001
 177       13D-2        0.00000   0.00000   0.00000   0.00000   0.00000
 178       14D 0       -0.00092   0.00000   0.00038   0.00000  -0.00004
 179       14D+1        0.00000  -0.00047   0.00000   0.00000   0.00000
 180       14D-1       -0.00022   0.00000   0.00000   0.00000   0.00000
 181       14D+2        0.00067   0.00000  -0.00014   0.00000   0.00001
 182       14D-2        0.00000   0.00000   0.00000   0.00000   0.00000
 183       15F 0        0.00018   0.00000   0.00039  -0.00001  -0.00002
 184       15F+1        0.00000  -0.00026   0.00000   0.00000   0.00000
 185       15F-1        0.00001   0.00000   0.00000   0.00000   0.00000
 186       15F+2        0.00008   0.00000   0.00009   0.00000   0.00000
 187       15F-2        0.00000   0.00000   0.00000   0.00000   0.00000
 188       15F+3        0.00000   0.00013   0.00000   0.00000   0.00000
 189       15F-3        0.00001   0.00000   0.00000   0.00000   0.00000
 190       16F 0       -0.00023   0.00000  -0.00036   0.00000   0.00000
 191       16F+1        0.00000  -0.00049   0.00000   0.00000   0.00000
 192       16F-1        0.00008   0.00000   0.00000   0.00000   0.00000
 193       16F+2       -0.00031   0.00000  -0.00019   0.00000   0.00000
 194       16F-2        0.00000   0.00000   0.00000   0.00000   0.00000
 195       16F+3        0.00000  -0.00012   0.00000   0.00000   0.00000
 196       16F-3        0.00001   0.00000   0.00000   0.00000   0.00000
                          16        17        18        19        20
     Eigenvalues --     2.00000   1.97702   1.97421   1.97001   1.95135
   1 1   C  1S         -0.00003  -0.08603  -0.00052  -0.06957  -0.04249
   2        2S          0.00000   0.22139   0.00136   0.18676   0.11820
   3        3S          0.00000   0.04826   0.00026   0.04462   0.02839
   4        4S          0.00001   0.04415   0.00066   0.06348   0.05925
   5        5S          0.00000   0.01140   0.00026   0.01623   0.00168
   6        6PX         0.00000   0.00000   0.00000   0.00000   0.00000
   7        6PY         0.00001  -0.00106   0.06149   0.00005  -0.00059
   8        6PZ         0.00000  -0.01161   0.00033   0.10400  -0.05641
   9        7PX         0.00000   0.00000   0.00000   0.00000   0.00000
  10        7PY        -0.00004  -0.00137   0.08438  -0.00005  -0.00079
  11        7PZ         0.00000  -0.02212   0.00028   0.12989  -0.07893
  12        8PX         0.00000   0.00000   0.00000   0.00000   0.00000
  13        8PY         0.00005  -0.00011   0.00428  -0.00007  -0.00038
  14        8PZ         0.00000   0.00788   0.00001   0.00421  -0.04596
  15        9PX         0.00000   0.00000   0.00000   0.00000   0.00000
  16        9PY         0.00001  -0.00012   0.00837  -0.00005   0.00004
  17        9PZ         0.00000  -0.00385  -0.00005   0.00843  -0.02152
  18       10D 0        0.00000   0.00435   0.00003   0.00967   0.01026
  19       10D+1        0.00000   0.00000   0.00000   0.00000   0.00000
  20       10D-1        0.00000   0.00021  -0.00861  -0.00003   0.00006
  21       10D+2        0.00000  -0.00715  -0.00002   0.00120   0.00353
  22       10D-2        0.00000   0.00000   0.00000   0.00000   0.00000
  23       11D 0        0.00000   0.00609   0.00004   0.01107   0.03009
  24       11D+1        0.00000   0.00000   0.00000   0.00000   0.00000
  25       11D-1        0.00006   0.00033  -0.01786   0.00000  -0.00002
  26       11D+2        0.00000  -0.01107  -0.00011   0.00296   0.01333
  27       11D-2        0.00000   0.00000   0.00000   0.00000   0.00000
  28       12D 0        0.00000   0.00388   0.00005   0.00394  -0.04091
  29       12D+1        0.00000   0.00000   0.00000   0.00000   0.00000
  30       12D-1        0.00002  -0.00015   0.01220   0.00019   0.00040
  31       12D+2        0.00000   0.00778  -0.00001   0.00472  -0.02626
  32       12D-2        0.00000   0.00000   0.00000   0.00000   0.00000
  33       13F 0        0.00000   0.00400   0.00003   0.00472  -0.00109
  34       13F+1        0.00000   0.00000   0.00000   0.00000   0.00000
  35       13F-1        0.00000  -0.00006   0.00192   0.00002  -0.00007
  36       13F+2        0.00000   0.00465   0.00002  -0.00022   0.00175
  37       13F-2        0.00000   0.00000   0.00000   0.00000   0.00000
  38       13F+3        0.00000   0.00000   0.00000   0.00000   0.00000
  39       13F-3        0.00000   0.00004  -0.00243   0.00001   0.00001
  40       14F 0        0.00000   0.00131   0.00004  -0.00091  -0.00289
  41       14F+1        0.00000   0.00000   0.00000   0.00000   0.00000
  42       14F-1        0.00001  -0.00003   0.00068  -0.00001   0.00019
  43       14F+2        0.00000   0.00181   0.00005  -0.00006   0.00148
  44       14F-2        0.00000   0.00000   0.00000   0.00000   0.00000
  45       14F+3        0.00000   0.00000   0.00000   0.00000   0.00000
  46       14F-3        0.00001   0.00000  -0.00067   0.00000   0.00004
  47 2   Cl 1S         -0.73035   0.04586  -0.05259  -0.02134  -0.01199
  48        2S         -0.00736  -0.17141   0.19670   0.07983   0.04553
  49        3S         -0.00012   0.36660  -0.42154  -0.17229  -0.09930
  50        4S         -0.00016   0.04441  -0.05295  -0.02252  -0.01559
  51        5S          0.00004   0.22065  -0.26148  -0.11374  -0.10414
  52        6S          0.00005  -0.00748   0.01029   0.00207  -0.02672
  53        7PX         0.00000   0.00000   0.00000   0.00000   0.00000
  54        7PY         0.00056  -0.01694  -0.00008   0.00096  -0.11332
  55        7PZ         0.00046  -0.00772   0.00768  -0.01914   0.09900
  56        8PX         0.00000   0.00000   0.00000   0.00000   0.00000
  57        8PY        -0.00007   0.02501   0.01634  -0.00202   0.25792
  58        8PZ        -0.00005   0.00595  -0.01039   0.04876  -0.23811
  59        9PX         0.00000   0.00000   0.00000   0.00000   0.00000
  60        9PY         0.00007   0.01106   0.00733  -0.00020   0.12324
  61        9PZ         0.00005   0.00313  -0.00443   0.02293  -0.11390
  62       10PX         0.00000   0.00000   0.00000   0.00000   0.00000
  63       10PY         0.00006  -0.00129   0.01554  -0.00762   0.13197
  64       10PZ         0.00003  -0.00329   0.00349   0.02643  -0.17366
  65       11PX         0.00000   0.00000   0.00000   0.00000   0.00000
  66       11PY         0.00001  -0.00408   0.00281   0.00034   0.00033
  67       11PZ         0.00000  -0.00173   0.00321  -0.00019  -0.00585
  68       12D 0        0.00000  -0.00054  -0.00085   0.00285  -0.00696
  69       12D+1        0.00000   0.00000   0.00000   0.00000   0.00000
  70       12D-1       -0.00001   0.00757  -0.00547   0.00271   0.00338
  71       12D+2        0.00000  -0.00617   0.00269   0.00061  -0.01062
  72       12D-2        0.00000   0.00000   0.00000   0.00000   0.00000
  73       13D 0        0.00000  -0.00119  -0.00188   0.00472  -0.00852
  74       13D+1        0.00000   0.00000   0.00000   0.00000   0.00000
  75       13D-1       -0.00002   0.00719  -0.00465   0.00428   0.00239
  76       13D+2        0.00001  -0.00633   0.00165   0.00154  -0.01250
  77       13D-2        0.00000   0.00000   0.00000   0.00000   0.00000
  78       14D 0        0.00000   0.00099   0.00110   0.00306  -0.00864
  79       14D+1        0.00000   0.00000   0.00000   0.00000   0.00000
  80       14D-1        0.00002  -0.00210   0.00323   0.00200  -0.00346
  81       14D+2       -0.00002   0.00192  -0.00259   0.00078  -0.00670
  82       14D-2        0.00000   0.00000   0.00000   0.00000   0.00000
  83       15F 0        0.00000  -0.00137   0.00089   0.00058  -0.00240
  84       15F+1        0.00000   0.00000   0.00000   0.00000   0.00000
  85       15F-1        0.00000   0.00074  -0.00159   0.00135  -0.00380
  86       15F+2        0.00000  -0.00263   0.00216  -0.00014  -0.00189
  87       15F-2        0.00000   0.00000   0.00000   0.00000   0.00000
  88       15F+3        0.00000   0.00000   0.00000   0.00000   0.00000
  89       15F-3        0.00000  -0.00193   0.00081   0.00066  -0.00354
  90       16F 0        0.00000  -0.00013  -0.00036   0.00002  -0.00040
  91       16F+1        0.00000   0.00000   0.00000   0.00000   0.00000
  92       16F-1        0.00000  -0.00019   0.00006   0.00148  -0.00204
  93       16F+2        0.00000   0.00016  -0.00072  -0.00027  -0.00056
  94       16F-2        0.00000   0.00000   0.00000   0.00000   0.00000
  95       16F+3        0.00000   0.00000   0.00000   0.00000   0.00000
  96       16F-3        0.00000   0.00034  -0.00040   0.00020  -0.00128
  97 3   Cl 1S          0.67887   0.04475   0.05362  -0.02130  -0.01186
  98        2S          0.00688  -0.16729  -0.20055   0.07969   0.04501
  99        3S          0.00011   0.35775   0.42972  -0.17193  -0.09817
 100        4S          0.00015   0.04331   0.05397  -0.02250  -0.01542
 101        5S         -0.00005   0.21603   0.26674  -0.11313  -0.10195
 102        6S         -0.00005  -0.00664  -0.01030   0.00229  -0.02621
 103        7PX         0.00000   0.00000   0.00000   0.00000   0.00000
 104        7PY         0.00046   0.01656   0.00009  -0.00091   0.11239
 105        7PZ        -0.00039  -0.00727  -0.00759  -0.01897   0.10109
 106        8PX         0.00000   0.00000   0.00000   0.00000   0.00000
 107        8PY        -0.00006  -0.02489   0.01595   0.00186  -0.25606
 108        8PZ         0.00004   0.00541   0.01017   0.04838  -0.24267
 109        9PX         0.00000   0.00000   0.00000   0.00000   0.00000
 110        9PY         0.00006  -0.01084   0.00724   0.00016  -0.12229
 111        9PZ        -0.00004   0.00279   0.00429   0.02272  -0.11617
 112       10PX         0.00000   0.00000   0.00000   0.00000   0.00000
 113       10PY         0.00006   0.00059   0.01539   0.00737  -0.13161
 114       10PZ        -0.00003  -0.00303  -0.00352   0.02634  -0.17603
 115       11PX         0.00000   0.00000   0.00000   0.00000   0.00000
 116       11PY         0.00001   0.00395   0.00290  -0.00036  -0.00047
 117       11PZ         0.00000  -0.00161  -0.00322  -0.00015  -0.00601
 118       12D 0        0.00000  -0.00059   0.00080   0.00278  -0.00693
 119       12D+1        0.00000   0.00000   0.00000   0.00000   0.00000
 120       12D-1       -0.00001  -0.00726  -0.00547  -0.00270  -0.00309
 121       12D+2        0.00000  -0.00601  -0.00276   0.00057  -0.01040
 122       12D-2        0.00000   0.00000   0.00000   0.00000   0.00000
 123       13D 0        0.00000  -0.00130   0.00181   0.00465  -0.00847
 124       13D+1        0.00000   0.00000   0.00000   0.00000   0.00000
 125       13D-1       -0.00002  -0.00705  -0.00476  -0.00430  -0.00217
 126       13D+2       -0.00001  -0.00633  -0.00180   0.00150  -0.01235
 127       13D-2        0.00000   0.00000   0.00000   0.00000   0.00000
 128       14D 0        0.00000   0.00100  -0.00107   0.00300  -0.00863
 129       14D+1        0.00000   0.00000   0.00000   0.00000   0.00000
 130       14D-1        0.00002   0.00192   0.00318  -0.00201   0.00358
 131       14D+2        0.00002   0.00174   0.00257   0.00078  -0.00665
 132       14D-2        0.00000   0.00000   0.00000   0.00000   0.00000
 133       15F 0        0.00000  -0.00133  -0.00090   0.00055  -0.00232
 134       15F+1        0.00000   0.00000   0.00000   0.00000   0.00000
 135       15F-1        0.00000  -0.00066  -0.00155  -0.00134   0.00385
 136       15F+2        0.00000  -0.00252  -0.00216  -0.00017  -0.00178
 137       15F-2        0.00000   0.00000   0.00000   0.00000   0.00000
 138       15F+3        0.00000   0.00000   0.00000   0.00000   0.00000
 139       15F-3        0.00000   0.00188   0.00083  -0.00064   0.00350
 140       16F 0        0.00000  -0.00016   0.00035   0.00000  -0.00040
 141       16F+1        0.00000   0.00000   0.00000   0.00000   0.00000
 142       16F-1        0.00000   0.00019   0.00004  -0.00149   0.00207
 143       16F+2        0.00000   0.00009   0.00068  -0.00029  -0.00056
 144       16F-2        0.00000   0.00000   0.00000   0.00000   0.00000
 145       16F+3        0.00000   0.00000   0.00000   0.00000   0.00000
 146       16F-3        0.00000  -0.00028  -0.00039  -0.00021   0.00131
 147 4   S  1S          0.00903   0.01640   0.00021   0.05806   0.00401
 148        2S          0.00014  -0.06303  -0.00079  -0.22217  -0.01541
 149        3S          0.00000   0.13056   0.00166   0.47013   0.03369
 150        4S          0.00000   0.01569   0.00020   0.06107   0.00468
 151        5S         -0.00001   0.05473   0.00066   0.24360   0.07229
 152        6S          0.00000  -0.00288  -0.00015  -0.03120   0.02483
 153        7PX         0.00000   0.00000   0.00000   0.00000   0.00000
 154        7PY        -0.00024   0.00010  -0.01106   0.00006   0.00044
 155        7PZ        -0.00002   0.02156   0.00024   0.04435   0.00271
 156        8PX         0.00000   0.00000   0.00000   0.00000   0.00000
 157        8PY        -0.00002  -0.00028   0.03228  -0.00015  -0.00117
 158        8PZ         0.00000  -0.03265  -0.00036  -0.05566  -0.00813
 159        9PX         0.00000   0.00000   0.00000   0.00000   0.00000
 160        9PY        -0.00001  -0.00011   0.01227  -0.00006  -0.00045
 161        9PZ         0.00000  -0.01611  -0.00018  -0.03099  -0.00254
 162       10PX         0.00000   0.00000   0.00000   0.00000   0.00000
 163       10PY        -0.00002  -0.00009   0.00983  -0.00025  -0.00098
 164       10PZ         0.00000   0.00067   0.00007   0.01615  -0.01763
 165       11PX         0.00000   0.00000   0.00000   0.00000   0.00000
 166       11PY         0.00000   0.00002  -0.00150   0.00000  -0.00004
 167       11PZ         0.00000   0.00227   0.00005   0.00822   0.00048
 168       12D 0        0.00000   0.00676   0.00006   0.00986   0.00102
 169       12D+1        0.00000   0.00000   0.00000   0.00000   0.00000
 170       12D-1        0.00002   0.00006  -0.00504   0.00003   0.00017
 171       12D+2        0.00000   0.00017   0.00000   0.00037   0.00323
 172       12D-2        0.00000   0.00000   0.00000   0.00000   0.00000
 173       13D 0        0.00000   0.00987   0.00011   0.02411   0.00141
 174       13D+1        0.00000   0.00000   0.00000   0.00000   0.00000
 175       13D-1        0.00000   0.00004  -0.00341   0.00001   0.00007
 176       13D+2        0.00000  -0.00001   0.00000   0.00099   0.00238
 177       13D-2        0.00000   0.00000   0.00000   0.00000   0.00000
 178       14D 0        0.00000  -0.00233  -0.00004  -0.00880  -0.00073
 179       14D+1        0.00000   0.00000   0.00000   0.00000   0.00000
 180       14D-1        0.00001   0.00000   0.00204   0.00006   0.00016
 181       14D+2        0.00000  -0.00177   0.00000  -0.00089   0.00539
 182       14D-2        0.00000   0.00000   0.00000   0.00000   0.00000
 183       15F 0        0.00000  -0.00298  -0.00004  -0.00874  -0.00083
 184       15F+1        0.00000   0.00000   0.00000   0.00000   0.00000
 185       15F-1        0.00000  -0.00002   0.00171  -0.00001  -0.00003
 186       15F+2        0.00000   0.00019   0.00000  -0.00031  -0.00042
 187       15F-2        0.00000   0.00000   0.00000   0.00000   0.00000
 188       15F+3        0.00000   0.00000   0.00000   0.00000   0.00000
 189       15F-3        0.00000   0.00000   0.00009   0.00000   0.00000
 190       16F 0        0.00000   0.00067   0.00001   0.00506  -0.00023
 191       16F+1        0.00000   0.00000   0.00000   0.00000   0.00000
 192       16F-1       -0.00001  -0.00001   0.00075  -0.00001  -0.00004
 193       16F+2        0.00000  -0.00060  -0.00001  -0.00075  -0.00133
 194       16F-2        0.00000   0.00000   0.00000   0.00000   0.00000
 195       16F+3        0.00000   0.00000   0.00000   0.00000   0.00000
 196       16F-3        0.00000   0.00000   0.00034   0.00000  -0.00001
                          21        22        23        24        25
     Eigenvalues --     1.94903   1.94878   1.94812   1.94657   1.94122
   1 1   C  1S          0.11787  -0.01601   0.00000   0.00000  -0.00272
   2        2S         -0.32950   0.04476   0.00000   0.00000   0.00772
   3        3S         -0.07892   0.01073   0.00000   0.00000   0.00197
   4        4S         -0.20651   0.02819   0.00000   0.00000   0.00562
   5        5S         -0.00815   0.00130   0.00000   0.00000  -0.00003
   6        6PX         0.00000   0.00000   0.09714  -0.00129   0.00000
   7        6PY         0.01346   0.08151   0.00000   0.00000   0.16876
   8        6PZ         0.03743  -0.00538   0.00000   0.00000   0.00694
   9        7PX         0.00000   0.00000   0.13871  -0.00178   0.00000
  10        7PY         0.01847   0.11167   0.00000   0.00000   0.23784
  11        7PZ         0.06308  -0.00906   0.00000   0.00000   0.00897
  12        8PX         0.00000   0.00000   0.06247  -0.00042   0.00000
  13        8PY         0.00559   0.03469   0.00000   0.00000   0.08351
  14        8PZ        -0.01926   0.00264   0.00000   0.00000   0.00158
  15        9PX         0.00000   0.00000   0.00655  -0.00001   0.00000
  16        9PY         0.00126   0.01043   0.00000   0.00000  -0.00733
  17        9PZ        -0.00399   0.00036   0.00000   0.00000  -0.00060
  18       10D 0        0.00229  -0.00014   0.00000   0.00000   0.00034
  19       10D+1        0.00000   0.00000  -0.00733   0.00010   0.00000
  20       10D-1        0.00035   0.00486   0.00000   0.00000  -0.00738
  21       10D+2        0.00764  -0.00091   0.00000   0.00000   0.00021
  22       10D-2        0.00000   0.00000  -0.00006   0.01072   0.00000
  23       11D 0        0.00838  -0.00077   0.00000   0.00000   0.00026
  24       11D+1        0.00000   0.00000  -0.02326   0.00021   0.00000
  25       11D-1        0.00169   0.01645   0.00000   0.00000  -0.01463
  26       11D+2        0.01748  -0.00211   0.00000   0.00000   0.00026
  27       11D-2        0.00000   0.00000   0.00001   0.03249   0.00000
  28       12D 0       -0.02257   0.00271   0.00000   0.00000   0.00017
  29       12D+1        0.00000   0.00000   0.01658  -0.00025   0.00000
  30       12D-1       -0.00473  -0.03710   0.00000   0.00000   0.01119
  31       12D+2       -0.00726   0.00077   0.00000   0.00000   0.00000
  32       12D-2        0.00000   0.00000   0.00000  -0.01095   0.00000
  33       13F 0       -0.00359   0.00043   0.00000   0.00000   0.00015
  34       13F+1        0.00000   0.00000   0.00232  -0.00004   0.00000
  35       13F-1       -0.00022  -0.00258   0.00000   0.00000   0.00773
  36       13F+2       -0.00477   0.00062   0.00000   0.00000  -0.00011
  37       13F-2        0.00000   0.00000   0.00004  -0.00449   0.00000
  38       13F+3        0.00000   0.00000  -0.00488   0.00005   0.00000
  39       13F-3       -0.00047  -0.00299   0.00000   0.00000  -0.00300
  40       14F 0       -0.00702   0.00093   0.00000   0.00000  -0.00001
  41       14F+1        0.00000   0.00000   0.00238   0.00000   0.00000
  42       14F-1       -0.00105  -0.00847   0.00000   0.00000  -0.00037
  43       14F+2       -0.00192   0.00024   0.00000   0.00000   0.00018
  44       14F-2        0.00000   0.00000  -0.00008  -0.00569   0.00000
  45       14F+3        0.00000   0.00000  -0.00331  -0.00002   0.00000
  46       14F-3       -0.00033  -0.00299   0.00000   0.00000   0.00117
  47 2   Cl 1S          0.01566   0.00674   0.00000   0.00000   0.00640
  48        2S         -0.05958  -0.02620   0.00000   0.00000  -0.02599
  49        3S          0.13190   0.05476   0.00000   0.00000   0.05550
  50        4S          0.02094   0.00882   0.00000   0.00000   0.01047
  51        5S          0.13377   0.07346   0.00000   0.00000   0.08529
  52        6S          0.01763   0.02811   0.00000   0.00000   0.01594
  53        7PX         0.00000   0.00000  -0.15143   0.16937   0.00000
  54        7PY         0.03827  -0.06674   0.00000   0.00000   0.13214
  55        7PZ         0.10905   0.13065   0.00000   0.00000  -0.00263
  56        8PX         0.00000   0.00000   0.35499  -0.39603   0.00000
[...]
  51        5S         -4.86714   0.00000  -0.87555   0.09840  -0.09235
  52        6S        -13.82498   0.00000   7.01016   5.31828  10.21710
  53        7PX         0.00000  -0.01615   0.00000   0.00000   0.00000
  54        7PY         0.02334   0.00000  -0.01318   0.00406  -0.01669
  55        7PZ         0.00108   0.00000  -0.00365  -0.01072  -0.01495
  56        8PX         0.00000  -0.19102   0.00000   0.00000   0.00000
  57        8PY         0.38074   0.00000  -0.16689   0.05396  -0.26742
  58        8PZ         0.02708   0.00000  -0.03583  -0.13514  -0.24304
  59        9PX         0.00000   0.06183   0.00000   0.00000   0.00000
  60        9PY        -0.08587   0.00000   0.05112  -0.01503   0.06318
  61        9PZ        -0.00086   0.00000   0.01508   0.04216   0.05718
  62       10PX         0.00000   0.85407   0.00000   0.00000   0.00000
  63       10PY        -5.27443   0.00000   0.76740   0.60236   1.97361
  64       10PZ        -2.68649   0.00000   0.55655   1.41753   1.41043
  65       11PX         0.00000  -2.39854   0.00000   0.00000   0.00000
  66       11PY        -2.45175   0.00000  -1.77239   1.26254   1.47390
  67       11PZ        -1.48960   0.00000   1.01429  -2.74280   1.54248
  68       12D 0        0.01804   0.00000  -0.00983  -0.02307  -0.00542
  69       12D+1        0.00000  -0.01512   0.00000   0.00000   0.00000
  70       12D-1       -0.02079   0.00000   0.00207  -0.00100   0.01653
  71       12D+2        0.04283   0.00000   0.04314   0.00808   0.01365
  72       12D-2        0.00000  -0.02172   0.00000   0.00000   0.00000
  73       13D 0       -0.10872   0.00000   0.05523   0.08944   0.00279
  74       13D+1        0.00000   0.06370   0.00000   0.00000   0.00000
  75       13D-1        0.00915   0.00000   0.01824   0.04570  -0.09331
  76       13D+2       -0.13434   0.00000  -0.14831  -0.03948  -0.03568
  77       13D-2        0.00000   0.09157   0.00000   0.00000   0.00000
  78       14D 0        0.37137   0.00000  -0.01361  -0.19313   0.07964
  79       14D+1        0.00000  -0.08885   0.00000   0.00000   0.00000
  80       14D-1       -1.31664   0.00000   0.14758   0.32471   0.52341
  81       14D+2        1.06688   0.00000   0.31840  -0.02942  -0.32323
  82       14D-2        0.00000   0.11122   0.00000   0.00000   0.00000
  83       15F 0       -0.01742   0.00000   0.02898   0.00230   0.00822
  84       15F+1        0.00000  -0.01125   0.00000   0.00000   0.00000
  85       15F-1        0.03758   0.00000  -0.00660   0.01350  -0.00327
  86       15F+2       -0.01931   0.00000   0.00824   0.02612   0.02302
  87       15F-2        0.00000  -0.00555   0.00000   0.00000   0.00000
  88       15F+3        0.00000   0.05064   0.00000   0.00000   0.00000
  89       15F-3        0.01503   0.00000   0.01978  -0.00417   0.03359
  90       16F 0        0.07261   0.00000  -0.06189  -0.04652   0.00398
  91       16F+1        0.00000   0.00757   0.00000   0.00000   0.00000
  92       16F-1       -0.12866   0.00000   0.03583  -0.02670  -0.00104
  93       16F+2        0.10341   0.00000  -0.01771  -0.07582  -0.04074
  94       16F-2        0.00000   0.02468   0.00000   0.00000   0.00000
  95       16F+3        0.00000  -0.13070   0.00000   0.00000   0.00000
  96       16F-3       -0.00200   0.00000  -0.01952   0.01046  -0.07557
  97 3   Cl 1S         -0.01572   0.00000  -0.01006   0.00515   0.00336
  98        2S         -0.21084   0.00000  -0.18676   0.09763   0.07855
  99        3S         -0.59980   0.00000  -0.42153   0.21515   0.15286
 100        4S          0.02372   0.00000   0.16780  -0.10151  -0.09933
 101        5S          4.83271   0.00000   0.90477   0.06114  -0.10120
 102        6S         13.85908   0.00000  -7.21657   5.15668   9.97749
 103        7PX         0.00000  -0.01614   0.00000   0.00000   0.00000
 104        7PY         0.02379   0.00000  -0.01343  -0.00417   0.01595
 105        7PZ        -0.00157   0.00000   0.00384  -0.01068  -0.01458
 106        8PX         0.00000  -0.19051   0.00000   0.00000   0.00000
 107        8PY         0.38287   0.00000  -0.17068  -0.05476   0.25601
 108        8PZ        -0.03131   0.00000   0.03945  -0.13470  -0.23677
 109        9PX         0.00000   0.06181   0.00000   0.00000   0.00000
 110        9PY        -0.08755   0.00000   0.05223   0.01557  -0.06032
 111        9PZ         0.00262   0.00000  -0.01582   0.04191   0.05579
 112       10PX         0.00000   0.83821   0.00000   0.00000   0.00000
 113       10PY        -5.26101   0.00000   0.79381  -0.56234  -1.92973
 114       10PZ         2.69438   0.00000  -0.57038   1.38133   1.36285
 115       11PX         0.00000  -2.38795   0.00000   0.00000   0.00000
 116       11PY        -2.43506   0.00000  -1.70264  -1.24918  -1.49952
 117       11PZ         1.40859   0.00000  -1.03720  -2.74602   1.50856
 118       12D 0       -0.01948   0.00000   0.01031  -0.02317  -0.00525
 119       12D+1        0.00000  -0.01518   0.00000   0.00000   0.00000
 120       12D-1       -0.01880   0.00000   0.00312   0.00163  -0.01661
 121       12D+2       -0.04052   0.00000  -0.04313   0.00812   0.01316
 122       12D-2        0.00000   0.02193   0.00000   0.00000   0.00000
 123       13D 0        0.11357   0.00000  -0.05611   0.08994   0.00098
 124       13D+1        0.00000   0.06365   0.00000   0.00000   0.00000
 125       13D-1       -0.00004   0.00000   0.01421  -0.04694   0.09116
 126       13D+2        0.12538   0.00000   0.14818  -0.03909  -0.03642
 127       13D-2        0.00000  -0.09169   0.00000   0.00000   0.00000
 128       14D 0       -0.37325   0.00000   0.01662  -0.19351   0.07172
 129       14D+1        0.00000  -0.09335   0.00000   0.00000   0.00000
 130       14D-1       -1.28865   0.00000   0.15656  -0.31158  -0.50945
 131       14D+2       -1.04752   0.00000  -0.31268  -0.02477  -0.32064
 132       14D-2        0.00000  -0.10481   0.00000   0.00000   0.00000
 133       15F 0        0.01685   0.00000  -0.02919   0.00211   0.00768
 134       15F+1        0.00000  -0.01122   0.00000   0.00000   0.00000
 135       15F-1        0.03771   0.00000  -0.00607  -0.01367   0.00256
 136       15F+2        0.01981   0.00000  -0.00858   0.02623   0.02195
 137       15F-2        0.00000   0.00559   0.00000   0.00000   0.00000
 138       15F+3        0.00000   0.05099   0.00000   0.00000   0.00000
 139       15F-3        0.01595   0.00000   0.02037   0.00410  -0.03263
 140       16F 0       -0.07075   0.00000   0.06202  -0.04557   0.00358
 141       16F+1        0.00000   0.00732   0.00000   0.00000   0.00000
 142       16F-1       -0.12897   0.00000   0.03437   0.02709   0.00315
 143       16F+2       -0.10353   0.00000   0.01811  -0.07576  -0.03984
 144       16F-2        0.00000  -0.02394   0.00000   0.00000   0.00000
 145       16F+3        0.00000  -0.13068   0.00000   0.00000   0.00000
 146       16F-3       -0.00411   0.00000  -0.02046  -0.01021   0.07468
 147 4   S  1S         -0.00043   0.00000  -0.00002   0.00204  -0.00384
 148        2S         -0.00735   0.00000  -0.00023   0.00117  -0.06455
 149        3S         -0.01932   0.00000  -0.00066   0.06475  -0.17331
 150        4S          0.00479   0.00000   0.00015   0.10395   0.02364
 151        5S          0.05837   0.00000  -0.01757  -3.79135   2.27345
 152        6S          0.08331   0.00000  -0.05534 -15.53063   3.92229
 153        7PX         0.00000  -0.01966   0.00000   0.00000   0.00000
 154        7PY         0.01739   0.00000   0.00371  -0.00008   0.00001
 155        7PZ         0.00067   0.00000   0.00001  -0.00760  -0.00148
 156        8PX         0.00000  -0.08581   0.00000   0.00000   0.00000
 157        8PY         0.26507   0.00000   0.13588  -0.00135   0.00112
 158        8PZ         0.01103   0.00000   0.00128  -0.01233  -0.13357
 159        9PX         0.00000   0.07380   0.00000   0.00000   0.00000
 160        9PY        -0.06504   0.00000  -0.01226   0.00025   0.00006
 161        9PZ        -0.00227   0.00000   0.00016   0.02078   0.00200
 162       10PX         0.00000  -0.63498   0.00000   0.00000   0.00000
 163       10PY        -3.41024   0.00000  -0.41401  -0.00294  -0.01792
 164       10PZ        -0.07717   0.00000   0.00640   3.56330  -0.30123
 165       11PX         0.00000  -4.12184   0.00000   0.00000   0.00000
 166       11PY        -0.03035   0.00000  -4.74840  -0.00828  -0.04403
 167       11PZ        -0.03512   0.00000   0.00863  -1.10494   0.78791
 168       12D 0       -0.00035   0.00000  -0.00102  -0.45942   0.32969
 169       12D+1        0.00000  -0.34800   0.00000   0.00000   0.00000
 170       12D-1       -0.08009   0.00000  -0.36799   0.00147  -0.00158
 171       12D+2       -0.00114   0.00000   0.00107   0.11312  -0.14544
 172       12D-2        0.00000   0.00025   0.00000   0.00000   0.00000
 173       13D 0       -0.00103   0.00000   0.00013   0.08716  -0.08150
 174       13D+1        0.00000   0.07089   0.00000   0.00000   0.00000
 175       13D-1        0.04190   0.00000   0.07079  -0.00003   0.00031
 176       13D+2        0.00012   0.00000  -0.00025  -0.03304   0.02995
 177       13D-2        0.00000  -0.00003   0.00000   0.00000   0.00000
 178       14D 0        0.01916   0.00000   0.00590   0.21332  -1.15762
 179       14D+1        0.00000   1.23924   0.00000   0.00000   0.00000
 180       14D-1        1.41983   0.00000   0.92466   0.00327   0.01479
 181       14D+2       -0.01188   0.00000   0.00005  -0.44468   0.17099
 182       14D-2        0.00000  -0.00246   0.00000   0.00000   0.00000
 183       15F 0        0.00079   0.00000   0.00012  -0.01258  -0.01332
 184       15F+1        0.00000   0.01516   0.00000   0.00000   0.00000
 185       15F-1       -0.06945   0.00000   0.00552   0.00036   0.00020
 186       15F+2       -0.00066   0.00000   0.00023  -0.01333   0.00192
 187       15F-2        0.00000  -0.00012   0.00000   0.00000   0.00000
 188       15F+3        0.00000   0.02658   0.00000   0.00000   0.00000
 189       15F-3       -0.00284   0.00000   0.04051   0.00013   0.00032
 190       16F 0        0.00059   0.00000  -0.00151   0.07497   0.13108
 191       16F+1        0.00000  -0.01464   0.00000   0.00000   0.00000
 192       16F-1        0.10627   0.00000   0.01540  -0.00186  -0.00132
 193       16F+2        0.00451   0.00000  -0.00079   0.07253   0.01708
 194       16F-2        0.00000   0.00059   0.00000   0.00000   0.00000
 195       16F+3        0.00000  -0.05999   0.00000   0.00000   0.00000
 196       16F-3        0.01699   0.00000  -0.09418  -0.00037  -0.00072
                         196
     Eigenvalues --     0.00000
   1 1   C  1S         -0.03362
   2        2S         -0.12165
   3        3S          0.13445
   4        4S          2.60059
   5        5S         21.09932
   6        6PX         0.00000
   7        6PY        -0.00014
   8        6PZ         0.02237
   9        7PX         0.00000
  10        7PY         0.00067
  11        7PZ        -0.20243
  12        8PX         0.00000
  13        8PY        -0.03661
  14        8PZ         1.19120
  15        9PX         0.00000
  16        9PY        -0.03961
  17        9PZ         3.39123
  18       10D 0        0.01282
  19       10D+1        0.00000
  20       10D-1       -0.00006
  21       10D+2       -0.03536
  22       10D-2        0.00000
  23       11D 0       -0.33449
  24       11D+1        0.00000
  25       11D-1       -0.00172
  26       11D+2        0.17251
  27       11D-2        0.00000
  28       12D 0       -0.99561
  29       12D+1        0.00000
  30       12D-1       -0.02686
  31       12D+2       -0.74449
  32       12D-2        0.00000
  33       13F 0       -0.02577
  34       13F+1        0.00000
  35       13F-1        0.00018
  36       13F+2       -0.00088
  37       13F-2        0.00000
  38       13F+3        0.00000
  39       13F-3       -0.00019
  40       14F 0       -0.14453
  41       14F+1        0.00000
  42       14F-1        0.00014
  43       14F+2       -0.12142
  44       14F-2        0.00000
  45       14F+3        0.00000
  46       14F-3        0.00080
  47 2   Cl 1S         -0.00093
  48        2S         -0.01280
  49        3S         -0.03580
  50        4S         -0.00183
  51        5S          0.39178
  52        6S         -3.51808
  53        7PX         0.00000
  54        7PY         0.00820
  55        7PZ         0.00379
  56        8PX         0.00000
  57        8PY         0.14633
  58        8PZ         0.09213
  59        9PX         0.00000
  60        9PY        -0.02948
  61        9PZ        -0.01181
  62       10PX         0.00000
  63       10PY         0.13393
  64       10PZ        -0.43578
  65       11PX         0.00000
  66       11PY        -0.72617
  67       11PZ        -1.03980
  68       12D 0        0.00828
  69       12D+1        0.00000
  70       12D-1       -0.01000
  71       12D+2       -0.00861
  72       12D-2        0.00000
  73       13D 0       -0.04054
  74       13D+1        0.00000
  75       13D-1        0.08809
  76       13D+2       -0.00673
  77       13D-2        0.00000
  78       14D 0       -0.05805
  79       14D+1        0.00000
  80       14D-1       -0.17325
  81       14D+2       -0.16928
  82       14D-2        0.00000
  83       15F 0       -0.00501
  84       15F+1        0.00000
  85       15F-1        0.00709
  86       15F+2       -0.00388
  87       15F-2        0.00000
  88       15F+3        0.00000
  89       15F-3       -0.00273
  90       16F 0        0.00390
  91       16F+1        0.00000
  92       16F-1       -0.02136
  93       16F+2       -0.00436
  94       16F-2        0.00000
  95       16F+3        0.00000
  96       16F-3       -0.00885
  97 3   Cl 1S         -0.00093
  98        2S         -0.01263
  99        3S         -0.03581
 100        4S         -0.00238
 101        5S          0.37063
 102        6S         -3.43983
 103        7PX         0.00000
 104        7PY        -0.00810
 105        7PZ         0.00368
 106        8PX         0.00000
 107        8PY        -0.14401
 108        8PZ         0.08919
 109        9PX         0.00000
 110        9PY         0.02928
 111        9PZ        -0.01153
 112       10PX         0.00000
 113       10PY        -0.13649
 114       10PZ        -0.41025
 115       11PX         0.00000
 116       11PY         0.73611
 117       11PZ        -1.02263
 118       12D 0        0.00819
 119       12D+1        0.00000
 120       12D-1        0.01021
 121       12D+2       -0.00824
 122       12D-2        0.00000
 123       13D 0       -0.04031
 124       13D+1        0.00000
 125       13D-1       -0.08808
 126       13D+2       -0.00779
 127       13D-2        0.00000
 128       14D 0       -0.05071
 129       14D+1        0.00000
 130       14D-1        0.16616
 131       14D+2       -0.17022
 132       14D-2        0.00000
 133       15F 0       -0.00506
 134       15F+1        0.00000
 135       15F-1       -0.00670
 136       15F+2       -0.00363
 137       15F-2        0.00000
 138       15F+3        0.00000
 139       15F-3        0.00214
 140       16F 0        0.00428
 141       16F+1        0.00000
 142       16F-1        0.02018
 143       16F+2       -0.00506
 144       16F-2        0.00000
 145       16F+3        0.00000
 146       16F-3        0.01030
 147 4   S  1S         -0.00429
 148        2S         -0.10938
 149        3S         -0.22942
 150        4S          0.10656
 151        5S          2.74149
 152        6S        -18.20796
 153        7PX         0.00000
 154        7PY        -0.00004
 155        7PZ        -0.04542
 156        8PX         0.00000
 157        8PY        -0.00067
 158        8PZ        -0.91144
 159        9PX         0.00000
 160        9PY         0.00011
 161        9PZ         0.14229
 162       10PX         0.00000
 163       10PY         0.02953
 164       10PZ         3.45618
 165       11PX         0.00000
 166       11PY         0.01616
 167       11PZ         4.74694
 168       12D 0        0.31221
 169       12D+1        0.00000
 170       12D-1       -0.00185
 171       12D+2        0.09206
 172       12D-2        0.00000
 173       13D 0       -0.00576
 174       13D+1        0.00000
 175       13D-1        0.00019
 176       13D+2       -0.02114
 177       13D-2        0.00000
 178       14D 0       -1.70933
 179       14D+1        0.00000
 180       14D-1       -0.01471
 181       14D+2        0.03623
 182       14D-2        0.00000
 183       15F 0       -0.08746
 184       15F+1        0.00000
 185       15F-1       -0.00020
 186       15F+2        0.01195
 187       15F-2        0.00000
 188       15F+3        0.00000
 189       15F-3       -0.00022
 190       16F 0        0.18838
 191       16F+1        0.00000
 192       16F-1        0.00211
 193       16F+2       -0.08513
 194       16F-2        0.00000
 195       16F+3        0.00000
 196       16F-3        0.00049
          Condensed to atoms (all electrons):
              1          2          3          4
     1  C    5.677218   0.067724   0.071993   0.179533
     2  Cl   0.067724  17.192868  -0.120518  -0.129911
     3  Cl   0.071993  -0.120518  17.194412  -0.128841
     4  S    0.179533  -0.129911  -0.128841  16.055541
 Mulliken atomic charges:
              1
     1  C    0.003532
     2  Cl  -0.010163
     3  Cl  -0.017047
     4  S    0.023678
 Sum of Mulliken atomic charges =   0.00000
 Mulliken charges with hydrogens summed into heavy atoms:
              1
     1  C    0.003532
     2  Cl  -0.010163
     3  Cl  -0.017047
     4  S    0.023678
 Sum of Mulliken charges with hydrogens summed into heavy atoms =   0.00000
 Electronic spatial extent (au):  <R**2>=            688.9204
 Charge=              0.0000 electrons
 Dipole moment (field-independent basis, Debye):
    X=              0.0000    Y=             -0.0303    Z=             -0.4584  Tot=              0.4594
 Quadrupole moment (field-independent basis, Debye-Ang):
   XX=            -43.1412   YY=            -43.2904   ZZ=            -42.5171
   XY=              0.0000   XZ=              0.0000   YZ=              0.0496
 Traceless Quadrupole moment (field-independent basis, Debye-Ang):
   XX=             -0.1583   YY=             -0.3075   ZZ=              0.4658
   XY=              0.0000   XZ=              0.0000   YZ=              0.0496
 Octapole moment (field-independent basis, Debye-Ang**2):
  XXX=              0.0000  YYY=             -0.4593  ZZZ=             81.5404  XYY=              0.0000
  XXY=             -0.1602  XXZ=             27.0940  XZZ=              0.0000  YZZ=             -0.2296
  YYZ=             18.9808  XYZ=              0.0000
 Hexadecapole moment (field-independent basis, Debye-Ang**3):
 XXXX=            -50.8699 YYYY=           -338.5699 ZZZZ=           -477.4725 XXXY=              0.0000
 XXXZ=              0.0000 YYYX=              0.0000 YYYZ=              0.6462 ZZZX=              0.0000
 ZZZY=              0.8163 XXYY=            -68.8397 XXZZ=            -89.7190 YYZZ=           -126.9849
 XXYZ=              0.2408 YYXZ=              0.0000 ZZXY=              0.0000
 N-N= 2.453092868901D+02 E-N=-3.714199224094D+03  KE= 1.355052355365D+03
 1\1\GINC-TRAPISTA\SP\RQCISD-FC\Aug-CC-pVTZ\C1Cl2S1\BRUNS\27-Nov-2021\0
 \\# qcisd/aug-cc-pvtz nosymm density=current output=wfn\\cl2cs-wavefun
 ction\\0,1\C,0,0.,0.,-0.522914\Cl,0,0.,-1.420735,-1.5009\Cl,0,0.,1.430
 735,-1.5009\S,0,0.,0.,1.081815\\Version=EM64L-G09RevB.01\HF=-1354.4261
 005\MP2=-1355.1504001\MP3=-1355.1830037\MP4D=-1355.2047373\MP4DQ=-1355
 .1798801\MP4SDQ=-1355.186675\QCISD=-1355.1841989\RMSD=9.854e-09\Dipole
 =0.,-0.0119253,-0.1803318\Quadrupole=-0.1176952,-0.2286065,0.3463017,0
 .,0.,0.0368505\PG=CS [SG(C1Cl2S1)]\\@

 Writing a WFN file to GAUSSIAN.wfn.


 MOST BUREAUCRACIES FUNCTION LIKE A SEPTIC TANK.
 THE LARGE CHUNKS RISE TO THE TOP.
 Job cpu time:  0 days  2 hours 11 minutes 59.3 seconds.
 File lengths (MBytes):  RWF=  18573 Int=      0 D2E=      0 Chk=      3 Scr=      1
 Normal termination of Gaussian 09 at Sat Nov 27 22:37:36 2021.
