 cl2cs-wavefunction
GAUSSIAN            196 MOL ORBITALS    414 PRIMITIVES        4 NUCLEI
  C    1    (CENTRE  1)   0.00000000  0.00000000 -1.00706151  CHARGE =  6.0
  Cl   2    (CENTRE  2)   0.00000000 -2.70369732 -2.83628995  CHARGE = 17.0
  Cl   3    (CENTRE  3)   0.00000000  2.70369732 -2.83628995  CHARGE = 17.0
  S    4    (CENTRE  4)   0.00000000  0.00000000  2.04433408  CHARGE = 16.0
CENTRE ASSIGNMENTS    1  1  1  1  1  1  1  1  1  1  1  1  1  1  1  1  1  1  1  1
CENTRE ASSIGNMENTS    1  1  1  1  1  1  1  1  1  1  1  1  1  1  1  1  1  1  1  1
CENTRE ASSIGNMENTS    1  1  1  1  1  1  1  1  1  1  1  1  1  1  1  1  1  1  1  1
CENTRE ASSIGNMENTS    1  1  1  1  1  1  1  1  1  1  1  1  2  2  2  2  2  2  2  2
CENTRE ASSIGNMENTS    2  2  2  2  2  2  2  2  2  2  2  2  2  2  2  2  2  2  2  2
CENTRE ASSIGNMENTS    2  2  2  2  2  2  2  2  2  2  2  2  2  2  2  2  2  2  2  2
CENTRE ASSIGNMENTS    2  2  2  2  2  2  2  2  2  2  2  2  2  2  2  2  2  2  2  2
CENTRE ASSIGNMENTS    2  2  2  2  2  2  2  2  2  2  2  2  2  2  2  2  2  2  2  2
CENTRE ASSIGNMENTS    2  2  2  2  2  2  2  2  2  2  2  2  2  2  2  2  2  2  2  2
CENTRE ASSIGNMENTS    2  2  2  2  2  2  3  3  3  3  3  3  3  3  3  3  3  3  3  3
CENTRE ASSIGNMENTS    3  3  3  3  3  3  3  3  3  3  3  3  3  3  3  3  3  3  3  3
CENTRE ASSIGNMENTS    3  3  3  3  3  3  3  3  3  3  3  3  3  3  3  3  3  3  3  3
CENTRE ASSIGNMENTS    3  3  3  3  3  3  3  3  3  3  3  3  3  3  3  3  3  3  3  3
CENTRE ASSIGNMENTS    3  3  3  3  3  3  3  3  3  3  3  3  3  3  3  3  3  3  3  3
CENTRE ASSIGNMENTS    3  3  3  3  3  3  3  3  3  3  3  3  3  3  3  3  3  3  3  3
CENTRE ASSIGNMENTS    4  4  4  4  4  4  4  4  4  4  4  4  4  4  4  4  4  4  4  4
CENTRE ASSIGNMENTS    4  4  4  4  4  4  4  4  4  4  4  4  4  4  4  4  4  4  4  4
CENTRE ASSIGNMENTS    4  4  4  4  4  4  4  4  4  4  4  4  4  4  4  4  4  4  4  4
CENTRE ASSIGNMENTS    4  4  4  4  4  4  4  4  4  4  4  4  4  4  4  4  4  4  4  4
CENTRE ASSIGNMENTS    4  4  4  4  4  4  4  4  4  4  4  4  4  4  4  4  4  4  4  4
CENTRE ASSIGNMENTS    4  4  4  4  4  4  4  4  4  4  4  4  4  4
TYPE ASSIGNMENTS      1  1  1  1  1  1  1  1  1  1  1  1  1  1  1  1  2  2  2  3
TYPE ASSIGNMENTS      3  3  4  4  4  2  3  4  2  3  4  2  3  4  5  6  7  8  9 10
TYPE ASSIGNMENTS      5  6  7  8  9 10  5  6  7  8  9 10 11 12 13 17 14 15 18 19
TYPE ASSIGNMENTS     16 20 11 12 13 17 14 15 18 19 16 20  1  1  1  1  1  1  1  1
TYPE ASSIGNMENTS      1  1  1  1  1  1  1  1  1  1  1  1  1  1  1  1  1  1  1  1
TYPE ASSIGNMENTS      1  1  1  2  2  2  2  2  2  3  3  3  3  3  3  4  4  4  4  4
TYPE ASSIGNMENTS      4  2  2  2  2  2  2  3  3  3  3  3  3  4  4  4  4  4  4  2
TYPE ASSIGNMENTS      3  4  2  3  4  2  3  4  5  6  7  8  9 10  5  6  7  8  9 10
TYPE ASSIGNMENTS      5  6  7  8  9 10 11 12 13 17 14 15 18 19 16 20 11 12 13 17
TYPE ASSIGNMENTS     14 15 18 19 16 20  1  1  1  1  1  1  1  1  1  1  1  1  1  1
TYPE ASSIGNMENTS      1  1  1  1  1  1  1  1  1  1  1  1  1  1  1  1  1  2  2  2
TYPE ASSIGNMENTS      2  2  2  3  3  3  3  3  3  4  4  4  4  4  4  2  2  2  2  2
TYPE ASSIGNMENTS      2  3  3  3  3  3  3  4  4  4  4  4  4  2  3  4  2  3  4  2
TYPE ASSIGNMENTS      3  4  5  6  7  8  9 10  5  6  7  8  9 10  5  6  7  8  9 10
TYPE ASSIGNMENTS     11 12 13 17 14 15 18 19 16 20 11 12 13 17 14 15 18 19 16 20
TYPE ASSIGNMENTS      1  1  1  1  1  1  1  1  1  1  1  1  1  1  1  1  1  1  1  1
TYPE ASSIGNMENTS      1  1  1  1  1  1  1  1  1  1  1  2  2  2  2  2  2  3  3  3
TYPE ASSIGNMENTS      3  3  3  4  4  4  4  4  4  2  2  2  2  2  2  3  3  3  3  3
TYPE ASSIGNMENTS      3  4  4  4  4  4  4  2  3  4  2  3  4  2  3  4  5  6  7  8
TYPE ASSIGNMENTS      9 10  5  6  7  8  9 10  5  6  7  8  9 10 11 12 13 17 14 15
TYPE ASSIGNMENTS     18 19 16 20 11 12 13 17 14 15 18 19 16 20
EXPONENTS  0.8236000D+04 0.1235000D+04 0.2808000D+03 0.7927000D+02 0.2559000D+02
EXPONENTS  0.8997000D+01 0.3319000D+01 0.2808000D+03 0.7927000D+02 0.2559000D+02
EXPONENTS  0.8997000D+01 0.3319000D+01 0.3643000D+00 0.9059000D+00 0.1285000D+00
EXPONENTS  0.4402000D-01 0.1871000D+02 0.4133000D+01 0.1200000D+01 0.1871000D+02
EXPONENTS  0.4133000D+01 0.1200000D+01 0.1871000D+02 0.4133000D+01 0.1200000D+01
EXPONENTS  0.3827000D+00 0.3827000D+00 0.3827000D+00 0.1209000D+00 0.1209000D+00
EXPONENTS  0.1209000D+00 0.3569000D-01 0.3569000D-01 0.3569000D-01 0.1097000D+01
EXPONENTS  0.1097000D+01 0.1097000D+01 0.1097000D+01 0.1097000D+01 0.1097000D+01
EXPONENTS  0.3180000D+00 0.3180000D+00 0.3180000D+00 0.3180000D+00 0.3180000D+00
EXPONENTS  0.3180000D+00 0.1000000D+00 0.1000000D+00 0.1000000D+00 0.1000000D+00
EXPONENTS  0.1000000D+00 0.1000000D+00 0.7610000D+00 0.7610000D+00 0.7610000D+00
EXPONENTS  0.7610000D+00 0.7610000D+00 0.7610000D+00 0.7610000D+00 0.7610000D+00
EXPONENTS  0.7610000D+00 0.7610000D+00 0.2680000D+00 0.2680000D+00 0.2680000D+00
EXPONENTS  0.2680000D+00 0.2680000D+00 0.2680000D+00 0.2680000D+00 0.2680000D+00
EXPONENTS  0.2680000D+00 0.2680000D+00 0.4561000D+06 0.6833000D+05 0.1555000D+05
EXPONENTS  0.4405000D+04 0.1439000D+04 0.5204000D+03 0.2031000D+03 0.8396000D+02
EXPONENTS  0.3620000D+02 0.1583000D+02 0.6334000D+01 0.4405000D+04 0.1439000D+04
EXPONENTS  0.5204000D+03 0.2031000D+03 0.8396000D+02 0.3620000D+02 0.1583000D+02
EXPONENTS  0.6334000D+01 0.2694000D+01 0.1439000D+04 0.2031000D+03 0.8396000D+02
EXPONENTS  0.3620000D+02 0.1583000D+02 0.6334000D+01 0.2694000D+01 0.4313000D+00
EXPONENTS  0.9768000D+00 0.1625000D+00 0.5910000D-01 0.6633000D+03 0.1568000D+03
EXPONENTS  0.4998000D+02 0.1842000D+02 0.7240000D+01 0.2922000D+01 0.6633000D+03
EXPONENTS  0.1568000D+03 0.4998000D+02 0.1842000D+02 0.7240000D+01 0.2922000D+01
EXPONENTS  0.6633000D+03 0.1568000D+03 0.4998000D+02 0.1842000D+02 0.7240000D+01
EXPONENTS  0.2922000D+01 0.1568000D+03 0.4998000D+02 0.1842000D+02 0.7240000D+01
EXPONENTS  0.2922000D+01 0.3818000D+00 0.1568000D+03 0.4998000D+02 0.1842000D+02
EXPONENTS  0.7240000D+01 0.2922000D+01 0.3818000D+00 0.1568000D+03 0.4998000D+02
EXPONENTS  0.1842000D+02 0.7240000D+01 0.2922000D+01 0.3818000D+00 0.1022000D+01
EXPONENTS  0.1022000D+01 0.1022000D+01 0.1301000D+00 0.1301000D+00 0.1301000D+00
EXPONENTS  0.4190000D-01 0.4190000D-01 0.4190000D-01 0.1046000D+01 0.1046000D+01
EXPONENTS  0.1046000D+01 0.1046000D+01 0.1046000D+01 0.1046000D+01 0.3440000D+00
EXPONENTS  0.3440000D+00 0.3440000D+00 0.3440000D+00 0.3440000D+00 0.3440000D+00
EXPONENTS  0.1350000D+00 0.1350000D+00 0.1350000D+00 0.1350000D+00 0.1350000D+00
EXPONENTS  0.1350000D+00 0.7060000D+00 0.7060000D+00 0.7060000D+00 0.7060000D+00
EXPONENTS  0.7060000D+00 0.7060000D+00 0.7060000D+00 0.7060000D+00 0.7060000D+00
EXPONENTS  0.7060000D+00 0.3120000D+00 0.3120000D+00 0.3120000D+00 0.3120000D+00
EXPONENTS  0.3120000D+00 0.3120000D+00 0.3120000D+00 0.3120000D+00 0.3120000D+00
EXPONENTS  0.3120000D+00 0.4561000D+06 0.6833000D+05 0.1555000D+05 0.4405000D+04
EXPONENTS  0.1439000D+04 0.5204000D+03 0.2031000D+03 0.8396000D+02 0.3620000D+02
EXPONENTS  0.1583000D+02 0.6334000D+01 0.4405000D+04 0.1439000D+04 0.5204000D+03
EXPONENTS  0.2031000D+03 0.8396000D+02 0.3620000D+02 0.1583000D+02 0.6334000D+01
EXPONENTS  0.2694000D+01 0.1439000D+04 0.2031000D+03 0.8396000D+02 0.3620000D+02
EXPONENTS  0.1583000D+02 0.6334000D+01 0.2694000D+01 0.4313000D+00 0.9768000D+00
EXPONENTS  0.1625000D+00 0.5910000D-01 0.6633000D+03 0.1568000D+03 0.4998000D+02
EXPONENTS  0.1842000D+02 0.7240000D+01 0.2922000D+01 0.6633000D+03 0.1568000D+03
EXPONENTS  0.4998000D+02 0.1842000D+02 0.7240000D+01 0.2922000D+01 0.6633000D+03
EXPONENTS  0.1568000D+03 0.4998000D+02 0.1842000D+02 0.7240000D+01 0.2922000D+01
EXPONENTS  0.1568000D+03 0.4998000D+02 0.1842000D+02 0.7240000D+01 0.2922000D+01
EXPONENTS  0.3818000D+00 0.1568000D+03 0.4998000D+02 0.1842000D+02 0.7240000D+01
EXPONENTS  0.2922000D+01 0.3818000D+00 0.1568000D+03 0.4998000D+02 0.1842000D+02
EXPONENTS  0.7240000D+01 0.2922000D+01 0.3818000D+00 0.1022000D+01 0.1022000D+01
EXPONENTS  0.1022000D+01 0.1301000D+00 0.1301000D+00 0.1301000D+00 0.4190000D-01
EXPONENTS  0.4190000D-01 0.4190000D-01 0.1046000D+01 0.1046000D+01 0.1046000D+01
EXPONENTS  0.1046000D+01 0.1046000D+01 0.1046000D+01 0.3440000D+00 0.3440000D+00
EXPONENTS  0.3440000D+00 0.3440000D+00 0.3440000D+00 0.3440000D+00 0.1350000D+00
EXPONENTS  0.1350000D+00 0.1350000D+00 0.1350000D+00 0.1350000D+00 0.1350000D+00
EXPONENTS  0.7060000D+00 0.7060000D+00 0.7060000D+00 0.7060000D+00 0.7060000D+00
EXPONENTS  0.7060000D+00 0.7060000D+00 0.7060000D+00 0.7060000D+00 0.7060000D+00
EXPONENTS  0.3120000D+00 0.3120000D+00 0.3120000D+00 0.3120000D+00 0.3120000D+00
EXPONENTS  0.3120000D+00 0.3120000D+00 0.3120000D+00 0.3120000D+00 0.3120000D+00
EXPONENTS  0.3741000D+06 0.5605000D+05 0.1276000D+05 0.3615000D+04 0.1183000D+04
EXPONENTS  0.4288000D+03 0.1678000D+03 0.6947000D+02 0.2984000D+02 0.1272000D+02
EXPONENTS  0.5244000D+01 0.3615000D+04 0.1183000D+04 0.4288000D+03 0.1678000D+03
EXPONENTS  0.6947000D+02 0.2984000D+02 0.1272000D+02 0.5244000D+01 0.2219000D+01
EXPONENTS  0.1183000D+04 0.1678000D+03 0.6947000D+02 0.2984000D+02 0.1272000D+02
EXPONENTS  0.5244000D+01 0.2219000D+01 0.3490000D+00 0.7767000D+00 0.1322000D+00
EXPONENTS  0.4970000D-01 0.5744000D+03 0.1358000D+03 0.4319000D+02 0.1587000D+02
EXPONENTS  0.6208000D+01 0.2483000D+01 0.5744000D+03 0.1358000D+03 0.4319000D+02
EXPONENTS  0.1587000D+02 0.6208000D+01 0.2483000D+01 0.5744000D+03 0.1358000D+03
EXPONENTS  0.4319000D+02 0.1587000D+02 0.6208000D+01 0.2483000D+01 0.1358000D+03
EXPONENTS  0.4319000D+02 0.1587000D+02 0.6208000D+01 0.2483000D+01 0.3229000D+00
EXPONENTS  0.1358000D+03 0.4319000D+02 0.1587000D+02 0.6208000D+01 0.2483000D+01
EXPONENTS  0.3229000D+00 0.1358000D+03 0.4319000D+02 0.1587000D+02 0.6208000D+01
EXPONENTS  0.2483000D+01 0.3229000D+00 0.8688000D+00 0.8688000D+00 0.8688000D+00
EXPONENTS  0.1098000D+00 0.1098000D+00 0.1098000D+00 0.3510000D-01 0.3510000D-01
EXPONENTS  0.3510000D-01 0.2690000D+00 0.2690000D+00 0.2690000D+00 0.2690000D+00
EXPONENTS  0.2690000D+00 0.2690000D+00 0.8190000D+00 0.8190000D+00 0.8190000D+00
EXPONENTS  0.8190000D+00 0.8190000D+00 0.8190000D+00 0.1010000D+00 0.1010000D+00
EXPONENTS  0.1010000D+00 0.1010000D+00 0.1010000D+00 0.1010000D+00 0.5570000D+00
EXPONENTS  0.5570000D+00 0.5570000D+00 0.5570000D+00 0.5570000D+00 0.5570000D+00
EXPONENTS  0.5570000D+00 0.5570000D+00 0.5570000D+00 0.5570000D+00 0.2180000D+00
EXPONENTS  0.2180000D+00 0.2180000D+00 0.2180000D+00 0.2180000D+00 0.2180000D+00
EXPONENTS  0.2180000D+00 0.2180000D+00 0.2180000D+00 0.2180000D+00
MO    1     MO 0.0        OCC NO =    2.0000386  ORB. ENERGY =    0.000000
 -0.92267709D-12 -0.17200560D-11 -0.29071289D-11 -0.43699570D-11 -0.53677095D-11
 -0.45301574D-11 -0.17034575D-11 -0.15989568D-14 -0.11951212D-13 -0.44664407D-13
 -0.12460674D-12 -0.16693868D-12  0.19712345D-12  0.13752082D-13 -0.51862755D-12
 -0.42844349D-13 -0.11638184D-11 -0.10911537D-11 -0.77696643D-12  0.77191357D-03
  0.72371804D-03  0.51533036D-03  0.14349171D-11  0.13453260D-11  0.95795223D-12
 -0.23277439D-12  0.20261548D-03  0.75775692D-12  0.28592405D-13  0.29457017D-03
 -0.85645132D-12  0.50302873D-14 -0.10261042D-04 -0.65188291D-13 -0.53922741D-13
  0.94843848D-12 -0.89451574D-12  0.18506511D-12  0.23756292D-12  0.30053957D-03
  0.65352708D-13 -0.12185639D-12  0.56503680D-13 -0.17198071D-13  0.64124333D-14
  0.24676755D-03  0.38120684D-14  0.22699333D-12 -0.23080540D-12  0.20400917D-13
  0.37593756D-13  0.18657572D-03  0.28431059D-13  0.25281909D-03  0.13913717D-12
 -0.46854402D-13  0.21701869D-04 -0.27731370D-12 -0.38438774D-13 -0.78015914D-03
 -0.14009781D-12 -0.70170274D-13 -0.12023531D-13 -0.30780464D-03 -0.88026397D-13
  0.30466492D-13 -0.18992737D-04  0.14291997D-12  0.56041016D-14  0.94240667D-03
  0.12115922D-12  0.54548550D-13 -0.15747088D-02 -0.29461121D-02 -0.50902283D-02
 -0.82518582D-02 -0.12531239D-01 -0.17417243D-01 -0.20707767D-01 -0.18447198D-01
 -0.91612687D-02 -0.14748868D-02 -0.15560926D-04 -0.76961561D-05 -0.25673088D-03
 -0.89465573D-03 -0.32218001D-02 -0.71020574D-02 -0.99974047D-02  0.47690879D-03
  0.13083340D-01  0.77360972D-02  0.19777344D-06  0.23955193D-05  0.49956029D-05
  0.14326519D-04  0.74395620D-06 -0.61782900D-04 -0.15963515D-03  0.13006320D-03
  0.43466313D-03 -0.21423167D-03 -0.10469625D-03  0.35887528D-08  0.47272269D-08
  0.52148713D-08  0.43313589D-08  0.23000718D-08  0.59343054D-09 -0.48215934D+01
 -0.63511665D+01 -0.70063308D+01 -0.58193063D+01 -0.30902131D+01 -0.79729114D+00
  0.66186454D+01  0.87183043D+01  0.96176544D+01  0.79882150D+01  0.42419638D+01
  0.10944488D+01 -0.14589607D-12  0.14104293D-11  0.19888526D-11  0.28445853D-11
 -0.14404580D-13 -0.26087530D-11  0.25140205D-03 -0.24303933D-02 -0.34271082D-02
 -0.49016713D-02  0.24821374D-04  0.44952949D-02 -0.33205285D-03  0.32100733D-02
  0.45265384D-02  0.64741474D-02 -0.32784171D-04 -0.59374038D-02  0.23742797D-10
 -0.31030043D-01  0.42747262D-01 -0.13777216D-12  0.34697321D-03 -0.51185326D-03
 -0.74882179D-14  0.95018944D-05 -0.19254518D-04  0.84950062D-05 -0.81506556D-03
  0.80657055D-03  0.32863948D-12  0.23140114D-12  0.75217429D-03  0.40193035D-04
  0.48959292D-03 -0.52978595D-03 -0.20791873D-12 -0.12531573D-12 -0.36439043D-03
 -0.26271443D-05 -0.90903587D-07  0.27180479D-05  0.17410823D-13  0.68644850D-14
  0.28750893D-05  0.23948397D-14 -0.21163070D-04 -0.10712634D-04 -0.13630653D-13
  0.49017961D-04  0.37732315D-04  0.64461343D-14  0.14471250D-04 -0.55944119D-05
  0.14667104D-13  0.11838596D-13  0.86785781D-04 -0.39847534D-04 -0.27332913D-13
 -0.10475877D-04  0.43596214D-04 -0.81828744D-14 -0.24988147D-03  0.75946388D-04
 -0.59191262D-13  0.15747088D-02  0.29461121D-02  0.50902282D-02  0.82518579D-02
  0.12531238D-01  0.17417242D-01  0.20707766D-01  0.18447198D-01  0.91612684D-02
  0.14748867D-02  0.15560926D-04  0.76961561D-05  0.25673088D-03  0.89465573D-03
  0.32218001D-02  0.71020575D-02  0.99974047D-02 -0.47690879D-03 -0.13083340D-01
 -0.77360972D-02 -0.19777343D-06 -0.23955193D-05 -0.49956029D-05 -0.14326519D-04
 -0.74395620D-06  0.61782899D-04  0.15963515D-03 -0.13006320D-03 -0.43466313D-03
  0.21423167D-03  0.10469625D-03  0.10539322D-08  0.13882753D-08  0.15314849D-08
  0.12720181D-08  0.67547693D-09  0.17427658D-09 -0.48215934D+01 -0.63511665D+01
 -0.70063308D+01 -0.58193063D+01 -0.30902131D+01 -0.79729114D+00 -0.66186454D+01
 -0.87183044D+01 -0.96176544D+01 -0.79882150D+01 -0.42419639D+01 -0.10944488D+01
 -0.34656550D-13  0.33503723D-12  0.47243747D-12  0.67571055D-12 -0.34217031D-14
 -0.61969031D-12  0.25140205D-03 -0.24303933D-02 -0.34271082D-02 -0.49016714D-02
  0.24821374D-04  0.44952949D-02  0.33205285D-03 -0.32100733D-02 -0.45265384D-02
 -0.64741474D-02  0.32784171D-04  0.59374038D-02  0.71214497D-11 -0.31030044D-01
 -0.42747262D-01 -0.37105842D-13  0.34697321D-03  0.51185326D-03 -0.32116991D-14
  0.95018944D-05  0.19254518D-04 -0.84950061D-05  0.81506556D-03 -0.80657055D-03
 -0.11960250D-13  0.59808668D-13  0.75217430D-03 -0.40193035D-04 -0.48959292D-03
  0.52978595D-03  0.55214033D-13 -0.21997971D-13 -0.36439043D-03  0.26271443D-05
  0.90903703D-07 -0.27180480D-05 -0.32035871D-14 -0.11656469D-13  0.28750894D-05
 -0.65925087D-14 -0.21163070D-04  0.10712634D-04 -0.23656767D-13  0.49017961D-04
 -0.37732315D-04  0.43434293D-13  0.14471250D-04  0.55944118D-05 -0.26912039D-13
  0.69180546D-14  0.86785781D-04  0.39847534D-04 -0.92531054D-15 -0.10475877D-04
 -0.43596214D-04 -0.19828853D-13 -0.24988147D-03 -0.75946388D-04  0.18821024D-13
 -0.82837392D-11 -0.15487285D-10 -0.26766631D-10 -0.43293923D-10 -0.65437316D-10
 -0.90120732D-10 -0.10534016D-09 -0.91042091D-10 -0.42489818D-10 -0.57564380D-11
  0.42103417D-13 -0.11547407D-12 -0.14844076D-11 -0.54149054D-11 -0.18269757D-10
 -0.40128583D-10 -0.51835184D-10  0.83303552D-11  0.69881778D-10  0.38350219D-10
 -0.83606336D-15 -0.95232814D-14 -0.19773765D-13 -0.54372832D-13  0.70500621D-14
  0.24584919D-12  0.61318691D-12 -0.50758725D-12  0.22301318D-11  0.17566534D-11
  0.34539301D-12  0.11433754D-09  0.15000436D-09  0.16452231D-09  0.13536400D-09
  0.71356206D-10  0.18565543D-10  0.84239317D+00  0.11051719D+01  0.12121344D+01
  0.99730769D+00  0.52572391D+00  0.13678347D+00 -0.53581953D-10 -0.70296475D-10
 -0.77100020D-10 -0.63435574D-10 -0.33439628D-10 -0.87003621D-11 -0.23671909D-14
 -0.84971810D-13 -0.13480991D-12 -0.16008263D-12 -0.24224721D-13  0.17630298D-12
  0.22710957D-04  0.81522415D-03  0.12933735D-02  0.15358414D-02  0.23241329D-03
 -0.16914604D-02 -0.33152952D-15 -0.11900461D-13 -0.18880380D-13 -0.22419872D-13
 -0.33927176D-14  0.24691563D-13  0.11121334D-11  0.59248099D-02  0.10734976D-12
 -0.33498709D-13 -0.51844284D-03 -0.23339073D-12 -0.16553437D-14 -0.68160439D-05
  0.80483184D-15 -0.47477408D-14  0.53462783D-13 -0.48715043D-13 -0.14686445D-13
  0.26534264D-13  0.69370448D-03 -0.91217408D-13  0.91954533D-13 -0.73712520D-15
  0.33499689D-13  0.12605183D-13 -0.11457357D-03  0.14019941D-13 -0.15232097D-13
  0.12121555D-14 -0.54193978D-14  0.19693037D-13  0.76260531D-04 -0.16380144D-14
  0.64088452D-04  0.38734282D-13 -0.66647875D-14  0.23276690D-04  0.89400582D-13
  0.11578831D-13 -0.21554205D-03 -0.20560343D-12 -0.15039733D-13  0.42372156D-14
  0.27543162D-04  0.12114216D-13 -0.22641216D-14  0.26547555D-05 -0.25098135D-13
 -0.10447525D-13 -0.85284242D-04 -0.11244514D-13  0.15840074D-13
MO    2     MO 0.0        OCC NO =    2.0000377  ORB. ENERGY =    0.000000
 -0.83480586D-03 -0.15562463D-02 -0.26302683D-02 -0.39537838D-02 -0.48565152D-02
 -0.40987275D-02 -0.15412286D-02 -0.11189703D-05 -0.83636099D-05 -0.31256720D-04
 -0.87201381D-04 -0.11682581D-03  0.13794950D-03 -0.16636379D-05 -0.44843871D-03
 -0.68335081D-04  0.45913045D-12  0.43046398D-12  0.30651600D-12 -0.94256195D-12
 -0.88371174D-12 -0.62925540D-12  0.86322069D-03  0.80932427D-03  0.57628709D-03
  0.96906959D-13 -0.21939493D-12  0.57632407D-03 -0.14060564D-13 -0.27586151D-12
 -0.48936691D-03 -0.34202943D-14  0.20607603D-13 -0.45965877D-04 -0.61521943D-04
  0.72160916D-03 -0.66008722D-03 -0.62323918D-13 -0.15518889D-12 -0.38168174D-12
  0.62018487D-04 -0.11600257D-03  0.53984082D-04  0.84236065D-14  0.17808013D-13
 -0.34881273D-12  0.49903585D-05  0.16364325D-03 -0.16863361D-03 -0.36835300D-14
 -0.18051595D-13 -0.25657791D-12 -0.10278924D-13 -0.34013855D-12  0.97365963D-04
  0.24194292D-13 -0.28504805D-13 -0.18707632D-03  0.66424798D-14  0.10489204D-11
 -0.10502157D-03  0.22485115D-13  0.44596011D-14  0.41159202D-12 -0.71935930D-04
 -0.18165941D-13  0.17976626D-13  0.96485257D-04  0.47871382D-14 -0.12527527D-11
  0.11932253D-03 -0.18061138D-13 -0.67226986D-03 -0.12577452D-02 -0.21731047D-02
 -0.35228580D-02 -0.53497980D-02 -0.74357158D-02 -0.88404964D-02 -0.78754214D-02
 -0.39111008D-02 -0.62965414D-03 -0.66432231D-05 -0.35499775D-05 -0.11842131D-03
 -0.41267454D-03 -0.14861078D-02 -0.32759398D-02 -0.46114659D-02  0.21998195D-03
  0.60349040D-02  0.35684009D-02  0.29745401D-06  0.36028945D-05  0.75134566D-05
  0.21547286D-04  0.11189205D-05 -0.92922345D-04 -0.24009349D-03  0.19561688D-03
  0.10128266D-03 -0.34812527D-03 -0.16775266D-03 -0.16215771D-08 -0.21359963D-08
 -0.23563383D-08 -0.19571235D-08 -0.10392869D-08 -0.26814144D-09  0.41410323D+01
  0.54547082D+01  0.60173970D+01  0.49979194D+01  0.26540339D+01  0.68475461D+00
 -0.70822032D+01 -0.93289184D+01 -0.10291257D+02 -0.85476950D+01 -0.45390632D+01
 -0.11711020D+01  0.65806287D-13 -0.63617284D-12 -0.89707011D-12 -0.12830476D-11
  0.64971723D-14  0.11766756D-11 -0.18020671D-03  0.17421225D-02  0.24565746D-02
  0.35135516D-02 -0.17792130D-04 -0.32222582D-02  0.33281095D-03 -0.32174021D-02
 -0.45368728D-02 -0.64889283D-02  0.32859019D-04  0.59509593D-02 -0.10708168D-10
  0.26746051D-01 -0.45822302D-01  0.70808619D-13 -0.13464045D-03  0.13639756D-03
  0.41694533D-14 -0.10448960D-04  0.13503000D-04  0.16260065D-04  0.47296022D-03
 -0.48922029D-03 -0.14585892D-12 -0.11672089D-12 -0.46019451D-03  0.23698289D-04
 -0.28255562D-03  0.25885733D-03  0.90855485D-13  0.55719027D-13  0.41944708D-03
 -0.33278565D-05  0.48074605D-04 -0.44746749D-04 -0.59511915D-14 -0.71506340D-15
 -0.27451547D-04  0.74012520D-15 -0.30011524D-04  0.75269593D-06  0.55814883D-14
  0.58103052D-04  0.30909903D-04 -0.78018639D-14  0.31931519D-04 -0.33167990D-04
 -0.16546761D-13 -0.59513029D-14 -0.46694963D-04 -0.11971864D-04  0.12368812D-13
  0.17977533D-04 -0.42536318D-04  0.54850966D-14  0.12210735D-03  0.78451909D-04
  0.30927379D-13 -0.67226987D-03 -0.12577452D-02 -0.21731047D-02 -0.35228580D-02
 -0.53497980D-02 -0.74357159D-02 -0.88404964D-02 -0.78754214D-02 -0.39111008D-02
 -0.62965414D-03 -0.66432231D-05 -0.35499775D-05 -0.11842131D-03 -0.41267454D-03
 -0.14861078D-02 -0.32759398D-02 -0.46114659D-02  0.21998195D-03  0.60349040D-02
  0.35684010D-02  0.29745401D-06  0.36028945D-05  0.75134567D-05  0.21547286D-04
  0.11189205D-05 -0.92922346D-04 -0.24009350D-03  0.19561688D-03  0.10128266D-03
 -0.34812527D-03 -0.16775266D-03 -0.80282825D-09 -0.10575126D-08 -0.11666019D-08
 -0.96895426D-09 -0.51454160D-09 -0.13275442D-09 -0.41410322D+01 -0.54547082D+01
 -0.60173970D+01 -0.49979193D+01 -0.26540339D+01 -0.68475461D+00 -0.70822032D+01
 -0.93289184D+01 -0.10291257D+02 -0.85476949D+01 -0.45390632D+01 -0.11711020D+01
  0.29825350D-13 -0.28833229D-12 -0.40657863D-12 -0.58151500D-12  0.29447101D-14
  0.53330410D-12  0.18020671D-03 -0.17421225D-02 -0.24565746D-02 -0.35135515D-02
  0.17792130D-04  0.32222581D-02  0.33281095D-03 -0.32174021D-02 -0.45368728D-02
 -0.64889283D-02  0.32859019D-04  0.59509592D-02 -0.53672382D-11 -0.26746051D-01
 -0.45822302D-01  0.26696456D-13  0.13464045D-03  0.13639755D-03  0.24921373D-14
  0.10448960D-04  0.13503000D-04  0.16260065D-04  0.47296022D-03 -0.48922029D-03
  0.47834670D-13 -0.59135587D-13  0.46019451D-03  0.23698289D-04 -0.28255562D-03
  0.25885733D-03 -0.41874959D-13  0.22464628D-13 -0.41944707D-03 -0.33278565D-05
  0.48074605D-04 -0.44746749D-04  0.41996455D-14  0.22659076D-14  0.27451547D-04
  0.13775995D-14  0.30011524D-04  0.75269591D-06  0.11741930D-13 -0.58103052D-04
  0.30909903D-04 -0.15874729D-13 -0.31931519D-04 -0.33167990D-04  0.10414956D-13
 -0.33574914D-14  0.46694962D-04 -0.11971864D-04  0.22662115D-14 -0.17977533D-04
 -0.42536318D-04  0.78062628D-14 -0.12210735D-03  0.78451909D-04 -0.13250077D-13
  0.45930439D-03  0.85871581D-03  0.14841162D-02  0.24004967D-02  0.36282705D-02
  0.49968796D-02  0.58407438D-02  0.50479657D-02  0.23559119D-02  0.31917437D-03
 -0.23344873D-05  0.58439775D-05  0.75123743D-04  0.27404062D-03  0.92460625D-03
  0.20308502D-02  0.26233045D-02 -0.42158735D-03 -0.35366168D-02 -0.19408497D-02
  0.20127649D-06  0.22926644D-05  0.47603977D-05  0.13089885D-04 -0.16972539D-05
 -0.59186497D-04 -0.14762052D-03  0.12219813D-03 -0.18936972D-04  0.11601635D-02
  0.26033912D-03  0.34959467D-09  0.45864833D-09  0.50303796D-09  0.41388448D-09
  0.21817636D-09  0.56765386D-10 -0.13130309D-08 -0.17226219D-08 -0.18893434D-08
 -0.15544948D-08 -0.81944128D-09 -0.21320321D-09 -0.56522611D+00 -0.74154451D+00
 -0.81331384D+00 -0.66917013D+00 -0.35274844D+00 -0.91778509D-01  0.34216129D-14
  0.12282095D-12  0.19485852D-12  0.23138852D-12  0.35015182D-13 -0.25483393D-12
 -0.31632215D-13 -0.11354583D-11 -0.18014331D-11 -0.21391466D-11 -0.32370926D-12
  0.23558953D-11 -0.45498923D-05 -0.16332125D-03 -0.25911326D-03 -0.30768905D-03
 -0.46561464D-04  0.33886561D-03  0.25394034D-11 -0.91947039D-11 -0.38640248D-02
  0.15158469D-13  0.68584066D-12 -0.11869812D-03  0.38319660D-15  0.78606088D-14
 -0.24509724D-06  0.18162304D-04  0.45496507D-04 -0.63658811D-04  0.39913455D-14
  0.11965004D-13 -0.91481416D-12 -0.91801679D-04  0.89629381D-04  0.21722979D-05
 -0.10827436D-13 -0.25508942D-13  0.14114895D-12  0.10098198D-04 -0.88950067D-05
 -0.12031910D-05  0.10501748D-14 -0.98440614D-14 -0.96636908D-13  0.44259375D-14
 -0.88492658D-13  0.32359277D-04  0.14007836D-14 -0.30361321D-13  0.46658857D-04
 -0.14678596D-13  0.29583930D-12 -0.14373669D-03  0.28781197D-14 -0.16659735D-14
 -0.35476494D-13  0.99607581D-05  0.25589921D-14 -0.28150426D-14 -0.19654141D-04
  0.24389284D-14  0.10924453D-12 -0.10228134D-04 -0.39486330D-14
MO    3     MO 0.0        OCC NO =    2.0000330  ORB. ENERGY =    0.000000
  0.80126474D-11  0.14937189D-10  0.25245884D-10  0.37949273D-10  0.46613885D-10
  0.39340474D-10  0.14793046D-10  0.14207568D-14  0.10619277D-13  0.39686664D-13
  0.11071961D-12  0.14833375D-12 -0.17515451D-12  0.60752888D-12  0.40330169D-12
  0.49698674D-13 -0.92725436D-11 -0.86935990D-11 -0.61903604D-11 -0.12696108D-11
 -0.11903409D-11 -0.84759361D-12 -0.38429868D-12 -0.36030444D-12 -0.25655822D-12
 -0.19212669D-11 -0.33860940D-12  0.87862806D-13  0.23863196D-12  0.15998449D-12
  0.12148095D-12  0.56375595D-13  0.99165963D-14  0.81780883D-15 -0.16136447D-13
  0.26051566D-13 -0.99151189D-14  0.11918940D-02  0.24117867D-11 -0.42440844D-12
 -0.29832817D-13 -0.23693004D-13  0.53525820D-13 -0.11237729D-03 -0.95198763D-13
  0.38028179D-13 -0.30513251D-14  0.27095208D-14  0.34180430D-15  0.11748546D-03
  0.34999481D-12 -0.91321616D-13  0.21593169D-12 -0.14207300D-13  0.12662073D-13
 -0.42319412D-12  0.11002500D-12  0.81651533D-14 -0.22460096D-12 -0.67403099D-13
 -0.46151372D-13 -0.46449527D-03 -0.88135843D-13  0.31193594D-13 -0.43245848D-14
  0.28862666D-12 -0.34607526D-13 -0.14093063D-14 -0.24219134D-13 -0.58973256D-13
  0.14383061D-13  0.34838983D-03  0.75529158D-10  0.14130699D-09  0.24414714D-09
  0.39579121D-09  0.60104693D-09  0.83539868D-09  0.99322502D-09  0.88479936D-09
  0.43941007D-09  0.70741304D-10  0.74636254D-12  0.10274877D-12  0.34275270D-11
  0.11944245D-10  0.43013161D-10  0.94817161D-10  0.13347196D-09 -0.63670475D-11
 -0.17467124D-09 -0.10328201D-09  0.20348643D-14  0.24647176D-13  0.51399087D-13
  0.14740363D-12  0.76544654D-14 -0.63567595D-12 -0.16424646D-11  0.13382028D-11
 -0.66756962D-11  0.40759654D-12  0.73085775D-13  0.82135679D+01  0.10819190D+02
  0.11935261D+02  0.99131684D+01  0.52641675D+01  0.13581827D+01  0.11220907D-08
  0.14780559D-08  0.16305270D-08  0.13542803D-08  0.71916044D-09  0.18554715D-09
 -0.14552191D-08 -0.19168640D-08 -0.21146011D-08 -0.17563417D-08 -0.93266620D-09
 -0.24063275D-09 -0.35939836D-03  0.34744321D-02  0.48993120D-02  0.70073122D-02
 -0.35484043D-04 -0.64263662D-02 -0.57905656D-13  0.55979462D-12  0.78936885D-12
  0.11290063D-11 -0.57171289D-14 -0.10354052D-11  0.64361851D-13 -0.62220896D-12
 -0.87737959D-12 -0.12548849D-11  0.63545605D-14  0.11508478D-11  0.53804600D-01
  0.68798215D-11 -0.96949206D-11 -0.35095012D-03 -0.70449963D-13  0.62526563D-13
 -0.14734117D-04 -0.10511124D-14  0.32151315D-14 -0.52256521D-15  0.97238585D-13
 -0.96716020D-13  0.99675056D-03  0.55814833D-03 -0.21776832D-12 -0.20708572D-13
 -0.81730844D-13  0.10243942D-12 -0.48508121D-03 -0.32793863D-03  0.75131840D-13
  0.91548809D-14 -0.40246269D-14 -0.51302540D-14  0.39511323D-04  0.52659702D-04
 -0.13195952D-13  0.21674978D-04  0.65473477D-14  0.10374472D-13  0.43549586D-04
 -0.52921637D-13 -0.35646997D-13 -0.10857452D-03  0.33279594D-13  0.45235803D-14
 -0.21343733D-04  0.17252826D-04 -0.18236953D-13  0.96077098D-14 -0.87064781D-04
  0.23956573D-13 -0.85348967D-16  0.35306303D-04  0.30754285D-13 -0.28737780D-13
 -0.13612464D-03  0.14816463D-10  0.27720022D-10  0.47894049D-10  0.77641880D-10
  0.11790665D-09  0.16387914D-09  0.19483975D-09  0.17357002D-09  0.86198540D-10
  0.13877236D-10  0.14641303D-12 -0.35499845D-13 -0.11842154D-11 -0.41267536D-11
 -0.14861108D-10 -0.32759463D-10 -0.46114750D-10  0.21998239D-11  0.60349159D-10
  0.35684080D-10 -0.55449441D-15 -0.67162814D-14 -0.14006097D-13 -0.40167047D-13
 -0.20858188D-14  0.17321979D-12  0.44756666D-12 -0.36465625D-12  0.22520217D-11
 -0.32389011D-12 -0.12673391D-12 -0.82135679D+01 -0.10819190D+02 -0.11935261D+02
 -0.99131684D+01 -0.52641675D+01 -0.13581827D+01  0.78736326D-09  0.10371416D-08
  0.11441295D-08  0.95028916D-09  0.50462992D-09  0.13019716D-09  0.82171837D-09
  0.10823953D-08  0.11940515D-08  0.99175324D-09  0.52664849D-09  0.13587806D-09
  0.35939836D-03 -0.34744321D-02 -0.48993120D-02 -0.70073122D-02  0.35484042D-04
  0.64263661D-02 -0.42817403D-13  0.41393110D-12  0.58368606D-12  0.83482547D-12
 -0.42274387D-14 -0.76561369D-12 -0.33403902D-13  0.32292743D-12  0.45536139D-12
  0.65128724D-12 -0.32980269D-14 -0.59729183D-12 -0.53804600D-01  0.49071905D-11
  0.55331008D-11  0.35095011D-03 -0.27179635D-13 -0.80441201D-13  0.14734117D-04
  0.15516920D-14 -0.40504916D-14  0.35378381D-13 -0.81874526D-13  0.46496145D-13
  0.99675056D-03 -0.55814833D-03 -0.34017296D-13  0.21724316D-13  0.69182994D-13
 -0.90907310D-13 -0.48508121D-03  0.32793863D-03  0.36466165D-13 -0.29603809D-14
  0.72285578D-14 -0.42681768D-14  0.39511323D-04 -0.52659702D-04  0.55636116D-14
 -0.21674978D-04  0.54613312D-14 -0.14875868D-13 -0.43549587D-04 -0.42880747D-13
  0.47793430D-13  0.10857452D-03  0.26496754D-13 -0.31658269D-14 -0.21343733D-04
 -0.17252826D-04 -0.14537857D-13 -0.11497443D-13  0.87064781D-04  0.15008157D-13
 -0.14334515D-14 -0.35306304D-04  0.28605413D-13  0.35925779D-13 -0.13612464D-03
  0.42666064D-10  0.79768504D-10  0.13786368D-09  0.22298883D-09  0.33704015D-09
  0.46417407D-09  0.54256296D-09  0.46891960D-09  0.21884722D-09  0.29648996D-10
 -0.21685703D-12  0.26942317D-12  0.34634077D-11  0.12634014D-10  0.42626849D-10
  0.93627687D-10  0.12094143D-09 -0.19436317D-10 -0.16304760D-09 -0.89478420D-10
  0.21855637D-14  0.24894929D-13  0.51690847D-13  0.14213670D-12 -0.18429656D-13
 -0.64267743D-12 -0.16029396D-11  0.13268902D-11 -0.49946300D-11 -0.19639496D-12
 -0.24504849D-13 -0.26844104D-08 -0.35217938D-08 -0.38626456D-08 -0.31780685D-08
 -0.16752970D-08 -0.43588076D-09  0.30432702D-08  0.39925974D-08  0.43790153D-08
  0.36029218D-08  0.18992555D-08  0.49415057D-09 -0.10775607D-08 -0.14136983D-08
 -0.15505211D-08 -0.12757220D-08 -0.67248812D-09 -0.17496876D-09 -0.41513965D-13
 -0.14901700D-11 -0.23641920D-11 -0.28074055D-11 -0.42483445D-12  0.30918655D-11
  0.24806373D-13  0.89044042D-12  0.14127060D-11  0.16775451D-11  0.25385679D-12