 cl2cs-wavefunction
GAUSSIAN            196 MOL ORBITALS    414 PRIMITIVES        4 NUCLEI
  C    1    (CENTRE  1)   0.00000000  0.00000000 -0.98816425  CHARGE =  6.0
  Cl   2    (CENTRE  2)   0.00000000 -2.70369732 -2.83628995  CHARGE = 17.0
  Cl   3    (CENTRE  3)   0.01889726  2.70369732 -2.83628995  CHARGE = 17.0
  S    4    (CENTRE  4)   0.00000000  0.00000000  2.04433408  CHARGE = 16.0
CENTRE ASSIGNMENTS    1  1  1  1  1  1  1  1  1  1  1  1  1  1  1  1  1  1  1  1
CENTRE ASSIGNMENTS    1  1  1  1  1  1  1  1  1  1  1  1  1  1  1  1  1  1  1  1
CENTRE ASSIGNMENTS    1  1  1  1  1  1  1  1  1  1  1  1  1  1  1  1  1  1  1  1
CENTRE ASSIGNMENTS    1  1  1  1  1  1  1  1  1  1  1  1  2  2  2  2  2  2  2  2
CENTRE ASSIGNMENTS    2  2  2  2  2  2  2  2  2  2  2  2  2  2  2  2  2  2  2  2
CENTRE ASSIGNMENTS    2  2  2  2  2  2  2  2  2  2  2  2  2  2  2  2  2  2  2  2
CENTRE ASSIGNMENTS    2  2  2  2  2  2  2  2  2  2  2  2  2  2  2  2  2  2  2  2
CENTRE ASSIGNMENTS    2  2  2  2  2  2  2  2  2  2  2  2  2  2  2  2  2  2  2  2
CENTRE ASSIGNMENTS    2  2  2  2  2  2  2  2  2  2  2  2  2  2  2  2  2  2  2  2
CENTRE ASSIGNMENTS    2  2  2  2  2  2  3  3  3  3  3  3  3  3  3  3  3  3  3  3
CENTRE ASSIGNMENTS    3  3  3  3  3  3  3  3  3  3  3  3  3  3  3  3  3  3  3  3
CENTRE ASSIGNMENTS    3  3  3  3  3  3  3  3  3  3  3  3  3  3  3  3  3  3  3  3
CENTRE ASSIGNMENTS    3  3  3  3  3  3  3  3  3  3  3  3  3  3  3  3  3  3  3  3
CENTRE ASSIGNMENTS    3  3  3  3  3  3  3  3  3  3  3  3  3  3  3  3  3  3  3  3
CENTRE ASSIGNMENTS    3  3  3  3  3  3  3  3  3  3  3  3  3  3  3  3  3  3  3  3
CENTRE ASSIGNMENTS    4  4  4  4  4  4  4  4  4  4  4  4  4  4  4  4  4  4  4  4
CENTRE ASSIGNMENTS    4  4  4  4  4  4  4  4  4  4  4  4  4  4  4  4  4  4  4  4
CENTRE ASSIGNMENTS    4  4  4  4  4  4  4  4  4  4  4  4  4  4  4  4  4  4  4  4
CENTRE ASSIGNMENTS    4  4  4  4  4  4  4  4  4  4  4  4  4  4  4  4  4  4  4  4
CENTRE ASSIGNMENTS    4  4  4  4  4  4  4  4  4  4  4  4  4  4  4  4  4  4  4  4
CENTRE ASSIGNMENTS    4  4  4  4  4  4  4  4  4  4  4  4  4  4
TYPE ASSIGNMENTS      1  1  1  1  1  1  1  1  1  1  1  1  1  1  1  1  2  2  2  3
TYPE ASSIGNMENTS      3  3  4  4  4  2  3  4  2  3  4  2  3  4  5  6  7  8  9 10
TYPE ASSIGNMENTS      5  6  7  8  9 10  5  6  7  8  9 10 11 12 13 17 14 15 18 19
TYPE ASSIGNMENTS     16 20 11 12 13 17 14 15 18 19 16 20  1  1  1  1  1  1  1  1
TYPE ASSIGNMENTS      1  1  1  1  1  1  1  1  1  1  1  1  1  1  1  1  1  1  1  1
TYPE ASSIGNMENTS      1  1  1  2  2  2  2  2  2  3  3  3  3  3  3  4  4  4  4  4
TYPE ASSIGNMENTS      4  2  2  2  2  2  2  3  3  3  3  3  3  4  4  4  4  4  4  2
TYPE ASSIGNMENTS      3  4  2  3  4  2  3  4  5  6  7  8  9 10  5  6  7  8  9 10
TYPE ASSIGNMENTS      5  6  7  8  9 10 11 12 13 17 14 15 18 19 16 20 11 12 13 17
TYPE ASSIGNMENTS     14 15 18 19 16 20  1  1  1  1  1  1  1  1  1  1  1  1  1  1
TYPE ASSIGNMENTS      1  1  1  1  1  1  1  1  1  1  1  1  1  1  1  1  1  2  2  2
TYPE ASSIGNMENTS      2  2  2  3  3  3  3  3  3  4  4  4  4  4  4  2  2  2  2  2
TYPE ASSIGNMENTS      2  3  3  3  3  3  3  4  4  4  4  4  4  2  3  4  2  3  4  2
TYPE ASSIGNMENTS      3  4  5  6  7  8  9 10  5  6  7  8  9 10  5  6  7  8  9 10
TYPE ASSIGNMENTS     11 12 13 17 14 15 18 19 16 20 11 12 13 17 14 15 18 19 16 20
TYPE ASSIGNMENTS      1  1  1  1  1  1  1  1  1  1  1  1  1  1  1  1  1  1  1  1
TYPE ASSIGNMENTS      1  1  1  1  1  1  1  1  1  1  1  2  2  2  2  2  2  3  3  3
TYPE ASSIGNMENTS      3  3  3  4  4  4  4  4  4  2  2  2  2  2  2  3  3  3  3  3
TYPE ASSIGNMENTS      3  4  4  4  4  4  4  2  3  4  2  3  4  2  3  4  5  6  7  8
TYPE ASSIGNMENTS      9 10  5  6  7  8  9 10  5  6  7  8  9 10 11 12 13 17 14 15
TYPE ASSIGNMENTS     18 19 16 20 11 12 13 17 14 15 18 19 16 20
EXPONENTS  0.8236000D+04 0.1235000D+04 0.2808000D+03 0.7927000D+02 0.2559000D+02
EXPONENTS  0.8997000D+01 0.3319000D+01 0.2808000D+03 0.7927000D+02 0.2559000D+02
EXPONENTS  0.8997000D+01 0.3319000D+01 0.3643000D+00 0.9059000D+00 0.1285000D+00
EXPONENTS  0.4402000D-01 0.1871000D+02 0.4133000D+01 0.1200000D+01 0.1871000D+02
EXPONENTS  0.4133000D+01 0.1200000D+01 0.1871000D+02 0.4133000D+01 0.1200000D+01
EXPONENTS  0.3827000D+00 0.3827000D+00 0.3827000D+00 0.1209000D+00 0.1209000D+00
EXPONENTS  0.1209000D+00 0.3569000D-01 0.3569000D-01 0.3569000D-01 0.1097000D+01
EXPONENTS  0.1097000D+01 0.1097000D+01 0.1097000D+01 0.1097000D+01 0.1097000D+01
EXPONENTS  0.3180000D+00 0.3180000D+00 0.3180000D+00 0.3180000D+00 0.3180000D+00
EXPONENTS  0.3180000D+00 0.1000000D+00 0.1000000D+00 0.1000000D+00 0.1000000D+00
EXPONENTS  0.1000000D+00 0.1000000D+00 0.7610000D+00 0.7610000D+00 0.7610000D+00
EXPONENTS  0.7610000D+00 0.7610000D+00 0.7610000D+00 0.7610000D+00 0.7610000D+00
EXPONENTS  0.7610000D+00 0.7610000D+00 0.2680000D+00 0.2680000D+00 0.2680000D+00
EXPONENTS  0.2680000D+00 0.2680000D+00 0.2680000D+00 0.2680000D+00 0.2680000D+00
EXPONENTS  0.2680000D+00 0.2680000D+00 0.4561000D+06 0.6833000D+05 0.1555000D+05
EXPONENTS  0.4405000D+04 0.1439000D+04 0.5204000D+03 0.2031000D+03 0.8396000D+02
EXPONENTS  0.3620000D+02 0.1583000D+02 0.6334000D+01 0.4405000D+04 0.1439000D+04
EXPONENTS  0.5204000D+03 0.2031000D+03 0.8396000D+02 0.3620000D+02 0.1583000D+02
EXPONENTS  0.6334000D+01 0.2694000D+01 0.1439000D+04 0.2031000D+03 0.8396000D+02
EXPONENTS  0.3620000D+02 0.1583000D+02 0.6334000D+01 0.2694000D+01 0.4313000D+00
EXPONENTS  0.9768000D+00 0.1625000D+00 0.5910000D-01 0.6633000D+03 0.1568000D+03
EXPONENTS  0.4998000D+02 0.1842000D+02 0.7240000D+01 0.2922000D+01 0.6633000D+03
EXPONENTS  0.1568000D+03 0.4998000D+02 0.1842000D+02 0.7240000D+01 0.2922000D+01
EXPONENTS  0.6633000D+03 0.1568000D+03 0.4998000D+02 0.1842000D+02 0.7240000D+01
EXPONENTS  0.2922000D+01 0.1568000D+03 0.4998000D+02 0.1842000D+02 0.7240000D+01
EXPONENTS  0.2922000D+01 0.3818000D+00 0.1568000D+03 0.4998000D+02 0.1842000D+02
EXPONENTS  0.7240000D+01 0.2922000D+01 0.3818000D+00 0.1568000D+03 0.4998000D+02
EXPONENTS  0.1842000D+02 0.7240000D+01 0.2922000D+01 0.3818000D+00 0.1022000D+01
EXPONENTS  0.1022000D+01 0.1022000D+01 0.1301000D+00 0.1301000D+00 0.1301000D+00
EXPONENTS  0.4190000D-01 0.4190000D-01 0.4190000D-01 0.1046000D+01 0.1046000D+01
EXPONENTS  0.1046000D+01 0.1046000D+01 0.1046000D+01 0.1046000D+01 0.3440000D+00
EXPONENTS  0.3440000D+00 0.3440000D+00 0.3440000D+00 0.3440000D+00 0.3440000D+00
EXPONENTS  0.1350000D+00 0.1350000D+00 0.1350000D+00 0.1350000D+00 0.1350000D+00
EXPONENTS  0.1350000D+00 0.7060000D+00 0.7060000D+00 0.7060000D+00 0.7060000D+00
EXPONENTS  0.7060000D+00 0.7060000D+00 0.7060000D+00 0.7060000D+00 0.7060000D+00
EXPONENTS  0.7060000D+00 0.3120000D+00 0.3120000D+00 0.3120000D+00 0.3120000D+00
EXPONENTS  0.3120000D+00 0.3120000D+00 0.3120000D+00 0.3120000D+00 0.3120000D+00
EXPONENTS  0.3120000D+00 0.4561000D+06 0.6833000D+05 0.1555000D+05 0.4405000D+04
EXPONENTS  0.1439000D+04 0.5204000D+03 0.2031000D+03 0.8396000D+02 0.3620000D+02
EXPONENTS  0.1583000D+02 0.6334000D+01 0.4405000D+04 0.1439000D+04 0.5204000D+03
EXPONENTS  0.2031000D+03 0.8396000D+02 0.3620000D+02 0.1583000D+02 0.6334000D+01
EXPONENTS  0.2694000D+01 0.1439000D+04 0.2031000D+03 0.8396000D+02 0.3620000D+02
EXPONENTS  0.1583000D+02 0.6334000D+01 0.2694000D+01 0.4313000D+00 0.9768000D+00
EXPONENTS  0.1625000D+00 0.5910000D-01 0.6633000D+03 0.1568000D+03 0.4998000D+02
EXPONENTS  0.1842000D+02 0.7240000D+01 0.2922000D+01 0.6633000D+03 0.1568000D+03
EXPONENTS  0.4998000D+02 0.1842000D+02 0.7240000D+01 0.2922000D+01 0.6633000D+03
EXPONENTS  0.1568000D+03 0.4998000D+02 0.1842000D+02 0.7240000D+01 0.2922000D+01
EXPONENTS  0.1568000D+03 0.4998000D+02 0.1842000D+02 0.7240000D+01 0.2922000D+01
EXPONENTS  0.3818000D+00 0.1568000D+03 0.4998000D+02 0.1842000D+02 0.7240000D+01
EXPONENTS  0.2922000D+01 0.3818000D+00 0.1568000D+03 0.4998000D+02 0.1842000D+02
EXPONENTS  0.7240000D+01 0.2922000D+01 0.3818000D+00 0.1022000D+01 0.1022000D+01
EXPONENTS  0.1022000D+01 0.1301000D+00 0.1301000D+00 0.1301000D+00 0.4190000D-01
EXPONENTS  0.4190000D-01 0.4190000D-01 0.1046000D+01 0.1046000D+01 0.1046000D+01
EXPONENTS  0.1046000D+01 0.1046000D+01 0.1046000D+01 0.3440000D+00 0.3440000D+00
EXPONENTS  0.3440000D+00 0.3440000D+00 0.3440000D+00 0.3440000D+00 0.1350000D+00
EXPONENTS  0.1350000D+00 0.1350000D+00 0.1350000D+00 0.1350000D+00 0.1350000D+00
EXPONENTS  0.7060000D+00 0.7060000D+00 0.7060000D+00 0.7060000D+00 0.7060000D+00
EXPONENTS  0.7060000D+00 0.7060000D+00 0.7060000D+00 0.7060000D+00 0.7060000D+00
EXPONENTS  0.3120000D+00 0.3120000D+00 0.3120000D+00 0.3120000D+00 0.3120000D+00
EXPONENTS  0.3120000D+00 0.3120000D+00 0.3120000D+00 0.3120000D+00 0.3120000D+00
EXPONENTS  0.3741000D+06 0.5605000D+05 0.1276000D+05 0.3615000D+04 0.1183000D+04
EXPONENTS  0.4288000D+03 0.1678000D+03 0.6947000D+02 0.2984000D+02 0.1272000D+02
EXPONENTS  0.5244000D+01 0.3615000D+04 0.1183000D+04 0.4288000D+03 0.1678000D+03
EXPONENTS  0.6947000D+02 0.2984000D+02 0.1272000D+02 0.5244000D+01 0.2219000D+01
EXPONENTS  0.1183000D+04 0.1678000D+03 0.6947000D+02 0.2984000D+02 0.1272000D+02
EXPONENTS  0.5244000D+01 0.2219000D+01 0.3490000D+00 0.7767000D+00 0.1322000D+00
EXPONENTS  0.4970000D-01 0.5744000D+03 0.1358000D+03 0.4319000D+02 0.1587000D+02
EXPONENTS  0.6208000D+01 0.2483000D+01 0.5744000D+03 0.1358000D+03 0.4319000D+02
EXPONENTS  0.1587000D+02 0.6208000D+01 0.2483000D+01 0.5744000D+03 0.1358000D+03
EXPONENTS  0.4319000D+02 0.1587000D+02 0.6208000D+01 0.2483000D+01 0.1358000D+03
EXPONENTS  0.4319000D+02 0.1587000D+02 0.6208000D+01 0.2483000D+01 0.3229000D+00
EXPONENTS  0.1358000D+03 0.4319000D+02 0.1587000D+02 0.6208000D+01 0.2483000D+01
EXPONENTS  0.3229000D+00 0.1358000D+03 0.4319000D+02 0.1587000D+02 0.6208000D+01
EXPONENTS  0.2483000D+01 0.3229000D+00 0.8688000D+00 0.8688000D+00 0.8688000D+00
EXPONENTS  0.1098000D+00 0.1098000D+00 0.1098000D+00 0.3510000D-01 0.3510000D-01
EXPONENTS  0.3510000D-01 0.2690000D+00 0.2690000D+00 0.2690000D+00 0.2690000D+00
EXPONENTS  0.2690000D+00 0.2690000D+00 0.8190000D+00 0.8190000D+00 0.8190000D+00
EXPONENTS  0.8190000D+00 0.8190000D+00 0.8190000D+00 0.1010000D+00 0.1010000D+00
EXPONENTS  0.1010000D+00 0.1010000D+00 0.1010000D+00 0.1010000D+00 0.5570000D+00
EXPONENTS  0.5570000D+00 0.5570000D+00 0.5570000D+00 0.5570000D+00 0.5570000D+00
EXPONENTS  0.5570000D+00 0.5570000D+00 0.5570000D+00 0.5570000D+00 0.2180000D+00
EXPONENTS  0.2180000D+00 0.2180000D+00 0.2180000D+00 0.2180000D+00 0.2180000D+00
EXPONENTS  0.2180000D+00 0.2180000D+00 0.2180000D+00 0.2180000D+00
MO    1     MO 0.0        OCC NO =    2.0000385  ORB. ENERGY =    0.000000
  0.37941726D-07  0.70731022D-07  0.11954506D-06  0.17969853D-06  0.22072745D-06
  0.18628618D-06  0.70048470D-07  0.16491307D-09  0.12326230D-08  0.46065938D-08
  0.12851679D-07  0.17217707D-07 -0.20330902D-07 -0.52579714D-08  0.55035262D-07
  0.57875499D-08  0.26003602D-05  0.24380030D-05  0.17360033D-05  0.74402319D-03
  0.69756903D-03  0.49671071D-03 -0.17525673D-06 -0.16431432D-06 -0.11700159D-06
  0.69280363D-06  0.19819200D-03 -0.11412132D-06  0.10813018D-05  0.30950907D-03
  0.76739156D-07 -0.36745341D-07 -0.10510080D-04  0.61342017D-08  0.10404739D-07
 -0.13400637D-06  0.12360163D-06  0.99507060D-07  0.93916848D-06  0.26883505D-03
 -0.11290819D-07  0.50838725D-07 -0.39547906D-07 -0.43725484D-06  0.98250628D-06
  0.28121492D-03  0.17436483D-09 -0.24134904D-07  0.23960539D-07  0.21462186D-06
  0.65536044D-06  0.18758961D-03  0.92372551D-07  0.24697221D-03 -0.20581437D-07
  0.24042856D-05  0.26469738D-04  0.55180574D-07 -0.26814032D-05 -0.76738636D-03
  0.65637384D-08  0.45750506D-05 -0.74983534D-07 -0.30059880D-03  0.15951821D-07
 -0.30012234D-05 -0.21479970D-04 -0.29464441D-07  0.32261740D-05  0.92327638D-03
 -0.18391021D-07 -0.37050338D-05 -0.13943748D-02 -0.26087264D-02 -0.45073006D-02
 -0.73068639D-02 -0.11096174D-01 -0.15422638D-01 -0.18336335D-01 -0.16334644D-01
 -0.81121296D-02 -0.13059842D-02 -0.13778905D-04 -0.68570228D-05 -0.22873880D-03
 -0.79710893D-03 -0.28705183D-02 -0.63277004D-02 -0.89073599D-02  0.42491010D-03
  0.11656827D-01  0.68926090D-02  0.22706591D-06  0.27503226D-05  0.57355079D-05
  0.16448438D-04  0.85414449D-06 -0.70933643D-04 -0.18327891D-03  0.14932703D-03
  0.38479729D-03 -0.21119627D-03 -0.10724742D-03 -0.28954588D-01 -0.38139966D-01
 -0.42074352D-01 -0.34946044D-01 -0.18557319D-01 -0.47878853D-02 -0.48532122D+01
 -0.63928157D+01 -0.70522764D+01 -0.58574678D+01 -0.31104779D+01 -0.80251956D+00
  0.65973666D+01  0.86902752D+01  0.95867339D+01  0.79625331D+01  0.42283260D+01
  0.10909302D+01  0.14063141D-05 -0.13595340D-04 -0.19170848D-04 -0.27419384D-04
  0.13884790D-06  0.25146161D-04  0.25176851D-03 -0.24339359D-02 -0.34321037D-02
 -0.49088162D-02  0.24857554D-04  0.45018475D-02 -0.32939717D-03  0.31843999D-02
  0.44903363D-02  0.64223688D-02 -0.32521971D-04 -0.58899179D-02 -0.18544593D-03
 -0.31219476D-01  0.42596659D-01  0.31653396D-05  0.34365661D-03 -0.50720789D-03
  0.11570095D-06  0.96087825D-05 -0.19524319D-04  0.76173121D-05 -0.81318711D-03
  0.80556980D-03 -0.45668648D-05 -0.46066933D-05  0.73868400D-03  0.41795604D-04
  0.47698109D-03 -0.51877670D-03  0.14811494D-05  0.33879343D-05 -0.34748082D-03
 -0.21082326D-05 -0.16031873D-05  0.37114199D-05  0.17739773D-06  0.25288944D-06
  0.34846388D-05  0.14547122D-06 -0.22272401D-04 -0.98485538D-05 -0.26236829D-06
  0.49191862D-04  0.37125240D-04 -0.17404536D-06  0.17625341D-04 -0.75795785D-05
 -0.10452712D-05 -0.16502760D-06  0.84381633D-04 -0.40458084D-04 -0.33348143D-06
 -0.90763031D-05  0.43598572D-04  0.82856423D-06 -0.24406860D-03  0.77775679D-04
  0.21840784D-05  0.13948238D-02  0.26095665D-02  0.45087521D-02  0.73092169D-02
  0.11099747D-01  0.15427604D-01  0.18342240D-01  0.16339904D-01  0.81147420D-02
  0.13064048D-02  0.13783342D-04  0.68592328D-05  0.22881252D-03  0.79736583D-03
  0.28714435D-02  0.63297398D-02  0.89102307D-02 -0.42504704D-03 -0.11660584D-01
 -0.68948305D-02 -0.22710571D-06 -0.27508047D-05 -0.57365132D-05 -0.16451321D-04
 -0.85429420D-06  0.70946075D-04  0.18331103D-03 -0.14935320D-03 -0.38488304D-03
  0.21127938D-03  0.10729265D-03 -0.49649287D-02 -0.65399725D-02 -0.72146134D-02
 -0.59923014D-02 -0.31820783D-02 -0.82099283D-03 -0.48520755D+01 -0.63913185D+01
 -0.70506248D+01 -0.58560959D+01 -0.31097494D+01 -0.80233161D+00 -0.65954274D+01
 -0.86877208D+01 -0.95839159D+01 -0.79601926D+01 -0.42270832D+01 -0.10906095D+01
  0.35336560D-06 -0.34161113D-05 -0.48170735D-05 -0.68896894D-05  0.34888417D-07
  0.63184950D-05  0.25171756D-03 -0.24334434D-02 -0.34314093D-02 -0.49078230D-02
  0.24852525D-04  0.45009366D-02  0.32930081D-03 -0.31834683D-02 -0.44890226D-02
 -0.64204899D-02  0.32512457D-04  0.58881947D-02 -0.32750172D-04 -0.31212121D-01
 -0.42584070D-01 -0.76378477D-06  0.34362881D-03  0.50716191D-03 -0.48562049D-07
  0.96064574D-05  0.19521098D-04 -0.76146342D-05  0.81303189D-03 -0.80541725D-03
  0.69056665D-05  0.97680673D-05  0.73852169D-03 -0.41805605D-04 -0.47686777D-03
  0.51867338D-03 -0.46015087D-05 -0.58152703D-05 -0.34731907D-03  0.21110651D-05
  0.15889782D-05 -0.37000432D-05  0.17026578D-06 -0.22870201D-06  0.34807997D-05
  0.19837332D-06 -0.22282068D-04  0.98476149D-05 -0.89258408D-06  0.49203087D-04
 -0.37133346D-04  0.29746411D-06  0.17643118D-04  0.75905010D-05 -0.42051572D-06
  0.10162192D-06  0.84358372D-04  0.40458617D-04  0.22293498D-05 -0.90584791D-05
 -0.43571492D-04 -0.25342156D-05 -0.24401664D-03 -0.77804358D-04  0.17058372D-05
 -0.17708168D-07 -0.33107204D-07 -0.57219088D-07 -0.92549517D-07 -0.13988550D-06
 -0.19265129D-06 -0.22518590D-06 -0.19462088D-06 -0.90830579D-07 -0.12305550D-07
  0.90004568D-10 -0.21892531D-09 -0.28142628D-08 -0.10266026D-07 -0.34637318D-07
 -0.76079093D-07 -0.98273437D-07  0.15793377D-07  0.13248766D-06  0.72707522D-07
 -0.38582102D-10 -0.43947413D-09 -0.91250671D-09 -0.25091617D-08  0.32534163D-09
  0.11345287D-07  0.28296946D-07 -0.23423802D-07 -0.20210730D-07 -0.14727019D-06
 -0.29231412D-07  0.29310472D-02  0.38453673D-02  0.42175357D-02  0.34700613D-02
  0.18292190D-02  0.47592838D-03  0.83874287D+00  0.11003830D+01  0.12068820D+01
  0.99298612D+00  0.52344582D+00  0.13619076D+00  0.87138865D-04  0.11432124D-03
  0.12538565D-03  0.10316354D-03  0.54381952D-04  0.14149161D-04  0.79497101D-07
  0.28535986D-05  0.45273057D-05  0.53760367D-05  0.81353605D-06 -0.59207629D-05
  0.22750035D-04  0.81662685D-03  0.12955990D-02  0.15384840D-02  0.23281318D-03
 -0.16943707D-02  0.10298482D-08  0.36967050D-07  0.58649152D-07  0.69644068D-07
  0.10538983D-07 -0.76700745D-07  0.20624892D-04  0.59020172D-02  0.60941268D-06
 -0.18238958D-05 -0.52202665D-03  0.39158492D-08 -0.23478814D-07 -0.67217111D-05
 -0.34860396D-09 -0.27863642D-08 -0.15606056D-07  0.18392421D-07  0.15850571D-05
  0.24123850D-05  0.69041286D-03  0.11930463D-07 -0.13654241D-07  0.17237780D-08
 -0.54830601D-06 -0.36540707D-06 -0.10460173D-03 -0.22884252D-08  0.10484959D-08
  0.12399293D-08  0.91073978D-08  0.26743733D-06  0.76550655D-04  0.80641320D-07
  0.63084966D-04 -0.77895923D-08  0.50005019D-06  0.23084736D-04 -0.12542839D-07
 -0.74197415D-06 -0.21233963D-03  0.35911616D-07 -0.23306543D-05  0.72326995D-08
  0.27136510D-04 -0.20032894D-08  0.26998823D-06  0.20717111D-05  0.25750284D-08
 -0.29168633D-06 -0.83481242D-04  0.34348399D-08 -0.65901397D-06
MO    2     MO 0.0        OCC NO =    2.0000376  ORB. ENERGY =    0.000000
 -0.56186710D-03 -0.10474335D-02 -0.17703053D-02 -0.26610990D-02 -0.32686835D-02
 -0.27586536D-02 -0.10373258D-02 -0.10916627D-05 -0.81595025D-05 -0.30493924D-04
 -0.85073299D-04 -0.11397477D-03  0.13458295D-03  0.18394840D-04 -0.44422649D-03
 -0.64458099D-04 -0.10207134D-05 -0.95698367D-06 -0.68142938D-06  0.22333469D-07
  0.20939047D-07  0.14909849D-07  0.81736751D-03  0.76633400D-03  0.54567546D-03
 -0.92113885D-06  0.35561506D-07  0.57386681D-03  0.21774025D-05  0.19565552D-07
 -0.50672152D-03  0.12609152D-06 -0.23971075D-08 -0.46048436D-04 -0.63784122D-04
  0.71573091D-03 -0.65194678D-03  0.54482788D-05  0.13211664D-05  0.44308821D-07
  0.63269759D-04 -0.11211555D-03  0.48845790D-04 -0.12258348D-05  0.23009148D-05
  0.29708958D-07  0.47765742D-05  0.16311026D-03 -0.16788683D-03  0.11066904D-05
  0.16691780D-05  0.28331971D-07  0.51800032D-06  0.26292913D-07  0.99945659D-04
  0.80215922D-06  0.39017926D-08 -0.19009203D-03 -0.23561602D-05 -0.82780532D-07
 -0.10974495D-03  0.56219477D-06 -0.37265180D-06 -0.32989313D-07 -0.74359189D-04
 -0.12026060D-05 -0.57211982D-08  0.98148974D-04  0.23205614D-05  0.10468914D-06
  0.12492859D-03  0.18670905D-06 -0.80091838D-03 -0.14984328D-02 -0.25889596D-02
 -0.41970076D-02 -0.63735588D-02 -0.88586471D-02 -0.10532253D-01 -0.93824966D-02
 -0.46595462D-02 -0.75014752D-03 -0.79144994D-05 -0.41588091D-05 -0.13873091D-03
 -0.48344945D-03 -0.17409797D-02 -0.38377732D-02 -0.54023460D-02  0.25770951D-03
  0.70699079D-02  0.41803923D-02  0.29119773D-06  0.35271157D-05  0.73554278D-05
  0.21094086D-04  0.10953865D-05 -0.90967931D-04 -0.23504366D-03  0.19150251D-03
  0.13814715D-03 -0.35362518D-03 -0.17162243D-03  0.24878137D-01  0.32770326D-01
  0.36150800D-01  0.30026070D-01  0.15944676D-01  0.41138098D-02  0.41833985D+01
  0.55105145D+01  0.60789601D+01  0.50490523D+01  0.26811869D+01  0.69176023D+00
 -0.70553244D+01 -0.92935127D+01 -0.10252199D+02 -0.85152542D+01 -0.45218363D+01
 -0.11666574D+01 -0.11925299D-05  0.11528612D-04  0.16256546D-04  0.23251162D-04
 -0.11774061D-06 -0.21323508D-04 -0.18198679D-03  0.17593312D-02  0.24808406D-02
  0.35482583D-02 -0.17967881D-04 -0.32540876D-02  0.33132240D-03 -0.32030118D-02
 -0.45165809D-02 -0.64599055D-02  0.32712052D-04  0.59243426D-02  0.16231977D-03
  0.27021834D-01 -0.45649583D-01  0.78369602D-06 -0.14312377D-03  0.13544472D-03
  0.24459259D-08 -0.10748550D-04  0.13330683D-04  0.14970349D-04  0.47406457D-03
 -0.48903492D-03  0.23120927D-05  0.16949033D-05 -0.44605313D-03  0.24752943D-04
 -0.28447206D-03  0.25971912D-03 -0.27166492D-05 -0.22343902D-06  0.41255615D-03
 -0.27901200D-05  0.47352659D-04 -0.44562539D-04  0.57252295D-06  0.50370285D-06
 -0.26995097D-04  0.22249471D-06 -0.30172616D-04  0.10912580D-05 -0.62640598D-06
  0.59183844D-04  0.30253485D-04 -0.41078155D-07  0.31334003D-04 -0.33527259D-04
 -0.95237169D-06  0.87529776D-07 -0.46849342D-04 -0.11823035D-04 -0.67021547D-06
  0.18261128D-04 -0.41589773D-04  0.40762614D-06  0.12228690D-03  0.77058877D-04
  0.55210993D-06 -0.80008001D-03 -0.14968643D-02 -0.25862495D-02 -0.41926144D-02
 -0.63668872D-02 -0.88493742D-02 -0.10521228D-01 -0.93726754D-02 -0.46546688D-02
 -0.74936230D-03 -0.79062149D-05 -0.41548009D-05 -0.13859720D-03 -0.48298350D-03
 -0.17393018D-02 -0.38340744D-02 -0.53971392D-02  0.25746113D-03  0.70630940D-02
  0.41763632D-02  0.29118867D-06  0.35270059D-05  0.73551989D-05  0.21093430D-04
  0.10953524D-05 -0.90965099D-04 -0.23503635D-03  0.19149655D-03  0.13791135D-03
 -0.35351794D-03 -0.17158143D-03 -0.43621991D-02 -0.57460367D-02 -0.63387780D-02
 -0.52648514D-02 -0.27957822D-02 -0.72132642D-03 -0.41847869D+01 -0.55123433D+01
 -0.60809775D+01 -0.50507279D+01 -0.26820767D+01 -0.69198981D+00 -0.70572062D+01
 -0.92959914D+01 -0.10254934D+02 -0.85175254D+01 -0.45230423D+01 -0.11669686D+01
  0.79519814D-07 -0.76874639D-06 -0.10840127D-05 -0.15504249D-05  0.78511333D-08
  0.14218858D-05  0.18205620D-03 -0.17600022D-02 -0.24817869D-02 -0.35496117D-02
  0.17974734D-04  0.32553288D-02  0.33141341D-03 -0.32038916D-02 -0.45178216D-02
 -0.64616800D-02  0.32721038D-04  0.59259700D-02 -0.26552713D-04 -0.27030774D-01
 -0.45661702D-01  0.17836334D-05  0.14320789D-03  0.13558935D-03  0.77551064D-07
  0.10751175D-04  0.13336927D-04  0.14972894D-04  0.47426506D-03 -0.48923796D-03
  0.41070348D-05  0.48152173D-05  0.44625127D-03  0.24746067D-04 -0.28458562D-03
  0.25983956D-03 -0.16070748D-05 -0.31083554D-05 -0.41262742D-03 -0.27897284D-05
  0.47354597D-04 -0.44564868D-04  0.12848289D-06  0.69232238D-06  0.26996909D-04
 -0.19109296D-06  0.30163567D-04  0.10939233D-05  0.83328221D-06 -0.59164145D-04
  0.30244846D-04 -0.26000334D-06 -0.31326556D-04 -0.33526616D-04  0.60645384D-07
 -0.40100243D-07  0.46869272D-04 -0.11813614D-04  0.56798715D-06 -0.18265993D-04
 -0.41596416D-04 -0.44768642D-06 -0.12234182D-03  0.77037257D-04  0.11068603D-05
  0.51333814D-03  0.95973735D-03  0.16587114D-02  0.26828973D-02  0.40551095D-02
  0.55847254D-02  0.65278640D-02  0.56418214D-02  0.26330674D-02  0.35672286D-03
 -0.26091224D-05  0.64746206D-05  0.83230596D-04  0.30361325D-03  0.10243836D-02
  0.22500060D-02  0.29063940D-02 -0.46708225D-03 -0.39182649D-02 -0.21502932D-02
  0.23271924D-06  0.26508168D-05  0.55040512D-05  0.15134743D-04 -0.19623932D-05
 -0.68432415D-04 -0.17068131D-03  0.14128752D-03 -0.26449145D-04  0.11724215D-02
  0.25936867D-03  0.68699385D-03  0.90129686D-03  0.98852759D-03  0.81333072D-03
  0.42874171D-03  0.11155053D-03  0.51215706D-04  0.67192094D-04  0.73695185D-04
  0.60634178D-04  0.31962891D-04  0.83161430D-05 -0.57347939D+00 -0.75237235D+00
 -0.82518964D+00 -0.67894117D+00 -0.35789918D+00 -0.93118635D-01  0.45285564D-07
  0.16255539D-05  0.25789820D-05  0.30624620D-05  0.46343123D-06 -0.33727656D-05
  0.21321832D-08  0.76536062D-07  0.12142638D-06  0.14419010D-06  0.21819763D-07
 -0.15880015D-06 -0.45653041D-05 -0.16387447D-03 -0.25999096D-03 -0.30873129D-03
 -0.46719181D-04  0.34001345D-03  0.56751001D-05  0.37455523D-06 -0.39328774D-02
 -0.32100643D-05 -0.60482973D-07 -0.11706636D-03 -0.90393289D-07 -0.50548437D-09
 -0.89056493D-07  0.20081806D-04  0.45790948D-04 -0.65872754D-04  0.17989054D-06
  0.26996464D-05  0.74400740D-07 -0.91829231D-04  0.92072754D-04 -0.24352252D-06
  0.12853023D-05 -0.11309214D-05 -0.32880289D-08  0.10391871D-04 -0.90144911D-05
 -0.13773800D-05 -0.13563359D-06  0.63328041D-06  0.87872969D-08  0.22390371D-06
  0.86722693D-08  0.33050276D-04 -0.71334151D-08  0.17863008D-08  0.45349359D-04
 -0.66457773D-06 -0.27803109D-07 -0.14450019D-03 -0.13271937D-05  0.40732158D-07
  0.23386287D-08  0.97900154D-05  0.26867092D-06  0.10152181D-08 -0.19895925D-04
 -0.39086739D-06 -0.80311041D-08 -0.94741216D-05  0.72747747D-07
MO    3     MO 0.0        OCC NO =    2.0000330  ORB. ENERGY =    0.000000
 -0.31140098D-08 -0.58051416D-08 -0.98114802D-08 -0.14748485D-07 -0.18115872D-07
 -0.15289157D-07 -0.57491222D-08 -0.29075681D-12 -0.21732270D-11 -0.81218456D-11
 -0.22658685D-10 -0.30356390D-10  0.35845237D-10 -0.28767717D-09  0.60879329D-09
  0.14067623D-09  0.89867694D-07  0.84256676D-07  0.59995773D-07 -0.49321671D-05
 -0.46242202D-05 -0.32927202D-05 -0.74381616D-10 -0.69737493D-10 -0.49657250D-10
  0.11076481D-07  0.71342155D-06  0.15143346D-09 -0.32432950D-07 -0.93941216D-05
  0.14498259D-09 -0.11057471D-08 -0.43181463D-06  0.85518040D-11 -0.41053161D-05
  0.41053766D-05 -0.60475794D-10 -0.11747477D-02 -0.20290815D-07  0.11963407D-05
  0.36373988D-06 -0.36384320D-06  0.10331976D-09  0.10411045D-03 -0.35033377D-08
 -0.51308958D-05 -0.40823269D-06  0.40823283D-06 -0.13320171D-12 -0.11681263D-03
 -0.19399202D-07 -0.52977012D-05 -0.96914525D-08 -0.45243012D-08  0.41027717D-10
  0.15763629D-07 -0.19496154D-05  0.16191203D-05  0.13310729D-07  0.19631883D-05
 -0.16192434D-05  0.46332769D-03  0.71352548D-08  0.39576720D-06 -0.92834366D-11
 -0.82753767D-08  0.16256275D-05 -0.12171785D-05 -0.13130388D-07 -0.28129291D-05
  0.12172063D-05 -0.34830611D-03 -0.36903945D-04 -0.69043342D-04 -0.11929158D-03
 -0.19338567D-03 -0.29367470D-03 -0.40818020D-03 -0.48529498D-03 -0.43231763D-03
 -0.21469808D-03 -0.34564574D-04 -0.36467667D-06 -0.17265086D-06 -0.57593437D-05
 -0.20070160D-04 -0.72275895D-04 -0.15932322D-03 -0.22427567D-03  0.10698680D-04
  0.29350366D-03  0.17354688D-03 -0.37196776D-08 -0.45054380D-07 -0.93956159D-07
 -0.26944991D-06 -0.13992158D-07  0.11619987D-05  0.30023814D-05 -0.24461990D-05
  0.97162419D-05  0.41467697D-05 -0.96776841D-06 -0.82134696D+01 -0.10819061D+02
 -0.11935118D+02 -0.99130497D+01 -0.52641045D+01 -0.13581665D+01  0.72806482D-02
  0.95903169D-02  0.10579621D-01  0.87872034D-02  0.46662489D-02  0.12039166D-02
 -0.30111999D-01 -0.39664547D-01 -0.43756204D-01 -0.36342954D-01 -0.19299117D-01
 -0.49792730D-02  0.35897328D-03 -0.34703227D-02 -0.48935173D-02 -0.69990242D-02
  0.35442073D-04  0.64187653D-02 -0.27597028D-06  0.26679031D-05  0.37620219D-05
  0.53806865D-05 -0.27247039D-07 -0.49345970D-05  0.14963632D-05 -0.14465877D-04
 -0.20398396D-04 -0.29175103D-04  0.14773861D-06  0.26756321D-04 -0.53790540D-01
  0.46315874D-04 -0.20054304D-03  0.35373536D-03  0.26352189D-06 -0.20976002D-05
  0.14917340D-04  0.64865446D-07 -0.11016544D-07  0.98640972D-07  0.11674801D-05
 -0.12661211D-05 -0.99074005D-03 -0.56259100D-03 -0.12637840D-05 -0.48701261D-06
 -0.67952429D-06  0.11665369D-05  0.47786550D-03  0.32825545D-03  0.24364580D-05
  0.46280947D-06  0.28490252D-06 -0.74771199D-06 -0.39008557D-04 -0.52128809D-04
 -0.56040249D-06 -0.21142817D-04 -0.20680044D-06  0.67210250D-06 -0.44250203D-04
 -0.41690630D-06 -0.15402845D-05  0.10767865D-03  0.10373076D-05 -0.47602304D-06
  0.17186273D-04 -0.17144128D-04 -0.10873136D-06 -0.40932059D-06  0.85414965D-04
 -0.36565458D-07  0.55034514D-06 -0.33982583D-04  0.36275953D-06  0.67761661D-06
  0.13699369D-03  0.36901234D-04  0.69038271D-04  0.11928282D-03  0.19337147D-03
  0.29365313D-03  0.40815022D-03  0.48525933D-03  0.43228588D-03  0.21468231D-03
  0.34562035D-04  0.36464989D-06  0.17263800D-06  0.57589148D-05  0.20068665D-04
  0.72270513D-04  0.15931135D-03  0.22425896D-03 -0.10697884D-04 -0.29348180D-03
 -0.17353395D-03  0.37194631D-08  0.45051781D-07  0.93950740D-07  0.26943436D-06
  0.13991351D-07 -0.11619316D-05 -0.30022082D-05  0.24460580D-05 -0.97154654D-05
 -0.41468784D-05  0.96764309D-06  0.82134653D+01  0.10819055D+02  0.11935111D+02
  0.99130446D+01  0.52641017D+01  0.13581658D+01 -0.50126354D-01 -0.66028134D-01
 -0.72839367D-01 -0.60498798D-01 -0.32126540D-01 -0.82888153D-02  0.30112613D-01
  0.39665356D-01  0.43757097D-01  0.36343695D-01  0.19299511D-01  0.49793746D-02
 -0.35897056D-03  0.34702964D-02  0.48934802D-02  0.69989711D-02 -0.35441805D-04
 -0.64187166D-02  0.22330201D-05 -0.21587402D-04 -0.30440490D-04 -0.43537953D-04
  0.22047007D-06  0.39928409D-04 -0.14963817D-05  0.14466055D-04  0.20398648D-04
  0.29175463D-04 -0.14774044D-06 -0.26756651D-04  0.53790420D-01 -0.32964576D-03
  0.20054676D-03 -0.35374113D-03  0.27360564D-05  0.20974309D-05 -0.14917766D-04
  0.16913303D-06  0.11004760D-07 -0.70231766D-05  0.57570240D-05  0.12661525D-05
 -0.99066403D-03  0.56256476D-03 -0.51960617D-05  0.38267318D-05 -0.26602657D-05
 -0.11664661D-05  0.47780523D-03 -0.32821119D-03  0.47305192D-05 -0.73541732D-06
 -0.12280911D-07  0.74769823D-06 -0.39002002D-04  0.52122418D-04 -0.92474960D-06
  0.21137013D-04 -0.51611653D-06 -0.67206929D-06  0.44254333D-04 -0.24155618D-06
  0.16602576D-05 -0.10766537D-03  0.17899058D-05  0.35595024D-06  0.17160285D-04
  0.17138467D-04  0.48823830D-06  0.40931355D-06 -0.85400231D-04 -0.15898934D-05
  0.40708589D-06  0.33984829D-04  0.12517854D-06 -0.16350265D-05  0.13697264D-03
 -0.50631941D-10 -0.94661513D-10 -0.16360323D-09 -0.26462148D-09 -0.39996651D-09
 -0.55083670D-09 -0.64386103D-09 -0.55646824D-09 -0.25970662D-09 -0.35184549D-10
  0.25734486D-12 -0.10590981D-11 -0.13614599D-10 -0.49664101D-10 -0.16756545D-09
 -0.36804891D-09 -0.47541880D-09  0.76403846D-10  0.64093745D-09  0.35173821D-09
  0.60349140D-13  0.68741423D-12  0.14273197D-11  0.39247668D-11 -0.50889108D-12
 -0.17746008D-10 -0.44261362D-10  0.36638915D-10  0.67791964D-10 -0.35518202D-09
 -0.13143482D-09 -0.20402404D-04 -0.26766794D-04 -0.29357380D-04 -0.24154368D-04
 -0.12732809D-04 -0.33128375D-05 -0.67108750D-02 -0.88042864D-02 -0.96563967D-02
 -0.79449923D-02 -0.41881482D-02 -0.10896774D-02 -0.19652996D-07 -0.25783613D-07
 -0.28279043D-07 -0.23267145D-07 -0.12265116D-07 -0.31911524D-08 -0.35400305D-09
 -0.12707163D-07 -0.20160233D-07 -0.23939658D-07 -0.36227012D-08  0.26365341D-07
 -0.11817390D-06 -0.42419268D-05 -0.67299232D-05 -0.79915774D-05 -0.12093363D-05