 Entering Gaussian System, Link 0=/home/bruns/programas/chemistry/gaussian/g09/g09
 Input=GAUSSIAN.com
 Output=GAUSSIAN.log
 Initial command:
 /home/bruns/programas/chemistry/gaussian/g09/l1.exe /home/bruns/programas/chemistry/gaussian/work/Gau-55963.inp -scrdir=/home/bruns/programas/chemistry/gaussian/work/
 Entering Link 1 = /home/bruns/programas/chemistry/gaussian/g09/l1.exe PID=     55965.
  
 Copyright (c) 1988,1990,1992,1993,1995,1998,2003,2009,2010,
            Gaussian, Inc.  All Rights Reserved.
  
 This is part of the Gaussian(R) 09 program.  It is based on
 the Gaussian(R) 03 system (copyright 2003, Gaussian, Inc.),
 the Gaussian(R) 98 system (copyright 1998, Gaussian, Inc.),
 the Gaussian(R) 94 system (copyright 1995, Gaussian, Inc.),
 the Gaussian 92(TM) system (copyright 1992, Gaussian, Inc.),
 the Gaussian 90(TM) system (copyright 1990, Gaussian, Inc.),
 the Gaussian 88(TM) system (copyright 1988, Gaussian, Inc.),
 the Gaussian 86(TM) system (copyright 1986, Carnegie Mellon
 University), and the Gaussian 82(TM) system (copyright 1983,
 Carnegie Mellon University). Gaussian is a federally registered
 trademark of Gaussian, Inc.
  
 This software contains proprietary and confidential information,
 including trade secrets, belonging to Gaussian, Inc.
  
 This software is provided under written license and may be
 used, copied, transmitted, or stored only in accord with that
 written license.
  
 The following legend is applicable only to US Government
 contracts under FAR:
  
                    RESTRICTED RIGHTS LEGEND
  
 Use, reproduction and disclosure by the US Government is
 subject to restrictions as set forth in subparagraphs (a)
 and (c) of the Commercial Computer Software - Restricted
 Rights clause in FAR 52.227-19.
  
 Gaussian, Inc.
 340 Quinnipiac St., Bldg. 40, Wallingford CT 06492
  
  
 ---------------------------------------------------------------
 Warning -- This program may not be used in any manner that
 competes with the business of Gaussian, Inc. or will provide
 assistance to any competitor of Gaussian, Inc.  The licensee
 of this program is prohibited from giving any competitor of
 Gaussian, Inc. access to this program.  By using this program,
 the user acknowledges that Gaussian, Inc. is engaged in the
 business of creating and licensing software in the field of
 computational chemistry and represents and warrants to the
 licensee that it is not a competitor of Gaussian, Inc. and that
 it will not use this program in any manner prohibited above.
 ---------------------------------------------------------------
  

 Cite this work as:
 Gaussian 09, Revision B.01,
 M. J. Frisch, G. W. Trucks, H. B. Schlegel, G. E. Scuseria, 
 M. A. Robb, J. R. Cheeseman, G. Scalmani, V. Barone, B. Mennucci, 
 G. A. Petersson, H. Nakatsuji, M. Caricato, X. Li, H. P. Hratchian, 
 A. F. Izmaylov, J. Bloino, G. Zheng, J. L. Sonnenberg, M. Hada, 
 M. Ehara, K. Toyota, R. Fukuda, J. Hasegawa, M. Ishida, T. Nakajima, 
 Y. Honda, O. Kitao, H. Nakai, T. Vreven, J. A. Montgomery, Jr., 
 J. E. Peralta, F. Ogliaro, M. Bearpark, J. J. Heyd, E. Brothers, 
 K. N. Kudin, V. N. Staroverov, T. Keith, R. Kobayashi, J. Normand, 
 K. Raghavachari, A. Rendell, J. C. Burant, S. S. Iyengar, J. Tomasi, 
 M. Cossi, N. Rega, J. M. Millam, M. Klene, J. E. Knox, J. B. Cross, 
 V. Bakken, C. Adamo, J. Jaramillo, R. Gomperts, R. E. Stratmann, 
 O. Yazyev, A. J. Austin, R. Cammi, C. Pomelli, J. W. Ochterski, 
 R. L. Martin, K. Morokuma, V. G. Zakrzewski, G. A. Voth, 
 P. Salvador, J. J. Dannenberg, S. Dapprich, A. D. Daniels, 
 O. Farkas, J. B. Foresman, J. V. Ortiz, J. Cioslowski, 
 and D. J. Fox, Gaussian, Inc., Wallingford CT, 2010.
 
 ******************************************
 Gaussian 09:  EM64L-G09RevB.01 12-Aug-2010
                27-Nov-2021 
 ******************************************
 %nproc=8
 Will use up to    8 processors via shared memory.
 %mem=8GB
 -----------------------------------------------------
 # qcisd/aug-cc-pvtz nosymm density=current output=wfn
 -----------------------------------------------------
 1/30=1,38=1/1;
 2/12=2,15=1,17=6,18=5,40=1/2;
 3/5=16,6=1,7=10,11=9,16=1,25=1,30=1,71=1/1,2,3;
 4//1;
 5/5=2,38=5/2;
 8/6=4,9=120000,10=1/1,4;
 9/5=8,15=1/13;
 11/28=-7,31=1,32=3,42=3/11;
 10/5=6,13=10,31=1/2;
 6/7=2,8=2,9=2,10=2,22=-1,31=1/1;
 99/5=1,6=1100,9=1/99;
 ------------------
 cl2cs-wavefunction
 ------------------
 Symbolic Z-matrix:
 Charge =  0 Multiplicity = 1
 C                    -0.01      0.       -0.52291 
 Cl                    0.       -1.43074  -1.5009 
 Cl                    0.        1.43074  -1.5009 
 S                     0.        0.        1.08181 
 
                          Input orientation:                          
 ---------------------------------------------------------------------
 Center     Atomic      Atomic             Coordinates (Angstroms)
 Number     Number       Type             X           Y           Z
 ---------------------------------------------------------------------
      1          6           0       -0.010000    0.000000   -0.522914
      2         17           0        0.000000   -1.430735   -1.500900
      3         17           0        0.000000    1.430735   -1.500900
      4         16           0        0.000000    0.000000    1.081815
 ---------------------------------------------------------------------
                    Distance matrix (angstroms):
                    1          2          3          4
     1  C    0.000000
     2  Cl   1.733078   0.000000
     3  Cl   1.733078   2.861470   0.000000
     4  S    1.604760   2.952528   2.952528   0.000000
 Symmetry turned off by external request.
 Stoichiometry    CCl2S
 Framework group  CS[SG(CS),X(Cl2)]
 Deg. of freedom     4
 Full point group                 CS      NOp   2
 Rotational constants (GHZ):      3.5300769      3.4458757      1.7437470
 Standard basis: Aug-CC-pVTZ (5D, 7F)
 Integral buffers will be    131072 words long.
 Raffenetti 1 integral format.
 Two-electron integral symmetry is turned off.
   196 basis functions,   414 primitive gaussians,   232 cartesian basis functions
    28 alpha electrons       28 beta electrons
       nuclear repulsion energy       244.8913709891 Hartrees.
 NAtoms=    4 NActive=    4 NUniq=    4 SFac= 1.00D+00 NAtFMM=   50 NAOKFM=F Big=F
 One-electron integrals computed using PRISM.
 NBasis=   196 RedAO= T  NBF=   196
 NBsUse=   196 1.00D-06 NBFU=   196
 Harris functional with IExCor=  205 diagonalized for initial guess.
 ExpMin= 3.51D-02 ExpMax= 4.56D+05 ExpMxC= 1.44D+03 IAcc=3 IRadAn=         0 AccDes= 0.00D+00
 HarFok:  IExCor=  205 AccDes= 0.00D+00 IRadAn=         0 IDoV= 1
 ScaDFX=  1.000000  1.000000  1.000000  1.000000
 FoFCou: FMM=F IPFlag=           0 FMFlag=      100000 FMFlg1=           0
         NFxFlg=           0 DoJE=T BraDBF=F KetDBF=T FulRan=T
         Omega=  0.000000  0.000000  1.000000  0.000000  0.000000 ICntrl=     500 IOpCl=  0
         NMat0=    1 NMatS0=    1 NMatT0=    0 NMatD0=    1 NMtDS0=    0 NMtDT0=    0
         I1Cent=           4 NGrid=           0.
 Symmetry not used in FoFCou.
 Requested convergence on RMS density matrix=1.00D-08 within 128 cycles.
 Requested convergence on MAX density matrix=1.00D-06.
 Requested convergence on             energy=1.00D-06.
 No special actions if energy rises.
 Keep R1 ints in memory in canonical form, NReq=371777346.
 SCF Done:  E(RHF) =  -1354.42600309     A.U. after   12 cycles
             Convg  =    0.9629D-08             -V/T =  2.0001
 ExpMin= 3.51D-02 ExpMax= 4.56D+05 ExpMxC= 1.44D+03 IAcc=3 IRadAn=         5 AccDes= 0.00D+00
 HarFok:  IExCor=  205 AccDes= 0.00D+00 IRadAn=         5 IDoV=-2
 ScaDFX=  1.000000  1.000000  1.000000  1.000000
 Range of M.O.s used for correlation:    17   196
 NBasis=   196 NAE=    28 NBE=    28 NFC=    16 NFV=     0
 NROrb=    180 NOA=    12 NOB=    12 NVA=   168 NVB=   168

 **** Warning!!: The largest alpha MO coefficient is  0.31150102D+02

 Semi-Direct transformation.
 ModeAB=           2 MOrb=            12 LenV=    1072679875
 LASXX=     33405819 LTotXX=    33405819 LenRXX=    33405819
 LTotAB=    33954012 MaxLAS=    58380480 LenRXY=    58380480
 NonZer=    66811638 LenScr=   100987392 LnRSAI=           0
 LnScr1=           0 LExtra=           0 Total=    192773691
 MaxDsk=          -1 SrtSym=           F ITran=            4
 JobTyp=0 Pass  1:  I=   1 to  12.
 (rs|ai) integrals will be sorted in core.
 Spin components of T(2) and E(2):
     alpha-alpha T2 =       0.3953034309D-01 E2=     -0.9366395382D-01
     alpha-beta  T2 =       0.2072516539D+00 E2=     -0.5370509304D+00
     beta-beta   T2 =       0.3953034309D-01 E2=     -0.9366395382D-01
 ANorm=    0.1134157106D+01
 E2 =    -0.7243788381D+00 EUMP2 =    -0.13551503819313D+04
 R2 and R3 integrals will be kept in memory, NReq=   736864364.
 Iterations=  50 Convergence= 0.100D-07
 Iteration Nr.   1
 **********************
 DD1Dir will call FoFMem   1 times, MxPair=       156
 NAB=    78 NAA=     0 NBB=     0.
 MP4(R+Q)=  0.24886962D-01
 E3=       -0.32599363D-01        EUMP3=      -0.13551829813D+04
 E4(DQ)=    0.31060310D-02        UMP4(DQ)=   -0.13551798753D+04
 E4(SDQ)=  -0.37176168D-02        UMP4(SDQ)=  -0.13551866989D+04
 DE(Corr)= -0.73209124     E(Corr)=     -1355.1580943    
 NORM(A)=   0.11380842D+01
 Iteration Nr.   2
 **********************
 DD1Dir will call FoFMem   1 times, MxPair=       156
 NAB=    78 NAA=     0 NBB=     0.
 DE(Corr)= -0.75642472     E(CORR)=     -1355.1824278     Delta=-2.43D-02
 NORM(A)=   0.11490839D+01
 Iteration Nr.   3
 **********************
 DD1Dir will call FoFMem   1 times, MxPair=       156
 NAB=    78 NAA=     0 NBB=     0.
 DE(Corr)= -0.75560785     E(CORR)=     -1355.1816109     Delta= 8.17D-04
 NORM(A)=   0.11518276D+01
 Iteration Nr.   4
 **********************
 DD1Dir will call FoFMem   1 times, MxPair=       156
 NAB=    78 NAA=     0 NBB=     0.
 DE(Corr)= -0.75787088     E(CORR)=     -1355.1838740     Delta=-2.26D-03
 NORM(A)=   0.11529049D+01
 Iteration Nr.   5
 **********************
 DD1Dir will call FoFMem   1 times, MxPair=       156
 NAB=    78 NAA=     0 NBB=     0.
 DE(Corr)= -0.75814905     E(CORR)=     -1355.1841521     Delta=-2.78D-04
 NORM(A)=   0.11534423D+01
 Iteration Nr.   6
 **********************
 DD1Dir will call FoFMem   1 times, MxPair=       156
 NAB=    78 NAA=     0 NBB=     0.
 DE(Corr)= -0.75820198     E(CORR)=     -1355.1842051     Delta=-5.29D-05
 NORM(A)=   0.11535054D+01
 Iteration Nr.   7
 **********************
 DD1Dir will call FoFMem   1 times, MxPair=       156
 NAB=    78 NAA=     0 NBB=     0.
 DE(Corr)= -0.75820924     E(CORR)=     -1355.1842123     Delta=-7.26D-06
 NORM(A)=   0.11535108D+01
 Iteration Nr.   8
 **********************
 DD1Dir will call FoFMem   1 times, MxPair=       156
 NAB=    78 NAA=     0 NBB=     0.
 DE(Corr)= -0.75820735     E(CORR)=     -1355.1842104     Delta= 1.90D-06
 NORM(A)=   0.11535173D+01
 Iteration Nr.   9
 **********************
 DD1Dir will call FoFMem   1 times, MxPair=       156
 NAB=    78 NAA=     0 NBB=     0.
 DE(Corr)= -0.75820741     E(CORR)=     -1355.1842105     Delta=-6.28D-08
 NORM(A)=   0.11535162D+01
 Iteration Nr.  10
 **********************
 DD1Dir will call FoFMem   1 times, MxPair=       156
 NAB=    78 NAA=     0 NBB=     0.
 DE(Corr)= -0.75820839     E(CORR)=     -1355.1842115     Delta=-9.83D-07
 NORM(A)=   0.11535180D+01
 Iteration Nr.  11
 **********************
 DD1Dir will call FoFMem   1 times, MxPair=       156
 NAB=    78 NAA=     0 NBB=     0.
 DE(Corr)= -0.75820908     E(CORR)=     -1355.1842122     Delta=-6.89D-07
 NORM(A)=   0.11535190D+01
 Iteration Nr.  12
 **********************
 DD1Dir will call FoFMem   1 times, MxPair=       156
 NAB=    78 NAA=     0 NBB=     0.
 DE(Corr)= -0.75820931     E(CORR)=     -1355.1842124     Delta=-2.25D-07
 NORM(A)=   0.11535197D+01
 Iteration Nr.  13
 **********************
 DD1Dir will call FoFMem   1 times, MxPair=       156
 NAB=    78 NAA=     0 NBB=     0.
 DE(Corr)= -0.75820959     E(CORR)=     -1355.1842127     Delta=-2.88D-07
 NORM(A)=   0.11535202D+01
 Iteration Nr.  14
 **********************
 DD1Dir will call FoFMem   1 times, MxPair=       156
 NAB=    78 NAA=     0 NBB=     0.
 DE(Corr)= -0.75820962     E(CORR)=     -1355.1842127     Delta=-2.85D-08
 NORM(A)=   0.11535204D+01
 Iteration Nr.  15
 **********************
 DD1Dir will call FoFMem   1 times, MxPair=       156
 NAB=    78 NAA=     0 NBB=     0.
 DE(Corr)= -0.75820968     E(CORR)=     -1355.1842128     Delta=-5.54D-08
 NORM(A)=   0.11535205D+01
 Iteration Nr.  16
 **********************
 DD1Dir will call FoFMem   1 times, MxPair=       156
 NAB=    78 NAA=     0 NBB=     0.
 DE(Corr)= -0.75820969     E(CORR)=     -1355.1842128     Delta=-1.24D-08
 NORM(A)=   0.11535205D+01
 Iteration Nr.  17
 **********************
 DD1Dir will call FoFMem   1 times, MxPair=       156
 NAB=    78 NAA=     0 NBB=     0.
 DE(Corr)= -0.75820969     E(CORR)=     -1355.1842128     Delta= 2.75D-10
 NORM(A)=   0.11535206D+01
 Iteration Nr.  18
 **********************
 DD1Dir will call FoFMem   1 times, MxPair=       156
 NAB=    78 NAA=     0 NBB=     0.
 DE(Corr)= -0.75820969     E(CORR)=     -1355.1842128     Delta= 2.30D-09
 NORM(A)=   0.11535206D+01
 Iteration Nr.  19
 **********************
 DD1Dir will call FoFMem   1 times, MxPair=       156
 NAB=    78 NAA=     0 NBB=     0.
 DE(Corr)= -0.75820970     E(CORR)=     -1355.1842128     Delta=-1.40D-08
 NORM(A)=   0.11535206D+01
 Iteration Nr.  20
 **********************
 DD1Dir will call FoFMem   1 times, MxPair=       156
 NAB=    78 NAA=     0 NBB=     0.
 DE(Corr)= -0.75820969     E(CORR)=     -1355.1842128     Delta= 7.28D-09
 NORM(A)=   0.11535206D+01
 Iteration Nr.  21
 **********************
 DD1Dir will call FoFMem   1 times, MxPair=       156
 NAB=    78 NAA=     0 NBB=     0.
 DE(Corr)= -0.75820969     E(CORR)=     -1355.1842128     Delta=-8.68D-10
 NORM(A)=   0.11535206D+01
 Largest amplitude= 8.91D-02

 Z-AMPLITUDE ITERATIONS

 Iteration Nr.   1
 **********************
 DD1Dir will call FoFMem   1 times, MxPair=       156
 NAB=    78 NAA=     0 NBB=     0.
 DE(Z)  -0.72636398D+00          E(Z)=    -0.13551523671D+04
 NORM(A)=   0.11536315D+01
 Iteration Nr.   2
 **********************
 DD1Dir will call FoFMem   1 times, MxPair=       156
 NAB=    78 NAA=     0 NBB=     0.
 DE(Z)  -0.72636693D+00          E(Z)=    -0.13551523700D+04
 NORM(A)=   0.11538591D+01
 Iteration Nr.   3
 **********************
 DD1Dir will call FoFMem   1 times, MxPair=       156
 NAB=    78 NAA=     0 NBB=     0.
 DE(Z)  -0.72637301D+00          E(Z)=    -0.13551523761D+04
 NORM(A)=   0.11538607D+01
 Iteration Nr.   4
 **********************
 DD1Dir will call FoFMem   1 times, MxPair=       156
 NAB=    78 NAA=     0 NBB=     0.
 DE(Z)  -0.72637340D+00          E(Z)=    -0.13551523765D+04
 NORM(A)=   0.11554541D+01
 Iteration Nr.   5
 **********************
 DD1Dir will call FoFMem   1 times, MxPair=       156
 NAB=    78 NAA=     0 NBB=     0.
 DE(Z)  -0.72641919D+00          E(Z)=    -0.13551524223D+04
 NORM(A)=   0.11402806D+01
 Iteration Nr.   6
 **********************
 DD1Dir will call FoFMem   1 times, MxPair=       156
 NAB=    78 NAA=     0 NBB=     0.
 DE(Z)  -0.72597874D+00          E(Z)=    -0.13551519818D+04
 NORM(A)=   0.11402826D+01
 Iteration Nr.   7
 **********************
 DD1Dir will call FoFMem   1 times, MxPair=       156
 NAB=    78 NAA=     0 NBB=     0.
 DE(Z)  -0.72597704D+00          E(Z)=    -0.13551519801D+04
 NORM(A)=   0.11402809D+01
 Iteration Nr.   8
 **********************
 DD1Dir will call FoFMem   1 times, MxPair=       156
 NAB=    78 NAA=     0 NBB=     0.
 DE(Z)  -0.72597753D+00          E(Z)=    -0.13551519806D+04
 NORM(A)=   0.11402809D+01
 Iteration Nr.   9
 **********************
 DD1Dir will call FoFMem   1 times, MxPair=       156
 NAB=    78 NAA=     0 NBB=     0.
 DE(Z)  -0.72597752D+00          E(Z)=    -0.13551519806D+04
 NORM(A)=   0.11402811D+01
 Iteration Nr.  10
 **********************
 DD1Dir will call FoFMem   1 times, MxPair=       156
 NAB=    78 NAA=     0 NBB=     0.
 DE(Z)  -0.72597733D+00          E(Z)=    -0.13551519804D+04
 NORM(A)=   0.11402813D+01
 Iteration Nr.  11
 **********************
 DD1Dir will call FoFMem   1 times, MxPair=       156
 NAB=    78 NAA=     0 NBB=     0.
 DE(Z)  -0.72597746D+00          E(Z)=    -0.13551519806D+04
 NORM(A)=   0.11402815D+01
 Iteration Nr.  12
 **********************
 DD1Dir will call FoFMem   1 times, MxPair=       156
 NAB=    78 NAA=     0 NBB=     0.
 DE(Z)  -0.72597741D+00          E(Z)=    -0.13551519805D+04
 NORM(A)=   0.11402815D+01
 Iteration Nr.  13
 **********************
 DD1Dir will call FoFMem   1 times, MxPair=       156
 NAB=    78 NAA=     0 NBB=     0.
 DE(Z)  -0.72597745D+00          E(Z)=    -0.13551519805D+04
 NORM(A)=   0.11402816D+01
 Iteration Nr.  14
 **********************
 DD1Dir will call FoFMem   1 times, MxPair=       156
 NAB=    78 NAA=     0 NBB=     0.
 DE(Z)  -0.72597745D+00          E(Z)=    -0.13551519805D+04
 NORM(A)=   0.11402816D+01
 Iteration Nr.  15
 **********************
 DD1Dir will call FoFMem   1 times, MxPair=       156
 NAB=    78 NAA=     0 NBB=     0.
 DE(Z)  -0.72597745D+00          E(Z)=    -0.13551519805D+04
 NORM(A)=   0.11402816D+01
 Iteration Nr.  16
 **********************
 DD1Dir will call FoFMem   1 times, MxPair=       156
 NAB=    78 NAA=     0 NBB=     0.
 DE(Z)  -0.72597745D+00          E(Z)=    -0.13551519805D+04
 NORM(A)=   0.11402816D+01
 Iteration Nr.  17
 **********************
 DD1Dir will call FoFMem   1 times, MxPair=       156
 NAB=    78 NAA=     0 NBB=     0.
 DE(Z)  -0.72597744D+00          E(Z)=    -0.13551519805D+04
 NORM(A)=   0.11402816D+01
 Iteration Nr.  18
 **********************
 DD1Dir will call FoFMem   1 times, MxPair=       156
 NAB=    78 NAA=     0 NBB=     0.
 DE(Z)  -0.72597745D+00          E(Z)=    -0.13551519805D+04
 NORM(A)=   0.11402816D+01
 Discarding MO integrals.
          Differentiating once with respect to electric field.
                with respect to dipole field.
          Electric field/nuclear overlap derivatives assumed to be zero.
          Keep R1 ints in memory in canonical form, NReq=367211061.
          There are     1 degrees of freedom in the 1st order CPHF.  IDoFFX=0.
 LinEq1:  Iter=  0 NonCon=     1 RMS=2.08D-03 Max=6.34D-02
 AX will form     1 AO Fock derivatives at one time.
 LinEq1:  Iter=  1 NonCon=     1 RMS=9.28D-04 Max=1.77D-02
 LinEq1:  Iter=  2 NonCon=     1 RMS=4.11D-04 Max=1.02D-02
 LinEq1:  Iter=  3 NonCon=     1 RMS=1.04D-04 Max=1.79D-03
 LinEq1:  Iter=  4 NonCon=     1 RMS=2.44D-05 Max=8.02D-04
 LinEq1:  Iter=  5 NonCon=     1 RMS=7.99D-06 Max=1.97D-04
 LinEq1:  Iter=  6 NonCon=     1 RMS=2.41D-06 Max=8.99D-05
 LinEq1:  Iter=  7 NonCon=     1 RMS=7.34D-07 Max=1.30D-05
 LinEq1:  Iter=  8 NonCon=     1 RMS=1.36D-07 Max=2.09D-06
 LinEq1:  Iter=  9 NonCon=     1 RMS=2.58D-08 Max=3.74D-07
 LinEq1:  Iter= 10 NonCon=     1 RMS=6.89D-09 Max=1.78D-07
 LinEq1:  Iter= 11 NonCon=     1 RMS=1.44D-09 Max=2.38D-08
 LinEq1:  Iter= 12 NonCon=     1 RMS=3.49D-10 Max=5.60D-09
 LinEq1:  Iter= 13 NonCon=     1 RMS=8.75D-11 Max=1.02D-09
 LinEq1:  Iter= 14 NonCon=     0 RMS=1.98D-11 Max=2.46D-10
 Linear equations converged to 1.000D-10 1.000D-09 after    14 iterations.
 End of Minotr Frequency-dependent properties file   721 does not exist.
 End of Minotr Frequency-dependent properties file   722 does not exist.

 **********************************************************************

            Population analysis using the QCI/CC density.

 **********************************************************************

     Natural Orbital Coefficients:
                           1         2         3         4         5
     Eigenvalues --     2.00004   2.00004   2.00003   2.00003   2.00003
   1 1   C  1S          0.00000  -0.00168   0.00000  -0.00018   0.00000
   2        2S          0.00000   0.00038   0.00000   0.00000   0.00000
   3        3S          0.00000   0.00003   0.00000  -0.00001   0.00000
   4        4S          0.00000  -0.00290   0.00000  -0.00006   0.00000
   5        5S          0.00000  -0.00094   0.00000  -0.00012   0.00000
   6        6PX         0.00000   0.00000   0.00000   0.00159   0.00000
   7        6PY         0.00034   0.00000   0.00001   0.00000  -0.00105
   8        6PZ         0.00000   0.00037   0.00000  -0.00002   0.00000
   9        7PX         0.00000   0.00000   0.00000   0.00170   0.00000
  10        7PY         0.00046   0.00000  -0.00001   0.00000  -0.00225
  11        7PZ         0.00000   0.00134   0.00000  -0.00001   0.00000
  12        8PX         0.00000   0.00004   0.00000  -0.00093   0.00000
  13        8PY         0.00304   0.00000   0.00030   0.00000   0.00662
  14        8PZ         0.00000  -0.00499   0.00000  -0.00023   0.00000
  15        9PX         0.00000   0.00001   0.00000  -0.00100   0.00000
  16        9PY        -0.00048   0.00000   0.00006   0.00000   0.00157
  17        9PZ         0.00000  -0.00208   0.00000  -0.00005   0.00000
  18       10D 0        0.00000  -0.00034   0.00000   0.00000   0.00000
  19       10D+1        0.00000   0.00000   0.00000  -0.00028   0.00000
  20       10D-1        0.00008   0.00000   0.00000   0.00000  -0.00036
  21       10D+2        0.00000  -0.00023   0.00000   0.00000   0.00000
  22       10D-2        0.00000   0.00000   0.00035   0.00000   0.00000
  23       11D 0        0.00000   0.00022   0.00000   0.00001   0.00000
  24       11D+1        0.00000   0.00002   0.00000   0.00010   0.00000
  25       11D-1        0.00073   0.00000   0.00004   0.00000   0.00113
  26       11D+2        0.00000   0.00046   0.00000   0.00000   0.00000
  27       11D-2        0.00000   0.00000  -0.00027   0.00000   0.00000
  28       12D 0        0.00000  -0.00573   0.00000   0.00019   0.00000
  29       12D+1        0.00000   0.00006   0.00000  -0.00272   0.00000
  30       12D-1        0.00370   0.00000   0.00032   0.00000  -0.00335
  31       12D+2        0.00000  -0.00312   0.00000   0.00011   0.00000
  32       12D-2        0.00004   0.00000   0.00231   0.00000   0.00002
  33       13F 0        0.00000   0.00013   0.00000   0.00000   0.00000
  34       13F+1        0.00000   0.00000   0.00000   0.00004   0.00000
  35       13F-1       -0.00039   0.00000   0.00000   0.00000  -0.00029
  36       13F+2        0.00000  -0.00003   0.00000   0.00000   0.00000
  37       13F-2        0.00000   0.00000  -0.00015   0.00000   0.00000
  38       13F+3        0.00000   0.00000   0.00000  -0.00009   0.00000
  39       13F-3       -0.00009   0.00000   0.00000   0.00000   0.00010
  40       14F 0        0.00000  -0.00098   0.00000   0.00001   0.00000
  41       14F+1        0.00000   0.00003   0.00000   0.00005   0.00000
  42       14F-1        0.00495   0.00000   0.00004   0.00000   0.00168
  43       14F+2        0.00000  -0.00009   0.00000   0.00003   0.00000
  44       14F-2        0.00000   0.00000   0.00118   0.00000   0.00001
  45       14F+3        0.00000   0.00001   0.00000   0.00058   0.00000
  46       14F-3        0.00116   0.00000  -0.00001   0.00000  -0.00012
  47 2   Cl 1S         -0.00226  -0.00130   0.00019  -0.00065   0.02442
  48        2S          0.00802   0.00486  -0.00065   0.00217  -0.08301
  49        3S          0.00034   0.00043   0.00002  -0.00008   0.00228
  50        4S          0.00055   0.00020  -0.00004   0.00017  -0.00615
  51        5S         -0.00116  -0.00194  -0.00007  -0.00002   0.00397
  52        6S         -0.00126  -0.00201   0.00004  -0.00001   0.00410
  53        7PX         0.00021  -0.00092   0.69243  -0.68712  -0.00290
  54        7PY        -0.40911   0.35275   0.00581  -0.00698   0.13849
  55        7PZ         0.55612  -0.59489   0.00386  -0.00294   0.03119
  56        8PX        -0.00001   0.00001  -0.01496   0.01335   0.00006
  57        8PY         0.01049  -0.00758  -0.00013   0.00014  -0.00292
  58        8PZ        -0.01372   0.01381  -0.00011   0.00004  -0.00144
  59        9PX         0.00001  -0.00005   0.03672  -0.03691  -0.00016
  60        9PY        -0.02131   0.01845   0.00031  -0.00038   0.00765
  61        9PZ         0.02908  -0.03117   0.00021  -0.00016   0.00179
  62       10PX         0.00003   0.00004  -0.00318   0.00276  -0.00001
  63       10PY         0.00309  -0.00129  -0.00004  -0.00008   0.00065
  64       10PZ        -0.00455   0.00122   0.00008   0.00013   0.00013
  65       11PX         0.00001   0.00001  -0.00055   0.00078   0.00000
  66       11PY         0.00036  -0.00040  -0.00001   0.00000   0.00030
  67       11PZ        -0.00072   0.00049   0.00000   0.00001   0.00021
  68       12D 0        0.00045  -0.00027   0.00000   0.00000   0.00008
  69       12D+1        0.00000   0.00000   0.00018  -0.00018   0.00000
  70       12D-1        0.00024  -0.00014   0.00000   0.00000   0.00011
  71       12D+2        0.00027  -0.00015   0.00000   0.00000  -0.00007
  72       12D-2        0.00000   0.00000   0.00032  -0.00020   0.00000
  73       13D 0       -0.00204   0.00102  -0.00001   0.00001   0.00009
  74       13D+1        0.00002  -0.00001  -0.00074   0.00057   0.00000
  75       13D-1       -0.00079   0.00094  -0.00002   0.00001  -0.00048
  76       13D+2       -0.00099   0.00070   0.00002  -0.00002   0.00016
  77       13D-2       -0.00002   0.00000  -0.00108   0.00100   0.00000
  78       14D 0        0.00008  -0.00090   0.00004   0.00005   0.00001
  79       14D+1        0.00001   0.00002   0.00061   0.00006   0.00000
  80       14D-1        0.00004  -0.00031   0.00003   0.00001   0.00008
  81       14D+2       -0.00001  -0.00058  -0.00001   0.00004   0.00016
  82       14D-2        0.00001   0.00001   0.00046  -0.00048  -0.00001
  83       15F 0       -0.00001   0.00000   0.00000   0.00000   0.00004
  84       15F+1        0.00000   0.00000  -0.00007  -0.00005   0.00000
  85       15F-1        0.00001   0.00002   0.00000   0.00000   0.00003
  86       15F+2        0.00002   0.00002   0.00000   0.00000  -0.00003
  87       15F-2        0.00000   0.00000  -0.00001  -0.00003   0.00000
  88       15F+3        0.00000   0.00000  -0.00001  -0.00003   0.00000
  89       15F-3        0.00003   0.00004   0.00000   0.00000  -0.00005
  90       16F 0       -0.00038  -0.00011   0.00001   0.00001   0.00019
  91       16F+1        0.00002   0.00000   0.00013   0.00018   0.00000
  92       16F-1       -0.00093   0.00047   0.00000   0.00001  -0.00017
  93       16F+2       -0.00008  -0.00029   0.00001  -0.00001   0.00030
  94       16F-2        0.00001   0.00000  -0.00033   0.00033   0.00000
  95       16F+3        0.00001   0.00000   0.00030  -0.00022   0.00000
  96       16F-3       -0.00028   0.00019   0.00001   0.00000   0.00021
  97 3   Cl 1S          0.00226  -0.00130  -0.00019  -0.00065  -0.02442
  98        2S         -0.00802   0.00486   0.00065   0.00217   0.08301
  99        3S         -0.00034   0.00043  -0.00002  -0.00008  -0.00228
 100        4S         -0.00055   0.00020   0.00004   0.00017   0.00615
 101        5S          0.00116  -0.00194   0.00007  -0.00002  -0.00397
 102        6S          0.00126  -0.00201  -0.00004  -0.00001  -0.00410
 103        7PX        -0.00021  -0.00092  -0.69243  -0.68712   0.00290
 104        7PY        -0.40911  -0.35275   0.00581   0.00698   0.13849
 105        7PZ        -0.55612  -0.59489  -0.00386  -0.00294  -0.03119
 106        8PX         0.00001   0.00001   0.01496   0.01335  -0.00006
 107        8PY         0.01049   0.00758  -0.00013  -0.00014  -0.00292
 108        8PZ         0.01372   0.01381   0.00011   0.00004   0.00144
 109        9PX        -0.00001  -0.00005  -0.03672  -0.03691   0.00016
 110        9PY        -0.02131  -0.01845   0.00031   0.00038   0.00765
 111        9PZ        -0.02908  -0.03117  -0.00021  -0.00016  -0.00179
 112       10PX        -0.00003   0.00004   0.00318   0.00276   0.00001
 113       10PY         0.00309   0.00129  -0.00004   0.00008   0.00065
 114       10PZ         0.00455   0.00122  -0.00008   0.00013  -0.00013
 115       11PX        -0.00001   0.00001   0.00055   0.00078   0.00000
 116       11PY         0.00036   0.00040  -0.00001   0.00000   0.00030
 117       11PZ         0.00072   0.00049   0.00000   0.00001  -0.00021
 118       12D 0       -0.00045  -0.00027   0.00000   0.00000  -0.00008
 119       12D+1        0.00000   0.00000  -0.00018  -0.00018   0.00000
 120       12D-1        0.00024   0.00014   0.00000   0.00000   0.00011
 121       12D+2       -0.00027  -0.00015   0.00000   0.00000   0.00007
 122       12D-2        0.00000   0.00000   0.00032   0.00020   0.00000
 123       13D 0        0.00204   0.00102   0.00001   0.00001  -0.00009
 124       13D+1       -0.00002  -0.00001   0.00074   0.00057   0.00000
 125       13D-1       -0.00079  -0.00094  -0.00002  -0.00001  -0.00048
 126       13D+2        0.00099   0.00070  -0.00002  -0.00002  -0.00016
 127       13D-2       -0.00002   0.00000  -0.00108  -0.00100   0.00000
 128       14D 0       -0.00008  -0.00090  -0.00004   0.00005  -0.00001
 129       14D+1       -0.00001   0.00002  -0.00061   0.00006   0.00000
 130       14D-1        0.00004   0.00031   0.00003  -0.00001   0.00008
 131       14D+2        0.00001  -0.00058   0.00001   0.00004  -0.00016
 132       14D-2        0.00001  -0.00001   0.00046   0.00048  -0.00001
 133       15F 0        0.00001   0.00000   0.00000   0.00000  -0.00004
 134       15F+1        0.00000   0.00000   0.00007  -0.00005   0.00000
 135       15F-1        0.00001  -0.00002   0.00000   0.00000   0.00003
 136       15F+2       -0.00002   0.00002   0.00000   0.00000   0.00003
 137       15F-2        0.00000   0.00000  -0.00001   0.00003   0.00000
 138       15F+3        0.00000   0.00000   0.00001  -0.00003   0.00000
 139       15F-3        0.00003  -0.00004   0.00000   0.00000  -0.00005
 140       16F 0        0.00038  -0.00011  -0.00001   0.00001  -0.00019
 141       16F+1       -0.00002   0.00000  -0.00013   0.00018   0.00000
 142       16F-1       -0.00093  -0.00047   0.00000  -0.00001  -0.00017
 143       16F+2        0.00008  -0.00029  -0.00001  -0.00001  -0.00030
 144       16F-2        0.00001   0.00000  -0.00033  -0.00033   0.00000
 145       16F+3       -0.00001   0.00000  -0.00030  -0.00022   0.00000
 146       16F-3       -0.00028  -0.00019   0.00001   0.00000   0.00021
 147 4   S  1S          0.00000   0.00088   0.00000   0.00011   0.00000
 148        2S          0.00000  -0.00304   0.00000  -0.00038   0.00000
 149        3S          0.00000   0.00038   0.00000  -0.00001   0.00000
 150        4S          0.00000  -0.00004   0.00000  -0.00003   0.00000
 151        5S          0.00000   0.00750   0.00000   0.00004   0.00000
 152        6S          0.00000   0.00346   0.00000   0.00016   0.00000
 153        7PX         0.00000  -0.00014   0.00000   0.11528   0.00000
 154        7PY         0.08387   0.00000   0.00216   0.00000   0.94872
 155        7PZ         0.00000  -0.05734   0.00000  -0.00270   0.00000
 156        8PX         0.00000  -0.00003   0.00000  -0.00355   0.00000
 157        8PY        -0.00485   0.00000  -0.00008   0.00000  -0.01857
 158        8PZ         0.00000   0.00097   0.00000   0.00005   0.00000
 159        9PX         0.00000  -0.00001   0.00000   0.00666   0.00000
 160        9PY         0.00494   0.00000   0.00013   0.00000   0.05481
 161        9PZ         0.00000  -0.00329   0.00000  -0.00015   0.00000
 162       10PX         0.00000  -0.00012   0.00000   0.00145   0.00000
 163       10PY        -0.00579   0.00000  -0.00035   0.00000  -0.00508
 164       10PZ         0.00000  -0.00130   0.00000  -0.00010   0.00000
 165       11PX         0.00000  -0.00001   0.00000   0.00024   0.00000
 166       11PY        -0.00031   0.00000  -0.00003   0.00000  -0.00114
 167       11PZ         0.00000   0.00000   0.00000  -0.00002   0.00000
 168       12D 0        0.00000  -0.00040   0.00000   0.00000   0.00000
 169       12D+1        0.00000   0.00003   0.00000  -0.00001   0.00000
 170       12D-1        0.00241   0.00000   0.00007   0.00000   0.00270
 171       12D+2        0.00000  -0.00009   0.00000  -0.00002   0.00000
 172       12D-2        0.00003   0.00000  -0.00033   0.00000   0.00002
 173       13D 0        0.00000   0.00000   0.00000   0.00000   0.00000
 174       13D+1        0.00000   0.00000   0.00000  -0.00006   0.00000
 175       13D-1       -0.00005   0.00000  -0.00001   0.00000  -0.00034
 176       13D+2        0.00000  -0.00009   0.00000   0.00000   0.00000
 177       13D-2        0.00000   0.00000   0.00010   0.00000   0.00000
 178       14D 0        0.00000  -0.00005   0.00000   0.00003   0.00000
 179       14D+1        0.00000   0.00004   0.00000  -0.00141   0.00000
 180       14D-1        0.00148   0.00000   0.00012   0.00000  -0.00029
 181       14D+2        0.00000   0.00038   0.00000  -0.00003   0.00000
 182       14D-2        0.00001   0.00000  -0.00061   0.00000  -0.00001
 183       15F 0        0.00000   0.00008   0.00000   0.00000   0.00000
 184       15F+1        0.00000   0.00000   0.00000  -0.00008   0.00000
 185       15F-1       -0.00022   0.00000   0.00000   0.00000  -0.00018
 186       15F+2        0.00000   0.00012   0.00000   0.00000   0.00000
 187       15F-2       -0.00001   0.00000  -0.00006   0.00000   0.00000
 188       15F+3        0.00000   0.00000   0.00000   0.00001   0.00000
 189       15F-3       -0.00003   0.00000   0.00000   0.00000   0.00009
 190       16F 0        0.00000   0.00020   0.00000   0.00001   0.00000
 191       16F+1        0.00000  -0.00001   0.00000   0.00024   0.00000
 192       16F-1       -0.00071   0.00000  -0.00003   0.00000  -0.00089
 193       16F+2        0.00000  -0.00006   0.00000   0.00002   0.00000
 194       16F-2       -0.00002   0.00000   0.00052   0.00000  -0.00001
 195       16F+3        0.00000  -0.00001   0.00000  -0.00017   0.00000
 196       16F-3       -0.00017   0.00000   0.00000   0.00000  -0.00018
                           6         7         8         9        10
     Eigenvalues --     2.00003   2.00003   2.00002   2.00001   2.00001
   1 1   C  1S         -0.16316   0.00000  -0.15444   0.60539   0.00000
   2        2S          0.00336   0.00000   0.00299  -0.01067   0.00000
   3        3S         -0.00599   0.00000  -0.00605   0.02403   0.00000
   4        4S         -0.00877   0.00000  -0.00736   0.00624   0.00000
   5        5S         -0.00147   0.00000   0.00014   0.00363   0.00000
   6        6PX         0.00000   0.00000   0.00001  -0.00003   0.00000
   7        6PY         0.00000  -0.00089   0.00000   0.00000   0.00270
   8        6PZ        -0.00010   0.00000   0.00114  -0.00213   0.00000
   9        7PX        -0.00002   0.00000   0.00001  -0.00001   0.00000
  10        7PY         0.00000  -0.00028   0.00000   0.00000  -0.00025
  11        7PZ        -0.00081   0.00000  -0.00061   0.00102   0.00000
  12        8PX        -0.00003   0.00000  -0.00004   0.00003   0.00000
  13        8PY         0.00000   0.00292   0.00000   0.00000  -0.00193
  14        8PZ         0.00136   0.00000  -0.00722   0.00487   0.00000
  15        9PX         0.00003   0.00000   0.00000  -0.00001   0.00000
  16        9PY         0.00000  -0.00061   0.00000   0.00000   0.00067
  17        9PZ        -0.00056   0.00000   0.00016   0.00098   0.00000
  18       10D 0       -0.00003   0.00000  -0.00010   0.00009   0.00000
  19       10D+1        0.00000   0.00000   0.00000   0.00000   0.00000
  20       10D-1        0.00000  -0.00011   0.00000   0.00000   0.00000
  21       10D+2        0.00006   0.00000   0.00002  -0.00015   0.00000
  22       10D-2        0.00000   0.00000   0.00000   0.00000   0.00000
  23       11D 0       -0.00048   0.00000  -0.00091   0.00036   0.00000
  24       11D+1        0.00000   0.00000  -0.00001   0.00002   0.00000
  25       11D-1        0.00000  -0.00119   0.00000   0.00000   0.00255
  26       11D+2        0.00082   0.00000  -0.00031   0.00075   0.00000
  27       11D-2        0.00000   0.00001   0.00000   0.00000  -0.00002
  28       12D 0        0.00051   0.00000  -0.00177   0.00226   0.00000
  29       12D+1        0.00003   0.00000  -0.00005   0.00000   0.00000
  30       12D-1        0.00000  -0.00444   0.00000   0.00000   0.00480
  31       12D+2        0.00135   0.00000  -0.00077   0.00025   0.00000
  32       12D-2        0.00000   0.00002   0.00000   0.00000  -0.00004
  33       13F 0       -0.00013   0.00000   0.00000  -0.00004   0.00000
  34       13F+1        0.00000   0.00000   0.00000   0.00000   0.00000
  35       13F-1        0.00000  -0.00003   0.00000   0.00000  -0.00001
  36       13F+2       -0.00004   0.00000  -0.00006   0.00001   0.00000
  37       13F-2        0.00000   0.00000   0.00000   0.00000   0.00000
  38       13F+3        0.00000   0.00000   0.00000   0.00000   0.00000
  39       13F-3        0.00000   0.00003   0.00000   0.00000  -0.00009
  40       14F 0        0.00014   0.00000   0.00044  -0.00152   0.00000
  41       14F+1       -0.00001   0.00000   0.00000   0.00001   0.00000
  42       14F-1        0.00000   0.00000   0.00000   0.00000   0.00137
  43       14F+2       -0.00016   0.00000   0.00056  -0.00105   0.00000
  44       14F-2        0.00000   0.00000   0.00000   0.00000   0.00000
  45       14F+3        0.00000   0.00000   0.00001  -0.00001   0.00000
  46       14F-3        0.00000  -0.00036   0.00000   0.00000   0.00084
  47 2   Cl 1S         -0.17600  -0.17574   0.01805  -0.04317  -0.10519
  48        2S          0.59373   0.59308  -0.06119   0.14783   0.35744
  49        3S         -0.01765  -0.01744   0.00161  -0.00189  -0.00579
  50        4S          0.04615   0.04609  -0.00469   0.01174   0.02983
  51        5S         -0.00148   0.00010  -0.00140   0.00034  -0.00796
  52        6S         -0.00054  -0.00075  -0.00008  -0.00012   0.00170
  53        7PX         0.00535   0.00364  -0.00206   0.00026  -0.00542
  54        7PY        -0.29310  -0.26181   0.06054   0.09861   0.47106
  55        7PZ        -0.17187  -0.21518   0.00401   0.08041   0.34906
  56        8PX        -0.00009  -0.00007   0.00004  -0.00001   0.00009
  57        8PY         0.00532   0.00493  -0.00155  -0.00076  -0.00806
  58        8PZ         0.00307   0.00411  -0.00043  -0.00052  -0.00634
  59        9PX         0.00030   0.00020  -0.00012   0.00002  -0.00033
  60        9PY        -0.01670  -0.01493   0.00342   0.00594   0.02890
  61        9PZ        -0.00981  -0.01224   0.00024   0.00484   0.02154
  62       10PX        -0.00002  -0.00003   0.00001  -0.00001   0.00000
  63       10PY         0.00184   0.00183  -0.00058  -0.00006  -0.00044
  64       10PZ         0.00147   0.00086  -0.00052   0.00089  -0.00041
  65       11PX        -0.00001   0.00000   0.00000   0.00001   0.00000
  66       11PY        -0.00005   0.00012  -0.00003  -0.00003   0.00011
  67       11PZ         0.00009  -0.00009  -0.00013  -0.00009   0.00023
  68       12D 0       -0.00004  -0.00002   0.00002  -0.00001   0.00000
  69       12D+1        0.00000   0.00000   0.00000   0.00000   0.00000
  70       12D-1        0.00018   0.00018   0.00002   0.00008   0.00041
  71       12D+2       -0.00008  -0.00007   0.00002  -0.00013  -0.00032
  72       12D-2        0.00000   0.00000   0.00000   0.00000  -0.00001
  73       13D 0       -0.00007   0.00023   0.00015  -0.00013  -0.00055
  74       13D+1        0.00000  -0.00001   0.00001  -0.00001   0.00002
  75       13D-1        0.00039   0.00046  -0.00011   0.00010  -0.00220
  76       13D+2       -0.00047  -0.00032   0.00015   0.00022   0.00119
  77       13D-2       -0.00001  -0.00001   0.00001  -0.00001   0.00002
  78       14D 0        0.00000  -0.00024   0.00018  -0.00003   0.00005
  79       14D+1       -0.00001   0.00000   0.00001  -0.00001  -0.00001
  80       14D-1        0.00029   0.00018   0.00003   0.00025   0.00016
  81       14D+2       -0.00020   0.00021  -0.00005   0.00010  -0.00081
  82       14D-2        0.00000  -0.00001  -0.00001   0.00000   0.00000
  83       15F 0        0.00001   0.00004   0.00001   0.00000  -0.00004
  84       15F+1        0.00000   0.00000   0.00000   0.00000   0.00000
  85       15F-1        0.00000   0.00003   0.00000   0.00000  -0.00009
  86       15F+2       -0.00001  -0.00001   0.00000   0.00000   0.00004
  87       15F-2        0.00000   0.00000   0.00000   0.00000   0.00000
  88       15F+3        0.00000   0.00000   0.00000   0.00000   0.00000
  89       15F-3       -0.00003  -0.00003   0.00002   0.00000   0.00003
  90       16F 0       -0.00007  -0.00011   0.00010  -0.00026   0.00030
  91       16F+1        0.00000   0.00000   0.00000   0.00000   0.00000
  92       16F-1        0.00002   0.00007   0.00003   0.00001  -0.00042
  93       16F+2       -0.00013  -0.00013   0.00006  -0.00007   0.00052
  94       16F-2        0.00000   0.00000   0.00001  -0.00001   0.00001
  95       16F+3        0.00000   0.00000   0.00000   0.00000  -0.00001
  96       16F-3       -0.00010   0.00001  -0.00004   0.00015   0.00011
  97 3   Cl 1S         -0.17600   0.17574   0.01805  -0.04317   0.10519
  98        2S          0.59373  -0.59308  -0.06119   0.14783  -0.35744
  99        3S         -0.01765   0.01744   0.00161  -0.00189   0.00579
 100        4S          0.04615  -0.04609  -0.00469   0.01174  -0.02983
 101        5S         -0.00148  -0.00010  -0.00140   0.00034   0.00796
 102        6S         -0.00054   0.00075  -0.00008  -0.00012  -0.00170
 103        7PX         0.00535  -0.00364  -0.00206   0.00026   0.00542
 104        7PY         0.29310  -0.26181  -0.06054  -0.09861   0.47106
 105        7PZ        -0.17187   0.21518   0.00401   0.08041  -0.34906
 106        8PX        -0.00009   0.00007   0.00004  -0.00001  -0.00009
 107        8PY        -0.00532   0.00493   0.00155   0.00076  -0.00806
 108        8PZ         0.00307  -0.00411  -0.00043  -0.00052   0.00634
 109        9PX         0.00030  -0.00020  -0.00012   0.00002   0.00033
 110        9PY         0.01670  -0.01493  -0.00342  -0.00594   0.02890
 111        9PZ        -0.00981   0.01224   0.00024   0.00484  -0.02154
 112       10PX        -0.00002   0.00003   0.00001  -0.00001   0.00000
 113       10PY        -0.00184   0.00183   0.00058   0.00006  -0.00044
 114       10PZ         0.00147  -0.00086  -0.00052   0.00089   0.00041
 115       11PX        -0.00001   0.00000   0.00000   0.00001   0.00000
 116       11PY         0.00005   0.00012   0.00003   0.00003   0.00011
 117       11PZ         0.00009   0.00009  -0.00013  -0.00009  -0.00023
 118       12D 0       -0.00004   0.00002   0.00002  -0.00001   0.00000
 119       12D+1        0.00000   0.00000   0.00000   0.00000   0.00000
 120       12D-1       -0.00018   0.00018  -0.00002  -0.00008   0.00041
 121       12D+2       -0.00008   0.00007   0.00002  -0.00013   0.00032
 122       12D-2        0.00000   0.00000   0.00000   0.00000  -0.00001
 123       13D 0       -0.00007  -0.00023   0.00015  -0.00013   0.00055
 124       13D+1        0.00000   0.00001   0.00001  -0.00001  -0.00002
 125       13D-1       -0.00039   0.00046   0.00011  -0.00010  -0.00220
 126       13D+2       -0.00047   0.00032   0.00015   0.00022  -0.00119
 127       13D-2        0.00001  -0.00001  -0.00001   0.00001   0.00002
 128       14D 0        0.00000   0.00024   0.00018  -0.00003  -0.00005
 129       14D+1       -0.00001   0.00000   0.00001  -0.00001   0.00001
 130       14D-1       -0.00029   0.00018  -0.00003  -0.00025   0.00016
 131       14D+2       -0.00020  -0.00021  -0.00005   0.00010   0.00081
 132       14D-2        0.00000  -0.00001   0.00001   0.00000   0.00000
 133       15F 0        0.00001  -0.00004   0.00001   0.00000   0.00004
 134       15F+1        0.00000   0.00000   0.00000   0.00000   0.00000
 135       15F-1        0.00000   0.00003   0.00000   0.00000  -0.00009
 136       15F+2       -0.00001   0.00001   0.00000   0.00000  -0.00004
 137       15F-2        0.00000   0.00000   0.00000   0.00000   0.00000
 138       15F+3        0.00000   0.00000   0.00000   0.00000   0.00000
 139       15F-3        0.00003  -0.00003  -0.00002   0.00000   0.00003
 140       16F 0       -0.00007   0.00011   0.00010  -0.00026  -0.00030
 141       16F+1        0.00000   0.00000   0.00000   0.00000   0.00000
 142       16F-1       -0.00002   0.00007  -0.00003  -0.00001  -0.00042
 143       16F+2       -0.00013   0.00013   0.00006  -0.00007  -0.00052
 144       16F-2        0.00000   0.00000  -0.00001   0.00001   0.00001
 145       16F+3        0.00000   0.00000   0.00000   0.00000   0.00001
 146       16F-3        0.00010   0.00001   0.00004  -0.00015   0.00011
 147 4   S  1S         -0.02039   0.00000  -0.21775  -0.15762   0.00000
 148        2S          0.06949   0.00000   0.74428   0.54438   0.00000
 149        3S         -0.00204   0.00000  -0.02070  -0.00819   0.00000
 150        4S          0.00450   0.00000   0.04989   0.03913   0.00000
 151        5S          0.00161   0.00000   0.00652  -0.01189   0.00000
 152        6S          0.00206   0.00000  -0.00077  -0.00357   0.00000
 153        7PX        -0.00122   0.00000   0.00176   0.00503   0.00000
 154        7PY         0.00000   0.19119   0.00000   0.00000  -0.09903
 155        7PZ         0.05314   0.00000   0.61556  -0.47639   0.00000
 156        8PX         0.00003   0.00000  -0.00004  -0.00006   0.00000
 157        8PY         0.00000  -0.00308   0.00000   0.00000  -0.00027
 158        8PZ        -0.00158   0.00000  -0.01163   0.00826   0.00000
 159        9PX        -0.00007   0.00000   0.00012   0.00031   0.00000
 160        9PY         0.00000   0.01119   0.00000   0.00000  -0.00600
 161        9PZ         0.00343   0.00000   0.03788  -0.03118   0.00000
 162       10PX        -0.00002   0.00000  -0.00001   0.00004   0.00000
 163       10PY         0.00000   0.00183   0.00000   0.00000  -0.00361
 164       10PZ        -0.00228   0.00000  -0.00664   0.00510   0.00000
 165       11PX        -0.00001   0.00000   0.00001   0.00000   0.00000
 166       11PY         0.00000   0.00020   0.00000   0.00000  -0.00026
 167       11PZ        -0.00022   0.00000   0.00012   0.00022   0.00000
 168       12D 0        0.00084   0.00000   0.00211  -0.00265   0.00000
 169       12D+1        0.00000   0.00000   0.00002  -0.00001   0.00000
 170       12D-1        0.00000   0.00019   0.00000   0.00000   0.00081
 171       12D+2       -0.00005   0.00000  -0.00044   0.00019   0.00000
 172       12D-2        0.00000   0.00000   0.00000   0.00000   0.00002
 173       13D 0        0.00007   0.00000   0.00014   0.00022   0.00000
 174       13D+1        0.00000   0.00000   0.00000   0.00000   0.00000
 175       13D-1        0.00000   0.00002   0.00000   0.00000  -0.00007
 176       13D+2        0.00004   0.00000   0.00030   0.00016   0.00000
 177       13D-2        0.00000   0.00000   0.00000   0.00000   0.00000
 178       14D 0        0.00055   0.00000   0.00104  -0.00068   0.00000
 179       14D+1        0.00002   0.00000   0.00000  -0.00002   0.00000
 180       14D-1        0.00000  -0.00074   0.00000   0.00000   0.00094
 181       14D+2       -0.00031   0.00000   0.00039   0.00000   0.00000
 182       14D-2        0.00000  -0.00002   0.00000   0.00000   0.00003
 183       15F 0       -0.00014   0.00000  -0.00016   0.00025   0.00000
 184       15F+1        0.00000   0.00000   0.00000   0.00000   0.00000
 185       15F-1        0.00000  -0.00001   0.00000   0.00000  -0.00006
 186       15F+2        0.00000   0.00000   0.00012  -0.00016   0.00000
 187       15F-2        0.00000   0.00000   0.00000   0.00000   0.00000
 188       15F+3        0.00000   0.00000   0.00000   0.00000   0.00000
 189       15F-3        0.00000   0.00003   0.00000   0.00000  -0.00005
 190       16F 0       -0.00014   0.00000  -0.00046   0.00048   0.00000
 191       16F+1        0.00000   0.00000   0.00000   0.00001   0.00000
 192       16F-1        0.00000  -0.00004   0.00000   0.00000  -0.00031
 193       16F+2        0.00012   0.00000  -0.00008  -0.00012   0.00000
 194       16F-2        0.00000   0.00001   0.00000   0.00000  -0.00002
 195       16F+3        0.00000   0.00000   0.00000   0.00000   0.00000
 196       16F-3        0.00000   0.00000   0.00000   0.00000  -0.00004
                          11        12        13        14        15
     Eigenvalues --     2.00001   2.00001   2.00000   2.00000   2.00000
   1 1   C  1S          0.23627  -0.00955   0.69958   0.00181   0.00171
   2        2S         -0.00440   0.00011  -0.00702  -0.00003  -0.00006
   3        3S          0.00839  -0.00040   0.03008   0.00011   0.00008
   4        4S          0.01154   0.00006  -0.02257  -0.00042  -0.00015
   5        5S          0.00493   0.00000  -0.00551  -0.00020  -0.00015
   6        6PX         0.00001  -0.00182   0.00000   0.00000   0.00000
   7        6PY         0.00000   0.00000   0.00000   0.00000   0.00000
   8        6PZ         0.00215   0.00004  -0.00126  -0.00001   0.00000
   9        7PX         0.00003  -0.00140  -0.00002   0.00000   0.00000
  10        7PY         0.00000   0.00000   0.00000   0.00000   0.00000
  11        7PZ         0.00168  -0.00003   0.00252   0.00000  -0.00008
  12        8PX         0.00004   0.00073  -0.00006   0.00000   0.00000
  13        8PY         0.00000   0.00000   0.00000   0.00000   0.00000
  14        8PZ        -0.00309  -0.00031   0.00246  -0.00007  -0.00001
  15        9PX        -0.00001  -0.00103   0.00000   0.00000   0.00000
  16        9PY         0.00000   0.00000   0.00000   0.00000   0.00000
  17        9PZ         0.00030  -0.00002   0.00052  -0.00003  -0.00005
  18       10D 0        0.00007   0.00000   0.00030   0.00000   0.00000
  19       10D+1        0.00000  -0.00018   0.00000   0.00000   0.00000
  20       10D-1        0.00000   0.00000   0.00000   0.00000   0.00000
  21       10D+2       -0.00003   0.00000  -0.00021   0.00000   0.00000
  22       10D-2        0.00000   0.00000   0.00000   0.00000   0.00000
  23       11D 0        0.00075  -0.00002  -0.00031  -0.00004  -0.00005
  24       11D+1       -0.00001   0.00118   0.00004   0.00000   0.00000
  25       11D-1        0.00000   0.00000   0.00000   0.00000   0.00000
  26       11D+2       -0.00126  -0.00002   0.00312   0.00006  -0.00001
  27       11D-2        0.00000   0.00000   0.00000   0.00000   0.00000
  28       12D 0       -0.00182  -0.00001  -0.00124  -0.00006  -0.00007
  29       12D+1       -0.00005  -0.00102   0.00000   0.00000   0.00000
  30       12D-1        0.00000   0.00000   0.00000   0.00000   0.00000
  31       12D+2       -0.00273  -0.00001   0.00171   0.00003  -0.00001
  32       12D-2        0.00000   0.00000   0.00000   0.00000   0.00000
  33       13F 0        0.00027   0.00000   0.00027   0.00000   0.00000
  34       13F+1        0.00000  -0.00018   0.00000   0.00000   0.00000
  35       13F-1        0.00000   0.00000   0.00000   0.00000   0.00000
  36       13F+2       -0.00008   0.00000  -0.00004  -0.00001   0.00000
  37       13F-2        0.00000   0.00000   0.00000   0.00000   0.00000
  38       13F+3        0.00000   0.00007   0.00000   0.00000   0.00000
  39       13F-3        0.00000   0.00000   0.00000   0.00000   0.00000
  40       14F 0        0.00029  -0.00001  -0.00113  -0.00003   0.00001
  41       14F+1        0.00002   0.00119   0.00002   0.00000   0.00000
  42       14F-1        0.00000   0.00000   0.00000   0.00000   0.00000
  43       14F+2        0.00060   0.00003  -0.00139  -0.00003   0.00001
  44       14F-2        0.00000   0.00000   0.00000   0.00000   0.00000
  45       14F+3        0.00000  -0.00014   0.00002   0.00000   0.00000
  46       14F-3        0.00000   0.00000   0.00000   0.00000   0.00000
  47 2   Cl 1S         -0.09139  -0.00062   0.02995   0.65737  -0.25783
  48        2S          0.31126   0.00212  -0.10715   0.00621  -0.00285
  49        3S         -0.00489  -0.00002   0.00058   0.00010  -0.00006
  50        4S          0.02581   0.00018  -0.00967   0.00011  -0.00007
  51        5S         -0.00737  -0.00016   0.00905   0.00007   0.00005
  52        6S         -0.00064  -0.00004   0.00342   0.00005   0.00006
  53        7PX        -0.00530   0.08110   0.00327   0.00002   0.00001
  54        7PY         0.41788   0.00438  -0.27849  -0.00162  -0.00040
  55        7PZ         0.23157   0.00246  -0.18704  -0.00102  -0.00039
  56        8PX         0.00008  -0.00044  -0.00004   0.00000   0.00000
  57        8PY        -0.00712  -0.00008   0.00479   0.00008  -0.00002
  58        8PZ        -0.00414  -0.00005   0.00344   0.00006  -0.00001
  59        9PX        -0.00032   0.00474   0.00021   0.00000   0.00000
  60        9PY         0.02572   0.00027  -0.01800  -0.00013  -0.00002
  61        9PZ         0.01427   0.00015  -0.01214  -0.00009  -0.00002
  62       10PX         0.00001  -0.00069  -0.00003   0.00000   0.00000
  63       10PY        -0.00096  -0.00008   0.00355   0.00003   0.00006
  64       10PZ        -0.00162  -0.00001   0.00242   0.00001   0.00002
  65       11PX         0.00001   0.00034  -0.00001   0.00000   0.00000
  66       11PY         0.00004   0.00000   0.00028   0.00000   0.00001
  67       11PZ        -0.00004   0.00000   0.00010   0.00001   0.00002
  68       12D 0        0.00001   0.00000   0.00001   0.00000   0.00000
  69       12D+1        0.00000  -0.00006   0.00000   0.00000   0.00000
  70       12D-1        0.00034   0.00000  -0.00032   0.00000   0.00000
  71       12D+2       -0.00023   0.00000   0.00021   0.00000   0.00000
  72       12D-2        0.00000  -0.00005   0.00000   0.00000   0.00000
  73       13D 0        0.00033   0.00001   0.00006   0.00000   0.00000
  74       13D+1        0.00001  -0.00005  -0.00001   0.00000   0.00000
  75       13D-1       -0.00143  -0.00002   0.00194   0.00003  -0.00001
  76       13D+2        0.00139   0.00002  -0.00120  -0.00002   0.00000
  77       13D-2        0.00002  -0.00022  -0.00002   0.00000   0.00000
  78       14D 0        0.00002   0.00002   0.00012   0.00000   0.00000
  79       14D+1        0.00001  -0.00023  -0.00001   0.00000   0.00000
  80       14D-1        0.00015   0.00000   0.00067  -0.00001   0.00001
  81       14D+2       -0.00024   0.00002  -0.00057   0.00000  -0.00002
  82       14D-2       -0.00001  -0.00055  -0.00001   0.00000   0.00000
  83       15F 0        0.00001   0.00000   0.00002   0.00000   0.00000
  84       15F+1        0.00000   0.00000   0.00000   0.00000   0.00000
  85       15F-1        0.00003   0.00000  -0.00001   0.00000   0.00000
  86       15F+2        0.00003   0.00000  -0.00001   0.00000   0.00000
  87       15F-2        0.00000  -0.00001   0.00000   0.00000   0.00000
  88       15F+3        0.00000  -0.00003   0.00000   0.00000   0.00000
  89       15F-3        0.00010   0.00000  -0.00005   0.00000   0.00000
  90       16F 0        0.00024   0.00000  -0.00027   0.00000   0.00000
  91       16F+1        0.00001   0.00001   0.00000   0.00000   0.00000
  92       16F-1        0.00000   0.00000   0.00032   0.00000   0.00000
  93       16F+2        0.00031   0.00000  -0.00045   0.00000   0.00000
  94       16F-2        0.00001   0.00000  -0.00001   0.00000   0.00000
  95       16F+3        0.00000   0.00020   0.00001   0.00000   0.00000
  96       16F-3        0.00017   0.00001  -0.00018   0.00000   0.00000
  97 3   Cl 1S         -0.09139  -0.00062   0.02995   0.65521  -0.25826
  98        2S          0.31126   0.00212  -0.10715   0.00619  -0.00285
  99        3S         -0.00489  -0.00002   0.00058   0.00010  -0.00006
 100        4S          0.02581   0.00018  -0.00967   0.00011  -0.00007
 101        5S         -0.00737  -0.00016   0.00905   0.00007   0.00005
 102        6S         -0.00064  -0.00004   0.00342   0.00005   0.00006
 103        7PX        -0.00530   0.08110   0.00327   0.00002   0.00001
 104        7PY        -0.41788  -0.00438   0.27849   0.00162   0.00040
 105        7PZ         0.23157   0.00246  -0.18704  -0.00102  -0.00039
 106        8PX         0.00008  -0.00044  -0.00004   0.00000   0.00000
 107        8PY         0.00712   0.00008  -0.00479  -0.00008   0.00002
 108        8PZ        -0.00414  -0.00005   0.00344   0.00006  -0.00001
 109        9PX        -0.00032   0.00474   0.00021   0.00000   0.00000
 110        9PY        -0.02572  -0.00027   0.01800   0.00013   0.00002
 111        9PZ         0.01427   0.00015  -0.01214  -0.00009  -0.00002
 112       10PX         0.00001  -0.00069  -0.00003   0.00000   0.00000
 113       10PY         0.00096   0.00008  -0.00355  -0.00003  -0.00006
 114       10PZ        -0.00162  -0.00001   0.00242   0.00001   0.00002
 115       11PX         0.00001   0.00034  -0.00001   0.00000   0.00000
 116       11PY        -0.00004   0.00000  -0.00028   0.00000  -0.00001
 117       11PZ        -0.00004   0.00000   0.00010   0.00001   0.00002
 118       12D 0        0.00001   0.00000   0.00001   0.00000   0.00000
 119       12D+1        0.00000  -0.00006   0.00000   0.00000   0.00000
 120       12D-1       -0.00034   0.00000   0.00032   0.00000   0.00000
 121       12D+2       -0.00023   0.00000   0.00021   0.00000   0.00000
 122       12D-2        0.00000   0.00005   0.00000   0.00000   0.00000
 123       13D 0        0.00033   0.00001   0.00006   0.00000   0.00000
 124       13D+1        0.00001  -0.00005  -0.00001   0.00000   0.00000
 125       13D-1        0.00143   0.00002  -0.00194  -0.00003   0.00001
 126       13D+2        0.00139   0.00002  -0.00120  -0.00002   0.00000
 127       13D-2       -0.00002   0.00022   0.00002   0.00000   0.00000
 128       14D 0        0.00002   0.00002   0.00012   0.00000   0.00000
 129       14D+1        0.00001  -0.00023  -0.00001   0.00000   0.00000
 130       14D-1       -0.00015   0.00000  -0.00067   0.00001  -0.00001
 131       14D+2       -0.00024   0.00002  -0.00057   0.00000  -0.00002
 132       14D-2        0.00001   0.00055   0.00001   0.00000   0.00000
 133       15F 0        0.00001   0.00000   0.00002   0.00000   0.00000
 134       15F+1        0.00000   0.00000   0.00000   0.00000   0.00000
 135       15F-1       -0.00003   0.00000   0.00001   0.00000   0.00000
 136       15F+2        0.00003   0.00000  -0.00001   0.00000   0.00000
 137       15F-2        0.00000   0.00001   0.00000   0.00000   0.00000
 138       15F+3        0.00000  -0.00003   0.00000   0.00000   0.00000
 139       15F-3       -0.00010   0.00000   0.00005   0.00000   0.00000
 140       16F 0        0.00024   0.00000  -0.00027   0.00000   0.00000
 141       16F+1        0.00001   0.00001   0.00000   0.00000   0.00000
 142       16F-1        0.00000   0.00000  -0.00032   0.00000   0.00000
 143       16F+2        0.00031   0.00000  -0.00045   0.00000   0.00000
 144       16F-2       -0.00001   0.00000   0.00001   0.00000   0.00000
 145       16F+3        0.00000   0.00020   0.00001   0.00000   0.00000
 146       16F-3       -0.00017  -0.00001   0.00018   0.00000   0.00000
 147 4   S  1S          0.08927   0.00093   0.04993   0.36489   0.92726
 148        2S         -0.30793  -0.00324  -0.18487   0.00432   0.01219
 149        3S          0.00493   0.00004   0.00154   0.00013   0.00030
 150        4S         -0.02211  -0.00024  -0.01370  -0.00004  -0.00003
 151        5S          0.00092   0.00025   0.00627   0.00018   0.00000
 152        6S         -0.00494   0.00006   0.00114   0.00013   0.00007
 153        7PX        -0.00361   0.96514   0.01016   0.00004   0.00003
 154        7PY         0.00000   0.00000   0.00000   0.00000   0.00000
 155        7PZ         0.39278  -0.00129   0.42459   0.00201   0.00229
 156        8PX         0.00003  -0.01126  -0.00011   0.00000   0.00000
 157        8PY         0.00000   0.00000   0.00000   0.00000   0.00000
 158        8PZ        -0.00451  -0.00003  -0.00460  -0.00011  -0.00016
 159        9PX        -0.00022   0.06175   0.00068   0.00000   0.00000
 160        9PY         0.00000   0.00000   0.00000   0.00000   0.00000
 161        9PZ         0.02522  -0.00006   0.02819   0.00016   0.00022
 162       10PX         0.00004   0.00103   0.00000   0.00000   0.00000
 163       10PY         0.00000   0.00000   0.00000   0.00000   0.00000
 164       10PZ         0.00292  -0.00011  -0.00189  -0.00009   0.00004
 165       11PX         0.00002  -0.00028  -0.00001   0.00000   0.00000
 166       11PY         0.00000   0.00000   0.00000   0.00000   0.00000
 167       11PZ         0.00081   0.00000  -0.00015  -0.00001   0.00001
 168       12D 0        0.00032   0.00000   0.00113   0.00004   0.00005
 169       12D+1        0.00000   0.00217   0.00004   0.00000   0.00000
 170       12D-1        0.00000   0.00000   0.00000   0.00000   0.00000
 171       12D+2        0.00012   0.00001   0.00022   0.00000  -0.00001
 172       12D-2        0.00000   0.00000   0.00000   0.00000   0.00000
 173       13D 0       -0.00031   0.00000  -0.00062   0.00000   0.00001
 174       13D+1        0.00000  -0.00018  -0.00001   0.00000   0.00000
 175       13D-1        0.00000   0.00000   0.00000   0.00000   0.00000
 176       13D+2       -0.00012   0.00000  -0.00008   0.00000   0.00001
 177       13D-2        0.00000   0.00000   0.00000   0.00000   0.00000
 178       14D 0       -0.00096   0.00001   0.00039   0.00000  -0.00004
 179       14D+1       -0.00002  -0.00047   0.00000   0.00000   0.00000
 180       14D-1        0.00000   0.00000   0.00000   0.00000   0.00000
 181       14D+2        0.00069   0.00000  -0.00015   0.00000   0.00001
 182       14D-2        0.00000   0.00000   0.00000   0.00000   0.00000
 183       15F 0        0.00019   0.00000   0.00039  -0.00001  -0.00002
 184       15F+1        0.00000  -0.00026   0.00000   0.00000   0.00000
 185       15F-1        0.00000   0.00000   0.00000   0.00000   0.00000
 186       15F+2        0.00008   0.00000   0.00009   0.00000   0.00000
 187       15F-2        0.00000   0.00000   0.00000   0.00000   0.00000
 188       15F+3        0.00000   0.00013   0.00000   0.00000   0.00000
 189       15F-3        0.00000   0.00000   0.00000   0.00000   0.00000
 190       16F 0       -0.00023   0.00001  -0.00037   0.00000   0.00000
 191       16F+1        0.00000  -0.00048  -0.00001   0.00000   0.00000
 192       16F-1        0.00000   0.00000   0.00000   0.00000   0.00000
 193       16F+2       -0.00033   0.00000  -0.00019   0.00000   0.00000
 194       16F-2        0.00000   0.00000   0.00000   0.00000   0.00000
 195       16F+3        0.00000  -0.00012   0.00000   0.00000   0.00000
 196       16F-3        0.00000   0.00000   0.00000   0.00000   0.00000
                          16        17        18        19        20
     Eigenvalues --     2.00000   1.97697   1.97419   1.97000   1.95129
   1 1   C  1S          0.00000  -0.08576   0.00000  -0.06957  -0.04032
   2        2S          0.00000   0.22080   0.00000   0.18677   0.11218
   3        3S          0.00000   0.04816   0.00000   0.04467   0.02697
   4        4S          0.00000   0.04439   0.00000   0.06294   0.05608
   5        5S          0.00000   0.01149   0.00000   0.01605   0.00163
   6        6PX         0.00000   0.00052   0.00000   0.00046   0.00060
   7        6PY        -0.00001   0.00000   0.06099   0.00000   0.00000
   8        6PZ         0.00000  -0.01108   0.00000   0.10385  -0.05487
   9        7PX         0.00000   0.00070   0.00000   0.00060   0.00085
  10        7PY         0.00004   0.00000   0.08383   0.00000   0.00000
  11        7PZ         0.00000  -0.02144   0.00000   0.12974  -0.07661
  12        8PX         0.00000  -0.00006   0.00000  -0.00009   0.00057
  13        8PY        -0.00005   0.00000   0.00397   0.00000   0.00000
  14        8PZ         0.00000   0.00804   0.00000   0.00450  -0.04646
  15        9PX         0.00000   0.00007   0.00000  -0.00010   0.00007
  16        9PY        -0.00001   0.00000   0.00831   0.00000   0.00000
  17        9PZ         0.00000  -0.00384   0.00000   0.00844  -0.02170
  18       10D 0        0.00000   0.00433   0.00000   0.00971   0.01023
  19       10D+1        0.00000  -0.00002   0.00000   0.00015  -0.00008
  20       10D-1        0.00000   0.00000  -0.00851   0.00000   0.00000
  21       10D+2        0.00000  -0.00709   0.00000   0.00121   0.00367
  22       10D-2        0.00000   0.00000   0.00009   0.00000   0.00000
  23       11D 0        0.00000   0.00606   0.00000   0.01114   0.03019
  24       11D+1        0.00000  -0.00007   0.00000   0.00022  -0.00014
  25       11D-1       -0.00006   0.00000  -0.01777   0.00000   0.00000
  26       11D+2        0.00000  -0.01104   0.00000   0.00305   0.01364
  27       11D-2        0.00000   0.00000   0.00020   0.00000   0.00000
  28       12D 0        0.00000   0.00385   0.00000   0.00384  -0.04135
  29       12D+1        0.00000   0.00000   0.00000  -0.00039   0.00063
  30       12D-1       -0.00002   0.00000   0.01211   0.00000   0.00000
  31       12D+2        0.00000   0.00768   0.00000   0.00472  -0.02644
  32       12D-2        0.00000   0.00000  -0.00010   0.00000   0.00000
  33       13F 0        0.00000   0.00400   0.00000   0.00470  -0.00111
  34       13F+1        0.00000   0.00005   0.00000   0.00005   0.00006
  35       13F-1        0.00000   0.00000   0.00190   0.00000   0.00000
  36       13F+2        0.00000   0.00461   0.00000  -0.00023   0.00164
  37       13F-2        0.00000   0.00000  -0.00003   0.00000   0.00000
  38       13F+3        0.00000  -0.00006   0.00000  -0.00002  -0.00001
  39       13F-3        0.00000   0.00000  -0.00242   0.00000   0.00000
  40       14F 0        0.00000   0.00133   0.00000  -0.00094  -0.00298
  41       14F+1        0.00000   0.00000   0.00000   0.00002   0.00011
  42       14F-1       -0.00001   0.00000   0.00055   0.00000   0.00000
  43       14F+2        0.00000   0.00182   0.00000  -0.00009   0.00149
  44       14F-2        0.00000   0.00000  -0.00009   0.00000   0.00000
  45       14F+3        0.00000  -0.00001   0.00000   0.00005   0.00005
  46       14F-3       -0.00001   0.00000  -0.00070   0.00000   0.00000
  47 2   Cl 1S          0.70418   0.04533  -0.05311  -0.02139  -0.01156
  48        2S          0.00713  -0.16944   0.19865   0.08000   0.04389
  49        3S          0.00011   0.36240  -0.42571  -0.17261  -0.09562
  50        4S          0.00016   0.04391  -0.05349  -0.02260  -0.01502
  51        5S         -0.00004   0.21876  -0.26442  -0.11351  -0.10002
  52        6S         -0.00005  -0.00694   0.01010   0.00231  -0.02621
  53        7PX         0.00000   0.00011  -0.00007   0.00003  -0.00036
  54        7PY        -0.00050  -0.01656  -0.00006   0.00089  -0.11147
  55        7PZ        -0.00042  -0.00737   0.00751  -0.01896   0.10251
  56        8PX         0.00000  -0.00011   0.00007  -0.00007   0.00088
  57        8PY         0.00006   0.02466   0.01614  -0.00179   0.25416
  58        8PZ         0.00004   0.00559  -0.01011   0.04838  -0.24582
  59        9PX         0.00000  -0.00006   0.00002  -0.00006   0.00043
  60        9PY        -0.00006   0.01076   0.00735  -0.00013   0.12138
  61        9PZ        -0.00005   0.00287  -0.00426   0.02271  -0.11770
  62       10PX         0.00000  -0.00003   0.00000  -0.00015   0.00095
  63       10PY        -0.00006  -0.00080   0.01530  -0.00732   0.13130
  64       10PZ        -0.00003  -0.00310   0.00339   0.02635  -0.17774
  65       11PX         0.00000   0.00000  -0.00004  -0.00001   0.00010
  66       11PY        -0.00001  -0.00400   0.00285   0.00037   0.00048
  67       11PZ         0.00000  -0.00165   0.00318  -0.00016  -0.00602
  68       12D 0        0.00000  -0.00056  -0.00079   0.00277  -0.00687
  69       12D+1        0.00000  -0.00005   0.00004  -0.00001   0.00002
  70       12D-1        0.00001   0.00733  -0.00540   0.00269   0.00283
  71       12D+2        0.00000  -0.00602   0.00271   0.00056  -0.01017
  72       12D-2        0.00000  -0.00007   0.00005   0.00001  -0.00005
  73       13D 0        0.00000  -0.00124  -0.00178   0.00465  -0.00840
  74       13D+1        0.00000  -0.00003   0.00006   0.00000   0.00004
  75       13D-1        0.00002   0.00711  -0.00468   0.00429   0.00196
  76       13D+2       -0.00001  -0.00632   0.00176   0.00149  -0.01208
  77       13D-2        0.00000  -0.00006   0.00007   0.00004  -0.00003
  78       14D 0        0.00000   0.00098   0.00106   0.00300  -0.00868
  79       14D+1        0.00000   0.00000  -0.00005   0.00000   0.00015
  80       14D-1       -0.00002  -0.00195   0.00314   0.00202  -0.00365
  81       14D+2        0.00002   0.00178  -0.00255   0.00076  -0.00674
  82       14D-2        0.00000   0.00003  -0.00002  -0.00004   0.00008
  83       15F 0        0.00000  -0.00134   0.00089   0.00055  -0.00226
  84       15F+1        0.00000   0.00000   0.00001  -0.00001   0.00003
  85       15F-1        0.00000   0.00069  -0.00153   0.00133  -0.00387
  86       15F+2        0.00000  -0.00254   0.00213  -0.00017  -0.00169
  87       15F-2        0.00000  -0.00003   0.00003   0.00000   0.00000
  88       15F+3        0.00000   0.00003  -0.00002  -0.00001   0.00004
  89       15F-3        0.00000  -0.00188   0.00082   0.00064  -0.00343
  90       16F 0        0.00000  -0.00016  -0.00034   0.00001  -0.00041
  91       16F+1        0.00000   0.00000  -0.00001   0.00001   0.00003
  92       16F-1        0.00000  -0.00018   0.00004   0.00150  -0.00207
  93       16F+2        0.00000   0.00009  -0.00068  -0.00028  -0.00058
  94       16F-2        0.00000   0.00001   0.00001   0.00001   0.00003
  95       16F+3        0.00000   0.00000   0.00000   0.00000   0.00000
  96       16F-3        0.00000   0.00028  -0.00039   0.00022  -0.00131
  97 3   Cl 1S         -0.70603   0.04533   0.05311  -0.02139  -0.01156
  98        2S         -0.00714  -0.16944  -0.19865   0.08000   0.04389
  99        3S         -0.00011   0.36240   0.42571  -0.17261  -0.09562
 100        4S         -0.00016   0.04391   0.05349  -0.02260  -0.01502
 101        5S          0.00004   0.21876   0.26442  -0.11351  -0.10002
 102        6S          0.00005  -0.00694  -0.01010   0.00231  -0.02621
 103        7PX         0.00000   0.00011   0.00007   0.00003  -0.00036
 104        7PY        -0.00051   0.01656  -0.00006  -0.00089   0.11147
 105        7PZ         0.00042  -0.00737  -0.00751  -0.01896   0.10251
 106        8PX         0.00000  -0.00011  -0.00007  -0.00007   0.00088
 107        8PY         0.00006  -0.02466   0.01614   0.00179  -0.25416
 108        8PZ        -0.00004   0.00559   0.01011   0.04838  -0.24582
 109        9PX         0.00000  -0.00006  -0.00002  -0.00006   0.00043
 110        9PY        -0.00006  -0.01076   0.00735   0.00013  -0.12138
 111        9PZ         0.00005   0.00287   0.00426   0.02271  -0.11770
 112       10PX         0.00000  -0.00003   0.00000  -0.00015   0.00095
 113       10PY        -0.00006   0.00080   0.01530   0.00732  -0.13130
 114       10PZ         0.00003  -0.00310  -0.00339   0.02635  -0.17774
 115       11PX         0.00000   0.00000   0.00004  -0.00001   0.00010
 116       11PY        -0.00001   0.00400   0.00285  -0.00037  -0.00048
 117       11PZ         0.00000  -0.00165  -0.00318  -0.00016  -0.00602
 118       12D 0        0.00000  -0.00056   0.00079   0.00277  -0.00687
 119       12D+1        0.00000  -0.00005  -0.00004  -0.00001   0.00002
 120       12D-1        0.00001  -0.00733  -0.00540  -0.00269  -0.00283
 121       12D+2        0.00000  -0.00602  -0.00271   0.00056  -0.01017
 122       12D-2        0.00000   0.00007   0.00005  -0.00001   0.00005
 123       13D 0        0.00000  -0.00124   0.00178   0.00465  -0.00840
 124       13D+1        0.00000  -0.00003  -0.00006   0.00000   0.00004
 125       13D-1        0.00002  -0.00711  -0.00468  -0.00429  -0.00196
 126       13D+2        0.00001  -0.00632  -0.00176   0.00149  -0.01208
 127       13D-2        0.00000   0.00006   0.00007  -0.00004   0.00003
 128       14D 0        0.00000   0.00098  -0.00106   0.00300  -0.00868
 129       14D+1        0.00000   0.00000   0.00005   0.00000   0.00015
 130       14D-1       -0.00002   0.00195   0.00314  -0.00202   0.00365
 131       14D+2       -0.00002   0.00178   0.00255   0.00076  -0.00674
 132       14D-2        0.00000  -0.00003  -0.00002   0.00004  -0.00008
 133       15F 0        0.00000  -0.00134  -0.00089   0.00055  -0.00226
 134       15F+1        0.00000   0.00000  -0.00001  -0.00001   0.00003
 135       15F-1        0.00000  -0.00069  -0.00153  -0.00133   0.00387
 136       15F+2        0.00000  -0.00254  -0.00213  -0.00017  -0.00169
 137       15F-2        0.00000   0.00003   0.00003   0.00000   0.00000
 138       15F+3        0.00000   0.00003   0.00002  -0.00001   0.00004
 139       15F-3        0.00000   0.00188   0.00082  -0.00064   0.00343
 140       16F 0        0.00000  -0.00016   0.00034   0.00001  -0.00041
 141       16F+1        0.00000   0.00000   0.00001   0.00001   0.00003
 142       16F-1        0.00000   0.00018   0.00004  -0.00150   0.00207
 143       16F+2        0.00000   0.00009   0.00068  -0.00028  -0.00058
 144       16F-2        0.00000  -0.00001   0.00001  -0.00001  -0.00003
 145       16F+3        0.00000   0.00000   0.00000   0.00000   0.00000
 146       16F-3        0.00000  -0.00028  -0.00039  -0.00022   0.00131
 147 4   S  1S         -0.00084   0.01649   0.00000   0.05805   0.00460
 148        2S         -0.00001  -0.06337   0.00000  -0.22212  -0.01763
 149        3S          0.00000   0.13133   0.00000   0.47011   0.03870
 150        4S          0.00000   0.01580   0.00000   0.06108   0.00542
 151        5S          0.00000   0.05492   0.00000   0.24352   0.07678
 152        6S          0.00000  -0.00307   0.00000  -0.03125   0.02511
 153        7PX         0.00000   0.00009   0.00000   0.00023  -0.00004
 154        7PY         0.00024   0.00000  -0.01106   0.00000   0.00000
 155        7PZ         0.00000   0.02164   0.00000   0.04433   0.00199
 156        8PX         0.00000  -0.00004   0.00000  -0.00021   0.00004
 157        8PY         0.00002   0.00000   0.03238   0.00000   0.00000
 158        8PZ         0.00000  -0.03273   0.00000  -0.05565  -0.00652
 159        9PX         0.00000  -0.00004   0.00000  -0.00011   0.00004
 160        9PY         0.00001   0.00000   0.01227   0.00000   0.00000
 161        9PZ         0.00000  -0.01618   0.00000  -0.03098  -0.00186
 162       10PX         0.00000   0.00012   0.00000   0.00054  -0.00098
 163       10PY         0.00002   0.00000   0.01000   0.00000   0.00000
 164       10PZ         0.00000   0.00083   0.00000   0.01616  -0.01739
 165       11PX         0.00000  -0.00002   0.00000   0.00015  -0.00015
 166       11PY         0.00000   0.00000  -0.00149   0.00000   0.00000
 167       11PZ         0.00000   0.00231   0.00000   0.00823   0.00052
 168       12D 0        0.00000   0.00675   0.00000   0.00985   0.00074
 169       12D+1        0.00000   0.00001   0.00000   0.00009   0.00005
 170       12D-1       -0.00002   0.00000  -0.00509   0.00000   0.00000
 171       12D+2        0.00000   0.00017   0.00000   0.00037   0.00325
 172       12D-2        0.00000   0.00000   0.00000   0.00000   0.00000
 173       13D 0        0.00000   0.00991   0.00000   0.02409   0.00124
 174       13D+1        0.00000   0.00008   0.00000   0.00025  -0.00005
 175       13D-1        0.00000   0.00000  -0.00339   0.00000   0.00000
 176       13D+2        0.00000  -0.00001   0.00000   0.00099   0.00241
 177       13D-2        0.00000   0.00000  -0.00001   0.00000   0.00000
 178       14D 0        0.00000  -0.00237   0.00000  -0.00880  -0.00078
 179       14D+1        0.00000  -0.00005   0.00000  -0.00025   0.00031
 180       14D-1       -0.00001   0.00000   0.00199   0.00000   0.00000
 181       14D+2        0.00000  -0.00175   0.00000  -0.00088   0.00539
 182       14D-2        0.00000   0.00000   0.00008   0.00000   0.00000
 183       15F 0        0.00000  -0.00300   0.00000  -0.00874  -0.00079
 184       15F+1        0.00000  -0.00004   0.00000  -0.00013  -0.00001
 185       15F-1        0.00000   0.00000   0.00171   0.00000   0.00000
 186       15F+2        0.00000   0.00018   0.00000  -0.00031  -0.00042
 187       15F-2        0.00000   0.00000   0.00001   0.00000   0.00000
 188       15F+3        0.00000   0.00000   0.00000   0.00000   0.00001
 189       15F-3        0.00000   0.00000   0.00009   0.00000   0.00000
 190       16F 0        0.00000   0.00068   0.00000   0.00505  -0.00015
 191       16F+1        0.00000   0.00004   0.00000   0.00009  -0.00003
 192       16F-1        0.00001   0.00000   0.00077   0.00000   0.00000
 193       16F+2        0.00000  -0.00061   0.00000  -0.00075  -0.00132
 194       16F-2        0.00000   0.00000  -0.00002   0.00000   0.00000
 195       16F+3        0.00000   0.00001   0.00000   0.00000  -0.00002
 196       16F-3        0.00000   0.00000   0.00035   0.00000   0.00000
                          21        22        23        24        25
     Eigenvalues --     1.94891   1.94878   1.94808   1.94659   1.94109
   1 1   C  1S          0.12001   0.00000   0.00467   0.00000   0.00000
   2        2S         -0.33550   0.00000  -0.01306   0.00000   0.00000
   3        3S         -0.08043   0.00000  -0.00315   0.00000   0.00000
   4        4S         -0.21018   0.00000  -0.00897   0.00000   0.00000
   5        5S         -0.00825   0.00000   0.00095   0.00000   0.00000
   6        6PX        -0.00409   0.00000   0.09626   0.00000   0.00000
   7        6PY         0.00000   0.08139   0.00000  -0.00026   0.16849
   8        6PZ         0.03752   0.00000   0.00126   0.00000   0.00000
   9        7PX        -0.00582   0.00000   0.13748   0.00000   0.00000
  10        7PY         0.00000   0.11150   0.00000  -0.00038   0.23752
  11        7PZ         0.06333   0.00000   0.00217   0.00000   0.00000
  12        8PX        -0.00230   0.00000   0.06215   0.00000   0.00000
  13        8PY         0.00000   0.03469   0.00000  -0.00157   0.08315
  14        8PZ        -0.01877   0.00000   0.00139   0.00000   0.00000
  15        9PX         0.00001   0.00000   0.00654   0.00000   0.00000
  16        9PY         0.00000   0.01050   0.00000  -0.00072  -0.00727
  17        9PZ        -0.00344   0.00000   0.00066   0.00000   0.00000
  18       10D 0        0.00200   0.00000  -0.00004   0.00000   0.00000
  19       10D+1        0.00024   0.00000  -0.00724   0.00000   0.00000
  20       10D-1        0.00000   0.00491   0.00000  -0.00003  -0.00696
  21       10D+2        0.00751   0.00000   0.00033   0.00000   0.00000
  22       10D-2        0.00000   0.00015   0.00000   0.01063   0.00010
  23       11D 0        0.00768   0.00000  -0.00005   0.00000   0.00000
  24       11D+1        0.00083   0.00000  -0.02311   0.00000   0.00000
  25       11D-1        0.00000   0.01661   0.00000  -0.00011  -0.01383
  26       11D+2        0.01720   0.00000   0.00090   0.00000   0.00000
  27       11D-2        0.00000   0.00038   0.00000   0.03235   0.00021
  28       12D 0       -0.02157   0.00000  -0.00178   0.00000   0.00000
  29       12D+1       -0.00036   0.00000   0.01640   0.00000   0.00000
  30       12D-1        0.00000  -0.03732   0.00000  -0.00113   0.01093
  31       12D+2       -0.00658   0.00000  -0.00069   0.00000   0.00000
  32       12D-2        0.00000  -0.00027   0.00000  -0.01091   0.00030
  33       13F 0       -0.00361   0.00000  -0.00013   0.00000   0.00000
  34       13F+1       -0.00013   0.00000   0.00227   0.00000   0.00000
  35       13F-1        0.00000  -0.00259   0.00000   0.00001   0.00771
  36       13F+2       -0.00478   0.00000  -0.00022   0.00000   0.00000
  37       13F-2        0.00000  -0.00001   0.00000  -0.00444   0.00000
  38       13F+3        0.00024   0.00000  -0.00484   0.00000   0.00000
  39       13F-3        0.00000  -0.00298   0.00000   0.00008  -0.00296
  40       14F 0       -0.00691   0.00000  -0.00021   0.00000   0.00000
  41       14F+1        0.00002   0.00000   0.00234   0.00000   0.00000
  42       14F-1        0.00000  -0.00868   0.00000  -0.00007  -0.00069
[...]
  55        7PZ         0.00127  -0.00001  -0.00377  -0.01091  -0.01453
  56        8PX        -0.00105  -0.19158  -0.00237   0.00090  -0.00061
  57        8PY         0.38066   0.00769  -0.16760   0.05099  -0.26182
  58        8PZ         0.02834   0.00274  -0.03797  -0.13888  -0.23662
  59        9PX         0.00007   0.06216   0.00067  -0.00038   0.00039
  60        9PY        -0.08618  -0.00143   0.05155  -0.01466   0.06179
  61        9PZ        -0.00147  -0.00012   0.01556   0.04280   0.05560
  62       10PX         0.03102   0.83829   0.01813  -0.00795   0.00220
  63       10PY        -5.27764  -0.01445   0.80014   0.57639   1.92745
  64       10PZ        -2.67161   0.00728   0.56787   1.39811   1.36102
  65       11PX         0.01474  -2.38495  -0.03356   0.01185  -0.04724
  66       11PY        -2.44656  -0.05604  -1.70538   1.27115   1.48572
  67       11PZ        -1.44522  -0.13746   1.02234  -2.72778   1.55353
  68       12D 0        0.01859  -0.00085  -0.01018  -0.02333  -0.00527
  69       12D+1       -0.00034  -0.01495  -0.00015   0.00039  -0.00056
  70       12D-1       -0.01974  -0.00222   0.00286  -0.00126   0.01695
  71       12D+2        0.04172   0.00204   0.04296   0.00782   0.01301
  72       12D-2        0.00035  -0.02189   0.00002   0.00017  -0.00062
  73       13D 0       -0.11038   0.00318   0.05500   0.09010   0.00202
  74       13D+1        0.00154   0.06281   0.00053  -0.00143   0.00264
  75       13D-1        0.00368   0.00992   0.01568   0.04449  -0.09340
  76       13D+2       -0.12975  -0.00857  -0.14870  -0.03766  -0.03432
  77       13D-2       -0.00156   0.09127   0.00050  -0.00114   0.00289
  78       14D 0        0.38066  -0.00720  -0.01969  -0.18966   0.07739
  79       14D+1        0.00098  -0.09183   0.00336  -0.00250  -0.00649
  80       14D-1       -1.30096  -0.01760   0.15510   0.31787   0.51002
  81       14D+2        1.06128   0.01540   0.31091  -0.02629  -0.31908
  82       14D-2        0.01392   0.10400   0.00458   0.00047  -0.00298
  83       15F 0       -0.01731  -0.00060   0.02928   0.00248   0.00770
  84       15F+1        0.00095  -0.01114  -0.00028   0.00066   0.00031
  85       15F-1        0.03746   0.00000  -0.00633   0.01323  -0.00290
  86       15F+2       -0.01969   0.00011   0.00831   0.02669   0.02174
  87       15F-2       -0.00037  -0.00527  -0.00040   0.00063   0.00020
  88       15F+3        0.00007   0.05129  -0.00023  -0.00009   0.00036
  89       15F-3        0.01591  -0.00046   0.01989  -0.00416   0.03298
  90       16F 0        0.07303   0.00022  -0.06279  -0.04578   0.00472
  91       16F+1       -0.00192   0.00732   0.00043  -0.00127  -0.00075
  92       16F-1       -0.12830  -0.00001   0.03441  -0.02590  -0.00166
  93       16F+2        0.10461  -0.00091  -0.01792  -0.07630  -0.03849
  94       16F-2        0.00118   0.02330   0.00123  -0.00180   0.00030
  95       16F+3       -0.00016  -0.13106  -0.00034   0.00031  -0.00128
  96       16F-3       -0.00380   0.00014  -0.01998   0.01078  -0.07460
  97 3   Cl 1S         -0.01581  -0.00052  -0.00994   0.00533   0.00344
  98        2S         -0.21258  -0.00916  -0.18476   0.10116   0.07985
  99        3S         -0.60370  -0.02172  -0.41667   0.22295   0.15614
 100        4S          0.02529   0.00637   0.16659  -0.10466  -0.09977
 101        5S          4.85161   0.09111   0.87642   0.04430  -0.12481
 102        6S         13.79782  -0.23281  -7.16598   5.28805  10.02369
 103        7PX         0.00003  -0.01623   0.00017   0.00010  -0.00010
 104        7PY         0.02345  -0.00031  -0.01325  -0.00395   0.01632
 105        7PZ        -0.00127  -0.00001   0.00377  -0.01091  -0.01453
 106        8PX         0.00105  -0.19158   0.00237   0.00090  -0.00061
 107        8PY         0.38066  -0.00769  -0.16760  -0.05099   0.26182
 108        8PZ        -0.02834   0.00274   0.03797  -0.13888  -0.23662
 109        9PX        -0.00007   0.06216  -0.00067  -0.00038   0.00039
 110        9PY        -0.08618   0.00143   0.05155   0.01466  -0.06179
 111        9PZ         0.00147  -0.00012  -0.01556   0.04280   0.05560
 112       10PX        -0.03102   0.83829  -0.01813  -0.00795   0.00220
 113       10PY        -5.27764   0.01445   0.80014  -0.57639  -1.92745
 114       10PZ         2.67161   0.00728  -0.56787   1.39811   1.36102
 115       11PX        -0.01474  -2.38495   0.03356   0.01185  -0.04724
 116       11PY        -2.44656   0.05604  -1.70538  -1.27115  -1.48572
 117       11PZ         1.44522  -0.13746  -1.02234  -2.72778   1.55353
 118       12D 0       -0.01859  -0.00085   0.01018  -0.02333  -0.00527
 119       12D+1        0.00034  -0.01495   0.00015   0.00039  -0.00056
 120       12D-1       -0.01974   0.00222   0.00286   0.00126  -0.01695
 121       12D+2       -0.04172   0.00204  -0.04296   0.00782   0.01301
 122       12D-2        0.00035   0.02189   0.00002  -0.00017   0.00062
 123       13D 0        0.11038   0.00318  -0.05500   0.09010   0.00202
 124       13D+1       -0.00154   0.06281  -0.00053  -0.00143   0.00264
 125       13D-1        0.00368  -0.00992   0.01568  -0.04449   0.09340
 126       13D+2        0.12975  -0.00857   0.14870  -0.03766  -0.03432
 127       13D-2       -0.00156  -0.09127   0.00050   0.00114  -0.00289
 128       14D 0       -0.38066  -0.00720   0.01969  -0.18966   0.07739
 129       14D+1       -0.00098  -0.09183  -0.00336  -0.00250  -0.00649
 130       14D-1       -1.30096   0.01760   0.15510  -0.31787  -0.51002
 131       14D+2       -1.06128   0.01540  -0.31091  -0.02629  -0.31908
 132       14D-2        0.01392  -0.10400   0.00458  -0.00047   0.00298
 133       15F 0        0.01731  -0.00060  -0.02928   0.00248   0.00770
 134       15F+1       -0.00095  -0.01114   0.00028   0.00066   0.00031
 135       15F-1        0.03746   0.00000  -0.00633  -0.01323   0.00290
 136       15F+2        0.01969   0.00011  -0.00831   0.02669   0.02174
 137       15F-2       -0.00037   0.00527  -0.00040  -0.00063  -0.00020
 138       15F+3       -0.00007   0.05129   0.00023  -0.00009   0.00036
 139       15F-3        0.01591   0.00046   0.01989   0.00416  -0.03298
 140       16F 0       -0.07303   0.00022   0.06279  -0.04578   0.00472
 141       16F+1        0.00192   0.00732  -0.00043  -0.00127  -0.00075
 142       16F-1       -0.12830   0.00001   0.03441   0.02590   0.00166
 143       16F+2       -0.10461  -0.00091   0.01792  -0.07630  -0.03849
 144       16F-2        0.00118  -0.02330   0.00123   0.00180  -0.00030
 145       16F+3        0.00016  -0.13106   0.00034   0.00031  -0.00128
 146       16F-3       -0.00380  -0.00014  -0.01998  -0.01078   0.07460
 147 4   S  1S          0.00000   0.00010   0.00000   0.00196  -0.00376
 148        2S          0.00000   0.00166   0.00000  -0.00008  -0.06283
 149        3S          0.00000   0.00447   0.00000   0.06136  -0.16912
 150        4S          0.00000   0.00011   0.00000   0.10453   0.02244
 151        5S          0.00000  -0.16597   0.00000  -3.77412   2.29222
 152        6S          0.00000  -0.36050   0.00000 -15.53493   4.10988
 153        7PX         0.00000  -0.01983   0.00000   0.00039  -0.00027
 154        7PY         0.01748   0.00000   0.00355   0.00000   0.00000
 155        7PZ         0.00000   0.00044   0.00000  -0.00754  -0.00122
 156        8PX         0.00000  -0.08865   0.00000   0.00122   0.00032
 157        8PY         0.26719   0.00000   0.13252   0.00000   0.00000
 158        8PZ         0.00000   0.01359   0.00000  -0.01167  -0.13045
 159        9PX         0.00000   0.07439   0.00000  -0.00159   0.00108
 160        9PY        -0.06532   0.00000  -0.01178   0.00000   0.00000
 161        9PZ         0.00000  -0.00128   0.00000   0.02090   0.00092
 162       10PX         0.00000  -0.63683   0.00000   0.00731  -0.05689
 163       10PY        -3.46963   0.00000  -0.40832   0.00000   0.00000
 164       10PZ         0.00000   0.04389   0.00000   3.57590  -0.33099
 165       11PX         0.00000  -4.10913   0.00000   0.11778  -0.09456
 166       11PY        -0.05810   0.00000  -4.74498   0.00000   0.00000
 167       11PZ         0.00000  -0.07097   0.00000  -1.07781   0.78590
 168       12D 0        0.00000  -0.01927   0.00000  -0.45664   0.32951
 169       12D+1        0.00000  -0.34322   0.00000   0.00801  -0.00609
 170       12D-1       -0.07891   0.00000  -0.36410   0.00000   0.00000
 171       12D+2        0.00000   0.00082   0.00000   0.11219  -0.14718
 172       12D-2        0.00057   0.00000  -0.00431   0.00000   0.00000
 173       13D 0        0.00000   0.00388   0.00000   0.08591  -0.08186
 174       13D+1        0.00000   0.07019   0.00000  -0.00094   0.00137
 175       13D-1        0.04213   0.00000   0.07056   0.00000   0.00000
 176       13D+2        0.00000  -0.00042   0.00000  -0.03294   0.03041
 177       13D-2        0.00012   0.00000   0.00111   0.00000   0.00000
 178       14D 0        0.00000   0.04944   0.00000   0.19276  -1.15977
 179       14D+1        0.00000   1.23848   0.00000  -0.01612   0.04679
 180       14D-1        1.45179   0.00000   0.92298   0.00000   0.00000
 181       14D+2        0.00000  -0.01325   0.00000  -0.44347   0.17482
 182       14D-2        0.02351   0.00000   0.00080   0.00000   0.00000
 183       15F 0        0.00000   0.00048   0.00000  -0.01311  -0.01295
 184       15F+1        0.00000   0.01521   0.00000   0.00019   0.00152
 185       15F-1       -0.06905   0.00000   0.00566   0.00000   0.00000
 186       15F+2        0.00000  -0.00058   0.00000  -0.01300   0.00190
 187       15F-2        0.00060   0.00000  -0.00104   0.00000   0.00000
 188       15F+3        0.00000   0.02669   0.00000  -0.00035  -0.00009
 189       15F-3       -0.00271   0.00000   0.04047   0.00000   0.00000
 190       16F 0        0.00000  -0.00273   0.00000   0.07795   0.13216
 191       16F+1        0.00000  -0.01684   0.00000  -0.00342  -0.00424
 192       16F-1        0.10262   0.00000   0.01295   0.00000   0.00000
 193       16F+2        0.00000   0.00553   0.00000   0.07203   0.01707
 194       16F-2       -0.00585   0.00000   0.00375   0.00000   0.00000
 195       16F+3        0.00000  -0.06010   0.00000   0.00125   0.00093
 196       16F-3        0.01671   0.00000  -0.09416   0.00000   0.00000
                         196
     Eigenvalues --     0.00000
   1 1   C  1S         -0.03320
   2        2S         -0.11997
   3        3S          0.13339
   4        4S          2.58593
   5        5S         20.99202
   6        6PX         0.00068
   7        6PY         0.00000
   8        6PZ         0.02244
   9        7PX        -0.00412
  10        7PY         0.00000
  11        7PZ        -0.20358
  12        8PX        -0.00334
  13        8PY         0.00000
  14        8PZ         1.17458
  15        9PX         0.11636
  16        9PY         0.00000
  17        9PZ         3.35238
  18       10D 0        0.01259
  19       10D+1        0.00024
  20       10D-1        0.00000
  21       10D+2       -0.03503
  22       10D-2        0.00000
  23       11D 0       -0.33358
  24       11D+1       -0.00293
  25       11D-1        0.00000
  26       11D+2        0.17045
  27       11D-2        0.00000
  28       12D 0       -1.00187
  29       12D+1        0.00287
  30       12D-1        0.00000
  31       12D+2       -0.74206
  32       12D-2        0.00000
  33       13F 0       -0.02584
  34       13F+1       -0.00014
  35       13F-1        0.00000
  36       13F+2       -0.00085
  37       13F-2        0.00000
  38       13F+3       -0.00001
  39       13F-3        0.00000
  40       14F 0       -0.14213
  41       14F+1       -0.00284
  42       14F-1        0.00000
  43       14F+2       -0.11980
  44       14F-2        0.00000
  45       14F+3        0.00188
  46       14F-3        0.00000
  47 2   Cl 1S         -0.00100
  48        2S         -0.01377
  49        3S         -0.03856
  50        4S         -0.00155
  51        5S          0.37734
  52        6S         -3.45288
  53        7PX        -0.00033
  54        7PY         0.00803
  55        7PZ         0.00363
  56        8PX        -0.00441
  57        8PY         0.14274
  58        8PZ         0.08844
  59        9PX         0.00126
  60        9PY        -0.02907
  61        9PZ        -0.01137
  62       10PX         0.01379
  63       10PY         0.13663
  64       10PZ        -0.42022
  65       11PX        -0.02531
  66       11PY        -0.73531
  67       11PZ        -1.01942
  68       12D 0        0.00841
  69       12D+1        0.00031
  70       12D-1       -0.01034
  71       12D+2       -0.00800
  72       12D-2       -0.00002
  73       13D 0       -0.04126
  74       13D+1       -0.00139
  75       13D-1        0.08792
  76       13D+2       -0.00853
  77       13D-2       -0.00036
  78       14D 0       -0.05245
  79       14D+1        0.00602
  80       14D-1       -0.17105
  81       14D+2       -0.16915
  82       14D-2        0.00006
  83       15F 0       -0.00508
  84       15F+1       -0.00033
  85       15F-1        0.00673
  86       15F+2       -0.00372
  87       15F-2       -0.00057
  88       15F+3        0.00026
  89       15F-3       -0.00208
  90       16F 0        0.00446
  91       16F+1        0.00106
  92       16F-1       -0.02074
  93       16F+2       -0.00463
  94       16F-2        0.00109
  95       16F+3       -0.00008
  96       16F-3       -0.01063
  97 3   Cl 1S         -0.00100
  98        2S         -0.01377
  99        3S         -0.03856
 100        4S         -0.00155
 101        5S          0.37734
 102        6S         -3.45288
 103        7PX        -0.00033
 104        7PY        -0.00803
 105        7PZ         0.00363
 106        8PX        -0.00441
 107        8PY        -0.14274
 108        8PZ         0.08844
 109        9PX         0.00126
 110        9PY         0.02907
 111        9PZ        -0.01137
 112       10PX         0.01379
 113       10PY        -0.13663
 114       10PZ        -0.42022
 115       11PX        -0.02531
 116       11PY         0.73531
 117       11PZ        -1.01942
 118       12D 0        0.00841
 119       12D+1        0.00031
 120       12D-1        0.01034
 121       12D+2       -0.00800
 122       12D-2        0.00002
 123       13D 0       -0.04126
 124       13D+1       -0.00139
 125       13D-1       -0.08792
 126       13D+2       -0.00853
 127       13D-2        0.00036
 128       14D 0       -0.05245
 129       14D+1        0.00602
 130       14D-1        0.17105
 131       14D+2       -0.16915
 132       14D-2       -0.00006
 133       15F 0       -0.00508
 134       15F+1       -0.00033
 135       15F-1       -0.00673
 136       15F+2       -0.00372
 137       15F-2        0.00057
 138       15F+3        0.00026
 139       15F-3        0.00208
 140       16F 0        0.00446
 141       16F+1        0.00106
 142       16F-1        0.02074
 143       16F+2       -0.00463
 144       16F-2       -0.00109
 145       16F+3       -0.00008
 146       16F-3        0.01063
 147 4   S  1S         -0.00436
 148        2S         -0.11031
 149        3S         -0.23231
 150        4S          0.10630
 151        5S          2.76001
 152        6S        -18.13474
 153        7PX        -0.00029
 154        7PY         0.00000
 155        7PZ        -0.04534
 156        8PX        -0.00503
 157        8PY         0.00000
 158        8PZ        -0.90994
 159        9PX         0.00094
 160        9PY         0.00000
 161        9PZ         0.14223
 162       10PX         0.01947
 163       10PY         0.00000
 164       10PZ         3.43745
 165       11PX        -0.00401
 166       11PY         0.00000
 167       11PZ         4.74911
 168       12D 0        0.31490
 169       12D+1        0.00105
 170       12D-1        0.00000
 171       12D+2        0.09087
 172       12D-2        0.00000
 173       13D 0       -0.00646
 174       13D+1        0.00024
 175       13D-1        0.00000
 176       13D+2       -0.02091
 177       13D-2        0.00000
 178       14D 0       -1.71180
 179       14D+1       -0.01638
 180       14D-1        0.00000
 181       14D+2        0.03788
 182       14D-2        0.00000
 183       15F 0       -0.08743
 184       15F+1       -0.00198
 185       15F-1        0.00000
 186       15F+2        0.01202
 187       15F-2        0.00000
 188       15F+3        0.00040
 189       15F-3        0.00000
 190       16F 0        0.18834
 191       16F+1        0.00563
 192       16F-1        0.00000
 193       16F+2       -0.08503
 194       16F-2        0.00000
 195       16F+3       -0.00182
 196       16F-3        0.00000
          Condensed to atoms (all electrons):
              1          2          3          4
     1  C    5.673259   0.071280   0.071280   0.179142
     2  Cl   0.071280  17.191955  -0.119000  -0.128543
     3  Cl   0.071280  -0.119000  17.191955  -0.128543
     4  S    0.179142  -0.128543  -0.128543  16.051599
 Mulliken atomic charges:
              1
     1  C    0.005038
     2  Cl  -0.015692
     3  Cl  -0.015692
     4  S    0.026345
 Sum of Mulliken atomic charges =   0.00000
 Mulliken charges with hydrogens summed into heavy atoms:
              1
     1  C    0.005038
     2  Cl  -0.015692
     3  Cl  -0.015692
     4  S    0.026345
 Sum of Mulliken charges with hydrogens summed into heavy atoms =   0.00000
 Electronic spatial extent (au):  <R**2>=            690.6796
 Charge=              0.0000 electrons
 Dipole moment (field-independent basis, Debye):
    X=              0.0054    Y=              0.0000    Z=             -0.4349  Tot=              0.4349
 Quadrupole moment (field-independent basis, Debye-Ang):
   XX=            -43.1527   YY=            -43.2930   ZZ=            -42.5378
   XY=              0.0000   XZ=              0.0039   YZ=              0.0000
 Traceless Quadrupole moment (field-independent basis, Debye-Ang):
   XX=             -0.1582   YY=             -0.2985   ZZ=              0.4567
   XY=              0.0000   XZ=              0.0039   YZ=              0.0000
 Octapole moment (field-independent basis, Debye-Ang**2):
  XXX=              0.1869  YYY=              0.0000  ZZZ=             81.6770  XYY=              0.1234
  XXY=              0.0000  XXZ=             27.1314  XZZ=              0.1283  YZZ=              0.0000
  YYZ=             18.9954  XYZ=              0.0000
 Hexadecapole moment (field-independent basis, Debye-Ang**3):
 XXXX=            -50.8970 YYYY=           -340.4856 ZZZZ=           -477.7222 XXXY=              0.0000
 XXXZ=             -0.0663 YYYX=              0.0000 YYYZ=              0.0000 ZZZX=             -0.1525
 ZZZY=              0.0000 XXYY=            -69.2261 XXZZ=            -89.7493 YYZZ=           -127.3471
 XXYZ=              0.0000 YYXZ=             -0.1561 ZZXY=              0.0000
 N-N= 2.448913709891D+02 E-N=-3.713351576008D+03  KE= 1.355036236607D+03
 1\1\GINC-TRAPISTA\SP\RQCISD-FC\Aug-CC-pVTZ\C1Cl2S1\BRUNS\27-Nov-2021\0
 \\# qcisd/aug-cc-pvtz nosymm density=current output=wfn\\cl2cs-wavefun
 ction\\0,1\C,0,-0.01,0.,-0.522914\Cl,0,0.,-1.430735,-1.5009\Cl,0,0.,1.
 430735,-1.5009\S,0,0.,0.,1.081815\\Version=EM64L-G09RevB.01\HF=-1354.4
 260031\MP2=-1355.1503819\MP3=-1355.1829813\MP4D=-1355.2047622\MP4DQ=-1
 355.1798753\MP4SDQ=-1355.1866989\QCISD=-1355.1842128\RMSD=9.629e-09\Di
 pole=0.0021164,0.,-0.1711087\Quadrupole=-0.1176436,-0.2218913,0.339534
 9,0.,0.0028935,0.\PG=CS [SG(C1S1),X(Cl2)]\\@

 Writing a WFN file to GAUSSIAN.wfn.


 IT IS THE GODS' CUSTOM TO BRING LOW ALL THINGS OF SURPASSING GREATNESS.
     -- HERODOTUS
 IT IS THE LOFTY PINE THAT BY THE STORM IS OFTENER TOSSED;
 TOWERS FALL WITH HEAVIER CRASH WHICH HIGHER SOAR.
     -- HORACE
 THE BIGGER THEY COME, THE HARDER THEY FALL.
     -- BOB FITZSIMONS HEAVYWEIGHT CHAMPION, 1897-1899
 Job cpu time:  0 days  2 hours 17 minutes 53.6 seconds.
 File lengths (MBytes):  RWF=  18573 Int=      0 D2E=      0 Chk=      3 Scr=      1
 Normal termination of Gaussian 09 at Sat Nov 27 19:54:40 2021.
