 Entering Gaussian System, Link 0=/home/bruns/programas/chemistry/gaussian/g09/g09
 Input=GAUSSIAN.com
 Output=GAUSSIAN.log
 Initial command:
 /home/bruns/programas/chemistry/gaussian/g09/l1.exe /home/bruns/programas/chemistry/gaussian/work/Gau-54861.inp -scrdir=/home/bruns/programas/chemistry/gaussian/work/
 Entering Link 1 = /home/bruns/programas/chemistry/gaussian/g09/l1.exe PID=     54863.
  
 Copyright (c) 1988,1990,1992,1993,1995,1998,2003,2009,2010,
            Gaussian, Inc.  All Rights Reserved.
  
 This is part of the Gaussian(R) 09 program.  It is based on
 the Gaussian(R) 03 system (copyright 2003, Gaussian, Inc.),
 the Gaussian(R) 98 system (copyright 1998, Gaussian, Inc.),
 the Gaussian(R) 94 system (copyright 1995, Gaussian, Inc.),
 the Gaussian 92(TM) system (copyright 1992, Gaussian, Inc.),
 the Gaussian 90(TM) system (copyright 1990, Gaussian, Inc.),
 the Gaussian 88(TM) system (copyright 1988, Gaussian, Inc.),
 the Gaussian 86(TM) system (copyright 1986, Carnegie Mellon
 University), and the Gaussian 82(TM) system (copyright 1983,
 Carnegie Mellon University). Gaussian is a federally registered
 trademark of Gaussian, Inc.
  
 This software contains proprietary and confidential information,
 including trade secrets, belonging to Gaussian, Inc.
  
 This software is provided under written license and may be
 used, copied, transmitted, or stored only in accord with that
 written license.
  
 The following legend is applicable only to US Government
 contracts under FAR:
  
                    RESTRICTED RIGHTS LEGEND
  
 Use, reproduction and disclosure by the US Government is
 subject to restrictions as set forth in subparagraphs (a)
 and (c) of the Commercial Computer Software - Restricted
 Rights clause in FAR 52.227-19.
  
 Gaussian, Inc.
 340 Quinnipiac St., Bldg. 40, Wallingford CT 06492
  
  
 ---------------------------------------------------------------
 Warning -- This program may not be used in any manner that
 competes with the business of Gaussian, Inc. or will provide
 assistance to any competitor of Gaussian, Inc.  The licensee
 of this program is prohibited from giving any competitor of
 Gaussian, Inc. access to this program.  By using this program,
 the user acknowledges that Gaussian, Inc. is engaged in the
 business of creating and licensing software in the field of
 computational chemistry and represents and warrants to the
 licensee that it is not a competitor of Gaussian, Inc. and that
 it will not use this program in any manner prohibited above.
 ---------------------------------------------------------------
  

 Cite this work as:
 Gaussian 09, Revision B.01,
 M. J. Frisch, G. W. Trucks, H. B. Schlegel, G. E. Scuseria, 
 M. A. Robb, J. R. Cheeseman, G. Scalmani, V. Barone, B. Mennucci, 
 G. A. Petersson, H. Nakatsuji, M. Caricato, X. Li, H. P. Hratchian, 
 A. F. Izmaylov, J. Bloino, G. Zheng, J. L. Sonnenberg, M. Hada, 
 M. Ehara, K. Toyota, R. Fukuda, J. Hasegawa, M. Ishida, T. Nakajima, 
 Y. Honda, O. Kitao, H. Nakai, T. Vreven, J. A. Montgomery, Jr., 
 J. E. Peralta, F. Ogliaro, M. Bearpark, J. J. Heyd, E. Brothers, 
 K. N. Kudin, V. N. Staroverov, T. Keith, R. Kobayashi, J. Normand, 
 K. Raghavachari, A. Rendell, J. C. Burant, S. S. Iyengar, J. Tomasi, 
 M. Cossi, N. Rega, J. M. Millam, M. Klene, J. E. Knox, J. B. Cross, 
 V. Bakken, C. Adamo, J. Jaramillo, R. Gomperts, R. E. Stratmann, 
 O. Yazyev, A. J. Austin, R. Cammi, C. Pomelli, J. W. Ochterski, 
 R. L. Martin, K. Morokuma, V. G. Zakrzewski, G. A. Voth, 
 P. Salvador, J. J. Dannenberg, S. Dapprich, A. D. Daniels, 
 O. Farkas, J. B. Foresman, J. V. Ortiz, J. Cioslowski, 
 and D. J. Fox, Gaussian, Inc., Wallingford CT, 2010.
 
 ******************************************
 Gaussian 09:  EM64L-G09RevB.01 12-Aug-2010
                27-Nov-2021 
 ******************************************
 %nproc=8
 Will use up to    8 processors via shared memory.
 %mem=8GB
 -----------------------------------------------------
 # qcisd/aug-cc-pvtz nosymm density=current output=wfn
 -----------------------------------------------------
 1/30=1,38=1/1;
 2/12=2,15=1,17=6,18=5,40=1/2;
 3/5=16,6=1,7=10,11=9,16=1,25=1,30=1,71=1/1,2,3;
 4//1;
 5/5=2,38=5/2;
 8/6=4,9=120000,10=1/1,4;
 9/5=8,15=1/13;
 11/28=-7,31=1,32=3,42=3/11;
 10/5=6,13=10,31=1/2;
 6/7=2,8=2,9=2,10=2,22=-1,31=1/1;
 99/5=1,6=1100,9=1/99;
 ------------------
 cl2cs-wavefunction
 ------------------
 Symbolic Z-matrix:
 Charge =  0 Multiplicity = 1
 C                     0.        0.       -0.52291 
 Cl                    0.       -1.43074  -1.5009 
 Cl                    0.        1.43074  -1.5009 
 S                     0.        0.        1.08181 
 
                          Input orientation:                          
 ---------------------------------------------------------------------
 Center     Atomic      Atomic             Coordinates (Angstroms)
 Number     Number       Type             X           Y           Z
 ---------------------------------------------------------------------
      1          6           0        0.000000    0.000000   -0.522914
      2         17           0        0.000000   -1.430735   -1.500900
      3         17           0        0.000000    1.430735   -1.500900
      4         16           0        0.000000    0.000000    1.081815
 ---------------------------------------------------------------------
                    Distance matrix (angstroms):
                    1          2          3          4
     1  C    0.000000
     2  Cl   1.733049   0.000000
     3  Cl   1.733049   2.861470   0.000000
     4  S    1.604729   2.952528   2.952528   0.000000
 Symmetry turned off by external request.
 Stoichiometry    CCl2S
 Framework group  C2V[C2(CS),SGV(Cl2)]
 Deg. of freedom     3
 Full point group                 C2V     NOp   4
 Rotational constants (GHZ):      3.5301033      3.4459009      1.7437470
 Standard basis: Aug-CC-pVTZ (5D, 7F)
 Integral buffers will be    131072 words long.
 Raffenetti 1 integral format.
 Two-electron integral symmetry is turned off.
   196 basis functions,   414 primitive gaussians,   232 cartesian basis functions
    28 alpha electrons       28 beta electrons
       nuclear repulsion energy       244.8930225845 Hartrees.
 NAtoms=    4 NActive=    4 NUniq=    4 SFac= 1.00D+00 NAtFMM=   50 NAOKFM=F Big=F
 One-electron integrals computed using PRISM.
 NBasis=   196 RedAO= T  NBF=   196
 NBsUse=   196 1.00D-06 NBFU=   196
 Harris functional with IExCor=  205 diagonalized for initial guess.
 ExpMin= 3.51D-02 ExpMax= 4.56D+05 ExpMxC= 1.44D+03 IAcc=3 IRadAn=         0 AccDes= 0.00D+00
 HarFok:  IExCor=  205 AccDes= 0.00D+00 IRadAn=         0 IDoV= 1
 ScaDFX=  1.000000  1.000000  1.000000  1.000000
 FoFCou: FMM=F IPFlag=           0 FMFlag=      100000 FMFlg1=           0
         NFxFlg=           0 DoJE=T BraDBF=F KetDBF=T FulRan=T
         Omega=  0.000000  0.000000  1.000000  0.000000  0.000000 ICntrl=     500 IOpCl=  0
         NMat0=    1 NMatS0=    1 NMatT0=    0 NMatD0=    1 NMtDS0=    0 NMtDT0=    0
         I1Cent=           4 NGrid=           0.
 Symmetry not used in FoFCou.
 Requested convergence on RMS density matrix=1.00D-08 within 128 cycles.
 Requested convergence on MAX density matrix=1.00D-06.
 Requested convergence on             energy=1.00D-06.
 No special actions if energy rises.
 Keep R1 ints in memory in canonical form, NReq=371777346.
 SCF Done:  E(RHF) =  -1354.42602442     A.U. after   12 cycles
             Convg  =    0.9618D-08             -V/T =  2.0001
 ExpMin= 3.51D-02 ExpMax= 4.56D+05 ExpMxC= 1.44D+03 IAcc=3 IRadAn=         5 AccDes= 0.00D+00
 HarFok:  IExCor=  205 AccDes= 0.00D+00 IRadAn=         5 IDoV=-2
 ScaDFX=  1.000000  1.000000  1.000000  1.000000
 Range of M.O.s used for correlation:    17   196
 NBasis=   196 NAE=    28 NBE=    28 NFC=    16 NFV=     0
 NROrb=    180 NOA=    12 NOB=    12 NVA=   168 NVB=   168

 **** Warning!!: The largest alpha MO coefficient is  0.31158878D+02

 Semi-Direct transformation.
 ModeAB=           2 MOrb=            12 LenV=    1072679875
 LASXX=     33405819 LTotXX=    33405819 LenRXX=    33405819
 LTotAB=    33954012 MaxLAS=    58380480 LenRXY=    58380480
 NonZer=    66811638 LenScr=   100987392 LnRSAI=           0
 LnScr1=           0 LExtra=           0 Total=    192773691
 MaxDsk=          -1 SrtSym=           F ITran=            4
 JobTyp=0 Pass  1:  I=   1 to  12.
 (rs|ai) integrals will be sorted in core.
 Spin components of T(2) and E(2):
     alpha-alpha T2 =       0.3952970085D-01 E2=     -0.9366364558D-01
     alpha-beta  T2 =       0.2072460574D+00 E2=     -0.5370467206D+00
     beta-beta   T2 =       0.3952970085D-01 E2=     -0.9366364558D-01
 ANorm=    0.1134154072D+01
 E2 =    -0.7243740118D+00 EUMP2 =    -0.13551503984330D+04
 R2 and R3 integrals will be kept in memory, NReq=   736864364.
 Iterations=  50 Convergence= 0.100D-07
 Iteration Nr.   1
 **********************
 DD1Dir will call FoFMem   1 times, MxPair=       156
 NAB=    78 NAA=     0 NBB=     0.
 MP4(R+Q)=  0.24886082D-01
 E3=       -0.32600081D-01        EUMP3=      -0.13551829985D+04
 E4(DQ)=    0.31061900D-02        UMP4(DQ)=   -0.13551798923D+04
 E4(SDQ)=  -0.37169464D-02        UMP4(SDQ)=  -0.13551867155D+04
 DE(Corr)= -0.73208801     E(Corr)=     -1355.1581124    
 NORM(A)=   0.11380816D+01
 Iteration Nr.   2
 **********************
 DD1Dir will call FoFMem   1 times, MxPair=       156
 NAB=    78 NAA=     0 NBB=     0.
 DE(Corr)= -0.75642008     E(CORR)=     -1355.1824445     Delta=-2.43D-02
 NORM(A)=   0.11490803D+01
 Iteration Nr.   3
 **********************
 DD1Dir will call FoFMem   1 times, MxPair=       156
 NAB=    78 NAA=     0 NBB=     0.
 DE(Corr)= -0.75560346     E(CORR)=     -1355.1816279     Delta= 8.17D-04
 NORM(A)=   0.11518235D+01
 Iteration Nr.   4
 **********************
 DD1Dir will call FoFMem   1 times, MxPair=       156
 NAB=    78 NAA=     0 NBB=     0.
 DE(Corr)= -0.75786624     E(CORR)=     -1355.1838907     Delta=-2.26D-03
 NORM(A)=   0.11529006D+01
 Iteration Nr.   5
 **********************
 DD1Dir will call FoFMem   1 times, MxPair=       156
 NAB=    78 NAA=     0 NBB=     0.
 DE(Corr)= -0.75814435     E(CORR)=     -1355.1841688     Delta=-2.78D-04
 NORM(A)=   0.11534379D+01
 Iteration Nr.   6
 **********************
 DD1Dir will call FoFMem   1 times, MxPair=       156
 NAB=    78 NAA=     0 NBB=     0.
 DE(Corr)= -0.75819727     E(CORR)=     -1355.1842217     Delta=-5.29D-05
 NORM(A)=   0.11535009D+01
 Iteration Nr.   7
 **********************
 DD1Dir will call FoFMem   1 times, MxPair=       156
 NAB=    78 NAA=     0 NBB=     0.
 DE(Corr)= -0.75820453     E(CORR)=     -1355.1842290     Delta=-7.26D-06
 NORM(A)=   0.11535063D+01
 Iteration Nr.   8
 **********************
 DD1Dir will call FoFMem   1 times, MxPair=       156
 NAB=    78 NAA=     0 NBB=     0.
 DE(Corr)= -0.75820263     E(CORR)=     -1355.1842271     Delta= 1.90D-06
 NORM(A)=   0.11535128D+01
 Iteration Nr.   9
 **********************
 DD1Dir will call FoFMem   1 times, MxPair=       156
 NAB=    78 NAA=     0 NBB=     0.
 DE(Corr)= -0.75820270     E(CORR)=     -1355.1842271     Delta=-6.31D-08
 NORM(A)=   0.11535117D+01
 Iteration Nr.  10
 **********************
 DD1Dir will call FoFMem   1 times, MxPair=       156
 NAB=    78 NAA=     0 NBB=     0.
 DE(Corr)= -0.75820368     E(CORR)=     -1355.1842281     Delta=-9.83D-07
 NORM(A)=   0.11535135D+01
 Iteration Nr.  11
 **********************
 DD1Dir will call FoFMem   1 times, MxPair=       156
 NAB=    78 NAA=     0 NBB=     0.
 DE(Corr)= -0.75820437     E(CORR)=     -1355.1842288     Delta=-6.89D-07
 NORM(A)=   0.11535145D+01
 Iteration Nr.  12
 **********************
 DD1Dir will call FoFMem   1 times, MxPair=       156
 NAB=    78 NAA=     0 NBB=     0.
 DE(Corr)= -0.75820459     E(CORR)=     -1355.1842290     Delta=-2.25D-07
 NORM(A)=   0.11535152D+01
 Iteration Nr.  13
 **********************
 DD1Dir will call FoFMem   1 times, MxPair=       156
 NAB=    78 NAA=     0 NBB=     0.
 DE(Corr)= -0.75820488     E(CORR)=     -1355.1842293     Delta=-2.88D-07
 NORM(A)=   0.11535157D+01
 Iteration Nr.  14
 **********************
 DD1Dir will call FoFMem   1 times, MxPair=       156
 NAB=    78 NAA=     0 NBB=     0.
 DE(Corr)= -0.75820491     E(CORR)=     -1355.1842293     Delta=-2.87D-08
 NORM(A)=   0.11535159D+01
 Iteration Nr.  15
 **********************
 DD1Dir will call FoFMem   1 times, MxPair=       156
 NAB=    78 NAA=     0 NBB=     0.
 DE(Corr)= -0.75820496     E(CORR)=     -1355.1842294     Delta=-5.52D-08
 NORM(A)=   0.11535160D+01
 Iteration Nr.  16
 **********************
 DD1Dir will call FoFMem   1 times, MxPair=       156
 NAB=    78 NAA=     0 NBB=     0.
 DE(Corr)= -0.75820498     E(CORR)=     -1355.1842294     Delta=-1.23D-08
 NORM(A)=   0.11535160D+01
 Iteration Nr.  17
 **********************
 DD1Dir will call FoFMem   1 times, MxPair=       156
 NAB=    78 NAA=     0 NBB=     0.
 DE(Corr)= -0.75820498     E(CORR)=     -1355.1842294     Delta= 1.11D-10
 NORM(A)=   0.11535160D+01
 Iteration Nr.  18
 **********************
 DD1Dir will call FoFMem   1 times, MxPair=       156
 NAB=    78 NAA=     0 NBB=     0.
 DE(Corr)= -0.75820498     E(CORR)=     -1355.1842294     Delta=-4.39D-09
 NORM(A)=   0.11535160D+01
 Iteration Nr.  19
 **********************
 DD1Dir will call FoFMem   1 times, MxPair=       156
 NAB=    78 NAA=     0 NBB=     0.
 DE(Corr)= -0.75820498     E(CORR)=     -1355.1842294     Delta= 1.77D-09
 NORM(A)=   0.11535160D+01
 Largest amplitude= 8.91D-02

 Z-AMPLITUDE ITERATIONS

 Iteration Nr.   1
 **********************
 DD1Dir will call FoFMem   1 times, MxPair=       156
 NAB=    78 NAA=     0 NBB=     0.
 DE(Z)  -0.72636084D+00          E(Z)=    -0.13551523853D+04
 NORM(A)=   0.11535046D+01
 Iteration Nr.   2
 **********************
 DD1Dir will call FoFMem   1 times, MxPair=       156
 NAB=    78 NAA=     0 NBB=     0.
 DE(Z)  -0.72636053D+00          E(Z)=    -0.13551523850D+04
 NORM(A)=   0.11535117D+01
 Iteration Nr.   3
 **********************
 DD1Dir will call FoFMem   1 times, MxPair=       156
 NAB=    78 NAA=     0 NBB=     0.
 DE(Z)  -0.72636072D+00          E(Z)=    -0.13551523851D+04
 NORM(A)=   0.11535215D+01
 Iteration Nr.   4
 **********************
 DD1Dir will call FoFMem   1 times, MxPair=       156
 NAB=    78 NAA=     0 NBB=     0.
 DE(Z)  -0.72636099D+00          E(Z)=    -0.13551523854D+04
 NORM(A)=   0.11535340D+01
 Iteration Nr.   5
 **********************
 DD1Dir will call FoFMem   1 times, MxPair=       156
 NAB=    78 NAA=     0 NBB=     0.
 DE(Z)  -0.72636134D+00          E(Z)=    -0.13551523858D+04
 NORM(A)=   0.11402577D+01
 Iteration Nr.   6
 **********************
 DD1Dir will call FoFMem   1 times, MxPair=       156
 NAB=    78 NAA=     0 NBB=     0.
 DE(Z)  -0.72596352D+00          E(Z)=    -0.13551519879D+04
 NORM(A)=   0.11402924D+01
 Iteration Nr.   7
 **********************
 DD1Dir will call FoFMem   1 times, MxPair=       156
 NAB=    78 NAA=     0 NBB=     0.
 DE(Z)  -0.72598046D+00          E(Z)=    -0.13551520049D+04
 NORM(A)=   0.11402764D+01
 Iteration Nr.   8
 **********************
 DD1Dir will call FoFMem   1 times, MxPair=       156
 NAB=    78 NAA=     0 NBB=     0.
 DE(Z)  -0.72597343D+00          E(Z)=    -0.13551519979D+04
 NORM(A)=   0.11402761D+01
 Iteration Nr.   9
 **********************
 DD1Dir will call FoFMem   1 times, MxPair=       156
 NAB=    78 NAA=     0 NBB=     0.
 DE(Z)  -0.72597403D+00          E(Z)=    -0.13551519985D+04
 NORM(A)=   0.11402771D+01
 Iteration Nr.  10
 **********************
 DD1Dir will call FoFMem   1 times, MxPair=       156
 NAB=    78 NAA=     0 NBB=     0.
 DE(Z)  -0.72597402D+00          E(Z)=    -0.13551519984D+04
 NORM(A)=   0.11402780D+01
 Iteration Nr.  11
 **********************
 DD1Dir will call FoFMem   1 times, MxPair=       156
 NAB=    78 NAA=     0 NBB=     0.
 DE(Z)  -0.72597414D+00          E(Z)=    -0.13551519986D+04
 NORM(A)=   0.11402781D+01
 Iteration Nr.  12
 **********************
 DD1Dir will call FoFMem   1 times, MxPair=       156
 NAB=    78 NAA=     0 NBB=     0.
 DE(Z)  -0.72597425D+00          E(Z)=    -0.13551519987D+04
 NORM(A)=   0.11402782D+01
 Iteration Nr.  13
 **********************
 DD1Dir will call FoFMem   1 times, MxPair=       156
 NAB=    78 NAA=     0 NBB=     0.
 DE(Z)  -0.72597412D+00          E(Z)=    -0.13551519985D+04
 NORM(A)=   0.11402781D+01
 Iteration Nr.  14
 **********************
 DD1Dir will call FoFMem   1 times, MxPair=       156
 NAB=    78 NAA=     0 NBB=     0.
 DE(Z)  -0.72597418D+00          E(Z)=    -0.13551519986D+04
 NORM(A)=   0.11402781D+01
 Iteration Nr.  15
 **********************
 DD1Dir will call FoFMem   1 times, MxPair=       156
 NAB=    78 NAA=     0 NBB=     0.
 DE(Z)  -0.72597417D+00          E(Z)=    -0.13551519986D+04
 NORM(A)=   0.11402781D+01
 Iteration Nr.  16
 **********************
 DD1Dir will call FoFMem   1 times, MxPair=       156
 NAB=    78 NAA=     0 NBB=     0.
 DE(Z)  -0.72597417D+00          E(Z)=    -0.13551519986D+04
 NORM(A)=   0.11402781D+01
 Discarding MO integrals.
          Differentiating once with respect to electric field.
                with respect to dipole field.
          Electric field/nuclear overlap derivatives assumed to be zero.
          Keep R1 ints in memory in canonical form, NReq=367211061.
          There are     1 degrees of freedom in the 1st order CPHF.  IDoFFX=0.
 LinEq1:  Iter=  0 NonCon=     1 RMS=2.08D-03 Max=6.35D-02
 AX will form     1 AO Fock derivatives at one time.
 LinEq1:  Iter=  1 NonCon=     1 RMS=9.28D-04 Max=1.77D-02
 LinEq1:  Iter=  2 NonCon=     1 RMS=4.11D-04 Max=1.02D-02
 LinEq1:  Iter=  3 NonCon=     1 RMS=1.04D-04 Max=1.79D-03
 LinEq1:  Iter=  4 NonCon=     1 RMS=2.44D-05 Max=8.02D-04
 LinEq1:  Iter=  5 NonCon=     1 RMS=7.98D-06 Max=1.97D-04
 LinEq1:  Iter=  6 NonCon=     1 RMS=2.41D-06 Max=8.99D-05
 LinEq1:  Iter=  7 NonCon=     1 RMS=7.34D-07 Max=1.30D-05
 LinEq1:  Iter=  8 NonCon=     1 RMS=1.36D-07 Max=2.09D-06
 LinEq1:  Iter=  9 NonCon=     1 RMS=2.58D-08 Max=3.74D-07
 LinEq1:  Iter= 10 NonCon=     1 RMS=6.84D-09 Max=1.78D-07
 LinEq1:  Iter= 11 NonCon=     1 RMS=1.40D-09 Max=2.30D-08
 LinEq1:  Iter= 12 NonCon=     1 RMS=3.21D-10 Max=5.47D-09
 LinEq1:  Iter= 13 NonCon=     0 RMS=6.97D-11 Max=8.86D-10
 Linear equations converged to 1.000D-10 1.000D-09 after    13 iterations.
 End of Minotr Frequency-dependent properties file   721 does not exist.
 End of Minotr Frequency-dependent properties file   722 does not exist.

 **********************************************************************

            Population analysis using the QCI/CC density.

 **********************************************************************

     Natural Orbital Coefficients:
                           1         2         3         4         5
     Eigenvalues --     2.00004   2.00004   2.00003   2.00003   2.00003
   1 1   C  1S          0.00000  -0.00168   0.00000   0.00000   0.00000
   2        2S          0.00000   0.00038   0.00000   0.00000   0.00000
   3        3S          0.00000   0.00003   0.00000   0.00000   0.00000
   4        4S          0.00000  -0.00290   0.00000   0.00000   0.00000
   5        5S          0.00000  -0.00094   0.00000   0.00000   0.00000
   6        6PX         0.00000   0.00000   0.00000   0.00159   0.00000
   7        6PY         0.00034   0.00000   0.00000   0.00000  -0.00105
   8        6PZ         0.00000   0.00037   0.00000   0.00000   0.00000
   9        7PX         0.00000   0.00000   0.00000   0.00170   0.00000
  10        7PY         0.00046   0.00000   0.00000   0.00000  -0.00225
  11        7PZ         0.00000   0.00134   0.00000   0.00000   0.00000
  12        8PX         0.00000   0.00000   0.00000  -0.00093   0.00000
  13        8PY         0.00305   0.00000   0.00000   0.00000   0.00662
  14        8PZ         0.00000  -0.00499   0.00000   0.00000   0.00000
  15        9PX         0.00000   0.00000   0.00000  -0.00100   0.00000
  16        9PY        -0.00048   0.00000   0.00000   0.00000   0.00157
  17        9PZ         0.00000  -0.00208   0.00000   0.00000   0.00000
  18       10D 0        0.00000  -0.00034   0.00000   0.00000   0.00000
  19       10D+1        0.00000   0.00000   0.00000  -0.00028   0.00000
  20       10D-1        0.00008   0.00000   0.00000   0.00000  -0.00036
  21       10D+2        0.00000  -0.00023   0.00000   0.00000   0.00000
  22       10D-2        0.00000   0.00000   0.00035   0.00000   0.00000
  23       11D 0        0.00000   0.00022   0.00000   0.00000   0.00000
  24       11D+1        0.00000   0.00000   0.00000   0.00010   0.00000
  25       11D-1        0.00073   0.00000   0.00000   0.00000   0.00113
  26       11D+2        0.00000   0.00046   0.00000   0.00000   0.00000
  27       11D-2        0.00000   0.00000  -0.00027   0.00000   0.00000
  28       12D 0        0.00000  -0.00574   0.00000   0.00000   0.00000
  29       12D+1        0.00000   0.00000   0.00000  -0.00272   0.00000
  30       12D-1        0.00370   0.00000   0.00000   0.00000  -0.00335
  31       12D+2        0.00000  -0.00312   0.00000   0.00000   0.00000
  32       12D-2        0.00000   0.00000   0.00230   0.00000   0.00000
  33       13F 0        0.00000   0.00013   0.00000   0.00000   0.00000
  34       13F+1        0.00000   0.00000   0.00000   0.00004   0.00000
  35       13F-1       -0.00039   0.00000   0.00000   0.00000  -0.00029
  36       13F+2        0.00000  -0.00003   0.00000   0.00000   0.00000
  37       13F-2        0.00000   0.00000  -0.00015   0.00000   0.00000
  38       13F+3        0.00000   0.00000   0.00000  -0.00009   0.00000
  39       13F-3       -0.00009   0.00000   0.00000   0.00000   0.00010
  40       14F 0        0.00000  -0.00098   0.00000   0.00000   0.00000
  41       14F+1        0.00000   0.00000   0.00000   0.00005   0.00000
  42       14F-1        0.00496   0.00000   0.00000   0.00000   0.00168
  43       14F+2        0.00000  -0.00009   0.00000   0.00000   0.00000
  44       14F-2        0.00000   0.00000   0.00118   0.00000   0.00000
  45       14F+3        0.00000   0.00000   0.00000   0.00058   0.00000
  46       14F-3        0.00116   0.00000   0.00000   0.00000  -0.00012
  47 2   Cl 1S         -0.00226  -0.00130   0.00000   0.00000   0.02442
  48        2S          0.00803   0.00486   0.00000   0.00000  -0.08301
  49        3S          0.00034   0.00043   0.00000   0.00000   0.00229
  50        4S          0.00055   0.00020   0.00000   0.00000  -0.00615
  51        5S         -0.00116  -0.00194   0.00000   0.00000   0.00397
  52        6S         -0.00126  -0.00201   0.00000   0.00000   0.00410
  53        7PX         0.00000   0.00000   0.69246  -0.68717   0.00000
  54        7PY        -0.40911   0.35275   0.00000   0.00000   0.13851
  55        7PZ         0.55612  -0.59489   0.00000   0.00000   0.03121
  56        8PX         0.00000   0.00000  -0.01496   0.01335   0.00000
  57        8PY         0.01049  -0.00758   0.00000   0.00000  -0.00292
  58        8PZ        -0.01372   0.01381   0.00000   0.00000  -0.00144
  59        9PX         0.00000   0.00000   0.03672  -0.03691   0.00000
  60        9PY        -0.02131   0.01845   0.00000   0.00000   0.00766
  61        9PZ         0.02908  -0.03117   0.00000   0.00000   0.00179
  62       10PX         0.00000   0.00000  -0.00318   0.00276   0.00000
  63       10PY         0.00309  -0.00129   0.00000   0.00000   0.00065
  64       10PZ        -0.00455   0.00122   0.00000   0.00000   0.00013
  65       11PX         0.00000   0.00000  -0.00055   0.00078   0.00000
  66       11PY         0.00036  -0.00040   0.00000   0.00000   0.00030
  67       11PZ        -0.00072   0.00049   0.00000   0.00000   0.00021
  68       12D 0        0.00045  -0.00027   0.00000   0.00000   0.00008
  69       12D+1        0.00000   0.00000   0.00018  -0.00018   0.00000
  70       12D-1        0.00024  -0.00014   0.00000   0.00000   0.00011
  71       12D+2        0.00027  -0.00015   0.00000   0.00000  -0.00007
  72       12D-2        0.00000   0.00000   0.00032  -0.00020   0.00000
  73       13D 0       -0.00204   0.00102   0.00000   0.00000   0.00009
  74       13D+1        0.00000   0.00000  -0.00075   0.00057   0.00000
  75       13D-1       -0.00079   0.00094   0.00000   0.00000  -0.00048
  76       13D+2       -0.00099   0.00070   0.00000   0.00000   0.00016
  77       13D-2        0.00000   0.00000  -0.00108   0.00100   0.00000
  78       14D 0        0.00007  -0.00090   0.00000   0.00000   0.00001
  79       14D+1        0.00000   0.00000   0.00061   0.00006   0.00000
  80       14D-1        0.00004  -0.00031   0.00000   0.00000   0.00008
  81       14D+2       -0.00001  -0.00059   0.00000   0.00000   0.00016
  82       14D-2        0.00000   0.00000   0.00046  -0.00048   0.00000
  83       15F 0       -0.00001   0.00000   0.00000   0.00000   0.00004
  84       15F+1        0.00000   0.00000  -0.00007  -0.00005   0.00000
  85       15F-1        0.00001   0.00002   0.00000   0.00000   0.00003
  86       15F+2        0.00002   0.00002   0.00000   0.00000  -0.00003
  87       15F-2        0.00000   0.00000  -0.00001  -0.00003   0.00000
  88       15F+3        0.00000   0.00000  -0.00001  -0.00003   0.00000
  89       15F-3        0.00003   0.00004   0.00000   0.00000  -0.00005
  90       16F 0       -0.00038  -0.00011   0.00000   0.00000   0.00019
  91       16F+1        0.00000   0.00000   0.00013   0.00018   0.00000
  92       16F-1       -0.00093   0.00047   0.00000   0.00000  -0.00017
  93       16F+2       -0.00008  -0.00029   0.00000   0.00000   0.00030
  94       16F-2        0.00000   0.00000  -0.00033   0.00033   0.00000
  95       16F+3        0.00000   0.00000   0.00030  -0.00022   0.00000
  96       16F-3       -0.00028   0.00019   0.00000   0.00000   0.00021
  97 3   Cl 1S          0.00226  -0.00130   0.00000   0.00000  -0.02442
  98        2S         -0.00803   0.00486   0.00000   0.00000   0.08301
  99        3S         -0.00034   0.00043   0.00000   0.00000  -0.00229
 100        4S         -0.00055   0.00020   0.00000   0.00000   0.00615
 101        5S          0.00116  -0.00194   0.00000   0.00000  -0.00397
 102        6S          0.00126  -0.00201   0.00000   0.00000  -0.00410
 103        7PX         0.00000   0.00000  -0.69246  -0.68717   0.00000
 104        7PY        -0.40911  -0.35275   0.00000   0.00000   0.13851
 105        7PZ        -0.55612  -0.59489   0.00000   0.00000  -0.03121
 106        8PX         0.00000   0.00000   0.01496   0.01335   0.00000
 107        8PY         0.01049   0.00758   0.00000   0.00000  -0.00292
 108        8PZ         0.01372   0.01381   0.00000   0.00000   0.00144
 109        9PX         0.00000   0.00000  -0.03672  -0.03691   0.00000
 110        9PY        -0.02131  -0.01845   0.00000   0.00000   0.00766
 111        9PZ        -0.02908  -0.03117   0.00000   0.00000  -0.00179
 112       10PX         0.00000   0.00000   0.00318   0.00276   0.00000
 113       10PY         0.00309   0.00129   0.00000   0.00000   0.00065
 114       10PZ         0.00455   0.00122   0.00000   0.00000  -0.00013
 115       11PX         0.00000   0.00000   0.00055   0.00078   0.00000
 116       11PY         0.00036   0.00040   0.00000   0.00000   0.00030
 117       11PZ         0.00072   0.00049   0.00000   0.00000  -0.00021
 118       12D 0       -0.00045  -0.00027   0.00000   0.00000  -0.00008
 119       12D+1        0.00000   0.00000  -0.00018  -0.00018   0.00000
 120       12D-1        0.00024   0.00014   0.00000   0.00000   0.00011
 121       12D+2       -0.00027  -0.00015   0.00000   0.00000   0.00007
 122       12D-2        0.00000   0.00000   0.00032   0.00020   0.00000
 123       13D 0        0.00204   0.00102   0.00000   0.00000  -0.00009
 124       13D+1        0.00000   0.00000   0.00075   0.00057   0.00000
 125       13D-1       -0.00079  -0.00094   0.00000   0.00000  -0.00048
 126       13D+2        0.00099   0.00070   0.00000   0.00000  -0.00016
 127       13D-2        0.00000   0.00000  -0.00108  -0.00100   0.00000
 128       14D 0       -0.00007  -0.00090   0.00000   0.00000  -0.00001
 129       14D+1        0.00000   0.00000  -0.00061   0.00006   0.00000
 130       14D-1        0.00004   0.00031   0.00000   0.00000   0.00008
 131       14D+2        0.00001  -0.00059   0.00000   0.00000  -0.00016
 132       14D-2        0.00000   0.00000   0.00046   0.00048   0.00000
 133       15F 0        0.00001   0.00000   0.00000   0.00000  -0.00004
 134       15F+1        0.00000   0.00000   0.00007  -0.00005   0.00000
 135       15F-1        0.00001  -0.00002   0.00000   0.00000   0.00003
 136       15F+2       -0.00002   0.00002   0.00000   0.00000   0.00003
 137       15F-2        0.00000   0.00000  -0.00001   0.00003   0.00000
 138       15F+3        0.00000   0.00000   0.00001  -0.00003   0.00000
 139       15F-3        0.00003  -0.00004   0.00000   0.00000  -0.00005
 140       16F 0        0.00038  -0.00011   0.00000   0.00000  -0.00019
 141       16F+1        0.00000   0.00000  -0.00013   0.00018   0.00000
 142       16F-1       -0.00093  -0.00047   0.00000   0.00000  -0.00017
 143       16F+2        0.00008  -0.00029   0.00000   0.00000  -0.00030
 144       16F-2        0.00000   0.00000  -0.00033  -0.00033   0.00000
 145       16F+3        0.00000   0.00000  -0.00030  -0.00022   0.00000
 146       16F-3       -0.00028  -0.00019   0.00000   0.00000   0.00021
 147 4   S  1S          0.00000   0.00088   0.00000   0.00000   0.00000
 148        2S          0.00000  -0.00304   0.00000   0.00000   0.00000
 149        3S          0.00000   0.00038   0.00000   0.00000   0.00000
 150        4S          0.00000  -0.00004   0.00000   0.00000   0.00000
 151        5S          0.00000   0.00750   0.00000   0.00000   0.00000
 152        6S          0.00000   0.00346   0.00000   0.00000   0.00000
 153        7PX         0.00000   0.00000   0.00000   0.11531   0.00000
 154        7PY         0.08387   0.00000   0.00000   0.00000   0.94871
 155        7PZ         0.00000  -0.05734   0.00000   0.00000   0.00000
 156        8PX         0.00000   0.00000   0.00000  -0.00355   0.00000
 157        8PY        -0.00485   0.00000   0.00000   0.00000  -0.01858
 158        8PZ         0.00000   0.00097   0.00000   0.00000   0.00000
 159        9PX         0.00000   0.00000   0.00000   0.00666   0.00000
 160        9PY         0.00494   0.00000   0.00000   0.00000   0.05481
 161        9PZ         0.00000  -0.00329   0.00000   0.00000   0.00000
 162       10PX         0.00000   0.00000   0.00000   0.00145   0.00000
 163       10PY        -0.00579   0.00000   0.00000   0.00000  -0.00508
 164       10PZ         0.00000  -0.00130   0.00000   0.00000   0.00000
 165       11PX         0.00000   0.00000   0.00000   0.00024   0.00000
 166       11PY        -0.00031   0.00000   0.00000   0.00000  -0.00114
 167       11PZ         0.00000   0.00000   0.00000   0.00000   0.00000
 168       12D 0        0.00000  -0.00040   0.00000   0.00000   0.00000
 169       12D+1        0.00000   0.00000   0.00000  -0.00001   0.00000
 170       12D-1        0.00241   0.00000   0.00000   0.00000   0.00270
 171       12D+2        0.00000  -0.00009   0.00000   0.00000   0.00000
 172       12D-2        0.00000   0.00000  -0.00033   0.00000   0.00000
 173       13D 0        0.00000   0.00000   0.00000   0.00000   0.00000
 174       13D+1        0.00000   0.00000   0.00000  -0.00006   0.00000
 175       13D-1       -0.00005   0.00000   0.00000   0.00000  -0.00034
 176       13D+2        0.00000  -0.00009   0.00000   0.00000   0.00000
 177       13D-2        0.00000   0.00000   0.00010   0.00000   0.00000
 178       14D 0        0.00000  -0.00005   0.00000   0.00000   0.00000
 179       14D+1        0.00000   0.00000   0.00000  -0.00141   0.00000
 180       14D-1        0.00148   0.00000   0.00000   0.00000  -0.00029
 181       14D+2        0.00000   0.00038   0.00000   0.00000   0.00000
 182       14D-2        0.00000   0.00000  -0.00061   0.00000   0.00000
 183       15F 0        0.00000   0.00008   0.00000   0.00000   0.00000
 184       15F+1        0.00000   0.00000   0.00000  -0.00008   0.00000
 185       15F-1       -0.00022   0.00000   0.00000   0.00000  -0.00018
 186       15F+2        0.00000   0.00012   0.00000   0.00000   0.00000
 187       15F-2        0.00000   0.00000  -0.00006   0.00000   0.00000
 188       15F+3        0.00000   0.00000   0.00000   0.00001   0.00000
 189       15F-3       -0.00003   0.00000   0.00000   0.00000   0.00009
 190       16F 0        0.00000   0.00020   0.00000   0.00000   0.00000
 191       16F+1        0.00000   0.00000   0.00000   0.00024   0.00000
 192       16F-1       -0.00071   0.00000   0.00000   0.00000  -0.00089
 193       16F+2        0.00000  -0.00006   0.00000   0.00000   0.00000
 194       16F-2        0.00000   0.00000   0.00052   0.00000   0.00000
 195       16F+3        0.00000   0.00000   0.00000  -0.00017   0.00000
 196       16F-3       -0.00017   0.00000   0.00000   0.00000  -0.00018
                           6         7         8         9        10
     Eigenvalues --     2.00003   2.00003   2.00002   2.00001   2.00001
   1 1   C  1S         -0.16315   0.00000  -0.15447   0.60542   0.00000
   2        2S          0.00336   0.00000   0.00300  -0.01067   0.00000
   3        3S         -0.00599   0.00000  -0.00605   0.02403   0.00000
   4        4S         -0.00878   0.00000  -0.00735   0.00624   0.00000
   5        5S         -0.00147   0.00000   0.00014   0.00363   0.00000
   6        6PX         0.00000   0.00000   0.00000   0.00000   0.00000
   7        6PY         0.00000  -0.00089   0.00000   0.00000   0.00270
   8        6PZ        -0.00010   0.00000   0.00114  -0.00213   0.00000
   9        7PX         0.00000   0.00000   0.00000   0.00000   0.00000
  10        7PY         0.00000  -0.00028   0.00000   0.00000  -0.00025
  11        7PZ        -0.00081   0.00000  -0.00061   0.00102   0.00000
  12        8PX         0.00000   0.00000   0.00000   0.00000   0.00000
  13        8PY         0.00000   0.00292   0.00000   0.00000  -0.00192
  14        8PZ         0.00136   0.00000  -0.00722   0.00487   0.00000
  15        9PX         0.00000   0.00000   0.00000   0.00000   0.00000
  16        9PY         0.00000  -0.00061   0.00000   0.00000   0.00067
  17        9PZ        -0.00056   0.00000   0.00016   0.00098   0.00000
  18       10D 0       -0.00003   0.00000  -0.00010   0.00009   0.00000
  19       10D+1        0.00000   0.00000   0.00000   0.00000   0.00000
  20       10D-1        0.00000  -0.00011   0.00000   0.00000   0.00000
  21       10D+2        0.00006   0.00000   0.00002  -0.00015   0.00000
  22       10D-2        0.00000   0.00000   0.00000   0.00000   0.00000
  23       11D 0       -0.00048   0.00000  -0.00091   0.00036   0.00000
  24       11D+1        0.00000   0.00000   0.00000   0.00000   0.00000
  25       11D-1        0.00000  -0.00119   0.00000   0.00000   0.00255
  26       11D+2        0.00082   0.00000  -0.00031   0.00075   0.00000
  27       11D-2        0.00000   0.00000   0.00000   0.00000   0.00000
  28       12D 0        0.00051   0.00000  -0.00177   0.00226   0.00000
  29       12D+1        0.00000   0.00000   0.00000   0.00000   0.00000
  30       12D-1        0.00000  -0.00445   0.00000   0.00000   0.00481
  31       12D+2        0.00135   0.00000  -0.00077   0.00025   0.00000
  32       12D-2        0.00000   0.00000   0.00000   0.00000   0.00000
  33       13F 0       -0.00013   0.00000   0.00000  -0.00004   0.00000
  34       13F+1        0.00000   0.00000   0.00000   0.00000   0.00000
  35       13F-1        0.00000  -0.00003   0.00000   0.00000  -0.00001
  36       13F+2       -0.00004   0.00000  -0.00006   0.00001   0.00000
  37       13F-2        0.00000   0.00000   0.00000   0.00000   0.00000
  38       13F+3        0.00000   0.00000   0.00000   0.00000   0.00000
  39       13F-3        0.00000   0.00003   0.00000   0.00000  -0.00009
  40       14F 0        0.00014   0.00000   0.00044  -0.00152   0.00000
  41       14F+1        0.00000   0.00000   0.00000   0.00000   0.00000
  42       14F-1        0.00000   0.00000   0.00000   0.00000   0.00137
  43       14F+2       -0.00016   0.00000   0.00056  -0.00105   0.00000
  44       14F-2        0.00000   0.00000   0.00000   0.00000   0.00000
  45       14F+3        0.00000   0.00000   0.00000   0.00000   0.00000
  46       14F-3        0.00000  -0.00036   0.00000   0.00000   0.00084
  47 2   Cl 1S         -0.17599  -0.17573   0.01803  -0.04317  -0.10520
  48        2S          0.59373   0.59306  -0.06114   0.14783   0.35747
  49        3S         -0.01765  -0.01744   0.00161  -0.00189  -0.00579
  50        4S          0.04615   0.04609  -0.00469   0.01174   0.02983
  51        5S         -0.00148   0.00011  -0.00140   0.00034  -0.00796
  52        6S         -0.00054  -0.00075  -0.00008  -0.00012   0.00170
  53        7PX         0.00000   0.00000   0.00000   0.00000   0.00000
  54        7PY        -0.29316  -0.26184   0.06054   0.09859   0.47106
  55        7PZ        -0.17189  -0.21521   0.00400   0.08040   0.34906
  56        8PX         0.00000   0.00000   0.00000   0.00000   0.00000
  57        8PY         0.00532   0.00493  -0.00155  -0.00076  -0.00806
  58        8PZ         0.00307   0.00411  -0.00043  -0.00052  -0.00634
  59        9PX         0.00000   0.00000   0.00000   0.00000   0.00000
  60        9PY        -0.01671  -0.01493   0.00342   0.00594   0.02890
  61        9PZ        -0.00982  -0.01224   0.00024   0.00484   0.02154
  62       10PX         0.00000   0.00000   0.00000   0.00000   0.00000
  63       10PY         0.00184   0.00183  -0.00058  -0.00006  -0.00044
  64       10PZ         0.00147   0.00086  -0.00053   0.00089  -0.00041
  65       11PX         0.00000   0.00000   0.00000   0.00000   0.00000
  66       11PY        -0.00005   0.00012  -0.00003  -0.00003   0.00011
  67       11PZ         0.00009  -0.00009  -0.00013  -0.00009   0.00023
  68       12D 0       -0.00004  -0.00002   0.00002  -0.00001   0.00000
  69       12D+1        0.00000   0.00000   0.00000   0.00000   0.00000
  70       12D-1        0.00018   0.00018   0.00002   0.00008   0.00041
  71       12D+2       -0.00008  -0.00007   0.00002  -0.00013  -0.00032
  72       12D-2        0.00000   0.00000   0.00000   0.00000   0.00000
  73       13D 0       -0.00007   0.00023   0.00015  -0.00013  -0.00055
  74       13D+1        0.00000   0.00000   0.00000   0.00000   0.00000
  75       13D-1        0.00039   0.00046  -0.00011   0.00010  -0.00220
  76       13D+2       -0.00047  -0.00032   0.00015   0.00022   0.00119
  77       13D-2        0.00000   0.00000   0.00000   0.00000   0.00000
  78       14D 0        0.00000  -0.00024   0.00018  -0.00003   0.00005
  79       14D+1        0.00000   0.00000   0.00000   0.00000   0.00000
  80       14D-1        0.00029   0.00018   0.00003   0.00025   0.00016
  81       14D+2       -0.00020   0.00021  -0.00005   0.00010  -0.00081
  82       14D-2        0.00000   0.00000   0.00000   0.00000   0.00000
  83       15F 0        0.00001   0.00004   0.00001   0.00000  -0.00004
  84       15F+1        0.00000   0.00000   0.00000   0.00000   0.00000
  85       15F-1        0.00000   0.00003   0.00000   0.00000  -0.00009
  86       15F+2       -0.00001  -0.00001   0.00000   0.00000   0.00004
  87       15F-2        0.00000   0.00000   0.00000   0.00000   0.00000
  88       15F+3        0.00000   0.00000   0.00000   0.00000   0.00000
  89       15F-3       -0.00003  -0.00003   0.00002   0.00000   0.00003
  90       16F 0       -0.00007  -0.00011   0.00010  -0.00026   0.00030
  91       16F+1        0.00000   0.00000   0.00000   0.00000   0.00000
  92       16F-1        0.00002   0.00007   0.00003   0.00001  -0.00042
  93       16F+2       -0.00013  -0.00013   0.00006  -0.00007   0.00052
  94       16F-2        0.00000   0.00000   0.00000   0.00000   0.00000
  95       16F+3        0.00000   0.00000   0.00000   0.00000   0.00000
  96       16F-3       -0.00010   0.00001  -0.00004   0.00015   0.00011
  97 3   Cl 1S         -0.17599   0.17573   0.01803  -0.04317   0.10520
  98        2S          0.59373  -0.59306  -0.06114   0.14783  -0.35747
  99        3S         -0.01765   0.01744   0.00161  -0.00189   0.00579
 100        4S          0.04615  -0.04609  -0.00469   0.01174  -0.02983
 101        5S         -0.00148  -0.00011  -0.00140   0.00034   0.00796
 102        6S         -0.00054   0.00075  -0.00008  -0.00012  -0.00170
 103        7PX         0.00000   0.00000   0.00000   0.00000   0.00000
 104        7PY         0.29316  -0.26184  -0.06054  -0.09859   0.47106
 105        7PZ        -0.17189   0.21521   0.00400   0.08040  -0.34906
 106        8PX         0.00000   0.00000   0.00000   0.00000   0.00000
 107        8PY        -0.00532   0.00493   0.00155   0.00076  -0.00806
 108        8PZ         0.00307  -0.00411  -0.00043  -0.00052   0.00634
 109        9PX         0.00000   0.00000   0.00000   0.00000   0.00000
 110        9PY         0.01671  -0.01493  -0.00342  -0.00594   0.02890
 111        9PZ        -0.00982   0.01224   0.00024   0.00484  -0.02154
 112       10PX         0.00000   0.00000   0.00000   0.00000   0.00000
 113       10PY        -0.00184   0.00183   0.00058   0.00006  -0.00044
 114       10PZ         0.00147  -0.00086  -0.00053   0.00089   0.00041
 115       11PX         0.00000   0.00000   0.00000   0.00000   0.00000
 116       11PY         0.00005   0.00012   0.00003   0.00003   0.00011
 117       11PZ         0.00009   0.00009  -0.00013  -0.00009  -0.00023
 118       12D 0       -0.00004   0.00002   0.00002  -0.00001   0.00000
 119       12D+1        0.00000   0.00000   0.00000   0.00000   0.00000
 120       12D-1       -0.00018   0.00018  -0.00002  -0.00008   0.00041
 121       12D+2       -0.00008   0.00007   0.00002  -0.00013   0.00032
 122       12D-2        0.00000   0.00000   0.00000   0.00000   0.00000
 123       13D 0       -0.00007  -0.00023   0.00015  -0.00013   0.00055
 124       13D+1        0.00000   0.00000   0.00000   0.00000   0.00000
 125       13D-1       -0.00039   0.00046   0.00011  -0.00010  -0.00220
 126       13D+2       -0.00047   0.00032   0.00015   0.00022  -0.00119
 127       13D-2        0.00000   0.00000   0.00000   0.00000   0.00000
 128       14D 0        0.00000   0.00024   0.00018  -0.00003  -0.00005
 129       14D+1        0.00000   0.00000   0.00000   0.00000   0.00000
 130       14D-1       -0.00029   0.00018  -0.00003  -0.00025   0.00016
 131       14D+2       -0.00020  -0.00021  -0.00005   0.00010   0.00081
 132       14D-2        0.00000   0.00000   0.00000   0.00000   0.00000
 133       15F 0        0.00001  -0.00004   0.00001   0.00000   0.00004
 134       15F+1        0.00000   0.00000   0.00000   0.00000   0.00000
 135       15F-1        0.00000   0.00003   0.00000   0.00000  -0.00009
 136       15F+2       -0.00001   0.00001   0.00000   0.00000  -0.00004
 137       15F-2        0.00000   0.00000   0.00000   0.00000   0.00000
 138       15F+3        0.00000   0.00000   0.00000   0.00000   0.00000
 139       15F-3        0.00003  -0.00003  -0.00002   0.00000   0.00003
 140       16F 0       -0.00007   0.00011   0.00010  -0.00026  -0.00030
 141       16F+1        0.00000   0.00000   0.00000   0.00000   0.00000
 142       16F-1       -0.00002   0.00007  -0.00003  -0.00001  -0.00042
 143       16F+2       -0.00013   0.00013   0.00006  -0.00007  -0.00052
 144       16F-2        0.00000   0.00000   0.00000   0.00000   0.00000
 145       16F+3        0.00000   0.00000   0.00000   0.00000   0.00000
 146       16F-3        0.00010   0.00001   0.00004  -0.00015   0.00011
 147 4   S  1S         -0.02038   0.00000  -0.21775  -0.15763   0.00000
 148        2S          0.06943   0.00000   0.74427   0.54440   0.00000
 149        3S         -0.00204   0.00000  -0.02070  -0.00819   0.00000
 150        4S          0.00450   0.00000   0.04989   0.03913   0.00000
 151        5S          0.00161   0.00000   0.00652  -0.01189   0.00000
 152        6S          0.00207   0.00000  -0.00078  -0.00357   0.00000
 153        7PX         0.00000   0.00000   0.00000   0.00000   0.00000
 154        7PY         0.00000   0.19122   0.00000   0.00000  -0.09903
 155        7PZ         0.05307   0.00000   0.61560  -0.47636   0.00000
 156        8PX         0.00000   0.00000   0.00000   0.00000   0.00000
 157        8PY         0.00000  -0.00308   0.00000   0.00000  -0.00027
 158        8PZ        -0.00158   0.00000  -0.01163   0.00826   0.00000
 159        9PX         0.00000   0.00000   0.00000   0.00000   0.00000
 160        9PY         0.00000   0.01119   0.00000   0.00000  -0.00600
 161        9PZ         0.00343   0.00000   0.03788  -0.03118   0.00000
 162       10PX         0.00000   0.00000   0.00000   0.00000   0.00000
 163       10PY         0.00000   0.00184   0.00000   0.00000  -0.00362
 164       10PZ        -0.00228   0.00000  -0.00664   0.00510   0.00000
 165       11PX         0.00000   0.00000   0.00000   0.00000   0.00000
 166       11PY         0.00000   0.00020   0.00000   0.00000  -0.00026
 167       11PZ        -0.00022   0.00000   0.00012   0.00022   0.00000
 168       12D 0        0.00084   0.00000   0.00211  -0.00265   0.00000
 169       12D+1        0.00000   0.00000   0.00000   0.00000   0.00000
 170       12D-1        0.00000   0.00019   0.00000   0.00000   0.00081
 171       12D+2       -0.00005   0.00000  -0.00044   0.00019   0.00000
 172       12D-2        0.00000   0.00000   0.00000   0.00000   0.00000
 173       13D 0        0.00007   0.00000   0.00014   0.00022   0.00000
 174       13D+1        0.00000   0.00000   0.00000   0.00000   0.00000
 175       13D-1        0.00000   0.00002   0.00000   0.00000  -0.00007
 176       13D+2        0.00004   0.00000   0.00030   0.00016   0.00000
 177       13D-2        0.00000   0.00000   0.00000   0.00000   0.00000
 178       14D 0        0.00055   0.00000   0.00104  -0.00068   0.00000
 179       14D+1        0.00000   0.00000   0.00000   0.00000   0.00000
 180       14D-1        0.00000  -0.00074   0.00000   0.00000   0.00094
 181       14D+2       -0.00031   0.00000   0.00039   0.00000   0.00000
 182       14D-2        0.00000   0.00000   0.00000   0.00000   0.00000
 183       15F 0       -0.00014   0.00000  -0.00016   0.00025   0.00000
 184       15F+1        0.00000   0.00000   0.00000   0.00000   0.00000
 185       15F-1        0.00000   0.00000   0.00000   0.00000  -0.00006
 186       15F+2        0.00000   0.00000   0.00012  -0.00016   0.00000
 187       15F-2        0.00000   0.00000   0.00000   0.00000   0.00000
 188       15F+3        0.00000   0.00000   0.00000   0.00000   0.00000
 189       15F-3        0.00000   0.00003   0.00000   0.00000  -0.00005
 190       16F 0       -0.00014   0.00000  -0.00046   0.00048   0.00000
 191       16F+1        0.00000   0.00000   0.00000   0.00000   0.00000
 192       16F-1        0.00000  -0.00004   0.00000   0.00000  -0.00031
 193       16F+2        0.00012   0.00000  -0.00008  -0.00012   0.00000
 194       16F-2        0.00000   0.00000   0.00000   0.00000   0.00000
 195       16F+3        0.00000   0.00000   0.00000   0.00000   0.00000
 196       16F-3        0.00000   0.00000   0.00000   0.00000  -0.00004
                          11        12        13        14        15
     Eigenvalues --     2.00001   2.00001   2.00000   2.00000   2.00000
   1 1   C  1S          0.23620   0.00000   0.69963   0.00180   0.00172
   2        2S         -0.00440   0.00000  -0.00702  -0.00003  -0.00006
   3        3S          0.00839   0.00000   0.03009   0.00011   0.00008
   4        4S          0.01154   0.00000  -0.02257  -0.00042  -0.00015
   5        5S          0.00493   0.00000  -0.00551  -0.00020  -0.00016
   6        6PX         0.00000  -0.00182   0.00000   0.00000   0.00000
   7        6PY         0.00000   0.00000   0.00000   0.00000   0.00000
   8        6PZ         0.00215   0.00000  -0.00126  -0.00001   0.00000
   9        7PX         0.00000  -0.00140   0.00000   0.00000   0.00000
  10        7PY         0.00000   0.00000   0.00000   0.00000   0.00000
  11        7PZ         0.00168   0.00000   0.00252   0.00000  -0.00008
  12        8PX         0.00000   0.00073   0.00000   0.00000   0.00000
  13        8PY         0.00000   0.00000   0.00000   0.00000   0.00000
  14        8PZ        -0.00308   0.00000   0.00246  -0.00007  -0.00002
  15        9PX         0.00000  -0.00103   0.00000   0.00000   0.00000
  16        9PY         0.00000   0.00000   0.00000   0.00000   0.00000
  17        9PZ         0.00030   0.00000   0.00052  -0.00003  -0.00005
  18       10D 0        0.00007   0.00000   0.00030   0.00000   0.00000
  19       10D+1        0.00000  -0.00019   0.00000   0.00000   0.00000
  20       10D-1        0.00000   0.00000   0.00000   0.00000   0.00000
  21       10D+2       -0.00003   0.00000  -0.00021   0.00000   0.00000
  22       10D-2        0.00000   0.00000   0.00000   0.00000   0.00000
  23       11D 0        0.00075   0.00000  -0.00031  -0.00004  -0.00005
  24       11D+1        0.00000   0.00118   0.00000   0.00000   0.00000
  25       11D-1        0.00000   0.00000   0.00000   0.00000   0.00000
  26       11D+2       -0.00126   0.00000   0.00312   0.00006  -0.00001
  27       11D-2        0.00000   0.00000   0.00000   0.00000   0.00000
  28       12D 0       -0.00183   0.00000  -0.00124  -0.00006  -0.00007
  29       12D+1        0.00000  -0.00102   0.00000   0.00000   0.00000
  30       12D-1        0.00000   0.00000   0.00000   0.00000   0.00000
  31       12D+2       -0.00273   0.00000   0.00171   0.00003  -0.00001
  32       12D-2        0.00000   0.00000   0.00000   0.00000   0.00000
  33       13F 0        0.00027   0.00000   0.00027   0.00000   0.00000
  34       13F+1        0.00000  -0.00018   0.00000   0.00000   0.00000
  35       13F-1        0.00000   0.00000   0.00000   0.00000   0.00000
  36       13F+2       -0.00008   0.00000  -0.00004  -0.00001   0.00000
  37       13F-2        0.00000   0.00000   0.00000   0.00000   0.00000
  38       13F+3        0.00000   0.00007   0.00000   0.00000   0.00000
  39       13F-3        0.00000   0.00000   0.00000   0.00000   0.00000
  40       14F 0        0.00029   0.00000  -0.00113  -0.00003   0.00001
  41       14F+1        0.00000   0.00119   0.00000   0.00000   0.00000
  42       14F-1        0.00000   0.00000   0.00000   0.00000   0.00000
  43       14F+2        0.00060   0.00000  -0.00139  -0.00003   0.00001
  44       14F-2        0.00000   0.00000   0.00000   0.00000   0.00000
  45       14F+3        0.00000  -0.00014   0.00000   0.00000   0.00000
  46       14F-3        0.00000   0.00000   0.00000   0.00000   0.00000
  47 2   Cl 1S         -0.09140   0.00000   0.02996   0.65947  -0.25837
  48        2S          0.31130   0.00000  -0.10715   0.00623  -0.00286
  49        3S         -0.00489   0.00000   0.00058   0.00010  -0.00006
  50        4S          0.02581   0.00000  -0.00967   0.00011  -0.00007
  51        5S         -0.00737   0.00000   0.00905   0.00007   0.00005
  52        6S         -0.00064   0.00000   0.00342   0.00005   0.00006
  53        7PX         0.00000   0.08116   0.00000   0.00000   0.00000
  54        7PY         0.41791   0.00000  -0.27849  -0.00162  -0.00040
  55        7PZ         0.23159   0.00000  -0.18704  -0.00102  -0.00039
  56        8PX         0.00000  -0.00044   0.00000   0.00000   0.00000
  57        8PY        -0.00712   0.00000   0.00479   0.00008  -0.00002
  58        8PZ        -0.00414   0.00000   0.00344   0.00006  -0.00001
  59        9PX         0.00000   0.00475   0.00000   0.00000   0.00000
  60        9PY         0.02572   0.00000  -0.01800  -0.00013  -0.00002
  61        9PZ         0.01427   0.00000  -0.01214  -0.00009  -0.00002
  62       10PX         0.00000  -0.00069   0.00000   0.00000   0.00000
  63       10PY        -0.00096   0.00000   0.00355   0.00002   0.00006
  64       10PZ        -0.00163   0.00000   0.00242   0.00001   0.00002
  65       11PX         0.00000   0.00034   0.00000   0.00000   0.00000
  66       11PY         0.00004   0.00000   0.00028   0.00000   0.00001
  67       11PZ        -0.00004   0.00000   0.00010   0.00001   0.00002
  68       12D 0        0.00001   0.00000   0.00001   0.00000   0.00000
  69       12D+1        0.00000  -0.00006   0.00000   0.00000   0.00000
  70       12D-1        0.00034   0.00000  -0.00032   0.00000   0.00000
  71       12D+2       -0.00023   0.00000   0.00021   0.00000   0.00000
  72       12D-2        0.00000  -0.00005   0.00000   0.00000   0.00000
  73       13D 0        0.00033   0.00000   0.00006   0.00000   0.00000
  74       13D+1        0.00000  -0.00005   0.00000   0.00000   0.00000
  75       13D-1       -0.00143   0.00000   0.00194   0.00003  -0.00001
  76       13D+2        0.00139   0.00000  -0.00120  -0.00002   0.00000
  77       13D-2        0.00000  -0.00022   0.00000   0.00000   0.00000
  78       14D 0        0.00002   0.00000   0.00012   0.00000   0.00000
  79       14D+1        0.00000  -0.00023   0.00000   0.00000   0.00000
  80       14D-1        0.00015   0.00000   0.00067  -0.00001   0.00001
  81       14D+2       -0.00024   0.00000  -0.00057   0.00000  -0.00002
  82       14D-2        0.00000  -0.00055   0.00000   0.00000   0.00000
  83       15F 0        0.00001   0.00000   0.00002   0.00000   0.00000
  84       15F+1        0.00000   0.00000   0.00000   0.00000   0.00000
  85       15F-1        0.00003   0.00000  -0.00001   0.00000   0.00000
  86       15F+2        0.00003   0.00000  -0.00001   0.00000   0.00000
  87       15F-2        0.00000  -0.00001   0.00000   0.00000   0.00000
  88       15F+3        0.00000  -0.00003   0.00000   0.00000   0.00000
  89       15F-3        0.00010   0.00000  -0.00005   0.00000   0.00000
  90       16F 0        0.00024   0.00000  -0.00027   0.00000   0.00000
  91       16F+1        0.00000   0.00001   0.00000   0.00000   0.00000
  92       16F-1        0.00000   0.00000   0.00032   0.00000   0.00000
  93       16F+2        0.00031   0.00000  -0.00045   0.00000   0.00000
  94       16F-2        0.00000   0.00000   0.00000   0.00000   0.00000
  95       16F+3        0.00000   0.00020   0.00000   0.00000   0.00000
  96       16F-3        0.00017   0.00000  -0.00018   0.00000   0.00000
  97 3   Cl 1S         -0.09140   0.00000   0.02996   0.65550  -0.25154
  98        2S          0.31130   0.00000  -0.10715   0.00619  -0.00279
  99        3S         -0.00489   0.00000   0.00058   0.00010  -0.00006
 100        4S          0.02581   0.00000  -0.00967   0.00011  -0.00007
 101        5S         -0.00737   0.00000   0.00905   0.00007   0.00005
 102        6S         -0.00064   0.00000   0.00342   0.00005   0.00006
 103        7PX         0.00000   0.08116   0.00000   0.00000   0.00000
 104        7PY        -0.41791   0.00000   0.27849   0.00161   0.00041
 105        7PZ         0.23159   0.00000  -0.18704  -0.00102  -0.00039
 106        8PX         0.00000  -0.00044   0.00000   0.00000   0.00000
 107        8PY         0.00712   0.00000  -0.00479  -0.00008   0.00002
 108        8PZ        -0.00414   0.00000   0.00344   0.00006  -0.00001
 109        9PX         0.00000   0.00475   0.00000   0.00000   0.00000
 110        9PY        -0.02572   0.00000   0.01800   0.00013   0.00002
 111        9PZ         0.01427   0.00000  -0.01214  -0.00009  -0.00002
 112       10PX         0.00000  -0.00069   0.00000   0.00000   0.00000
 113       10PY         0.00096   0.00000  -0.00355  -0.00003  -0.00006
 114       10PZ        -0.00163   0.00000   0.00242   0.00001   0.00002
 115       11PX         0.00000   0.00034   0.00000   0.00000   0.00000
 116       11PY        -0.00004   0.00000  -0.00028   0.00000  -0.00001
 117       11PZ        -0.00004   0.00000   0.00010   0.00001   0.00002
 118       12D 0        0.00001   0.00000   0.00001   0.00000   0.00000
 119       12D+1        0.00000  -0.00006   0.00000   0.00000   0.00000
 120       12D-1       -0.00034   0.00000   0.00032   0.00000   0.00000
 121       12D+2       -0.00023   0.00000   0.00021   0.00000   0.00000
 122       12D-2        0.00000   0.00005   0.00000   0.00000   0.00000
 123       13D 0        0.00033   0.00000   0.00006   0.00000   0.00000
 124       13D+1        0.00000  -0.00005   0.00000   0.00000   0.00000
 125       13D-1        0.00143   0.00000  -0.00194  -0.00003   0.00001
 126       13D+2        0.00139   0.00000  -0.00120  -0.00002   0.00000
 127       13D-2        0.00000   0.00022   0.00000   0.00000   0.00000
 128       14D 0        0.00002   0.00000   0.00012   0.00000   0.00000
 129       14D+1        0.00000  -0.00023   0.00000   0.00000   0.00000
 130       14D-1       -0.00015   0.00000  -0.00067   0.00001  -0.00001
 131       14D+2       -0.00024   0.00000  -0.00057   0.00000  -0.00002
 132       14D-2        0.00000   0.00055   0.00000   0.00000   0.00000
 133       15F 0        0.00001   0.00000   0.00002   0.00000   0.00000
 134       15F+1        0.00000   0.00000   0.00000   0.00000   0.00000
 135       15F-1       -0.00003   0.00000   0.00001   0.00000   0.00000
 136       15F+2        0.00003   0.00000  -0.00001   0.00000   0.00000
 137       15F-2        0.00000   0.00001   0.00000   0.00000   0.00000
 138       15F+3        0.00000  -0.00003   0.00000   0.00000   0.00000
 139       15F-3       -0.00010   0.00000   0.00005   0.00000   0.00000
 140       16F 0        0.00024   0.00000  -0.00027   0.00000   0.00000
 141       16F+1        0.00000   0.00001   0.00000   0.00000   0.00000
 142       16F-1        0.00000   0.00000  -0.00032   0.00000   0.00000
 143       16F+2        0.00031   0.00000  -0.00045   0.00000   0.00000
 144       16F-2        0.00000   0.00000   0.00000   0.00000   0.00000
 145       16F+3        0.00000   0.00020   0.00000   0.00000   0.00000
 146       16F-3       -0.00017   0.00000   0.00018   0.00000   0.00000
 147 4   S  1S          0.08927   0.00000   0.04993   0.36054   0.92895
 148        2S         -0.30795   0.00000  -0.18488   0.00427   0.01221
 149        3S          0.00493   0.00000   0.00154   0.00013   0.00030
 150        4S         -0.02211   0.00000  -0.01370  -0.00004  -0.00003
 151        5S          0.00092   0.00000   0.00627   0.00018   0.00001
 152        6S         -0.00494   0.00000   0.00114   0.00013   0.00007
 153        7PX         0.00000   0.96521   0.00000   0.00000   0.00000
 154        7PY         0.00000   0.00000   0.00000   0.00000   0.00000
 155        7PZ         0.39274   0.00000   0.42463   0.00200   0.00230
 156        8PX         0.00000  -0.01126   0.00000   0.00000   0.00000
 157        8PY         0.00000   0.00000   0.00000   0.00000   0.00000
 158        8PZ        -0.00451   0.00000  -0.00460  -0.00011  -0.00016
 159        9PX         0.00000   0.06175   0.00000   0.00000   0.00000
 160        9PY         0.00000   0.00000   0.00000   0.00000   0.00000
 161        9PZ         0.02522   0.00000   0.02819   0.00016   0.00022
 162       10PX         0.00000   0.00103   0.00000   0.00000   0.00000
 163       10PY         0.00000   0.00000   0.00000   0.00000   0.00000
 164       10PZ         0.00292   0.00000  -0.00188  -0.00009   0.00004
 165       11PX         0.00000  -0.00028   0.00000   0.00000   0.00000
 166       11PY         0.00000   0.00000   0.00000   0.00000   0.00000
 167       11PZ         0.00081   0.00000  -0.00015  -0.00001   0.00001
 168       12D 0        0.00032   0.00000   0.00113   0.00004   0.00005
 169       12D+1        0.00000   0.00217   0.00000   0.00000   0.00000
 170       12D-1        0.00000   0.00000   0.00000   0.00000   0.00000
 171       12D+2        0.00012   0.00000   0.00022   0.00000  -0.00001
 172       12D-2        0.00000   0.00000   0.00000   0.00000   0.00000
 173       13D 0       -0.00031   0.00000  -0.00062   0.00000   0.00001
 174       13D+1        0.00000  -0.00018   0.00000   0.00000   0.00000
 175       13D-1        0.00000   0.00000   0.00000   0.00000   0.00000
 176       13D+2       -0.00012   0.00000  -0.00008   0.00000   0.00001
 177       13D-2        0.00000   0.00000   0.00000   0.00000   0.00000
 178       14D 0       -0.00096   0.00000   0.00039   0.00000  -0.00004
 179       14D+1        0.00000  -0.00047   0.00000   0.00000   0.00000
 180       14D-1        0.00000   0.00000   0.00000   0.00000   0.00000
 181       14D+2        0.00069   0.00000  -0.00015   0.00000   0.00001
 182       14D-2        0.00000   0.00000   0.00000   0.00000   0.00000
 183       15F 0        0.00019   0.00000   0.00039  -0.00001  -0.00002
 184       15F+1        0.00000  -0.00026   0.00000   0.00000   0.00000
 185       15F-1        0.00000   0.00000   0.00000   0.00000   0.00000
 186       15F+2        0.00008   0.00000   0.00009   0.00000   0.00000
 187       15F-2        0.00000   0.00000   0.00000   0.00000   0.00000
 188       15F+3        0.00000   0.00013   0.00000   0.00000   0.00000
 189       15F-3        0.00000   0.00000   0.00000   0.00000   0.00000
 190       16F 0       -0.00023   0.00000  -0.00037   0.00000   0.00000
 191       16F+1        0.00000  -0.00048   0.00000   0.00000   0.00000
 192       16F-1        0.00000   0.00000   0.00000   0.00000   0.00000
 193       16F+2       -0.00033   0.00000  -0.00019   0.00000   0.00000
 194       16F-2        0.00000   0.00000   0.00000   0.00000   0.00000
 195       16F+3        0.00000  -0.00012   0.00000   0.00000   0.00000
 196       16F-3        0.00000   0.00000   0.00000   0.00000   0.00000
                          16        17        18        19        20
     Eigenvalues --     2.00000   1.97697   1.97419   1.97000   1.95130
   1 1   C  1S          0.00000  -0.08577   0.00000  -0.06957  -0.04032
   2        2S          0.00000   0.22081   0.00000   0.18676   0.11220
   3        3S          0.00000   0.04816   0.00000   0.04467   0.02698
   4        4S          0.00000   0.04440   0.00000   0.06295   0.05610
   5        5S          0.00000   0.01148   0.00000   0.01605   0.00164
   6        6PX         0.00000   0.00000   0.00000   0.00000   0.00000
   7        6PY        -0.00001   0.00000   0.06100   0.00000   0.00000
   8        6PZ         0.00000  -0.01108   0.00000   0.10386  -0.05488
   9        7PX         0.00000   0.00000   0.00000   0.00000   0.00000
  10        7PY         0.00004   0.00000   0.08383   0.00000   0.00000
  11        7PZ         0.00000  -0.02144   0.00000   0.12975  -0.07663
  12        8PX         0.00000   0.00000   0.00000   0.00000   0.00000
  13        8PY        -0.00005   0.00000   0.00398   0.00000   0.00000
  14        8PZ         0.00000   0.00803   0.00000   0.00451  -0.04648
  15        9PX         0.00000   0.00000   0.00000   0.00000   0.00000
  16        9PY        -0.00001   0.00000   0.00831   0.00000   0.00000
  17        9PZ         0.00000  -0.00385   0.00000   0.00844  -0.02170
  18       10D 0        0.00000   0.00433   0.00000   0.00971   0.01023
  19       10D+1        0.00000   0.00000   0.00000   0.00000   0.00000
  20       10D-1        0.00000   0.00000  -0.00851   0.00000   0.00000
  21       10D+2        0.00000  -0.00709   0.00000   0.00121   0.00367
  22       10D-2        0.00000   0.00000   0.00000   0.00000   0.00000
  23       11D 0        0.00000   0.00606   0.00000   0.01114   0.03019
  24       11D+1        0.00000   0.00000   0.00000   0.00000   0.00000
  25       11D-1       -0.00006   0.00000  -0.01777   0.00000   0.00000
  26       11D+2        0.00000  -0.01104   0.00000   0.00305   0.01364
  27       11D-2        0.00000   0.00000   0.00000   0.00000   0.00000
  28       12D 0        0.00000   0.00386   0.00000   0.00383  -0.04135
  29       12D+1        0.00000   0.00000   0.00000   0.00000   0.00000
  30       12D-1       -0.00002   0.00000   0.01213   0.00000   0.00000
  31       12D+2        0.00000   0.00769   0.00000   0.00471  -0.02645
  32       12D-2        0.00000   0.00000   0.00000   0.00000   0.00000
  33       13F 0        0.00000   0.00400   0.00000   0.00470  -0.00111
  34       13F+1        0.00000   0.00000   0.00000   0.00000   0.00000
  35       13F-1        0.00000   0.00000   0.00190   0.00000   0.00000
  36       13F+2        0.00000   0.00461   0.00000  -0.00023   0.00164
  37       13F-2        0.00000   0.00000   0.00000   0.00000   0.00000
  38       13F+3        0.00000   0.00000   0.00000   0.00000   0.00000
  39       13F-3        0.00000   0.00000  -0.00242   0.00000   0.00000
  40       14F 0        0.00000   0.00133   0.00000  -0.00094  -0.00298
  41       14F+1        0.00000   0.00000   0.00000   0.00000   0.00000
  42       14F-1       -0.00001   0.00000   0.00055   0.00000   0.00000
  43       14F+2        0.00000   0.00182   0.00000  -0.00009   0.00149
  44       14F-2        0.00000   0.00000   0.00000   0.00000   0.00000
  45       14F+3        0.00000   0.00000   0.00000   0.00000   0.00000
  46       14F-3       -0.00001   0.00000  -0.00070   0.00000   0.00000
  47 2   Cl 1S          0.70201   0.04533  -0.05311  -0.02139  -0.01156
  48        2S          0.00710  -0.16944   0.19865   0.08000   0.04389
  49        3S          0.00011   0.36240  -0.42571  -0.17262  -0.09563
  50        4S          0.00016   0.04391  -0.05349  -0.02260  -0.01502
  51        5S         -0.00004   0.21875  -0.26442  -0.11351  -0.10004
  52        6S         -0.00005  -0.00694   0.01010   0.00231  -0.02622
  53        7PX         0.00000   0.00000   0.00000   0.00000   0.00000
  54        7PY        -0.00050  -0.01656  -0.00006   0.00089  -0.11147
  55        7PZ        -0.00042  -0.00738   0.00751  -0.01896   0.10251
  56        8PX         0.00000   0.00000   0.00000   0.00000   0.00000
  57        8PY         0.00006   0.02466   0.01613  -0.00179   0.25416
  58        8PZ         0.00004   0.00559  -0.01011   0.04837  -0.24582
  59        9PX         0.00000   0.00000   0.00000   0.00000   0.00000
  60        9PY        -0.00006   0.01076   0.00735  -0.00013   0.12138
  61        9PZ        -0.00005   0.00287  -0.00426   0.02271  -0.11770
  62       10PX         0.00000   0.00000   0.00000   0.00000   0.00000
  63       10PY        -0.00006  -0.00080   0.01530  -0.00732   0.13130
  64       10PZ        -0.00003  -0.00310   0.00339   0.02635  -0.17774
  65       11PX         0.00000   0.00000   0.00000   0.00000   0.00000
  66       11PY        -0.00001  -0.00400   0.00285   0.00037   0.00048
  67       11PZ         0.00000  -0.00165   0.00318  -0.00016  -0.00602
  68       12D 0        0.00000  -0.00056  -0.00079   0.00277  -0.00687
  69       12D+1        0.00000   0.00000   0.00000   0.00000   0.00000
  70       12D-1        0.00001   0.00733  -0.00540   0.00268   0.00283
  71       12D+2        0.00000  -0.00602   0.00271   0.00056  -0.01017
  72       12D-2        0.00000   0.00000   0.00000   0.00000   0.00000
  73       13D 0        0.00000  -0.00124  -0.00178   0.00465  -0.00840
  74       13D+1        0.00000   0.00000   0.00000   0.00000   0.00000
  75       13D-1        0.00002   0.00711  -0.00468   0.00428   0.00196
  76       13D+2       -0.00001  -0.00632   0.00176   0.00149  -0.01208
  77       13D-2        0.00000   0.00000   0.00000   0.00000   0.00000
  78       14D 0        0.00000   0.00098   0.00106   0.00300  -0.00868
  79       14D+1        0.00000   0.00000   0.00000   0.00000   0.00000
  80       14D-1       -0.00002  -0.00195   0.00314   0.00202  -0.00365
  81       14D+2        0.00002   0.00178  -0.00255   0.00076  -0.00674
  82       14D-2        0.00000   0.00000   0.00000   0.00000   0.00000
  83       15F 0        0.00000  -0.00134   0.00089   0.00055  -0.00227
  84       15F+1        0.00000   0.00000   0.00000   0.00000   0.00000
  85       15F-1        0.00000   0.00069  -0.00153   0.00133  -0.00387
  86       15F+2        0.00000  -0.00254   0.00213  -0.00017  -0.00169
  87       15F-2        0.00000   0.00000   0.00000   0.00000   0.00000
  88       15F+3        0.00000   0.00000   0.00000   0.00000   0.00000
  89       15F-3        0.00000  -0.00188   0.00082   0.00064  -0.00343
  90       16F 0        0.00000  -0.00016  -0.00034   0.00001  -0.00041
  91       16F+1        0.00000   0.00000   0.00000   0.00000   0.00000
  92       16F-1        0.00000  -0.00018   0.00004   0.00150  -0.00207
  93       16F+2        0.00000   0.00009  -0.00068  -0.00028  -0.00058
  94       16F-2        0.00000   0.00000   0.00000   0.00000   0.00000
  95       16F+3        0.00000   0.00000   0.00000   0.00000   0.00000
  96       16F-3        0.00000   0.00028  -0.00039   0.00022  -0.00131
  97 3   Cl 1S         -0.70818   0.04533   0.05311  -0.02139  -0.01156
  98        2S         -0.00717  -0.16944  -0.19865   0.08000   0.04389
  99        3S         -0.00011   0.36240   0.42571  -0.17262  -0.09563
 100        4S         -0.00016   0.04391   0.05349  -0.02260  -0.01502
 101        5S          0.00004   0.21875   0.26442  -0.11351  -0.10004
 102        6S          0.00005  -0.00694  -0.01010   0.00231  -0.02622
 103        7PX         0.00000   0.00000   0.00000   0.00000   0.00000
 104        7PY        -0.00051   0.01656  -0.00006  -0.00089   0.11147
 105        7PZ         0.00042  -0.00738  -0.00751  -0.01896   0.10251
 106        8PX         0.00000   0.00000   0.00000   0.00000   0.00000
 107        8PY         0.00006  -0.02466   0.01613   0.00179  -0.25416
 108        8PZ        -0.00004   0.00559   0.01011   0.04837  -0.24582
 109        9PX         0.00000   0.00000   0.00000   0.00000   0.00000
 110        9PY        -0.00006  -0.01076   0.00735   0.00013  -0.12138
 111        9PZ         0.00005   0.00287   0.00426   0.02271  -0.11770
 112       10PX         0.00000   0.00000   0.00000   0.00000   0.00000
 113       10PY        -0.00006   0.00080   0.01530   0.00732  -0.13130
 114       10PZ         0.00003  -0.00310  -0.00339   0.02635  -0.17774
 115       11PX         0.00000   0.00000   0.00000   0.00000   0.00000
 116       11PY        -0.00001   0.00400   0.00285  -0.00037  -0.00048
 117       11PZ         0.00000  -0.00165  -0.00318  -0.00016  -0.00602
 118       12D 0        0.00000  -0.00056   0.00079   0.00277  -0.00687
 119       12D+1        0.00000   0.00000   0.00000   0.00000   0.00000
 120       12D-1        0.00001  -0.00733  -0.00540  -0.00268  -0.00283
 121       12D+2        0.00000  -0.00602  -0.00271   0.00056  -0.01017
 122       12D-2        0.00000   0.00000   0.00000   0.00000   0.00000
 123       13D 0        0.00000  -0.00124   0.00178   0.00465  -0.00840
 124       13D+1        0.00000   0.00000   0.00000   0.00000   0.00000
 125       13D-1        0.00002  -0.00711  -0.00468  -0.00428  -0.00196
 126       13D+2        0.00001  -0.00632  -0.00176   0.00149  -0.01208
 127       13D-2        0.00000   0.00000   0.00000   0.00000   0.00000
 128       14D 0        0.00000   0.00098  -0.00106   0.00300  -0.00868
 129       14D+1        0.00000   0.00000   0.00000   0.00000   0.00000
 130       14D-1       -0.00002   0.00195   0.00314  -0.00202   0.00365
 131       14D+2       -0.00002   0.00178   0.00255   0.00076  -0.00674
 132       14D-2        0.00000   0.00000   0.00000   0.00000   0.00000
 133       15F 0        0.00000  -0.00134  -0.00089   0.00055  -0.00227
 134       15F+1        0.00000   0.00000   0.00000   0.00000   0.00000
 135       15F-1        0.00000  -0.00069  -0.00153  -0.00133   0.00387
 136       15F+2        0.00000  -0.00254  -0.00213  -0.00017  -0.00169
 137       15F-2        0.00000   0.00000   0.00000   0.00000   0.00000
 138       15F+3        0.00000   0.00000   0.00000   0.00000   0.00000
 139       15F-3        0.00000   0.00188   0.00082  -0.00064   0.00343
 140       16F 0        0.00000  -0.00016   0.00034   0.00001  -0.00041
 141       16F+1        0.00000   0.00000   0.00000   0.00000   0.00000
 142       16F-1        0.00000   0.00018   0.00004  -0.00150   0.00207
 143       16F+2        0.00000   0.00009   0.00068  -0.00028  -0.00058
 144       16F-2        0.00000   0.00000   0.00000   0.00000   0.00000
 145       16F+3        0.00000   0.00000   0.00000   0.00000   0.00000
 146       16F-3        0.00000  -0.00028  -0.00039  -0.00022   0.00131
 147 4   S  1S          0.00349   0.01649   0.00000   0.05805   0.00460
 148        2S          0.00005  -0.06338   0.00000  -0.22211  -0.01763
 149        3S          0.00000   0.13134   0.00000   0.47010   0.03869
 150        4S          0.00000   0.01580   0.00000   0.06108   0.00542
 151        5S          0.00000   0.05492   0.00000   0.24351   0.07680
 152        6S          0.00000  -0.00307   0.00000  -0.03125   0.02510
 153        7PX         0.00000   0.00000   0.00000   0.00000   0.00000
 154        7PY         0.00024   0.00000  -0.01106   0.00000   0.00000
 155        7PZ         0.00001   0.02164   0.00000   0.04434   0.00199
 156        8PX         0.00000   0.00000   0.00000   0.00000   0.00000
 157        8PY         0.00002   0.00000   0.03238   0.00000   0.00000
 158        8PZ         0.00000  -0.03273   0.00000  -0.05565  -0.00652
 159        9PX         0.00000   0.00000   0.00000   0.00000   0.00000
 160        9PY         0.00001   0.00000   0.01227   0.00000   0.00000
 161        9PZ         0.00000  -0.01618   0.00000  -0.03098  -0.00186
 162       10PX         0.00000   0.00000   0.00000   0.00000   0.00000
 163       10PY         0.00002   0.00000   0.00998   0.00000   0.00000
 164       10PZ         0.00000   0.00084   0.00000   0.01617  -0.01739
 165       11PX         0.00000   0.00000   0.00000   0.00000   0.00000
 166       11PY         0.00000   0.00000  -0.00149   0.00000   0.00000
 167       11PZ         0.00000   0.00231   0.00000   0.00823   0.00053
 168       12D 0        0.00000   0.00675   0.00000   0.00985   0.00074
 169       12D+1        0.00000   0.00000   0.00000   0.00000   0.00000
 170       12D-1       -0.00002   0.00000  -0.00509   0.00000   0.00000
 171       12D+2        0.00000   0.00017   0.00000   0.00037   0.00325
 172       12D-2        0.00000   0.00000   0.00000   0.00000   0.00000
 173       13D 0        0.00000   0.00991   0.00000   0.02410   0.00124
 174       13D+1        0.00000   0.00000   0.00000   0.00000   0.00000
 175       13D-1        0.00000   0.00000  -0.00339   0.00000   0.00000
 176       13D+2        0.00000  -0.00001   0.00000   0.00099   0.00241
 177       13D-2        0.00000   0.00000   0.00000   0.00000   0.00000
 178       14D 0        0.00000  -0.00238   0.00000  -0.00880  -0.00078
 179       14D+1        0.00000   0.00000   0.00000   0.00000   0.00000
 180       14D-1       -0.00001   0.00000   0.00200   0.00000   0.00000
 181       14D+2        0.00000  -0.00175   0.00000  -0.00088   0.00539
 182       14D-2        0.00000   0.00000   0.00000   0.00000   0.00000
 183       15F 0        0.00000  -0.00300   0.00000  -0.00874  -0.00079
 184       15F+1        0.00000   0.00000   0.00000   0.00000   0.00000
 185       15F-1        0.00000   0.00000   0.00171   0.00000   0.00000
 186       15F+2        0.00000   0.00018   0.00000  -0.00031  -0.00042
 187       15F-2        0.00000   0.00000   0.00000   0.00000   0.00000
 188       15F+3        0.00000   0.00000   0.00000   0.00000   0.00000
 189       15F-3        0.00000   0.00000   0.00009   0.00000   0.00000
 190       16F 0        0.00000   0.00068   0.00000   0.00506  -0.00015
 191       16F+1        0.00000   0.00000   0.00000   0.00000   0.00000
 192       16F-1        0.00001   0.00000   0.00077   0.00000   0.00000
 193       16F+2        0.00000  -0.00061   0.00000  -0.00075  -0.00132
 194       16F-2        0.00000   0.00000   0.00000   0.00000   0.00000
 195       16F+3        0.00000   0.00000   0.00000   0.00000   0.00000
 196       16F-3        0.00000   0.00000   0.00035   0.00000   0.00000
                          21        22        23        24        25
     Eigenvalues --     1.94891   1.94878   1.94808   1.94659   1.94109
   1 1   C  1S          0.12010   0.00000   0.00000   0.00000   0.00000
   2        2S         -0.33574   0.00000   0.00000   0.00000   0.00000
   3        3S         -0.08049   0.00000   0.00000   0.00000   0.00000
   4        4S         -0.21037   0.00000   0.00000   0.00000   0.00000
   5        5S         -0.00823   0.00000   0.00000   0.00000   0.00000
   6        6PX         0.00000   0.00000   0.09636   0.00000   0.00000
   7        6PY         0.00000   0.08140   0.00000   0.00000   0.16849
   8        6PZ         0.03755   0.00000   0.00000   0.00000   0.00000
   9        7PX         0.00000   0.00000   0.13762   0.00000   0.00000
  10        7PY         0.00000   0.11153   0.00000   0.00000   0.23753
  11        7PZ         0.06337   0.00000   0.00000   0.00000   0.00000
  12        8PX         0.00000   0.00000   0.06220   0.00000   0.00000
  13        8PY         0.00000   0.03470   0.00000   0.00000   0.08313
  14        8PZ        -0.01872   0.00000   0.00000   0.00000   0.00000
  15        9PX         0.00000   0.00000   0.00653   0.00000   0.00000
  16        9PY         0.00000   0.01051   0.00000   0.00000  -0.00728
  17        9PZ        -0.00342   0.00000   0.00000   0.00000   0.00000
  18       10D 0        0.00200   0.00000   0.00000   0.00000   0.00000
  19       10D+1        0.00000   0.00000  -0.00724   0.00000   0.00000
  20       10D-1        0.00000   0.00491   0.00000   0.00000  -0.00697
  21       10D+2        0.00752   0.00000   0.00000   0.00000   0.00000
  22       10D-2        0.00000   0.00000   0.00000   0.01063   0.00000
  23       11D 0        0.00768   0.00000   0.00000   0.00000   0.00000
  24       11D+1        0.00000   0.00000  -0.02313   0.00000   0.00000
  25       11D-1        0.00000   0.01661   0.00000   0.00000  -0.01383
  26       11D+2        0.01722   0.00000   0.00000   0.00000   0.00000
  27       11D-2        0.00000   0.00000   0.00000   0.03235   0.00000
  28       12D 0       -0.02162   0.00000   0.00000   0.00000   0.00000
  29       12D+1        0.00000   0.00000   0.01639   0.00000   0.00000
  30       12D-1        0.00000  -0.03735   0.00000   0.00000   0.01093
  31       12D+2       -0.00660   0.00000   0.00000   0.00000   0.00000
  32       12D-2        0.00000   0.00000   0.00000  -0.01091   0.00000
  33       13F 0       -0.00361   0.00000   0.00000   0.00000   0.00000
  34       13F+1        0.00000   0.00000   0.00227   0.00000   0.00000
  35       13F-1        0.00000  -0.00259   0.00000   0.00000   0.00771
  36       13F+2       -0.00478   0.00000   0.00000   0.00000   0.00000
  37       13F-2        0.00000   0.00000   0.00000  -0.00444   0.00000
  38       13F+3        0.00000   0.00000  -0.00484   0.00000   0.00000
  39       13F-3        0.00000  -0.00298   0.00000   0.00000  -0.00296
  40       14F 0       -0.00691   0.00000   0.00000   0.00000   0.00000
  41       14F+1        0.00000   0.00000   0.00234   0.00000   0.00000
  42       14F-1        0.00000  -0.00868   0.00000   0.00000  -0.00069
  43       14F+2       -0.00198   0.00000   0.00000   0.00000   0.00000
  44       14F-2        0.00000   0.00000   0.00000  -0.00571   0.00000
  45       14F+3        0.00000   0.00000  -0.00335   0.00000   0.00000
  46       14F-3        0.00000  -0.00306   0.00000   0.00000   0.00107
  47 2   Cl 1S          0.01467   0.00872   0.00000   0.00000   0.00668
  48        2S         -0.05571  -0.03372   0.00000   0.00000  -0.02696
  49        3S          0.12365   0.07135   0.00000   0.00000   0.05776
  50        4S          0.01964   0.01147   0.00000   0.00000   0.01083
  51        5S          0.12190   0.08946   0.00000   0.00000   0.08568
  52        6S          0.01377   0.03023   0.00000   0.00000   0.01583
  53        7PX         0.00000   0.00000  -0.15226   0.16886   0.00000
  54        7PY         0.04655  -0.06112   0.00000   0.00000   0.13018
  55        7PZ         0.08773   0.14342   0.00000   0.00000  -0.00466
  56        8PX         0.00000   0.00000   0.35697  -0.39483   0.00000
[...]
  51        5S         -4.85269   0.00000  -0.87899   0.04514  -0.12639
  52        6S        -13.80037   0.00000   7.16282   5.28077  10.02668
  53        7PX         0.00000  -0.01624   0.00000   0.00000   0.00000
  54        7PY         0.02347   0.00000  -0.01325   0.00396  -0.01632
  55        7PZ         0.00126   0.00000  -0.00377  -0.01090  -0.01454
  56        8PX         0.00000  -0.19167   0.00000   0.00000   0.00000
  57        8PY         0.38087   0.00000  -0.16763   0.05125  -0.26190
  58        8PZ         0.02819   0.00000  -0.03793  -0.13871  -0.23682
  59        9PX         0.00000   0.06220   0.00000   0.00000   0.00000
  60        9PY        -0.08623   0.00000   0.05154  -0.01471   0.06180
  61        9PZ        -0.00144   0.00000   0.01555   0.04276   0.05565
  62       10PX         0.00000   0.83882   0.00000   0.00000   0.00000
  63       10PY        -5.27821   0.00000   0.79824   0.57498   1.92685
  64       10PZ        -2.67066   0.00000   0.56692   1.39792   1.36174
  65       11PX         0.00000  -2.38656   0.00000   0.00000   0.00000
  66       11PY        -2.44617   0.00000  -1.70593   1.27003   1.48630
  67       11PZ        -1.44548   0.00000   1.02217  -2.72999   1.55257
  68       12D 0        0.01860   0.00000  -0.01018  -0.02333  -0.00528
  69       12D+1        0.00000  -0.01499   0.00000   0.00000   0.00000
  70       12D-1       -0.01973   0.00000   0.00286  -0.00128   0.01695
  71       12D+2        0.04171   0.00000   0.04297   0.00783   0.01299
  72       12D-2        0.00000  -0.02192   0.00000   0.00000   0.00000
  73       13D 0       -0.11048   0.00000   0.05508   0.09014   0.00205
  74       13D+1        0.00000   0.06295   0.00000   0.00000   0.00000
  75       13D-1        0.00364   0.00000   0.01568   0.04464  -0.09344
  76       13D+2       -0.12978   0.00000  -0.14864  -0.03771  -0.03424
  77       13D-2        0.00000   0.09140   0.00000   0.00000   0.00000
  78       14D 0        0.38111   0.00000  -0.01955  -0.18966   0.07762
  79       14D+1        0.00000  -0.09189   0.00000   0.00000   0.00000
  80       14D-1       -1.30069   0.00000   0.15476   0.31764   0.51010
  81       14D+2        1.06111   0.00000   0.31132  -0.02590  -0.31893
  82       14D-2        0.00000   0.10389   0.00000   0.00000   0.00000
  83       15F 0       -0.01734   0.00000   0.02928   0.00247   0.00770
  84       15F+1        0.00000  -0.01116   0.00000   0.00000   0.00000
  85       15F-1        0.03744   0.00000  -0.00632   0.01323  -0.00291
  86       15F+2       -0.01969   0.00000   0.00830   0.02668   0.02175
  87       15F-2        0.00000  -0.00527   0.00000   0.00000   0.00000
  88       15F+3        0.00000   0.05130   0.00000   0.00000   0.00000
  89       15F-3        0.01591   0.00000   0.01989  -0.00419   0.03297
  90       16F 0        0.07309   0.00000  -0.06275  -0.04579   0.00474
  91       16F+1        0.00000   0.00738   0.00000   0.00000   0.00000
  92       16F-1       -0.12831   0.00000   0.03444  -0.02588  -0.00164
  93       16F+2        0.10461   0.00000  -0.01788  -0.07631  -0.03850
  94       16F-2        0.00000   0.02336   0.00000   0.00000   0.00000
  95       16F+3        0.00000  -0.13112   0.00000   0.00000   0.00000
  96       16F-3       -0.00385   0.00000  -0.01994   0.01084  -0.07457
  97 3   Cl 1S         -0.01581   0.00000  -0.00995   0.00533   0.00345
  98        2S         -0.21257   0.00000  -0.18490   0.10105   0.08002
  99        3S         -0.60370   0.00000  -0.41701   0.22272   0.15652
 100        4S          0.02526   0.00000   0.16665  -0.10456  -0.09990
 101        5S          4.85269   0.00000   0.87899   0.04514  -0.12639
 102        6S         13.80037   0.00000  -7.16282   5.28077  10.02668
 103        7PX         0.00000  -0.01624   0.00000   0.00000   0.00000
 104        7PY         0.02347   0.00000  -0.01325  -0.00396   0.01632
 105        7PZ        -0.00126   0.00000   0.00377  -0.01090  -0.01454
 106        8PX         0.00000  -0.19167   0.00000   0.00000   0.00000
 107        8PY         0.38087   0.00000  -0.16763  -0.05125   0.26190
 108        8PZ        -0.02819   0.00000   0.03793  -0.13871  -0.23682
 109        9PX         0.00000   0.06220   0.00000   0.00000   0.00000
 110        9PY        -0.08623   0.00000   0.05154   0.01471  -0.06180
 111        9PZ         0.00144   0.00000  -0.01555   0.04276   0.05565
 112       10PX         0.00000   0.83882   0.00000   0.00000   0.00000
 113       10PY        -5.27821   0.00000   0.79824  -0.57498  -1.92685
 114       10PZ         2.67066   0.00000  -0.56692   1.39792   1.36174
 115       11PX         0.00000  -2.38656   0.00000   0.00000   0.00000
 116       11PY        -2.44617   0.00000  -1.70593  -1.27003  -1.48630
 117       11PZ         1.44548   0.00000  -1.02217  -2.72999   1.55257
 118       12D 0       -0.01860   0.00000   0.01018  -0.02333  -0.00528
 119       12D+1        0.00000  -0.01499   0.00000   0.00000   0.00000
 120       12D-1       -0.01973   0.00000   0.00286   0.00128  -0.01695
 121       12D+2       -0.04171   0.00000  -0.04297   0.00783   0.01299
 122       12D-2        0.00000   0.02192   0.00000   0.00000   0.00000
 123       13D 0        0.11048   0.00000  -0.05508   0.09014   0.00205
 124       13D+1        0.00000   0.06295   0.00000   0.00000   0.00000
 125       13D-1        0.00364   0.00000   0.01568  -0.04464   0.09344
 126       13D+2        0.12978   0.00000   0.14864  -0.03771  -0.03424
 127       13D-2        0.00000  -0.09140   0.00000   0.00000   0.00000
 128       14D 0       -0.38111   0.00000   0.01955  -0.18966   0.07762
 129       14D+1        0.00000  -0.09189   0.00000   0.00000   0.00000
 130       14D-1       -1.30069   0.00000   0.15476  -0.31764  -0.51010
 131       14D+2       -1.06111   0.00000  -0.31132  -0.02590  -0.31893
 132       14D-2        0.00000  -0.10389   0.00000   0.00000   0.00000
 133       15F 0        0.01734   0.00000  -0.02928   0.00247   0.00770
 134       15F+1        0.00000  -0.01116   0.00000   0.00000   0.00000
 135       15F-1        0.03744   0.00000  -0.00632  -0.01323   0.00291
 136       15F+2        0.01969   0.00000  -0.00830   0.02668   0.02175
 137       15F-2        0.00000   0.00527   0.00000   0.00000   0.00000
 138       15F+3        0.00000   0.05130   0.00000   0.00000   0.00000
 139       15F-3        0.01591   0.00000   0.01989   0.00419  -0.03297
 140       16F 0       -0.07309   0.00000   0.06275  -0.04579   0.00474
 141       16F+1        0.00000   0.00738   0.00000   0.00000   0.00000
 142       16F-1       -0.12831   0.00000   0.03444   0.02588   0.00164
 143       16F+2       -0.10461   0.00000   0.01788  -0.07631  -0.03850
 144       16F-2        0.00000  -0.02336   0.00000   0.00000   0.00000
 145       16F+3        0.00000  -0.13112   0.00000   0.00000   0.00000
 146       16F-3       -0.00385   0.00000  -0.01994  -0.01084   0.07457
 147 4   S  1S          0.00000   0.00000   0.00000   0.00197  -0.00378
 148        2S          0.00000   0.00000   0.00000   0.00003  -0.06316
 149        3S          0.00000   0.00000   0.00000   0.06165  -0.16996
 150        4S          0.00000   0.00000   0.00000   0.10451   0.02267
 151        5S          0.00000   0.00000   0.00000  -3.77722   2.29665
 152        6S          0.00000   0.00000   0.00000 -15.54018   4.09629
 153        7PX         0.00000  -0.01985   0.00000   0.00000   0.00000
 154        7PY         0.01747   0.00000   0.00357   0.00000   0.00000
 155        7PZ         0.00000   0.00000   0.00000  -0.00754  -0.00126
 156        8PX         0.00000  -0.08879   0.00000   0.00000   0.00000
 157        8PY         0.26700   0.00000   0.13281   0.00000   0.00000
 158        8PZ         0.00000   0.00000   0.00000  -0.01155  -0.13110
 159        9PX         0.00000   0.07447   0.00000   0.00000   0.00000
 160        9PY        -0.06530   0.00000  -0.01182   0.00000   0.00000
 161        9PZ         0.00000   0.00000   0.00000   0.02088   0.00105
 162       10PX         0.00000  -0.63803   0.00000   0.00000   0.00000
 163       10PY        -3.47499   0.00000  -0.40825   0.00000   0.00000
 164       10PZ         0.00000   0.00000   0.00000   3.57592  -0.33002
 165       11PX         0.00000  -4.11372   0.00000   0.00000   0.00000
 166       11PY        -0.05718   0.00000  -4.74529   0.00000   0.00000
 167       11PZ         0.00000   0.00000   0.00000  -1.07951   0.78888
 168       12D 0        0.00000   0.00000   0.00000  -0.45698   0.32987
 169       12D+1        0.00000  -0.34340   0.00000   0.00000   0.00000
 170       12D-1       -0.07817   0.00000  -0.36446   0.00000   0.00000
 171       12D+2        0.00000   0.00000   0.00000   0.11223  -0.14711
 172       12D-2        0.00000   0.00000   0.00000   0.00000   0.00000
 173       13D 0        0.00000   0.00000   0.00000   0.08600  -0.08191
 174       13D+1        0.00000   0.07023   0.00000   0.00000   0.00000
 175       13D-1        0.04207   0.00000   0.07059   0.00000   0.00000
 176       13D+2        0.00000   0.00000   0.00000  -0.03295   0.03039
 177       13D-2        0.00000   0.00000   0.00000   0.00000   0.00000
 178       14D 0        0.00000   0.00000   0.00000   0.19427  -1.16068
 179       14D+1        0.00000   1.23954   0.00000   0.00000   0.00000
 180       14D-1        1.45388   0.00000   0.92290   0.00000   0.00000
 181       14D+2        0.00000   0.00000   0.00000  -0.44371   0.17439
 182       14D-2        0.00000   0.00000   0.00000   0.00000   0.00000
 183       15F 0        0.00000   0.00000   0.00000  -0.01309  -0.01300
 184       15F+1        0.00000   0.01521   0.00000   0.00000   0.00000
 185       15F-1       -0.06905   0.00000   0.00563   0.00000   0.00000
 186       15F+2        0.00000   0.00000   0.00000  -0.01301   0.00189
 187       15F-2        0.00000   0.00000   0.00000   0.00000   0.00000
 188       15F+3        0.00000   0.02672   0.00000   0.00000   0.00000
 189       15F-3       -0.00273   0.00000   0.04049   0.00000   0.00000
 190       16F 0        0.00000   0.00000   0.00000   0.07777   0.13228
 191       16F+1        0.00000  -0.01680   0.00000   0.00000   0.00000
 192       16F-1        0.10221   0.00000   0.01320   0.00000   0.00000
 193       16F+2        0.00000   0.00000   0.00000   0.07212   0.01710
 194       16F-2        0.00000   0.00000   0.00000   0.00000   0.00000
 195       16F+3        0.00000  -0.06017   0.00000   0.00000   0.00000
 196       16F-3        0.01677   0.00000  -0.09420   0.00000   0.00000
                         196
     Eigenvalues --     0.00000
   1 1   C  1S         -0.03329
   2        2S         -0.12037
   3        3S          0.13355
   4        4S          2.58696
   5        5S         21.00343
   6        6PX         0.00000
   7        6PY         0.00000
   8        6PZ         0.02244
   9        7PX         0.00000
  10        7PY         0.00000
  11        7PZ        -0.20362
  12        8PX         0.00000
  13        8PY         0.00000
  14        8PZ         1.17497
  15        9PX         0.00000
  16        9PY         0.00000
  17        9PZ         3.35465
  18       10D 0        0.01263
  19       10D+1        0.00000
  20       10D-1        0.00000
  21       10D+2       -0.03509
  22       10D-2        0.00000
  23       11D 0       -0.33378
  24       11D+1        0.00000
  25       11D-1        0.00000
  26       11D+2        0.17076
  27       11D-2        0.00000
  28       12D 0       -1.00187
  29       12D+1        0.00000
  30       12D-1        0.00000
  31       12D+2       -0.74314
  32       12D-2        0.00000
  33       13F 0       -0.02586
  34       13F+1        0.00000
  35       13F-1        0.00000
  36       13F+2       -0.00085
  37       13F-2        0.00000
  38       13F+3        0.00000
  39       13F-3        0.00000
  40       14F 0       -0.14232
  41       14F+1        0.00000
  42       14F-1        0.00000
  43       14F+2       -0.12002
  44       14F-2        0.00000
  45       14F+3        0.00000
  46       14F-3        0.00000
  47 2   Cl 1S         -0.00100
  48        2S         -0.01374
  49        3S         -0.03847
  50        4S         -0.00157
  51        5S          0.37747
  52        6S         -3.45711
  53        7PX         0.00000
  54        7PY         0.00805
  55        7PZ         0.00365
  56        8PX         0.00000
  57        8PY         0.14304
  58        8PZ         0.08871
  59        9PX         0.00000
  60        9PY        -0.02914
  61        9PZ        -0.01143
  62       10PX         0.00000
  63       10PY         0.13607
  64       10PZ        -0.42117
  65       11PX         0.00000
  66       11PY        -0.73567
  67       11PZ        -1.02055
  68       12D 0        0.00841
  69       12D+1        0.00000
  70       12D-1       -0.01034
  71       12D+2       -0.00802
  72       12D-2        0.00000
  73       13D 0       -0.04126
  74       13D+1        0.00000
  75       13D-1        0.08803
  76       13D+2       -0.00850
  77       13D-2        0.00000
  78       14D 0       -0.05271
  79       14D+1        0.00000
  80       14D-1       -0.17128
  81       14D+2       -0.16920
  82       14D-2        0.00000
  83       15F 0       -0.00508
  84       15F+1        0.00000
  85       15F-1        0.00674
  86       15F+2       -0.00373
  87       15F-2        0.00000
  88       15F+3        0.00000
  89       15F-3       -0.00211
  90       16F 0        0.00441
  91       16F+1        0.00000
  92       16F-1       -0.02076
  93       16F+2       -0.00463
  94       16F-2        0.00000
  95       16F+3        0.00000
  96       16F-3       -0.01059
  97 3   Cl 1S         -0.00100
  98        2S         -0.01374
  99        3S         -0.03847
 100        4S         -0.00157
 101        5S          0.37747
 102        6S         -3.45711
 103        7PX         0.00000
 104        7PY        -0.00805
 105        7PZ         0.00365
 106        8PX         0.00000
 107        8PY        -0.14304
 108        8PZ         0.08871
 109        9PX         0.00000
 110        9PY         0.02914
 111        9PZ        -0.01143
 112       10PX         0.00000
 113       10PY        -0.13607
 114       10PZ        -0.42117
 115       11PX         0.00000
 116       11PY         0.73567
 117       11PZ        -1.02055
 118       12D 0        0.00841
 119       12D+1        0.00000
 120       12D-1        0.01034
 121       12D+2       -0.00802
 122       12D-2        0.00000
 123       13D 0       -0.04126
 124       13D+1        0.00000
 125       13D-1       -0.08803
 126       13D+2       -0.00850
 127       13D-2        0.00000
 128       14D 0       -0.05271
 129       14D+1        0.00000
 130       14D-1        0.17128
 131       14D+2       -0.16920
 132       14D-2        0.00000
 133       15F 0       -0.00508
 134       15F+1        0.00000
 135       15F-1       -0.00674
 136       15F+2       -0.00373
 137       15F-2        0.00000
 138       15F+3        0.00000
 139       15F-3        0.00211
 140       16F 0        0.00441
 141       16F+1        0.00000
 142       16F-1        0.02076
 143       16F+2       -0.00463
 144       16F-2        0.00000
 145       16F+3        0.00000
 146       16F-3        0.01059
 147 4   S  1S         -0.00436
 148        2S         -0.11022
 149        3S         -0.23206
 150        4S          0.10628
 151        5S          2.75922
 152        6S        -18.13933
 153        7PX         0.00000
 154        7PY         0.00000
 155        7PZ        -0.04535
 156        8PX         0.00000
 157        8PY         0.00000
 158        8PZ        -0.91013
 159        9PX         0.00000
 160        9PY         0.00000
 161        9PZ         0.14225
 162       10PX         0.00000
 163       10PY         0.00000
 164       10PZ         3.43813
 165       11PX         0.00000
 166       11PY         0.00000
 167       11PZ         4.74856
 168       12D 0        0.31471
 169       12D+1        0.00000
 170       12D-1        0.00000
 171       12D+2        0.09107
 172       12D-2        0.00000
 173       13D 0       -0.00638
 174       13D+1        0.00000
 175       13D-1        0.00000
 176       13D+2       -0.02095
 177       13D-2        0.00000
 178       14D 0       -1.71115
 179       14D+1        0.00000
 180       14D-1        0.00000
 181       14D+2        0.03777
 182       14D-2        0.00000
 183       15F 0       -0.08746
 184       15F+1        0.00000
 185       15F-1        0.00000
 186       15F+2        0.01202
 187       15F-2        0.00000
 188       15F+3        0.00000
 189       15F-3        0.00000
 190       16F 0        0.18828
 191       16F+1        0.00000
 192       16F-1        0.00000
 193       16F+2       -0.08512
 194       16F-2        0.00000
 195       16F+3        0.00000
 196       16F-3        0.00000
          Condensed to atoms (all electrons):
              1          2          3          4
     1  C    5.673232   0.071284   0.071284   0.179126
     2  Cl   0.071284  17.191990  -0.119038  -0.128558
     3  Cl   0.071284  -0.119038  17.191990  -0.128558
     4  S    0.179126  -0.128558  -0.128558  16.051708
 Mulliken atomic charges:
              1
     1  C    0.005074
     2  Cl  -0.015678
     3  Cl  -0.015678
     4  S    0.026283
 Sum of Mulliken atomic charges =   0.00000
 Mulliken charges with hydrogens summed into heavy atoms:
              1
     1  C    0.005074
     2  Cl  -0.015678
     3  Cl  -0.015678
     4  S    0.026283
 Sum of Mulliken charges with hydrogens summed into heavy atoms =   0.00000
 Electronic spatial extent (au):  <R**2>=            690.6769
 Charge=              0.0000 electrons
 Dipole moment (field-independent basis, Debye):
    X=              0.0000    Y=              0.0000    Z=             -0.4351  Tot=              0.4351
 Quadrupole moment (field-independent basis, Debye-Ang):
   XX=            -43.1530   YY=            -43.2924   ZZ=            -42.5374
   XY=              0.0000   XZ=              0.0000   YZ=              0.0000
 Traceless Quadrupole moment (field-independent basis, Debye-Ang):
   XX=             -0.1587   YY=             -0.2982   ZZ=              0.4569
   XY=              0.0000   XZ=              0.0000   YZ=              0.0000
 Octapole moment (field-independent basis, Debye-Ang**2):
  XXX=              0.0000  YYY=              0.0000  ZZZ=             81.6763  XYY=              0.0000
  XXY=              0.0000  XXZ=             27.1314  XZZ=              0.0000  YZZ=              0.0000
  YYZ=             18.9945  XYZ=              0.0000
 Hexadecapole moment (field-independent basis, Debye-Ang**3):
 XXXX=            -50.8940 YYYY=           -340.4816 ZZZZ=           -477.7187 XXXY=              0.0000
 XXXZ=              0.0000 YYYX=              0.0000 YYYZ=              0.0000 ZZZX=              0.0000
 ZZZY=              0.0000 XXYY=            -69.2256 XXZZ=            -89.7490 YYZZ=           -127.3450
 XXYZ=              0.0000 YYXZ=              0.0000 ZZXY=              0.0000
 N-N= 2.448930225845D+02 E-N=-3.713354971730D+03  KE= 1.355036369400D+03
 1\1\GINC-TRAPISTA\SP\RQCISD-FC\Aug-CC-pVTZ\C1Cl2S1\BRUNS\27-Nov-2021\0
 \\# qcisd/aug-cc-pvtz nosymm density=current output=wfn\\cl2cs-wavefun
 ction\\0,1\C,0,0.,0.,-0.522914\Cl,0,0.,-1.430735,-1.5009\Cl,0,0.,1.430
 735,-1.5009\S,0,0.,0.,1.081815\\Version=EM64L-G09RevB.01\HF=-1354.4260
 244\MP2=-1355.1503984\MP3=-1355.1829985\MP4D=-1355.2047784\MP4DQ=-1355
 .1798923\MP4SDQ=-1355.1867155\QCISD=-1355.1842294\RMSD=9.618e-09\Dipol
 e=0.,0.,-0.1711892\Quadrupole=-0.1179952,-0.221673,0.3396682,0.,0.,0.\
 PG=C02V [C2(C1S1),SGV(Cl2)]\\@

 Writing a WFN file to GAUSSIAN.wfn.


 YOU CAN LEAD A BOY TO COLLEGE....
 BUT YOU CANNOT MAKE HIM THINK....
           ELBERT HUBBARD
 Job cpu time:  0 days  2 hours 16 minutes  4.2 seconds.
 File lengths (MBytes):  RWF=  18573 Int=      0 D2E=      0 Chk=      3 Scr=      1
 Normal termination of Gaussian 09 at Sat Nov 27 19:09:21 2021.
