 cl2cs-wavefunction
GAUSSIAN            196 MOL ORBITALS    414 PRIMITIVES        4 NUCLEI
  C    1    (CENTRE  1)   0.00000000  0.00000000 -0.98816425  CHARGE =  6.0
  Cl   2    (CENTRE  2)   0.00000000 -2.70369732 -2.83628995  CHARGE = 17.0
  Cl   3    (CENTRE  3)  -0.01889726  2.70369732 -2.83628995  CHARGE = 17.0
  S    4    (CENTRE  4)   0.00000000  0.00000000  2.04433408  CHARGE = 16.0
CENTRE ASSIGNMENTS    1  1  1  1  1  1  1  1  1  1  1  1  1  1  1  1  1  1  1  1
CENTRE ASSIGNMENTS    1  1  1  1  1  1  1  1  1  1  1  1  1  1  1  1  1  1  1  1
CENTRE ASSIGNMENTS    1  1  1  1  1  1  1  1  1  1  1  1  1  1  1  1  1  1  1  1
CENTRE ASSIGNMENTS    1  1  1  1  1  1  1  1  1  1  1  1  2  2  2  2  2  2  2  2
CENTRE ASSIGNMENTS    2  2  2  2  2  2  2  2  2  2  2  2  2  2  2  2  2  2  2  2
CENTRE ASSIGNMENTS    2  2  2  2  2  2  2  2  2  2  2  2  2  2  2  2  2  2  2  2
CENTRE ASSIGNMENTS    2  2  2  2  2  2  2  2  2  2  2  2  2  2  2  2  2  2  2  2
CENTRE ASSIGNMENTS    2  2  2  2  2  2  2  2  2  2  2  2  2  2  2  2  2  2  2  2
CENTRE ASSIGNMENTS    2  2  2  2  2  2  2  2  2  2  2  2  2  2  2  2  2  2  2  2
CENTRE ASSIGNMENTS    2  2  2  2  2  2  3  3  3  3  3  3  3  3  3  3  3  3  3  3
CENTRE ASSIGNMENTS    3  3  3  3  3  3  3  3  3  3  3  3  3  3  3  3  3  3  3  3
CENTRE ASSIGNMENTS    3  3  3  3  3  3  3  3  3  3  3  3  3  3  3  3  3  3  3  3
CENTRE ASSIGNMENTS    3  3  3  3  3  3  3  3  3  3  3  3  3  3  3  3  3  3  3  3
CENTRE ASSIGNMENTS    3  3  3  3  3  3  3  3  3  3  3  3  3  3  3  3  3  3  3  3
CENTRE ASSIGNMENTS    3  3  3  3  3  3  3  3  3  3  3  3  3  3  3  3  3  3  3  3
CENTRE ASSIGNMENTS    4  4  4  4  4  4  4  4  4  4  4  4  4  4  4  4  4  4  4  4
CENTRE ASSIGNMENTS    4  4  4  4  4  4  4  4  4  4  4  4  4  4  4  4  4  4  4  4
CENTRE ASSIGNMENTS    4  4  4  4  4  4  4  4  4  4  4  4  4  4  4  4  4  4  4  4
CENTRE ASSIGNMENTS    4  4  4  4  4  4  4  4  4  4  4  4  4  4  4  4  4  4  4  4
CENTRE ASSIGNMENTS    4  4  4  4  4  4  4  4  4  4  4  4  4  4  4  4  4  4  4  4
CENTRE ASSIGNMENTS    4  4  4  4  4  4  4  4  4  4  4  4  4  4
TYPE ASSIGNMENTS      1  1  1  1  1  1  1  1  1  1  1  1  1  1  1  1  2  2  2  3
TYPE ASSIGNMENTS      3  3  4  4  4  2  3  4  2  3  4  2  3  4  5  6  7  8  9 10
TYPE ASSIGNMENTS      5  6  7  8  9 10  5  6  7  8  9 10 11 12 13 17 14 15 18 19
TYPE ASSIGNMENTS     16 20 11 12 13 17 14 15 18 19 16 20  1  1  1  1  1  1  1  1
TYPE ASSIGNMENTS      1  1  1  1  1  1  1  1  1  1  1  1  1  1  1  1  1  1  1  1
TYPE ASSIGNMENTS      1  1  1  2  2  2  2  2  2  3  3  3  3  3  3  4  4  4  4  4
TYPE ASSIGNMENTS      4  2  2  2  2  2  2  3  3  3  3  3  3  4  4  4  4  4  4  2
TYPE ASSIGNMENTS      3  4  2  3  4  2  3  4  5  6  7  8  9 10  5  6  7  8  9 10
TYPE ASSIGNMENTS      5  6  7  8  9 10 11 12 13 17 14 15 18 19 16 20 11 12 13 17
TYPE ASSIGNMENTS     14 15 18 19 16 20  1  1  1  1  1  1  1  1  1  1  1  1  1  1
TYPE ASSIGNMENTS      1  1  1  1  1  1  1  1  1  1  1  1  1  1  1  1  1  2  2  2
TYPE ASSIGNMENTS      2  2  2  3  3  3  3  3  3  4  4  4  4  4  4  2  2  2  2  2
TYPE ASSIGNMENTS      2  3  3  3  3  3  3  4  4  4  4  4  4  2  3  4  2  3  4  2
TYPE ASSIGNMENTS      3  4  5  6  7  8  9 10  5  6  7  8  9 10  5  6  7  8  9 10
TYPE ASSIGNMENTS     11 12 13 17 14 15 18 19 16 20 11 12 13 17 14 15 18 19 16 20
TYPE ASSIGNMENTS      1  1  1  1  1  1  1  1  1  1  1  1  1  1  1  1  1  1  1  1
TYPE ASSIGNMENTS      1  1  1  1  1  1  1  1  1  1  1  2  2  2  2  2  2  3  3  3
TYPE ASSIGNMENTS      3  3  3  4  4  4  4  4  4  2  2  2  2  2  2  3  3  3  3  3
TYPE ASSIGNMENTS      3  4  4  4  4  4  4  2  3  4  2  3  4  2  3  4  5  6  7  8
TYPE ASSIGNMENTS      9 10  5  6  7  8  9 10  5  6  7  8  9 10 11 12 13 17 14 15
TYPE ASSIGNMENTS     18 19 16 20 11 12 13 17 14 15 18 19 16 20
EXPONENTS  0.8236000D+04 0.1235000D+04 0.2808000D+03 0.7927000D+02 0.2559000D+02
EXPONENTS  0.8997000D+01 0.3319000D+01 0.2808000D+03 0.7927000D+02 0.2559000D+02
EXPONENTS  0.8997000D+01 0.3319000D+01 0.3643000D+00 0.9059000D+00 0.1285000D+00
EXPONENTS  0.4402000D-01 0.1871000D+02 0.4133000D+01 0.1200000D+01 0.1871000D+02
EXPONENTS  0.4133000D+01 0.1200000D+01 0.1871000D+02 0.4133000D+01 0.1200000D+01
EXPONENTS  0.3827000D+00 0.3827000D+00 0.3827000D+00 0.1209000D+00 0.1209000D+00
EXPONENTS  0.1209000D+00 0.3569000D-01 0.3569000D-01 0.3569000D-01 0.1097000D+01
EXPONENTS  0.1097000D+01 0.1097000D+01 0.1097000D+01 0.1097000D+01 0.1097000D+01
EXPONENTS  0.3180000D+00 0.3180000D+00 0.3180000D+00 0.3180000D+00 0.3180000D+00
EXPONENTS  0.3180000D+00 0.1000000D+00 0.1000000D+00 0.1000000D+00 0.1000000D+00
EXPONENTS  0.1000000D+00 0.1000000D+00 0.7610000D+00 0.7610000D+00 0.7610000D+00
EXPONENTS  0.7610000D+00 0.7610000D+00 0.7610000D+00 0.7610000D+00 0.7610000D+00
EXPONENTS  0.7610000D+00 0.7610000D+00 0.2680000D+00 0.2680000D+00 0.2680000D+00
EXPONENTS  0.2680000D+00 0.2680000D+00 0.2680000D+00 0.2680000D+00 0.2680000D+00
EXPONENTS  0.2680000D+00 0.2680000D+00 0.4561000D+06 0.6833000D+05 0.1555000D+05
EXPONENTS  0.4405000D+04 0.1439000D+04 0.5204000D+03 0.2031000D+03 0.8396000D+02
EXPONENTS  0.3620000D+02 0.1583000D+02 0.6334000D+01 0.4405000D+04 0.1439000D+04
EXPONENTS  0.5204000D+03 0.2031000D+03 0.8396000D+02 0.3620000D+02 0.1583000D+02
EXPONENTS  0.6334000D+01 0.2694000D+01 0.1439000D+04 0.2031000D+03 0.8396000D+02
EXPONENTS  0.3620000D+02 0.1583000D+02 0.6334000D+01 0.2694000D+01 0.4313000D+00
EXPONENTS  0.9768000D+00 0.1625000D+00 0.5910000D-01 0.6633000D+03 0.1568000D+03
EXPONENTS  0.4998000D+02 0.1842000D+02 0.7240000D+01 0.2922000D+01 0.6633000D+03
EXPONENTS  0.1568000D+03 0.4998000D+02 0.1842000D+02 0.7240000D+01 0.2922000D+01
EXPONENTS  0.6633000D+03 0.1568000D+03 0.4998000D+02 0.1842000D+02 0.7240000D+01
EXPONENTS  0.2922000D+01 0.1568000D+03 0.4998000D+02 0.1842000D+02 0.7240000D+01
EXPONENTS  0.2922000D+01 0.3818000D+00 0.1568000D+03 0.4998000D+02 0.1842000D+02
EXPONENTS  0.7240000D+01 0.2922000D+01 0.3818000D+00 0.1568000D+03 0.4998000D+02
EXPONENTS  0.1842000D+02 0.7240000D+01 0.2922000D+01 0.3818000D+00 0.1022000D+01
EXPONENTS  0.1022000D+01 0.1022000D+01 0.1301000D+00 0.1301000D+00 0.1301000D+00
EXPONENTS  0.4190000D-01 0.4190000D-01 0.4190000D-01 0.1046000D+01 0.1046000D+01
EXPONENTS  0.1046000D+01 0.1046000D+01 0.1046000D+01 0.1046000D+01 0.3440000D+00
EXPONENTS  0.3440000D+00 0.3440000D+00 0.3440000D+00 0.3440000D+00 0.3440000D+00
EXPONENTS  0.1350000D+00 0.1350000D+00 0.1350000D+00 0.1350000D+00 0.1350000D+00
EXPONENTS  0.1350000D+00 0.7060000D+00 0.7060000D+00 0.7060000D+00 0.7060000D+00
EXPONENTS  0.7060000D+00 0.7060000D+00 0.7060000D+00 0.7060000D+00 0.7060000D+00
EXPONENTS  0.7060000D+00 0.3120000D+00 0.3120000D+00 0.3120000D+00 0.3120000D+00
EXPONENTS  0.3120000D+00 0.3120000D+00 0.3120000D+00 0.3120000D+00 0.3120000D+00
EXPONENTS  0.3120000D+00 0.4561000D+06 0.6833000D+05 0.1555000D+05 0.4405000D+04
EXPONENTS  0.1439000D+04 0.5204000D+03 0.2031000D+03 0.8396000D+02 0.3620000D+02
EXPONENTS  0.1583000D+02 0.6334000D+01 0.4405000D+04 0.1439000D+04 0.5204000D+03
EXPONENTS  0.2031000D+03 0.8396000D+02 0.3620000D+02 0.1583000D+02 0.6334000D+01
EXPONENTS  0.2694000D+01 0.1439000D+04 0.2031000D+03 0.8396000D+02 0.3620000D+02
EXPONENTS  0.1583000D+02 0.6334000D+01 0.2694000D+01 0.4313000D+00 0.9768000D+00
EXPONENTS  0.1625000D+00 0.5910000D-01 0.6633000D+03 0.1568000D+03 0.4998000D+02
EXPONENTS  0.1842000D+02 0.7240000D+01 0.2922000D+01 0.6633000D+03 0.1568000D+03
EXPONENTS  0.4998000D+02 0.1842000D+02 0.7240000D+01 0.2922000D+01 0.6633000D+03
EXPONENTS  0.1568000D+03 0.4998000D+02 0.1842000D+02 0.7240000D+01 0.2922000D+01
EXPONENTS  0.1568000D+03 0.4998000D+02 0.1842000D+02 0.7240000D+01 0.2922000D+01
EXPONENTS  0.3818000D+00 0.1568000D+03 0.4998000D+02 0.1842000D+02 0.7240000D+01
EXPONENTS  0.2922000D+01 0.3818000D+00 0.1568000D+03 0.4998000D+02 0.1842000D+02
EXPONENTS  0.7240000D+01 0.2922000D+01 0.3818000D+00 0.1022000D+01 0.1022000D+01
EXPONENTS  0.1022000D+01 0.1301000D+00 0.1301000D+00 0.1301000D+00 0.4190000D-01
EXPONENTS  0.4190000D-01 0.4190000D-01 0.1046000D+01 0.1046000D+01 0.1046000D+01
EXPONENTS  0.1046000D+01 0.1046000D+01 0.1046000D+01 0.3440000D+00 0.3440000D+00
EXPONENTS  0.3440000D+00 0.3440000D+00 0.3440000D+00 0.3440000D+00 0.1350000D+00
EXPONENTS  0.1350000D+00 0.1350000D+00 0.1350000D+00 0.1350000D+00 0.1350000D+00
EXPONENTS  0.7060000D+00 0.7060000D+00 0.7060000D+00 0.7060000D+00 0.7060000D+00
EXPONENTS  0.7060000D+00 0.7060000D+00 0.7060000D+00 0.7060000D+00 0.7060000D+00
EXPONENTS  0.3120000D+00 0.3120000D+00 0.3120000D+00 0.3120000D+00 0.3120000D+00
EXPONENTS  0.3120000D+00 0.3120000D+00 0.3120000D+00 0.3120000D+00 0.3120000D+00
EXPONENTS  0.3741000D+06 0.5605000D+05 0.1276000D+05 0.3615000D+04 0.1183000D+04
EXPONENTS  0.4288000D+03 0.1678000D+03 0.6947000D+02 0.2984000D+02 0.1272000D+02
EXPONENTS  0.5244000D+01 0.3615000D+04 0.1183000D+04 0.4288000D+03 0.1678000D+03
EXPONENTS  0.6947000D+02 0.2984000D+02 0.1272000D+02 0.5244000D+01 0.2219000D+01
EXPONENTS  0.1183000D+04 0.1678000D+03 0.6947000D+02 0.2984000D+02 0.1272000D+02
EXPONENTS  0.5244000D+01 0.2219000D+01 0.3490000D+00 0.7767000D+00 0.1322000D+00
EXPONENTS  0.4970000D-01 0.5744000D+03 0.1358000D+03 0.4319000D+02 0.1587000D+02
EXPONENTS  0.6208000D+01 0.2483000D+01 0.5744000D+03 0.1358000D+03 0.4319000D+02
EXPONENTS  0.1587000D+02 0.6208000D+01 0.2483000D+01 0.5744000D+03 0.1358000D+03
EXPONENTS  0.4319000D+02 0.1587000D+02 0.6208000D+01 0.2483000D+01 0.1358000D+03
EXPONENTS  0.4319000D+02 0.1587000D+02 0.6208000D+01 0.2483000D+01 0.3229000D+00
EXPONENTS  0.1358000D+03 0.4319000D+02 0.1587000D+02 0.6208000D+01 0.2483000D+01
EXPONENTS  0.3229000D+00 0.1358000D+03 0.4319000D+02 0.1587000D+02 0.6208000D+01
EXPONENTS  0.2483000D+01 0.3229000D+00 0.8688000D+00 0.8688000D+00 0.8688000D+00
EXPONENTS  0.1098000D+00 0.1098000D+00 0.1098000D+00 0.3510000D-01 0.3510000D-01
EXPONENTS  0.3510000D-01 0.2690000D+00 0.2690000D+00 0.2690000D+00 0.2690000D+00
EXPONENTS  0.2690000D+00 0.2690000D+00 0.8190000D+00 0.8190000D+00 0.8190000D+00
EXPONENTS  0.8190000D+00 0.8190000D+00 0.8190000D+00 0.1010000D+00 0.1010000D+00
EXPONENTS  0.1010000D+00 0.1010000D+00 0.1010000D+00 0.1010000D+00 0.5570000D+00
EXPONENTS  0.5570000D+00 0.5570000D+00 0.5570000D+00 0.5570000D+00 0.5570000D+00
EXPONENTS  0.5570000D+00 0.5570000D+00 0.5570000D+00 0.5570000D+00 0.2180000D+00
EXPONENTS  0.2180000D+00 0.2180000D+00 0.2180000D+00 0.2180000D+00 0.2180000D+00
EXPONENTS  0.2180000D+00 0.2180000D+00 0.2180000D+00 0.2180000D+00
MO    1     MO 0.0        OCC NO =    2.0000385  ORB. ENERGY =    0.000000
  0.37927650D-07  0.70704780D-07  0.11950071D-06  0.17963186D-06  0.22064556D-06
  0.18621707D-06  0.70022482D-07  0.16490539D-09  0.12325657D-08  0.46063793D-08
  0.12851081D-07  0.17216905D-07 -0.20329955D-07 -0.52584724D-08  0.55032576D-07
  0.57871112D-08 -0.26003597D-05 -0.24380025D-05 -0.17360030D-05  0.74402306D-03
  0.69756892D-03  0.49671062D-03 -0.17525530D-06 -0.16431298D-06 -0.11700063D-06
 -0.69280354D-06  0.19819198D-03 -0.11411970D-06 -0.10813018D-05  0.30950905D-03
  0.76737799D-07  0.36745345D-07 -0.10510081D-04  0.61340556D-08  0.10404550D-07
 -0.13400425D-06  0.12359970D-06 -0.99509737D-07 -0.93916865D-06  0.26883510D-03
 -0.11290422D-07  0.50838242D-07 -0.39547820D-07  0.43725502D-06 -0.98250627D-06
  0.28121492D-03  0.17440813D-09 -0.24134462D-07  0.23960053D-07 -0.21462211D-06
 -0.65536046D-06  0.18758961D-03 -0.92372546D-07  0.24697221D-03 -0.20581176D-07
 -0.24042856D-05  0.26469736D-04  0.55180048D-07  0.26814032D-05 -0.76738636D-03
  0.65634801D-08 -0.45750496D-05  0.74983529D-07 -0.30059880D-03  0.15951592D-07
  0.30012234D-05 -0.21479968D-04 -0.29464179D-07 -0.32261740D-05  0.92327638D-03
 -0.18390596D-07  0.37050330D-05 -0.13943737D-02 -0.26087245D-02 -0.45072972D-02
 -0.73068584D-02 -0.11096166D-01 -0.15422626D-01 -0.18336321D-01 -0.16334632D-01
 -0.81121236D-02 -0.13059833D-02 -0.13778895D-04 -0.68570179D-05 -0.22873864D-03
 -0.79710836D-03 -0.28705163D-02 -0.63276959D-02 -0.89073536D-02  0.42490980D-03
  0.11656819D-01  0.68926041D-02  0.22706606D-06  0.27503245D-05  0.57355118D-05
  0.16448449D-04  0.85414507D-06 -0.70933691D-04 -0.18327903D-03  0.14932713D-03
  0.38479697D-03 -0.21119627D-03 -0.10724743D-03  0.28954570D-01  0.38139941D-01
  0.42074326D-01  0.34946022D-01  0.18557307D-01  0.47878823D-02 -0.48532122D+01
 -0.63928158D+01 -0.70522765D+01 -0.58574678D+01 -0.31104779D+01 -0.80251957D+00
  0.65973666D+01  0.86902751D+01  0.95867338D+01  0.79625330D+01  0.42283260D+01
  0.10909302D+01 -0.14063132D-05  0.13595332D-04  0.19170837D-04  0.27419368D-04
 -0.13884782D-06 -0.25146146D-04  0.25176851D-03 -0.24339359D-02 -0.34321038D-02
 -0.49088163D-02  0.24857555D-04  0.45018475D-02 -0.32939717D-03  0.31843999D-02
  0.44903363D-02  0.64223688D-02 -0.32521971D-04 -0.58899179D-02  0.18544581D-03
 -0.31219477D-01  0.42596659D-01 -0.31653387D-05  0.34365661D-03 -0.50720790D-03
 -0.11570092D-06  0.96087824D-05 -0.19524320D-04  0.76173095D-05 -0.81318711D-03
  0.80556980D-03  0.45668628D-05  0.46066920D-05  0.73868401D-03  0.41795601D-04
  0.47698110D-03 -0.51877670D-03 -0.14811484D-05 -0.33879335D-05 -0.34748080D-03
 -0.21082326D-05 -0.16031867D-05  0.37114193D-05 -0.17739783D-06 -0.25288956D-06
  0.34846389D-05 -0.14547129D-06 -0.22272402D-04 -0.98485548D-05  0.26236826D-06
  0.49191863D-04  0.37125239D-04  0.17404560D-06  0.17625342D-04 -0.75795742D-05
  0.10452712D-05  0.16502757D-06  0.84381633D-04 -0.40458085D-04  0.33348161D-06
 -0.90763051D-05  0.43598572D-04 -0.82856430D-06 -0.24406860D-03  0.77775683D-04
 -0.21840781D-05  0.13948227D-02  0.26095645D-02  0.45087486D-02  0.73092112D-02
  0.11099739D-01  0.15427592D-01  0.18342225D-01  0.16339892D-01  0.81147357D-02
  0.13064038D-02  0.13783332D-04  0.68592277D-05  0.22881235D-03  0.79736524D-03
  0.28714413D-02  0.63297351D-02  0.89102241D-02 -0.42504673D-03 -0.11660576D-01
 -0.68948253D-02 -0.22710586D-06 -0.27508066D-05 -0.57365172D-05 -0.16451333D-04
 -0.85429480D-06  0.70946125D-04  0.18331116D-03 -0.14935331D-03 -0.38488272D-03
  0.21127938D-03  0.10729266D-03  0.49649472D-02  0.65399970D-02  0.72146404D-02
  0.59923237D-02  0.31820902D-02  0.82099590D-03 -0.48520756D+01 -0.63913186D+01
 -0.70506248D+01 -0.58560960D+01 -0.31097495D+01 -0.80233162D+00 -0.65954274D+01
 -0.86877208D+01 -0.95839159D+01 -0.79601926D+01 -0.42270832D+01 -0.10906095D+01
 -0.35336645D-06  0.34161195D-05  0.48170850D-05  0.68897059D-05 -0.34888501D-07
 -0.63185101D-05  0.25171757D-03 -0.24334435D-02 -0.34314093D-02 -0.49078231D-02
  0.24852525D-04  0.45009366D-02  0.32930081D-03 -0.31834683D-02 -0.44890226D-02
 -0.64204899D-02  0.32512457D-04  0.58881948D-02  0.32750292D-04 -0.31212122D-01
 -0.42584070D-01  0.76378389D-06  0.34362882D-03  0.50716192D-03  0.48562019D-07
  0.96064573D-05  0.19521099D-04 -0.76146314D-05  0.81303189D-03 -0.80541725D-03
 -0.69056685D-05 -0.97680662D-05  0.73852171D-03 -0.41805602D-04 -0.47686778D-03
  0.51867338D-03  0.46015098D-05  0.58152694D-05 -0.34731906D-03  0.21110650D-05
  0.15889778D-05 -0.37000429D-05 -0.17026587D-06  0.22870212D-06  0.34807999D-05
 -0.19837326D-06 -0.22282069D-04  0.98476159D-05  0.89258415D-06  0.49203088D-04
 -0.37133344D-04 -0.29746436D-06  0.17643120D-04  0.75904966D-05  0.42051586D-06
 -0.10162188D-06  0.84358373D-04  0.40458618D-04 -0.22293500D-05 -0.90584812D-05
 -0.43571492D-04  0.25342156D-05 -0.24401664D-03 -0.77804361D-04 -0.17058368D-05
 -0.17699971D-07 -0.33091879D-07 -0.57192603D-07 -0.92506679D-07 -0.13982075D-06
 -0.19256212D-06 -0.22508167D-06 -0.19453080D-06 -0.90788537D-07 -0.12299855D-07
  0.89962908D-10 -0.21881779D-09 -0.28128807D-08 -0.10260984D-07 -0.34620307D-07
 -0.76041728D-07 -0.98225172D-07  0.15785621D-07  0.13242260D-06  0.72671813D-07
 -0.38580936D-10 -0.43946084D-09 -0.91247912D-09 -0.25090858D-08  0.32533180D-09
  0.11344944D-07  0.28296091D-07 -0.23423094D-07 -0.20212549D-07 -0.14726645D-06
 -0.29230433D-07 -0.29310466D-02 -0.38453665D-02 -0.42175348D-02 -0.34700606D-02
 -0.18292186D-02 -0.47592828D-03  0.83874269D+00  0.11003827D+01  0.12068817D+01
  0.99298589D+00  0.52344570D+00  0.13619073D+00  0.87137167D-04  0.11431901D-03
  0.12538321D-03  0.10316153D-03  0.54380892D-04  0.14148885D-04 -0.79497094D-07
 -0.28535984D-05 -0.45273053D-05 -0.53760362D-05 -0.81353598D-06  0.59207624D-05
  0.22750033D-04  0.81662678D-03  0.12955989D-02  0.15384839D-02  0.23281316D-03
 -0.16943706D-02  0.10298354D-08  0.36966592D-07  0.58648424D-07  0.69643205D-07
  0.10538853D-07 -0.76699794D-07 -0.20624887D-04  0.59020159D-02  0.60940140D-06
  0.18238957D-05 -0.52202664D-03  0.39153528D-08  0.23478811D-07 -0.67217102D-05
 -0.34861221D-09 -0.27863447D-08 -0.15605956D-07  0.18392301D-07 -0.15850569D-05
 -0.24123850D-05  0.69041284D-03  0.11930207D-07 -0.13653935D-07  0.17237284D-08
  0.54830549D-06  0.36540698D-06 -0.10460170D-03 -0.22884081D-08  0.10484703D-08
  0.12399378D-08 -0.91073325D-08 -0.26743733D-06  0.76550656D-04 -0.80641315D-07
  0.63084966D-04 -0.77895074D-08 -0.50005020D-06  0.23084734D-04 -0.12542681D-07
  0.74197414D-06 -0.21233963D-03  0.35911203D-07  0.23306545D-05 -0.72326987D-08
  0.27136510D-04 -0.20032636D-08 -0.26998822D-06  0.20717108D-05  0.25749834D-08
  0.29168632D-06 -0.83481240D-04  0.34348074D-08  0.65901376D-06
MO    2     MO 0.0        OCC NO =    2.0000376  ORB. ENERGY =    0.000000
 -0.56186692D-03 -0.10474331D-02 -0.17703047D-02 -0.26610982D-02 -0.32686825D-02
 -0.27586527D-02 -0.10373254D-02 -0.10916624D-05 -0.81595003D-05 -0.30493916D-04
 -0.85073276D-04 -0.11397474D-03  0.13458291D-03  0.18394822D-04 -0.44422638D-03
 -0.64458090D-04  0.10206966D-05  0.95696796D-06  0.68141820D-06  0.22332683D-07
  0.20938310D-07  0.14909324D-07  0.81736747D-03  0.76633396D-03  0.54567543D-03
  0.92113505D-06  0.35560659D-07  0.57386679D-03 -0.21774022D-05  0.19564504D-07
 -0.50672152D-03 -0.12609145D-06 -0.23970664D-08 -0.46048436D-04 -0.63784115D-04
  0.71573091D-03 -0.65194680D-03 -0.54482786D-05 -0.13211635D-05  0.44307923D-07
  0.63269746D-04 -0.11211554D-03  0.48845795D-04  0.12258346D-05 -0.23009146D-05
  0.29708615D-07  0.47765725D-05  0.16311026D-03 -0.16788683D-03 -0.11066904D-05
 -0.16691776D-05  0.28331498D-07 -0.51799992D-06  0.26292205D-07  0.99945659D-04
 -0.80215987D-06  0.39017295D-08 -0.19009203D-03  0.23561596D-05 -0.82778345D-07
 -0.10974495D-03 -0.56219483D-06  0.37265168D-06 -0.32988466D-07 -0.74359189D-04
  0.12026063D-05 -0.57211095D-08  0.98148976D-04 -0.23205614D-05  0.10468651D-06
  0.12492859D-03 -0.18670898D-06 -0.80091796D-03 -0.14984320D-02 -0.25889582D-02
 -0.41970054D-02 -0.63735555D-02 -0.88586425D-02 -0.10532247D-01 -0.93824917D-02
 -0.46595438D-02 -0.75014713D-03 -0.79144953D-05 -0.41588072D-05 -0.13873085D-03
 -0.48344923D-03 -0.17409789D-02 -0.38377714D-02 -0.54023435D-02  0.25770939D-03
  0.70699047D-02  0.41803904D-02  0.29119783D-06  0.35271169D-05  0.73554304D-05
  0.21094094D-04  0.10953869D-05 -0.90967963D-04 -0.23504375D-03  0.19150258D-03
  0.13814705D-03 -0.35362522D-03 -0.17162243D-03 -0.24878107D-01 -0.32770287D-01
 -0.36150756D-01 -0.30026033D-01 -0.15944657D-01 -0.41138048D-02  0.41833987D+01
  0.55105147D+01  0.60789603D+01  0.50490525D+01  0.26811870D+01  0.69176026D+00
 -0.70553243D+01 -0.92935126D+01 -0.10252199D+02 -0.85152541D+01 -0.45218362D+01
 -0.11666574D+01  0.11925286D-05 -0.11528599D-04 -0.16256528D-04 -0.23251136D-04
  0.11774048D-06  0.21323485D-04 -0.18198680D-03  0.17593313D-02  0.24808407D-02
  0.35482585D-02 -0.17967882D-04 -0.32540877D-02  0.33132240D-03 -0.32030118D-02
 -0.45165809D-02 -0.64599055D-02  0.32712052D-04  0.59243426D-02 -0.16231957D-03
  0.27021836D-01 -0.45649582D-01 -0.78369757D-06 -0.14312378D-03  0.13544472D-03
 -0.24460026D-08 -0.10748551D-04  0.13330683D-04  0.14970337D-04  0.47406459D-03
 -0.48903492D-03 -0.23120910D-05 -0.16949016D-05 -0.44605310D-03  0.24752950D-04
 -0.28447207D-03  0.25971912D-03  0.27166475D-05  0.22343800D-06  0.41255613D-03
 -0.27901198D-05  0.47352659D-04 -0.44562539D-04 -0.57252283D-06 -0.50370288D-06
 -0.26995098D-04 -0.22249471D-06 -0.30172617D-04  0.10912570D-05  0.62640572D-06
  0.59183846D-04  0.30253487D-04  0.41078398D-07  0.31334005D-04 -0.33527257D-04
  0.95237179D-06 -0.87529656D-07 -0.46849343D-04 -0.11823034D-04  0.67021527D-06
  0.18261131D-04 -0.41589772D-04 -0.40762630D-06  0.12228690D-03  0.77058873D-04
 -0.55211045D-06 -0.80007966D-03 -0.14968637D-02 -0.25862484D-02 -0.41926126D-02
 -0.63668845D-02 -0.88493704D-02 -0.10521223D-01 -0.93726713D-02 -0.46546668D-02
 -0.74936197D-03 -0.79062114D-05 -0.41547993D-05 -0.13859715D-03 -0.48298332D-03
 -0.17393011D-02 -0.38340729D-02 -0.53971372D-02  0.25746103D-03  0.70630913D-02
  0.41763617D-02  0.29118876D-06  0.35270070D-05  0.73552013D-05  0.21093437D-04
  0.10953528D-05 -0.90965129D-04 -0.23503642D-03  0.19149662D-03  0.13791127D-03
 -0.35351797D-03 -0.17158144D-03  0.43622279D-02  0.57460747D-02  0.63388198D-02
  0.52648862D-02  0.27958007D-02  0.72133118D-03 -0.41847870D+01 -0.55123434D+01
 -0.60809777D+01 -0.50507281D+01 -0.26820768D+01 -0.69198983D+00 -0.70572061D+01
 -0.92959913D+01 -0.10254934D+02 -0.85175252D+01 -0.45230423D+01 -0.11669685D+01
 -0.79521070D-07  0.76875854D-06  0.10840298D-05  0.15504494D-05 -0.78512573D-08
 -0.14219083D-05  0.18205621D-03 -0.17600023D-02 -0.24817870D-02 -0.35496119D-02
  0.17974735D-04  0.32553289D-02  0.33141341D-03 -0.32038916D-02 -0.45178216D-02
 -0.64616799D-02  0.32721038D-04  0.59259700D-02  0.26552900D-04 -0.27030775D-01
 -0.45661702D-01 -0.17836350D-05  0.14320791D-03  0.13558934D-03 -0.77551139D-07
  0.10751175D-04  0.13336927D-04  0.14972882D-04  0.47426508D-03 -0.48923796D-03
 -0.41070367D-05 -0.48152155D-05  0.44625124D-03  0.24746074D-04 -0.28458563D-03
  0.25983956D-03  0.16070766D-05  0.31083544D-05 -0.41262740D-03 -0.27897282D-05
  0.47354597D-04 -0.44564869D-04 -0.12848299D-06 -0.69232243D-06  0.26996910D-04
  0.19109297D-06  0.30163568D-04  0.10939222D-05 -0.83328254D-06 -0.59164148D-04
  0.30244848D-04  0.26000362D-06 -0.31326557D-04 -0.33526615D-04 -0.60645470D-07
  0.40100375D-07  0.46869273D-04 -0.11813613D-04 -0.56798737D-06 -0.18265996D-04
 -0.41596416D-04  0.44768624D-06 -0.12234182D-03  0.77037254D-04 -0.11068597D-05
  0.51333948D-03  0.95973986D-03  0.16587157D-02  0.26829043D-02  0.40551201D-02
  0.55847400D-02  0.65278810D-02  0.56418361D-02  0.26330743D-02  0.35672379D-03
 -0.26091292D-05  0.64746373D-05  0.83230811D-04  0.30361404D-03  0.10243862D-02
  0.22500118D-02  0.29064015D-02 -0.46708346D-03 -0.39182750D-02 -0.21502988D-02
  0.23271940D-06  0.26508187D-05  0.55040551D-05  0.15134754D-04 -0.19623946D-05
 -0.68432464D-04 -0.17068143D-03  0.14128762D-03 -0.26449448D-04  0.11724215D-02
  0.25936867D-03 -0.68699369D-03 -0.90129665D-03 -0.98852736D-03 -0.81333054D-03
 -0.42874161D-03 -0.11155050D-03  0.51214178D-04  0.67190089D-04  0.73692986D-04
  0.60632369D-04  0.31961937D-04  0.83158949D-05 -0.57347949D+00 -0.75237248D+00
 -0.82518978D+00 -0.67894130D+00 -0.35789925D+00 -0.93118652D-01 -0.45285586D-07
 -0.16255547D-05 -0.25789833D-05 -0.30624635D-05 -0.46343145D-06  0.33727672D-05
  0.21321281D-08  0.76534083D-07  0.12142324D-06  0.14418637D-06  0.21819199D-07
 -0.15879604D-06 -0.45653054D-05 -0.16387452D-03 -0.25999103D-03 -0.30873137D-03
 -0.46719194D-04  0.34001354D-03 -0.56750974D-05  0.37454417D-06 -0.39328782D-02
  0.32100638D-05 -0.60481606D-07 -0.11706634D-03  0.90393266D-07 -0.50547049D-09
 -0.89056350D-07  0.20081811D-04  0.45790952D-04 -0.65872763D-04 -0.17989054D-06
 -0.26996461D-05  0.74398861D-07 -0.91829231D-04  0.92072762D-04 -0.24353075D-06
 -0.12853023D-05  0.11309220D-05 -0.32878636D-08  0.10391872D-04 -0.90144909D-05
 -0.13773810D-05  0.13563359D-06 -0.63328018D-06  0.87870820D-08 -0.22390373D-06
  0.86720975D-08  0.33050278D-04  0.71333883D-08  0.17862383D-08  0.45349356D-04
  0.66457781D-06 -0.27802531D-07 -0.14450019D-03  0.13271936D-05 -0.40732107D-07
  0.23385550D-08  0.97900158D-05 -0.26867095D-06  0.10152155D-08 -0.19895925D-04
  0.39086727D-06 -0.80308805D-08 -0.94741220D-05 -0.72747737D-07
MO    3     MO 0.0        OCC NO =    2.0000330  ORB. ENERGY =    0.000000
  0.31089059D-08  0.57956269D-08  0.97953991D-08  0.14724312D-07  0.18086180D-07
  0.15264098D-07  0.57396993D-08  0.29001916D-12  0.21677135D-11  0.81012405D-11
  0.22601199D-10  0.30279376D-10 -0.35754297D-10  0.28727125D-09 -0.60885738D-09
 -0.14068448D-09  0.89866497D-07  0.84255553D-07  0.59994973D-07  0.49321567D-05
  0.46242104D-05  0.32927133D-05  0.74536151D-10  0.69882379D-10  0.49760417D-10
  0.11076231D-07 -0.71342322D-06 -0.15137810D-09 -0.32432910D-07  0.93941214D-05
 -0.14506368D-09 -0.11057404D-08  0.43181466D-06 -0.85590480D-11  0.41053163D-05
 -0.41053767D-05  0.60367206D-10 -0.11747477D-02 -0.20290517D-07 -0.11963414D-05
 -0.36373980D-06  0.36384312D-06 -0.10331639D-09  0.10411043D-03 -0.35033326D-08
  0.51308948D-05  0.40823269D-06 -0.40823280D-06  0.10997470D-12 -0.11681263D-03
 -0.19399153D-07  0.52977004D-05 -0.96914243D-08  0.45237337D-08 -0.41019708D-10
  0.15763586D-07  0.19496159D-05 -0.16191204D-05  0.13310686D-07 -0.19631871D-05
  0.16192434D-05  0.46332771D-03  0.71352430D-08 -0.39576646D-06  0.92742379D-11
 -0.82753508D-08 -0.16256276D-05  0.12171785D-05 -0.13130378D-07  0.28129270D-05
 -0.12172063D-05 -0.34830611D-03  0.36903960D-04  0.69043371D-04  0.11929163D-03
  0.19338575D-03  0.29367482D-03  0.40818037D-03  0.48529518D-03  0.43231781D-03
  0.21469817D-03  0.34564588D-04  0.36467682D-06  0.17265095D-06  0.57593465D-05
  0.20070170D-04  0.72275930D-04  0.15932329D-03  0.22427578D-03 -0.10698685D-04
 -0.29350380D-03 -0.17354696D-03  0.37196781D-08  0.45054385D-07  0.93956171D-07
  0.26944994D-06  0.13992160D-07 -0.11619988D-05 -0.30023818D-05  0.24461994D-05
 -0.97162475D-05 -0.41467676D-05  0.96776867D-06 -0.82134696D+01 -0.10819061D+02
 -0.11935118D+02 -0.99130497D+01 -0.52641045D+01 -0.13581665D+01 -0.72806413D-02
 -0.95903078D-02 -0.10579611D-01 -0.87871951D-02 -0.46662444D-02 -0.12039155D-02
  0.30111980D-01  0.39664522D-01  0.43756176D-01  0.36342930D-01  0.19299105D-01
  0.49792698D-02  0.35897329D-03 -0.34703228D-02 -0.48935175D-02 -0.69990245D-02
  0.35442075D-04  0.64187656D-02  0.27596992D-06 -0.26678997D-05 -0.37620170D-05
 -0.53806795D-05  0.27247004D-07  0.49345906D-05 -0.14963624D-05  0.14465868D-04
  0.20398385D-04  0.29175086D-04 -0.14773853D-06 -0.26756306D-04 -0.53790539D-01
 -0.46315831D-04  0.20054291D-03  0.35373541D-03 -0.26352228D-06  0.20976012D-05
  0.14917341D-04 -0.64865463D-07  0.11016583D-07 -0.98640750D-07 -0.11674784D-05
  0.12661191D-05 -0.99074003D-03 -0.56259098D-03  0.12637821D-05  0.48701222D-06
  0.67952334D-06 -0.11665356D-05  0.47786551D-03  0.32825546D-03 -0.24364565D-05
 -0.46280943D-06 -0.28490253D-06  0.74771196D-06 -0.39008556D-04 -0.52128808D-04
  0.56040247D-06 -0.21142818D-04  0.20680048D-06 -0.67210245D-06 -0.44250199D-04
  0.41690608D-06  0.15402842D-05  0.10767865D-03 -0.10373075D-05  0.47602314D-06
  0.17186287D-04 -0.17144128D-04  0.10873115D-06  0.40932065D-06  0.85414966D-04
  0.36565461D-07 -0.55034527D-06 -0.33982582D-04 -0.36275891D-06 -0.67761669D-06
  0.13699369D-03 -0.36901255D-04 -0.69038310D-04 -0.11928289D-03 -0.19337157D-03
 -0.29365329D-03 -0.40815045D-03 -0.48525960D-03 -0.43228612D-03 -0.21468243D-03
 -0.34562055D-04 -0.36465009D-06 -0.17263812D-06 -0.57589186D-05 -0.20068678D-04
 -0.72270560D-04 -0.15931146D-03 -0.22425911D-03  0.10697891D-04  0.29348199D-03
  0.17353406D-03 -0.37194641D-08 -0.45051793D-07 -0.93950765D-07 -0.26943444D-06
 -0.13991355D-07  0.11619320D-05  0.30022090D-05 -0.24460586D-05  0.97154730D-05
  0.41468761D-05 -0.96764341D-06  0.82134653D+01  0.10819055D+02  0.11935111D+02
  0.99130446D+01  0.52641017D+01  0.13581658D+01  0.50126359D-01  0.66028141D-01
  0.72839376D-01  0.60498805D-01  0.32126544D-01  0.82888163D-02 -0.30112596D-01
 -0.39665334D-01 -0.43757072D-01 -0.36343674D-01 -0.19299500D-01 -0.49793718D-02
 -0.35897057D-03  0.34702965D-02  0.48934804D-02  0.69989714D-02 -0.35441806D-04
 -0.64187169D-02 -0.22330205D-05  0.21587406D-04  0.30440495D-04  0.43537961D-04
 -0.22047011D-06 -0.39928417D-04  0.14963809D-05 -0.14466048D-04 -0.20398638D-04
 -0.29175448D-04  0.14774036D-06  0.26756638D-04  0.53790420D-01  0.32964579D-03
 -0.20054664D-03 -0.35374118D-03 -0.27360571D-05 -0.20974318D-05 -0.14917766D-04
 -0.16913305D-06 -0.11004794D-07  0.70231762D-05 -0.57570254D-05 -0.12661508D-05
 -0.99066401D-03  0.56256474D-03  0.51960598D-05 -0.38267315D-05  0.26602666D-05
  0.11664649D-05  0.47780524D-03 -0.32821119D-03 -0.47305178D-05  0.73541727D-06
  0.12280942D-07 -0.74769821D-06 -0.39002001D-04  0.52122417D-04  0.92474958D-06
  0.21137015D-04  0.51611654D-06  0.67206924D-06  0.44254328D-04  0.24155604D-06
 -0.16602575D-05 -0.10766537D-03 -0.17899057D-05 -0.35595026D-06  0.17160299D-04
  0.17138468D-04 -0.48823851D-06 -0.40931362D-06 -0.85400232D-04  0.15898935D-05
 -0.40708580D-06  0.33984827D-04 -0.12517796D-06  0.16350266D-05  0.13697264D-03
  0.50008827D-10  0.93496539D-10  0.16158981D-09  0.26136486D-09  0.39504423D-09
  0.54405770D-09  0.63593720D-09  0.54961993D-09  0.25651048D-09  0.34751542D-10
 -0.25417778D-12  0.10308297D-11  0.13251213D-10  0.48338519D-10  0.16309296D-09
  0.35822533D-09  0.46272941D-09 -0.74364554D-10 -0.62383022D-09 -0.34234998D-09
 -0.60503010D-13 -0.68916690D-12 -0.14309589D-11 -0.39347736D-11  0.51018858D-12
  0.17791254D-10  0.44374214D-10 -0.36732331D-10 -0.67241113D-10  0.35535061D-09
  0.13147677D-09 -0.20402642D-04 -0.26767105D-04 -0.29357722D-04 -0.24154649D-04
 -0.12732958D-04 -0.33128760D-05  0.67108790D-02  0.88042916D-02  0.96564024D-02
  0.79449970D-02  0.41881507D-02  0.10896780D-02  0.19560983D-07  0.25662897D-07
  0.28146644D-07  0.23158211D-07  0.12207692D-07  0.31762118D-08 -0.35400752D-09
 -0.12707323D-07 -0.20160487D-07 -0.23939960D-07 -0.36227469D-08  0.26365673D-07
  0.11817390D-06  0.42419269D-05  0.67299233D-05  0.79915775D-05  0.12093363D-05