 cl2cs-wavefunction
GAUSSIAN            196 MOL ORBITALS    414 PRIMITIVES        4 NUCLEI
  C    1    (CENTRE  1)   0.00000000  0.00000000 -0.98816425  CHARGE =  6.0
  Cl   2    (CENTRE  2)   0.01889726 -2.70369732 -2.83628995  CHARGE = 17.0
  Cl   3    (CENTRE  3)   0.00000000  2.70369732 -2.83628995  CHARGE = 17.0
  S    4    (CENTRE  4)   0.00000000  0.00000000  2.04433408  CHARGE = 16.0
CENTRE ASSIGNMENTS    1  1  1  1  1  1  1  1  1  1  1  1  1  1  1  1  1  1  1  1
CENTRE ASSIGNMENTS    1  1  1  1  1  1  1  1  1  1  1  1  1  1  1  1  1  1  1  1
CENTRE ASSIGNMENTS    1  1  1  1  1  1  1  1  1  1  1  1  1  1  1  1  1  1  1  1
CENTRE ASSIGNMENTS    1  1  1  1  1  1  1  1  1  1  1  1  2  2  2  2  2  2  2  2
CENTRE ASSIGNMENTS    2  2  2  2  2  2  2  2  2  2  2  2  2  2  2  2  2  2  2  2
CENTRE ASSIGNMENTS    2  2  2  2  2  2  2  2  2  2  2  2  2  2  2  2  2  2  2  2
CENTRE ASSIGNMENTS    2  2  2  2  2  2  2  2  2  2  2  2  2  2  2  2  2  2  2  2
CENTRE ASSIGNMENTS    2  2  2  2  2  2  2  2  2  2  2  2  2  2  2  2  2  2  2  2
CENTRE ASSIGNMENTS    2  2  2  2  2  2  2  2  2  2  2  2  2  2  2  2  2  2  2  2
CENTRE ASSIGNMENTS    2  2  2  2  2  2  3  3  3  3  3  3  3  3  3  3  3  3  3  3
CENTRE ASSIGNMENTS    3  3  3  3  3  3  3  3  3  3  3  3  3  3  3  3  3  3  3  3
CENTRE ASSIGNMENTS    3  3  3  3  3  3  3  3  3  3  3  3  3  3  3  3  3  3  3  3
CENTRE ASSIGNMENTS    3  3  3  3  3  3  3  3  3  3  3  3  3  3  3  3  3  3  3  3
CENTRE ASSIGNMENTS    3  3  3  3  3  3  3  3  3  3  3  3  3  3  3  3  3  3  3  3
CENTRE ASSIGNMENTS    3  3  3  3  3  3  3  3  3  3  3  3  3  3  3  3  3  3  3  3
CENTRE ASSIGNMENTS    4  4  4  4  4  4  4  4  4  4  4  4  4  4  4  4  4  4  4  4
CENTRE ASSIGNMENTS    4  4  4  4  4  4  4  4  4  4  4  4  4  4  4  4  4  4  4  4
CENTRE ASSIGNMENTS    4  4  4  4  4  4  4  4  4  4  4  4  4  4  4  4  4  4  4  4
CENTRE ASSIGNMENTS    4  4  4  4  4  4  4  4  4  4  4  4  4  4  4  4  4  4  4  4
CENTRE ASSIGNMENTS    4  4  4  4  4  4  4  4  4  4  4  4  4  4  4  4  4  4  4  4
CENTRE ASSIGNMENTS    4  4  4  4  4  4  4  4  4  4  4  4  4  4
TYPE ASSIGNMENTS      1  1  1  1  1  1  1  1  1  1  1  1  1  1  1  1  2  2  2  3
TYPE ASSIGNMENTS      3  3  4  4  4  2  3  4  2  3  4  2  3  4  5  6  7  8  9 10
TYPE ASSIGNMENTS      5  6  7  8  9 10  5  6  7  8  9 10 11 12 13 17 14 15 18 19
TYPE ASSIGNMENTS     16 20 11 12 13 17 14 15 18 19 16 20  1  1  1  1  1  1  1  1
TYPE ASSIGNMENTS      1  1  1  1  1  1  1  1  1  1  1  1  1  1  1  1  1  1  1  1
TYPE ASSIGNMENTS      1  1  1  2  2  2  2  2  2  3  3  3  3  3  3  4  4  4  4  4
TYPE ASSIGNMENTS      4  2  2  2  2  2  2  3  3  3  3  3  3  4  4  4  4  4  4  2
TYPE ASSIGNMENTS      3  4  2  3  4  2  3  4  5  6  7  8  9 10  5  6  7  8  9 10
TYPE ASSIGNMENTS      5  6  7  8  9 10 11 12 13 17 14 15 18 19 16 20 11 12 13 17
TYPE ASSIGNMENTS     14 15 18 19 16 20  1  1  1  1  1  1  1  1  1  1  1  1  1  1
TYPE ASSIGNMENTS      1  1  1  1  1  1  1  1  1  1  1  1  1  1  1  1  1  2  2  2
TYPE ASSIGNMENTS      2  2  2  3  3  3  3  3  3  4  4  4  4  4  4  2  2  2  2  2
TYPE ASSIGNMENTS      2  3  3  3  3  3  3  4  4  4  4  4  4  2  3  4  2  3  4  2
TYPE ASSIGNMENTS      3  4  5  6  7  8  9 10  5  6  7  8  9 10  5  6  7  8  9 10
TYPE ASSIGNMENTS     11 12 13 17 14 15 18 19 16 20 11 12 13 17 14 15 18 19 16 20
TYPE ASSIGNMENTS      1  1  1  1  1  1  1  1  1  1  1  1  1  1  1  1  1  1  1  1
TYPE ASSIGNMENTS      1  1  1  1  1  1  1  1  1  1  1  2  2  2  2  2  2  3  3  3
TYPE ASSIGNMENTS      3  3  3  4  4  4  4  4  4  2  2  2  2  2  2  3  3  3  3  3
TYPE ASSIGNMENTS      3  4  4  4  4  4  4  2  3  4  2  3  4  2  3  4  5  6  7  8
TYPE ASSIGNMENTS      9 10  5  6  7  8  9 10  5  6  7  8  9 10 11 12 13 17 14 15
TYPE ASSIGNMENTS     18 19 16 20 11 12 13 17 14 15 18 19 16 20
EXPONENTS  0.8236000D+04 0.1235000D+04 0.2808000D+03 0.7927000D+02 0.2559000D+02
EXPONENTS  0.8997000D+01 0.3319000D+01 0.2808000D+03 0.7927000D+02 0.2559000D+02
EXPONENTS  0.8997000D+01 0.3319000D+01 0.3643000D+00 0.9059000D+00 0.1285000D+00
EXPONENTS  0.4402000D-01 0.1871000D+02 0.4133000D+01 0.1200000D+01 0.1871000D+02
EXPONENTS  0.4133000D+01 0.1200000D+01 0.1871000D+02 0.4133000D+01 0.1200000D+01
EXPONENTS  0.3827000D+00 0.3827000D+00 0.3827000D+00 0.1209000D+00 0.1209000D+00
EXPONENTS  0.1209000D+00 0.3569000D-01 0.3569000D-01 0.3569000D-01 0.1097000D+01
EXPONENTS  0.1097000D+01 0.1097000D+01 0.1097000D+01 0.1097000D+01 0.1097000D+01
EXPONENTS  0.3180000D+00 0.3180000D+00 0.3180000D+00 0.3180000D+00 0.3180000D+00
EXPONENTS  0.3180000D+00 0.1000000D+00 0.1000000D+00 0.1000000D+00 0.1000000D+00
EXPONENTS  0.1000000D+00 0.1000000D+00 0.7610000D+00 0.7610000D+00 0.7610000D+00
EXPONENTS  0.7610000D+00 0.7610000D+00 0.7610000D+00 0.7610000D+00 0.7610000D+00
EXPONENTS  0.7610000D+00 0.7610000D+00 0.2680000D+00 0.2680000D+00 0.2680000D+00
EXPONENTS  0.2680000D+00 0.2680000D+00 0.2680000D+00 0.2680000D+00 0.2680000D+00
EXPONENTS  0.2680000D+00 0.2680000D+00 0.4561000D+06 0.6833000D+05 0.1555000D+05
EXPONENTS  0.4405000D+04 0.1439000D+04 0.5204000D+03 0.2031000D+03 0.8396000D+02
EXPONENTS  0.3620000D+02 0.1583000D+02 0.6334000D+01 0.4405000D+04 0.1439000D+04
EXPONENTS  0.5204000D+03 0.2031000D+03 0.8396000D+02 0.3620000D+02 0.1583000D+02
EXPONENTS  0.6334000D+01 0.2694000D+01 0.1439000D+04 0.2031000D+03 0.8396000D+02
EXPONENTS  0.3620000D+02 0.1583000D+02 0.6334000D+01 0.2694000D+01 0.4313000D+00
EXPONENTS  0.9768000D+00 0.1625000D+00 0.5910000D-01 0.6633000D+03 0.1568000D+03
EXPONENTS  0.4998000D+02 0.1842000D+02 0.7240000D+01 0.2922000D+01 0.6633000D+03
EXPONENTS  0.1568000D+03 0.4998000D+02 0.1842000D+02 0.7240000D+01 0.2922000D+01
EXPONENTS  0.6633000D+03 0.1568000D+03 0.4998000D+02 0.1842000D+02 0.7240000D+01
EXPONENTS  0.2922000D+01 0.1568000D+03 0.4998000D+02 0.1842000D+02 0.7240000D+01
EXPONENTS  0.2922000D+01 0.3818000D+00 0.1568000D+03 0.4998000D+02 0.1842000D+02
EXPONENTS  0.7240000D+01 0.2922000D+01 0.3818000D+00 0.1568000D+03 0.4998000D+02
EXPONENTS  0.1842000D+02 0.7240000D+01 0.2922000D+01 0.3818000D+00 0.1022000D+01
EXPONENTS  0.1022000D+01 0.1022000D+01 0.1301000D+00 0.1301000D+00 0.1301000D+00
EXPONENTS  0.4190000D-01 0.4190000D-01 0.4190000D-01 0.1046000D+01 0.1046000D+01
EXPONENTS  0.1046000D+01 0.1046000D+01 0.1046000D+01 0.1046000D+01 0.3440000D+00
EXPONENTS  0.3440000D+00 0.3440000D+00 0.3440000D+00 0.3440000D+00 0.3440000D+00
EXPONENTS  0.1350000D+00 0.1350000D+00 0.1350000D+00 0.1350000D+00 0.1350000D+00
EXPONENTS  0.1350000D+00 0.7060000D+00 0.7060000D+00 0.7060000D+00 0.7060000D+00
EXPONENTS  0.7060000D+00 0.7060000D+00 0.7060000D+00 0.7060000D+00 0.7060000D+00
EXPONENTS  0.7060000D+00 0.3120000D+00 0.3120000D+00 0.3120000D+00 0.3120000D+00
EXPONENTS  0.3120000D+00 0.3120000D+00 0.3120000D+00 0.3120000D+00 0.3120000D+00
EXPONENTS  0.3120000D+00 0.4561000D+06 0.6833000D+05 0.1555000D+05 0.4405000D+04
EXPONENTS  0.1439000D+04 0.5204000D+03 0.2031000D+03 0.8396000D+02 0.3620000D+02
EXPONENTS  0.1583000D+02 0.6334000D+01 0.4405000D+04 0.1439000D+04 0.5204000D+03
EXPONENTS  0.2031000D+03 0.8396000D+02 0.3620000D+02 0.1583000D+02 0.6334000D+01
EXPONENTS  0.2694000D+01 0.1439000D+04 0.2031000D+03 0.8396000D+02 0.3620000D+02
EXPONENTS  0.1583000D+02 0.6334000D+01 0.2694000D+01 0.4313000D+00 0.9768000D+00
EXPONENTS  0.1625000D+00 0.5910000D-01 0.6633000D+03 0.1568000D+03 0.4998000D+02
EXPONENTS  0.1842000D+02 0.7240000D+01 0.2922000D+01 0.6633000D+03 0.1568000D+03
EXPONENTS  0.4998000D+02 0.1842000D+02 0.7240000D+01 0.2922000D+01 0.6633000D+03
EXPONENTS  0.1568000D+03 0.4998000D+02 0.1842000D+02 0.7240000D+01 0.2922000D+01
EXPONENTS  0.1568000D+03 0.4998000D+02 0.1842000D+02 0.7240000D+01 0.2922000D+01
EXPONENTS  0.3818000D+00 0.1568000D+03 0.4998000D+02 0.1842000D+02 0.7240000D+01
EXPONENTS  0.2922000D+01 0.3818000D+00 0.1568000D+03 0.4998000D+02 0.1842000D+02
EXPONENTS  0.7240000D+01 0.2922000D+01 0.3818000D+00 0.1022000D+01 0.1022000D+01
EXPONENTS  0.1022000D+01 0.1301000D+00 0.1301000D+00 0.1301000D+00 0.4190000D-01
EXPONENTS  0.4190000D-01 0.4190000D-01 0.1046000D+01 0.1046000D+01 0.1046000D+01
EXPONENTS  0.1046000D+01 0.1046000D+01 0.1046000D+01 0.3440000D+00 0.3440000D+00
EXPONENTS  0.3440000D+00 0.3440000D+00 0.3440000D+00 0.3440000D+00 0.1350000D+00
EXPONENTS  0.1350000D+00 0.1350000D+00 0.1350000D+00 0.1350000D+00 0.1350000D+00
EXPONENTS  0.7060000D+00 0.7060000D+00 0.7060000D+00 0.7060000D+00 0.7060000D+00
EXPONENTS  0.7060000D+00 0.7060000D+00 0.7060000D+00 0.7060000D+00 0.7060000D+00
EXPONENTS  0.3120000D+00 0.3120000D+00 0.3120000D+00 0.3120000D+00 0.3120000D+00
EXPONENTS  0.3120000D+00 0.3120000D+00 0.3120000D+00 0.3120000D+00 0.3120000D+00
EXPONENTS  0.3741000D+06 0.5605000D+05 0.1276000D+05 0.3615000D+04 0.1183000D+04
EXPONENTS  0.4288000D+03 0.1678000D+03 0.6947000D+02 0.2984000D+02 0.1272000D+02
EXPONENTS  0.5244000D+01 0.3615000D+04 0.1183000D+04 0.4288000D+03 0.1678000D+03
EXPONENTS  0.6947000D+02 0.2984000D+02 0.1272000D+02 0.5244000D+01 0.2219000D+01
EXPONENTS  0.1183000D+04 0.1678000D+03 0.6947000D+02 0.2984000D+02 0.1272000D+02
EXPONENTS  0.5244000D+01 0.2219000D+01 0.3490000D+00 0.7767000D+00 0.1322000D+00
EXPONENTS  0.4970000D-01 0.5744000D+03 0.1358000D+03 0.4319000D+02 0.1587000D+02
EXPONENTS  0.6208000D+01 0.2483000D+01 0.5744000D+03 0.1358000D+03 0.4319000D+02
EXPONENTS  0.1587000D+02 0.6208000D+01 0.2483000D+01 0.5744000D+03 0.1358000D+03
EXPONENTS  0.4319000D+02 0.1587000D+02 0.6208000D+01 0.2483000D+01 0.1358000D+03
EXPONENTS  0.4319000D+02 0.1587000D+02 0.6208000D+01 0.2483000D+01 0.3229000D+00
EXPONENTS  0.1358000D+03 0.4319000D+02 0.1587000D+02 0.6208000D+01 0.2483000D+01
EXPONENTS  0.3229000D+00 0.1358000D+03 0.4319000D+02 0.1587000D+02 0.6208000D+01
EXPONENTS  0.2483000D+01 0.3229000D+00 0.8688000D+00 0.8688000D+00 0.8688000D+00
EXPONENTS  0.1098000D+00 0.1098000D+00 0.1098000D+00 0.3510000D-01 0.3510000D-01
EXPONENTS  0.3510000D-01 0.2690000D+00 0.2690000D+00 0.2690000D+00 0.2690000D+00
EXPONENTS  0.2690000D+00 0.2690000D+00 0.8190000D+00 0.8190000D+00 0.8190000D+00
EXPONENTS  0.8190000D+00 0.8190000D+00 0.8190000D+00 0.1010000D+00 0.1010000D+00
EXPONENTS  0.1010000D+00 0.1010000D+00 0.1010000D+00 0.1010000D+00 0.5570000D+00
EXPONENTS  0.5570000D+00 0.5570000D+00 0.5570000D+00 0.5570000D+00 0.5570000D+00
EXPONENTS  0.5570000D+00 0.5570000D+00 0.5570000D+00 0.5570000D+00 0.2180000D+00
EXPONENTS  0.2180000D+00 0.2180000D+00 0.2180000D+00 0.2180000D+00 0.2180000D+00
EXPONENTS  0.2180000D+00 0.2180000D+00 0.2180000D+00 0.2180000D+00
MO    1     MO 0.0        OCC NO =    2.0000385  ORB. ENERGY =    0.000000
 -0.37928021D-07 -0.70705472D-07 -0.11950188D-06 -0.17963362D-06 -0.22064772D-06
 -0.18621889D-06 -0.70023167D-07 -0.16490196D-09 -0.12325400D-08 -0.46062833D-08
 -0.12850813D-07 -0.17216547D-07  0.20329532D-07  0.52582286D-08 -0.55031124D-07
 -0.57869624D-08 -0.26003595D-05 -0.24380024D-05 -0.17360029D-05  0.74402324D-03
  0.69756908D-03  0.49671074D-03  0.17525262D-06  0.16431047D-06  0.11699885D-06
 -0.69280350D-06  0.19819201D-03  0.11411803D-06 -0.10813019D-05  0.30950908D-03
 -0.76736234D-07  0.36745335D-07 -0.10510079D-04 -0.61339283D-08 -0.10404357D-07
  0.13400215D-06 -0.12359779D-06  0.99506384D-07 -0.93916853D-06  0.26883502D-03
  0.11290236D-07 -0.50837936D-07  0.39547701D-07 -0.43725480D-06 -0.98250630D-06
  0.28121492D-03 -0.17442079D-09  0.24133980D-07 -0.23959559D-07  0.21462182D-06
 -0.65536046D-06  0.18758960D-03 -0.92372580D-07  0.24697221D-03  0.20580878D-07
 -0.24042856D-05  0.26469740D-04 -0.55179478D-07  0.26814033D-05 -0.76738637D-03
 -0.65631557D-08  0.45750509D-05  0.74983550D-07 -0.30059880D-03 -0.15951385D-07
  0.30012234D-05 -0.21479971D-04  0.29463897D-07 -0.32261741D-05  0.92327638D-03
  0.18390258D-07 -0.37050340D-05 -0.13948247D-02 -0.26095683D-02 -0.45087552D-02
 -0.73092219D-02 -0.11099755D-01 -0.15427615D-01 -0.18342252D-01 -0.16339915D-01
 -0.81147475D-02 -0.13064057D-02 -0.13783352D-04 -0.68592374D-05 -0.22881268D-03
 -0.79736637D-03 -0.28714454D-02 -0.63297441D-02 -0.89102368D-02  0.42504733D-03
  0.11660592D-01  0.68948351D-02  0.22710557D-06  0.27508031D-05  0.57365098D-05
  0.16451311D-04  0.85429369D-06 -0.70946033D-04 -0.18331092D-03  0.14935311D-03
  0.38488334D-03 -0.21127938D-03 -0.10729264D-03  0.49649224D-02  0.65399642D-02
  0.72146043D-02  0.59922938D-02  0.31820743D-02  0.82099179D-03 -0.48520755D+01
 -0.63913185D+01 -0.70506248D+01 -0.58560959D+01 -0.31097494D+01 -0.80233161D+00
  0.65954274D+01  0.86877208D+01  0.95839160D+01  0.79601926D+01  0.42270832D+01
  0.10906096D+01 -0.35336532D-06  0.34161085D-05  0.48170696D-05  0.68896838D-05
 -0.34888389D-07 -0.63184899D-05  0.25171756D-03 -0.24334434D-02 -0.34314093D-02
 -0.49078230D-02  0.24852525D-04  0.45009366D-02 -0.32930081D-03  0.31834683D-02
  0.44890226D-02  0.64204899D-02 -0.32512457D-04 -0.58881948D-02  0.32750131D-04
 -0.31212121D-01  0.42584070D-01  0.76378505D-06  0.34362882D-03 -0.50716191D-03
  0.48562060D-07  0.96064572D-05 -0.19521097D-04  0.76146357D-05 -0.81303189D-03
  0.80541725D-03  0.69056660D-05 -0.97680677D-05  0.73852168D-03  0.41805605D-04
  0.47686777D-03 -0.51867338D-03 -0.46015083D-05  0.58152706D-05 -0.34731908D-03
 -0.21110649D-05 -0.15889788D-05  0.37000438D-05  0.17026576D-06  0.22870198D-06
  0.34807998D-05 -0.19837334D-06 -0.22282068D-04 -0.98476144D-05  0.89258408D-06
  0.49203085D-04  0.37133346D-04 -0.29746407D-06  0.17643117D-04 -0.75905029D-05
 -0.42051569D-06 -0.10162195D-06  0.84358372D-04 -0.40458616D-04 -0.22293497D-05
 -0.90584781D-05  0.43571492D-04  0.25342155D-05 -0.24401664D-03  0.77804356D-04
  0.17058373D-05  0.13943757D-02  0.26087282D-02  0.45073037D-02  0.73068689D-02
  0.11096182D-01  0.15422648D-01  0.18336347D-01  0.16334655D-01  0.81121352D-02
  0.13059851D-02  0.13778915D-04  0.68570277D-05  0.22873896D-03  0.79710949D-03
  0.28705204D-02  0.63277049D-02  0.89073662D-02 -0.42491040D-03 -0.11656836D-01
 -0.68926139D-02 -0.22706577D-06 -0.27503210D-05 -0.57355045D-05 -0.16448428D-04
 -0.85414398D-06  0.70933600D-04  0.18327880D-03 -0.14932694D-03 -0.38479759D-03
  0.21119627D-03  0.10724742D-03  0.28954591D-01  0.38139970D-01  0.42074357D-01
  0.34946048D-01  0.18557321D-01  0.47878858D-02 -0.48532121D+01 -0.63928157D+01
 -0.70522764D+01 -0.58574677D+01 -0.31104779D+01 -0.80251956D+00 -0.65973666D+01
 -0.86902751D+01 -0.95867338D+01 -0.79625330D+01 -0.42283260D+01 -0.10909302D+01
 -0.14063142D-05  0.13595341D-04  0.19170850D-04  0.27419387D-04 -0.13884792D-06
 -0.25146164D-04  0.25176850D-03 -0.24339359D-02 -0.34321037D-02 -0.49088162D-02
  0.24857554D-04  0.45018474D-02  0.32939717D-03 -0.31843999D-02 -0.44903363D-02
 -0.64223687D-02  0.32521971D-04  0.58899179D-02  0.18544595D-03 -0.31219476D-01
 -0.42596659D-01 -0.31653397D-05  0.34365661D-03  0.50720789D-03 -0.11570095D-06
  0.96087822D-05  0.19524318D-04 -0.76173139D-05  0.81318710D-03 -0.80556979D-03
 -0.45668651D-05  0.46066935D-05  0.73868399D-03 -0.41795604D-04 -0.47698109D-03
  0.51877669D-03  0.14811496D-05 -0.33879344D-05 -0.34748082D-03  0.21082325D-05
  0.16031874D-05 -0.37114199D-05  0.17739772D-06 -0.25288942D-06  0.34846386D-05
 -0.14547119D-06 -0.22272400D-04  0.98485533D-05  0.26236828D-06  0.49191861D-04
 -0.37125241D-04  0.17404530D-06  0.17625340D-04  0.75795808D-05 -0.10452712D-05
  0.16502760D-06  0.84381632D-04  0.40458083D-04  0.33348141D-06 -0.90763019D-05
 -0.43598572D-04 -0.82856420D-06 -0.24406860D-03 -0.77775679D-04  0.21840784D-05
  0.17727345D-07  0.33143057D-07  0.57281054D-07  0.92649745D-07  0.14003699D-06
  0.19285993D-06  0.22542977D-06  0.19483165D-06  0.90928946D-07  0.12318877D-07
 -0.90102040D-10  0.21906501D-09  0.28160587D-08  0.10272577D-07  0.34659421D-07
  0.76127641D-07  0.98336148D-07 -0.15803456D-07 -0.13257221D-06 -0.72753918D-07
  0.38582543D-10  0.43947915D-09  0.91251714D-09  0.25091904D-08 -0.32534535D-09
 -0.11345416D-07 -0.28297270D-07  0.23424070D-07  0.20207704D-07  0.14726293D-06
  0.29229732D-07 -0.29310478D-02 -0.38453681D-02 -0.42175365D-02 -0.34700620D-02
 -0.18292194D-02 -0.47592848D-03  0.83874300D+00  0.11003831D+01  0.12068821D+01
  0.99298626D+00  0.52344590D+00  0.13619078D+00 -0.87136663D-04 -0.11431835D-03
 -0.12538248D-03 -0.10316093D-03 -0.54380577D-04 -0.14148803D-04 -0.79497105D-07
 -0.28535987D-05 -0.45273059D-05 -0.53760369D-05 -0.81353609D-06  0.59207632D-05
  0.22750036D-04  0.81662690D-03  0.12955990D-02  0.15384841D-02  0.23281320D-03
 -0.16943708D-02 -0.10298314D-08 -0.36966448D-07 -0.58648196D-07 -0.69642934D-07
 -0.10538811D-07  0.76699495D-07 -0.20624896D-04  0.59020180D-02 -0.60939855D-06
  0.18238959D-05 -0.52202666D-03 -0.39149297D-08  0.23478818D-07 -0.67217116D-05
  0.34861128D-09  0.27863221D-08  0.15605839D-07 -0.18392161D-07  0.15850571D-05
 -0.24123851D-05  0.69041287D-03 -0.11929990D-07  0.13653712D-07 -0.17237224D-08
 -0.54830615D-06  0.36540713D-06 -0.10460175D-03  0.22883785D-08 -0.10484398D-08
 -0.12399387D-08  0.91074093D-08 -0.26743735D-06  0.76550655D-04 -0.80641327D-07
  0.63084966D-04  0.77894125D-08 -0.50005017D-06  0.23084738D-04  0.12542527D-07
  0.74197415D-06 -0.21233964D-03 -0.35910765D-07 -0.23306543D-05 -0.72327035D-08
  0.27136511D-04  0.20032391D-08 -0.26998823D-06  0.20717113D-05 -0.25749291D-08
  0.29168634D-06 -0.83481243D-04 -0.34347882D-08 -0.65901401D-06
MO    2     MO 0.0        OCC NO =    2.0000376  ORB. ENERGY =    0.000000
 -0.56186701D-03 -0.10474333D-02 -0.17703050D-02 -0.26610986D-02 -0.32686830D-02
 -0.27586531D-02 -0.10373256D-02 -0.10916629D-05 -0.81595036D-05 -0.30493928D-04
 -0.85073311D-04 -0.11397478D-03  0.13458297D-03  0.18394863D-04 -0.44422654D-03
 -0.64458103D-04 -0.10207209D-05 -0.95699069D-06 -0.68143438D-06 -0.22330572D-07
 -0.20936330D-07 -0.14907914D-07  0.81736746D-03  0.76633395D-03  0.54567542D-03
 -0.92114051D-06 -0.35560334D-07  0.57386680D-03  0.21774026D-05 -0.19563542D-07
 -0.50672152D-03  0.12609156D-06  0.23970520D-08 -0.46048436D-04 -0.63784128D-04
  0.71573091D-03 -0.65194678D-03 -0.54482787D-05  0.13211678D-05 -0.44307203D-07
  0.63269764D-04 -0.11211555D-03  0.48845787D-04  0.12258348D-05  0.23009149D-05
 -0.29707579D-07  0.47765751D-05  0.16311025D-03 -0.16788683D-03 -0.11066904D-05
  0.16691782D-05 -0.28330969D-07  0.51800050D-06 -0.26291458D-07  0.99945659D-04
  0.80215891D-06 -0.39015903D-08 -0.19009203D-03 -0.23561604D-05  0.82775965D-07
 -0.10974495D-03 -0.56219478D-06 -0.37265186D-06  0.32987551D-07 -0.74359189D-04
 -0.12026058D-05  0.57210401D-08  0.98148973D-04  0.23205614D-05 -0.10468369D-06
  0.12492860D-03 -0.18670903D-06 -0.80007972D-03 -0.14968638D-02 -0.25862486D-02
 -0.41926129D-02 -0.63668849D-02 -0.88493710D-02 -0.10521224D-01 -0.93726720D-02
 -0.46546671D-02 -0.74936203D-03 -0.79062120D-05 -0.41547996D-05 -0.13859716D-03
 -0.48298335D-03 -0.17393012D-02 -0.38340731D-02 -0.53971375D-02  0.25746105D-03
  0.70630917D-02  0.41763619D-02  0.29118869D-06  0.35270062D-05  0.73551995D-05
  0.21093432D-04  0.10953525D-05 -0.90965107D-04 -0.23503637D-03  0.19149657D-03
  0.13791126D-03 -0.35351792D-03 -0.17158143D-03 -0.43621836D-02 -0.57460162D-02
 -0.63387553D-02 -0.52648326D-02 -0.27957722D-02 -0.72132384D-03  0.41847868D+01
  0.55123431D+01  0.60809774D+01  0.50507278D+01  0.26820766D+01  0.69198979D+00
 -0.70572062D+01 -0.92959914D+01 -0.10254934D+02 -0.85175254D+01 -0.45230423D+01
 -0.11669686D+01  0.79519141D-07 -0.76873989D-06 -0.10840035D-05 -0.15504118D-05
  0.78510669D-08  0.14218738D-05 -0.18205620D-03  0.17600022D-02  0.24817868D-02
  0.35496117D-02 -0.17974734D-04 -0.32553287D-02  0.33141341D-03 -0.32038916D-02
 -0.45178216D-02 -0.64616800D-02  0.32721038D-04  0.59259700D-02 -0.26552611D-04
  0.27030774D-01 -0.45661702D-01  0.17836326D-05 -0.14320789D-03  0.13558935D-03
  0.77551025D-07 -0.10751174D-04  0.13336927D-04  0.14972899D-04  0.47426505D-03
 -0.48923795D-03 -0.41070337D-05  0.48152183D-05 -0.44625127D-03  0.24746064D-04
 -0.28458561D-03  0.25983955D-03  0.16070738D-05 -0.31083560D-05  0.41262743D-03
 -0.27897284D-05  0.47354597D-04 -0.44564868D-04 -0.12848284D-06  0.69232237D-06
 -0.26996908D-04 -0.19109294D-06 -0.30163566D-04  0.10939236D-05  0.83328206D-06
  0.59164144D-04  0.30244844D-04 -0.26000323D-06  0.31326556D-04 -0.33526614D-04
 -0.60645352D-07 -0.40100175D-07 -0.46869272D-04 -0.11813614D-04  0.56798701D-06
  0.18265992D-04 -0.41596416D-04 -0.44768649D-06  0.12234182D-03  0.77037259D-04
 -0.11068606D-05 -0.80091806D-03 -0.14984322D-02 -0.25889585D-02 -0.41970059D-02
 -0.63735563D-02 -0.88586436D-02 -0.10532248D-01 -0.93824928D-02 -0.46595443D-02
 -0.75014722D-03 -0.79144963D-05 -0.41588077D-05 -0.13873086D-03 -0.48344929D-03
 -0.17409792D-02 -0.38377719D-02 -0.54023442D-02  0.25770942D-03  0.70699055D-02
  0.41803909D-02  0.29119775D-06  0.35271159D-05  0.73554284D-05  0.21094088D-04
  0.10953866D-05 -0.90967938D-04 -0.23504368D-03  0.19150253D-03  0.13814706D-03
 -0.35362516D-03 -0.17162242D-03  0.24878150D-01  0.32770343D-01  0.36150818D-01
  0.30026085D-01  0.15944684D-01  0.41138119D-02 -0.41833985D+01 -0.55105145D+01
 -0.60789600D+01 -0.50490523D+01 -0.26811869D+01 -0.69176023D+00 -0.70553245D+01
 -0.92935128D+01 -0.10252199D+02 -0.85152543D+01 -0.45218363D+01 -0.11666574D+01
 -0.11925305D-05  0.11528617D-04  0.16256554D-04  0.23251172D-04 -0.11774066D-06
 -0.21323518D-04  0.18198679D-03 -0.17593312D-02 -0.24808406D-02 -0.35482583D-02
  0.17967881D-04  0.32540875D-02  0.33132240D-03 -0.32030118D-02 -0.45165810D-02
 -0.64599056D-02  0.32712053D-04  0.59243427D-02  0.16231985D-03 -0.27021834D-01
 -0.45649583D-01  0.78369534D-06  0.14312376D-03  0.13544473D-03  0.24458918D-08
  0.10748550D-04  0.13330683D-04  0.14970354D-04  0.47406456D-03 -0.48903492D-03
 -0.23120933D-05  0.16949041D-05  0.44605314D-03  0.24752939D-04 -0.28447206D-03
  0.25971912D-03  0.27166499D-05 -0.22343944D-06 -0.41255616D-03 -0.27901200D-05
  0.47352658D-04 -0.44562538D-04 -0.57252299D-06  0.50370283D-06  0.26995096D-04
  0.22249471D-06  0.30172615D-04  0.10912584D-05 -0.62640610D-06 -0.59183842D-04
  0.30253482D-04 -0.41078013D-07 -0.31334003D-04 -0.33527257D-04  0.95237160D-06
  0.87529831D-07  0.46849343D-04 -0.11823035D-04 -0.67021555D-06 -0.18261127D-04
 -0.41589773D-04  0.40762606D-06 -0.12228690D-03  0.77058878D-04 -0.55210969D-06
  0.51333752D-03  0.95973619D-03  0.16587094D-02  0.26828941D-02  0.40551046D-02
  0.55847186D-02  0.65278560D-02  0.56418146D-02  0.26330643D-02  0.35672243D-03
 -0.26091192D-05  0.64746119D-05  0.83230484D-04  0.30361284D-03  0.10243822D-02
  0.22500030D-02  0.29063901D-02 -0.46708162D-03 -0.39182596D-02 -0.21502903D-02
  0.23271913D-06  0.26508155D-05  0.55040486D-05  0.15134736D-04 -0.19623923D-05
 -0.68432383D-04 -0.17068123D-03  0.14128745D-03 -0.26448991D-04  0.11724215D-02
  0.25936867D-03  0.68699409D-03  0.90129718D-03  0.98852794D-03  0.81333101D-03
  0.42874187D-03  0.11155057D-03 -0.51210412D-04 -0.67185149D-04 -0.73687568D-04
 -0.60627911D-04 -0.31959588D-04 -0.83152835D-05 -0.57347933D+00 -0.75237227D+00
 -0.82518955D+00 -0.67894110D+00 -0.35789915D+00 -0.93118626D-01  0.45285555D-07
  0.16255536D-05  0.25789815D-05  0.30624614D-05  0.46343113D-06 -0.33727649D-05
 -0.21320469D-08 -0.76531168D-07 -0.12141862D-06 -0.14418088D-06 -0.21818368D-07
  0.15878999D-06 -0.45653036D-05 -0.16387445D-03 -0.25999093D-03 -0.30873125D-03
 -0.46719176D-04  0.34001341D-03  0.56751026D-05 -0.37451796D-06 -0.39328770D-02
 -0.32100645D-05  0.60479991D-07 -0.11706637D-03 -0.90393301D-07  0.50544438D-09
 -0.89056668D-07  0.20081804D-04  0.45790946D-04 -0.65872750D-04 -0.17989054D-06
  0.26996466D-05 -0.74396678D-07 -0.91829227D-04  0.92072752D-04 -0.24352525D-06
 -0.12853022D-05 -0.11309211D-05  0.32874611D-08  0.10391871D-04 -0.90144913D-05
 -0.13773795D-05  0.13563358D-06  0.63328052D-06 -0.87868617D-08  0.22390371D-06
 -0.86719023D-08  0.33050276D-04 -0.71334347D-08 -0.17861550D-08  0.45349360D-04
 -0.66457768D-06  0.27801862D-07 -0.14450019D-03  0.13271937D-05  0.40732183D-07
 -0.23384694D-08  0.97900151D-05  0.26867090D-06 -0.10152064D-08 -0.19895924D-04
 -0.39086745D-06  0.80306147D-08 -0.94741212D-05 -0.72747736D-07
MO    3     MO 0.0        OCC NO =    2.0000330  ORB. ENERGY =    0.000000
 -0.30754768D-08 -0.57333083D-08 -0.96900722D-08 -0.14565986D-07 -0.17891705D-07
 -0.15099968D-07 -0.56779821D-08 -0.28585603D-12 -0.21365967D-11 -0.79849498D-11
 -0.22276767D-10 -0.29844725D-10  0.35241056D-10 -0.28458095D-09  0.60907965D-09
  0.14068872D-09  0.89856463D-07  0.84246146D-07  0.59988275D-07  0.49321740D-05
  0.46242267D-05  0.32927249D-05 -0.74948829D-10 -0.70269291D-10 -0.50035921D-10
  0.11074158D-07 -0.71342025D-06  0.15156931D-09 -0.32432642D-07  0.93941209D-05
  0.14519579D-09 -0.11056809D-08  0.43181460D-06  0.85604851D-11 -0.41053162D-05
  0.41053765D-05 -0.60267577D-10  0.11747477D-02 -0.20288011D-07 -0.11963394D-05
  0.36373987D-06 -0.36384324D-06  0.10336295D-09 -0.10411045D-03 -0.35034099D-08
  0.51308963D-05 -0.40823269D-06  0.40823281D-06 -0.11611023D-12  0.11681263D-03
 -0.19398784D-07  0.52977018D-05 -0.96911888D-08  0.45243894D-08  0.41060509D-10
  0.15763147D-07  0.19496150D-05  0.16191202D-05  0.13310420D-07 -0.19631881D-05
 -0.16192434D-05 -0.46332769D-03  0.71351452D-08 -0.39576737D-06 -0.92851439D-11
 -0.82750438D-08 -0.16256274D-05 -0.12171785D-05 -0.13130392D-07  0.28129295D-05
  0.12172064D-05  0.34830611D-03  0.36901267D-04  0.69038332D-04  0.11928293D-03
  0.19337164D-03  0.29365339D-03  0.40815058D-03  0.48525976D-03  0.43228626D-03
  0.21468250D-03  0.34562066D-04  0.36465021D-06  0.17263817D-06  0.57589203D-05
  0.20068684D-04  0.72270582D-04  0.15931150D-03  0.22425918D-03 -0.10697894D-04
 -0.29348208D-03 -0.17353412D-03  0.37194680D-08  0.45051841D-07  0.93950864D-07
  0.26943472D-06  0.13991370D-07 -0.11619332D-05 -0.30022122D-05  0.24460612D-05
 -0.97154759D-05 -0.41468798D-05  0.96764283D-06  0.82134653D+01  0.10819055D+02
  0.11935112D+02  0.99130446D+01  0.52641018D+01  0.13581658D+01  0.50126353D-01
  0.66028133D-01  0.72839367D-01  0.60498797D-01  0.32126540D-01  0.82888153D-02
  0.30112621D-01  0.39665367D-01  0.43757108D-01  0.36343705D-01  0.19299516D-01
  0.49793759D-02 -0.35897056D-03  0.34702964D-02  0.48934802D-02  0.69989711D-02
 -0.35441805D-04 -0.64187166D-02 -0.22330201D-05  0.21587401D-04  0.30440489D-04
  0.43537952D-04 -0.22047006D-06 -0.39928408D-04 -0.14963820D-05  0.14466059D-04
  0.20398653D-04  0.29175469D-04 -0.14774047D-06 -0.26756657D-04  0.53790420D-01
  0.32964576D-03  0.20054681D-03 -0.35374113D-03 -0.27360564D-05  0.20974305D-05
 -0.14917765D-04 -0.16913303D-06  0.11004747D-07 -0.70231765D-05  0.57570235D-05
  0.12661530D-05  0.99066403D-03  0.56256476D-03  0.51960617D-05  0.38267320D-05
 -0.26602655D-05 -0.11664666D-05 -0.47780523D-03 -0.32821118D-03 -0.47305197D-05
 -0.73541735D-06 -0.12280895D-07  0.74769825D-06  0.39002003D-04  0.52122419D-04
  0.92474960D-06  0.21137014D-04  0.51611650D-06 -0.67206934D-06  0.44254331D-04
  0.24155639D-06  0.16602578D-05 -0.10766537D-03 -0.17899059D-05  0.35595021D-06
 -0.17160286D-04  0.17138467D-04 -0.48823823D-06  0.40931353D-06 -0.85400231D-04
  0.15898934D-05  0.40708592D-06  0.33984829D-04 -0.12517870D-06 -0.16350265D-05
 -0.13697264D-03 -0.36903998D-04 -0.69043442D-04 -0.11929175D-03 -0.19338595D-03
 -0.29367512D-03 -0.40818079D-03 -0.48529568D-03 -0.43231825D-03 -0.21469839D-03
 -0.34564624D-04 -0.36467720D-06 -0.17265092D-06 -0.57593457D-05 -0.20070167D-04
 -0.72275921D-04 -0.15932327D-03 -0.22427575D-03  0.10698684D-04  0.29350376D-03
  0.17354694D-03 -0.37196803D-08 -0.45054412D-07 -0.93956226D-07 -0.26945010D-06
 -0.13992168D-07  0.11619995D-05  0.30023835D-05 -0.24462008D-05  0.97162455D-05
  0.41467715D-05 -0.96776805D-06 -0.82134695D+01 -0.10819061D+02 -0.11935118D+02
 -0.99130497D+01 -0.52641045D+01 -0.13581665D+01 -0.72806478D-02 -0.95903164D-02
 -0.10579620D-01 -0.87872029D-02 -0.46662486D-02 -0.12039165D-02 -0.30112005D-01
 -0.39664554D-01 -0.43756212D-01 -0.36342960D-01 -0.19299120D-01 -0.49792739D-02
  0.35897328D-03 -0.34703227D-02 -0.48935172D-02 -0.69990242D-02  0.35442073D-04
  0.64187653D-02  0.27597030D-06 -0.26679033D-05 -0.37620221D-05 -0.53806868D-05
  0.27247041D-07  0.49345973D-05  0.14963634D-05 -0.14465879D-04 -0.20398399D-04
 -0.29175107D-04  0.14773863D-06  0.26756325D-04 -0.53790540D-01 -0.46315869D-04
 -0.20054307D-03  0.35373536D-03 -0.26352204D-06 -0.20976000D-05  0.14917339D-04
 -0.64865451D-07 -0.11016535D-07  0.98640982D-07  0.11674803D-05 -0.12661213D-05
  0.99074004D-03 -0.56259099D-03  0.12637842D-05 -0.48701282D-06 -0.67952445D-06
  0.11665373D-05 -0.47786550D-03  0.32825545D-03 -0.24364585D-05  0.46280950D-06
  0.28490250D-06 -0.74771200D-06  0.39008557D-04 -0.52128810D-04  0.56040248D-06
 -0.21142818D-04  0.20680042D-06  0.67210256D-06 -0.44250202D-04  0.41690649D-06
 -0.15402847D-05  0.10767866D-03 -0.10373078D-05 -0.47602303D-06 -0.17186275D-04
 -0.17144127D-04  0.10873141D-06 -0.40932057D-06  0.85414965D-04  0.36565425D-07
  0.55034513D-06 -0.33982583D-04 -0.36275967D-06  0.67761657D-06 -0.13699369D-03
  0.26159008D-11  0.48906900D-11  0.84525659D-11  0.13671677D-10  0.20664282D-10
  0.28458995D-10  0.33265100D-10  0.28749948D-10  0.13417751D-10  0.18178108D-11
 -0.13295730D-13 -0.62631176D-12 -0.80511747D-11 -0.29369528D-10 -0.99092059D-10
 -0.21765063D-09 -0.28114524D-09  0.45182432D-10  0.37902690D-09  0.20800508D-09
  0.63457233D-13  0.72281733D-12  0.15008293D-11  0.41268995D-11 -0.53509992D-12
 -0.18659960D-10 -0.46540904D-10  0.38525887D-10  0.59595729D-10 -0.35544836D-09
 -0.13150403D-09 -0.20404818D-04 -0.26769961D-04 -0.29360854D-04 -0.24157226D-04
 -0.12734316D-04 -0.33132295D-05  0.67108656D-02  0.88042740D-02  0.96563832D-02
  0.79449812D-02  0.41881423D-02  0.10896759D-02 -0.20165567D-07 -0.26456076D-07
 -0.29016590D-07 -0.23873976D-07 -0.12585003D-07 -0.32743810D-08 -0.35404813D-09
 -0.12708781D-07 -0.20162800D-07 -0.23942706D-07 -0.36231626D-08  0.26368698D-07
  0.11817382D-06  0.42419240D-05  0.67299188D-05  0.79915721D-05  0.12093355D-05