 cl2cs-wavefunction
GAUSSIAN            196 MOL ORBITALS    414 PRIMITIVES        4 NUCLEI
  C    1    (CENTRE  1)   0.00000000  0.00000000 -0.98816425  CHARGE =  6.0
  Cl   2    (CENTRE  2)   0.00000000 -2.70369732 -2.83628995  CHARGE = 17.0
  Cl   3    (CENTRE  3)   0.00000000  2.72259458 -2.83628995  CHARGE = 17.0
  S    4    (CENTRE  4)   0.00000000  0.00000000  2.04433408  CHARGE = 16.0
CENTRE ASSIGNMENTS    1  1  1  1  1  1  1  1  1  1  1  1  1  1  1  1  1  1  1  1
CENTRE ASSIGNMENTS    1  1  1  1  1  1  1  1  1  1  1  1  1  1  1  1  1  1  1  1
CENTRE ASSIGNMENTS    1  1  1  1  1  1  1  1  1  1  1  1  1  1  1  1  1  1  1  1
CENTRE ASSIGNMENTS    1  1  1  1  1  1  1  1  1  1  1  1  2  2  2  2  2  2  2  2
CENTRE ASSIGNMENTS    2  2  2  2  2  2  2  2  2  2  2  2  2  2  2  2  2  2  2  2
CENTRE ASSIGNMENTS    2  2  2  2  2  2  2  2  2  2  2  2  2  2  2  2  2  2  2  2
CENTRE ASSIGNMENTS    2  2  2  2  2  2  2  2  2  2  2  2  2  2  2  2  2  2  2  2
CENTRE ASSIGNMENTS    2  2  2  2  2  2  2  2  2  2  2  2  2  2  2  2  2  2  2  2
CENTRE ASSIGNMENTS    2  2  2  2  2  2  2  2  2  2  2  2  2  2  2  2  2  2  2  2
CENTRE ASSIGNMENTS    2  2  2  2  2  2  3  3  3  3  3  3  3  3  3  3  3  3  3  3
CENTRE ASSIGNMENTS    3  3  3  3  3  3  3  3  3  3  3  3  3  3  3  3  3  3  3  3
CENTRE ASSIGNMENTS    3  3  3  3  3  3  3  3  3  3  3  3  3  3  3  3  3  3  3  3
CENTRE ASSIGNMENTS    3  3  3  3  3  3  3  3  3  3  3  3  3  3  3  3  3  3  3  3
CENTRE ASSIGNMENTS    3  3  3  3  3  3  3  3  3  3  3  3  3  3  3  3  3  3  3  3
CENTRE ASSIGNMENTS    3  3  3  3  3  3  3  3  3  3  3  3  3  3  3  3  3  3  3  3
CENTRE ASSIGNMENTS    4  4  4  4  4  4  4  4  4  4  4  4  4  4  4  4  4  4  4  4
CENTRE ASSIGNMENTS    4  4  4  4  4  4  4  4  4  4  4  4  4  4  4  4  4  4  4  4
CENTRE ASSIGNMENTS    4  4  4  4  4  4  4  4  4  4  4  4  4  4  4  4  4  4  4  4
CENTRE ASSIGNMENTS    4  4  4  4  4  4  4  4  4  4  4  4  4  4  4  4  4  4  4  4
CENTRE ASSIGNMENTS    4  4  4  4  4  4  4  4  4  4  4  4  4  4  4  4  4  4  4  4
CENTRE ASSIGNMENTS    4  4  4  4  4  4  4  4  4  4  4  4  4  4
TYPE ASSIGNMENTS      1  1  1  1  1  1  1  1  1  1  1  1  1  1  1  1  2  2  2  3
TYPE ASSIGNMENTS      3  3  4  4  4  2  3  4  2  3  4  2  3  4  5  6  7  8  9 10
TYPE ASSIGNMENTS      5  6  7  8  9 10  5  6  7  8  9 10 11 12 13 17 14 15 18 19
TYPE ASSIGNMENTS     16 20 11 12 13 17 14 15 18 19 16 20  1  1  1  1  1  1  1  1
TYPE ASSIGNMENTS      1  1  1  1  1  1  1  1  1  1  1  1  1  1  1  1  1  1  1  1
TYPE ASSIGNMENTS      1  1  1  2  2  2  2  2  2  3  3  3  3  3  3  4  4  4  4  4
TYPE ASSIGNMENTS      4  2  2  2  2  2  2  3  3  3  3  3  3  4  4  4  4  4  4  2
TYPE ASSIGNMENTS      3  4  2  3  4  2  3  4  5  6  7  8  9 10  5  6  7  8  9 10
TYPE ASSIGNMENTS      5  6  7  8  9 10 11 12 13 17 14 15 18 19 16 20 11 12 13 17
TYPE ASSIGNMENTS     14 15 18 19 16 20  1  1  1  1  1  1  1  1  1  1  1  1  1  1
TYPE ASSIGNMENTS      1  1  1  1  1  1  1  1  1  1  1  1  1  1  1  1  1  2  2  2
TYPE ASSIGNMENTS      2  2  2  3  3  3  3  3  3  4  4  4  4  4  4  2  2  2  2  2
TYPE ASSIGNMENTS      2  3  3  3  3  3  3  4  4  4  4  4  4  2  3  4  2  3  4  2
TYPE ASSIGNMENTS      3  4  5  6  7  8  9 10  5  6  7  8  9 10  5  6  7  8  9 10
TYPE ASSIGNMENTS     11 12 13 17 14 15 18 19 16 20 11 12 13 17 14 15 18 19 16 20
TYPE ASSIGNMENTS      1  1  1  1  1  1  1  1  1  1  1  1  1  1  1  1  1  1  1  1
TYPE ASSIGNMENTS      1  1  1  1  1  1  1  1  1  1  1  2  2  2  2  2  2  3  3  3
TYPE ASSIGNMENTS      3  3  3  4  4  4  4  4  4  2  2  2  2  2  2  3  3  3  3  3
TYPE ASSIGNMENTS      3  4  4  4  4  4  4  2  3  4  2  3  4  2  3  4  5  6  7  8
TYPE ASSIGNMENTS      9 10  5  6  7  8  9 10  5  6  7  8  9 10 11 12 13 17 14 15
TYPE ASSIGNMENTS     18 19 16 20 11 12 13 17 14 15 18 19 16 20
EXPONENTS  0.8236000D+04 0.1235000D+04 0.2808000D+03 0.7927000D+02 0.2559000D+02
EXPONENTS  0.8997000D+01 0.3319000D+01 0.2808000D+03 0.7927000D+02 0.2559000D+02
EXPONENTS  0.8997000D+01 0.3319000D+01 0.3643000D+00 0.9059000D+00 0.1285000D+00
EXPONENTS  0.4402000D-01 0.1871000D+02 0.4133000D+01 0.1200000D+01 0.1871000D+02
EXPONENTS  0.4133000D+01 0.1200000D+01 0.1871000D+02 0.4133000D+01 0.1200000D+01
EXPONENTS  0.3827000D+00 0.3827000D+00 0.3827000D+00 0.1209000D+00 0.1209000D+00
EXPONENTS  0.1209000D+00 0.3569000D-01 0.3569000D-01 0.3569000D-01 0.1097000D+01
EXPONENTS  0.1097000D+01 0.1097000D+01 0.1097000D+01 0.1097000D+01 0.1097000D+01
EXPONENTS  0.3180000D+00 0.3180000D+00 0.3180000D+00 0.3180000D+00 0.3180000D+00
EXPONENTS  0.3180000D+00 0.1000000D+00 0.1000000D+00 0.1000000D+00 0.1000000D+00
EXPONENTS  0.1000000D+00 0.1000000D+00 0.7610000D+00 0.7610000D+00 0.7610000D+00
EXPONENTS  0.7610000D+00 0.7610000D+00 0.7610000D+00 0.7610000D+00 0.7610000D+00
EXPONENTS  0.7610000D+00 0.7610000D+00 0.2680000D+00 0.2680000D+00 0.2680000D+00
EXPONENTS  0.2680000D+00 0.2680000D+00 0.2680000D+00 0.2680000D+00 0.2680000D+00
EXPONENTS  0.2680000D+00 0.2680000D+00 0.4561000D+06 0.6833000D+05 0.1555000D+05
EXPONENTS  0.4405000D+04 0.1439000D+04 0.5204000D+03 0.2031000D+03 0.8396000D+02
EXPONENTS  0.3620000D+02 0.1583000D+02 0.6334000D+01 0.4405000D+04 0.1439000D+04
EXPONENTS  0.5204000D+03 0.2031000D+03 0.8396000D+02 0.3620000D+02 0.1583000D+02
EXPONENTS  0.6334000D+01 0.2694000D+01 0.1439000D+04 0.2031000D+03 0.8396000D+02
EXPONENTS  0.3620000D+02 0.1583000D+02 0.6334000D+01 0.2694000D+01 0.4313000D+00
EXPONENTS  0.9768000D+00 0.1625000D+00 0.5910000D-01 0.6633000D+03 0.1568000D+03
EXPONENTS  0.4998000D+02 0.1842000D+02 0.7240000D+01 0.2922000D+01 0.6633000D+03
EXPONENTS  0.1568000D+03 0.4998000D+02 0.1842000D+02 0.7240000D+01 0.2922000D+01
EXPONENTS  0.6633000D+03 0.1568000D+03 0.4998000D+02 0.1842000D+02 0.7240000D+01
EXPONENTS  0.2922000D+01 0.1568000D+03 0.4998000D+02 0.1842000D+02 0.7240000D+01
EXPONENTS  0.2922000D+01 0.3818000D+00 0.1568000D+03 0.4998000D+02 0.1842000D+02
EXPONENTS  0.7240000D+01 0.2922000D+01 0.3818000D+00 0.1568000D+03 0.4998000D+02
EXPONENTS  0.1842000D+02 0.7240000D+01 0.2922000D+01 0.3818000D+00 0.1022000D+01
EXPONENTS  0.1022000D+01 0.1022000D+01 0.1301000D+00 0.1301000D+00 0.1301000D+00
EXPONENTS  0.4190000D-01 0.4190000D-01 0.4190000D-01 0.1046000D+01 0.1046000D+01
EXPONENTS  0.1046000D+01 0.1046000D+01 0.1046000D+01 0.1046000D+01 0.3440000D+00
EXPONENTS  0.3440000D+00 0.3440000D+00 0.3440000D+00 0.3440000D+00 0.3440000D+00
EXPONENTS  0.1350000D+00 0.1350000D+00 0.1350000D+00 0.1350000D+00 0.1350000D+00
EXPONENTS  0.1350000D+00 0.7060000D+00 0.7060000D+00 0.7060000D+00 0.7060000D+00
EXPONENTS  0.7060000D+00 0.7060000D+00 0.7060000D+00 0.7060000D+00 0.7060000D+00
EXPONENTS  0.7060000D+00 0.3120000D+00 0.3120000D+00 0.3120000D+00 0.3120000D+00
EXPONENTS  0.3120000D+00 0.3120000D+00 0.3120000D+00 0.3120000D+00 0.3120000D+00
EXPONENTS  0.3120000D+00 0.4561000D+06 0.6833000D+05 0.1555000D+05 0.4405000D+04
EXPONENTS  0.1439000D+04 0.5204000D+03 0.2031000D+03 0.8396000D+02 0.3620000D+02
EXPONENTS  0.1583000D+02 0.6334000D+01 0.4405000D+04 0.1439000D+04 0.5204000D+03
EXPONENTS  0.2031000D+03 0.8396000D+02 0.3620000D+02 0.1583000D+02 0.6334000D+01
EXPONENTS  0.2694000D+01 0.1439000D+04 0.2031000D+03 0.8396000D+02 0.3620000D+02
EXPONENTS  0.1583000D+02 0.6334000D+01 0.2694000D+01 0.4313000D+00 0.9768000D+00
EXPONENTS  0.1625000D+00 0.5910000D-01 0.6633000D+03 0.1568000D+03 0.4998000D+02
EXPONENTS  0.1842000D+02 0.7240000D+01 0.2922000D+01 0.6633000D+03 0.1568000D+03
EXPONENTS  0.4998000D+02 0.1842000D+02 0.7240000D+01 0.2922000D+01 0.6633000D+03
EXPONENTS  0.1568000D+03 0.4998000D+02 0.1842000D+02 0.7240000D+01 0.2922000D+01
EXPONENTS  0.1568000D+03 0.4998000D+02 0.1842000D+02 0.7240000D+01 0.2922000D+01
EXPONENTS  0.3818000D+00 0.1568000D+03 0.4998000D+02 0.1842000D+02 0.7240000D+01
EXPONENTS  0.2922000D+01 0.3818000D+00 0.1568000D+03 0.4998000D+02 0.1842000D+02
EXPONENTS  0.7240000D+01 0.2922000D+01 0.3818000D+00 0.1022000D+01 0.1022000D+01
EXPONENTS  0.1022000D+01 0.1301000D+00 0.1301000D+00 0.1301000D+00 0.4190000D-01
EXPONENTS  0.4190000D-01 0.4190000D-01 0.1046000D+01 0.1046000D+01 0.1046000D+01
EXPONENTS  0.1046000D+01 0.1046000D+01 0.1046000D+01 0.3440000D+00 0.3440000D+00
EXPONENTS  0.3440000D+00 0.3440000D+00 0.3440000D+00 0.3440000D+00 0.1350000D+00
EXPONENTS  0.1350000D+00 0.1350000D+00 0.1350000D+00 0.1350000D+00 0.1350000D+00
EXPONENTS  0.7060000D+00 0.7060000D+00 0.7060000D+00 0.7060000D+00 0.7060000D+00
EXPONENTS  0.7060000D+00 0.7060000D+00 0.7060000D+00 0.7060000D+00 0.7060000D+00
EXPONENTS  0.3120000D+00 0.3120000D+00 0.3120000D+00 0.3120000D+00 0.3120000D+00
EXPONENTS  0.3120000D+00 0.3120000D+00 0.3120000D+00 0.3120000D+00 0.3120000D+00
EXPONENTS  0.3741000D+06 0.5605000D+05 0.1276000D+05 0.3615000D+04 0.1183000D+04
EXPONENTS  0.4288000D+03 0.1678000D+03 0.6947000D+02 0.2984000D+02 0.1272000D+02
EXPONENTS  0.5244000D+01 0.3615000D+04 0.1183000D+04 0.4288000D+03 0.1678000D+03
EXPONENTS  0.6947000D+02 0.2984000D+02 0.1272000D+02 0.5244000D+01 0.2219000D+01
EXPONENTS  0.1183000D+04 0.1678000D+03 0.6947000D+02 0.2984000D+02 0.1272000D+02
EXPONENTS  0.5244000D+01 0.2219000D+01 0.3490000D+00 0.7767000D+00 0.1322000D+00
EXPONENTS  0.4970000D-01 0.5744000D+03 0.1358000D+03 0.4319000D+02 0.1587000D+02
EXPONENTS  0.6208000D+01 0.2483000D+01 0.5744000D+03 0.1358000D+03 0.4319000D+02
EXPONENTS  0.1587000D+02 0.6208000D+01 0.2483000D+01 0.5744000D+03 0.1358000D+03
EXPONENTS  0.4319000D+02 0.1587000D+02 0.6208000D+01 0.2483000D+01 0.1358000D+03
EXPONENTS  0.4319000D+02 0.1587000D+02 0.6208000D+01 0.2483000D+01 0.3229000D+00
EXPONENTS  0.1358000D+03 0.4319000D+02 0.1587000D+02 0.6208000D+01 0.2483000D+01
EXPONENTS  0.3229000D+00 0.1358000D+03 0.4319000D+02 0.1587000D+02 0.6208000D+01
EXPONENTS  0.2483000D+01 0.3229000D+00 0.8688000D+00 0.8688000D+00 0.8688000D+00
EXPONENTS  0.1098000D+00 0.1098000D+00 0.1098000D+00 0.3510000D-01 0.3510000D-01
EXPONENTS  0.3510000D-01 0.2690000D+00 0.2690000D+00 0.2690000D+00 0.2690000D+00
EXPONENTS  0.2690000D+00 0.2690000D+00 0.8190000D+00 0.8190000D+00 0.8190000D+00
EXPONENTS  0.8190000D+00 0.8190000D+00 0.8190000D+00 0.1010000D+00 0.1010000D+00
EXPONENTS  0.1010000D+00 0.1010000D+00 0.1010000D+00 0.1010000D+00 0.5570000D+00
EXPONENTS  0.5570000D+00 0.5570000D+00 0.5570000D+00 0.5570000D+00 0.5570000D+00
EXPONENTS  0.5570000D+00 0.5570000D+00 0.5570000D+00 0.5570000D+00 0.2180000D+00
EXPONENTS  0.2180000D+00 0.2180000D+00 0.2180000D+00 0.2180000D+00 0.2180000D+00
EXPONENTS  0.2180000D+00 0.2180000D+00 0.2180000D+00 0.2180000D+00
MO    1     MO 0.0        OCC NO =    2.0000385  ORB. ENERGY =    0.000000
  0.11114880D-04  0.20720375D-04  0.35020257D-04  0.52641979D-04  0.64661242D-04
  0.54571807D-04  0.20520425D-04  0.47135970D-07  0.35231217D-06  0.13166710D-05
  0.36733072D-05  0.49212189D-05 -0.58110419D-05 -0.14704495D-05  0.15624360D-04
  0.16607715D-05 -0.64780405D-12 -0.60735747D-12 -0.43247470D-12  0.75182678D-03
  0.70488539D-03  0.50192039D-03 -0.49472859D-04 -0.46383950D-04 -0.33028136D-04
 -0.13865496D-12  0.20048686D-03 -0.32146513D-04  0.23736941D-13  0.30859126D-03
  0.21896870D-04  0.53756876D-14 -0.10520561D-04  0.17672089D-05  0.28577600D-05
 -0.37916335D-04  0.35058575D-04  0.23435579D-12  0.19359263D-12  0.25999436D-03
 -0.27563715D-05  0.13760297D-04 -0.11003925D-04 -0.24561531D-13 -0.80225684D-14
  0.28757885D-03 -0.16135146D-06 -0.66852063D-05  0.68465577D-05  0.21698875D-13
  0.33401766D-13  0.18865401D-03  0.14752303D-13  0.24683222D-03 -0.57509730D-05
 -0.29508428D-13  0.25440542D-04  0.10958629D-04 -0.14748481D-13 -0.76593721D-03
  0.62942898D-05 -0.96781539D-13 -0.60185146D-14 -0.29891685D-03  0.44648133D-05
  0.21129973D-13 -0.21416475D-04 -0.46602917D-05 -0.30744294D-14  0.91816703D-03
 -0.87341482D-05  0.72658089D-13 -0.13547120D-02 -0.25345215D-02 -0.43790911D-02
 -0.70990211D-02 -0.10780545D-01 -0.14983943D-01 -0.17814760D-01 -0.15870007D-01
 -0.78813812D-02 -0.12688357D-02 -0.13386966D-04 -0.66552160D-05 -0.22200687D-03
 -0.77364948D-03 -0.27860370D-02 -0.61414719D-02 -0.86452103D-02  0.41240471D-03
  0.11313759D-01  0.66897549D-02  0.21714464D-06  0.26301519D-05  0.54849045D-05
  0.15729751D-04  0.81682408D-06 -0.67834316D-04 -0.17527084D-03  0.14280243D-03
  0.37810938D-03 -0.20545883D-03 -0.10181986D-03  0.32327213D-08  0.42582502D-08
  0.46975165D-08  0.39016553D-08  0.20718872D-08  0.53455773D-09 -0.49969951D+01
 -0.65822116D+01 -0.72612097D+01 -0.60310032D+01 -0.32026301D+01 -0.82629529D+00
  0.68868765D+01  0.90716274D+01  0.10007425D+02  0.83119501D+01  0.44138761D+01
  0.11388031D+01 -0.13500101D-12  0.13051029D-11  0.18403313D-11  0.26321606D-11
 -0.13328891D-13 -0.24139395D-11  0.25750686D-03 -0.24894106D-02 -0.35103289D-02
 -0.50206989D-02  0.25424112D-04  0.46044544D-02 -0.34315696D-03  0.33174207D-02
  0.46779094D-02  0.66906479D-02 -0.33880499D-04 -0.61359552D-02  0.21301567D-10
 -0.32148656D-01  0.44475739D-01 -0.12835925D-12  0.34307595D-03 -0.51264982D-03
 -0.73593344D-14  0.98696573D-05 -0.19979596D-04  0.45089459D-05 -0.82537049D-03
  0.82086154D-03  0.32068180D-12  0.22564396D-12  0.75755989D-03  0.41682996D-04
  0.48719448D-03 -0.52887747D-03 -0.18489389D-12 -0.11554206D-12 -0.37092201D-03
 -0.17592473D-05 -0.40743069D-05  0.58335542D-05  0.17575699D-13  0.88777090D-14
  0.43234608D-05  0.28905297D-14 -0.18392291D-04 -0.97896632D-05 -0.64844178D-14
  0.43543447D-04  0.36868573D-04 -0.21871711D-14  0.11633424D-04 -0.74995838D-05
  0.12772358D-13  0.95162645D-14  0.85784026D-04 -0.39367747D-04 -0.25311272D-13
 -0.86100919D-05  0.45317422D-04 -0.32375210D-14 -0.24874199D-03  0.72785819D-04
 -0.54749374D-13  0.14866220D-02  0.27813112D-02  0.48054888D-02  0.77902619D-02
  0.11830260D-01  0.16442949D-01  0.19549406D-01  0.17415290D-01  0.86488014D-02
  0.13923839D-02  0.14690472D-04  0.73031396D-05  0.24362051D-03  0.84896871D-03
  0.30572738D-02  0.67393796D-02  0.94868713D-02 -0.45255468D-03 -0.12415219D-01
 -0.73410410D-02 -0.22785471D-06 -0.27598770D-05 -0.57554325D-05 -0.16505579D-04
 -0.85711171D-06  0.71180059D-04  0.18391560D-03 -0.14984578D-03 -0.40361448D-03
  0.22951207D-03  0.11493194D-03  0.60352899D-10  0.79498887D-10  0.87699717D-10
  0.72841481D-10  0.38680848D-10  0.99798609D-11 -0.46493360D+01 -0.61242632D+01
 -0.67560209D+01 -0.56114044D+01 -0.29798114D+01 -0.76880692D+00 -0.63303215D+01
 -0.83385143D+01 -0.91986866D+01 -0.76402294D+01 -0.40571738D+01 -0.10467721D+01
  0.40510253D-14 -0.39162706D-13 -0.55223503D-13 -0.78984219D-13  0.39996496D-15
  0.72435978D-13  0.24197580D-03 -0.23392664D-02 -0.32986098D-02 -0.47178846D-02
  0.23890703D-04  0.43267451D-02  0.31557824D-03 -0.30508074D-02 -0.43019568D-02
 -0.61529363D-02  0.31157603D-04  0.56428229D-02  0.52619917D-12 -0.29902141D-01
 -0.40863483D-01  0.12126907D-13  0.33101633D-03  0.49956003D-03 -0.16077737D-14
  0.90266075D-05  0.19050393D-04 -0.60222127D-05  0.78325848D-03 -0.77723627D-03
  0.66525566D-13  0.43851656D-14  0.72498396D-03 -0.41384165D-04 -0.45828928D-03
  0.49967344D-03 -0.63935252D-14  0.15225240D-13 -0.33419194D-03  0.21983505D-05
  0.37807158D-06 -0.25764221D-05 -0.36460024D-14 -0.10588378D-13  0.26362832D-05
 -0.44435687D-14 -0.21584880D-04  0.95236770D-05 -0.25297367D-13  0.47888888D-04
 -0.37815403D-04  0.38628073D-13  0.16865750D-04  0.92443716D-05 -0.17147192D-13
  0.21134319D-14  0.81716362D-04  0.39519008D-04  0.10450546D-13 -0.78087971D-05
 -0.41467348D-04 -0.16790841D-13 -0.23734029D-03 -0.77089677D-04 -0.12175925D-14
 -0.56399652D-05 -0.10544483D-04 -0.18224001D-04 -0.29476570D-04 -0.44552849D-04
 -0.61358498D-04 -0.71720612D-04 -0.61985802D-04 -0.28929097D-04 -0.39192578D-05
  0.28666016D-07 -0.70132527D-07 -0.90154658D-06 -0.32887123D-05 -0.11096034D-04
 -0.24371869D-04 -0.31481807D-04  0.50593943D-05  0.42442305D-04  0.23291789D-04
 -0.10694683D-07 -0.12181909D-06 -0.25294034D-06 -0.69552168D-06  0.90182374D-07
  0.31448323D-05  0.78437112D-05 -0.64929106D-05 -0.54754756D-05 -0.42291118D-04
 -0.84831680D-05 -0.38842421D-09 -0.50959047D-09 -0.55891046D-09 -0.45985469D-09
 -0.24240924D-09 -0.63070326D-10  0.85167819D+00  0.11173534D+01  0.12254948D+01
  0.10083002D+01  0.53151854D+00  0.13829113D+00  0.24936253D-01  0.32714946D-01
  0.35881215D-01  0.29521983D-01  0.15562311D-01  0.40490206D-02 -0.42024514D-14
 -0.15084964D-12 -0.23932674D-12 -0.28419316D-12 -0.43005916D-13  0.31298900D-12
  0.22827860D-04  0.81942043D-03  0.13000311D-02  0.15437470D-02  0.23360961D-03
 -0.17001670D-02  0.29163549D-06  0.10468440D-04  0.16608442D-04  0.19722016D-04
  0.29844608D-05 -0.21720346D-04 -0.27932925D-11  0.59886910D-02  0.17418042D-03
 -0.37626032D-13 -0.52325002D-03  0.12824259D-05 -0.13169420D-14 -0.67400892D-05
 -0.95099821D-07 -0.23069966D-05 -0.28400572D-05  0.51470538D-05 -0.20134150D-13
 -0.32043981D-14  0.68947354D-03  0.39457349D-05 -0.44493052D-05  0.50357027D-06
  0.43004526D-13  0.26412565D-13 -0.10657755D-03 -0.65233576D-06  0.31158143D-06
  0.34075433D-06 -0.58740963D-14  0.17795134D-13  0.76499031D-04 -0.57691873D-14
  0.63117527D-04 -0.21839596D-05 -0.14412754D-14  0.23650376D-04 -0.13137545D-05
  0.18748837D-13 -0.21300296D-03  0.78656334D-05 -0.15305584D-13  0.30437598D-14
  0.27113302D-04 -0.56661410D-06 -0.24577410D-14  0.19799035D-05  0.13695547D-05
 -0.66735385D-14 -0.83319811D-04  0.33028766D-06  0.19056832D-13
MO    2     MO 0.0        OCC NO =    2.0000375  ORB. ENERGY =    0.000000
 -0.54707862D-03 -0.10198648D-02 -0.17237104D-02 -0.25910582D-02 -0.31826510D-02
 -0.26860451D-02 -0.10100231D-02 -0.10817804D-05 -0.80856380D-05 -0.30217875D-04
 -0.84303167D-04 -0.11294300D-03  0.13336463D-03  0.19493620D-04 -0.44266361D-03
 -0.64817485D-04  0.16324822D-12  0.15305558D-12  0.10898469D-12  0.60300877D-05
  0.56535905D-05  0.40256932D-05  0.80658294D-03  0.75622277D-03  0.53847567D-03
  0.35234916D-13  0.92731594D-05  0.56127073D-03  0.14058648D-13  0.77246835D-05
 -0.50379183D-03  0.15024241D-14 -0.55938909D-06 -0.46179565D-04 -0.62826980D-04
  0.70748330D-03 -0.64465632D-03 -0.12325116D-12 -0.51669135D-13  0.13695657D-04
  0.62646686D-04 -0.10572930D-03  0.43082612D-04  0.16079468D-13  0.95515883D-14
  0.11059075D-04  0.47132790D-05  0.16243523D-03 -0.16714851D-03 -0.89728181D-14
 -0.32735466D-14  0.97890819D-05 -0.12375733D-14  0.83245425D-05  0.96617621D-04
  0.30384705D-14  0.10256988D-05 -0.18451333D-03  0.67424923D-15 -0.25999326D-04
 -0.10533953D-03  0.54278758D-13  0.17151631D-15 -0.10590756D-04 -0.72138288D-04
 -0.36882774D-14 -0.35013344D-06  0.96080537D-04  0.31737285D-14  0.32122402D-04
  0.12033433D-03 -0.40579922D-13 -0.96229513D-03 -0.18003515D-02 -0.31106081D-02
 -0.50426612D-02 -0.76577649D-02 -0.10643573D-01 -0.12654392D-01 -0.11272972D-01
 -0.55983965D-02 -0.90129447D-03 -0.95091891D-05 -0.49198467D-05 -0.16411785D-03
 -0.57191785D-03 -0.20595688D-02 -0.45400631D-02 -0.63909436D-02  0.30486884D-03
  0.83636595D-02  0.49453795D-02  0.28221685D-06  0.34183353D-05  0.71285778D-05
  0.20443520D-04  0.10616035D-05 -0.88162373D-04 -0.22779464D-03  0.18559635D-03
  0.18287058D-03 -0.36975456D-03 -0.17855451D-03 -0.11747109D-08 -0.15473691D-08
 -0.17069903D-08 -0.14177891D-08 -0.75288536D-09 -0.19424836D-09  0.39702356D+01
  0.52297291D+01  0.57692098D+01  0.47917805D+01  0.25445684D+01  0.65651194D+00
 -0.67941157D+01 -0.89494397D+01 -0.98726329D+01 -0.81999946D+01 -0.43544247D+01
 -0.11234643D+01  0.49896257D-13 -0.48236491D-12 -0.68018487D-12 -0.97284430D-12
  0.49263466D-14  0.89218998D-12 -0.17122309D-03  0.16552746D-02  0.23341100D-02
  0.33383948D-02 -0.16905161D-04 -0.30616229D-02  0.31793674D-03 -0.30736078D-02
 -0.43341079D-02 -0.61989208D-02  0.31390462D-04  0.56849950D-02 -0.77177041D-11
  0.25643235D-01 -0.43959321D-01  0.52118751D-13 -0.13156725D-03  0.11492066D-03
  0.15124349D-14 -0.10459814D-04  0.12525401D-04  0.14667749D-04  0.44409452D-03
 -0.45876227D-03 -0.13108289D-12 -0.79433329D-13 -0.41954842D-03  0.25283548D-04
 -0.26371999D-03  0.23843645D-03  0.71240820D-13  0.45720859D-13  0.39471376D-03
 -0.28402822D-05  0.46910001D-04 -0.44069719D-04 -0.57208440D-14 -0.50235878D-14
 -0.27327505D-04 -0.21810304D-14 -0.28698029D-04  0.78666292D-06 -0.89474891D-15
  0.57853655D-04  0.32831206D-04  0.74378400D-14  0.28240432D-04 -0.35191195D-04
  0.29684555D-16 -0.32990455D-14 -0.43577445D-04 -0.12973491D-04  0.11544091D-13
  0.18008735D-04 -0.40209859D-04 -0.16469548D-14  0.11272360D-03  0.79130331D-04
  0.20158216D-13 -0.72045967D-03 -0.13479032D-02 -0.23288777D-02 -0.37753844D-02
 -0.57332835D-02 -0.79687246D-02 -0.94742030D-02 -0.84399492D-02 -0.41914573D-02
 -0.67478916D-03 -0.71194242D-05 -0.37638331D-05 -0.12555517D-03 -0.43753464D-03
 -0.15756331D-02 -0.34732870D-02 -0.48892671D-02  0.23323398D-03  0.63984551D-02
  0.37833664D-02  0.27987147D-06  0.33899270D-05  0.70693354D-05  0.20273623D-04
  0.10527810D-05 -0.87429695D-04 -0.22590154D-03  0.18405394D-03  0.11497320D-03
 -0.33865453D-03 -0.16673539D-03  0.47233631D-09  0.62217741D-09  0.68635907D-09
  0.57007495D-09  0.30272562D-09  0.78104792D-10 -0.43452961D+01 -0.57237714D+01
 -0.63142159D+01 -0.52444507D+01 -0.27849488D+01 -0.71853136D+00 -0.73344287D+01
 -0.96611583D+01 -0.10657770D+02 -0.88521124D+01 -0.47007173D+01 -0.12128096D+01
 -0.22570220D-13  0.21819436D-12  0.30767683D-12  0.44005926D-12 -0.22283981D-14
 -0.40357584D-12  0.18986019D-03 -0.18354462D-02 -0.25881707D-02 -0.37017688D-02
  0.18745236D-04  0.33948711D-02  0.34402960D-03 -0.33258568D-02 -0.46898053D-02
 -0.67076622D-02  0.33966657D-04  0.61515589D-02  0.30475227D-11 -0.28054672D-01
 -0.47439320D-01 -0.30423529D-13  0.15772462D-03  0.15634894D-03 -0.17129099D-14
  0.11277828D-04  0.14313918D-04  0.13782379D-04  0.50260990D-03 -0.51639228D-03
 -0.74023352D-13  0.30943918D-13  0.48295432D-03  0.22220132D-04 -0.29489332D-03
  0.27267318D-03  0.31279236D-13 -0.21951468D-13 -0.41887230D-03 -0.23012967D-05
  0.47064958D-04 -0.44763661D-04  0.67043045D-15  0.24754449D-14  0.29017307D-04
  0.99295065D-15  0.26484397D-04  0.15422410D-05  0.88279116D-14 -0.52792629D-04
  0.29329028D-04 -0.11806764D-13 -0.26660562D-04 -0.33955751D-04 -0.72983655D-14
  0.12988721D-14  0.49142759D-04 -0.10343128D-04 -0.89090005D-14 -0.18985191D-04
 -0.42659396D-04  0.50123842D-14 -0.12844309D-03  0.73688779D-04  0.13296798D-13
  0.51648324D-03  0.96561744D-03  0.16688740D-02  0.26993348D-02  0.40799543D-02
  0.56189417D-02  0.65678587D-02  0.56763876D-02  0.26491996D-02  0.35890842D-03
 -0.26251079D-05  0.65274530D-05  0.83909752D-04  0.30609071D-03  0.10327425D-02
  0.22683659D-02  0.29301100D-02 -0.47089361D-03 -0.39502377D-02 -0.21678395D-02
  0.22296174D-06  0.25396728D-05  0.52732762D-05  0.14500170D-04 -0.18801136D-05
 -0.65563167D-04 -0.16352495D-03  0.13536359D-03 -0.31141871D-04  0.11720794D-02
  0.26148410D-03  0.16950061D-10  0.22237516D-10  0.24389742D-10  0.20067145D-10
  0.10578258D-10  0.27522638D-11  0.15702230D-01  0.20600433D-01  0.22594217D-01
  0.18589841D-01  0.97995071D-02  0.25496474D-02 -0.57126236D+00 -0.74946373D+00
 -0.82199951D+00 -0.67631643D+00 -0.35651557D+00 -0.92758645D-01  0.59010468D-15
  0.21182180D-13  0.33606060D-13  0.39906165D-13  0.60388546D-14 -0.43949652D-13
  0.65791334D-06  0.23616215D-04  0.37467717D-04  0.44491764D-04  0.67327766D-05
 -0.48999887D-04 -0.44881927D-05 -0.16110651D-03 -0.25559952D-03 -0.30351659D-03
 -0.45930060D-04  0.33427037D-03  0.96216428D-13  0.11527837D-03 -0.39129158D-02
 -0.55758626D-14 -0.20525488D-04 -0.12035821D-03 -0.89894073D-15 -0.23539680D-06
 -0.20453840D-06  0.18499814D-04  0.44619879D-04 -0.63119693D-04  0.11194541D-13
  0.55911036D-14  0.23965276D-04 -0.91357093D-04  0.91948796D-04 -0.59170354D-06
 -0.21757228D-13 -0.71306386D-14 -0.21343034D-05  0.10088168D-04 -0.90272990D-05
 -0.10608687D-05  0.24753561D-14  0.79031019D-15  0.31393906D-05  0.80131290D-15
  0.24770297D-05  0.31898318D-04 -0.17278938D-14  0.12165190D-05  0.46298146D-04
 -0.67604494D-15 -0.86476080D-05 -0.14199310D-03  0.55743338D-14  0.77498316D-16
  0.93727313D-06  0.96182699D-05  0.15533874D-14 -0.12769061D-06 -0.19296508D-04
 -0.17858823D-14 -0.26841288D-05 -0.95583015D-05 -0.94635986D-14
MO    3     MO 0.0        OCC NO =    2.0000330  ORB. ENERGY =    0.000000
 -0.13259885D-10 -0.24719097D-10 -0.41778641D-10 -0.62801090D-10 -0.77139891D-10
 -0.65103347D-10 -0.24480559D-10 -0.22556616D-14 -0.16859673D-13 -0.63008448D-13
 -0.17578376D-12 -0.23550177D-12  0.27808368D-12 -0.10369758D-11 -0.18582791D-12
 -0.25037971D-13  0.30577054D-04  0.28667932D-04  0.20413275D-04 -0.16353957D-12
 -0.15332875D-12 -0.10917920D-12  0.62529106D-12  0.58625012D-12  0.41744501D-12
  0.25224076D-05 -0.20363324D-12 -0.10022855D-12  0.99002759D-07  0.21156391D-12
 -0.81791741D-13  0.11288701D-06  0.88991819D-14  0.32035195D-14  0.37036594D-13
 -0.83005098D-13  0.45968504D-13 -0.11660827D-02 -0.69741500D-05 -0.23200483D-12
 -0.79999746D-14  0.43011063D-13 -0.35011088D-13  0.98885257D-04  0.40475293D-05
  0.23487213D-12  0.17616140D-14 -0.85041487D-14  0.67425347D-14 -0.11664678D-03
 -0.26115106D-06  0.23101022D-13 -0.81966370D-06  0.69097602D-13 -0.19053306D-14
  0.63004932D-06  0.84002985D-13 -0.11313019D-13  0.18289418D-05 -0.29129579D-12
  0.17029011D-13  0.45853862D-03  0.41698467D-06 -0.80847339D-13  0.20051705D-13
 -0.31475696D-06 -0.22834148D-13 -0.73255510D-14 -0.93619706D-06  0.26537616D-12
 -0.52829564D-13 -0.34373225D-03  0.37300883D-10  0.69785971D-10  0.12057468D-09
  0.19546572D-09  0.29683345D-09  0.41257058D-09  0.49051480D-09  0.43696763D-09
  0.21700736D-09  0.34936350D-10  0.36859913D-12  0.60090684D-13  0.20045246D-11
  0.69853670D-11  0.25155437D-10  0.55452031D-10  0.78058563D-10 -0.37236479D-11
 -0.10215319D-09 -0.60402539D-10  0.13927803D-14  0.16869971D-13  0.35180546D-13
  0.10089168D-12  0.52391645D-14 -0.43509386D-12 -0.11241990D-11  0.91594441D-12
 -0.37351996D-11  0.85225207D-13  0.10239062D-12 -0.81933293D+01 -0.10792531D+02
 -0.11905852D+02 -0.98887419D+01 -0.52511963D+01 -0.13548361D+01 -0.46376417D-09
 -0.61088590D-09 -0.67390278D-09 -0.55972902D-09 -0.29723164D-09 -0.76687317D-10
  0.23810573D-08  0.31364094D-08  0.34599505D-08  0.28737598D-08  0.15260462D-08
  0.39372790D-09  0.35798594D-03 -0.34607777D-02 -0.48800579D-02 -0.69797737D-02
  0.35344592D-04  0.64011108D-02  0.28495557D-13 -0.27547671D-12 -0.38845091D-12
 -0.55558756D-12  0.28134172D-14  0.50952620D-12 -0.12059462D-12  0.11658312D-11
  0.16439436D-11  0.23512743D-11 -0.11906522D-13 -0.21563403D-11 -0.53654540D-01
 -0.24806351D-11  0.15655785D-10  0.35174983D-03  0.71879501D-13 -0.12573637D-12
  0.14789327D-04  0.49844119D-14 -0.32675589D-14 -0.37074308D-13 -0.20922241D-12
  0.24629672D-12 -0.98778452D-03 -0.55964919D-03  0.27075171D-12  0.28077112D-13
  0.91758452D-13 -0.11983556D-12  0.47647222D-03  0.32672655D-03 -0.22328091D-12
 -0.22871279D-14 -0.61487626D-14  0.84358905D-14 -0.39189098D-04 -0.52107901D-04
  0.55811168D-14 -0.21445937D-04  0.51651332D-15  0.50650490D-14 -0.42706832D-04
 -0.61953790D-14 -0.12833788D-13  0.10704464D-03  0.46458390D-14 -0.23613588D-14
  0.18034372D-04 -0.17014911D-04  0.21123345D-13  0.38535413D-14  0.85004645D-04
  0.10321501D-13  0.21646173D-13 -0.33959912D-04 -0.73691535D-13 -0.33206797D-13
  0.13577387D-03  0.13641796D-10  0.25522345D-10  0.44096952D-10  0.71486340D-10
  0.10855887D-09  0.15088661D-09  0.17939262D-09  0.15980918D-09  0.79364618D-10
  0.12777032D-10  0.13480523D-12 -0.65557047D-13 -0.21868733D-11 -0.76208157D-11
 -0.27443791D-10 -0.60496423D-10 -0.85159438D-10  0.40623827D-11  0.11144591D-09
  0.65897271D-10 -0.16865857D-14 -0.20428671D-13 -0.42601840D-13 -0.12217466D-12
 -0.63443599D-14  0.52687638D-12  0.13613474D-11 -0.11091618D-11  0.41232215D-11
 -0.15197028D-12 -0.53244922D-13  0.82339131D+01  0.10845990D+02  0.11964824D+02
  0.99377236D+01  0.52772070D+01  0.13615470D+01  0.28477816D-09  0.37511945D-09
  0.41381548D-09  0.34370615D-09  0.18251751D-09  0.47090470D-10 -0.92326567D-09
 -0.12161569D-08 -0.13416114D-08 -0.11143133D-08 -0.59173129D-09 -0.15266977D-09
 -0.35912811D-03  0.34718195D-02  0.48956279D-02  0.70020430D-02 -0.35457360D-04
 -0.64215339D-02  0.50504619D-15 -0.48824616D-14 -0.68847806D-14 -0.98470575D-14
  0.49864113D-16  0.90306804D-14  0.46147636D-13 -0.44612565D-12 -0.62908373D-12
 -0.89975616D-12  0.45562385D-14  0.82516126D-12  0.53896956D-01  0.22314929D-11
 -0.62385058D-11 -0.35634000D-03  0.50203777D-13  0.74823771D-13 -0.15141580D-04
  0.19420742D-14  0.66857387D-15  0.43472636D-13  0.90371579D-13 -0.13384422D-12
 -0.98929150D-03  0.55844143D-03  0.11533841D-12 -0.29788121D-13 -0.53009417D-13
  0.82797538D-13  0.47176914D-03 -0.32126122D-03 -0.95518016D-13 -0.55085805D-15
 -0.34672963D-14  0.40181543D-14 -0.39112086D-04  0.51766517D-04 -0.27474515D-14
  0.20450141D-04  0.19054337D-15 -0.71311407D-15  0.44755822D-04 -0.11074849D-13
  0.35618713D-14 -0.10610625D-03  0.10503219D-13 -0.14225291D-14  0.15374632D-04
  0.17014037D-04  0.98858546D-14  0.51659505D-14 -0.85157345D-04  0.21561125D-13
 -0.16013346D-13  0.34115235D-04 -0.51218689D-13  0.51549472D-15  0.13407676D-03
 -0.21186572D-10 -0.39610430D-10 -0.68458597D-10 -0.11072896D-09 -0.16736312D-09
 -0.23049366D-09 -0.26941902D-09 -0.23285014D-09 -0.10867237D-09 -0.14722722D-10
  0.10768411D-12 -0.11400559D-12 -0.14655304D-11 -0.53460443D-11 -0.18037421D-10
 -0.39618270D-10 -0.51175998D-10  0.82244184D-11  0.68993094D-10  0.37862520D-10
 -0.13082599D-14 -0.14901893D-13 -0.30941702D-13 -0.85081821D-13  0.11031835D-13
  0.38470125D-12  0.95950601D-12 -0.79426518D-12  0.19852887D-11  0.14854010D-12
 -0.43692188D-14  0.96548994D-03  0.12666679D-02  0.13892605D-02  0.11430417D-02
  0.60254660D-03  0.15677129D-03  0.24163376D-08  0.31700976D-08  0.34769109D-08
  0.28606976D-08  0.15079971D-08  0.39235248D-09  0.13295928D-08  0.17443501D-08
  0.19131746D-08  0.15741024D-08  0.82977729D-09  0.21589244D-09  0.18073768D-07
  0.64876929D-06  0.10292887D-05  0.12222488D-05  0.18495846D-06 -0.13460930D-05
  0.25529515D-13  0.91639805D-12  0.14538885D-11  0.17264480D-11  0.26125708D-12