 cl2cs-wavefunction
GAUSSIAN            196 MOL ORBITALS    414 PRIMITIVES        4 NUCLEI
  C    1    (CENTRE  1)   0.00000000  0.00000000 -0.98816425  CHARGE =  6.0
  Cl   2    (CENTRE  2)   0.00000000 -2.70369732 -2.81739269  CHARGE = 17.0
  Cl   3    (CENTRE  3)   0.00000000  2.70369732 -2.83628995  CHARGE = 17.0
  S    4    (CENTRE  4)   0.00000000  0.00000000  2.04433408  CHARGE = 16.0
CENTRE ASSIGNMENTS    1  1  1  1  1  1  1  1  1  1  1  1  1  1  1  1  1  1  1  1
CENTRE ASSIGNMENTS    1  1  1  1  1  1  1  1  1  1  1  1  1  1  1  1  1  1  1  1
CENTRE ASSIGNMENTS    1  1  1  1  1  1  1  1  1  1  1  1  1  1  1  1  1  1  1  1
CENTRE ASSIGNMENTS    1  1  1  1  1  1  1  1  1  1  1  1  2  2  2  2  2  2  2  2
CENTRE ASSIGNMENTS    2  2  2  2  2  2  2  2  2  2  2  2  2  2  2  2  2  2  2  2
CENTRE ASSIGNMENTS    2  2  2  2  2  2  2  2  2  2  2  2  2  2  2  2  2  2  2  2
CENTRE ASSIGNMENTS    2  2  2  2  2  2  2  2  2  2  2  2  2  2  2  2  2  2  2  2
CENTRE ASSIGNMENTS    2  2  2  2  2  2  2  2  2  2  2  2  2  2  2  2  2  2  2  2
CENTRE ASSIGNMENTS    2  2  2  2  2  2  2  2  2  2  2  2  2  2  2  2  2  2  2  2
CENTRE ASSIGNMENTS    2  2  2  2  2  2  3  3  3  3  3  3  3  3  3  3  3  3  3  3
CENTRE ASSIGNMENTS    3  3  3  3  3  3  3  3  3  3  3  3  3  3  3  3  3  3  3  3
CENTRE ASSIGNMENTS    3  3  3  3  3  3  3  3  3  3  3  3  3  3  3  3  3  3  3  3
CENTRE ASSIGNMENTS    3  3  3  3  3  3  3  3  3  3  3  3  3  3  3  3  3  3  3  3
CENTRE ASSIGNMENTS    3  3  3  3  3  3  3  3  3  3  3  3  3  3  3  3  3  3  3  3
CENTRE ASSIGNMENTS    3  3  3  3  3  3  3  3  3  3  3  3  3  3  3  3  3  3  3  3
CENTRE ASSIGNMENTS    4  4  4  4  4  4  4  4  4  4  4  4  4  4  4  4  4  4  4  4
CENTRE ASSIGNMENTS    4  4  4  4  4  4  4  4  4  4  4  4  4  4  4  4  4  4  4  4
CENTRE ASSIGNMENTS    4  4  4  4  4  4  4  4  4  4  4  4  4  4  4  4  4  4  4  4
CENTRE ASSIGNMENTS    4  4  4  4  4  4  4  4  4  4  4  4  4  4  4  4  4  4  4  4
CENTRE ASSIGNMENTS    4  4  4  4  4  4  4  4  4  4  4  4  4  4  4  4  4  4  4  4
CENTRE ASSIGNMENTS    4  4  4  4  4  4  4  4  4  4  4  4  4  4
TYPE ASSIGNMENTS      1  1  1  1  1  1  1  1  1  1  1  1  1  1  1  1  2  2  2  3
TYPE ASSIGNMENTS      3  3  4  4  4  2  3  4  2  3  4  2  3  4  5  6  7  8  9 10
TYPE ASSIGNMENTS      5  6  7  8  9 10  5  6  7  8  9 10 11 12 13 17 14 15 18 19
TYPE ASSIGNMENTS     16 20 11 12 13 17 14 15 18 19 16 20  1  1  1  1  1  1  1  1
TYPE ASSIGNMENTS      1  1  1  1  1  1  1  1  1  1  1  1  1  1  1  1  1  1  1  1
TYPE ASSIGNMENTS      1  1  1  2  2  2  2  2  2  3  3  3  3  3  3  4  4  4  4  4
TYPE ASSIGNMENTS      4  2  2  2  2  2  2  3  3  3  3  3  3  4  4  4  4  4  4  2
TYPE ASSIGNMENTS      3  4  2  3  4  2  3  4  5  6  7  8  9 10  5  6  7  8  9 10
TYPE ASSIGNMENTS      5  6  7  8  9 10 11 12 13 17 14 15 18 19 16 20 11 12 13 17
TYPE ASSIGNMENTS     14 15 18 19 16 20  1  1  1  1  1  1  1  1  1  1  1  1  1  1
TYPE ASSIGNMENTS      1  1  1  1  1  1  1  1  1  1  1  1  1  1  1  1  1  2  2  2
TYPE ASSIGNMENTS      2  2  2  3  3  3  3  3  3  4  4  4  4  4  4  2  2  2  2  2
TYPE ASSIGNMENTS      2  3  3  3  3  3  3  4  4  4  4  4  4  2  3  4  2  3  4  2
TYPE ASSIGNMENTS      3  4  5  6  7  8  9 10  5  6  7  8  9 10  5  6  7  8  9 10
TYPE ASSIGNMENTS     11 12 13 17 14 15 18 19 16 20 11 12 13 17 14 15 18 19 16 20
TYPE ASSIGNMENTS      1  1  1  1  1  1  1  1  1  1  1  1  1  1  1  1  1  1  1  1
TYPE ASSIGNMENTS      1  1  1  1  1  1  1  1  1  1  1  2  2  2  2  2  2  3  3  3
TYPE ASSIGNMENTS      3  3  3  4  4  4  4  4  4  2  2  2  2  2  2  3  3  3  3  3
TYPE ASSIGNMENTS      3  4  4  4  4  4  4  2  3  4  2  3  4  2  3  4  5  6  7  8
TYPE ASSIGNMENTS      9 10  5  6  7  8  9 10  5  6  7  8  9 10 11 12 13 17 14 15
TYPE ASSIGNMENTS     18 19 16 20 11 12 13 17 14 15 18 19 16 20
EXPONENTS  0.8236000D+04 0.1235000D+04 0.2808000D+03 0.7927000D+02 0.2559000D+02
EXPONENTS  0.8997000D+01 0.3319000D+01 0.2808000D+03 0.7927000D+02 0.2559000D+02
EXPONENTS  0.8997000D+01 0.3319000D+01 0.3643000D+00 0.9059000D+00 0.1285000D+00
EXPONENTS  0.4402000D-01 0.1871000D+02 0.4133000D+01 0.1200000D+01 0.1871000D+02
EXPONENTS  0.4133000D+01 0.1200000D+01 0.1871000D+02 0.4133000D+01 0.1200000D+01
EXPONENTS  0.3827000D+00 0.3827000D+00 0.3827000D+00 0.1209000D+00 0.1209000D+00
EXPONENTS  0.1209000D+00 0.3569000D-01 0.3569000D-01 0.3569000D-01 0.1097000D+01
EXPONENTS  0.1097000D+01 0.1097000D+01 0.1097000D+01 0.1097000D+01 0.1097000D+01
EXPONENTS  0.3180000D+00 0.3180000D+00 0.3180000D+00 0.3180000D+00 0.3180000D+00
EXPONENTS  0.3180000D+00 0.1000000D+00 0.1000000D+00 0.1000000D+00 0.1000000D+00
EXPONENTS  0.1000000D+00 0.1000000D+00 0.7610000D+00 0.7610000D+00 0.7610000D+00
EXPONENTS  0.7610000D+00 0.7610000D+00 0.7610000D+00 0.7610000D+00 0.7610000D+00
EXPONENTS  0.7610000D+00 0.7610000D+00 0.2680000D+00 0.2680000D+00 0.2680000D+00
EXPONENTS  0.2680000D+00 0.2680000D+00 0.2680000D+00 0.2680000D+00 0.2680000D+00
EXPONENTS  0.2680000D+00 0.2680000D+00 0.4561000D+06 0.6833000D+05 0.1555000D+05
EXPONENTS  0.4405000D+04 0.1439000D+04 0.5204000D+03 0.2031000D+03 0.8396000D+02
EXPONENTS  0.3620000D+02 0.1583000D+02 0.6334000D+01 0.4405000D+04 0.1439000D+04
EXPONENTS  0.5204000D+03 0.2031000D+03 0.8396000D+02 0.3620000D+02 0.1583000D+02
EXPONENTS  0.6334000D+01 0.2694000D+01 0.1439000D+04 0.2031000D+03 0.8396000D+02
EXPONENTS  0.3620000D+02 0.1583000D+02 0.6334000D+01 0.2694000D+01 0.4313000D+00
EXPONENTS  0.9768000D+00 0.1625000D+00 0.5910000D-01 0.6633000D+03 0.1568000D+03
EXPONENTS  0.4998000D+02 0.1842000D+02 0.7240000D+01 0.2922000D+01 0.6633000D+03
EXPONENTS  0.1568000D+03 0.4998000D+02 0.1842000D+02 0.7240000D+01 0.2922000D+01
EXPONENTS  0.6633000D+03 0.1568000D+03 0.4998000D+02 0.1842000D+02 0.7240000D+01
EXPONENTS  0.2922000D+01 0.1568000D+03 0.4998000D+02 0.1842000D+02 0.7240000D+01
EXPONENTS  0.2922000D+01 0.3818000D+00 0.1568000D+03 0.4998000D+02 0.1842000D+02
EXPONENTS  0.7240000D+01 0.2922000D+01 0.3818000D+00 0.1568000D+03 0.4998000D+02
EXPONENTS  0.1842000D+02 0.7240000D+01 0.2922000D+01 0.3818000D+00 0.1022000D+01
EXPONENTS  0.1022000D+01 0.1022000D+01 0.1301000D+00 0.1301000D+00 0.1301000D+00
EXPONENTS  0.4190000D-01 0.4190000D-01 0.4190000D-01 0.1046000D+01 0.1046000D+01
EXPONENTS  0.1046000D+01 0.1046000D+01 0.1046000D+01 0.1046000D+01 0.3440000D+00
EXPONENTS  0.3440000D+00 0.3440000D+00 0.3440000D+00 0.3440000D+00 0.3440000D+00
EXPONENTS  0.1350000D+00 0.1350000D+00 0.1350000D+00 0.1350000D+00 0.1350000D+00
EXPONENTS  0.1350000D+00 0.7060000D+00 0.7060000D+00 0.7060000D+00 0.7060000D+00
EXPONENTS  0.7060000D+00 0.7060000D+00 0.7060000D+00 0.7060000D+00 0.7060000D+00
EXPONENTS  0.7060000D+00 0.3120000D+00 0.3120000D+00 0.3120000D+00 0.3120000D+00
EXPONENTS  0.3120000D+00 0.3120000D+00 0.3120000D+00 0.3120000D+00 0.3120000D+00
EXPONENTS  0.3120000D+00 0.4561000D+06 0.6833000D+05 0.1555000D+05 0.4405000D+04
EXPONENTS  0.1439000D+04 0.5204000D+03 0.2031000D+03 0.8396000D+02 0.3620000D+02
EXPONENTS  0.1583000D+02 0.6334000D+01 0.4405000D+04 0.1439000D+04 0.5204000D+03
EXPONENTS  0.2031000D+03 0.8396000D+02 0.3620000D+02 0.1583000D+02 0.6334000D+01
EXPONENTS  0.2694000D+01 0.1439000D+04 0.2031000D+03 0.8396000D+02 0.3620000D+02
EXPONENTS  0.1583000D+02 0.6334000D+01 0.2694000D+01 0.4313000D+00 0.9768000D+00
EXPONENTS  0.1625000D+00 0.5910000D-01 0.6633000D+03 0.1568000D+03 0.4998000D+02
EXPONENTS  0.1842000D+02 0.7240000D+01 0.2922000D+01 0.6633000D+03 0.1568000D+03
EXPONENTS  0.4998000D+02 0.1842000D+02 0.7240000D+01 0.2922000D+01 0.6633000D+03
EXPONENTS  0.1568000D+03 0.4998000D+02 0.1842000D+02 0.7240000D+01 0.2922000D+01
EXPONENTS  0.1568000D+03 0.4998000D+02 0.1842000D+02 0.7240000D+01 0.2922000D+01
EXPONENTS  0.3818000D+00 0.1568000D+03 0.4998000D+02 0.1842000D+02 0.7240000D+01
EXPONENTS  0.2922000D+01 0.3818000D+00 0.1568000D+03 0.4998000D+02 0.1842000D+02
EXPONENTS  0.7240000D+01 0.2922000D+01 0.3818000D+00 0.1022000D+01 0.1022000D+01
EXPONENTS  0.1022000D+01 0.1301000D+00 0.1301000D+00 0.1301000D+00 0.4190000D-01
EXPONENTS  0.4190000D-01 0.4190000D-01 0.1046000D+01 0.1046000D+01 0.1046000D+01
EXPONENTS  0.1046000D+01 0.1046000D+01 0.1046000D+01 0.3440000D+00 0.3440000D+00
EXPONENTS  0.3440000D+00 0.3440000D+00 0.3440000D+00 0.3440000D+00 0.1350000D+00
EXPONENTS  0.1350000D+00 0.1350000D+00 0.1350000D+00 0.1350000D+00 0.1350000D+00
EXPONENTS  0.7060000D+00 0.7060000D+00 0.7060000D+00 0.7060000D+00 0.7060000D+00
EXPONENTS  0.7060000D+00 0.7060000D+00 0.7060000D+00 0.7060000D+00 0.7060000D+00
EXPONENTS  0.3120000D+00 0.3120000D+00 0.3120000D+00 0.3120000D+00 0.3120000D+00
EXPONENTS  0.3120000D+00 0.3120000D+00 0.3120000D+00 0.3120000D+00 0.3120000D+00
EXPONENTS  0.3741000D+06 0.5605000D+05 0.1276000D+05 0.3615000D+04 0.1183000D+04
EXPONENTS  0.4288000D+03 0.1678000D+03 0.6947000D+02 0.2984000D+02 0.1272000D+02
EXPONENTS  0.5244000D+01 0.3615000D+04 0.1183000D+04 0.4288000D+03 0.1678000D+03
EXPONENTS  0.6947000D+02 0.2984000D+02 0.1272000D+02 0.5244000D+01 0.2219000D+01
EXPONENTS  0.1183000D+04 0.1678000D+03 0.6947000D+02 0.2984000D+02 0.1272000D+02
EXPONENTS  0.5244000D+01 0.2219000D+01 0.3490000D+00 0.7767000D+00 0.1322000D+00
EXPONENTS  0.4970000D-01 0.5744000D+03 0.1358000D+03 0.4319000D+02 0.1587000D+02
EXPONENTS  0.6208000D+01 0.2483000D+01 0.5744000D+03 0.1358000D+03 0.4319000D+02
EXPONENTS  0.1587000D+02 0.6208000D+01 0.2483000D+01 0.5744000D+03 0.1358000D+03
EXPONENTS  0.4319000D+02 0.1587000D+02 0.6208000D+01 0.2483000D+01 0.1358000D+03
EXPONENTS  0.4319000D+02 0.1587000D+02 0.6208000D+01 0.2483000D+01 0.3229000D+00
EXPONENTS  0.1358000D+03 0.4319000D+02 0.1587000D+02 0.6208000D+01 0.2483000D+01
EXPONENTS  0.3229000D+00 0.1358000D+03 0.4319000D+02 0.1587000D+02 0.6208000D+01
EXPONENTS  0.2483000D+01 0.3229000D+00 0.8688000D+00 0.8688000D+00 0.8688000D+00
EXPONENTS  0.1098000D+00 0.1098000D+00 0.1098000D+00 0.3510000D-01 0.3510000D-01
EXPONENTS  0.3510000D-01 0.2690000D+00 0.2690000D+00 0.2690000D+00 0.2690000D+00
EXPONENTS  0.2690000D+00 0.2690000D+00 0.8190000D+00 0.8190000D+00 0.8190000D+00
EXPONENTS  0.8190000D+00 0.8190000D+00 0.8190000D+00 0.1010000D+00 0.1010000D+00
EXPONENTS  0.1010000D+00 0.1010000D+00 0.1010000D+00 0.1010000D+00 0.5570000D+00
EXPONENTS  0.5570000D+00 0.5570000D+00 0.5570000D+00 0.5570000D+00 0.5570000D+00
EXPONENTS  0.5570000D+00 0.5570000D+00 0.5570000D+00 0.5570000D+00 0.2180000D+00
EXPONENTS  0.2180000D+00 0.2180000D+00 0.2180000D+00 0.2180000D+00 0.2180000D+00
EXPONENTS  0.2180000D+00 0.2180000D+00 0.2180000D+00 0.2180000D+00
MO    1     MO 0.0        OCC NO =    2.0000386  ORB. ENERGY =    0.000000
 -0.27600654D-05 -0.51453179D-05 -0.86962883D-05 -0.13072143D-04 -0.16056787D-04
 -0.13551362D-04 -0.50956658D-05  0.22029437D-07  0.16465639D-06  0.61535853D-06
  0.17167545D-05  0.22999777D-05 -0.27158448D-05 -0.22608831D-05  0.16679492D-04
  0.29555262D-05 -0.55592604D-12 -0.52121600D-12 -0.37113684D-12  0.75600707D-03
  0.70880468D-03  0.50471116D-03 -0.31742270D-04 -0.29760396D-04 -0.21191175D-04
 -0.11695818D-12  0.20035110D-03 -0.18862810D-04  0.14695284D-13  0.30631301D-03
  0.14584756D-04  0.42110853D-14 -0.10337232D-04  0.15039486D-05  0.16726835D-05
 -0.28420363D-04  0.26747680D-04  0.25966040D-12  0.17483903D-12  0.27850054D-03
 -0.22075643D-05  0.98258177D-05 -0.76182533D-05 -0.25272721D-13 -0.15892375D-13
  0.27403902D-03 -0.13935974D-06 -0.45985911D-05  0.47379508D-05  0.25771953D-13
  0.23203217D-13  0.18789084D-03  0.12264631D-13  0.24934293D-03 -0.14949411D-05
 -0.25394727D-13  0.24454977D-04  0.71166451D-05 -0.11399166D-13 -0.77248375D-03
 -0.26318217D-05 -0.10423827D-12 -0.50495683D-14 -0.30501188D-03  0.57596766D-06
  0.19379617D-13 -0.20320239D-04 -0.31243921D-05 -0.42309119D-14  0.93535587D-03
  0.13964892D-05  0.78062845D-13 -0.14407556D-02 -0.26955001D-02 -0.46572263D-02
 -0.75499110D-02 -0.11465264D-01 -0.15935639D-01 -0.18946253D-01 -0.16877981D-01
 -0.83819622D-02 -0.13494250D-02 -0.14237231D-04 -0.70602342D-05 -0.23551759D-03
 -0.82073166D-03 -0.29555876D-02 -0.65152251D-02 -0.91713341D-02  0.43750253D-03
  0.12002283D-01  0.70968750D-02  0.20717694D-06  0.25094187D-05  0.52331282D-05
  0.15007701D-04  0.77932899D-06 -0.64720483D-04 -0.16722530D-03  0.13624730D-03
  0.40256068D-03 -0.20668772D-03 -0.10182746D-03  0.32111905D-08  0.42298891D-08
  0.46662298D-08  0.38756692D-08  0.20580879D-08  0.53099743D-09 -0.49361949D+01
 -0.65021235D+01 -0.71728600D+01 -0.59576219D+01 -0.31636625D+01 -0.81624147D+00
  0.68444666D+01  0.90157637D+01  0.99457986D+01  0.82607645D+01  0.43866952D+01
  0.11317903D+01 -0.13464528D-12  0.13016639D-11  0.18354820D-11  0.26252248D-11
 -0.13293769D-13 -0.24075787D-11  0.25573882D-03 -0.24723183D-02 -0.34862269D-02
 -0.49862267D-02  0.25249550D-04  0.45728402D-02 -0.34259028D-03  0.33119424D-02
  0.46701844D-02  0.66795992D-02 -0.33824550D-04 -0.61258224D-02  0.21150104D-10
 -0.31764187D-01  0.44209511D-01 -0.13130008D-12  0.34662219D-03 -0.51697900D-03
 -0.71062233D-14  0.97843644D-05 -0.19904388D-04  0.70053763D-05 -0.82724073D-03
  0.82023535D-03  0.33409663D-12  0.22414222D-12  0.77223433D-03  0.41575642D-04
  0.49237464D-03 -0.53395028D-03 -0.18483001D-12 -0.11662089D-12 -0.38009365D-03
 -0.21294247D-05 -0.22592311D-05  0.43886557D-05  0.15679946D-13  0.10651800D-13
  0.38517612D-05  0.38656801D-14 -0.20562979D-04 -0.99511386D-05 -0.23746950D-14
  0.47659264D-04  0.36197594D-04 -0.92223454D-14  0.14029672D-04 -0.63441784D-05
  0.10407297D-13  0.91764616D-14  0.87451942D-04 -0.39114172D-04 -0.27487493D-13
 -0.98395364D-05  0.45416455D-04 -0.41891716D-16 -0.25251629D-03  0.71926061D-04
 -0.54717470D-13  0.14811785D-02  0.27711269D-02  0.47878926D-02  0.77617365D-02
  0.11786942D-01  0.16382740D-01  0.19477823D-01  0.17351521D-01  0.86171323D-02
  0.13872854D-02  0.14636680D-04  0.72736814D-05  0.24263783D-03  0.84554428D-03
  0.30449418D-02  0.67121954D-02  0.94486047D-02 -0.45072924D-03 -0.12365140D-01
 -0.73114299D-02 -0.22545960D-06 -0.27308663D-05 -0.56949339D-05 -0.16332079D-04
 -0.84810211D-06  0.70431845D-04  0.18198236D-03 -0.14827066D-03 -0.40531915D-03
  0.22209685D-03  0.11078936D-03 -0.38712524D-09 -0.50993450D-09 -0.56253758D-09
 -0.46723151D-09 -0.24811289D-09 -0.64014424D-10 -0.47209472D+01 -0.62185919D+01
 -0.68600803D+01 -0.56978338D+01 -0.30257079D+01 -0.78064844D+00 -0.63721205D+01
 -0.83935733D+01 -0.92594253D+01 -0.76906777D+01 -0.40839633D+01 -0.10536839D+01
  0.22866259D-13 -0.22105628D-12 -0.31171242D-12 -0.44583123D-12  0.22576266D-14
  0.40886928D-12  0.24644725D-03 -0.23824935D-02 -0.33595645D-02 -0.48050660D-02
  0.24332178D-04  0.44066987D-02  0.31918127D-03 -0.30856392D-02 -0.43510733D-02
 -0.62231859D-02  0.31513337D-04  0.57072484D-02 -0.24264680D-11 -0.30372242D-01
 -0.41147384D-01  0.23247881D-13  0.34201641D-03  0.50349595D-03 -0.63291253D-15
  0.92927000D-05  0.18965985D-04 -0.76956248D-05  0.79989415D-03 -0.79219853D-03
  0.10562732D-12 -0.26755498D-13  0.72274560D-03 -0.41829370D-04 -0.47346864D-03
  0.51529801D-03 -0.29242060D-13  0.28702212D-13 -0.33658394D-03  0.24569057D-05
 -0.57816370D-06 -0.18787420D-05  0.13609351D-14 -0.12152853D-13  0.23524859D-05
 -0.57587794D-14 -0.22671644D-04  0.10083174D-04 -0.21391416D-13  0.50348425D-04
 -0.38114991D-04  0.38667754D-13  0.17666506D-04  0.78654684D-05 -0.17472805D-13
  0.13700848D-14  0.83715307D-04  0.41121695D-04  0.11397416D-13 -0.90347376D-05
 -0.42469579D-04 -0.15507670D-13 -0.24211118D-03 -0.80895506D-04 -0.63269501D-14
  0.58790050D-05  0.10991392D-04  0.18996392D-04  0.30725881D-04  0.46441141D-04
  0.63959067D-04  0.74760361D-04  0.64612959D-04  0.30155204D-04  0.40853685D-05
 -0.29880974D-07  0.52504899D-07  0.67494519D-06  0.24621030D-05  0.83070746D-05
  0.18246063D-04  0.23568937D-04 -0.37877287D-05 -0.31774542D-04 -0.17437459D-04
  0.79214086D-08  0.90229768D-07  0.18734952D-06  0.51516361D-06 -0.66796879D-07
 -0.23293352D-05 -0.58097320D-05  0.48092120D-05 -0.16120165D-05 -0.33099868D-04
 -0.85646044D-05 -0.34595811D-09 -0.45387737D-09 -0.49780525D-09 -0.40957916D-09
 -0.21590685D-09 -0.56174900D-10  0.84509748D+00  0.11087198D+01  0.12160257D+01
  0.10005093D+01  0.52741163D+00  0.13722259D+00  0.20788416D-01  0.27273220D-01
  0.29912820D-01  0.24611367D-01  0.12973713D-01  0.33755162D-02 -0.36877261D-14
 -0.13237326D-12 -0.21001349D-12 -0.24938458D-12 -0.37738460D-13  0.27465344D-12
  0.22933448D-04  0.82321058D-03  0.13060442D-02  0.15508875D-02  0.23469015D-03
 -0.17080309D-02  0.23716206D-06  0.85130820D-05  0.13506218D-04  0.16038220D-04
  0.24270053D-05 -0.17663290D-04 -0.24913129D-11  0.59454912D-02  0.13787366D-03
 -0.20717571D-13 -0.52449770D-03  0.33232377D-05 -0.76238551D-15 -0.68365941D-05
  0.91641527D-08  0.23517167D-06 -0.31992582D-05  0.29640866D-05 -0.20794222D-13
 -0.95698596D-14  0.69549173D-03  0.26584496D-05 -0.42830699D-05  0.16246202D-05
  0.45814538D-13  0.26977479D-13 -0.10689663D-03 -0.29704825D-06  0.25310932D-06
  0.43938930D-07 -0.69805728D-14  0.12197988D-13  0.76910955D-04 -0.46856097D-14
  0.63344707D-04 -0.14000351D-05 -0.11207606D-14  0.21773697D-04 -0.37708852D-05
  0.15177590D-13 -0.21180782D-03  0.79709905D-05 -0.19402350D-13  0.20538184D-14
  0.27380748D-04 -0.47744340D-06 -0.27886393D-14  0.23103447D-05  0.57482348D-06
 -0.33728158D-14 -0.84452590D-04  0.85750672D-06  0.21302356D-13
MO    2     MO 0.0        OCC NO =    2.0000376  ORB. ENERGY =    0.000000
 -0.60136493D-03 -0.11210654D-02 -0.18947532D-02 -0.28481675D-02 -0.34984636D-02
 -0.29525799D-02 -0.11102471D-02 -0.10839164D-05 -0.81016032D-05 -0.30277541D-04
 -0.84469625D-04 -0.11316601D-03  0.13362796D-03  0.15134392D-04 -0.44322127D-03
 -0.65079361D-04 -0.52999542D-13 -0.49690439D-13 -0.35382553D-13  0.71238546D-05
  0.66790665D-05  0.47558932D-05  0.81839326D-03  0.76729570D-03  0.54636025D-03
 -0.11019477D-13  0.79934226D-05  0.57496595D-03  0.31430417D-14  0.79293169D-05
 -0.49944780D-03  0.14944306D-14 -0.38713888D-06 -0.45986616D-04 -0.62620132D-04
  0.71815268D-03 -0.65553255D-03  0.36459457D-13  0.29175018D-13  0.16686176D-05
  0.62287064D-04 -0.11445528D-03  0.52168216D-04 -0.74859764D-14 -0.86130314D-14
  0.11633058D-04  0.47637004D-05  0.16342591D-03 -0.16818961D-03  0.46061334D-15
  0.14027432D-14  0.41389185D-05  0.15494272D-14  0.64451814D-05  0.98959409D-04
 -0.56272918D-14  0.14486325D-05 -0.18907181D-03  0.97901019D-15 -0.20784177D-04
 -0.10780641D-03 -0.10826023D-13 -0.52913589D-15 -0.90505944D-05 -0.73101186D-04
  0.43765629D-14 -0.53373231D-06  0.97664788D-04 -0.27891552D-14  0.27685515D-04
  0.12163877D-03  0.93854938D-14 -0.81703588D-03 -0.15285870D-02 -0.26410592D-02
 -0.42814673D-02 -0.65018189D-02 -0.90369166D-02 -0.10744201D-01 -0.95713079D-02
 -0.47533139D-02 -0.76524332D-03 -0.80737691D-05 -0.42376187D-05 -0.14135987D-03
 -0.49261083D-03 -0.17739714D-02 -0.39104991D-02 -0.55047207D-02  0.26259312D-03
  0.72038829D-02  0.42596109D-02  0.29368039D-06  0.35571867D-05  0.74181379D-05
  0.21273928D-04  0.11047255D-05 -0.91743495D-04 -0.23704757D-03  0.19313520D-03
  0.14252717D-03 -0.35863589D-03 -0.17327185D-03  0.37725708D-09  0.49693582D-09
  0.54819800D-09  0.45532136D-09  0.24178828D-09  0.62382640D-10  0.39797965D+01
  0.52423230D+01  0.57831029D+01  0.48033197D+01  0.25506961D+01  0.65809292D+00
 -0.68761719D+01 -0.90575269D+01 -0.99918700D+01 -0.82990304D+01 -0.44070154D+01
 -0.11370330D+01 -0.15339232D-13  0.14828983D-12  0.20910413D-12  0.29907423D-12
 -0.15144698D-14 -0.27427927D-12 -0.17203478D-03  0.16631215D-02  0.23451749D-02
  0.33542206D-02 -0.16985301D-04 -0.30761366D-02  0.32251225D-03 -0.31178410D-02
 -0.43964812D-02 -0.62881311D-02  0.31842211D-04  0.57668093D-02  0.24881117D-11
  0.25709031D-01 -0.44496400D-01 -0.20985019D-13 -0.12673691D-03  0.12111401D-03
 -0.14450704D-14 -0.10268964D-04  0.12848212D-04  0.16557805D-04  0.44806791D-03
 -0.46462572D-03  0.37816616D-13  0.28787409D-13 -0.43762187D-03  0.25087714D-04
 -0.26786031D-03  0.24277260D-03 -0.20816081D-13 -0.14699148D-13  0.40959322D-03
 -0.32235675D-05  0.47551991D-04 -0.44328423D-04 -0.52861146D-15 -0.48371671D-15
 -0.27277441D-04 -0.24560614D-15 -0.30623663D-04  0.45764837D-06  0.14778831D-14
  0.60424665D-04  0.31993990D-04 -0.74106469D-15  0.31446326D-04 -0.33366935D-04
  0.90041391D-14  0.17050008D-14 -0.44089748D-04 -0.13412903D-04 -0.44233815D-14
  0.17518959D-04 -0.41212078D-04 -0.69162077D-15  0.11475028D-03  0.81450787D-04
 -0.10549549D-13 -0.68365795D-03 -0.12790511D-02 -0.22099165D-02 -0.35825344D-02
 -0.54404222D-02 -0.75616750D-02 -0.89902522D-02 -0.80088290D-02 -0.39773538D-02
 -0.64032032D-03 -0.67557576D-05 -0.35962380D-05 -0.11996448D-03 -0.41805219D-03
 -0.15054736D-02 -0.33186293D-02 -0.46715589D-02  0.22284859D-03  0.61135461D-02
  0.36149015D-02  0.28765312D-06  0.34841817D-05  0.72658937D-05  0.20837318D-04
  0.10820529D-05 -0.89860622D-04 -0.23218259D-03  0.18917144D-03  0.10500287D-03
 -0.34519461D-03 -0.16659599D-03 -0.17235159D-10 -0.22702736D-10 -0.25044672D-10
 -0.20801561D-10 -0.11046206D-10 -0.28499789D-11 -0.43330047D+01 -0.57075808D+01
 -0.62963551D+01 -0.52296159D+01 -0.27770711D+01 -0.71649887D+00 -0.72593303D+01
 -0.95622363D+01 -0.10548643D+02 -0.87614743D+01 -0.46525860D+01 -0.12003915D+01
  0.14872750D-14 -0.14378018D-13 -0.20274506D-13 -0.28997906D-13  0.14684132D-15
  0.26593815D-13  0.18974962D-03 -0.18343772D-02 -0.25866634D-02 -0.36996129D-02
  0.18734319D-04  0.33928940D-02  0.34146669D-03 -0.33010803D-02 -0.46548678D-02
 -0.66576923D-02  0.33713617D-04  0.61057318D-02 -0.91823287D-13 -0.27984963D-01
 -0.46966307D-01  0.39508640D-14  0.15122125D-03  0.15188167D-03 -0.49754984D-15
  0.10960792D-04  0.14016547D-04  0.15174730D-04  0.49912475D-03 -0.51429948D-03
  0.86802528D-14  0.97154632D-15  0.47186081D-03  0.22889390D-04 -0.29873817D-03
  0.27584878D-03 -0.31541771D-14  0.12682344D-14 -0.42269546D-03 -0.29981734D-05
  0.47708547D-04 -0.44710374D-04 -0.13704985D-15 -0.50249043D-15  0.26919428D-04
 -0.34307030D-15  0.29093689D-04  0.13091331D-05 -0.28456015D-14 -0.56893818D-04
  0.29805344D-04  0.38748124D-14 -0.30387249D-04 -0.33732744D-04 -0.25245552D-14
 -0.32353066D-16  0.49506953D-04 -0.10296247D-04  0.16837317D-14 -0.18411675D-04
 -0.43382920D-04 -0.15866725D-14 -0.13010919D-03  0.74271660D-04 -0.47256045D-15
  0.48984445D-03  0.91581354D-03  0.15827980D-02  0.25601105D-02  0.38695214D-02
  0.53291321D-02  0.62291065D-02  0.53836150D-02  0.25125612D-02  0.34039691D-03
 -0.24897120D-05  0.61951091D-05  0.79637504D-04  0.29050617D-03  0.98016061D-03
  0.21528725D-02  0.27809240D-02 -0.44691815D-03 -0.37491121D-02 -0.20574644D-02
  0.22145196D-06  0.25224754D-05  0.52375683D-05  0.14401983D-04 -0.18673825D-05
 -0.65119207D-04 -0.16241764D-03  0.13444697D-03 -0.22030435D-04  0.11662551D-02
  0.25837103D-03 -0.78165673D-10 -0.10254892D-09 -0.11247397D-09 -0.92540194D-10
 -0.48781928D-10 -0.12692140D-10  0.11281883D-01  0.14801189D-01  0.16233701D-01
  0.13356600D-01  0.70408402D-02  0.18318942D-02 -0.57549196D+00 -0.75501273D+00
 -0.82808556D+00 -0.68132385D+00 -0.35915520D+00 -0.93445426D-01 -0.67863085D-15
 -0.24359883D-13 -0.38647564D-13 -0.45892797D-13 -0.69447899D-14  0.50542879D-13
  0.55249174D-06  0.19832040D-04  0.31464028D-04  0.37362568D-04  0.56539414D-05
 -0.41148326D-04 -0.46578567D-05 -0.16719671D-03 -0.26526177D-03 -0.31499021D-03
 -0.47666321D-04  0.34690655D-03 -0.57844084D-12  0.86879034D-04 -0.39452299D-02
 -0.33313450D-15 -0.12953536D-04 -0.11463308D-03 -0.44783670D-15 -0.11626570D-06
 -0.35860235D-07  0.19882590D-04  0.47031349D-04 -0.66913939D-04 -0.17202884D-14
 -0.70150014D-14  0.21700587D-04 -0.92001991D-04  0.92943814D-04 -0.94182217D-06
  0.28397839D-14  0.64896789D-14  0.37274550D-05  0.10440657D-04 -0.88632301D-05
 -0.15774266D-05 -0.19893272D-15  0.14159699D-14  0.21359756D-05 -0.11331433D-14
  0.27196963D-05  0.33226681D-04 -0.14603195D-14  0.11267577D-05  0.46231752D-04
  0.48597493D-14 -0.92858465D-05 -0.14591179D-03 -0.27588166D-15  0.12948452D-15
  0.74012811D-06  0.99671798D-05 -0.49162628D-15  0.16994329D-06 -0.19867987D-04
  0.10317271D-15 -0.23903276D-05 -0.10033553D-04  0.11976649D-14
MO    3     MO 0.0        OCC NO =    2.0000330  ORB. ENERGY =    0.000000
 -0.21374756D-11 -0.39846851D-11 -0.67346606D-11 -0.10123451D-10 -0.12434846D-10
 -0.10494572D-10 -0.39462330D-11 -0.20622184D-15 -0.15413805D-14 -0.57604907D-14
 -0.16070872D-13 -0.21530538D-13  0.25423551D-13 -0.16044460D-12 -0.72917477D-13
 -0.34050481D-13  0.18321864D-04  0.17177912D-04  0.12231697D-04 -0.67288039D-12
 -0.63086814D-12 -0.44921570D-12 -0.19366433D-12 -0.18157262D-12 -0.12929052D-12
  0.10566373D-05 -0.21305426D-12 -0.24218507D-14  0.10585986D-05  0.25538959D-12
  0.90892035D-13  0.47678973D-07  0.51425473D-14  0.29053830D-15 -0.20939334D-13
  0.13093969D-13  0.78453654D-14 -0.11826863D-02 -0.12917551D-05 -0.27475558D-12
  0.15599810D-13 -0.16578692D-13  0.97888202D-15  0.10754026D-03  0.30935587D-05
  0.99199185D-13  0.25250862D-14 -0.32759703D-14  0.75088405D-15 -0.11759047D-03
  0.80690034D-06 -0.43631169D-13 -0.23612006D-06  0.75477565D-13 -0.84117543D-14
  0.12597457D-05  0.91648763D-13  0.19195902D-13 -0.55138550D-06 -0.31808146D-12
  0.60393607D-14  0.46559900D-03  0.11639523D-07 -0.78913873D-13 -0.69945263D-14
 -0.93075826D-06 -0.35913437D-13 -0.39691079D-14  0.89583969D-06  0.27265506D-12
  0.24952687D-13 -0.35050774D-03 -0.21738371D-11 -0.40670173D-11 -0.70269038D-11
 -0.11391437D-10 -0.17298990D-10 -0.24043968D-10 -0.28586436D-10 -0.25465790D-10
 -0.12646850D-10 -0.20360358D-11 -0.21481381D-13 -0.53863720D-14 -0.17968035D-12
 -0.62615005D-12 -0.22548677D-11 -0.49705753D-11 -0.69969658D-11  0.33377807D-12
  0.91567448D-11  0.54143259D-11 -0.18836373D-15 -0.22815448D-14 -0.47579211D-14
 -0.13644889D-13 -0.70856011D-15  0.58843381D-13  0.15203999D-12 -0.12387503D-12
  0.34986689D-12  0.32122244D-12  0.86927225D-13 -0.81963725D+01 -0.10796540D+02
 -0.11910274D+02 -0.98924148D+01 -0.52531468D+01 -0.13553393D+01 -0.90555901D-09
 -0.11928331D-08 -0.13158816D-08 -0.10929427D-08 -0.58038289D-09 -0.14974182D-09
  0.11869569D-08  0.15635000D-08  0.17247852D-08  0.14325692D-08  0.76073398D-09
  0.19627334D-09  0.35870728D-03 -0.34677511D-02 -0.48898911D-02 -0.69938378D-02
  0.35415810D-04  0.64140089D-02  0.49134430D-13 -0.47500006D-12 -0.66979966D-12
 -0.95799070D-12  0.48511301D-14  0.87856783D-12 -0.64200178D-13  0.62064601D-12
  0.87517566D-12  0.12517327D-11 -0.63385983D-14 -0.11479570D-11 -0.53693989D-01
 -0.59588058D-11  0.75105879D-11  0.35113376D-03  0.14332294D-12 -0.89177855D-13
  0.14759131D-04  0.51218143D-14 -0.27400620D-14 -0.39379663D-13 -0.16425638D-12
  0.20363604D-12 -0.99530462D-03 -0.55527565D-03  0.23243369D-12 -0.57142469D-14
  0.10614359D-12 -0.10042935D-12  0.48442714D-03  0.32788335D-03 -0.72626074D-13
  0.37079156D-14  0.79896098D-15 -0.45068766D-14 -0.39295165D-04 -0.52308673D-04
  0.30643055D-14 -0.21495877D-04 -0.21478999D-15  0.68805283D-14 -0.43594063D-04
 -0.37077248D-13 -0.24583948D-13  0.10808169D-03  0.37721618D-13  0.39423627D-14
  0.21389918D-04 -0.17281557D-04  0.15854365D-13 -0.69280984D-14  0.86989339D-04
  0.16496261D-13  0.16539898D-13 -0.35144669D-04 -0.64059355D-13  0.42443974D-14
  0.13629473D-03 -0.95566957D-11 -0.17879558D-10 -0.30891910D-10 -0.50079416D-10
 -0.76050399D-10 -0.10570290D-09 -0.12567265D-09 -0.11195356D-09 -0.55598506D-10
 -0.89508891D-11 -0.94437167D-13  0.25313844D-13  0.84442747D-12  0.29426607D-11
  0.10596998D-10  0.23359762D-10  0.32883006D-10 -0.15686266D-11 -0.43033124D-10
 -0.25445217D-10  0.52604874D-15  0.63717349D-14  0.13287581D-13  0.38106470D-13
  0.19788159D-14 -0.16433358D-12 -0.42460641D-12  0.34594932D-12 -0.16568388D-11
 -0.10244679D-12 -0.47453134D-13  0.82307720D+01  0.10841852D+02  0.11960260D+02
  0.99339325D+01  0.52751938D+01  0.13610276D+01 -0.90053336D-09 -0.11862131D-08
 -0.13085787D-08 -0.10868771D-08 -0.57716190D-09 -0.14891079D-09 -0.14423980D-08
 -0.18999756D-08 -0.20959705D-08 -0.17408676D-08 -0.92444903D-09 -0.23851268D-09
 -0.35986464D-03  0.34789398D-02  0.49056682D-02  0.70164033D-02 -0.35530079D-04
 -0.64347036D-02  0.44916448D-13 -0.43422332D-12 -0.61230021D-12 -0.87575128D-12
  0.44346812D-14  0.80314652D-12  0.79216006D-13 -0.76580938D-12 -0.10798712D-11
 -0.15445014D-11  0.78211378D-14  0.14164535D-11  0.53902781D-01 -0.57628648D-11
 -0.92364767D-11 -0.35365121D-03  0.89489150D-13  0.12054185D-12 -0.14903379D-04
  0.40675541D-14  0.35819739D-14  0.55403340D-13  0.16961233D-12 -0.22501567D-12
 -0.99376961D-03  0.56416169D-03  0.31043947D-12 -0.93276712D-14 -0.88691604D-13
  0.98019276D-13  0.48015991D-03 -0.32884650D-03 -0.12442060D-12 -0.38846173D-14
  0.57901853D-14 -0.19055680D-14 -0.39286103D-04  0.52502495D-04  0.20356887D-14
  0.21182846D-04 -0.10863441D-14 -0.80472924D-14  0.44477920D-04 -0.18212127D-13
  0.18293198D-13 -0.10802646D-03  0.21471159D-13  0.58486794D-14  0.17675092D-04
  0.17234982D-04  0.15516640D-13  0.29639538D-14 -0.85993339D-04  0.14148068D-13
 -0.16883777D-13  0.34288392D-04 -0.60697989D-13  0.79919153D-14  0.13705050D-03
  0.46297629D-10  0.86558080D-10  0.14959809D-09  0.24196874D-09  0.36572766D-09
  0.50368271D-09  0.58874375D-09  0.50883216D-09  0.23747462D-09  0.32172600D-10
 -0.23531503D-12  0.17882312D-12  0.22987532D-11  0.83855213D-11  0.28292541D-10
  0.62143115D-10  0.80271955D-10 -0.12900386D-10 -0.10821891D-09 -0.59389140D-10
  0.14984072D-14  0.17067790D-13  0.35438885D-13  0.97447932D-13 -0.12635244D-13
 -0.44061517D-12 -0.10989642D-11  0.90970666D-12 -0.33624004D-11 -0.34803149D-13
  0.26240295D-13  0.56879108D-03  0.74622156D-03  0.81844355D-03  0.67339070D-03
  0.35497329D-03  0.92357372D-04  0.29281074D-08  0.38415104D-08  0.42133055D-08
  0.34665809D-08  0.18273843D-08  0.47545103D-09 -0.68873959D-09 -0.90358718D-09
 -0.99103958D-09 -0.81539751D-09 -0.42983121D-09 -0.11183399D-09  0.34771954D-07
  0.12481612D-05  0.19802391D-05  0.23514732D-05  0.35583987D-06 -0.25897359D-05
  0.29575787D-13  0.10616415D-11  0.16843209D-11  0.20000794D-11  0.30266473D-12