 cl2cs-wavefunction
GAUSSIAN            196 MOL ORBITALS    414 PRIMITIVES        4 NUCLEI
  C    1    (CENTRE  1)   0.01889726  0.00000000 -0.98816425  CHARGE =  6.0
  Cl   2    (CENTRE  2)   0.00000000 -2.70369732 -2.83628995  CHARGE = 17.0
  Cl   3    (CENTRE  3)   0.00000000  2.70369732 -2.83628995  CHARGE = 17.0
  S    4    (CENTRE  4)   0.00000000  0.00000000  2.04433408  CHARGE = 16.0
CENTRE ASSIGNMENTS    1  1  1  1  1  1  1  1  1  1  1  1  1  1  1  1  1  1  1  1
CENTRE ASSIGNMENTS    1  1  1  1  1  1  1  1  1  1  1  1  1  1  1  1  1  1  1  1
CENTRE ASSIGNMENTS    1  1  1  1  1  1  1  1  1  1  1  1  1  1  1  1  1  1  1  1
CENTRE ASSIGNMENTS    1  1  1  1  1  1  1  1  1  1  1  1  2  2  2  2  2  2  2  2
CENTRE ASSIGNMENTS    2  2  2  2  2  2  2  2  2  2  2  2  2  2  2  2  2  2  2  2
CENTRE ASSIGNMENTS    2  2  2  2  2  2  2  2  2  2  2  2  2  2  2  2  2  2  2  2
CENTRE ASSIGNMENTS    2  2  2  2  2  2  2  2  2  2  2  2  2  2  2  2  2  2  2  2
CENTRE ASSIGNMENTS    2  2  2  2  2  2  2  2  2  2  2  2  2  2  2  2  2  2  2  2
CENTRE ASSIGNMENTS    2  2  2  2  2  2  2  2  2  2  2  2  2  2  2  2  2  2  2  2
CENTRE ASSIGNMENTS    2  2  2  2  2  2  3  3  3  3  3  3  3  3  3  3  3  3  3  3
CENTRE ASSIGNMENTS    3  3  3  3  3  3  3  3  3  3  3  3  3  3  3  3  3  3  3  3
CENTRE ASSIGNMENTS    3  3  3  3  3  3  3  3  3  3  3  3  3  3  3  3  3  3  3  3
CENTRE ASSIGNMENTS    3  3  3  3  3  3  3  3  3  3  3  3  3  3  3  3  3  3  3  3
CENTRE ASSIGNMENTS    3  3  3  3  3  3  3  3  3  3  3  3  3  3  3  3  3  3  3  3
CENTRE ASSIGNMENTS    3  3  3  3  3  3  3  3  3  3  3  3  3  3  3  3  3  3  3  3
CENTRE ASSIGNMENTS    4  4  4  4  4  4  4  4  4  4  4  4  4  4  4  4  4  4  4  4
CENTRE ASSIGNMENTS    4  4  4  4  4  4  4  4  4  4  4  4  4  4  4  4  4  4  4  4
CENTRE ASSIGNMENTS    4  4  4  4  4  4  4  4  4  4  4  4  4  4  4  4  4  4  4  4
CENTRE ASSIGNMENTS    4  4  4  4  4  4  4  4  4  4  4  4  4  4  4  4  4  4  4  4
CENTRE ASSIGNMENTS    4  4  4  4  4  4  4  4  4  4  4  4  4  4  4  4  4  4  4  4
CENTRE ASSIGNMENTS    4  4  4  4  4  4  4  4  4  4  4  4  4  4
TYPE ASSIGNMENTS      1  1  1  1  1  1  1  1  1  1  1  1  1  1  1  1  2  2  2  3
TYPE ASSIGNMENTS      3  3  4  4  4  2  3  4  2  3  4  2  3  4  5  6  7  8  9 10
TYPE ASSIGNMENTS      5  6  7  8  9 10  5  6  7  8  9 10 11 12 13 17 14 15 18 19
TYPE ASSIGNMENTS     16 20 11 12 13 17 14 15 18 19 16 20  1  1  1  1  1  1  1  1
TYPE ASSIGNMENTS      1  1  1  1  1  1  1  1  1  1  1  1  1  1  1  1  1  1  1  1
TYPE ASSIGNMENTS      1  1  1  2  2  2  2  2  2  3  3  3  3  3  3  4  4  4  4  4
TYPE ASSIGNMENTS      4  2  2  2  2  2  2  3  3  3  3  3  3  4  4  4  4  4  4  2
TYPE ASSIGNMENTS      3  4  2  3  4  2  3  4  5  6  7  8  9 10  5  6  7  8  9 10
TYPE ASSIGNMENTS      5  6  7  8  9 10 11 12 13 17 14 15 18 19 16 20 11 12 13 17
TYPE ASSIGNMENTS     14 15 18 19 16 20  1  1  1  1  1  1  1  1  1  1  1  1  1  1
TYPE ASSIGNMENTS      1  1  1  1  1  1  1  1  1  1  1  1  1  1  1  1  1  2  2  2
TYPE ASSIGNMENTS      2  2  2  3  3  3  3  3  3  4  4  4  4  4  4  2  2  2  2  2
TYPE ASSIGNMENTS      2  3  3  3  3  3  3  4  4  4  4  4  4  2  3  4  2  3  4  2
TYPE ASSIGNMENTS      3  4  5  6  7  8  9 10  5  6  7  8  9 10  5  6  7  8  9 10
TYPE ASSIGNMENTS     11 12 13 17 14 15 18 19 16 20 11 12 13 17 14 15 18 19 16 20
TYPE ASSIGNMENTS      1  1  1  1  1  1  1  1  1  1  1  1  1  1  1  1  1  1  1  1
TYPE ASSIGNMENTS      1  1  1  1  1  1  1  1  1  1  1  2  2  2  2  2  2  3  3  3
TYPE ASSIGNMENTS      3  3  3  4  4  4  4  4  4  2  2  2  2  2  2  3  3  3  3  3
TYPE ASSIGNMENTS      3  4  4  4  4  4  4  2  3  4  2  3  4  2  3  4  5  6  7  8
TYPE ASSIGNMENTS      9 10  5  6  7  8  9 10  5  6  7  8  9 10 11 12 13 17 14 15
TYPE ASSIGNMENTS     18 19 16 20 11 12 13 17 14 15 18 19 16 20
EXPONENTS  0.8236000D+04 0.1235000D+04 0.2808000D+03 0.7927000D+02 0.2559000D+02
EXPONENTS  0.8997000D+01 0.3319000D+01 0.2808000D+03 0.7927000D+02 0.2559000D+02
EXPONENTS  0.8997000D+01 0.3319000D+01 0.3643000D+00 0.9059000D+00 0.1285000D+00
EXPONENTS  0.4402000D-01 0.1871000D+02 0.4133000D+01 0.1200000D+01 0.1871000D+02
EXPONENTS  0.4133000D+01 0.1200000D+01 0.1871000D+02 0.4133000D+01 0.1200000D+01
EXPONENTS  0.3827000D+00 0.3827000D+00 0.3827000D+00 0.1209000D+00 0.1209000D+00
EXPONENTS  0.1209000D+00 0.3569000D-01 0.3569000D-01 0.3569000D-01 0.1097000D+01
EXPONENTS  0.1097000D+01 0.1097000D+01 0.1097000D+01 0.1097000D+01 0.1097000D+01
EXPONENTS  0.3180000D+00 0.3180000D+00 0.3180000D+00 0.3180000D+00 0.3180000D+00
EXPONENTS  0.3180000D+00 0.1000000D+00 0.1000000D+00 0.1000000D+00 0.1000000D+00
EXPONENTS  0.1000000D+00 0.1000000D+00 0.7610000D+00 0.7610000D+00 0.7610000D+00
EXPONENTS  0.7610000D+00 0.7610000D+00 0.7610000D+00 0.7610000D+00 0.7610000D+00
EXPONENTS  0.7610000D+00 0.7610000D+00 0.2680000D+00 0.2680000D+00 0.2680000D+00
EXPONENTS  0.2680000D+00 0.2680000D+00 0.2680000D+00 0.2680000D+00 0.2680000D+00
EXPONENTS  0.2680000D+00 0.2680000D+00 0.4561000D+06 0.6833000D+05 0.1555000D+05
EXPONENTS  0.4405000D+04 0.1439000D+04 0.5204000D+03 0.2031000D+03 0.8396000D+02
EXPONENTS  0.3620000D+02 0.1583000D+02 0.6334000D+01 0.4405000D+04 0.1439000D+04
EXPONENTS  0.5204000D+03 0.2031000D+03 0.8396000D+02 0.3620000D+02 0.1583000D+02
EXPONENTS  0.6334000D+01 0.2694000D+01 0.1439000D+04 0.2031000D+03 0.8396000D+02
EXPONENTS  0.3620000D+02 0.1583000D+02 0.6334000D+01 0.2694000D+01 0.4313000D+00
EXPONENTS  0.9768000D+00 0.1625000D+00 0.5910000D-01 0.6633000D+03 0.1568000D+03
EXPONENTS  0.4998000D+02 0.1842000D+02 0.7240000D+01 0.2922000D+01 0.6633000D+03
EXPONENTS  0.1568000D+03 0.4998000D+02 0.1842000D+02 0.7240000D+01 0.2922000D+01
EXPONENTS  0.6633000D+03 0.1568000D+03 0.4998000D+02 0.1842000D+02 0.7240000D+01
EXPONENTS  0.2922000D+01 0.1568000D+03 0.4998000D+02 0.1842000D+02 0.7240000D+01
EXPONENTS  0.2922000D+01 0.3818000D+00 0.1568000D+03 0.4998000D+02 0.1842000D+02
EXPONENTS  0.7240000D+01 0.2922000D+01 0.3818000D+00 0.1568000D+03 0.4998000D+02
EXPONENTS  0.1842000D+02 0.7240000D+01 0.2922000D+01 0.3818000D+00 0.1022000D+01
EXPONENTS  0.1022000D+01 0.1022000D+01 0.1301000D+00 0.1301000D+00 0.1301000D+00
EXPONENTS  0.4190000D-01 0.4190000D-01 0.4190000D-01 0.1046000D+01 0.1046000D+01
EXPONENTS  0.1046000D+01 0.1046000D+01 0.1046000D+01 0.1046000D+01 0.3440000D+00
EXPONENTS  0.3440000D+00 0.3440000D+00 0.3440000D+00 0.3440000D+00 0.3440000D+00
EXPONENTS  0.1350000D+00 0.1350000D+00 0.1350000D+00 0.1350000D+00 0.1350000D+00
EXPONENTS  0.1350000D+00 0.7060000D+00 0.7060000D+00 0.7060000D+00 0.7060000D+00
EXPONENTS  0.7060000D+00 0.7060000D+00 0.7060000D+00 0.7060000D+00 0.7060000D+00
EXPONENTS  0.7060000D+00 0.3120000D+00 0.3120000D+00 0.3120000D+00 0.3120000D+00
EXPONENTS  0.3120000D+00 0.3120000D+00 0.3120000D+00 0.3120000D+00 0.3120000D+00
EXPONENTS  0.3120000D+00 0.4561000D+06 0.6833000D+05 0.1555000D+05 0.4405000D+04
EXPONENTS  0.1439000D+04 0.5204000D+03 0.2031000D+03 0.8396000D+02 0.3620000D+02
EXPONENTS  0.1583000D+02 0.6334000D+01 0.4405000D+04 0.1439000D+04 0.5204000D+03
EXPONENTS  0.2031000D+03 0.8396000D+02 0.3620000D+02 0.1583000D+02 0.6334000D+01
EXPONENTS  0.2694000D+01 0.1439000D+04 0.2031000D+03 0.8396000D+02 0.3620000D+02
EXPONENTS  0.1583000D+02 0.6334000D+01 0.2694000D+01 0.4313000D+00 0.9768000D+00
EXPONENTS  0.1625000D+00 0.5910000D-01 0.6633000D+03 0.1568000D+03 0.4998000D+02
EXPONENTS  0.1842000D+02 0.7240000D+01 0.2922000D+01 0.6633000D+03 0.1568000D+03
EXPONENTS  0.4998000D+02 0.1842000D+02 0.7240000D+01 0.2922000D+01 0.6633000D+03
EXPONENTS  0.1568000D+03 0.4998000D+02 0.1842000D+02 0.7240000D+01 0.2922000D+01
EXPONENTS  0.1568000D+03 0.4998000D+02 0.1842000D+02 0.7240000D+01 0.2922000D+01
EXPONENTS  0.3818000D+00 0.1568000D+03 0.4998000D+02 0.1842000D+02 0.7240000D+01
EXPONENTS  0.2922000D+01 0.3818000D+00 0.1568000D+03 0.4998000D+02 0.1842000D+02
EXPONENTS  0.7240000D+01 0.2922000D+01 0.3818000D+00 0.1022000D+01 0.1022000D+01
EXPONENTS  0.1022000D+01 0.1301000D+00 0.1301000D+00 0.1301000D+00 0.4190000D-01
EXPONENTS  0.4190000D-01 0.4190000D-01 0.1046000D+01 0.1046000D+01 0.1046000D+01
EXPONENTS  0.1046000D+01 0.1046000D+01 0.1046000D+01 0.3440000D+00 0.3440000D+00
EXPONENTS  0.3440000D+00 0.3440000D+00 0.3440000D+00 0.3440000D+00 0.1350000D+00
EXPONENTS  0.1350000D+00 0.1350000D+00 0.1350000D+00 0.1350000D+00 0.1350000D+00
EXPONENTS  0.7060000D+00 0.7060000D+00 0.7060000D+00 0.7060000D+00 0.7060000D+00
EXPONENTS  0.7060000D+00 0.7060000D+00 0.7060000D+00 0.7060000D+00 0.7060000D+00
EXPONENTS  0.3120000D+00 0.3120000D+00 0.3120000D+00 0.3120000D+00 0.3120000D+00
EXPONENTS  0.3120000D+00 0.3120000D+00 0.3120000D+00 0.3120000D+00 0.3120000D+00
EXPONENTS  0.3741000D+06 0.5605000D+05 0.1276000D+05 0.3615000D+04 0.1183000D+04
EXPONENTS  0.4288000D+03 0.1678000D+03 0.6947000D+02 0.2984000D+02 0.1272000D+02
EXPONENTS  0.5244000D+01 0.3615000D+04 0.1183000D+04 0.4288000D+03 0.1678000D+03
EXPONENTS  0.6947000D+02 0.2984000D+02 0.1272000D+02 0.5244000D+01 0.2219000D+01
EXPONENTS  0.1183000D+04 0.1678000D+03 0.6947000D+02 0.2984000D+02 0.1272000D+02
EXPONENTS  0.5244000D+01 0.2219000D+01 0.3490000D+00 0.7767000D+00 0.1322000D+00
EXPONENTS  0.4970000D-01 0.5744000D+03 0.1358000D+03 0.4319000D+02 0.1587000D+02
EXPONENTS  0.6208000D+01 0.2483000D+01 0.5744000D+03 0.1358000D+03 0.4319000D+02
EXPONENTS  0.1587000D+02 0.6208000D+01 0.2483000D+01 0.5744000D+03 0.1358000D+03
EXPONENTS  0.4319000D+02 0.1587000D+02 0.6208000D+01 0.2483000D+01 0.1358000D+03
EXPONENTS  0.4319000D+02 0.1587000D+02 0.6208000D+01 0.2483000D+01 0.3229000D+00
EXPONENTS  0.1358000D+03 0.4319000D+02 0.1587000D+02 0.6208000D+01 0.2483000D+01
EXPONENTS  0.3229000D+00 0.1358000D+03 0.4319000D+02 0.1587000D+02 0.6208000D+01
EXPONENTS  0.2483000D+01 0.3229000D+00 0.8688000D+00 0.8688000D+00 0.8688000D+00
EXPONENTS  0.1098000D+00 0.1098000D+00 0.1098000D+00 0.3510000D-01 0.3510000D-01
EXPONENTS  0.3510000D-01 0.2690000D+00 0.2690000D+00 0.2690000D+00 0.2690000D+00
EXPONENTS  0.2690000D+00 0.2690000D+00 0.8190000D+00 0.8190000D+00 0.8190000D+00
EXPONENTS  0.8190000D+00 0.8190000D+00 0.8190000D+00 0.1010000D+00 0.1010000D+00
EXPONENTS  0.1010000D+00 0.1010000D+00 0.1010000D+00 0.1010000D+00 0.5570000D+00
EXPONENTS  0.5570000D+00 0.5570000D+00 0.5570000D+00 0.5570000D+00 0.5570000D+00
EXPONENTS  0.5570000D+00 0.5570000D+00 0.5570000D+00 0.5570000D+00 0.2180000D+00
EXPONENTS  0.2180000D+00 0.2180000D+00 0.2180000D+00 0.2180000D+00 0.2180000D+00
EXPONENTS  0.2180000D+00 0.2180000D+00 0.2180000D+00 0.2180000D+00
MO    1     MO 0.0        OCC NO =    2.0000385  ORB. ENERGY =    0.000000
  0.61567128D-11  0.11477353D-10  0.19398290D-10  0.29159248D-10  0.35816914D-10
  0.30228212D-10  0.11366597D-10  0.94936818D-15  0.70959390D-14  0.26519144D-13
  0.73984283D-13  0.99118541D-13 -0.11704052D-12  0.48810748D-12 -0.18472730D-12
 -0.10529552D-13  0.17077556D-12  0.16011294D-12  0.11400996D-12  0.74400651D-03
  0.69755339D-03  0.49669957D-03  0.43096374D-13  0.40405590D-13  0.28771187D-13
  0.45708916D-13  0.19820347D-03 -0.17401785D-12 -0.52149019D-16  0.30934272D-03
  0.19130121D-12 -0.26345819D-14 -0.10508342D-04  0.19501159D-13 -0.13518775D-13
 -0.26930828D-12  0.28282706D-12 -0.19997546D-05 -0.94901996D-13  0.26900211D-03
  0.10728867D-13  0.31885582D-13 -0.42614449D-13 -0.34344713D-06  0.13989749D-13
  0.28086079D-03  0.83957769D-15 -0.56822661D-13  0.55983083D-13 -0.18587576D-05
 -0.12713885D-13  0.18755368D-03 -0.16306427D-14  0.24691028D-03 -0.34219802D-13
  0.10477504D-13  0.26378558D-04  0.36973067D-13 -0.55855754D-14 -0.76710939D-03
  0.65686338D-13 -0.48295857D-05 -0.24429820D-15 -0.30040355D-03  0.22794859D-13
 -0.84996445D-14 -0.21453425D-04 -0.36757305D-13  0.92325391D-14  0.92266407D-03
 -0.31627271D-13  0.15293619D-06 -0.13943720D-02 -0.26087213D-02 -0.45072917D-02
 -0.73068494D-02 -0.11096152D-01 -0.15422607D-01 -0.18336298D-01 -0.16334612D-01
 -0.81121136D-02 -0.13059817D-02 -0.13778878D-04 -0.68569337D-05 -0.22873583D-03
 -0.79709858D-03 -0.28704810D-02 -0.63276182D-02 -0.89072442D-02  0.42490458D-03
  0.11656676D-01  0.68925195D-02  0.22685559D-06  0.27477752D-05  0.57301956D-05
  0.16433203D-04  0.85335337D-06 -0.70867942D-04 -0.18310915D-03  0.14918872D-03
  0.38475659D-03 -0.21111910D-03 -0.10728218D-03 -0.25032156D-02 -0.32973205D-02
 -0.36374606D-02 -0.30211959D-02 -0.16043388D-02 -0.41392781D-03 -0.48526736D+01
 -0.63921064D+01 -0.70514939D+01 -0.58568178D+01 -0.31101328D+01 -0.80243051D+00
  0.65964085D+01  0.86890131D+01  0.95853415D+01  0.79613767D+01  0.42277119D+01
  0.10907718D+01  0.35785124D-06 -0.34594756D-05 -0.48782217D-05 -0.69771474D-05
  0.35331293D-07  0.63987023D-05  0.25172825D-03 -0.24335468D-02 -0.34315550D-02
 -0.49080314D-02  0.24853580D-04  0.45011277D-02 -0.32932330D-03  0.31836857D-02
  0.44893292D-02  0.64209284D-02 -0.32514678D-04 -0.58885969D-02 -0.19694479D-04
 -0.31215840D-01  0.42589968D-01 -0.31606081D-05  0.34360718D-03 -0.50708090D-03
 -0.14264175D-06  0.96062251D-05 -0.19524950D-04  0.76487599D-05 -0.81300885D-03
  0.80536009D-03 -0.83653528D-05  0.13186978D-04  0.73844374D-03  0.41779660D-04
  0.47668273D-03 -0.51846239D-03  0.71840503D-05 -0.78223271D-05 -0.34715259D-03
 -0.21188019D-05 -0.16109254D-05  0.37297272D-05 -0.58100257D-06 -0.84664626D-06
  0.35050680D-05 -0.14591604D-06 -0.22309751D-04 -0.98557443D-05 -0.96693662D-06
  0.49206079D-04  0.37160304D-04  0.14046847D-05  0.17723175D-04 -0.75930710D-05
  0.27510397D-05  0.15722596D-06  0.84322639D-04 -0.40430627D-04  0.36382936D-05
 -0.90589475D-05  0.43516410D-04 -0.41099715D-05 -0.24390897D-03  0.77775472D-04
 -0.33301289D-05  0.13943720D-02  0.26087212D-02  0.45072917D-02  0.73068494D-02
  0.11096152D-01  0.15422607D-01  0.18336298D-01  0.16334612D-01  0.81121135D-02
  0.13059817D-02  0.13778878D-04  0.68569337D-05  0.22873583D-03  0.79709857D-03
  0.28704810D-02  0.63276181D-02  0.89072441D-02 -0.42490457D-03 -0.11656676D-01
 -0.68925194D-02 -0.22685560D-06 -0.27477753D-05 -0.57301956D-05 -0.16433203D-04
 -0.85335337D-06  0.70867943D-04  0.18310915D-03 -0.14918872D-03 -0.38475659D-03
  0.21111910D-03  0.10728218D-03  0.25032143D-02  0.32973189D-02  0.36374589D-02
  0.30211944D-02  0.16043381D-02  0.41392760D-03 -0.48526736D+01 -0.63921064D+01
 -0.70514939D+01 -0.58568178D+01 -0.31101328D+01 -0.80243051D+00 -0.65964085D+01
 -0.86890131D+01 -0.95853415D+01 -0.79613767D+01 -0.42277119D+01 -0.10907718D+01
 -0.35785119D-06  0.34594751D-05  0.48782210D-05  0.69771464D-05 -0.35331287D-07
 -0.63987013D-05  0.25172825D-03 -0.24335468D-02 -0.34315550D-02 -0.49080314D-02
  0.24853580D-04  0.45011277D-02  0.32932330D-03 -0.31836857D-02 -0.44893292D-02
 -0.64209284D-02  0.32514678D-04  0.58885969D-02  0.19694471D-04 -0.31215840D-01
 -0.42589967D-01  0.31606081D-05  0.34360718D-03  0.50708090D-03  0.14264175D-06
  0.96062251D-05  0.19524950D-04 -0.76487600D-05  0.81300885D-03 -0.80536009D-03
 -0.83653527D-05 -0.13186978D-04  0.73844374D-03 -0.41779660D-04 -0.47668273D-03
  0.51846239D-03  0.71840503D-05  0.78223271D-05 -0.34715259D-03  0.21188018D-05
  0.16109253D-05 -0.37297272D-05 -0.58100256D-06  0.84664626D-06  0.35050680D-05
  0.14591604D-06 -0.22309751D-04  0.98557443D-05  0.96693663D-06  0.49206079D-04
 -0.37160304D-04 -0.14046848D-05  0.17723175D-04  0.75930710D-05  0.27510397D-05
 -0.15722596D-06  0.84322639D-04  0.40430627D-04 -0.36382936D-05 -0.90589475D-05
 -0.43516410D-04  0.41099715D-05 -0.24390897D-03 -0.77775472D-04 -0.33301289D-05
  0.13982434D-11  0.26141568D-11  0.45180400D-11  0.73077435D-11  0.11045410D-10
  0.15211816D-10  0.17780761D-10  0.15367336D-10  0.71720156D-11  0.97165074D-12
 -0.71067934D-14  0.17695406D-13  0.22747266D-12  0.82978756D-12  0.27996827D-11
  0.61493594D-11  0.79432950D-11 -0.12765551D-11 -0.10708780D-10 -0.58768403D-11
 -0.50546589D-16 -0.57575707D-15 -0.11954792D-14 -0.32872642D-14  0.42623156D-15
  0.14863512D-13  0.37071959D-13 -0.30687631D-13 -0.44920047D-12 -0.29812960D-12
 -0.96447664D-13  0.36643358D-09  0.48074002D-09  0.52726775D-09  0.43382002D-09
  0.22868525D-09  0.59499601D-10  0.83875274D+00  0.11003959D+01  0.12068961D+01
  0.99299779D+00  0.52345198D+00  0.13619236D+00  0.66200107D-09  0.86850776D-09
  0.95256505D-09  0.78374183D-09  0.41314413D-09  0.10749233D-09  0.28747116D-14
  0.10318959D-12  0.16371286D-12  0.19440401D-12  0.29418450D-13 -0.21410197D-12
  0.22739525D-04  0.81624961D-03  0.12950005D-02  0.15377733D-02  0.23270564D-03
 -0.16935880D-02  0.56566060D-14  0.20304744D-12  0.32213985D-12  0.38253120D-12
  0.57887053D-13 -0.42129112D-12  0.27307347D-11  0.59017141D-02  0.49033759D-11
  0.10719556D-13 -0.52184453D-03  0.81495679D-14  0.26021397D-15 -0.67227683D-05
 -0.65541799D-16 -0.21777295D-13 -0.37440609D-13  0.59217903D-13 -0.93983813D-05
  0.18079162D-13  0.68984077D-03  0.37289089D-13 -0.25728195D-13 -0.11560894D-13
  0.24165243D-05 -0.17794349D-13 -0.10487550D-03 -0.39827017D-14  0.12777519D-14
  0.27049498D-14 -0.50652520D-06 -0.62181930D-14  0.76510230D-04  0.49408682D-14
  0.63018165D-04 -0.13452919D-13 -0.14514602D-14  0.22995679D-04 -0.10501537D-13
 -0.13371145D-13 -0.21205017D-03  0.50860294D-13  0.10426221D-04 -0.89242213D-15
  0.27121230D-04 -0.65889940D-14  0.18450780D-14  0.20436470D-05  0.84725388D-14
  0.83218840D-15 -0.83407338D-04  0.11294443D-13  0.31863335D-05
MO    2     MO 0.0        OCC NO =    2.0000376  ORB. ENERGY =    0.000000
 -0.56171688D-03 -0.10471534D-02 -0.17698320D-02 -0.26603875D-02 -0.32678096D-02
 -0.27579160D-02 -0.10370484D-02 -0.10913913D-05 -0.81574739D-05 -0.30486342D-04
 -0.85052148D-04 -0.11394643D-03  0.13454949D-03  0.18402097D-04 -0.44432239D-03
 -0.64540766D-04 -0.18092703D-05 -0.16963059D-05 -0.12078708D-05 -0.12651627D-12
 -0.11861704D-12 -0.84462402D-13  0.81738305D-03  0.76634856D-03  0.54568583D-03
 -0.60989609D-06 -0.55555345D-13  0.57374497D-03 -0.38477841D-05  0.22025588D-12
 -0.50668436D-03 -0.11865988D-06  0.18654978D-14 -0.46044291D-04 -0.63764692D-04
  0.71579400D-03 -0.65202930D-03 -0.30930059D-13  0.30744647D-05 -0.51863395D-13
  0.63288012D-04 -0.11214956D-03  0.48861552D-04  0.31358084D-14 -0.72213554D-05
  0.22842657D-12  0.47820869D-05  0.16306725D-03 -0.16784934D-03 -0.54779440D-14
 -0.32179202D-05  0.90701406D-13 -0.48324844D-06  0.10352191D-12  0.99928885D-04
 -0.18960380D-05  0.72442408D-13 -0.19009440D-03  0.33457833D-05 -0.38300814D-12
 -0.10969226D-03  0.14304599D-13  0.58759878D-06 -0.12851947D-12 -0.74357259D-04
  0.30905396D-05 -0.21633143D-13  0.98158704D-04 -0.48533359D-05  0.40719154D-12
  0.12491307D-03 -0.11527473D-13 -0.80037119D-03 -0.14974091D-02 -0.25871908D-02
 -0.41941402D-02 -0.63692044D-02 -0.88525949D-02 -0.10525057D-01 -0.93760865D-02
 -0.46563628D-02 -0.74963502D-03 -0.79090922D-05 -0.41561646D-05 -0.13864269D-03
 -0.48314203D-03 -0.17398727D-02 -0.38353328D-02 -0.53989107D-02  0.25754564D-03
  0.70654123D-02  0.41777340D-02  0.29114110D-06  0.35264297D-05  0.73539973D-05
  0.21089984D-04  0.10951735D-05 -0.90950240D-04 -0.23499795D-03  0.19146527D-03
  0.13799429D-03 -0.35338895D-03 -0.17158619D-03  0.10946101D-01  0.14418575D-01
  0.15905946D-01  0.13211133D-01  0.70154784D-02  0.18100301D-02  0.41840812D+01
  0.55114138D+01  0.60799521D+01  0.50498763D+01  0.26816244D+01  0.69187312D+00
 -0.70562864D+01 -0.92947799D+01 -0.10253597D+02 -0.85164153D+01 -0.45224528D+01
 -0.11668165D+01 -0.27336962D-06  0.26427616D-05  0.37265697D-05  0.53299805D-05
 -0.26990271D-07 -0.48880949D-05 -0.18201766D-03  0.17596296D-02  0.24812614D-02
  0.35488602D-02 -0.17970929D-04 -0.32546395D-02  0.33136902D-03 -0.32034625D-02
 -0.45172165D-02 -0.64608146D-02  0.32716656D-04  0.59251763D-02  0.65958276D-04
  0.27026173D-01 -0.45655769D-01 -0.49733065D-05 -0.14319576D-03  0.13559878D-03
 -0.21183155D-06 -0.10750813D-04  0.13333014D-04  0.14985837D-04  0.47415501D-03
 -0.48914085D-03  0.56678905D-05 -0.41952572D-05 -0.44614717D-03  0.24748521D-04
 -0.28453437D-03  0.25978585D-03 -0.78470995D-06  0.24338236D-05  0.41260505D-03
 -0.27945740D-05  0.47345258D-04 -0.44550684D-04 -0.54562119D-06 -0.14039959D-05
 -0.26994050D-04 -0.23890927D-06 -0.30185811D-04  0.10836761D-05 -0.12491986D-06
  0.59198770D-04  0.30248162D-04  0.84164766D-06  0.31358662D-04 -0.33499190D-04
  0.19771257D-05  0.18274670D-06 -0.46857861D-04 -0.11811633D-04 -0.31519409D-06
  0.18257326D-04 -0.41602326D-04 -0.23304601D-06  0.12231626D-03  0.77037224D-04
 -0.40295755D-06 -0.80037114D-03 -0.14974090D-02 -0.25871906D-02 -0.41941400D-02
 -0.63692040D-02 -0.88525943D-02 -0.10525056D-01 -0.93760859D-02 -0.46563625D-02
 -0.74963497D-03 -0.79090918D-05 -0.41561648D-05 -0.13864270D-03 -0.48314205D-03
 -0.17398728D-02 -0.38353330D-02 -0.53989110D-02  0.25754565D-03  0.70654126D-02
  0.41777342D-02  0.29114110D-06  0.35264296D-05  0.73539972D-05  0.21089984D-04
  0.10951735D-05 -0.90950238D-04 -0.23499795D-03  0.19146527D-03  0.13799430D-03
 -0.35338895D-03 -0.17158619D-03  0.10946101D-01  0.14418576D-01  0.15905946D-01
  0.13211134D-01  0.70154786D-02  0.18100302D-02 -0.41840812D+01 -0.55114138D+01
 -0.60799521D+01 -0.50498763D+01 -0.26816244D+01 -0.69187312D+00 -0.70562864D+01
 -0.92947799D+01 -0.10253597D+02 -0.85164153D+01 -0.45224528D+01 -0.11668165D+01
 -0.27336964D-06  0.26427618D-05  0.37265700D-05  0.53299809D-05 -0.26990273D-07
 -0.48880952D-05  0.18201766D-03 -0.17596296D-02 -0.24812614D-02 -0.35488602D-02
  0.17970929D-04  0.32546395D-02  0.33136902D-03 -0.32034625D-02 -0.45172165D-02
 -0.64608146D-02  0.32716656D-04  0.59251763D-02  0.65958279D-04 -0.27026173D-01
 -0.45655769D-01 -0.49733065D-05  0.14319576D-03  0.13559878D-03 -0.21183155D-06
  0.10750813D-04  0.13333014D-04  0.14985837D-04  0.47415501D-03 -0.48914085D-03
 -0.56678906D-05 -0.41952572D-05  0.44614717D-03  0.24748521D-04 -0.28453437D-03
  0.25978585D-03  0.78470998D-06  0.24338235D-05 -0.41260505D-03 -0.27945740D-05
  0.47345258D-04 -0.44550684D-04  0.54562118D-06 -0.14039959D-05  0.26994050D-04
 -0.23890926D-06  0.30185811D-04  0.10836761D-05 -0.12491986D-06 -0.59198770D-04
  0.30248162D-04  0.84164765D-06 -0.31358662D-04 -0.33499190D-04 -0.19771257D-05
  0.18274670D-06  0.46857861D-04 -0.11811633D-04 -0.31519410D-06 -0.18257326D-04
 -0.41602326D-04 -0.23304601D-06 -0.12231626D-03  0.77037224D-04  0.40295756D-06
  0.51344260D-03  0.95993265D-03  0.16590489D-02  0.26834433D-02  0.40559347D-02
  0.55858618D-02  0.65291923D-02  0.56429695D-02  0.26336032D-02  0.35679545D-03
 -0.26096533D-05  0.64766441D-05  0.83256609D-04  0.30370814D-03  0.10247037D-02
  0.22507092D-02  0.29073024D-02 -0.46722823D-03 -0.39194895D-02 -0.21509653D-02
  0.23223781D-06  0.26453330D-05  0.54926648D-05  0.15103433D-04 -0.19583336D-05
 -0.68290848D-04 -0.17032822D-03  0.14099523D-03 -0.26507719D-04  0.11721916D-02
  0.25947966D-03  0.13631591D-02  0.17883872D-02  0.19614737D-02  0.16138415D-02
  0.85072545D-03  0.22134276D-03  0.14804099D-08  0.19422136D-08  0.21301880D-08
  0.17526545D-08  0.92389980D-09  0.24038135D-09 -0.57347848D+00 -0.75237115D+00
 -0.82518832D+00 -0.67894009D+00 -0.35789861D+00 -0.93118487D-01 -0.11722833D-06
 -0.42079850D-05 -0.66760737D-05 -0.79276327D-05 -0.11996598D-05  0.87308991D-05
  0.19540541D-13  0.70142004D-12  0.11128205D-11  0.13214402D-11  0.19996873D-12
 -0.14553350D-11 -0.45675753D-05 -0.16395600D-03 -0.26012030D-03 -0.30888488D-03
 -0.46742424D-04  0.34018260D-03  0.62482833D-05  0.10289547D-10 -0.39328052D-02
  0.11055710D-04 -0.31806299D-12 -0.11710958D-03  0.29137793D-06 -0.68838406D-14
 -0.97202498D-07  0.20115974D-04  0.45766742D-04 -0.65882715D-04 -0.13641328D-14
 -0.76129402D-05  0.39614085D-12 -0.91816923D-04  0.92104840D-04 -0.28791697D-06
 -0.33493571D-14  0.24989723D-05 -0.14458281D-12  0.10398775D-04 -0.90209421D-05
 -0.13778327D-05  0.10212324D-14 -0.18904645D-05  0.40311118D-13 -0.10027329D-05
  0.28847565D-13  0.33045526D-04  0.92379089D-06  0.30993987D-13  0.45338723D-04
  0.20844077D-05 -0.11753668D-12 -0.14447530D-03  0.82815517D-14 -0.69208416D-08
  0.16322647D-13  0.97972004D-05 -0.80546281D-06  0.19778804D-14 -0.19921390D-04
  0.82622534D-06 -0.50945821D-13 -0.94702114D-05 -0.20933850D-14
MO    3     MO 0.0        OCC NO =    2.0000330  ORB. ENERGY =    0.000000
 -0.27209294D-11 -0.50723605D-11 -0.85729803D-11 -0.12886788D-10 -0.15829111D-10
 -0.13359212D-10 -0.50234124D-11 -0.52405259D-15 -0.39169684D-14 -0.14638605D-13
 -0.40839429D-13 -0.54713576D-13  0.64606531D-13 -0.19873685D-12  0.51967900D-13
  0.30207840D-13 -0.19387507D-11 -0.18177020D-11 -0.12943121D-11 -0.15874373D-04
 -0.14883234D-04 -0.10597749D-04 -0.82691876D-13 -0.77528890D-13 -0.55205188D-13
 -0.41470352D-12  0.22982873D-05 -0.74100445D-14  0.85635343D-13 -0.30219335D-04
 -0.42758744D-13  0.15865582D-13 -0.13897965D-05 -0.13286167D-14  0.47896468D-14
  0.91546234D-14 -0.13944270D-13  0.11746032D-02  0.60542993D-12  0.11160475D-04
  0.77455532D-14 -0.62591990D-14 -0.14863542D-14 -0.10403139D-03 -0.39230181D-13
 -0.17149872D-04  0.45556022D-15  0.70706039D-15 -0.11626206D-14  0.11688357D-03
  0.96042621D-13 -0.16308679D-04  0.45075179D-13 -0.15325688D-07 -0.21293627D-14
 -0.95066800D-13 -0.33856279D-05 -0.99375555D-15 -0.40158737D-13  0.34316050D-05
  0.73818436D-14 -0.46321949D-03 -0.19627970D-13  0.12729539D-05 -0.42724470D-14
  0.70098973D-13  0.30611785D-05  0.67102114D-14 -0.11215062D-13 -0.68800403D-05
  0.61071297D-14  0.34829035D-03 -0.11873290D-03 -0.22213658D-03 -0.38380274D-03
 -0.62218933D-03 -0.94485420D-03 -0.13132584D-02 -0.15613637D-02 -0.13909170D-02
 -0.69075880D-03 -0.11120632D-03 -0.11732924D-05 -0.55547979D-06 -0.18529876D-04
 -0.64572907D-04 -0.23253750D-03 -0.51259997D-03 -0.72157532D-03  0.34421494D-04
  0.94430661D-03  0.55836259D-03 -0.11963434D-07 -0.14490640D-06 -0.30218703D-06
 -0.86661978D-06 -0.45002359D-07  0.37372848D-05  0.96564262D-05 -0.78676015D-05
  0.31260330D-04  0.13324156D-04 -0.31160749D-05  0.82131632D+01  0.10818657D+02
  0.11934673D+02  0.99126800D+01  0.52639081D+01  0.13581158D+01 -0.68952291D-01
 -0.90826298D-01 -0.10019562D+00 -0.83220311D-01 -0.44192294D-01 -0.11401843D-01
 -0.45741002D-01 -0.60251599D-01 -0.66466946D-01 -0.55206003D-01 -0.29315919D-01
 -0.75636604D-02 -0.35896185D-03  0.34702122D-02  0.48933615D-02  0.69988014D-02
 -0.35440945D-04 -0.64185610D-02  0.31493745D-05 -0.30446126D-04 -0.42932216D-04
 -0.61404425D-04  0.31094337D-06  0.56313650D-04  0.25789562D-05 -0.24931689D-04
 -0.35156285D-04 -0.50282787D-04  0.25462496D-06  0.46114058D-04  0.53788338D-01
 -0.45596383D-03 -0.31029449D-03 -0.35362431D-03  0.48240138D-05 -0.89478409D-05
 -0.14917669D-04  0.37654956D-06 -0.12832754D-06  0.79580033D-05 -0.73869220D-05
 -0.57108134D-06  0.99068627D-03  0.56251745D-03 -0.42245854D-05 -0.48967832D-05
  0.31876153D-05  0.17091679D-05 -0.47776677D-03 -0.32813318D-03  0.85539806D-05
  0.16027201D-05  0.47763382D-06 -0.20803539D-05  0.39033840D-04  0.52100994D-04
 -0.21453600D-05  0.21099238D-04 -0.11631488D-05  0.14916296D-05  0.44223853D-04
 -0.95013905D-06 -0.34113951D-05 -0.10752157D-03  0.44395853D-05 -0.10634938D-05
 -0.17125692D-04  0.17144593D-04  0.61070560D-06 -0.11051723D-05 -0.85371723D-04
 -0.17647311D-05  0.12664095D-06  0.33937943D-04 -0.67385682D-07  0.31888759D-05
 -0.13693885D-03  0.11873292D-03  0.22213663D-03  0.38380282D-03  0.62218947D-03
  0.94485442D-03  0.13132587D-02  0.15613640D-02  0.13909173D-02  0.69075896D-03
  0.11120635D-03  0.11732927D-05  0.55547976D-06  0.18529875D-04  0.64572904D-04
  0.23253748D-03  0.51259994D-03  0.72157528D-03 -0.34421493D-04 -0.94430657D-03
 -0.55836256D-03  0.11963434D-07  0.14490640D-06  0.30218701D-06  0.86661974D-06
  0.45002356D-07 -0.37372846D-05 -0.96564257D-05  0.78676011D-05 -0.31260328D-04
 -0.13324157D-04  0.31160748D-05 -0.82131632D+01 -0.10818657D+02 -0.11934672D+02
 -0.99126800D+01 -0.52639081D+01 -0.13581158D+01 -0.68952291D-01 -0.90826297D-01
 -0.10019562D+00 -0.83220310D-01 -0.44192294D-01 -0.11401843D-01  0.45741001D-01
  0.60251599D-01  0.66466945D-01  0.55206002D-01  0.29315919D-01  0.75636603D-02
  0.35896185D-03 -0.34702122D-02 -0.48933615D-02 -0.69988014D-02  0.35440945D-04
  0.64185610D-02  0.31493745D-05 -0.30446126D-04 -0.42932216D-04 -0.61404425D-04
  0.31094337D-06  0.56313649D-04 -0.25789562D-05  0.24931689D-04  0.35156284D-04
  0.50282786D-04 -0.25462495D-06 -0.46114058D-04 -0.53788338D-01 -0.45596382D-03
  0.31029449D-03  0.35362431D-03  0.48240138D-05  0.89478409D-05  0.14917669D-04
  0.37654957D-06  0.12832754D-06 -0.79580033D-05  0.73869220D-05  0.57108130D-06
  0.99068627D-03 -0.56251745D-03 -0.42245854D-05  0.48967832D-05 -0.31876153D-05
 -0.17091679D-05 -0.47776677D-03  0.32813318D-03  0.85539805D-05 -0.16027201D-05
 -0.47763383D-06  0.20803539D-05  0.39033840D-04 -0.52100994D-04 -0.21453600D-05
 -0.21099238D-04 -0.11631488D-05 -0.14916296D-05 -0.44223853D-04 -0.95013905D-06
  0.34113951D-05  0.10752157D-03  0.44395853D-05  0.10634938D-05 -0.17125693D-04
 -0.17144593D-04  0.61070561D-06  0.11051723D-05  0.85371723D-04 -0.17647311D-05
 -0.12664095D-06 -0.33937943D-04 -0.67385691D-07 -0.31888759D-05 -0.13693885D-03
  0.57007014D-11  0.10658036D-10  0.18420253D-10  0.29794000D-10  0.45032635D-10
  0.62019261D-10  0.72492965D-10  0.62653322D-10  0.29240632D-10  0.39614640D-11
 -0.28974718D-13  0.21046715D-13  0.27055340D-12  0.98693993D-12  0.33299109D-11
  0.73139784D-11  0.94476651D-11 -0.15183202D-11 -0.12736902D-10 -0.69898473D-11
  0.22159229D-15  0.25240739D-14  0.52408873D-14  0.14411109D-13 -0.18685658D-14
 -0.65160473D-13 -0.16252057D-12  0.13453217D-12 -0.38182459D-12  0.46966923D-13
 -0.27247011D-14 -0.12888617D-08 -0.16909132D-08 -0.18545659D-08 -0.15258809D-08
 -0.80435766D-09 -0.20927873D-09 -0.21595496D-01 -0.28332063D-01 -0.31074142D-01
 -0.25566868D-01 -0.13477399D-01 -0.35065657D-02 -0.18112432D-09 -0.23762481D-09
 -0.26062299D-09 -0.21443275D-09 -0.11303675D-09 -0.29410036D-10 -0.13379603D-13
 -0.48026930D-12 -0.76195929D-12 -0.90480329D-12 -0.13692059D-12  0.99648237D-12
 -0.38023412D-06 -0.13648744D-04 -0.21654074D-04 -0.25713548D-04 -0.38911376D-05