 cl2cs-wavefunction
GAUSSIAN            196 MOL ORBITALS    414 PRIMITIVES        4 NUCLEI
  C    1    (CENTRE  1)   0.00000000  0.00000000 -0.98816425  CHARGE =  6.0
  Cl   2    (CENTRE  2)   0.00000000 -2.70369732 -2.85518721  CHARGE = 17.0
  Cl   3    (CENTRE  3)   0.00000000  2.70369732 -2.83628995  CHARGE = 17.0
  S    4    (CENTRE  4)   0.00000000  0.00000000  2.04433408  CHARGE = 16.0
CENTRE ASSIGNMENTS    1  1  1  1  1  1  1  1  1  1  1  1  1  1  1  1  1  1  1  1
CENTRE ASSIGNMENTS    1  1  1  1  1  1  1  1  1  1  1  1  1  1  1  1  1  1  1  1
CENTRE ASSIGNMENTS    1  1  1  1  1  1  1  1  1  1  1  1  1  1  1  1  1  1  1  1
CENTRE ASSIGNMENTS    1  1  1  1  1  1  1  1  1  1  1  1  2  2  2  2  2  2  2  2
CENTRE ASSIGNMENTS    2  2  2  2  2  2  2  2  2  2  2  2  2  2  2  2  2  2  2  2
CENTRE ASSIGNMENTS    2  2  2  2  2  2  2  2  2  2  2  2  2  2  2  2  2  2  2  2
CENTRE ASSIGNMENTS    2  2  2  2  2  2  2  2  2  2  2  2  2  2  2  2  2  2  2  2
CENTRE ASSIGNMENTS    2  2  2  2  2  2  2  2  2  2  2  2  2  2  2  2  2  2  2  2
CENTRE ASSIGNMENTS    2  2  2  2  2  2  2  2  2  2  2  2  2  2  2  2  2  2  2  2
CENTRE ASSIGNMENTS    2  2  2  2  2  2  3  3  3  3  3  3  3  3  3  3  3  3  3  3
CENTRE ASSIGNMENTS    3  3  3  3  3  3  3  3  3  3  3  3  3  3  3  3  3  3  3  3
CENTRE ASSIGNMENTS    3  3  3  3  3  3  3  3  3  3  3  3  3  3  3  3  3  3  3  3
CENTRE ASSIGNMENTS    3  3  3  3  3  3  3  3  3  3  3  3  3  3  3  3  3  3  3  3
CENTRE ASSIGNMENTS    3  3  3  3  3  3  3  3  3  3  3  3  3  3  3  3  3  3  3  3
CENTRE ASSIGNMENTS    3  3  3  3  3  3  3  3  3  3  3  3  3  3  3  3  3  3  3  3
CENTRE ASSIGNMENTS    4  4  4  4  4  4  4  4  4  4  4  4  4  4  4  4  4  4  4  4
CENTRE ASSIGNMENTS    4  4  4  4  4  4  4  4  4  4  4  4  4  4  4  4  4  4  4  4
CENTRE ASSIGNMENTS    4  4  4  4  4  4  4  4  4  4  4  4  4  4  4  4  4  4  4  4
CENTRE ASSIGNMENTS    4  4  4  4  4  4  4  4  4  4  4  4  4  4  4  4  4  4  4  4
CENTRE ASSIGNMENTS    4  4  4  4  4  4  4  4  4  4  4  4  4  4  4  4  4  4  4  4
CENTRE ASSIGNMENTS    4  4  4  4  4  4  4  4  4  4  4  4  4  4
TYPE ASSIGNMENTS      1  1  1  1  1  1  1  1  1  1  1  1  1  1  1  1  2  2  2  3
TYPE ASSIGNMENTS      3  3  4  4  4  2  3  4  2  3  4  2  3  4  5  6  7  8  9 10
TYPE ASSIGNMENTS      5  6  7  8  9 10  5  6  7  8  9 10 11 12 13 17 14 15 18 19
TYPE ASSIGNMENTS     16 20 11 12 13 17 14 15 18 19 16 20  1  1  1  1  1  1  1  1
TYPE ASSIGNMENTS      1  1  1  1  1  1  1  1  1  1  1  1  1  1  1  1  1  1  1  1
TYPE ASSIGNMENTS      1  1  1  2  2  2  2  2  2  3  3  3  3  3  3  4  4  4  4  4
TYPE ASSIGNMENTS      4  2  2  2  2  2  2  3  3  3  3  3  3  4  4  4  4  4  4  2
TYPE ASSIGNMENTS      3  4  2  3  4  2  3  4  5  6  7  8  9 10  5  6  7  8  9 10
TYPE ASSIGNMENTS      5  6  7  8  9 10 11 12 13 17 14 15 18 19 16 20 11 12 13 17
TYPE ASSIGNMENTS     14 15 18 19 16 20  1  1  1  1  1  1  1  1  1  1  1  1  1  1
TYPE ASSIGNMENTS      1  1  1  1  1  1  1  1  1  1  1  1  1  1  1  1  1  2  2  2
TYPE ASSIGNMENTS      2  2  2  3  3  3  3  3  3  4  4  4  4  4  4  2  2  2  2  2
TYPE ASSIGNMENTS      2  3  3  3  3  3  3  4  4  4  4  4  4  2  3  4  2  3  4  2
TYPE ASSIGNMENTS      3  4  5  6  7  8  9 10  5  6  7  8  9 10  5  6  7  8  9 10
TYPE ASSIGNMENTS     11 12 13 17 14 15 18 19 16 20 11 12 13 17 14 15 18 19 16 20
TYPE ASSIGNMENTS      1  1  1  1  1  1  1  1  1  1  1  1  1  1  1  1  1  1  1  1
TYPE ASSIGNMENTS      1  1  1  1  1  1  1  1  1  1  1  2  2  2  2  2  2  3  3  3
TYPE ASSIGNMENTS      3  3  3  4  4  4  4  4  4  2  2  2  2  2  2  3  3  3  3  3
TYPE ASSIGNMENTS      3  4  4  4  4  4  4  2  3  4  2  3  4  2  3  4  5  6  7  8
TYPE ASSIGNMENTS      9 10  5  6  7  8  9 10  5  6  7  8  9 10 11 12 13 17 14 15
TYPE ASSIGNMENTS     18 19 16 20 11 12 13 17 14 15 18 19 16 20
EXPONENTS  0.8236000D+04 0.1235000D+04 0.2808000D+03 0.7927000D+02 0.2559000D+02
EXPONENTS  0.8997000D+01 0.3319000D+01 0.2808000D+03 0.7927000D+02 0.2559000D+02
EXPONENTS  0.8997000D+01 0.3319000D+01 0.3643000D+00 0.9059000D+00 0.1285000D+00
EXPONENTS  0.4402000D-01 0.1871000D+02 0.4133000D+01 0.1200000D+01 0.1871000D+02
EXPONENTS  0.4133000D+01 0.1200000D+01 0.1871000D+02 0.4133000D+01 0.1200000D+01
EXPONENTS  0.3827000D+00 0.3827000D+00 0.3827000D+00 0.1209000D+00 0.1209000D+00
EXPONENTS  0.1209000D+00 0.3569000D-01 0.3569000D-01 0.3569000D-01 0.1097000D+01
EXPONENTS  0.1097000D+01 0.1097000D+01 0.1097000D+01 0.1097000D+01 0.1097000D+01
EXPONENTS  0.3180000D+00 0.3180000D+00 0.3180000D+00 0.3180000D+00 0.3180000D+00
EXPONENTS  0.3180000D+00 0.1000000D+00 0.1000000D+00 0.1000000D+00 0.1000000D+00
EXPONENTS  0.1000000D+00 0.1000000D+00 0.7610000D+00 0.7610000D+00 0.7610000D+00
EXPONENTS  0.7610000D+00 0.7610000D+00 0.7610000D+00 0.7610000D+00 0.7610000D+00
EXPONENTS  0.7610000D+00 0.7610000D+00 0.2680000D+00 0.2680000D+00 0.2680000D+00
EXPONENTS  0.2680000D+00 0.2680000D+00 0.2680000D+00 0.2680000D+00 0.2680000D+00
EXPONENTS  0.2680000D+00 0.2680000D+00 0.4561000D+06 0.6833000D+05 0.1555000D+05
EXPONENTS  0.4405000D+04 0.1439000D+04 0.5204000D+03 0.2031000D+03 0.8396000D+02
EXPONENTS  0.3620000D+02 0.1583000D+02 0.6334000D+01 0.4405000D+04 0.1439000D+04
EXPONENTS  0.5204000D+03 0.2031000D+03 0.8396000D+02 0.3620000D+02 0.1583000D+02
EXPONENTS  0.6334000D+01 0.2694000D+01 0.1439000D+04 0.2031000D+03 0.8396000D+02
EXPONENTS  0.3620000D+02 0.1583000D+02 0.6334000D+01 0.2694000D+01 0.4313000D+00
EXPONENTS  0.9768000D+00 0.1625000D+00 0.5910000D-01 0.6633000D+03 0.1568000D+03
EXPONENTS  0.4998000D+02 0.1842000D+02 0.7240000D+01 0.2922000D+01 0.6633000D+03
EXPONENTS  0.1568000D+03 0.4998000D+02 0.1842000D+02 0.7240000D+01 0.2922000D+01
EXPONENTS  0.6633000D+03 0.1568000D+03 0.4998000D+02 0.1842000D+02 0.7240000D+01
EXPONENTS  0.2922000D+01 0.1568000D+03 0.4998000D+02 0.1842000D+02 0.7240000D+01
EXPONENTS  0.2922000D+01 0.3818000D+00 0.1568000D+03 0.4998000D+02 0.1842000D+02
EXPONENTS  0.7240000D+01 0.2922000D+01 0.3818000D+00 0.1568000D+03 0.4998000D+02
EXPONENTS  0.1842000D+02 0.7240000D+01 0.2922000D+01 0.3818000D+00 0.1022000D+01
EXPONENTS  0.1022000D+01 0.1022000D+01 0.1301000D+00 0.1301000D+00 0.1301000D+00
EXPONENTS  0.4190000D-01 0.4190000D-01 0.4190000D-01 0.1046000D+01 0.1046000D+01
EXPONENTS  0.1046000D+01 0.1046000D+01 0.1046000D+01 0.1046000D+01 0.3440000D+00
EXPONENTS  0.3440000D+00 0.3440000D+00 0.3440000D+00 0.3440000D+00 0.3440000D+00
EXPONENTS  0.1350000D+00 0.1350000D+00 0.1350000D+00 0.1350000D+00 0.1350000D+00
EXPONENTS  0.1350000D+00 0.7060000D+00 0.7060000D+00 0.7060000D+00 0.7060000D+00
EXPONENTS  0.7060000D+00 0.7060000D+00 0.7060000D+00 0.7060000D+00 0.7060000D+00
EXPONENTS  0.7060000D+00 0.3120000D+00 0.3120000D+00 0.3120000D+00 0.3120000D+00
EXPONENTS  0.3120000D+00 0.3120000D+00 0.3120000D+00 0.3120000D+00 0.3120000D+00
EXPONENTS  0.3120000D+00 0.4561000D+06 0.6833000D+05 0.1555000D+05 0.4405000D+04
EXPONENTS  0.1439000D+04 0.5204000D+03 0.2031000D+03 0.8396000D+02 0.3620000D+02
EXPONENTS  0.1583000D+02 0.6334000D+01 0.4405000D+04 0.1439000D+04 0.5204000D+03
EXPONENTS  0.2031000D+03 0.8396000D+02 0.3620000D+02 0.1583000D+02 0.6334000D+01
EXPONENTS  0.2694000D+01 0.1439000D+04 0.2031000D+03 0.8396000D+02 0.3620000D+02
EXPONENTS  0.1583000D+02 0.6334000D+01 0.2694000D+01 0.4313000D+00 0.9768000D+00
EXPONENTS  0.1625000D+00 0.5910000D-01 0.6633000D+03 0.1568000D+03 0.4998000D+02
EXPONENTS  0.1842000D+02 0.7240000D+01 0.2922000D+01 0.6633000D+03 0.1568000D+03
EXPONENTS  0.4998000D+02 0.1842000D+02 0.7240000D+01 0.2922000D+01 0.6633000D+03
EXPONENTS  0.1568000D+03 0.4998000D+02 0.1842000D+02 0.7240000D+01 0.2922000D+01
EXPONENTS  0.1568000D+03 0.4998000D+02 0.1842000D+02 0.7240000D+01 0.2922000D+01
EXPONENTS  0.3818000D+00 0.1568000D+03 0.4998000D+02 0.1842000D+02 0.7240000D+01
EXPONENTS  0.2922000D+01 0.3818000D+00 0.1568000D+03 0.4998000D+02 0.1842000D+02
EXPONENTS  0.7240000D+01 0.2922000D+01 0.3818000D+00 0.1022000D+01 0.1022000D+01
EXPONENTS  0.1022000D+01 0.1301000D+00 0.1301000D+00 0.1301000D+00 0.4190000D-01
EXPONENTS  0.4190000D-01 0.4190000D-01 0.1046000D+01 0.1046000D+01 0.1046000D+01
EXPONENTS  0.1046000D+01 0.1046000D+01 0.1046000D+01 0.3440000D+00 0.3440000D+00
EXPONENTS  0.3440000D+00 0.3440000D+00 0.3440000D+00 0.3440000D+00 0.1350000D+00
EXPONENTS  0.1350000D+00 0.1350000D+00 0.1350000D+00 0.1350000D+00 0.1350000D+00
EXPONENTS  0.7060000D+00 0.7060000D+00 0.7060000D+00 0.7060000D+00 0.7060000D+00
EXPONENTS  0.7060000D+00 0.7060000D+00 0.7060000D+00 0.7060000D+00 0.7060000D+00
EXPONENTS  0.3120000D+00 0.3120000D+00 0.3120000D+00 0.3120000D+00 0.3120000D+00
EXPONENTS  0.3120000D+00 0.3120000D+00 0.3120000D+00 0.3120000D+00 0.3120000D+00
EXPONENTS  0.3741000D+06 0.5605000D+05 0.1276000D+05 0.3615000D+04 0.1183000D+04
EXPONENTS  0.4288000D+03 0.1678000D+03 0.6947000D+02 0.2984000D+02 0.1272000D+02
EXPONENTS  0.5244000D+01 0.3615000D+04 0.1183000D+04 0.4288000D+03 0.1678000D+03
EXPONENTS  0.6947000D+02 0.2984000D+02 0.1272000D+02 0.5244000D+01 0.2219000D+01
EXPONENTS  0.1183000D+04 0.1678000D+03 0.6947000D+02 0.2984000D+02 0.1272000D+02
EXPONENTS  0.5244000D+01 0.2219000D+01 0.3490000D+00 0.7767000D+00 0.1322000D+00
EXPONENTS  0.4970000D-01 0.5744000D+03 0.1358000D+03 0.4319000D+02 0.1587000D+02
EXPONENTS  0.6208000D+01 0.2483000D+01 0.5744000D+03 0.1358000D+03 0.4319000D+02
EXPONENTS  0.1587000D+02 0.6208000D+01 0.2483000D+01 0.5744000D+03 0.1358000D+03
EXPONENTS  0.4319000D+02 0.1587000D+02 0.6208000D+01 0.2483000D+01 0.1358000D+03
EXPONENTS  0.4319000D+02 0.1587000D+02 0.6208000D+01 0.2483000D+01 0.3229000D+00
EXPONENTS  0.1358000D+03 0.4319000D+02 0.1587000D+02 0.6208000D+01 0.2483000D+01
EXPONENTS  0.3229000D+00 0.1358000D+03 0.4319000D+02 0.1587000D+02 0.6208000D+01
EXPONENTS  0.2483000D+01 0.3229000D+00 0.8688000D+00 0.8688000D+00 0.8688000D+00
EXPONENTS  0.1098000D+00 0.1098000D+00 0.1098000D+00 0.3510000D-01 0.3510000D-01
EXPONENTS  0.3510000D-01 0.2690000D+00 0.2690000D+00 0.2690000D+00 0.2690000D+00
EXPONENTS  0.2690000D+00 0.2690000D+00 0.8190000D+00 0.8190000D+00 0.8190000D+00
EXPONENTS  0.8190000D+00 0.8190000D+00 0.8190000D+00 0.1010000D+00 0.1010000D+00
EXPONENTS  0.1010000D+00 0.1010000D+00 0.1010000D+00 0.1010000D+00 0.5570000D+00
EXPONENTS  0.5570000D+00 0.5570000D+00 0.5570000D+00 0.5570000D+00 0.5570000D+00
EXPONENTS  0.5570000D+00 0.5570000D+00 0.5570000D+00 0.5570000D+00 0.2180000D+00
EXPONENTS  0.2180000D+00 0.2180000D+00 0.2180000D+00 0.2180000D+00 0.2180000D+00
EXPONENTS  0.2180000D+00 0.2180000D+00 0.2180000D+00 0.2180000D+00
MO    1     MO 0.0        OCC NO =    2.0000385  ORB. ENERGY =    0.000000
  0.62607822D-05  0.11671359D-04  0.19726187D-04  0.29652139D-04  0.36422342D-04
  0.30739171D-04  0.11558731D-04 -0.21993210D-07 -0.16438562D-06 -0.61434660D-06
 -0.17139313D-05 -0.22961955D-05  0.27113787D-05  0.25326858D-05 -0.16712436D-04
 -0.29272005D-05  0.51458950D-12  0.48246037D-12  0.34354052D-12  0.73273527D-03
  0.68698589D-03  0.48917488D-03  0.31174302D-04  0.29227890D-04  0.20811999D-04
  0.10055385D-12  0.19589199D-03  0.18660537D-04 -0.17872990D-13  0.31233246D-03
 -0.14733836D-04 -0.29871968D-14 -0.10667173D-04 -0.14880216D-05 -0.17316568D-05
  0.27917284D-04 -0.26185627D-04 -0.10941681D-12 -0.10876169D-12  0.25970990D-03
  0.22657013D-05 -0.95262826D-05  0.72605813D-05  0.55898692D-14 -0.79182240D-14
  0.28740998D-03  0.14145679D-06  0.45180788D-05 -0.46595356D-05 -0.13532939D-13
 -0.20272475D-13  0.18718401D-03 -0.12683449D-13  0.24445411D-03  0.15421109D-05
  0.19462108D-13  0.28292967D-04 -0.71159845D-05  0.18588240D-13 -0.76165531D-03
  0.24896518D-05  0.40562531D-13  0.55017725D-14 -0.29599034D-03 -0.70044679D-06
 -0.12047812D-13 -0.22566142D-04  0.31077773D-05 -0.44575052D-14  0.91053718D-03
 -0.10064369D-05 -0.31981170D-13 -0.13507078D-02 -0.25270302D-02 -0.43661477D-02
 -0.70780384D-02 -0.10748680D-01 -0.14939655D-01 -0.17762105D-01 -0.15823100D-01
 -0.78580860D-02 -0.12650854D-02 -0.13347398D-04 -0.66663709D-05 -0.22237897D-03
 -0.77494620D-03 -0.27907068D-02 -0.61517658D-02 -0.86597007D-02  0.41309595D-03
  0.11332722D-01  0.67009677D-02  0.24623990D-06  0.29825665D-05  0.62198280D-05
  0.17837384D-04  0.92627051D-06 -0.76923450D-04 -0.19875542D-03  0.16193656D-03
  0.36774086D-03 -0.21555089D-03 -0.11261712D-03 -0.19478241D-08 -0.25657400D-08
 -0.28304129D-08 -0.23508795D-08 -0.12483823D-08 -0.32208915D-09 -0.47627772D+01
 -0.62736918D+01 -0.69208641D+01 -0.57483195D+01 -0.30525172D+01 -0.78756539D+00
  0.63469389D+01  0.83604033D+01  0.92228335D+01  0.76602854D+01  0.40678241D+01
  0.10495199D+01  0.79372805D-13 -0.76732521D-12 -0.10820086D-11 -0.15475586D-11
  0.78366188D-14  0.14192572D-11  0.24744527D-03 -0.23921416D-02 -0.33731694D-02
 -0.48245245D-02  0.24430713D-04  0.44245440D-02 -0.31607131D-03  0.30555741D-02
  0.43086784D-02  0.61625499D-02 -0.31206285D-04 -0.56516395D-02 -0.12855558D-10
 -0.30626864D-01  0.40962781D-01  0.73919122D-13  0.34012352D-03 -0.49719525D-03
  0.41366788D-14  0.94165770D-05 -0.19136883D-04  0.81578075D-05 -0.79832661D-03
  0.79016880D-03 -0.17754053D-12 -0.12894098D-12  0.70541969D-03  0.41987237D-04
  0.46109407D-03 -0.50308131D-03  0.10610259D-12  0.65635414D-13 -0.31552852D-03
 -0.20661823D-05 -0.94273438D-06  0.30089167D-05 -0.10367860D-13 -0.52884068D-14
  0.31159728D-05 -0.13345754D-14 -0.23964001D-04 -0.96658946D-05  0.29064786D-14
  0.50636456D-04  0.37908590D-04  0.10972476D-14  0.21255546D-04 -0.89109066D-05
 -0.48310240D-14 -0.56546563D-14  0.81233500D-04 -0.41703684D-04  0.14671454D-13
 -0.82852215D-05  0.41809275D-04  0.22925151D-14 -0.23541528D-03  0.83301776D-04
  0.29278419D-13  0.13023100D-02  0.24364830D-02  0.42097023D-02  0.68244220D-02
  0.10363540D-01  0.14404345D-01  0.17125663D-01  0.15256135D-01  0.75765194D-02
  0.12197555D-02  0.12869141D-04  0.64154098D-05  0.21400733D-03  0.74577270D-03
  0.26856483D-02  0.59201774D-02  0.83336990D-02 -0.39754460D-03 -0.10906092D-01
 -0.64487042D-02 -0.22862821D-06 -0.27692459D-05 -0.57749704D-05 -0.16561610D-04
 -0.86002133D-06  0.71421693D-04  0.18453994D-03 -0.15035445D-03 -0.36267659D-03
  0.20025080D-03  0.10361393D-03 -0.28568909D-09 -0.37631936D-09 -0.41513916D-09
 -0.34480558D-09 -0.18310133D-09 -0.47241100D-10 -0.49777888D+01 -0.65569124D+01
 -0.72333007D+01 -0.60078226D+01 -0.31903205D+01 -0.82311937D+00 -0.68112251D+01
 -0.89719768D+01 -0.98974948D+01 -0.82206444D+01 -0.43653903D+01 -0.11262935D+01
  0.73049949D-14 -0.70619990D-13 -0.99581558D-13 -0.14242797D-12  0.72123520D-15
  0.13061988D-12  0.25672457D-03 -0.24818479D-02 -0.34996646D-02 -0.50054462D-02
  0.25346875D-04  0.45904663D-02  0.33907092D-03 -0.32779195D-02 -0.46222087D-02
 -0.66109811D-02  0.33477078D-04  0.60628932D-02 -0.19769355D-11 -0.32017290D-01
 -0.43972442D-01  0.79975364D-14  0.34506790D-03  0.51029520D-03  0.14107356D-14
  0.99121919D-05  0.20048242D-04 -0.76070422D-05  0.82543150D-03 -0.81782446D-03
 -0.17312426D-13 -0.10870393D-13  0.75338391D-03 -0.41676947D-04 -0.47997797D-03
  0.52165491D-03 -0.14007750D-13 -0.98578491D-16 -0.35778079D-03  0.17810774D-05
  0.37177593D-05 -0.54988366D-05  0.59049585D-15  0.72939666D-14  0.46179771D-05
  0.37748903D-14 -0.21831742D-04  0.96238042D-05  0.12576546D-13  0.47967316D-04
 -0.36177958D-04 -0.23901216D-13  0.17527910D-04  0.73065451D-05  0.13612120D-13
 -0.29034266D-14  0.84945333D-04  0.39754334D-04 -0.77282400D-15 -0.91209232D-05
 -0.44618461D-04  0.94831039D-14 -0.24571507D-03 -0.74644541D-04 -0.54446140D-14
 -0.38575295D-05 -0.72120399D-05 -0.12464549D-04 -0.20160894D-04 -0.30472516D-04
 -0.41966963D-04 -0.49054270D-04 -0.42396017D-04 -0.19786442D-04 -0.26806287D-05
  0.19606504D-07 -0.28522402D-07 -0.36665260D-06 -0.13374960D-05 -0.45126783D-05
 -0.99118665D-05 -0.12803428D-04  0.20576198D-05  0.17260984D-04  0.94726056D-05
 -0.70015950D-08 -0.79752520D-07 -0.16559498D-06 -0.45534414D-06  0.59040597D-07
  0.20588588D-05  0.51351209D-05 -0.42507787D-05  0.12911733D-05  0.33083336D-04
  0.85586472D-05  0.41522928D-10  0.54475720D-10  0.59748075D-10  0.49158916D-10
  0.25913786D-10  0.67422796D-11  0.83232902D+00  0.10919683D+01  0.11976529D+01
  0.98539276D+00  0.51944304D+00  0.13514931D+00 -0.20419547D-01 -0.26789284D-01
 -0.29382047D-01 -0.24174663D-01 -0.12743508D-01 -0.33156210D-02  0.15623731D-14
  0.56082367D-13  0.88976081D-13  0.10565637D-12  0.15988593D-13 -0.11636198D-12
  0.22552885D-04  0.80955005D-03  0.12843714D-02  0.15251517D-02  0.23079565D-03
 -0.16796875D-02 -0.22783379D-06 -0.81782378D-05 -0.12974979D-04 -0.15407390D-04
 -0.23315442D-05  0.16968542D-04  0.19759380D-12  0.58576543D-02 -0.13552962D-03
  0.22090257D-13 -0.51924696D-03 -0.34673078D-05  0.96119049D-15 -0.66077290D-05
 -0.14636077D-07 -0.22216250D-06  0.30547420D-05 -0.28325795D-05  0.91301339D-14
 -0.13930012D-13  0.68464709D-03 -0.25572761D-05  0.41425092D-05 -0.15852331D-05
 -0.19479108D-13 -0.78280938D-14 -0.10288996D-03  0.28592414D-06 -0.25720435D-06
 -0.28719797D-07  0.35830398D-14 -0.10828516D-13  0.76134652D-04  0.14622720D-14
  0.62705790D-04  0.13595652D-05  0.17638818D-14  0.24295732D-04  0.36360026D-05
 -0.61506977D-14 -0.21241310D-03 -0.77146980D-05  0.10917621D-13 -0.22377125D-14
  0.26873879D-04  0.45872568D-06  0.80818932D-15  0.18349231D-05 -0.56198937D-06
  0.59049482D-14 -0.82456561D-04 -0.81418767D-06 -0.10171820D-13
MO    2     MO 0.0        OCC NO =    2.0000376  ORB. ENERGY =    0.000000
 -0.52516364D-03 -0.97901083D-03 -0.16546617D-02 -0.24872651D-02 -0.30551597D-02
 -0.25784470D-02 -0.96956341D-03 -0.10992436D-05 -0.82161648D-05 -0.30705684D-04
 -0.85664077D-04 -0.11476625D-03  0.13551754D-03  0.21330313D-04 -0.44452555D-03
 -0.63692531D-04  0.16099974D-12  0.15094749D-12  0.10748361D-12 -0.62827286D-05
 -0.58904574D-05 -0.41943566D-05  0.81521549D-03  0.76431634D-03  0.54423877D-03
  0.52757510D-13 -0.78482702D-05  0.57213884D-03  0.13495202D-13 -0.78708940D-05
 -0.51354153D-03 -0.32157591D-14  0.39105548D-06 -0.46057371D-04 -0.64923483D-04
  0.71227638D-03 -0.64735290D-03  0.17912862D-13 -0.14828476D-12 -0.11633951D-05
  0.64148512D-04 -0.10928687D-03  0.45138355D-04 -0.12113875D-14  0.36061567D-13
 -0.11656514D-04  0.47830336D-05  0.16266581D-03 -0.16744885D-03  0.37108793D-14
 -0.14479842D-13 -0.40113592D-05  0.17102765D-14 -0.62146869D-05  0.10092318D-03
  0.11746044D-13 -0.14316568D-05 -0.19085796D-03 -0.16876874D-13  0.20075717D-04
 -0.11191158D-03 -0.19144520D-14 -0.21260586D-14  0.85990614D-05 -0.75617424D-04
 -0.12497068D-13  0.57089166D-06  0.98554215D-04  0.18875244D-13 -0.26368076D-04
  0.12829806D-03  0.39134148D-14 -0.78633197D-03 -0.14711432D-02 -0.25418092D-02
 -0.41205713D-02 -0.62574829D-02 -0.86973125D-02 -0.10340438D-01 -0.92116216D-02
 -0.45746861D-02 -0.73648576D-03 -0.77703598D-05 -0.40865584D-05 -0.13632075D-03
 -0.47505052D-03 -0.17107338D-02 -0.37710998D-02 -0.53084914D-02  0.25323234D-03
  0.69470829D-02  0.41077666D-02  0.28778116D-06  0.34857327D-05  0.72691280D-05
  0.20846594D-04  0.10825346D-05 -0.89900621D-04 -0.23228594D-03  0.18925565D-03
  0.13439500D-03 -0.34863957D-03 -0.16976518D-03 -0.71959635D-09 -0.94787672D-09
 -0.10456564D-08 -0.86849952D-09 -0.46119734D-09 -0.11899133D-09  0.43843374D+01
  0.57751980D+01  0.63709474D+01  0.52915706D+01  0.28099708D+01  0.72498717D+00
 -0.72245512D+01 -0.95164239D+01 -0.10498105D+02 -0.87194984D+01 -0.46302956D+01
 -0.11946405D+01  0.29057178D-13 -0.28090610D-12 -0.39610692D-12 -0.56653768D-12
  0.28688671D-14  0.51956849D-12 -0.19179198D-03  0.18541214D-02  0.26145048D-02
  0.37394335D-02 -0.18935965D-04 -0.34294132D-02  0.33956592D-03 -0.32827049D-02
 -0.46289565D-02 -0.66206324D-02  0.33525950D-04  0.60717443D-02 -0.47487530D-11
  0.28316821D-01 -0.46737749D-01  0.25215868D-13 -0.15931791D-03  0.14922494D-03
  0.26075668D-14 -0.11223346D-04  0.13800275D-04  0.13427956D-04  0.49936993D-03
 -0.51279789D-03 -0.50575772D-13 -0.60064373D-13 -0.45279829D-03  0.24407309D-04
 -0.30020383D-03  0.27579652D-03  0.31216902D-13  0.20162192D-13  0.41384881D-03
 -0.23673127D-05  0.47160708D-04 -0.44793395D-04 -0.63789701D-14 -0.11807313D-15
 -0.26722578D-04 -0.55060268D-15 -0.29642390D-04  0.17211196D-05  0.10754273D-13
  0.57926960D-04  0.28471439D-04 -0.91024654D-14  0.31000208D-04 -0.33634798D-04
 -0.49054323D-14 -0.17149291D-14 -0.49426589D-04 -0.10171218D-04 -0.51471237D-15
  0.18948260D-04 -0.41887997D-04  0.56594998D-14  0.12933151D-03  0.72401651D-04
  0.11257960D-13 -0.91211374D-03 -0.17064675D-02 -0.29483973D-02 -0.47796984D-02
 -0.72584307D-02 -0.10088536D-01 -0.11994496D-01 -0.10685114D-01 -0.53064535D-02
 -0.85429412D-03 -0.90133076D-05 -0.46923445D-05 -0.15652876D-03 -0.54547138D-03
 -0.19643308D-02 -0.43301227D-02 -0.60954153D-02  0.29077117D-03  0.79769094D-02
  0.47166966D-02  0.29473687D-06  0.35699833D-05  0.74448238D-05  0.21350458D-04
  0.11086996D-05 -0.92073531D-04 -0.23790032D-03  0.19382998D-03  0.16975260D-03
 -0.36151439D-03 -0.17646686D-03 -0.99036341D-09 -0.13045403D-08 -0.14391121D-08
 -0.11952953D-08 -0.63473498D-09 -0.16376494D-09 -0.40333774D+01 -0.53129015D+01
 -0.58609620D+01 -0.48679879D+01 -0.25850366D+01 -0.66695296D+00 -0.68493840D+01
 -0.90222410D+01 -0.99529441D+01 -0.82666994D+01 -0.43898468D+01 -0.11326034D+01
  0.40321174D-13 -0.38979917D-12 -0.54965752D-12 -0.78615566D-12  0.39809816D-14
  0.72097888D-12  0.17426774D-03 -0.16847084D-02 -0.23756147D-02 -0.33977575D-02
  0.17205766D-04  0.31160641D-02  0.32112526D-03 -0.31044324D-02 -0.43775737D-02
 -0.62610884D-02  0.31705270D-04  0.57420086D-02 -0.65415073D-11 -0.26056333D-01
 -0.44320753D-01  0.29179255D-13  0.13528236D-03  0.11932746D-03  0.28983059D-14
  0.10532993D-04  0.12638689D-04  0.14806197D-04  0.44926942D-03 -0.46407561D-03
  0.84974038D-13 -0.81333927D-13  0.42032855D-03  0.26590058D-04 -0.27063060D-03
  0.24404054D-03 -0.46900521D-13  0.32377729D-13 -0.40243658D-03 -0.25643031D-05
  0.46914054D-04 -0.44349751D-04  0.94322576D-14 -0.36190972D-14  0.27022952D-04
 -0.16857032D-14  0.31235573D-04  0.89070655D-06  0.11435735D-13 -0.61415113D-04
  0.30627153D-04 -0.63786252D-14 -0.32291607D-04 -0.33299272D-04  0.12449902D-14
 -0.18750813D-14  0.44261785D-04 -0.13285226D-04  0.12968383D-14 -0.18126372D-04
 -0.39805521D-04  0.43284056D-14 -0.11465898D-03  0.79661199D-04 -0.13442486D-13
  0.53692448D-03  0.10038344D-02  0.17349242D-02  0.28061684D-02  0.42414296D-02
  0.58413267D-02  0.68277996D-02  0.59010461D-02  0.27540490D-02  0.37311320D-03
 -0.27290037D-05  0.67541205D-05  0.86823539D-04  0.31671979D-03  0.10686047D-02
  0.23471355D-02  0.30318588D-02 -0.48724551D-03 -0.40874107D-02 -0.22431183D-02
  0.24460572D-06  0.27862113D-05  0.57851790D-05  0.15907773D-04 -0.20626254D-05
 -0.71927704D-04 -0.17939912D-03  0.14850399D-03 -0.30859443D-04  0.11775176D-02
  0.26000849D-03  0.62318861D-09  0.81758801D-09  0.89671711D-09  0.73779182D-09
  0.38892190D-09  0.10119016D-09 -0.10422168D-01 -0.13673291D-01 -0.14996641D-01
 -0.12338785D-01 -0.65043057D-02 -0.16922980D-02 -0.57078885D+00 -0.74884251D+00
 -0.82131817D+00 -0.67575585D+00 -0.35622006D+00 -0.92681760D-01  0.46788357D-14
  0.16794976D-12  0.26645651D-12  0.31640893D-12  0.47881011D-13 -0.34846902D-12
 -0.52680136D-06 -0.18909867D-04 -0.30000979D-04 -0.35625242D-04 -0.53910381D-05
  0.39234965D-04 -0.44640963D-05 -0.16024155D-03 -0.25422724D-03 -0.30188705D-03
 -0.45683468D-04  0.33247572D-03  0.46759587D-11 -0.80797018D-04 -0.39161891D-02
  0.62123604D-14  0.12498335D-04 -0.11931193D-03 -0.14222479D-16  0.10814242D-06
 -0.13792845D-06  0.20316814D-04  0.44445866D-04 -0.64762680D-04 -0.36678958D-15
  0.44272879D-13 -0.20899409D-04 -0.91643379D-04  0.91020164D-04  0.62321511D-06
  0.16937346D-14 -0.37236721D-13 -0.36293854D-05  0.10338656D-04 -0.91541830D-05
 -0.11844734D-05 -0.10162920D-14 -0.57050026D-14 -0.20677123D-05  0.80297736D-14
 -0.26440363D-05  0.32828031D-04 -0.24494487D-14 -0.11668102D-05  0.44296494D-04
 -0.21639872D-13  0.90989191D-05 -0.14278059D-03 -0.34721647D-14 -0.21518880D-15
 -0.70993314D-06  0.95995149D-05  0.36650171D-14 -0.15663757D-06 -0.19912910D-04
 -0.30194507D-14  0.22864370D-05 -0.88856345D-05  0.20996081D-14
MO    3     MO 0.0        OCC NO =    2.0000330  ORB. ENERGY =    0.000000
 -0.12453177D-11 -0.23215231D-11 -0.39236904D-11 -0.58980385D-11 -0.72446839D-11
 -0.61142576D-11 -0.22991205D-11 -0.53147008D-15 -0.39724096D-14 -0.14845802D-13
 -0.41417475D-13 -0.55487998D-13  0.65520979D-13 -0.10224974D-12  0.21487725D-13
  0.11921376D-13  0.18270691D-04  0.17129934D-04  0.12197533D-04  0.24243282D-12
  0.22729617D-12  0.16184842D-12  0.56672806D-12  0.53134358D-12  0.37834828D-12
  0.11116437D-05  0.35494793D-12  0.45907270D-13  0.10553601D-05 -0.14546913D-12
 -0.75017746D-13  0.48718630D-07 -0.10977952D-13  0.32878938D-15  0.13940223D-13
 -0.16422779D-13  0.24825563D-14  0.11669988D-02 -0.13578274D-05  0.44633200D-12
 -0.15663993D-13  0.11697206D-13  0.39667871D-14 -0.10076700D-03  0.31007761D-05
 -0.20128689D-12 -0.47833261D-15  0.37964889D-14 -0.33181563D-14  0.11604624D-03
  0.80330193D-06  0.63159175D-13 -0.23420582D-06 -0.84874203D-14  0.20988977D-13
  0.12239231D-05 -0.88616729D-13 -0.53874298D-13 -0.52130569D-06  0.11407899D-12
 -0.90926325D-14 -0.46112887D-03  0.13823596D-07  0.52044811D-14  0.88574599D-14
 -0.92253016D-06  0.22010656D-13  0.40534928D-14  0.88105937D-06 -0.37624099D-13
 -0.30625873D-13  0.34615335D-03 -0.78244345D-11 -0.14638682D-10 -0.25292396D-10
 -0.41001945D-10 -0.62265388D-10 -0.86543031D-10 -0.10289303D-09 -0.91660689D-10
 -0.45520636D-10 -0.73284373D-11 -0.77319343D-13  0.13816325D-13  0.46088948D-12
  0.16061076D-11  0.57838534D-11  0.12749785D-10  0.17947582D-10 -0.85615817D-12
 -0.23487528D-10 -0.13888028D-10  0.14538258D-15  0.17609381D-14  0.36722507D-14
  0.10531376D-13  0.54687967D-15 -0.45416399D-13 -0.11734725D-12  0.95609018D-13
 -0.10494506D-11 -0.17737889D-12 -0.12175650D-12  0.82307726D+01  0.10841853D+02
  0.11960261D+02  0.99339332D+01  0.52751942D+01  0.13610277D+01 -0.13766820D-08
 -0.18134122D-08 -0.20004776D-08 -0.16615532D-08 -0.88233088D-09 -0.22764598D-09
  0.34847356D-09  0.45902120D-09  0.50637223D-09  0.42058179D-09  0.22334060D-09
  0.57623042D-10 -0.35924852D-03  0.34729836D-02  0.48972693D-02  0.70043907D-02
 -0.35469248D-04 -0.64236869D-02  0.58274427D-13 -0.56335966D-12 -0.79439593D-12
 -0.11361963D-11  0.57535383D-14  0.10419992D-11 -0.17837534D-13  0.17244181D-12
  0.24316095D-12  0.34778448D-12 -0.17611316D-14 -0.31895117D-12  0.53888600D-01
 -0.94710220D-11  0.17918278D-11 -0.35634573D-03  0.63419348D-14 -0.51726206D-13
 -0.15076740D-04 -0.16642720D-14 -0.39668691D-14  0.10504952D-12 -0.14900455D-12
  0.43955028D-13  0.98606132D-03  0.56980994D-03 -0.13649122D-12 -0.28308718D-13
  0.65796659D-13 -0.37487942D-13 -0.47135045D-03 -0.32854806D-03  0.10301838D-12
 -0.15914882D-14 -0.30309792D-14  0.46224674D-14  0.38715360D-04  0.51954026D-04
  0.39019957D-15  0.20786210D-04 -0.14132025D-13 -0.79862722D-14  0.44882264D-04
  0.41351878D-13  0.24157481D-13 -0.10724089D-03  0.10441987D-14 -0.19866456D-15
 -0.12977066D-04  0.17006582D-04  0.81588399D-14 -0.98897570D-14 -0.83857089D-04
 -0.30199545D-13 -0.14367007D-13  0.32837343D-04  0.57230254D-14  0.44036278D-13
 -0.13764388D-03 -0.25197393D-11 -0.47141634D-11 -0.81450288D-11 -0.13204049D-10
 -0.20051615D-10 -0.27869858D-10 -0.33135126D-10 -0.29517922D-10 -0.14659224D-10
 -0.23600111D-11 -0.24899511D-13 -0.66446039D-13 -0.22165286D-11 -0.77241585D-11
 -0.27815945D-10 -0.61316790D-10 -0.86314251D-10  0.41174711D-11  0.11295719D-09
  0.66790877D-10 -0.11580867D-14 -0.14027258D-13 -0.29252368D-13 -0.83890700D-13
 -0.43563272D-14  0.36177738D-12  0.93476328D-12 -0.76160112D-12  0.45087982D-11
 -0.39344750D-13  0.11895632D-12 -0.81964219D+01 -0.10796605D+02 -0.11910345D+02
 -0.98924745D+01 -0.52531785D+01 -0.13553475D+01 -0.15675398D-08 -0.20648166D-08
 -0.22778159D-08 -0.18919044D-08 -0.10046538D-08 -0.25920592D-09 -0.11094119D-09
 -0.14613550D-09 -0.16121033D-09 -0.13389780D-09 -0.71103447D-10 -0.18345061D-10
  0.35809233D-03 -0.34618062D-02 -0.48815081D-02 -0.69818480D-02  0.35355095D-04
  0.64030131D-02  0.67818988D-13 -0.65563034D-12 -0.92450721D-12 -0.13222899D-11
  0.66958898D-14  0.12126645D-11  0.27567136D-14 -0.26650133D-13 -0.37579469D-13
 -0.53748582D-13  0.27217525D-15  0.49292519D-13 -0.53679977D-01 -0.11093453D-10
 -0.12264755D-12  0.35383883D-03  0.26407511D-13  0.33844557D-13  0.14930517D-04
 -0.19629422D-14  0.37308791D-14 -0.13196090D-12  0.15655080D-12 -0.24589905D-13
  0.98774331D-03 -0.56104884D-03 -0.27468341D-12  0.45917525D-13 -0.98237749D-13
  0.52320224D-13 -0.47560152D-03  0.32768410D-03  0.16929671D-12 -0.10190866D-14
 -0.38325376D-15  0.14023404D-14  0.38723450D-04 -0.51764049D-04 -0.28651092D-14
 -0.21112557D-04 -0.52846794D-14  0.10360190D-13 -0.44031858D-04  0.19652325D-13
 -0.22280762D-13  0.10736953D-03 -0.37982871D-14 -0.87998091D-14 -0.16696716D-04
 -0.17051847D-04  0.89160654D-14  0.16565459D-13  0.84850881D-04 -0.27421196D-13
  0.12739556D-13 -0.33695341D-04  0.67299979D-15 -0.62435932D-13 -0.13695223D-03
  0.13786731D-10  0.25775682D-10  0.44548039D-10  0.72054618D-10  0.10890814D-09
  0.14998906D-09  0.17531895D-09  0.15152249D-09  0.70716335D-10  0.95805117D-11
 -0.70073243D-13 -0.39707794D-13 -0.51043969D-12 -0.18620106D-11 -0.62823777D-11
 -0.13798920D-10 -0.17824441D-10  0.28645394D-11  0.24030081D-10  0.13187398D-10
 -0.65486217D-15 -0.74592872D-14 -0.15488169D-13 -0.42588532D-13  0.55220923D-14
  0.19256595D-12  0.48029005D-12 -0.39757715D-12  0.60144578D-12  0.89172221D-13
 -0.25974944D-13  0.61493635D-03  0.80676152D-03  0.88484279D-03  0.72802199D-03
  0.38377180D-03  0.99850204D-04 -0.29705956D-08 -0.38972525D-08 -0.42744426D-08
 -0.35168826D-08 -0.18539005D-08 -0.48235005D-09  0.10050707D-08  0.13185957D-08
  0.14462141D-08  0.11899014D-08  0.62724834D-09  0.16319822D-09  0.35241754D-07
  0.12650250D-05  0.20069938D-05  0.23832436D-05  0.36064758D-06 -0.26247255D-05
 -0.26764057D-13 -0.96071271D-12 -0.15241948D-11 -0.18099346D-11 -0.27389081D-12