 Entering Gaussian System, Link 0=/home/bruns/programas/chemistry/gaussian/g09/g09
 Input=GAUSSIAN.com
 Output=GAUSSIAN.log
 Initial command:
 /home/bruns/programas/chemistry/gaussian/g09/l1.exe /home/bruns/programas/chemistry/gaussian/work/Gau-67492.inp -scrdir=/home/bruns/programas/chemistry/gaussian/work/
 Entering Link 1 = /home/bruns/programas/chemistry/gaussian/g09/l1.exe PID=     67494.
  
 Copyright (c) 1988,1990,1992,1993,1995,1998,2003,2009,2010,
            Gaussian, Inc.  All Rights Reserved.
  
 This is part of the Gaussian(R) 09 program.  It is based on
 the Gaussian(R) 03 system (copyright 2003, Gaussian, Inc.),
 the Gaussian(R) 98 system (copyright 1998, Gaussian, Inc.),
 the Gaussian(R) 94 system (copyright 1995, Gaussian, Inc.),
 the Gaussian 92(TM) system (copyright 1992, Gaussian, Inc.),
 the Gaussian 90(TM) system (copyright 1990, Gaussian, Inc.),
 the Gaussian 88(TM) system (copyright 1988, Gaussian, Inc.),
 the Gaussian 86(TM) system (copyright 1986, Carnegie Mellon
 University), and the Gaussian 82(TM) system (copyright 1983,
 Carnegie Mellon University). Gaussian is a federally registered
 trademark of Gaussian, Inc.
  
 This software contains proprietary and confidential information,
 including trade secrets, belonging to Gaussian, Inc.
  
 This software is provided under written license and may be
 used, copied, transmitted, or stored only in accord with that
 written license.
  
 The following legend is applicable only to US Government
 contracts under FAR:
  
                    RESTRICTED RIGHTS LEGEND
  
 Use, reproduction and disclosure by the US Government is
 subject to restrictions as set forth in subparagraphs (a)
 and (c) of the Commercial Computer Software - Restricted
 Rights clause in FAR 52.227-19.
  
 Gaussian, Inc.
 340 Quinnipiac St., Bldg. 40, Wallingford CT 06492
  
  
 ---------------------------------------------------------------
 Warning -- This program may not be used in any manner that
 competes with the business of Gaussian, Inc. or will provide
 assistance to any competitor of Gaussian, Inc.  The licensee
 of this program is prohibited from giving any competitor of
 Gaussian, Inc. access to this program.  By using this program,
 the user acknowledges that Gaussian, Inc. is engaged in the
 business of creating and licensing software in the field of
 computational chemistry and represents and warrants to the
 licensee that it is not a competitor of Gaussian, Inc. and that
 it will not use this program in any manner prohibited above.
 ---------------------------------------------------------------
  

 Cite this work as:
 Gaussian 09, Revision B.01,
 M. J. Frisch, G. W. Trucks, H. B. Schlegel, G. E. Scuseria, 
 M. A. Robb, J. R. Cheeseman, G. Scalmani, V. Barone, B. Mennucci, 
 G. A. Petersson, H. Nakatsuji, M. Caricato, X. Li, H. P. Hratchian, 
 A. F. Izmaylov, J. Bloino, G. Zheng, J. L. Sonnenberg, M. Hada, 
 M. Ehara, K. Toyota, R. Fukuda, J. Hasegawa, M. Ishida, T. Nakajima, 
 Y. Honda, O. Kitao, H. Nakai, T. Vreven, J. A. Montgomery, Jr., 
 J. E. Peralta, F. Ogliaro, M. Bearpark, J. J. Heyd, E. Brothers, 
 K. N. Kudin, V. N. Staroverov, T. Keith, R. Kobayashi, J. Normand, 
 K. Raghavachari, A. Rendell, J. C. Burant, S. S. Iyengar, J. Tomasi, 
 M. Cossi, N. Rega, J. M. Millam, M. Klene, J. E. Knox, J. B. Cross, 
 V. Bakken, C. Adamo, J. Jaramillo, R. Gomperts, R. E. Stratmann, 
 O. Yazyev, A. J. Austin, R. Cammi, C. Pomelli, J. W. Ochterski, 
 R. L. Martin, K. Morokuma, V. G. Zakrzewski, G. A. Voth, 
 P. Salvador, J. J. Dannenberg, S. Dapprich, A. D. Daniels, 
 O. Farkas, J. B. Foresman, J. V. Ortiz, J. Cioslowski, 
 and D. J. Fox, Gaussian, Inc., Wallingford CT, 2010.
 
 ******************************************
 Gaussian 09:  EM64L-G09RevB.01 12-Aug-2010
                28-Nov-2021 
 ******************************************
 %nproc=8
 Will use up to    8 processors via shared memory.
 %mem=8GB
 -----------------------------------------------------
 # qcisd/aug-cc-pvtz nosymm density=current output=wfn
 -----------------------------------------------------
 1/30=1,38=1/1;
 2/12=2,15=1,17=6,18=5,40=1/2;
 3/5=16,6=1,7=10,11=9,16=1,25=1,30=1,71=1/1,2,3;
 4//1;
 5/5=2,38=5/2;
 8/6=4,9=120000,10=1/1,4;
 9/5=8,15=1/13;
 11/28=-7,31=1,32=3,42=3/11;
 10/5=6,13=10,31=1/2;
 6/7=2,8=2,9=2,10=2,22=-1,31=1/1;
 99/5=1,6=1100,9=1/99;
 ------------------
 cl2cs-wavefunction
 ------------------
 Symbolic Z-matrix:
 Charge =  0 Multiplicity = 1
 C                     0.        0.       -0.52291 
 Cl                    0.       -1.43074  -1.5009 
 Cl                    0.        1.43074  -1.5009 
 S                     0.        0.        1.07181 
 
                          Input orientation:                          
 ---------------------------------------------------------------------
 Center     Atomic      Atomic             Coordinates (Angstroms)
 Number     Number       Type             X           Y           Z
 ---------------------------------------------------------------------
      1          6           0        0.000000    0.000000   -0.522914
      2         17           0        0.000000   -1.430735   -1.500900
      3         17           0        0.000000    1.430735   -1.500900
      4         16           0        0.000000    0.000000    1.071815
 ---------------------------------------------------------------------
                    Distance matrix (angstroms):
                    1          2          3          4
     1  C    0.000000
     2  Cl   1.733049   0.000000
     3  Cl   1.733049   2.861470   0.000000
     4  S    1.594729   2.943784   2.943784   0.000000
 Symmetry turned off by external request.
 Stoichiometry    CCl2S
 Framework group  C2V[C2(CS),SGV(Cl2)]
 Deg. of freedom     3
 Full point group                 C2V     NOp   4
 Rotational constants (GHZ):      3.5301033      3.4724133      1.7505103
 Standard basis: Aug-CC-pVTZ (5D, 7F)
 Integral buffers will be    131072 words long.
 Raffenetti 1 integral format.
 Two-electron integral symmetry is turned off.
   196 basis functions,   414 primitive gaussians,   232 cartesian basis functions
    28 alpha electrons       28 beta electrons
       nuclear repulsion energy       245.3811238774 Hartrees.
 NAtoms=    4 NActive=    4 NUniq=    4 SFac= 1.00D+00 NAtFMM=   50 NAOKFM=F Big=F
 One-electron integrals computed using PRISM.
 NBasis=   196 RedAO= T  NBF=   196
 NBsUse=   196 1.00D-06 NBFU=   196
 Harris functional with IExCor=  205 diagonalized for initial guess.
 ExpMin= 3.51D-02 ExpMax= 4.56D+05 ExpMxC= 1.44D+03 IAcc=3 IRadAn=         0 AccDes= 0.00D+00
 HarFok:  IExCor=  205 AccDes= 0.00D+00 IRadAn=         0 IDoV= 1
 ScaDFX=  1.000000  1.000000  1.000000  1.000000
 FoFCou: FMM=F IPFlag=           0 FMFlag=      100000 FMFlg1=           0
         NFxFlg=           0 DoJE=T BraDBF=F KetDBF=T FulRan=T
         Omega=  0.000000  0.000000  1.000000  0.000000  0.000000 ICntrl=     500 IOpCl=  0
         NMat0=    1 NMatS0=    1 NMatT0=    0 NMatD0=    1 NMtDS0=    0 NMtDT0=    0
         I1Cent=           4 NGrid=           0.
 Symmetry not used in FoFCou.
 Requested convergence on RMS density matrix=1.00D-08 within 128 cycles.
 Requested convergence on MAX density matrix=1.00D-06.
 Requested convergence on             energy=1.00D-06.
 No special actions if energy rises.
 Keep R1 ints in memory in canonical form, NReq=371777346.
 SCF Done:  E(RHF) =  -1354.42627534     A.U. after   12 cycles
             Convg  =    0.9504D-08             -V/T =  2.0001
 ExpMin= 3.51D-02 ExpMax= 4.56D+05 ExpMxC= 1.44D+03 IAcc=3 IRadAn=         5 AccDes= 0.00D+00
 HarFok:  IExCor=  205 AccDes= 0.00D+00 IRadAn=         5 IDoV=-2
 ScaDFX=  1.000000  1.000000  1.000000  1.000000
 Range of M.O.s used for correlation:    17   196
 NBasis=   196 NAE=    28 NBE=    28 NFC=    16 NFV=     0
 NROrb=    180 NOA=    12 NOB=    12 NVA=   168 NVB=   168

 **** Warning!!: The largest alpha MO coefficient is  0.30948481D+02

 Semi-Direct transformation.
 ModeAB=           2 MOrb=            12 LenV=    1072679707
 LASXX=     33405819 LTotXX=    33405819 LenRXX=    33405819
 LTotAB=    33954012 MaxLAS=    58380480 LenRXY=    58380480
 NonZer=    66811638 LenScr=   100987392 LnRSAI=           0
 LnScr1=           0 LExtra=           0 Total=    192773691
 MaxDsk=          -1 SrtSym=           F ITran=            4
 JobTyp=0 Pass  1:  I=   1 to  12.
 (rs|ai) integrals will be sorted in core.
 Spin components of T(2) and E(2):
     alpha-alpha T2 =       0.3943844542D-01 E2=     -0.9363753022D-01
     alpha-beta  T2 =       0.2066724146D+00 E2=     -0.5367410030D+00
     beta-beta   T2 =       0.3943844542D-01 E2=     -0.9363753022D-01
 ANorm=    0.1133820667D+01
 E2 =    -0.7240160634D+00 EUMP2 =    -0.13551502913999D+04
 R2 and R3 integrals will be kept in memory, NReq=   736864364.
 Iterations=  50 Convergence= 0.100D-07
 Iteration Nr.   1
 **********************
 DD1Dir will call FoFMem   1 times, MxPair=       156
 NAB=    78 NAA=     0 NBB=     0.
 MP4(R+Q)=  0.24801618D-01
 E3=       -0.32729850D-01        EUMP3=      -0.13551830212D+04
 E4(DQ)=    0.31233330D-02        UMP4(DQ)=   -0.13551798979D+04
 E4(SDQ)=  -0.35985066D-02        UMP4(SDQ)=  -0.13551866198D+04
 DE(Corr)= -0.73194429     E(Corr)=     -1355.1582196    
 NORM(A)=   0.11378004D+01
 Iteration Nr.   2
 **********************
 DD1Dir will call FoFMem   1 times, MxPair=       156
 NAB=    78 NAA=     0 NBB=     0.
 DE(Corr)= -0.75607584     E(CORR)=     -1355.1823512     Delta=-2.41D-02
 NORM(A)=   0.11487104D+01
 Iteration Nr.   3
 **********************
 DD1Dir will call FoFMem   1 times, MxPair=       156
 NAB=    78 NAA=     0 NBB=     0.
 DE(Corr)= -0.75531914     E(CORR)=     -1355.1815945     Delta= 7.57D-04
 NORM(A)=   0.11513856D+01
 Iteration Nr.   4
 **********************
 DD1Dir will call FoFMem   1 times, MxPair=       156
 NAB=    78 NAA=     0 NBB=     0.
 DE(Corr)= -0.75754258     E(CORR)=     -1355.1838179     Delta=-2.22D-03
 NORM(A)=   0.11524260D+01
 Iteration Nr.   5
 **********************
 DD1Dir will call FoFMem   1 times, MxPair=       156
 NAB=    78 NAA=     0 NBB=     0.
 DE(Corr)= -0.75781212     E(CORR)=     -1355.1840875     Delta=-2.70D-04
 NORM(A)=   0.11529407D+01
 Iteration Nr.   6
 **********************
 DD1Dir will call FoFMem   1 times, MxPair=       156
 NAB=    78 NAA=     0 NBB=     0.
 DE(Corr)= -0.75786317     E(CORR)=     -1355.1841385     Delta=-5.10D-05
 NORM(A)=   0.11529995D+01
 Iteration Nr.   7
 **********************
 DD1Dir will call FoFMem   1 times, MxPair=       156
 NAB=    78 NAA=     0 NBB=     0.
 DE(Corr)= -0.75787006     E(CORR)=     -1355.1841454     Delta=-6.90D-06
 NORM(A)=   0.11530054D+01
 Iteration Nr.   8
 **********************
 DD1Dir will call FoFMem   1 times, MxPair=       156
 NAB=    78 NAA=     0 NBB=     0.
 DE(Corr)= -0.75786796     E(CORR)=     -1355.1841433     Delta= 2.11D-06
 NORM(A)=   0.11530115D+01
 Iteration Nr.   9
 **********************
 DD1Dir will call FoFMem   1 times, MxPair=       156
 NAB=    78 NAA=     0 NBB=     0.
 DE(Corr)= -0.75786833     E(CORR)=     -1355.1841437     Delta=-3.69D-07
 NORM(A)=   0.11530106D+01
 Iteration Nr.  10
 **********************
 DD1Dir will call FoFMem   1 times, MxPair=       156
 NAB=    78 NAA=     0 NBB=     0.
 DE(Corr)= -0.75786916     E(CORR)=     -1355.1841445     Delta=-8.37D-07
 NORM(A)=   0.11530125D+01
 Iteration Nr.  11
 **********************
 DD1Dir will call FoFMem   1 times, MxPair=       156
 NAB=    78 NAA=     0 NBB=     0.
 DE(Corr)= -0.75786992     E(CORR)=     -1355.1841453     Delta=-7.56D-07
 NORM(A)=   0.11530135D+01
 Iteration Nr.  12
 **********************
 DD1Dir will call FoFMem   1 times, MxPair=       156
 NAB=    78 NAA=     0 NBB=     0.
 DE(Corr)= -0.75787010     E(CORR)=     -1355.1841454     Delta=-1.84D-07
 NORM(A)=   0.11530142D+01
 Iteration Nr.  13
 **********************
 DD1Dir will call FoFMem   1 times, MxPair=       156
 NAB=    78 NAA=     0 NBB=     0.
 DE(Corr)= -0.75787040     E(CORR)=     -1355.1841457     Delta=-3.02D-07
 NORM(A)=   0.11530147D+01
 Iteration Nr.  14
 **********************
 DD1Dir will call FoFMem   1 times, MxPair=       156
 NAB=    78 NAA=     0 NBB=     0.
 DE(Corr)= -0.75787043     E(CORR)=     -1355.1841458     Delta=-2.17D-08
 NORM(A)=   0.11530149D+01
 Iteration Nr.  15
 **********************
 DD1Dir will call FoFMem   1 times, MxPair=       156
 NAB=    78 NAA=     0 NBB=     0.
 DE(Corr)= -0.75787048     E(CORR)=     -1355.1841458     Delta=-5.45D-08
 NORM(A)=   0.11530150D+01
 Iteration Nr.  16
 **********************
 DD1Dir will call FoFMem   1 times, MxPair=       156
 NAB=    78 NAA=     0 NBB=     0.
 DE(Corr)= -0.75787049     E(CORR)=     -1355.1841458     Delta=-1.14D-08
 NORM(A)=   0.11530150D+01
 Iteration Nr.  17
 **********************
 DD1Dir will call FoFMem   1 times, MxPair=       156
 NAB=    78 NAA=     0 NBB=     0.
 DE(Corr)= -0.75787049     E(CORR)=     -1355.1841458     Delta= 2.80D-09
 NORM(A)=   0.11530150D+01
 Iteration Nr.  18
 **********************
 DD1Dir will call FoFMem   1 times, MxPair=       156
 NAB=    78 NAA=     0 NBB=     0.
 DE(Corr)= -0.75787049     E(CORR)=     -1355.1841458     Delta=-4.60D-09
 NORM(A)=   0.11530150D+01
 Iteration Nr.  19
 **********************
 DD1Dir will call FoFMem   1 times, MxPair=       156
 NAB=    78 NAA=     0 NBB=     0.
 DE(Corr)= -0.75787049     E(CORR)=     -1355.1841458     Delta= 2.48D-09
 NORM(A)=   0.11530150D+01
 Largest amplitude= 8.71D-02

 Z-AMPLITUDE ITERATIONS

 Iteration Nr.   1
 **********************
 DD1Dir will call FoFMem   1 times, MxPair=       156
 NAB=    78 NAA=     0 NBB=     0.
 DE(Z)  -0.72617425D+00          E(Z)=    -0.13551524496D+04
 NORM(A)=   0.11530224D+01
 Iteration Nr.   2
 **********************
 DD1Dir will call FoFMem   1 times, MxPair=       156
 NAB=    78 NAA=     0 NBB=     0.
 DE(Z)  -0.72617446D+00          E(Z)=    -0.13551524498D+04
 NORM(A)=   0.11530159D+01
 Iteration Nr.   3
 **********************
 DD1Dir will call FoFMem   1 times, MxPair=       156
 NAB=    78 NAA=     0 NBB=     0.
 DE(Z)  -0.72617427D+00          E(Z)=    -0.13551524496D+04
 NORM(A)=   0.11530166D+01
 Iteration Nr.   4
 **********************
 DD1Dir will call FoFMem   1 times, MxPair=       156
 NAB=    78 NAA=     0 NBB=     0.
 DE(Z)  -0.72617429D+00          E(Z)=    -0.13551524496D+04
 NORM(A)=   0.11530149D+01
 Iteration Nr.   5
 **********************
 DD1Dir will call FoFMem   1 times, MxPair=       156
 NAB=    78 NAA=     0 NBB=     0.
 DE(Z)  -0.72617425D+00          E(Z)=    -0.13551524496D+04
 NORM(A)=   0.11399088D+01
 Iteration Nr.   6
 **********************
 DD1Dir will call FoFMem   1 times, MxPair=       156
 NAB=    78 NAA=     0 NBB=     0.
 DE(Z)  -0.72578001D+00          E(Z)=    -0.13551520553D+04
 NORM(A)=   0.11399343D+01
 Iteration Nr.   7
 **********************
 DD1Dir will call FoFMem   1 times, MxPair=       156
 NAB=    78 NAA=     0 NBB=     0.
 DE(Z)  -0.72578957D+00          E(Z)=    -0.13551520649D+04
 NORM(A)=   0.11399466D+01
 Iteration Nr.   8
 **********************
 DD1Dir will call FoFMem   1 times, MxPair=       156
 NAB=    78 NAA=     0 NBB=     0.
 DE(Z)  -0.72578708D+00          E(Z)=    -0.13551520624D+04
 NORM(A)=   0.11398930D+01
 Iteration Nr.   9
 **********************
 DD1Dir will call FoFMem   1 times, MxPair=       156
 NAB=    78 NAA=     0 NBB=     0.
 DE(Z)  -0.72577525D+00          E(Z)=    -0.13551520506D+04
 NORM(A)=   0.11398885D+01
 Iteration Nr.  10
 **********************
 DD1Dir will call FoFMem   1 times, MxPair=       156
 NAB=    78 NAA=     0 NBB=     0.
 DE(Z)  -0.72577286D+00          E(Z)=    -0.13551520482D+04
 NORM(A)=   0.11398883D+01
 Iteration Nr.  11
 **********************
 DD1Dir will call FoFMem   1 times, MxPair=       156
 NAB=    78 NAA=     0 NBB=     0.
 DE(Z)  -0.72577380D+00          E(Z)=    -0.13551520491D+04
 NORM(A)=   0.11398888D+01
 Iteration Nr.  12
 **********************
 DD1Dir will call FoFMem   1 times, MxPair=       156
 NAB=    78 NAA=     0 NBB=     0.
 DE(Z)  -0.72577387D+00          E(Z)=    -0.13551520492D+04
 NORM(A)=   0.11398893D+01
 Iteration Nr.  13
 **********************
 DD1Dir will call FoFMem   1 times, MxPair=       156
 NAB=    78 NAA=     0 NBB=     0.
 DE(Z)  -0.72577370D+00          E(Z)=    -0.13551520490D+04
 NORM(A)=   0.11398895D+01
 Iteration Nr.  14
 **********************
 DD1Dir will call FoFMem   1 times, MxPair=       156
 NAB=    78 NAA=     0 NBB=     0.
 DE(Z)  -0.72577390D+00          E(Z)=    -0.13551520492D+04
 NORM(A)=   0.11398896D+01
 Iteration Nr.  15
 **********************
 DD1Dir will call FoFMem   1 times, MxPair=       156
 NAB=    78 NAA=     0 NBB=     0.
 DE(Z)  -0.72577382D+00          E(Z)=    -0.13551520492D+04
 NORM(A)=   0.11398896D+01
 Iteration Nr.  16
 **********************
 DD1Dir will call FoFMem   1 times, MxPair=       156
 NAB=    78 NAA=     0 NBB=     0.
 DE(Z)  -0.72577385D+00          E(Z)=    -0.13551520492D+04
 NORM(A)=   0.11398896D+01
 Iteration Nr.  17
 **********************
 DD1Dir will call FoFMem   1 times, MxPair=       156
 NAB=    78 NAA=     0 NBB=     0.
 DE(Z)  -0.72577385D+00          E(Z)=    -0.13551520492D+04
 NORM(A)=   0.11398896D+01
 Iteration Nr.  18
 **********************
 DD1Dir will call FoFMem   1 times, MxPair=       156
 NAB=    78 NAA=     0 NBB=     0.
 DE(Z)  -0.72577385D+00          E(Z)=    -0.13551520492D+04
 NORM(A)=   0.11398896D+01
 Discarding MO integrals.
          Differentiating once with respect to electric field.
                with respect to dipole field.
          Electric field/nuclear overlap derivatives assumed to be zero.
          Keep R1 ints in memory in canonical form, NReq=367211061.
          There are     1 degrees of freedom in the 1st order CPHF.  IDoFFX=0.
 LinEq1:  Iter=  0 NonCon=     1 RMS=2.07D-03 Max=6.31D-02
 AX will form     1 AO Fock derivatives at one time.
 LinEq1:  Iter=  1 NonCon=     1 RMS=9.27D-04 Max=1.83D-02
 LinEq1:  Iter=  2 NonCon=     1 RMS=4.05D-04 Max=9.94D-03
 LinEq1:  Iter=  3 NonCon=     1 RMS=1.02D-04 Max=1.68D-03
 LinEq1:  Iter=  4 NonCon=     1 RMS=2.26D-05 Max=6.60D-04
 LinEq1:  Iter=  5 NonCon=     1 RMS=7.18D-06 Max=1.59D-04
 LinEq1:  Iter=  6 NonCon=     1 RMS=2.12D-06 Max=8.06D-05
 LinEq1:  Iter=  7 NonCon=     1 RMS=6.81D-07 Max=1.41D-05
 LinEq1:  Iter=  8 NonCon=     1 RMS=1.29D-07 Max=1.93D-06
 LinEq1:  Iter=  9 NonCon=     1 RMS=2.49D-08 Max=3.61D-07
 LinEq1:  Iter= 10 NonCon=     1 RMS=6.54D-09 Max=1.66D-07
 LinEq1:  Iter= 11 NonCon=     1 RMS=1.33D-09 Max=2.18D-08
 LinEq1:  Iter= 12 NonCon=     1 RMS=3.01D-10 Max=5.04D-09
 LinEq1:  Iter= 13 NonCon=     0 RMS=6.62D-11 Max=8.71D-10
 Linear equations converged to 1.000D-10 1.000D-09 after    13 iterations.
 End of Minotr Frequency-dependent properties file   721 does not exist.
 End of Minotr Frequency-dependent properties file   722 does not exist.

 **********************************************************************

            Population analysis using the QCI/CC density.

 **********************************************************************

     Natural Orbital Coefficients:
                           1         2         3         4         5
     Eigenvalues --     2.00004   2.00004   2.00003   2.00003   2.00003
   1 1   C  1S          0.00000  -0.00106   0.00000   0.00000   0.00000
   2        2S          0.00000   0.00036   0.00000   0.00000   0.00000
   3        3S          0.00000   0.00005   0.00000   0.00000   0.00000
   4        4S          0.00000  -0.00287   0.00000   0.00000   0.00000
   5        5S          0.00000  -0.00090   0.00000   0.00000   0.00000
   6        6PX         0.00000   0.00000   0.00000   0.00158   0.00000
   7        6PY         0.00034   0.00000   0.00000   0.00000  -0.00108
   8        6PZ         0.00000   0.00035   0.00000   0.00000   0.00000
   9        7PX         0.00000   0.00000   0.00000   0.00169   0.00000
  10        7PY         0.00046   0.00000   0.00000   0.00000  -0.00229
  11        7PZ         0.00000   0.00134   0.00000   0.00000   0.00000
  12        8PX         0.00000   0.00000   0.00000  -0.00098   0.00000
  13        8PY         0.00313   0.00000   0.00000   0.00000   0.00667
  14        8PZ         0.00000  -0.00502   0.00000   0.00000   0.00000
  15        9PX         0.00000   0.00000   0.00000  -0.00102   0.00000
  16        9PY        -0.00047   0.00000   0.00000   0.00000   0.00159
  17        9PZ         0.00000  -0.00208   0.00000   0.00000   0.00000
  18       10D 0        0.00000  -0.00034   0.00000   0.00000   0.00000
  19       10D+1        0.00000   0.00000   0.00000  -0.00028   0.00000
  20       10D-1        0.00008   0.00000   0.00000   0.00000  -0.00037
  21       10D+2        0.00000  -0.00023   0.00000   0.00000   0.00000
  22       10D-2        0.00000   0.00000   0.00035   0.00000   0.00000
  23       11D 0        0.00000   0.00023   0.00000   0.00000   0.00000
  24       11D+1        0.00000   0.00000   0.00000   0.00011   0.00000
  25       11D-1        0.00078   0.00000   0.00000   0.00000   0.00118
  26       11D+2        0.00000   0.00046   0.00000   0.00000   0.00000
  27       11D-2        0.00000   0.00000  -0.00027   0.00000   0.00000
  28       12D 0        0.00000  -0.00574   0.00000   0.00000   0.00000
  29       12D+1        0.00000   0.00000   0.00000  -0.00274   0.00000
  30       12D-1        0.00373   0.00000   0.00000   0.00000  -0.00340
  31       12D+2        0.00000  -0.00313   0.00000   0.00000   0.00000
  32       12D-2        0.00000   0.00000   0.00232   0.00000   0.00000
  33       13F 0        0.00000   0.00013   0.00000   0.00000   0.00000
  34       13F+1        0.00000   0.00000   0.00000   0.00004   0.00000
  35       13F-1       -0.00039   0.00000   0.00000   0.00000  -0.00030
  36       13F+2        0.00000  -0.00003   0.00000   0.00000   0.00000
  37       13F-2        0.00000   0.00000  -0.00015   0.00000   0.00000
  38       13F+3        0.00000   0.00000   0.00000  -0.00009   0.00000
  39       13F-3       -0.00009   0.00000   0.00000   0.00000   0.00010
  40       14F 0        0.00000  -0.00098   0.00000   0.00000   0.00000
  41       14F+1        0.00000   0.00000   0.00000   0.00005   0.00000
  42       14F-1        0.00498   0.00000   0.00000   0.00000   0.00167
  43       14F+2        0.00000  -0.00008   0.00000   0.00000   0.00000
  44       14F-2        0.00000   0.00000   0.00120   0.00000   0.00000
  45       14F+3        0.00000   0.00000   0.00000   0.00059   0.00000
  46       14F-3        0.00117   0.00000   0.00000   0.00000  -0.00012
  47 2   Cl 1S         -0.00219  -0.00134   0.00000   0.00000   0.02354
  48        2S          0.00778   0.00501   0.00000   0.00000  -0.08002
  49        3S          0.00035   0.00042   0.00000   0.00000   0.00219
  50        4S          0.00053   0.00021   0.00000   0.00000  -0.00592
  51        5S         -0.00118  -0.00195   0.00000   0.00000   0.00396
  52        6S         -0.00126  -0.00202   0.00000   0.00000   0.00410
  53        7PX         0.00000   0.00000   0.69246  -0.68718   0.00000
  54        7PY        -0.40820   0.35193   0.00000   0.00000   0.13794
  55        7PZ         0.55673  -0.59531   0.00000   0.00000   0.02965
  56        8PX         0.00000   0.00000  -0.01497   0.01336   0.00000
  57        8PY         0.01046  -0.00757   0.00000   0.00000  -0.00293
  58        8PZ        -0.01375   0.01382   0.00000   0.00000  -0.00141
  59        9PX         0.00000   0.00000   0.03673  -0.03691   0.00000
  60        9PY        -0.02126   0.01841   0.00000   0.00000   0.00762
  61        9PZ         0.02912  -0.03119   0.00000   0.00000   0.00170
  62       10PX         0.00000   0.00000  -0.00318   0.00277   0.00000
  63       10PY         0.00307  -0.00129   0.00000   0.00000   0.00063
  64       10PZ        -0.00457   0.00123   0.00000   0.00000   0.00012
  65       11PX         0.00000   0.00000  -0.00055   0.00078   0.00000
  66       11PY         0.00035  -0.00040   0.00000   0.00000   0.00029
  67       11PZ        -0.00073   0.00050   0.00000   0.00000   0.00020
  68       12D 0        0.00045  -0.00028   0.00000   0.00000   0.00008
  69       12D+1        0.00000   0.00000   0.00018  -0.00018   0.00000
  70       12D-1        0.00024  -0.00015   0.00000   0.00000   0.00011
  71       12D+2        0.00027  -0.00015   0.00000   0.00000  -0.00007
  72       12D-2        0.00000   0.00000   0.00032  -0.00020   0.00000
  73       13D 0       -0.00204   0.00102   0.00000   0.00000   0.00010
  74       13D+1        0.00000   0.00000  -0.00075   0.00058   0.00000
  75       13D-1       -0.00080   0.00094   0.00000   0.00000  -0.00049
  76       13D+2       -0.00098   0.00070   0.00000   0.00000   0.00017
  77       13D-2        0.00000   0.00000  -0.00109   0.00100   0.00000
  78       14D 0        0.00007  -0.00090   0.00000   0.00000   0.00000
  79       14D+1        0.00000   0.00000   0.00061   0.00006   0.00000
  80       14D-1        0.00004  -0.00031   0.00000   0.00000   0.00008
  81       14D+2        0.00000  -0.00058   0.00000   0.00000   0.00017
  82       14D-2        0.00000   0.00000   0.00046  -0.00048   0.00000
  83       15F 0       -0.00001   0.00000   0.00000   0.00000   0.00005
  84       15F+1        0.00000   0.00000  -0.00007  -0.00005   0.00000
  85       15F-1        0.00001   0.00002   0.00000   0.00000   0.00003
  86       15F+2        0.00002   0.00002   0.00000   0.00000  -0.00003
  87       15F-2        0.00000   0.00000  -0.00001  -0.00003   0.00000
  88       15F+3        0.00000   0.00000  -0.00001  -0.00003   0.00000
  89       15F-3        0.00003   0.00004   0.00000   0.00000  -0.00005
  90       16F 0       -0.00038  -0.00011   0.00000   0.00000   0.00019
  91       16F+1        0.00000   0.00000   0.00013   0.00018   0.00000
  92       16F-1       -0.00093   0.00047   0.00000   0.00000  -0.00017
  93       16F+2       -0.00008  -0.00029   0.00000   0.00000   0.00030
  94       16F-2        0.00000   0.00000  -0.00033   0.00033   0.00000
  95       16F+3        0.00000   0.00000   0.00030  -0.00022   0.00000
  96       16F-3       -0.00027   0.00019   0.00000   0.00000   0.00021
  97 3   Cl 1S          0.00219  -0.00134   0.00000   0.00000  -0.02354
  98        2S         -0.00778   0.00501   0.00000   0.00000   0.08002
  99        3S         -0.00035   0.00042   0.00000   0.00000  -0.00219
 100        4S         -0.00053   0.00021   0.00000   0.00000   0.00592
 101        5S          0.00118  -0.00195   0.00000   0.00000  -0.00396
 102        6S          0.00126  -0.00202   0.00000   0.00000  -0.00410
 103        7PX         0.00000   0.00000  -0.69246  -0.68718   0.00000
 104        7PY        -0.40820  -0.35193   0.00000   0.00000   0.13794
 105        7PZ        -0.55673  -0.59531   0.00000   0.00000  -0.02965
 106        8PX         0.00000   0.00000   0.01497   0.01336   0.00000
 107        8PY         0.01046   0.00757   0.00000   0.00000  -0.00293
 108        8PZ         0.01375   0.01382   0.00000   0.00000   0.00141
 109        9PX         0.00000   0.00000  -0.03673  -0.03691   0.00000
 110        9PY        -0.02126  -0.01841   0.00000   0.00000   0.00762
 111        9PZ        -0.02912  -0.03119   0.00000   0.00000  -0.00170
 112       10PX         0.00000   0.00000   0.00318   0.00277   0.00000
 113       10PY         0.00307   0.00129   0.00000   0.00000   0.00063
 114       10PZ         0.00457   0.00123   0.00000   0.00000  -0.00012
 115       11PX         0.00000   0.00000   0.00055   0.00078   0.00000
 116       11PY         0.00035   0.00040   0.00000   0.00000   0.00029
 117       11PZ         0.00073   0.00050   0.00000   0.00000  -0.00020
 118       12D 0       -0.00045  -0.00028   0.00000   0.00000  -0.00008
 119       12D+1        0.00000   0.00000  -0.00018  -0.00018   0.00000
 120       12D-1        0.00024   0.00015   0.00000   0.00000   0.00011
 121       12D+2       -0.00027  -0.00015   0.00000   0.00000   0.00007
 122       12D-2        0.00000   0.00000   0.00032   0.00020   0.00000
 123       13D 0        0.00204   0.00102   0.00000   0.00000  -0.00010
 124       13D+1        0.00000   0.00000   0.00075   0.00058   0.00000
 125       13D-1       -0.00080  -0.00094   0.00000   0.00000  -0.00049
 126       13D+2        0.00098   0.00070   0.00000   0.00000  -0.00017
 127       13D-2        0.00000   0.00000  -0.00109  -0.00100   0.00000
 128       14D 0       -0.00007  -0.00090   0.00000   0.00000   0.00000
 129       14D+1        0.00000   0.00000  -0.00061   0.00006   0.00000
 130       14D-1        0.00004   0.00031   0.00000   0.00000   0.00008
 131       14D+2        0.00000  -0.00058   0.00000   0.00000  -0.00017
 132       14D-2        0.00000   0.00000   0.00046   0.00048   0.00000
 133       15F 0        0.00001   0.00000   0.00000   0.00000  -0.00005
 134       15F+1        0.00000   0.00000   0.00007  -0.00005   0.00000
 135       15F-1        0.00001  -0.00002   0.00000   0.00000   0.00003
 136       15F+2       -0.00002   0.00002   0.00000   0.00000   0.00003
 137       15F-2        0.00000   0.00000  -0.00001   0.00003   0.00000
 138       15F+3        0.00000   0.00000   0.00001  -0.00003   0.00000
 139       15F-3        0.00003  -0.00004   0.00000   0.00000  -0.00005
 140       16F 0        0.00038  -0.00011   0.00000   0.00000  -0.00019
 141       16F+1        0.00000   0.00000  -0.00013   0.00018   0.00000
 142       16F-1       -0.00093  -0.00047   0.00000   0.00000  -0.00017
 143       16F+2        0.00008  -0.00029   0.00000   0.00000  -0.00030
 144       16F-2        0.00000   0.00000  -0.00033  -0.00033   0.00000
 145       16F+3        0.00000   0.00000  -0.00030  -0.00022   0.00000
 146       16F-3       -0.00027  -0.00019   0.00000   0.00000   0.00021
 147 4   S  1S          0.00000   0.00090   0.00000   0.00000   0.00000
 148        2S          0.00000  -0.00310   0.00000   0.00000   0.00000
 149        3S          0.00000   0.00039   0.00000   0.00000   0.00000
 150        4S          0.00000  -0.00004   0.00000   0.00000   0.00000
 151        5S          0.00000   0.00751   0.00000   0.00000   0.00000
 152        6S          0.00000   0.00342   0.00000   0.00000   0.00000
 153        7PX         0.00000   0.00000   0.00000   0.11525   0.00000
 154        7PY         0.08474   0.00000   0.00000   0.00000   0.94947
 155        7PZ         0.00000  -0.05874   0.00000   0.00000   0.00000
 156        8PX         0.00000   0.00000   0.00000  -0.00355   0.00000
 157        8PY        -0.00494   0.00000   0.00000   0.00000  -0.01866
 158        8PZ         0.00000   0.00102   0.00000   0.00000   0.00000
 159        9PX         0.00000   0.00000   0.00000   0.00666   0.00000
 160        9PY         0.00499   0.00000   0.00000   0.00000   0.05490
 161        9PZ         0.00000  -0.00338   0.00000   0.00000   0.00000
 162       10PX         0.00000   0.00000   0.00000   0.00150   0.00000
 163       10PY        -0.00589   0.00000   0.00000   0.00000  -0.00507
 164       10PZ         0.00000  -0.00123   0.00000   0.00000   0.00000
 165       11PX         0.00000   0.00000   0.00000   0.00024   0.00000
 166       11PY        -0.00032   0.00000   0.00000   0.00000  -0.00114
 167       11PZ         0.00000   0.00001   0.00000   0.00000   0.00000
 168       12D 0        0.00000  -0.00043   0.00000   0.00000   0.00000
 169       12D+1        0.00000   0.00000   0.00000  -0.00001   0.00000
 170       12D-1        0.00244   0.00000   0.00000   0.00000   0.00274
 171       12D+2        0.00000  -0.00009   0.00000   0.00000   0.00000
 172       12D-2        0.00000   0.00000  -0.00034   0.00000   0.00000
 173       13D 0        0.00000   0.00000   0.00000   0.00000   0.00000
 174       13D+1        0.00000   0.00000   0.00000  -0.00006   0.00000
 175       13D-1       -0.00005   0.00000   0.00000   0.00000  -0.00033
 176       13D+2        0.00000  -0.00009   0.00000   0.00000   0.00000
 177       13D-2        0.00000   0.00000   0.00011   0.00000   0.00000
 178       14D 0        0.00000  -0.00007   0.00000   0.00000   0.00000
 179       14D+1        0.00000   0.00000   0.00000  -0.00142   0.00000
 180       14D-1        0.00150   0.00000   0.00000   0.00000  -0.00028
 181       14D+2        0.00000   0.00038   0.00000   0.00000   0.00000
 182       14D-2        0.00000   0.00000  -0.00062   0.00000   0.00000
 183       15F 0        0.00000   0.00009   0.00000   0.00000   0.00000
 184       15F+1        0.00000   0.00000   0.00000  -0.00008   0.00000
 185       15F-1       -0.00022   0.00000   0.00000   0.00000  -0.00018
 186       15F+2        0.00000   0.00013   0.00000   0.00000   0.00000
 187       15F-2        0.00000   0.00000  -0.00006   0.00000   0.00000
 188       15F+3        0.00000   0.00000   0.00000   0.00001   0.00000
 189       15F-3       -0.00003   0.00000   0.00000   0.00000   0.00009
 190       16F 0        0.00000   0.00021   0.00000   0.00000   0.00000
 191       16F+1        0.00000   0.00000   0.00000   0.00024   0.00000
 192       16F-1       -0.00071   0.00000   0.00000   0.00000  -0.00090
 193       16F+2        0.00000  -0.00006   0.00000   0.00000   0.00000
 194       16F-2        0.00000   0.00000   0.00053   0.00000   0.00000
 195       16F+3        0.00000   0.00000   0.00000  -0.00017   0.00000
 196       16F-3       -0.00017   0.00000   0.00000   0.00000  -0.00018
                           6         7         8         9        10
     Eigenvalues --     2.00003   2.00003   2.00002   2.00001   2.00001
   1 1   C  1S         -0.16828   0.00000  -0.15414   0.58124   0.00000
   2        2S          0.00345   0.00000   0.00301  -0.01031   0.00000
   3        3S         -0.00620   0.00000  -0.00606   0.02314   0.00000
   4        4S         -0.00918   0.00000  -0.00748   0.00566   0.00000
   5        5S         -0.00153   0.00000   0.00006   0.00340   0.00000
   6        6PX         0.00000   0.00000   0.00000   0.00000   0.00000
   7        6PY         0.00000  -0.00089   0.00000   0.00000   0.00271
   8        6PZ        -0.00006   0.00000   0.00121  -0.00230   0.00000
   9        7PX         0.00000   0.00000   0.00000   0.00000   0.00000
  10        7PY         0.00000  -0.00028   0.00000   0.00000  -0.00024
  11        7PZ        -0.00085   0.00000  -0.00059   0.00086   0.00000
  12        8PX         0.00000   0.00000   0.00000   0.00000   0.00000
  13        8PY         0.00000   0.00285   0.00000   0.00000  -0.00187
  14        8PZ         0.00108   0.00000  -0.00742   0.00497   0.00000
  15        9PX         0.00000   0.00000   0.00000   0.00000   0.00000
  16        9PY         0.00000  -0.00062   0.00000   0.00000   0.00067
  17        9PZ        -0.00057   0.00000   0.00014   0.00097   0.00000
  18       10D 0       -0.00004   0.00000  -0.00010   0.00008   0.00000
  19       10D+1        0.00000   0.00000   0.00000   0.00000   0.00000
  20       10D-1        0.00000  -0.00011   0.00000   0.00000   0.00000
  21       10D+2        0.00006   0.00000   0.00002  -0.00015   0.00000
  22       10D-2        0.00000   0.00000   0.00000   0.00000   0.00000
  23       11D 0       -0.00051   0.00000  -0.00089   0.00028   0.00000
  24       11D+1        0.00000   0.00000   0.00000   0.00000   0.00000
  25       11D-1        0.00000  -0.00120   0.00000   0.00000   0.00258
  26       11D+2        0.00081   0.00000  -0.00034   0.00081   0.00000
  27       11D-2        0.00000   0.00000   0.00000   0.00000   0.00000
  28       12D 0        0.00046   0.00000  -0.00182   0.00235   0.00000
  29       12D+1        0.00000   0.00000   0.00000   0.00000   0.00000
  30       12D-1        0.00000  -0.00445   0.00000   0.00000   0.00479
  31       12D+2        0.00134   0.00000  -0.00082   0.00041   0.00000
  32       12D-2        0.00000   0.00000   0.00000   0.00000   0.00000
  33       13F 0       -0.00013   0.00000   0.00000  -0.00006   0.00000
  34       13F+1        0.00000   0.00000   0.00000   0.00000   0.00000
  35       13F-1        0.00000  -0.00003   0.00000   0.00000  -0.00001
  36       13F+2       -0.00004   0.00000  -0.00006   0.00001   0.00000
  37       13F-2        0.00000   0.00000   0.00000   0.00000   0.00000
  38       13F+3        0.00000   0.00000   0.00000   0.00000   0.00000
  39       13F-3        0.00000   0.00003   0.00000   0.00000  -0.00009
  40       14F 0        0.00016   0.00000   0.00047  -0.00154   0.00000
  41       14F+1        0.00000   0.00000   0.00000   0.00000   0.00000
  42       14F-1        0.00000  -0.00002   0.00000   0.00000   0.00139
  43       14F+2       -0.00015   0.00000   0.00058  -0.00108   0.00000
  44       14F-2        0.00000   0.00000   0.00000   0.00000   0.00000
  45       14F+3        0.00000   0.00000   0.00000   0.00000   0.00000
  46       14F-3        0.00000  -0.00036   0.00000   0.00000   0.00084
  47 2   Cl 1S         -0.17535  -0.17579   0.02332  -0.03714  -0.10530
  48        2S          0.59155   0.59327  -0.07900   0.12729   0.35780
  49        3S         -0.01759  -0.01745   0.00213  -0.00156  -0.00580
  50        4S          0.04599   0.04611  -0.00608   0.01005   0.02986
  51        5S         -0.00151   0.00009  -0.00137   0.00075  -0.00796
  52        6S         -0.00054  -0.00078  -0.00006  -0.00009   0.00170
  53        7PX         0.00000   0.00000   0.00000   0.00000   0.00000
  54        7PY        -0.29143  -0.26312   0.07049   0.07182   0.47131
  55        7PZ        -0.17141  -0.21503   0.00834   0.06592   0.34835
  56        8PX         0.00000   0.00000   0.00000   0.00000   0.00000
  57        8PY         0.00528   0.00496  -0.00174  -0.00031  -0.00807
  58        8PZ         0.00305   0.00411  -0.00051  -0.00026  -0.00634
  59        9PX         0.00000   0.00000   0.00000   0.00000   0.00000
  60        9PY        -0.01661  -0.01501   0.00399   0.00430   0.02891
  61        9PZ        -0.00979  -0.01224   0.00049   0.00395   0.02150
  62       10PX         0.00000   0.00000   0.00000   0.00000   0.00000
  63       10PY         0.00182   0.00183  -0.00064  -0.00001  -0.00045
  64       10PZ         0.00146   0.00086  -0.00059   0.00099  -0.00043
  65       11PX         0.00000   0.00000   0.00000   0.00000   0.00000
  66       11PY        -0.00005   0.00012  -0.00003  -0.00004   0.00010
  67       11PZ         0.00009  -0.00009  -0.00013  -0.00009   0.00023
  68       12D 0       -0.00004  -0.00002   0.00002  -0.00001   0.00000
  69       12D+1        0.00000   0.00000   0.00000   0.00000   0.00000
  70       12D-1        0.00018   0.00018   0.00002   0.00006   0.00041
  71       12D+2       -0.00008  -0.00007   0.00003  -0.00011  -0.00032
  72       12D-2        0.00000   0.00000   0.00000   0.00000   0.00000
  73       13D 0       -0.00006   0.00023   0.00016  -0.00015  -0.00056
  74       13D+1        0.00000   0.00000   0.00000   0.00000   0.00000
  75       13D-1        0.00038   0.00046  -0.00013   0.00019  -0.00221
  76       13D+2       -0.00047  -0.00032   0.00017   0.00013   0.00119
  77       13D-2        0.00000   0.00000   0.00000   0.00000   0.00000
  78       14D 0        0.00001  -0.00024   0.00018  -0.00002   0.00004
  79       14D+1        0.00000   0.00000   0.00000   0.00000   0.00000
  80       14D-1        0.00030   0.00018   0.00002   0.00024   0.00016
  81       14D+2       -0.00020   0.00021  -0.00004   0.00011  -0.00081
  82       14D-2        0.00000   0.00000   0.00000   0.00000   0.00000
  83       15F 0        0.00001   0.00004   0.00001   0.00000  -0.00004
  84       15F+1        0.00000   0.00000   0.00000   0.00000   0.00000
  85       15F-1        0.00000   0.00003   0.00001  -0.00001  -0.00009
  86       15F+2       -0.00001  -0.00001   0.00000  -0.00001   0.00004
  87       15F-2        0.00000   0.00000   0.00000   0.00000   0.00000
  88       15F+3        0.00000   0.00000   0.00000   0.00000   0.00000
  89       15F-3       -0.00003  -0.00003   0.00002  -0.00001   0.00003
  90       16F 0       -0.00007  -0.00011   0.00010  -0.00028   0.00030
  91       16F+1        0.00000   0.00000   0.00000   0.00000   0.00000
  92       16F-1        0.00002   0.00008   0.00003   0.00001  -0.00042
  93       16F+2       -0.00013  -0.00013   0.00007  -0.00009   0.00052
  94       16F-2        0.00000   0.00000   0.00000   0.00000   0.00000
  95       16F+3        0.00000   0.00000   0.00000   0.00000   0.00000
  96       16F-3       -0.00011   0.00001  -0.00004   0.00014   0.00011
  97 3   Cl 1S         -0.17535   0.17579   0.02332  -0.03714   0.10530
  98        2S          0.59155  -0.59327  -0.07900   0.12729  -0.35780
  99        3S         -0.01759   0.01745   0.00213  -0.00156   0.00580
 100        4S          0.04599  -0.04611  -0.00608   0.01005  -0.02986
 101        5S         -0.00151  -0.00009  -0.00137   0.00075   0.00796
 102        6S         -0.00054   0.00078  -0.00006  -0.00009  -0.00170
 103        7PX         0.00000   0.00000   0.00000   0.00000   0.00000
 104        7PY         0.29143  -0.26312  -0.07049  -0.07182   0.47131
 105        7PZ        -0.17141   0.21503   0.00834   0.06592  -0.34835
 106        8PX         0.00000   0.00000   0.00000   0.00000   0.00000
 107        8PY        -0.00528   0.00496   0.00174   0.00031  -0.00807
 108        8PZ         0.00305  -0.00411  -0.00051  -0.00026   0.00634
 109        9PX         0.00000   0.00000   0.00000   0.00000   0.00000
 110        9PY         0.01661  -0.01501  -0.00399  -0.00430   0.02891
 111        9PZ        -0.00979   0.01224   0.00049   0.00395  -0.02150
 112       10PX         0.00000   0.00000   0.00000   0.00000   0.00000
 113       10PY        -0.00182   0.00183   0.00064   0.00001  -0.00045
 114       10PZ         0.00146  -0.00086  -0.00059   0.00099   0.00043
 115       11PX         0.00000   0.00000   0.00000   0.00000   0.00000
 116       11PY         0.00005   0.00012   0.00003   0.00004   0.00010
 117       11PZ         0.00009   0.00009  -0.00013  -0.00009  -0.00023
 118       12D 0       -0.00004   0.00002   0.00002  -0.00001   0.00000
 119       12D+1        0.00000   0.00000   0.00000   0.00000   0.00000
 120       12D-1       -0.00018   0.00018  -0.00002  -0.00006   0.00041
 121       12D+2       -0.00008   0.00007   0.00003  -0.00011   0.00032
 122       12D-2        0.00000   0.00000   0.00000   0.00000   0.00000
 123       13D 0       -0.00006  -0.00023   0.00016  -0.00015   0.00056
 124       13D+1        0.00000   0.00000   0.00000   0.00000   0.00000
 125       13D-1       -0.00038   0.00046   0.00013  -0.00019  -0.00221
 126       13D+2       -0.00047   0.00032   0.00017   0.00013  -0.00119
 127       13D-2        0.00000   0.00000   0.00000   0.00000   0.00000
 128       14D 0        0.00001   0.00024   0.00018  -0.00002  -0.00004
 129       14D+1        0.00000   0.00000   0.00000   0.00000   0.00000
 130       14D-1       -0.00030   0.00018  -0.00002  -0.00024   0.00016
 131       14D+2       -0.00020  -0.00021  -0.00004   0.00011   0.00081
 132       14D-2        0.00000   0.00000   0.00000   0.00000   0.00000
 133       15F 0        0.00001  -0.00004   0.00001   0.00000   0.00004
 134       15F+1        0.00000   0.00000   0.00000   0.00000   0.00000
 135       15F-1        0.00000   0.00003  -0.00001   0.00001  -0.00009
 136       15F+2       -0.00001   0.00001   0.00000  -0.00001  -0.00004
 137       15F-2        0.00000   0.00000   0.00000   0.00000   0.00000
 138       15F+3        0.00000   0.00000   0.00000   0.00000   0.00000
 139       15F-3        0.00003  -0.00003  -0.00002   0.00001   0.00003
 140       16F 0       -0.00007   0.00011   0.00010  -0.00028  -0.00030
 141       16F+1        0.00000   0.00000   0.00000   0.00000   0.00000
 142       16F-1       -0.00002   0.00008  -0.00003  -0.00001  -0.00042
 143       16F+2       -0.00013   0.00013   0.00007  -0.00009  -0.00052
 144       16F-2        0.00000   0.00000   0.00000   0.00000   0.00000
 145       16F+3        0.00000   0.00000   0.00000   0.00000   0.00000
 146       16F-3        0.00011   0.00001   0.00004  -0.00014   0.00011
 147 4   S  1S         -0.02634   0.00000  -0.21365  -0.16701   0.00000
 148        2S          0.08982   0.00000   0.73024   0.57683   0.00000
 149        3S         -0.00262   0.00000  -0.02049  -0.00885   0.00000
 150        4S          0.00585   0.00000   0.04893   0.04145   0.00000
 151        5S          0.00196   0.00000   0.00693  -0.01202   0.00000
 152        6S          0.00212   0.00000  -0.00070  -0.00334   0.00000
 153        7PX         0.00000   0.00000   0.00000   0.00000   0.00000
 154        7PY         0.00000   0.18678   0.00000   0.00000  -0.09941
 155        7PZ         0.07340   0.00000   0.62563  -0.49431   0.00000
 156        8PX         0.00000   0.00000   0.00000   0.00000   0.00000
 157        8PY         0.00000  -0.00298   0.00000   0.00000  -0.00031
 158        8PZ        -0.00201   0.00000  -0.01188   0.00852   0.00000
 159        9PX         0.00000   0.00000   0.00000   0.00000   0.00000
 160        9PY         0.00000   0.01094   0.00000   0.00000  -0.00602
 161        9PZ         0.00468   0.00000   0.03850  -0.03233   0.00000
 162       10PX         0.00000   0.00000   0.00000   0.00000   0.00000
 163       10PY         0.00000   0.00190   0.00000   0.00000  -0.00366
 164       10PZ        -0.00258   0.00000  -0.00682   0.00493   0.00000
 165       11PX         0.00000   0.00000   0.00000   0.00000   0.00000
 166       11PY         0.00000   0.00021   0.00000   0.00000  -0.00026
 167       11PZ        -0.00022   0.00000   0.00011   0.00018   0.00000
 168       12D 0        0.00093   0.00000   0.00217  -0.00267   0.00000
 169       12D+1        0.00000   0.00000   0.00000   0.00000   0.00000
 170       12D-1        0.00000   0.00017   0.00000   0.00000   0.00083
 171       12D+2       -0.00007   0.00000  -0.00044   0.00018   0.00000
 172       12D-2        0.00000   0.00000   0.00000   0.00000   0.00000
 173       13D 0        0.00008   0.00000   0.00014   0.00023   0.00000
 174       13D+1        0.00000   0.00000   0.00000   0.00000   0.00000
 175       13D-1        0.00000   0.00003   0.00000   0.00000  -0.00007
 176       13D+2        0.00005   0.00000   0.00030   0.00017   0.00000
 177       13D-2        0.00000   0.00000   0.00000   0.00000   0.00000
 178       14D 0        0.00060   0.00000   0.00106  -0.00062   0.00000
 179       14D+1        0.00000   0.00000   0.00000   0.00000   0.00000
 180       14D-1        0.00000  -0.00075   0.00000   0.00000   0.00095
 181       14D+2       -0.00030   0.00000   0.00041  -0.00004   0.00000
 182       14D-2        0.00000   0.00000   0.00000   0.00000   0.00000
 183       15F 0       -0.00014   0.00000  -0.00016   0.00024   0.00000
 184       15F+1        0.00000   0.00000   0.00000   0.00000   0.00000
 185       15F-1        0.00000   0.00000   0.00000   0.00000  -0.00006
 186       15F+2        0.00000   0.00000   0.00012  -0.00016   0.00000
 187       15F-2        0.00000   0.00000   0.00000   0.00000   0.00000
 188       15F+3        0.00000   0.00000   0.00000   0.00000   0.00000
 189       15F-3        0.00000   0.00003   0.00000   0.00000  -0.00005
 190       16F 0       -0.00016   0.00000  -0.00047   0.00049   0.00000
 191       16F+1        0.00000   0.00000   0.00000   0.00000   0.00000
 192       16F-1        0.00000  -0.00003   0.00000   0.00000  -0.00032
 193       16F+2        0.00012   0.00000  -0.00009  -0.00010   0.00000
 194       16F-2        0.00000   0.00000   0.00000   0.00000   0.00000
 195       16F+3        0.00000   0.00000   0.00000   0.00000   0.00000
 196       16F-3        0.00000   0.00000   0.00000   0.00000  -0.00003
                          11        12        13        14        15
     Eigenvalues --     2.00001   2.00001   2.00000   2.00000   2.00000
   1 1   C  1S          0.27802   0.00000   0.70361   0.00158   0.00193
   2        2S         -0.00509   0.00000  -0.00703  -0.00002  -0.00006
   3        3S          0.01006   0.00000   0.03026   0.00010   0.00009
   4        4S          0.01219   0.00000  -0.02228  -0.00040  -0.00019
   5        5S          0.00525   0.00000  -0.00538  -0.00018  -0.00017
   6        6PX         0.00000  -0.00186   0.00000   0.00000   0.00000
   7        6PY         0.00000   0.00000   0.00000   0.00000   0.00000
   8        6PZ         0.00202   0.00000  -0.00127  -0.00001   0.00000
   9        7PX         0.00000  -0.00141   0.00000   0.00000   0.00000
  10        7PY         0.00000   0.00000   0.00000   0.00000   0.00000
  11        7PZ         0.00183   0.00000   0.00264   0.00001  -0.00008
  12        8PX         0.00000   0.00077   0.00000   0.00000   0.00000
  13        8PY         0.00000   0.00000   0.00000   0.00000   0.00000
  14        8PZ        -0.00252   0.00000   0.00266  -0.00006  -0.00002
  15        9PX         0.00000  -0.00104   0.00000   0.00000   0.00000
  16        9PY         0.00000   0.00000   0.00000   0.00000   0.00000
  17        9PZ         0.00039   0.00000   0.00056  -0.00002  -0.00005
  18       10D 0        0.00008   0.00000   0.00031   0.00000   0.00000
  19       10D+1        0.00000  -0.00019   0.00000   0.00000   0.00000
  20       10D-1        0.00000   0.00000   0.00000   0.00000   0.00000
  21       10D+2       -0.00004   0.00000  -0.00021   0.00000   0.00000
  22       10D-2        0.00000   0.00000   0.00000   0.00000   0.00000
  23       11D 0        0.00082   0.00000  -0.00023  -0.00003  -0.00005
  24       11D+1        0.00000   0.00121   0.00000   0.00000   0.00000
  25       11D-1        0.00000   0.00000   0.00000   0.00000   0.00000
  26       11D+2       -0.00120   0.00000   0.00313   0.00006   0.00000
  27       11D-2        0.00000   0.00000   0.00000   0.00000   0.00000
  28       12D 0       -0.00166   0.00000  -0.00117  -0.00005  -0.00007
  29       12D+1        0.00000  -0.00099   0.00000   0.00000   0.00000
  30       12D-1        0.00000   0.00000   0.00000   0.00000   0.00000
  31       12D+2       -0.00271   0.00000   0.00172   0.00003  -0.00001
  32       12D-2        0.00000   0.00000   0.00000   0.00000   0.00000
  33       13F 0        0.00026   0.00000   0.00028   0.00000   0.00000
  34       13F+1        0.00000  -0.00018   0.00000   0.00000   0.00000
  35       13F-1        0.00000   0.00000   0.00000   0.00000   0.00000
  36       13F+2       -0.00008   0.00000  -0.00004  -0.00001   0.00000
  37       13F-2        0.00000   0.00000   0.00000   0.00000   0.00000
  38       13F+3        0.00000   0.00007   0.00000   0.00000   0.00000
  39       13F-3        0.00000   0.00000   0.00000   0.00000   0.00000
  40       14F 0        0.00020   0.00000  -0.00112  -0.00003   0.00000
  41       14F+1        0.00000   0.00119   0.00000   0.00000   0.00000
  42       14F-1        0.00000   0.00000   0.00000   0.00000   0.00000
  43       14F+2        0.00052   0.00000  -0.00140  -0.00003   0.00001
  44       14F-2        0.00000   0.00000   0.00000   0.00000   0.00000
  45       14F+3        0.00000  -0.00015   0.00000   0.00000   0.00000
  46       14F-3        0.00000   0.00000   0.00000   0.00000   0.00000
  47 2   Cl 1S         -0.09409   0.00000   0.02985   0.68423  -0.17894
  48        2S          0.32051   0.00000  -0.10672   0.00652  -0.00210
  49        3S         -0.00500   0.00000   0.00058   0.00010  -0.00005
  50        4S          0.02654   0.00000  -0.00964   0.00012  -0.00006
  51        5S         -0.00729   0.00000   0.00908   0.00006   0.00006
  52        6S         -0.00064   0.00000   0.00342   0.00005   0.00007
  53        7PX         0.00000   0.08112   0.00000   0.00000   0.00000
  54        7PY         0.42372   0.00000  -0.27842  -0.00155  -0.00059
  55        7PZ         0.23583   0.00000  -0.18638  -0.00096  -0.00051
  56        8PX         0.00000  -0.00044   0.00000   0.00000   0.00000
  57        8PY        -0.00715   0.00000   0.00480   0.00008  -0.00001
  58        8PZ        -0.00415   0.00000   0.00345   0.00006  -0.00001
  59        9PX         0.00000   0.00474   0.00000   0.00000   0.00000
  60        9PY         0.02606   0.00000  -0.01800  -0.00013  -0.00003
  61        9PZ         0.01452   0.00000  -0.01210  -0.00008  -0.00003
  62       10PX         0.00000  -0.00069   0.00000   0.00000   0.00000
  63       10PY        -0.00094   0.00000   0.00355   0.00002   0.00007
  64       10PZ        -0.00157   0.00000   0.00244   0.00000   0.00002
  65       11PX         0.00000   0.00034   0.00000   0.00000   0.00000
  66       11PY         0.00004   0.00000   0.00027   0.00000   0.00001
  67       11PZ        -0.00005   0.00000   0.00010   0.00000   0.00002
  68       12D 0        0.00001   0.00000   0.00001   0.00000   0.00000
  69       12D+1        0.00000  -0.00007   0.00000   0.00000   0.00000
  70       12D-1        0.00035   0.00000  -0.00031   0.00000   0.00000
  71       12D+2       -0.00024   0.00000   0.00021   0.00000   0.00000
  72       12D-2        0.00000  -0.00005   0.00000   0.00000   0.00000
  73       13D 0        0.00033   0.00000   0.00006   0.00000   0.00000
  74       13D+1        0.00000  -0.00006   0.00000   0.00000   0.00000
  75       13D-1       -0.00141   0.00000   0.00195   0.00003   0.00000
  76       13D+2        0.00140   0.00000  -0.00121  -0.00002   0.00000
  77       13D-2        0.00000  -0.00022   0.00000   0.00000   0.00000
  78       14D 0        0.00000   0.00000   0.00012   0.00000   0.00000
  79       14D+1        0.00000  -0.00024   0.00000   0.00000   0.00000
  80       14D-1        0.00016   0.00000   0.00067  -0.00001   0.00001
  81       14D+2       -0.00023   0.00000  -0.00057   0.00000  -0.00002
  82       14D-2        0.00000  -0.00055   0.00000   0.00000   0.00000
  83       15F 0        0.00001   0.00000   0.00002   0.00000   0.00000
  84       15F+1        0.00000   0.00000   0.00000   0.00000   0.00000
  85       15F-1        0.00003   0.00000  -0.00001   0.00000   0.00000
  86       15F+2        0.00003   0.00000  -0.00001   0.00000   0.00000
  87       15F-2        0.00000  -0.00001   0.00000   0.00000   0.00000
  88       15F+3        0.00000  -0.00003   0.00000   0.00000   0.00000
  89       15F-3        0.00010   0.00000  -0.00005   0.00000   0.00000
  90       16F 0        0.00022   0.00000  -0.00027   0.00000   0.00000
  91       16F+1        0.00000   0.00000   0.00000   0.00000   0.00000
  92       16F-1        0.00000   0.00000   0.00032   0.00000   0.00000
  93       16F+2        0.00031   0.00000  -0.00045   0.00000   0.00000
  94       16F-2        0.00000   0.00000   0.00000   0.00000   0.00000
  95       16F+3        0.00000   0.00020   0.00000   0.00000   0.00000
  96       16F-3        0.00018   0.00000  -0.00018   0.00000   0.00000
  97 3   Cl 1S         -0.09409   0.00000   0.02985   0.68109  -0.17472
  98        2S          0.32051   0.00000  -0.10672   0.00648  -0.00206
  99        3S         -0.00500   0.00000   0.00058   0.00010  -0.00005
 100        4S          0.02654   0.00000  -0.00964   0.00012  -0.00006
 101        5S         -0.00729   0.00000   0.00908   0.00006   0.00006
 102        6S         -0.00064   0.00000   0.00342   0.00005   0.00007
 103        7PX         0.00000   0.08112   0.00000   0.00000   0.00000
 104        7PY        -0.42372   0.00000   0.27842   0.00155   0.00059
 105        7PZ         0.23583   0.00000  -0.18638  -0.00096  -0.00051
 106        8PX         0.00000  -0.00044   0.00000   0.00000   0.00000
 107        8PY         0.00715   0.00000  -0.00480  -0.00008   0.00001
 108        8PZ        -0.00415   0.00000   0.00345   0.00006  -0.00001
 109        9PX         0.00000   0.00474   0.00000   0.00000   0.00000
 110        9PY        -0.02606   0.00000   0.01800   0.00013   0.00003
 111        9PZ         0.01452   0.00000  -0.01210  -0.00008  -0.00003
 112       10PX         0.00000  -0.00069   0.00000   0.00000   0.00000
 113       10PY         0.00094   0.00000  -0.00355  -0.00002  -0.00007
 114       10PZ        -0.00157   0.00000   0.00244   0.00000   0.00002
 115       11PX         0.00000   0.00034   0.00000   0.00000   0.00000
 116       11PY        -0.00004   0.00000  -0.00027   0.00000  -0.00001
 117       11PZ        -0.00005   0.00000   0.00010   0.00000   0.00002
 118       12D 0        0.00001   0.00000   0.00001   0.00000   0.00000
 119       12D+1        0.00000  -0.00007   0.00000   0.00000   0.00000
 120       12D-1       -0.00035   0.00000   0.00031   0.00000   0.00000
 121       12D+2       -0.00024   0.00000   0.00021   0.00000   0.00000
 122       12D-2        0.00000   0.00005   0.00000   0.00000   0.00000
 123       13D 0        0.00033   0.00000   0.00006   0.00000   0.00000
 124       13D+1        0.00000  -0.00006   0.00000   0.00000   0.00000
 125       13D-1        0.00141   0.00000  -0.00195  -0.00003   0.00000
 126       13D+2        0.00140   0.00000  -0.00121  -0.00002   0.00000
 127       13D-2        0.00000   0.00022   0.00000   0.00000   0.00000
 128       14D 0        0.00000   0.00000   0.00012   0.00000   0.00000
 129       14D+1        0.00000  -0.00024   0.00000   0.00000   0.00000
 130       14D-1       -0.00016   0.00000  -0.00067   0.00001  -0.00001
 131       14D+2       -0.00023   0.00000  -0.00057   0.00000  -0.00002
 132       14D-2        0.00000   0.00055   0.00000   0.00000   0.00000
 133       15F 0        0.00001   0.00000   0.00002   0.00000   0.00000
 134       15F+1        0.00000   0.00000   0.00000   0.00000   0.00000
 135       15F-1       -0.00003   0.00000   0.00001   0.00000   0.00000
 136       15F+2        0.00003   0.00000  -0.00001   0.00000   0.00000
 137       15F-2        0.00000   0.00001   0.00000   0.00000   0.00000
 138       15F+3        0.00000  -0.00003   0.00000   0.00000   0.00000
 139       15F-3       -0.00010   0.00000   0.00005   0.00000   0.00000
 140       16F 0        0.00022   0.00000  -0.00027   0.00000   0.00000
 141       16F+1        0.00000   0.00000   0.00000   0.00000   0.00000
 142       16F-1        0.00000   0.00000  -0.00032   0.00000   0.00000
 143       16F+2        0.00031   0.00000  -0.00045   0.00000   0.00000
 144       16F-2        0.00000   0.00000   0.00000   0.00000   0.00000
 145       16F+3        0.00000   0.00020   0.00000   0.00000   0.00000
 146       16F-3       -0.00018   0.00000   0.00018   0.00000   0.00000
 147 4   S  1S          0.07996   0.00000   0.04976   0.25014   0.96458
 148        2S         -0.27580   0.00000  -0.18432   0.00281   0.01257
 149        3S          0.00448   0.00000   0.00151   0.00009   0.00031
 150        4S         -0.01977   0.00000  -0.01363  -0.00004  -0.00004
 151        5S         -0.00016   0.00000   0.00594   0.00018   0.00002
 152        6S         -0.00529   0.00000   0.00100   0.00012   0.00008
 153        7PX         0.00000   0.96522   0.00000   0.00000   0.00000
 154        7PY         0.00000   0.00000   0.00000   0.00000   0.00000
 155        7PZ         0.35539   0.00000   0.41926   0.00169   0.00252
 156        8PX         0.00000  -0.01136   0.00000   0.00000   0.00000
 157        8PY         0.00000   0.00000   0.00000   0.00000   0.00000
 158        8PZ        -0.00382   0.00000  -0.00443  -0.00009  -0.00017
 159        9PX         0.00000   0.06178   0.00000   0.00000   0.00000
 160        9PY         0.00000   0.00000   0.00000   0.00000   0.00000
 161        9PZ         0.02276   0.00000   0.02783   0.00013   0.00023
 162       10PX         0.00000   0.00098   0.00000   0.00000   0.00000
 163       10PY         0.00000   0.00000   0.00000   0.00000   0.00000
 164       10PZ         0.00341   0.00000  -0.00171  -0.00009   0.00004
 165       11PX         0.00000  -0.00028   0.00000   0.00000   0.00000
 166       11PY         0.00000   0.00000   0.00000   0.00000   0.00000
 167       11PZ         0.00083   0.00000  -0.00014  -0.00001   0.00001
 168       12D 0        0.00011   0.00000   0.00104   0.00003   0.00006
 169       12D+1        0.00000   0.00220   0.00000   0.00000   0.00000
 170       12D-1        0.00000   0.00000   0.00000   0.00000   0.00000
 171       12D+2        0.00014   0.00000   0.00022   0.00000  -0.00001
 172       12D-2        0.00000   0.00000   0.00000   0.00000   0.00000
 173       13D 0       -0.00030   0.00000  -0.00064   0.00000   0.00001
 174       13D+1        0.00000  -0.00017   0.00000   0.00000   0.00000
 175       13D-1        0.00000   0.00000   0.00000   0.00000   0.00000
 176       13D+2       -0.00011   0.00000  -0.00008   0.00000   0.00001
 177       13D-2        0.00000   0.00000   0.00000   0.00000   0.00000
 178       14D 0       -0.00101   0.00000   0.00036   0.00001  -0.00004
 179       14D+1        0.00000  -0.00045   0.00000   0.00000   0.00000
 180       14D-1        0.00000   0.00000   0.00000   0.00000   0.00000
 181       14D+2        0.00069   0.00000  -0.00015   0.00000   0.00001
 182       14D-2        0.00000   0.00000   0.00000   0.00000   0.00000
 183       15F 0        0.00022   0.00000   0.00041  -0.00001  -0.00002
 184       15F+1        0.00000  -0.00026   0.00000   0.00000   0.00000
 185       15F-1        0.00000   0.00000   0.00000   0.00000   0.00000
 186       15F+2        0.00006   0.00000   0.00009   0.00000   0.00000
 187       15F-2        0.00000   0.00000   0.00000   0.00000   0.00000
 188       15F+3        0.00000   0.00013   0.00000   0.00000   0.00000
 189       15F-3        0.00000   0.00000   0.00000   0.00000   0.00000
 190       16F 0       -0.00020   0.00000  -0.00035   0.00000   0.00000
 191       16F+1        0.00000  -0.00049   0.00000   0.00000   0.00000
 192       16F-1        0.00000   0.00000   0.00000   0.00000   0.00000
 193       16F+2       -0.00033   0.00000  -0.00020   0.00000   0.00000
 194       16F-2        0.00000   0.00000   0.00000   0.00000   0.00000
 195       16F+3        0.00000  -0.00012   0.00000   0.00000   0.00000
 196       16F-3        0.00000   0.00000   0.00000   0.00000   0.00000
                          16        17        18        19        20
     Eigenvalues --     2.00000   1.97700   1.97420   1.97016   1.95130
   1 1   C  1S          0.00000  -0.08657   0.00000  -0.06958  -0.04071
   2        2S          0.00000   0.22285   0.00000   0.18672   0.11328
   3        3S          0.00000   0.04860   0.00000   0.04475   0.02722
   4        4S          0.00000   0.04466   0.00000   0.06107   0.05650
   5        5S          0.00000   0.01157   0.00000   0.01534   0.00181
   6        6PX         0.00000   0.00000   0.00000   0.00000   0.00000
   7        6PY        -0.00001   0.00000   0.06108   0.00000   0.00000
   8        6PZ         0.00000  -0.00972   0.00000   0.10553  -0.05457
   9        7PX         0.00000   0.00000   0.00000   0.00000   0.00000
  10        7PY         0.00004   0.00000   0.08399   0.00000   0.00000
  11        7PZ         0.00000  -0.01991   0.00000   0.13123  -0.07633
  12        8PX         0.00000   0.00000   0.00000   0.00000   0.00000
  13        8PY        -0.00005   0.00000   0.00417   0.00000   0.00000
  14        8PZ         0.00000   0.00799   0.00000   0.00401  -0.04664
  15        9PX         0.00000   0.00000   0.00000   0.00000   0.00000
  16        9PY        -0.00001   0.00000   0.00834   0.00000   0.00000
  17        9PZ         0.00000  -0.00379   0.00000   0.00828  -0.02176
  18       10D 0        0.00000   0.00450   0.00000   0.00989   0.01024
  19       10D+1        0.00000   0.00000   0.00000   0.00000   0.00000
  20       10D-1        0.00000   0.00000  -0.00846   0.00000   0.00000
  21       10D+2        0.00000  -0.00708   0.00000   0.00129   0.00366
  22       10D-2        0.00000   0.00000   0.00000   0.00000   0.00000
  23       11D 0        0.00000   0.00619   0.00000   0.01097   0.03013
  24       11D+1        0.00000   0.00000   0.00000   0.00000   0.00000
  25       11D-1       -0.00006   0.00000  -0.01776   0.00000   0.00000
  26       11D+2        0.00000  -0.01097   0.00000   0.00328   0.01364
  27       11D-2        0.00000   0.00000   0.00000   0.00000   0.00000
  28       12D 0        0.00000   0.00377   0.00000   0.00330  -0.04129
  29       12D+1        0.00000   0.00000   0.00000   0.00000   0.00000
  30       12D-1       -0.00002   0.00000   0.01220   0.00000   0.00000
  31       12D+2        0.00000   0.00775   0.00000   0.00470  -0.02646
  32       12D-2        0.00000   0.00000   0.00000   0.00000   0.00000
  33       13F 0        0.00000   0.00406   0.00000   0.00471  -0.00110
  34       13F+1        0.00000   0.00000   0.00000   0.00000   0.00000
  35       13F-1        0.00000   0.00000   0.00193   0.00000   0.00000
  36       13F+2        0.00000   0.00460   0.00000  -0.00027   0.00166
  37       13F-2        0.00000   0.00000   0.00000   0.00000   0.00000
  38       13F+3        0.00000   0.00000   0.00000   0.00000   0.00000
  39       13F-3        0.00000   0.00000  -0.00242   0.00000   0.00000
  40       14F 0        0.00000   0.00129   0.00000  -0.00108  -0.00293
  41       14F+1        0.00000   0.00000   0.00000   0.00000   0.00000
  42       14F-1       -0.00001   0.00000   0.00049   0.00000   0.00000
  43       14F+2        0.00000   0.00178   0.00000  -0.00019   0.00155
  44       14F-2        0.00000   0.00000   0.00000   0.00000   0.00000
  45       14F+3        0.00000   0.00000   0.00000   0.00000   0.00000
  46       14F-3       -0.00001   0.00000  -0.00071   0.00000   0.00000
  47 2   Cl 1S          0.70305   0.04513  -0.05310  -0.02183  -0.01158
  48        2S          0.00711  -0.16869   0.19861   0.08167   0.04397
  49        3S          0.00011   0.36075  -0.42559  -0.17616  -0.09581
  50        4S          0.00016   0.04369  -0.05347  -0.02303  -0.01504
  51        5S         -0.00004   0.21786  -0.26436  -0.11531  -0.10034
  52        6S         -0.00005  -0.00678   0.01010   0.00269  -0.02634
  53        7PX         0.00000   0.00000   0.00000   0.00000   0.00000
  54        7PY        -0.00050  -0.01653  -0.00006   0.00107  -0.11149
  55        7PZ        -0.00042  -0.00748   0.00753  -0.01863   0.10242
  56        8PX         0.00000   0.00000   0.00000   0.00000   0.00000
  57        8PY         0.00006   0.02462   0.01613  -0.00199   0.25412
  58        8PZ         0.00004   0.00592  -0.01013   0.04779  -0.24566
  59        9PX         0.00000   0.00000   0.00000   0.00000   0.00000
  60        9PY        -0.00006   0.01074   0.00734  -0.00025   0.12137
  61        9PZ        -0.00005   0.00301  -0.00429   0.02239  -0.11760
  62       10PX         0.00000   0.00000   0.00000   0.00000   0.00000
  63       10PY        -0.00006  -0.00082   0.01538  -0.00702   0.13126
  64       10PZ        -0.00003  -0.00288   0.00344   0.02609  -0.17776
  65       11PX         0.00000   0.00000   0.00000   0.00000   0.00000
  66       11PY        -0.00001  -0.00399   0.00286   0.00043   0.00048
  67       11PZ         0.00000  -0.00164   0.00318  -0.00010  -0.00604
  68       12D 0        0.00000  -0.00054  -0.00080   0.00279  -0.00687
  69       12D+1        0.00000   0.00000   0.00000   0.00000   0.00000
  70       12D-1        0.00001   0.00734  -0.00540   0.00261   0.00287
  71       12D+2        0.00000  -0.00601   0.00271   0.00064  -0.01018
  72       12D-2        0.00000   0.00000   0.00000   0.00000   0.00000
  73       13D 0        0.00000  -0.00119  -0.00178   0.00468  -0.00841
  74       13D+1        0.00000   0.00000   0.00000   0.00000   0.00000
  75       13D-1        0.00002   0.00715  -0.00467   0.00424   0.00201
  76       13D+2       -0.00001  -0.00630   0.00176   0.00156  -0.01209
  77       13D-2        0.00000   0.00000   0.00000   0.00000   0.00000
  78       14D 0        0.00000   0.00103   0.00106   0.00299  -0.00869
  79       14D+1        0.00000   0.00000   0.00000   0.00000   0.00000
  80       14D-1       -0.00002  -0.00192   0.00316   0.00205  -0.00361
  81       14D+2        0.00002   0.00179  -0.00257   0.00069  -0.00673
  82       14D-2        0.00000   0.00000   0.00000   0.00000   0.00000
  83       15F 0        0.00000  -0.00133   0.00089   0.00057  -0.00226
  84       15F+1        0.00000   0.00000   0.00000   0.00000   0.00000
  85       15F-1        0.00000   0.00070  -0.00154   0.00133  -0.00386
  86       15F+2        0.00000  -0.00254   0.00213  -0.00014  -0.00169
  87       15F-2        0.00000   0.00000   0.00000   0.00000   0.00000
  88       15F+3        0.00000   0.00000   0.00000   0.00000   0.00000
  89       15F-3        0.00000  -0.00188   0.00082   0.00066  -0.00343
  90       16F 0        0.00000  -0.00015  -0.00034   0.00001  -0.00041
  91       16F+1        0.00000   0.00000   0.00000   0.00000   0.00000
  92       16F-1        0.00000  -0.00016   0.00005   0.00149  -0.00207
  93       16F+2        0.00000   0.00010  -0.00068  -0.00027  -0.00058
  94       16F-2        0.00000   0.00000   0.00000   0.00000   0.00000
  95       16F+3        0.00000   0.00000   0.00000   0.00000   0.00000
  96       16F-3        0.00000   0.00029  -0.00040   0.00022  -0.00131
  97 3   Cl 1S         -0.70715   0.04513   0.05310  -0.02183  -0.01158
  98        2S         -0.00715  -0.16869  -0.19861   0.08167   0.04397
  99        3S         -0.00011   0.36075   0.42559  -0.17616  -0.09581
 100        4S         -0.00016   0.04369   0.05347  -0.02303  -0.01504
 101        5S          0.00004   0.21786   0.26436  -0.11531  -0.10034
 102        6S          0.00005  -0.00678  -0.01010   0.00269  -0.02634
 103        7PX         0.00000   0.00000   0.00000   0.00000   0.00000
 104        7PY        -0.00051   0.01653  -0.00006  -0.00107   0.11149
 105        7PZ         0.00042  -0.00748  -0.00753  -0.01863   0.10242
 106        8PX         0.00000   0.00000   0.00000   0.00000   0.00000
 107        8PY         0.00006  -0.02462   0.01613   0.00199  -0.25412
 108        8PZ        -0.00004   0.00592   0.01013   0.04779  -0.24566
 109        9PX         0.00000   0.00000   0.00000   0.00000   0.00000
 110        9PY        -0.00006  -0.01074   0.00734   0.00025  -0.12137
 111        9PZ         0.00005   0.00301   0.00429   0.02239  -0.11760
 112       10PX         0.00000   0.00000   0.00000   0.00000   0.00000
 113       10PY        -0.00006   0.00082   0.01538   0.00702  -0.13126
 114       10PZ         0.00003  -0.00288  -0.00344   0.02609  -0.17776
 115       11PX         0.00000   0.00000   0.00000   0.00000   0.00000
 116       11PY        -0.00001   0.00399   0.00286  -0.00043  -0.00048
 117       11PZ         0.00000  -0.00164  -0.00318  -0.00010  -0.00604
 118       12D 0        0.00000  -0.00054   0.00080   0.00279  -0.00687
 119       12D+1        0.00000   0.00000   0.00000   0.00000   0.00000
 120       12D-1        0.00001  -0.00734  -0.00540  -0.00261  -0.00287
 121       12D+2        0.00000  -0.00601  -0.00271   0.00064  -0.01018
 122       12D-2        0.00000   0.00000   0.00000   0.00000   0.00000
 123       13D 0        0.00000  -0.00119   0.00178   0.00468  -0.00841
 124       13D+1        0.00000   0.00000   0.00000   0.00000   0.00000
 125       13D-1        0.00002  -0.00715  -0.00467  -0.00424  -0.00201
 126       13D+2        0.00001  -0.00630  -0.00176   0.00156  -0.01209
 127       13D-2        0.00000   0.00000   0.00000   0.00000   0.00000
 128       14D 0        0.00000   0.00103  -0.00106   0.00299  -0.00869
 129       14D+1        0.00000   0.00000   0.00000   0.00000   0.00000
 130       14D-1       -0.00002   0.00192   0.00316  -0.00205   0.00361
 131       14D+2       -0.00002   0.00179   0.00257   0.00069  -0.00673
 132       14D-2        0.00000   0.00000   0.00000   0.00000   0.00000
 133       15F 0        0.00000  -0.00133  -0.00089   0.00057  -0.00226
 134       15F+1        0.00000   0.00000   0.00000   0.00000   0.00000
 135       15F-1        0.00000  -0.00070  -0.00154  -0.00133   0.00386
 136       15F+2        0.00000  -0.00254  -0.00213  -0.00014  -0.00169
 137       15F-2        0.00000   0.00000   0.00000   0.00000   0.00000
 138       15F+3        0.00000   0.00000   0.00000   0.00000   0.00000
 139       15F-3        0.00000   0.00188   0.00082  -0.00066   0.00343
 140       16F 0        0.00000  -0.00015   0.00034   0.00001  -0.00041
 141       16F+1        0.00000   0.00000   0.00000   0.00000   0.00000
 142       16F-1        0.00000   0.00016   0.00005  -0.00149   0.00207
 143       16F+2        0.00000   0.00010   0.00068  -0.00027  -0.00058
 144       16F-2        0.00000   0.00000   0.00000   0.00000   0.00000
 145       16F+3        0.00000   0.00000   0.00000   0.00000   0.00000
 146       16F-3        0.00000  -0.00029  -0.00040  -0.00022   0.00131
 147 4   S  1S          0.00233   0.01699   0.00000   0.05778   0.00443
 148        2S          0.00003  -0.06534   0.00000  -0.22113  -0.01699
 149        3S          0.00000   0.13524   0.00000   0.46757   0.03729
 150        4S          0.00000   0.01629   0.00000   0.06071   0.00519
 151        5S          0.00000   0.05635   0.00000   0.24132   0.07602
 152        6S          0.00000  -0.00362   0.00000  -0.03150   0.02490
 153        7PX         0.00000   0.00000   0.00000   0.00000   0.00000
 154        7PY         0.00024   0.00000  -0.01119   0.00000   0.00000
 155        7PZ         0.00000   0.02244   0.00000   0.04531   0.00229
 156        8PX         0.00000   0.00000   0.00000   0.00000   0.00000
 157        8PY         0.00002   0.00000   0.03271   0.00000   0.00000
 158        8PZ         0.00000  -0.03374   0.00000  -0.05703  -0.00716
 159        9PX         0.00000   0.00000   0.00000   0.00000   0.00000
 160        9PY         0.00001   0.00000   0.01240   0.00000   0.00000
 161        9PZ         0.00000  -0.01683   0.00000  -0.03198  -0.00215
 162       10PX         0.00000   0.00000   0.00000   0.00000   0.00000
 163       10PY         0.00002   0.00000   0.00988   0.00000   0.00000
 164       10PZ         0.00000   0.00123   0.00000   0.01636  -0.01726
 165       11PX         0.00000   0.00000   0.00000   0.00000   0.00000
 166       11PY         0.00000   0.00000  -0.00152   0.00000   0.00000
 167       11PZ         0.00000   0.00246   0.00000   0.00831   0.00065
 168       12D 0        0.00000   0.00680   0.00000   0.00974   0.00089
 169       12D+1        0.00000   0.00000   0.00000   0.00000   0.00000
 170       12D-1       -0.00002   0.00000  -0.00516   0.00000   0.00000
 171       12D+2        0.00000   0.00019   0.00000   0.00039   0.00330
 172       12D-2        0.00000   0.00000   0.00000   0.00000   0.00000
 173       13D 0        0.00000   0.01033   0.00000   0.02464   0.00139
 174       13D+1        0.00000   0.00000   0.00000   0.00000   0.00000
 175       13D-1        0.00000   0.00000  -0.00350   0.00000   0.00000
 176       13D+2        0.00000  -0.00001   0.00000   0.00100   0.00246
 177       13D-2        0.00000   0.00000   0.00000   0.00000   0.00000
 178       14D 0        0.00000  -0.00258   0.00000  -0.00908  -0.00081
 179       14D+1        0.00000   0.00000   0.00000   0.00000   0.00000
 180       14D-1       -0.00001   0.00000   0.00205   0.00000   0.00000
 181       14D+2        0.00000  -0.00174   0.00000  -0.00085   0.00544
 182       14D-2        0.00000   0.00000   0.00000   0.00000   0.00000
 183       15F 0        0.00000  -0.00313   0.00000  -0.00892  -0.00083
 184       15F+1        0.00000   0.00000   0.00000   0.00000   0.00000
 185       15F-1        0.00000   0.00000   0.00174   0.00000   0.00000
 186       15F+2        0.00000   0.00020   0.00000  -0.00033  -0.00043
 187       15F-2        0.00000   0.00000   0.00000   0.00000   0.00000
 188       15F+3        0.00000   0.00000   0.00000   0.00000   0.00000
 189       15F-3        0.00000   0.00000   0.00009   0.00000   0.00000
 190       16F 0        0.00000   0.00081   0.00000   0.00528  -0.00017
 191       16F+1        0.00000   0.00000   0.00000   0.00000   0.00000
 192       16F-1        0.00001   0.00000   0.00074   0.00000   0.00000
 193       16F+2        0.00000  -0.00065   0.00000  -0.00077  -0.00131
 194       16F-2        0.00000   0.00000   0.00000   0.00000   0.00000
 195       16F+3        0.00000   0.00000   0.00000   0.00000   0.00000
 196       16F-3        0.00000   0.00000   0.00035   0.00000   0.00000
                          21        22        23        24        25
     Eigenvalues --     1.94895   1.94882   1.94812   1.94662   1.94116
   1 1   C  1S          0.11978   0.00000   0.00000   0.00000   0.00000
   2        2S         -0.33477   0.00000   0.00000   0.00000   0.00000
   3        3S         -0.08020   0.00000   0.00000   0.00000   0.00000
   4        4S         -0.20926   0.00000   0.00000   0.00000   0.00000
   5        5S         -0.00730   0.00000   0.00000   0.00000   0.00000
   6        6PX         0.00000   0.00000   0.09682   0.00000   0.00000
   7        6PY         0.00000   0.08251   0.00000   0.00000   0.16836
   8        6PZ         0.03625   0.00000   0.00000   0.00000   0.00000
   9        7PX         0.00000   0.00000   0.13824   0.00000   0.00000
  10        7PY         0.00000   0.11308   0.00000   0.00000   0.23749
  11        7PZ         0.06191   0.00000   0.00000   0.00000   0.00000
  12        8PX         0.00000   0.00000   0.06308   0.00000   0.00000
  13        8PY         0.00000   0.03485   0.00000   0.00000   0.08332
  14        8PZ        -0.01925   0.00000   0.00000   0.00000   0.00000
  15        9PX         0.00000   0.00000   0.00677   0.00000   0.00000
  16        9PY         0.00000   0.01051   0.00000   0.00000  -0.00727
  17        9PZ        -0.00324   0.00000   0.00000   0.00000   0.00000
  18       10D 0        0.00193   0.00000   0.00000   0.00000   0.00000
  19       10D+1        0.00000   0.00000  -0.00714   0.00000   0.00000
  20       10D-1        0.00000   0.00498   0.00000   0.00000  -0.00675
  21       10D+2        0.00747   0.00000   0.00000   0.00000   0.00000
  22       10D-2        0.00000   0.00000   0.00000  -0.01063   0.00000
  23       11D 0        0.00773   0.00000   0.00000   0.00000   0.00000
  24       11D+1        0.00000   0.00000  -0.02295   0.00000   0.00000
  25       11D-1        0.00000   0.01639   0.00000   0.00000  -0.01394
  26       11D+2        0.01710   0.00000   0.00000   0.00000   0.00000
  27       11D-2        0.00000   0.00000   0.00000  -0.03235   0.00000
  28       12D 0       -0.02156   0.00000   0.00000   0.00000   0.00000
  29       12D+1        0.00000   0.00000   0.01675   0.00000   0.00000
  30       12D-1        0.00000  -0.03742   0.00000   0.00000   0.01161
  31       12D+2       -0.00670   0.00000   0.00000   0.00000   0.00000
  32       12D-2        0.00000   0.00000   0.00000   0.01091   0.00000
  33       13F 0       -0.00362   0.00000   0.00000   0.00000   0.00000
  34       13F+1        0.00000   0.00000   0.00232   0.00000   0.00000
  35       13F-1        0.00000  -0.00250   0.00000   0.00000   0.00782
  36       13F+2       -0.00474   0.00000   0.00000   0.00000   0.00000
  37       13F-2        0.00000   0.00000   0.00000   0.00443   0.00000
  38       13F+3        0.00000   0.00000  -0.00484   0.00000   0.00000
  39       13F-3        0.00000  -0.00301   0.00000   0.00000  -0.00296
  40       14F 0       -0.00689   0.00000   0.00000   0.00000   0.00000
  41       14F+1        0.00000   0.00000   0.00230   0.00000   0.00000
  42       14F-1        0.00000  -0.00900   0.00000   0.00000  -0.00098
  43       14F+2       -0.00196   0.00000   0.00000   0.00000   0.00000
  44       14F-2        0.00000   0.00000   0.00000   0.00569   0.00000
  45       14F+3        0.00000   0.00000  -0.00339   0.00000   0.00000
  46       14F-3        0.00000  -0.00312   0.00000   0.00000   0.00105
  47 2   Cl 1S          0.01457   0.00879   0.00000   0.00000   0.00667
  48        2S         -0.05534  -0.03400   0.00000   0.00000  -0.02693
  49        3S          0.12286   0.07194   0.00000   0.00000   0.05764
  50        4S          0.01950   0.01155   0.00000   0.00000   0.01077
[...]
  52        6S        -13.78232   0.00000   7.22105   5.55500   9.93315
  53        7PX         0.00000  -0.01630   0.00000   0.00000   0.00000
  54        7PY         0.02346   0.00000  -0.01324   0.00341  -0.01650
  55        7PZ         0.00125   0.00000  -0.00376  -0.01147  -0.01417
  56        8PX         0.00000  -0.19147   0.00000   0.00000   0.00000
  57        8PY         0.38013   0.00000  -0.16820   0.04132  -0.26475
  58        8PZ         0.02806   0.00000  -0.03837  -0.14816  -0.23260
  59        9PX         0.00000   0.06248   0.00000   0.00000   0.00000
  60        9PY        -0.08632   0.00000   0.05144  -0.01269   0.06237
  61        9PZ        -0.00145   0.00000   0.01549   0.04488   0.05402
  62       10PX         0.00000   0.83066   0.00000   0.00000   0.00000
  63       10PY        -5.27384   0.00000   0.81764   0.62771   1.89736
  64       10PZ        -2.65423   0.00000   0.58722   1.42783   1.33549
  65       11PX         0.00000  -2.39020   0.00000   0.00000   0.00000
  66       11PY        -2.44026   0.00000  -1.69173   1.31449   1.46095
  67       11PZ        -1.44649   0.00000   1.02204  -2.68698   1.64386
  68       12D 0        0.01837   0.00000  -0.01042  -0.02332  -0.00533
  69       12D+1        0.00000  -0.01432   0.00000   0.00000   0.00000
  70       12D-1       -0.01962   0.00000   0.00291  -0.00057   0.01661
  71       12D+2        0.04151   0.00000   0.04271   0.00782   0.01329
  72       12D-2        0.00000  -0.02201   0.00000   0.00000   0.00000
  73       13D 0       -0.10918   0.00000   0.05592   0.08939   0.00265
  74       13D+1        0.00000   0.06120   0.00000   0.00000   0.00000
  75       13D-1        0.00431   0.00000   0.01606   0.03963  -0.09331
  76       13D+2       -0.12921   0.00000  -0.14807  -0.03668  -0.03447
  77       13D-2        0.00000   0.09236   0.00000   0.00000   0.00000
  78       14D 0        0.38376   0.00000  -0.01855  -0.18638   0.08389
  79       14D+1        0.00000  -0.08869   0.00000   0.00000   0.00000
  80       14D-1       -1.29263   0.00000   0.16428   0.33000   0.50395
  81       14D+2        1.05339   0.00000   0.30359  -0.03869  -0.30917
  82       14D-2        0.00000   0.09609   0.00000   0.00000   0.00000
  83       15F 0       -0.01739   0.00000   0.02901   0.00244   0.00797
  84       15F+1        0.00000  -0.01160   0.00000   0.00000   0.00000
  85       15F-1        0.03707   0.00000  -0.00667   0.01304  -0.00371
  86       15F+2       -0.01944   0.00000   0.00837   0.02727   0.02099
  87       15F-2        0.00000  -0.00508   0.00000   0.00000   0.00000
  88       15F+3        0.00000   0.05083   0.00000   0.00000   0.00000
  89       15F-3        0.01646   0.00000   0.02010  -0.00304   0.03290
  90       16F 0        0.07294   0.00000  -0.06254  -0.04436   0.00478
  91       16F+1        0.00000   0.00867   0.00000   0.00000   0.00000
  92       16F-1       -0.12699   0.00000   0.03563  -0.02604   0.00097
  93       16F+2        0.10326   0.00000  -0.01876  -0.07672  -0.03699
  94       16F-2        0.00000   0.02289   0.00000   0.00000   0.00000
  95       16F+3        0.00000  -0.12966   0.00000   0.00000   0.00000
  96       16F-3       -0.00579   0.00000  -0.02088   0.00821  -0.07417
  97 3   Cl 1S         -0.01587   0.00000  -0.00989   0.00544   0.00329
  98        2S         -0.21364   0.00000  -0.18413   0.10356   0.07673
  99        3S         -0.60597   0.00000  -0.41492   0.22768   0.14941
 100        4S          0.02646   0.00000   0.16655  -0.10739  -0.09651
 101        5S          4.87802   0.00000   0.87488   0.02739  -0.13273
 102        6S         13.78232   0.00000  -7.22105   5.55500   9.93315
 103        7PX         0.00000  -0.01630   0.00000   0.00000   0.00000
 104        7PY         0.02346   0.00000  -0.01324  -0.00341   0.01650
 105        7PZ        -0.00125   0.00000   0.00376  -0.01147  -0.01417
 106        8PX         0.00000  -0.19147   0.00000   0.00000   0.00000
 107        8PY         0.38013   0.00000  -0.16820  -0.04132   0.26475
 108        8PZ        -0.02806   0.00000   0.03837  -0.14816  -0.23260
 109        9PX         0.00000   0.06248   0.00000   0.00000   0.00000
 110        9PY        -0.08632   0.00000   0.05144   0.01269  -0.06237
 111        9PZ         0.00145   0.00000  -0.01549   0.04488   0.05402
 112       10PX         0.00000   0.83066   0.00000   0.00000   0.00000
 113       10PY        -5.27384   0.00000   0.81764  -0.62771  -1.89736
 114       10PZ         2.65423   0.00000  -0.58722   1.42783   1.33549
 115       11PX         0.00000  -2.39020   0.00000   0.00000   0.00000
 116       11PY        -2.44026   0.00000  -1.69173  -1.31449  -1.46095
 117       11PZ         1.44649   0.00000  -1.02204  -2.68698   1.64386
 118       12D 0       -0.01837   0.00000   0.01042  -0.02332  -0.00533
 119       12D+1        0.00000  -0.01432   0.00000   0.00000   0.00000
 120       12D-1       -0.01962   0.00000   0.00291   0.00057  -0.01661
 121       12D+2       -0.04151   0.00000  -0.04271   0.00782   0.01329
 122       12D-2        0.00000   0.02201   0.00000   0.00000   0.00000
 123       13D 0        0.10918   0.00000  -0.05592   0.08939   0.00265
 124       13D+1        0.00000   0.06120   0.00000   0.00000   0.00000
 125       13D-1        0.00431   0.00000   0.01606  -0.03963   0.09331
 126       13D+2        0.12921   0.00000   0.14807  -0.03668  -0.03447
 127       13D-2        0.00000  -0.09236   0.00000   0.00000   0.00000
 128       14D 0       -0.38376   0.00000   0.01855  -0.18638   0.08389
 129       14D+1        0.00000  -0.08869   0.00000   0.00000   0.00000
 130       14D-1       -1.29263   0.00000   0.16428  -0.33000  -0.50395
 131       14D+2       -1.05339   0.00000  -0.30359  -0.03869  -0.30917
 132       14D-2        0.00000  -0.09609   0.00000   0.00000   0.00000
 133       15F 0        0.01739   0.00000  -0.02901   0.00244   0.00797
 134       15F+1        0.00000  -0.01160   0.00000   0.00000   0.00000
 135       15F-1        0.03707   0.00000  -0.00667  -0.01304   0.00371
 136       15F+2        0.01944   0.00000  -0.00837   0.02727   0.02099
 137       15F-2        0.00000   0.00508   0.00000   0.00000   0.00000
 138       15F+3        0.00000   0.05083   0.00000   0.00000   0.00000
 139       15F-3        0.01646   0.00000   0.02010   0.00304  -0.03290
 140       16F 0       -0.07294   0.00000   0.06254  -0.04436   0.00478
 141       16F+1        0.00000   0.00867   0.00000   0.00000   0.00000
 142       16F-1       -0.12699   0.00000   0.03563   0.02604  -0.00097
 143       16F+2       -0.10326   0.00000   0.01876  -0.07672  -0.03699
 144       16F-2        0.00000  -0.02289   0.00000   0.00000   0.00000
 145       16F+3        0.00000  -0.12966   0.00000   0.00000   0.00000
 146       16F-3       -0.00579   0.00000  -0.02088  -0.00821   0.07417
 147 4   S  1S          0.00000   0.00000   0.00000   0.00173  -0.00371
 148        2S          0.00000   0.00000   0.00000  -0.00430  -0.05956
 149        3S          0.00000   0.00000   0.00000   0.05041  -0.16446
 150        4S          0.00000   0.00000   0.00000   0.10724   0.01627
 151        5S          0.00000   0.00000   0.00000  -3.74972   2.37740
 152        6S          0.00000   0.00000   0.00000 -15.56774   4.99413
 153        7PX         0.00000  -0.02017   0.00000   0.00000   0.00000
 154        7PY         0.01769   0.00000   0.00380   0.00000   0.00000
 155        7PZ         0.00000   0.00000   0.00000  -0.00739  -0.00028
 156        8PX         0.00000  -0.09040   0.00000   0.00000   0.00000
 157        8PY         0.27086   0.00000   0.13713   0.00000   0.00000
 158        8PZ         0.00000   0.00000   0.00000  -0.01135  -0.11281
 159        9PX         0.00000   0.07575   0.00000   0.00000   0.00000
 160        9PY        -0.06621   0.00000  -0.01239   0.00000   0.00000
 161        9PZ         0.00000   0.00000   0.00000   0.02070  -0.00204
 162       10PX         0.00000  -0.61410   0.00000   0.00000   0.00000
 163       10PY        -3.55976   0.00000  -0.45161   0.00000   0.00000
 164       10PZ         0.00000   0.00000   0.00000   3.58981  -0.52116
 165       11PX         0.00000  -4.13819   0.00000   0.00000   0.00000
 166       11PY        -0.08362   0.00000  -4.78905   0.00000   0.00000
 167       11PZ         0.00000   0.00000   0.00000  -1.06928   0.72142
 168       12D 0        0.00000   0.00000   0.00000  -0.44605   0.33268
 169       12D+1        0.00000  -0.34453   0.00000   0.00000   0.00000
 170       12D-1       -0.08187   0.00000  -0.36105   0.00000   0.00000
 171       12D+2        0.00000   0.00000   0.00000   0.10695  -0.15292
 172       12D-2        0.00000   0.00000   0.00000   0.00000   0.00000
 173       13D 0        0.00000   0.00000   0.00000   0.08255  -0.08380
 174       13D+1        0.00000   0.06925   0.00000   0.00000   0.00000
 175       13D-1        0.04327   0.00000   0.06927   0.00000   0.00000
 176       13D+2        0.00000   0.00000   0.00000  -0.03194   0.03165
 177       13D-2        0.00000   0.00000   0.00000   0.00000   0.00000
 178       14D 0        0.00000   0.00000   0.00000   0.15023  -1.12163
 179       14D+1        0.00000   1.22411   0.00000   0.00000   0.00000
 180       14D-1        1.48079   0.00000   0.94155   0.00000   0.00000
 181       14D+2        0.00000   0.00000   0.00000  -0.43853   0.18409
 182       14D-2        0.00000   0.00000   0.00000   0.00000   0.00000
 183       15F 0        0.00000   0.00000   0.00000  -0.01351  -0.00974
 184       15F+1        0.00000   0.01520   0.00000   0.00000   0.00000
 185       15F-1       -0.06854   0.00000   0.00684   0.00000   0.00000
 186       15F+2        0.00000   0.00000   0.00000  -0.01241   0.00190
 187       15F-2        0.00000   0.00000   0.00000   0.00000   0.00000
 188       15F+3        0.00000   0.02649   0.00000   0.00000   0.00000
 189       15F-3       -0.00279   0.00000   0.04057   0.00000   0.00000
 190       16F 0        0.00000   0.00000   0.00000   0.08257   0.12501
 191       16F+1        0.00000  -0.01420   0.00000   0.00000   0.00000
 192       16F-1        0.10312   0.00000   0.00841   0.00000   0.00000
 193       16F+2        0.00000   0.00000   0.00000   0.07180   0.01811
 194       16F-2        0.00000   0.00000   0.00000   0.00000   0.00000
 195       16F+3        0.00000  -0.05994   0.00000   0.00000   0.00000
 196       16F-3        0.01684   0.00000  -0.09453   0.00000   0.00000
                         196
     Eigenvalues --     0.00000
   1 1   C  1S         -0.02999
   2        2S         -0.10577
   3        3S          0.13069
   4        4S          2.57114
   5        5S         20.65274
   6        6PX         0.00000
   7        6PY         0.00000
   8        6PZ         0.02313
   9        7PX         0.00000
  10        7PY         0.00000
  11        7PZ        -0.21783
  12        8PX         0.00000
  13        8PY         0.00000
  14        8PZ         1.14518
  15        9PX         0.00000
  16        9PY         0.00000
  17        9PZ         3.25839
  18       10D 0        0.01145
  19       10D+1        0.00000
  20       10D-1        0.00000
  21       10D+2       -0.03442
  22       10D-2        0.00000
  23       11D 0       -0.34250
  24       11D+1        0.00000
  25       11D-1        0.00000
  26       11D+2        0.16575
  27       11D-2        0.00000
  28       12D 0       -1.07448
  29       12D+1        0.00000
  30       12D-1        0.00000
  31       12D+2       -0.73254
  32       12D-2        0.00000
  33       13F 0       -0.02622
  34       13F+1        0.00000
  35       13F-1        0.00000
  36       13F+2       -0.00014
  37       13F-2        0.00000
  38       13F+3        0.00000
  39       13F-3        0.00000
  40       14F 0       -0.14282
  41       14F+1        0.00000
  42       14F-1        0.00000
  43       14F+2       -0.12078
  44       14F-2        0.00000
  45       14F+3        0.00000
  46       14F-3        0.00000
  47 2   Cl 1S         -0.00086
  48        2S         -0.01124
  49        3S         -0.03271
  50        4S         -0.00355
  51        5S          0.36313
  52        6S         -3.28599
  53        7PX         0.00000
  54        7PY         0.00770
  55        7PZ         0.00345
  56        8PX         0.00000
  57        8PY         0.13798
  58        8PZ         0.08577
  59        9PX         0.00000
  60        9PY        -0.02767
  61        9PZ        -0.01056
  62       10PX         0.00000
  63       10PY         0.16887
  64       10PZ        -0.41502
  65       11PX         0.00000
  66       11PY        -0.71047
  67       11PZ        -0.97138
  68       12D 0        0.00836
  69       12D+1        0.00000
  70       12D-1       -0.00981
  71       12D+2       -0.00797
  72       12D-2        0.00000
  73       13D 0       -0.04155
  74       13D+1        0.00000
  75       13D-1        0.08509
  76       13D+2       -0.00833
  77       13D-2        0.00000
  78       14D 0       -0.05209
  79       14D+1        0.00000
  80       14D-1       -0.16802
  81       14D+2       -0.17560
  82       14D-2        0.00000
  83       15F 0       -0.00506
  84       15F+1        0.00000
  85       15F-1        0.00654
  86       15F+2       -0.00374
  87       15F-2        0.00000
  88       15F+3        0.00000
  89       15F-3       -0.00157
  90       16F 0        0.00545
  91       16F+1        0.00000
  92       16F-1       -0.02098
  93       16F+2       -0.00348
  94       16F-2        0.00000
  95       16F+3        0.00000
  96       16F-3       -0.01151
  97 3   Cl 1S         -0.00086
  98        2S         -0.01124
  99        3S         -0.03271
 100        4S         -0.00355
 101        5S          0.36313
 102        6S         -3.28599
 103        7PX         0.00000
 104        7PY        -0.00770
 105        7PZ         0.00345
 106        8PX         0.00000
 107        8PY        -0.13798
 108        8PZ         0.08577
 109        9PX         0.00000
 110        9PY         0.02767
 111        9PZ        -0.01056
 112       10PX         0.00000
 113       10PY        -0.16887
 114       10PZ        -0.41502
 115       11PX         0.00000
 116       11PY         0.71047
 117       11PZ        -0.97138
 118       12D 0        0.00836
 119       12D+1        0.00000
 120       12D-1        0.00981
 121       12D+2       -0.00797
 122       12D-2        0.00000
 123       13D 0       -0.04155
 124       13D+1        0.00000
 125       13D-1       -0.08509
 126       13D+2       -0.00833
 127       13D-2        0.00000
 128       14D 0       -0.05209
 129       14D+1        0.00000
 130       14D-1        0.16802
 131       14D+2       -0.17560
 132       14D-2        0.00000
 133       15F 0       -0.00506
 134       15F+1        0.00000
 135       15F-1       -0.00654
 136       15F+2       -0.00374
 137       15F-2        0.00000
 138       15F+3        0.00000
 139       15F-3        0.00157
 140       16F 0        0.00545
 141       16F+1        0.00000
 142       16F-1        0.02098
 143       16F+2       -0.00348
 144       16F-2        0.00000
 145       16F+3        0.00000
 146       16F-3        0.01151
 147 4   S  1S         -0.00391
 148        2S         -0.10294
 149        3S         -0.21209
 150        4S          0.10216
 151        5S          2.84327
 152        6S        -18.10931
 153        7PX         0.00000
 154        7PY         0.00000
 155        7PZ        -0.04627
 156        8PX         0.00000
 157        8PY         0.00000
 158        8PZ        -0.93369
 159        9PX         0.00000
 160        9PY         0.00000
 161        9PZ         0.14379
 162       10PX         0.00000
 163       10PY         0.00000
 164       10PZ         3.46549
 165       11PX         0.00000
 166       11PY         0.00000
 167       11PZ         4.78030
 168       12D 0        0.32385
 169       12D+1        0.00000
 170       12D-1        0.00000
 171       12D+2        0.08892
 172       12D-2        0.00000
 173       13D 0       -0.00578
 174       13D+1        0.00000
 175       13D-1        0.00000
 176       13D+2       -0.02017
 177       13D-2        0.00000
 178       14D 0       -1.75272
 179       14D+1        0.00000
 180       14D-1        0.00000
 181       14D+2        0.04733
 182       14D-2        0.00000
 183       15F 0       -0.08927
 184       15F+1        0.00000
 185       15F-1        0.00000
 186       15F+2        0.01215
 187       15F-2        0.00000
 188       15F+3        0.00000
 189       15F-3        0.00000
 190       16F 0        0.19346
 191       16F+1        0.00000
 192       16F-1        0.00000
 193       16F+2       -0.08688
 194       16F-2        0.00000
 195       16F+3        0.00000
 196       16F-3        0.00000
          Condensed to atoms (all electrons):
              1          2          3          4
     1  C    5.670437   0.073257   0.073257   0.178648
     2  Cl   0.073257  17.194968  -0.120021  -0.131017
     3  Cl   0.073257  -0.120021  17.194968  -0.131017
     4  S    0.178648  -0.131017  -0.131017  16.053414
 Mulliken atomic charges:
              1
     1  C    0.004401
     2  Cl  -0.017187
     3  Cl  -0.017187
     4  S    0.029972
 Sum of Mulliken atomic charges =   0.00000
 Mulliken charges with hydrogens summed into heavy atoms:
              1
     1  C    0.004401
     2  Cl  -0.017187
     3  Cl  -0.017187
     4  S    0.029972
 Sum of Mulliken charges with hydrogens summed into heavy atoms =   0.00000
 Electronic spatial extent (au):  <R**2>=            689.4558
 Charge=              0.0000 electrons
 Dipole moment (field-independent basis, Debye):
    X=              0.0000    Y=              0.0000    Z=             -0.3932  Tot=              0.3932
 Quadrupole moment (field-independent basis, Debye-Ang):
   XX=            -43.1201   YY=            -43.3093   ZZ=            -42.5661
   XY=              0.0000   XZ=              0.0000   YZ=              0.0000
 Traceless Quadrupole moment (field-independent basis, Debye-Ang):
   XX=             -0.1216   YY=             -0.3108   ZZ=              0.4324
   XY=              0.0000   XZ=              0.0000   YZ=              0.0000
 Octapole moment (field-independent basis, Debye-Ang**2):
  XXX=              0.0000  YYY=              0.0000  ZZZ=             82.1674  XYY=              0.0000
  XXY=              0.0000  XXZ=             27.3082  XZZ=              0.0000  YZZ=              0.0000
  YYZ=             19.2482  XYZ=              0.0000
 Hexadecapole moment (field-independent basis, Debye-Ang**3):
 XXXX=            -50.7968 YYYY=           -340.6626 ZZZZ=           -476.4697 XXXY=              0.0000
 XXXZ=              0.0000 YYYX=              0.0000 YYYZ=              0.0000 ZZZX=              0.0000
 ZZZY=              0.0000 XXYY=            -69.2326 XXZZ=            -89.4706 YYZZ=           -127.1741
 XXYZ=              0.0000 YYXZ=              0.0000 ZZXY=              0.0000
 N-N= 2.453811238774D+02 E-N=-3.714370484924D+03  KE= 1.355067420282D+03
 1\1\GINC-TRAPISTA\SP\RQCISD-FC\Aug-CC-pVTZ\C1Cl2S1\BRUNS\28-Nov-2021\0
 \\# qcisd/aug-cc-pvtz nosymm density=current output=wfn\\cl2cs-wavefun
 ction\\0,1\C,0,0.,0.,-0.522914\Cl,0,0.,-1.430735,-1.5009\Cl,0,0.,1.430
 735,-1.5009\S,0,0.,0.,1.071815\\Version=EM64L-G09RevB.01\HF=-1354.4262
 753\MP2=-1355.1502914\MP3=-1355.1830212\MP4D=-1355.2046995\MP4DQ=-1355
 .1798979\MP4SDQ=-1355.1866198\QCISD=-1355.1841458\RMSD=9.504e-09\Dipol
 e=0.,0.,-0.1546772\Quadrupole=-0.0903887,-0.2310586,0.3214473,0.,0.,0.
 \PG=C02V [C2(C1S1),SGV(Cl2)]\\@

 Writing a WFN file to GAUSSIAN.wfn.


 NO MATTER HOW THIN YOU SLICE IT, IT'S STILL BALONEY

                                   -- ALFRED E. SMITH
 Job cpu time:  0 days  2 hours 16 minutes 57.0 seconds.
 File lengths (MBytes):  RWF=  18573 Int=      0 D2E=      0 Chk=      3 Scr=      1
 Normal termination of Gaussian 09 at Sun Nov 28 04:22:29 2021.
