 Entering Gaussian System, Link 0=/home/bruns/programas/chemistry/gaussian/g09/g09
 Input=GAUSSIAN.com
 Output=GAUSSIAN.log
 Initial command:
 /home/bruns/programas/chemistry/gaussian/g09/l1.exe /home/bruns/programas/chemistry/gaussian/work/Gau-60098.inp -scrdir=/home/bruns/programas/chemistry/gaussian/work/
 Entering Link 1 = /home/bruns/programas/chemistry/gaussian/g09/l1.exe PID=     60100.
  
 Copyright (c) 1988,1990,1992,1993,1995,1998,2003,2009,2010,
            Gaussian, Inc.  All Rights Reserved.
  
 This is part of the Gaussian(R) 09 program.  It is based on
 the Gaussian(R) 03 system (copyright 2003, Gaussian, Inc.),
 the Gaussian(R) 98 system (copyright 1998, Gaussian, Inc.),
 the Gaussian(R) 94 system (copyright 1995, Gaussian, Inc.),
 the Gaussian 92(TM) system (copyright 1992, Gaussian, Inc.),
 the Gaussian 90(TM) system (copyright 1990, Gaussian, Inc.),
 the Gaussian 88(TM) system (copyright 1988, Gaussian, Inc.),
 the Gaussian 86(TM) system (copyright 1986, Carnegie Mellon
 University), and the Gaussian 82(TM) system (copyright 1983,
 Carnegie Mellon University). Gaussian is a federally registered
 trademark of Gaussian, Inc.
  
 This software contains proprietary and confidential information,
 including trade secrets, belonging to Gaussian, Inc.
  
 This software is provided under written license and may be
 used, copied, transmitted, or stored only in accord with that
 written license.
  
 The following legend is applicable only to US Government
 contracts under FAR:
  
                    RESTRICTED RIGHTS LEGEND
  
 Use, reproduction and disclosure by the US Government is
 subject to restrictions as set forth in subparagraphs (a)
 and (c) of the Commercial Computer Software - Restricted
 Rights clause in FAR 52.227-19.
  
 Gaussian, Inc.
 340 Quinnipiac St., Bldg. 40, Wallingford CT 06492
  
  
 ---------------------------------------------------------------
 Warning -- This program may not be used in any manner that
 competes with the business of Gaussian, Inc. or will provide
 assistance to any competitor of Gaussian, Inc.  The licensee
 of this program is prohibited from giving any competitor of
 Gaussian, Inc. access to this program.  By using this program,
 the user acknowledges that Gaussian, Inc. is engaged in the
 business of creating and licensing software in the field of
 computational chemistry and represents and warrants to the
 licensee that it is not a competitor of Gaussian, Inc. and that
 it will not use this program in any manner prohibited above.
 ---------------------------------------------------------------
  

 Cite this work as:
 Gaussian 09, Revision B.01,
 M. J. Frisch, G. W. Trucks, H. B. Schlegel, G. E. Scuseria, 
 M. A. Robb, J. R. Cheeseman, G. Scalmani, V. Barone, B. Mennucci, 
 G. A. Petersson, H. Nakatsuji, M. Caricato, X. Li, H. P. Hratchian, 
 A. F. Izmaylov, J. Bloino, G. Zheng, J. L. Sonnenberg, M. Hada, 
 M. Ehara, K. Toyota, R. Fukuda, J. Hasegawa, M. Ishida, T. Nakajima, 
 Y. Honda, O. Kitao, H. Nakai, T. Vreven, J. A. Montgomery, Jr., 
 J. E. Peralta, F. Ogliaro, M. Bearpark, J. J. Heyd, E. Brothers, 
 K. N. Kudin, V. N. Staroverov, T. Keith, R. Kobayashi, J. Normand, 
 K. Raghavachari, A. Rendell, J. C. Burant, S. S. Iyengar, J. Tomasi, 
 M. Cossi, N. Rega, J. M. Millam, M. Klene, J. E. Knox, J. B. Cross, 
 V. Bakken, C. Adamo, J. Jaramillo, R. Gomperts, R. E. Stratmann, 
 O. Yazyev, A. J. Austin, R. Cammi, C. Pomelli, J. W. Ochterski, 
 R. L. Martin, K. Morokuma, V. G. Zakrzewski, G. A. Voth, 
 P. Salvador, J. J. Dannenberg, S. Dapprich, A. D. Daniels, 
 O. Farkas, J. B. Foresman, J. V. Ortiz, J. Cioslowski, 
 and D. J. Fox, Gaussian, Inc., Wallingford CT, 2010.
 
 ******************************************
 Gaussian 09:  EM64L-G09RevB.01 12-Aug-2010
                27-Nov-2021 
 ******************************************
 %nproc=8
 Will use up to    8 processors via shared memory.
 %mem=8GB
 -----------------------------------------------------
 # qcisd/aug-cc-pvtz nosymm density=current output=wfn
 -----------------------------------------------------
 1/30=1,38=1/1;
 2/12=2,15=1,17=6,18=5,40=1/2;
 3/5=16,6=1,7=10,11=9,16=1,25=1,30=1,71=1/1,2,3;
 4//1;
 5/5=2,38=5/2;
 8/6=4,9=120000,10=1/1,4;
 9/5=8,15=1/13;
 11/28=-7,31=1,32=3,42=3/11;
 10/5=6,13=10,31=1/2;
 6/7=2,8=2,9=2,10=2,22=-1,31=1/1;
 99/5=1,6=1100,9=1/99;
 ------------------
 cl2cs-wavefunction
 ------------------
 Symbolic Z-matrix:
 Charge =  0 Multiplicity = 1
 C                     0.        0.       -0.52291 
 Cl                    0.       -1.44074  -1.5009 
 Cl                    0.        1.43074  -1.5009 
 S                     0.        0.        1.08181 
 
                          Input orientation:                          
 ---------------------------------------------------------------------
 Center     Atomic      Atomic             Coordinates (Angstroms)
 Number     Number       Type             X           Y           Z
 ---------------------------------------------------------------------
      1          6           0        0.000000    0.000000   -0.522914
      2         17           0        0.000000   -1.440735   -1.500900
      3         17           0        0.000000    1.430735   -1.500900
      4         16           0        0.000000    0.000000    1.081815
 ---------------------------------------------------------------------
                    Distance matrix (angstroms):
                    1          2          3          4
     1  C    0.000000
     2  Cl   1.741314   0.000000
     3  Cl   1.733049   2.871470   0.000000
     4  S    1.604729   2.957386   2.952528   0.000000
 Symmetry turned off by external request.
 Stoichiometry    CCl2S
 Framework group  CS[SG(CCl2S)]
 Deg. of freedom     5
 Full point group                 CS      NOp   2
 Rotational constants (GHZ):      3.5063486      3.4451222      1.7377329
 Standard basis: Aug-CC-pVTZ (5D, 7F)
 Integral buffers will be    131072 words long.
 Raffenetti 1 integral format.
 Two-electron integral symmetry is turned off.
   196 basis functions,   414 primitive gaussians,   232 cartesian basis functions
    28 alpha electrons       28 beta electrons
       nuclear repulsion energy       244.4789817283 Hartrees.
 NAtoms=    4 NActive=    4 NUniq=    4 SFac= 1.00D+00 NAtFMM=   50 NAOKFM=F Big=F
 One-electron integrals computed using PRISM.
 NBasis=   196 RedAO= T  NBF=   196
 NBsUse=   196 1.00D-06 NBFU=   196
 Harris functional with IExCor=  205 diagonalized for initial guess.
 ExpMin= 3.51D-02 ExpMax= 4.56D+05 ExpMxC= 1.44D+03 IAcc=3 IRadAn=         0 AccDes= 0.00D+00
 HarFok:  IExCor=  205 AccDes= 0.00D+00 IRadAn=         0 IDoV= 1
 ScaDFX=  1.000000  1.000000  1.000000  1.000000
 FoFCou: FMM=F IPFlag=           0 FMFlag=      100000 FMFlg1=           0
         NFxFlg=           0 DoJE=T BraDBF=F KetDBF=T FulRan=T
         Omega=  0.000000  0.000000  1.000000  0.000000  0.000000 ICntrl=     500 IOpCl=  0
         NMat0=    1 NMatS0=    1 NMatT0=    0 NMatD0=    1 NMtDS0=    0 NMtDT0=    0
         I1Cent=           4 NGrid=           0.
 Symmetry not used in FoFCou.
 Requested convergence on RMS density matrix=1.00D-08 within 128 cycles.
 Requested convergence on MAX density matrix=1.00D-06.
 Requested convergence on             energy=1.00D-06.
 No special actions if energy rises.
 Keep R1 ints in memory in canonical form, NReq=371777346.
 SCF Done:  E(RHF) =  -1354.42588246     A.U. after   13 cycles
             Convg  =    0.3865D-08             -V/T =  2.0002
 ExpMin= 3.51D-02 ExpMax= 4.56D+05 ExpMxC= 1.44D+03 IAcc=3 IRadAn=         5 AccDes= 0.00D+00
 HarFok:  IExCor=  205 AccDes= 0.00D+00 IRadAn=         5 IDoV=-2
 ScaDFX=  1.000000  1.000000  1.000000  1.000000
 DSYEVD returned Info=          93 IAlg= 4 N=    46 NDim=    46 NE2=    21472333 trying DSYEV.
 Range of M.O.s used for correlation:    17   196
 NBasis=   196 NAE=    28 NBE=    28 NFC=    16 NFV=     0
 NROrb=    180 NOA=    12 NOB=    12 NVA=   168 NVB=   168

 **** Warning!!: The largest alpha MO coefficient is  0.31029264D+02

 Semi-Direct transformation.
 ModeAB=           2 MOrb=            12 LenV=    1072679931
 LASXX=     33405819 LTotXX=    33405819 LenRXX=    33405819
 LTotAB=    33954012 MaxLAS=    58380480 LenRXY=    58380480
 NonZer=    66811638 LenScr=   100987392 LnRSAI=           0
 LnScr1=           0 LExtra=           0 Total=    192773691
 MaxDsk=          -1 SrtSym=           F ITran=            4
 JobTyp=0 Pass  1:  I=   1 to  12.
 (rs|ai) integrals will be sorted in core.
 Spin components of T(2) and E(2):
     alpha-alpha T2 =       0.3955822515D-01 E2=     -0.9364505613D-01
     alpha-beta  T2 =       0.2074913091D+00 E2=     -0.5371650541D+00
     beta-beta   T2 =       0.3955822515D-01 E2=     -0.9364505613D-01
 ANorm=    0.1134287335D+01
 E2 =    -0.7244551664D+00 EUMP2 =    -0.13551503376221D+04
 R2 and R3 integrals will be kept in memory, NReq=   736864364.
 Iterations=  50 Convergence= 0.100D-07
 Iteration Nr.   1
 **********************
 DD1Dir will call FoFMem   1 times, MxPair=       156
 NAB=    78 NAA=     0 NBB=     0.
 MP4(R+Q)=  0.24915992D-01
 E3=       -0.32594576D-01        EUMP3=      -0.13551829322D+04
 E4(DQ)=    0.30892527D-02        UMP4(DQ)=   -0.13551798429D+04
 E4(SDQ)=  -0.37625708D-02        UMP4(SDQ)=  -0.13551866948D+04
 DE(Corr)= -0.73213375     E(Corr)=     -1355.1580162    
 NORM(A)=   0.11382144D+01
 Iteration Nr.   2
 **********************
 DD1Dir will call FoFMem   1 times, MxPair=       156
 NAB=    78 NAA=     0 NBB=     0.
 DE(Corr)= -0.75653271     E(CORR)=     -1355.1824152     Delta=-2.44D-02
 NORM(A)=   0.11492466D+01
 Iteration Nr.   3
 **********************
 DD1Dir will call FoFMem   1 times, MxPair=       156
 NAB=    78 NAA=     0 NBB=     0.
 DE(Corr)= -0.75570085     E(CORR)=     -1355.1815833     Delta= 8.32D-04
 NORM(A)=   0.11520055D+01
 Iteration Nr.   4
 **********************
 DD1Dir will call FoFMem   1 times, MxPair=       156
 NAB=    78 NAA=     0 NBB=     0.
 DE(Corr)= -0.75797541     E(CORR)=     -1355.1838579     Delta=-2.27D-03
 NORM(A)=   0.11530883D+01
 Iteration Nr.   5
 **********************
 DD1Dir will call FoFMem   1 times, MxPair=       156
 NAB=    78 NAA=     0 NBB=     0.
 DE(Corr)= -0.75825518     E(CORR)=     -1355.1841376     Delta=-2.80D-04
 NORM(A)=   0.11536289D+01
 Iteration Nr.   6
 **********************
 DD1Dir will call FoFMem   1 times, MxPair=       156
 NAB=    78 NAA=     0 NBB=     0.
 DE(Corr)= -0.75830847     E(CORR)=     -1355.1841909     Delta=-5.33D-05
 NORM(A)=   0.11536925D+01
 Iteration Nr.   7
 **********************
 DD1Dir will call FoFMem   1 times, MxPair=       156
 NAB=    78 NAA=     0 NBB=     0.
 DE(Corr)= -0.75831581     E(CORR)=     -1355.1841983     Delta=-7.34D-06
 NORM(A)=   0.11536981D+01
 Iteration Nr.   8
 **********************
 DD1Dir will call FoFMem   1 times, MxPair=       156
 NAB=    78 NAA=     0 NBB=     0.
 DE(Corr)= -0.75831389     E(CORR)=     -1355.1841963     Delta= 1.92D-06
 NORM(A)=   0.11537048D+01
 Iteration Nr.   9
 **********************
 DD1Dir will call FoFMem   1 times, MxPair=       156
 NAB=    78 NAA=     0 NBB=     0.
 DE(Corr)= -0.75831397     E(CORR)=     -1355.1841964     Delta=-7.94D-08
 NORM(A)=   0.11537037D+01
 Iteration Nr.  10
 **********************
 DD1Dir will call FoFMem   1 times, MxPair=       156
 NAB=    78 NAA=     0 NBB=     0.
 DE(Corr)= -0.75831496     E(CORR)=     -1355.1841974     Delta=-9.85D-07
 NORM(A)=   0.11537055D+01
 Iteration Nr.  11
 **********************
 DD1Dir will call FoFMem   1 times, MxPair=       156
 NAB=    78 NAA=     0 NBB=     0.
 DE(Corr)= -0.75831567     E(CORR)=     -1355.1841981     Delta=-7.10D-07
 NORM(A)=   0.11537065D+01
 Iteration Nr.  12
 **********************
 DD1Dir will call FoFMem   1 times, MxPair=       156
 NAB=    78 NAA=     0 NBB=     0.
 DE(Corr)= -0.75831589     E(CORR)=     -1355.1841983     Delta=-2.25D-07
 NORM(A)=   0.11537073D+01
 Iteration Nr.  13
 **********************
 DD1Dir will call FoFMem   1 times, MxPair=       156
 NAB=    78 NAA=     0 NBB=     0.
 DE(Corr)= -0.75831619     E(CORR)=     -1355.1841986     Delta=-2.99D-07
 NORM(A)=   0.11537078D+01
 Iteration Nr.  14
 **********************
 DD1Dir will call FoFMem   1 times, MxPair=       156
 NAB=    78 NAA=     0 NBB=     0.
 DE(Corr)= -0.75831622     E(CORR)=     -1355.1841987     Delta=-2.79D-08
 NORM(A)=   0.11537080D+01
 Iteration Nr.  15
 **********************
 DD1Dir will call FoFMem   1 times, MxPair=       156
 NAB=    78 NAA=     0 NBB=     0.
 DE(Corr)= -0.75831628     E(CORR)=     -1355.1841987     Delta=-5.74D-08
 NORM(A)=   0.11537081D+01
 Iteration Nr.  16
 **********************
 DD1Dir will call FoFMem   1 times, MxPair=       156
 NAB=    78 NAA=     0 NBB=     0.
 DE(Corr)= -0.75831629     E(CORR)=     -1355.1841987     Delta=-1.22D-08
 NORM(A)=   0.11537082D+01
 Iteration Nr.  17
 **********************
 DD1Dir will call FoFMem   1 times, MxPair=       156
 NAB=    78 NAA=     0 NBB=     0.
 DE(Corr)= -0.75831629     E(CORR)=     -1355.1841987     Delta= 1.00D-09
 NORM(A)=   0.11537082D+01
 Iteration Nr.  18
 **********************
 DD1Dir will call FoFMem   1 times, MxPair=       156
 NAB=    78 NAA=     0 NBB=     0.
 DE(Corr)= -0.75831629     E(CORR)=     -1355.1841987     Delta=-4.67D-09
 NORM(A)=   0.11537082D+01
 Iteration Nr.  19
 **********************
 DD1Dir will call FoFMem   1 times, MxPair=       156
 NAB=    78 NAA=     0 NBB=     0.
 DE(Corr)= -0.75831629     E(CORR)=     -1355.1841987     Delta= 2.38D-09
 NORM(A)=   0.11537082D+01
 Largest amplitude= 8.91D-02

 Z-AMPLITUDE ITERATIONS

 Iteration Nr.   1
 **********************
 DD1Dir will call FoFMem   1 times, MxPair=       156
 NAB=    78 NAA=     0 NBB=     0.
 DE(Z)  -0.72641854D+00          E(Z)=    -0.13551523010D+04
 NORM(A)=   0.11536463D+01
 Iteration Nr.   2
 **********************
 DD1Dir will call FoFMem   1 times, MxPair=       156
 NAB=    78 NAA=     0 NBB=     0.
 DE(Z)  -0.72641690D+00          E(Z)=    -0.13551522994D+04
 NORM(A)=   0.11536683D+01
 Iteration Nr.   3
 **********************
 DD1Dir will call FoFMem   1 times, MxPair=       156
 NAB=    78 NAA=     0 NBB=     0.
 DE(Z)  -0.72641748D+00          E(Z)=    -0.13551522999D+04
 NORM(A)=   0.11536443D+01
 Iteration Nr.   4
 **********************
 DD1Dir will call FoFMem   1 times, MxPair=       156
 NAB=    78 NAA=     0 NBB=     0.
 DE(Z)  -0.72641678D+00          E(Z)=    -0.13551522992D+04
 NORM(A)=   0.11486374D+01
 Iteration Nr.   5
 **********************
 DD1Dir will call FoFMem   1 times, MxPair=       156
 NAB=    78 NAA=     0 NBB=     0.
 DE(Z)  -0.72627268D+00          E(Z)=    -0.13551521551D+04
 NORM(A)=   0.11404353D+01
 Iteration Nr.   6
 **********************
 DD1Dir will call FoFMem   1 times, MxPair=       156
 NAB=    78 NAA=     0 NBB=     0.
 DE(Z)  -0.72603424D+00          E(Z)=    -0.13551519167D+04
 NORM(A)=   0.11404366D+01
 Iteration Nr.   7
 **********************
 DD1Dir will call FoFMem   1 times, MxPair=       156
 NAB=    78 NAA=     0 NBB=     0.
 DE(Z)  -0.72603215D+00          E(Z)=    -0.13551519146D+04
 NORM(A)=   0.11404346D+01
 Iteration Nr.   8
 **********************
 DD1Dir will call FoFMem   1 times, MxPair=       156
 NAB=    78 NAA=     0 NBB=     0.
 DE(Z)  -0.72603291D+00          E(Z)=    -0.13551519154D+04
 NORM(A)=   0.11404355D+01
 Iteration Nr.   9
 **********************
 DD1Dir will call FoFMem   1 times, MxPair=       156
 NAB=    78 NAA=     0 NBB=     0.
 DE(Z)  -0.72603308D+00          E(Z)=    -0.13551519155D+04
 NORM(A)=   0.11404359D+01
 Iteration Nr.  10
 **********************
 DD1Dir will call FoFMem   1 times, MxPair=       156
 NAB=    78 NAA=     0 NBB=     0.
 DE(Z)  -0.72603283D+00          E(Z)=    -0.13551519153D+04
 NORM(A)=   0.11404362D+01
 Iteration Nr.  11
 **********************
 DD1Dir will call FoFMem   1 times, MxPair=       156
 NAB=    78 NAA=     0 NBB=     0.
 DE(Z)  -0.72603301D+00          E(Z)=    -0.13551519155D+04
 NORM(A)=   0.11404363D+01
 Iteration Nr.  12
 **********************
 DD1Dir will call FoFMem   1 times, MxPair=       156
 NAB=    78 NAA=     0 NBB=     0.
 DE(Z)  -0.72603297D+00          E(Z)=    -0.13551519154D+04
 NORM(A)=   0.11404362D+01
 Iteration Nr.  13
 **********************
 DD1Dir will call FoFMem   1 times, MxPair=       156
 NAB=    78 NAA=     0 NBB=     0.
 DE(Z)  -0.72603299D+00          E(Z)=    -0.13551519154D+04
 NORM(A)=   0.11404362D+01
 Iteration Nr.  14
 **********************
 DD1Dir will call FoFMem   1 times, MxPair=       156
 NAB=    78 NAA=     0 NBB=     0.
 DE(Z)  -0.72603298D+00          E(Z)=    -0.13551519154D+04
 NORM(A)=   0.11404362D+01
 Iteration Nr.  15
 **********************
 DD1Dir will call FoFMem   1 times, MxPair=       156
 NAB=    78 NAA=     0 NBB=     0.
 DE(Z)  -0.72603298D+00          E(Z)=    -0.13551519154D+04
 NORM(A)=   0.11404362D+01
 Discarding MO integrals.
          Differentiating once with respect to electric field.
                with respect to dipole field.
          Electric field/nuclear overlap derivatives assumed to be zero.
          Keep R1 ints in memory in canonical form, NReq=367211061.
          There are     1 degrees of freedom in the 1st order CPHF.  IDoFFX=0.
 LinEq1:  Iter=  0 NonCon=     1 RMS=2.08D-03 Max=6.35D-02
 AX will form     1 AO Fock derivatives at one time.
 LinEq1:  Iter=  1 NonCon=     1 RMS=9.31D-04 Max=1.79D-02
 LinEq1:  Iter=  2 NonCon=     1 RMS=4.13D-04 Max=1.02D-02
 LinEq1:  Iter=  3 NonCon=     1 RMS=1.04D-04 Max=1.79D-03
 LinEq1:  Iter=  4 NonCon=     1 RMS=2.43D-05 Max=7.84D-04
 LinEq1:  Iter=  5 NonCon=     1 RMS=7.92D-06 Max=1.93D-04
 LinEq1:  Iter=  6 NonCon=     1 RMS=2.39D-06 Max=8.96D-05
 LinEq1:  Iter=  7 NonCon=     1 RMS=7.33D-07 Max=1.29D-05
 LinEq1:  Iter=  8 NonCon=     1 RMS=1.37D-07 Max=2.08D-06
 LinEq1:  Iter=  9 NonCon=     1 RMS=2.60D-08 Max=3.69D-07
 LinEq1:  Iter= 10 NonCon=     1 RMS=6.81D-09 Max=1.70D-07
 LinEq1:  Iter= 11 NonCon=     1 RMS=1.41D-09 Max=2.31D-08
 LinEq1:  Iter= 12 NonCon=     1 RMS=3.28D-10 Max=5.27D-09
 LinEq1:  Iter= 13 NonCon=     0 RMS=7.70D-11 Max=8.70D-10
 Linear equations converged to 1.000D-10 1.000D-09 after    13 iterations.
 End of Minotr Frequency-dependent properties file   721 does not exist.
 End of Minotr Frequency-dependent properties file   722 does not exist.

 **********************************************************************

            Population analysis using the QCI/CC density.

 **********************************************************************

     Natural Orbital Coefficients:
                           1         2         3         4         5
     Eigenvalues --     2.00004   2.00004   2.00003   2.00003   2.00003
   1 1   C  1S         -0.00003  -0.00164   0.00000   0.00000   0.00028
   2        2S          0.00002   0.00037   0.00000   0.00000  -0.00001
   3        3S          0.00000   0.00003   0.00000   0.00000   0.00001
   4        4S         -0.00010  -0.00289   0.00000   0.00000   0.00001
   5        5S         -0.00002  -0.00095   0.00000   0.00000  -0.00002
   6        6PX         0.00000   0.00000   0.00001   0.00158   0.00000
   7        6PY         0.00034   0.00000   0.00000   0.00000  -0.00106
   8        6PZ         0.00002   0.00037   0.00000   0.00000  -0.00002
   9        7PX         0.00000   0.00000   0.00001   0.00169   0.00000
  10        7PY         0.00047  -0.00002   0.00000   0.00000  -0.00224
  11        7PZ         0.00007   0.00131   0.00000   0.00000   0.00000
  12        8PX         0.00000   0.00000   0.00000  -0.00092   0.00000
  13        8PY         0.00304  -0.00008   0.00000   0.00000   0.00662
  14        8PZ        -0.00022  -0.00496   0.00000   0.00000   0.00001
  15        9PX         0.00000   0.00000   0.00001  -0.00100   0.00000
  16        9PY        -0.00048   0.00003   0.00000   0.00000   0.00158
  17        9PZ        -0.00008  -0.00209   0.00000   0.00000   0.00000
  18       10D 0       -0.00002  -0.00033   0.00000   0.00000   0.00000
  19       10D+1        0.00000   0.00000   0.00000  -0.00028   0.00000
  20       10D-1        0.00008   0.00000   0.00000   0.00000  -0.00036
  21       10D+2       -0.00001  -0.00023   0.00000   0.00000   0.00000
  22       10D-2        0.00000   0.00000   0.00035   0.00000   0.00000
  23       11D 0        0.00005   0.00019   0.00000   0.00000   0.00000
  24       11D+1        0.00000   0.00000   0.00001   0.00010   0.00000
  25       11D-1        0.00075  -0.00003   0.00000   0.00000   0.00112
  26       11D+2        0.00004   0.00044   0.00000   0.00000   0.00000
  27       11D-2        0.00000   0.00000  -0.00026  -0.00001   0.00000
  28       12D 0       -0.00023  -0.00571   0.00000   0.00000   0.00002
  29       12D+1        0.00000   0.00000  -0.00001  -0.00269   0.00000
  30       12D-1        0.00372  -0.00019   0.00000   0.00000  -0.00333
  31       12D+2       -0.00013  -0.00311   0.00000   0.00000   0.00002
  32       12D-2        0.00000   0.00000   0.00230   0.00001   0.00000
  33       13F 0        0.00001   0.00012   0.00000   0.00000   0.00000
  34       13F+1        0.00000   0.00000   0.00000   0.00004   0.00000
  35       13F-1       -0.00039   0.00001   0.00000   0.00000  -0.00029
  36       13F+2        0.00000  -0.00003   0.00000   0.00000   0.00000
  37       13F-2        0.00000   0.00000  -0.00015   0.00000   0.00000
  38       13F+3        0.00000   0.00000   0.00000  -0.00009   0.00000
  39       13F-3       -0.00009   0.00000   0.00000   0.00000   0.00010
  40       14F 0       -0.00006  -0.00095   0.00000   0.00000   0.00000
  41       14F+1        0.00000   0.00000  -0.00001   0.00005   0.00000
  42       14F-1        0.00493  -0.00017   0.00000   0.00000   0.00166
  43       14F+2       -0.00001  -0.00008   0.00000   0.00000   0.00000
  44       14F-2        0.00000   0.00000   0.00117   0.00001   0.00000
  45       14F+3        0.00000   0.00000   0.00000   0.00058   0.00000
  46       14F-3        0.00115  -0.00004   0.00000   0.00000  -0.00012
  47 2   Cl 1S         -0.00241  -0.00117   0.00000   0.00000   0.02461
  48        2S          0.00855   0.00440   0.00000   0.00000  -0.08364
  49        3S          0.00034   0.00042   0.00000   0.00000   0.00228
  50        4S          0.00058   0.00016   0.00000   0.00000  -0.00620
  51        5S         -0.00126  -0.00186   0.00000   0.00000   0.00399
  52        6S         -0.00135  -0.00195   0.00000   0.00000   0.00415
  53        7PX         0.00000   0.00000   0.69418  -0.68553   0.00000
  54        7PY        -0.39197   0.36634   0.00000   0.00000   0.13812
  55        7PZ         0.53369  -0.61834   0.00000   0.00000   0.03089
  56        8PX         0.00000   0.00000  -0.01496   0.01330   0.00000
  57        8PY         0.01008  -0.00791   0.00000   0.00000  -0.00291
  58        8PZ        -0.01315   0.01434   0.00000   0.00000  -0.00142
  59        9PX         0.00000   0.00000   0.03680  -0.03680   0.00000
  60        9PY        -0.02041   0.01915   0.00000   0.00000   0.00763
  61        9PZ         0.02790  -0.03239   0.00000   0.00000   0.00177
  62       10PX         0.00000   0.00000  -0.00320   0.00278   0.00000
  63       10PY         0.00297  -0.00142   0.00000   0.00000   0.00070
  64       10PZ        -0.00449   0.00140   0.00000   0.00000   0.00018
  65       11PX         0.00000   0.00000  -0.00056   0.00078   0.00000
  66       11PY         0.00033  -0.00042   0.00000   0.00000   0.00030
  67       11PZ        -0.00071   0.00053   0.00000   0.00000   0.00021
  68       12D 0        0.00044  -0.00029   0.00000   0.00000   0.00008
  69       12D+1        0.00000   0.00000   0.00018  -0.00018   0.00000
  70       12D-1        0.00024  -0.00016   0.00000   0.00000   0.00011
  71       12D+2        0.00026  -0.00016   0.00000   0.00000  -0.00007
  72       12D-2        0.00000   0.00000   0.00032  -0.00020   0.00000
  73       13D 0       -0.00196   0.00107   0.00000   0.00000   0.00009
  74       13D+1        0.00000   0.00000  -0.00073   0.00056   0.00000
  75       13D-1       -0.00076   0.00095   0.00000   0.00000  -0.00046
  76       13D+2       -0.00095   0.00072   0.00000   0.00000   0.00015
  77       13D-2        0.00000   0.00000  -0.00107   0.00098   0.00000
  78       14D 0        0.00005  -0.00090   0.00000   0.00000   0.00001
  79       14D+1        0.00000   0.00000   0.00060   0.00007   0.00000
  80       14D-1        0.00003  -0.00034   0.00000   0.00000   0.00010
  81       14D+2       -0.00002  -0.00058   0.00000   0.00000   0.00014
  82       14D-2        0.00000   0.00000   0.00046  -0.00047   0.00000
  83       15F 0       -0.00001   0.00000   0.00000   0.00000   0.00004
  84       15F+1        0.00000   0.00000  -0.00006  -0.00005   0.00000
  85       15F-1        0.00001   0.00002   0.00000   0.00000   0.00003
  86       15F+2        0.00002   0.00002   0.00000   0.00000  -0.00003
  87       15F-2        0.00000   0.00000  -0.00001  -0.00003   0.00000
  88       15F+3        0.00000   0.00000  -0.00001  -0.00003   0.00000
  89       15F-3        0.00003   0.00004   0.00000   0.00000  -0.00005
  90       16F 0       -0.00037  -0.00010   0.00000   0.00000   0.00019
  91       16F+1        0.00000   0.00000   0.00013   0.00018   0.00000
  92       16F-1       -0.00090   0.00049   0.00000   0.00000  -0.00016
  93       16F+2       -0.00009  -0.00028   0.00000   0.00000   0.00029
  94       16F-2        0.00000   0.00000  -0.00032   0.00033   0.00000
  95       16F+3        0.00000   0.00000   0.00030  -0.00022   0.00000
  96       16F-3       -0.00026   0.00020   0.00000   0.00000   0.00020
  97 3   Cl 1S          0.00220  -0.00156   0.00000   0.00000  -0.02452
  98        2S         -0.00779   0.00576   0.00000   0.00000   0.08335
  99        3S         -0.00032   0.00042   0.00000   0.00000  -0.00229
 100        4S         -0.00054   0.00026   0.00000   0.00000   0.00618
 101        5S          0.00113  -0.00203   0.00000   0.00000  -0.00397
 102        6S          0.00119  -0.00209   0.00000   0.00000  -0.00411
 103        7PX         0.00000   0.00000  -0.69075  -0.68890   0.00000
 104        7PY        -0.42128  -0.33472   0.00000   0.00000   0.13955
 105        7PZ        -0.58061  -0.57279   0.00000   0.00000  -0.02862
 106        8PX         0.00000   0.00000   0.01492   0.01339   0.00000
 107        8PY         0.01073   0.00713   0.00000   0.00000  -0.00294
 108        8PZ         0.01430   0.01325   0.00000   0.00000   0.00138
 109        9PX         0.00000   0.00000  -0.03663  -0.03700   0.00000
 110        9PY        -0.02195  -0.01751   0.00000   0.00000   0.00771
 111        9PZ        -0.03036  -0.03001   0.00000   0.00000  -0.00165
 112       10PX         0.00000   0.00000   0.00316   0.00278   0.00000
 113       10PY         0.00308   0.00118   0.00000   0.00000   0.00067
 114       10PZ         0.00460   0.00103   0.00000   0.00000  -0.00015
 115       11PX         0.00000   0.00000   0.00055   0.00078   0.00000
 116       11PY         0.00037   0.00039   0.00000   0.00000   0.00029
 117       11PZ         0.00074   0.00046   0.00000   0.00000  -0.00021
 118       12D 0       -0.00046  -0.00026   0.00000   0.00000  -0.00008
 119       12D+1        0.00000   0.00000  -0.00018  -0.00018   0.00000
 120       12D-1        0.00025   0.00014   0.00000   0.00000   0.00011
 121       12D+2       -0.00027  -0.00014   0.00000   0.00000   0.00007
 122       12D-2        0.00000   0.00000   0.00032   0.00020   0.00000
 123       13D 0        0.00208   0.00094   0.00000   0.00000  -0.00010
 124       13D+1        0.00000   0.00000   0.00074   0.00058   0.00000
 125       13D-1       -0.00084  -0.00090   0.00000   0.00000  -0.00047
 126       13D+2        0.00101   0.00066   0.00000   0.00000  -0.00016
 127       13D-2        0.00000   0.00000  -0.00108  -0.00101   0.00000
 128       14D 0       -0.00012  -0.00089   0.00000   0.00000  -0.00001
 129       14D+1        0.00000   0.00000  -0.00061   0.00006   0.00000
 130       14D-1        0.00005   0.00032   0.00000   0.00000   0.00009
 131       14D+2       -0.00003  -0.00058   0.00000   0.00000  -0.00015
 132       14D-2        0.00000   0.00000   0.00046   0.00048   0.00000
 133       15F 0        0.00001   0.00000   0.00000   0.00000  -0.00004
 134       15F+1        0.00000   0.00000   0.00006  -0.00005   0.00000
 135       15F-1        0.00001  -0.00002   0.00000   0.00000   0.00003
 136       15F+2       -0.00002   0.00003   0.00000   0.00000   0.00003
 137       15F-2        0.00000   0.00000  -0.00001   0.00003   0.00000
 138       15F+3        0.00000   0.00000   0.00001  -0.00003   0.00000
 139       15F-3        0.00003  -0.00004   0.00000   0.00000  -0.00005
 140       16F 0        0.00037  -0.00012   0.00000   0.00000  -0.00019
 141       16F+1        0.00000   0.00000  -0.00013   0.00018   0.00000
 142       16F-1       -0.00095  -0.00043   0.00000   0.00000  -0.00016
 143       16F+2        0.00007  -0.00029   0.00000   0.00000  -0.00030
 144       16F-2        0.00000   0.00000  -0.00033  -0.00033   0.00000
 145       16F+3        0.00000   0.00000  -0.00030  -0.00022   0.00000
 146       16F-3       -0.00028  -0.00018   0.00000   0.00000   0.00021
 147 4   S  1S          0.00001   0.00088   0.00000   0.00000   0.00085
 148        2S         -0.00003  -0.00306   0.00000   0.00000  -0.00288
 149        3S          0.00002   0.00036   0.00000   0.00000   0.00009
 150        4S          0.00001  -0.00005   0.00000   0.00000  -0.00019
 151        5S          0.00027   0.00750   0.00000   0.00000  -0.00003
 152        6S          0.00011   0.00349   0.00000   0.00000   0.00000
 153        7PX         0.00000   0.00000   0.00010   0.11482   0.00000
 154        7PY         0.08516  -0.00157   0.00000   0.00000   0.94861
 155        7PZ        -0.00249  -0.05712   0.00000   0.00000  -0.00353
 156        8PX         0.00000   0.00000   0.00000  -0.00354   0.00000
 157        8PY        -0.00487   0.00014   0.00000   0.00000  -0.01854
 158        8PZ         0.00006   0.00096   0.00000   0.00000   0.00007
 159        9PX         0.00000   0.00000   0.00001   0.00663   0.00000
 160        9PY         0.00501  -0.00010   0.00000   0.00000   0.05481
 161        9PZ        -0.00015  -0.00327   0.00000   0.00000  -0.00021
 162       10PX         0.00000   0.00000   0.00000   0.00143   0.00000
 163       10PY        -0.00581   0.00023   0.00000   0.00000  -0.00506
 164       10PZ        -0.00001  -0.00134   0.00000   0.00000   0.00004
 165       11PX         0.00000   0.00000   0.00000   0.00023   0.00000
 166       11PY        -0.00031   0.00001   0.00000   0.00000  -0.00114
 167       11PZ         0.00000  -0.00001   0.00000   0.00000   0.00000
 168       12D 0       -0.00003  -0.00038   0.00000   0.00000  -0.00001
 169       12D+1        0.00000   0.00000   0.00000  -0.00001   0.00000
 170       12D-1        0.00241  -0.00008   0.00000   0.00000   0.00269
 171       12D+2        0.00000  -0.00009   0.00000   0.00000   0.00000
 172       12D-2        0.00000   0.00000  -0.00032   0.00000   0.00000
 173       13D 0        0.00000   0.00000   0.00000   0.00000   0.00000
 174       13D+1        0.00000   0.00000   0.00000  -0.00006   0.00000
 175       13D-1       -0.00005   0.00000   0.00000   0.00000  -0.00033
 176       13D+2        0.00000  -0.00009   0.00000   0.00000   0.00000
 177       13D-2        0.00000   0.00000   0.00010   0.00000   0.00000
 178       14D 0       -0.00001  -0.00004   0.00000   0.00000  -0.00001
 179       14D+1        0.00000   0.00000   0.00000  -0.00140   0.00000
 180       14D-1        0.00148  -0.00006   0.00000   0.00000  -0.00029
 181       14D+2        0.00002   0.00037   0.00000   0.00000   0.00000
 182       14D-2        0.00000   0.00000  -0.00061   0.00000   0.00000
 183       15F 0        0.00001   0.00008   0.00000   0.00000   0.00000
 184       15F+1        0.00000   0.00000   0.00000  -0.00008   0.00000
 185       15F-1       -0.00022   0.00001   0.00000   0.00000  -0.00018
 186       15F+2        0.00001   0.00012   0.00000   0.00000   0.00000
 187       15F-2        0.00000   0.00000  -0.00006   0.00000   0.00000
 188       15F+3        0.00000   0.00000   0.00000   0.00001   0.00000
 189       15F-3       -0.00003   0.00000   0.00000   0.00000   0.00009
 190       16F 0        0.00001   0.00020   0.00000   0.00000   0.00000
 191       16F+1        0.00000   0.00000   0.00000   0.00024   0.00000
 192       16F-1       -0.00071   0.00002   0.00000   0.00000  -0.00088
 193       16F+2       -0.00001  -0.00005   0.00000   0.00000   0.00000
 194       16F-2        0.00000   0.00000   0.00052   0.00000   0.00000
 195       16F+3        0.00000   0.00000   0.00000  -0.00017   0.00000
 196       16F-3       -0.00017   0.00001   0.00000   0.00000  -0.00018
                           6         7         8         9        10
     Eigenvalues --     2.00003   2.00002   2.00002   2.00001   2.00001
   1 1   C  1S         -0.15944  -0.03142  -0.15433   0.60463   0.06108
   2        2S          0.00327   0.00064   0.00299  -0.01065  -0.00114
   3        3S         -0.00586  -0.00116  -0.00605   0.02400   0.00215
   4        4S         -0.00849  -0.00164  -0.00734   0.00620   0.00312
   5        5S         -0.00140  -0.00026   0.00013   0.00360   0.00134
   6        6PX         0.00000   0.00000   0.00000   0.00000   0.00000
   7        6PY         0.00018  -0.00086  -0.00001  -0.00004  -0.00258
   8        6PZ        -0.00009  -0.00001   0.00114  -0.00216   0.00065
   9        7PX         0.00000   0.00000   0.00000   0.00000   0.00000
  10        7PY         0.00004  -0.00029  -0.00001   0.00000   0.00023
  11        7PZ        -0.00080  -0.00017  -0.00061   0.00100   0.00045
  12        8PX         0.00000   0.00000   0.00000   0.00000   0.00000
  13        8PY        -0.00060   0.00284   0.00002   0.00001   0.00189
  14        8PZ         0.00127   0.00021  -0.00720   0.00494  -0.00095
  15        9PX         0.00000   0.00000   0.00000   0.00000   0.00000
  16        9PY         0.00011  -0.00060   0.00001  -0.00001  -0.00064
  17        9PZ        -0.00056  -0.00012   0.00015   0.00098   0.00007
  18       10D 0       -0.00003  -0.00001  -0.00010   0.00009   0.00002
  19       10D+1        0.00000   0.00000   0.00000   0.00000   0.00000
  20       10D-1        0.00002  -0.00011   0.00000   0.00000   0.00000
  21       10D+2        0.00006   0.00001   0.00002  -0.00015  -0.00001
  22       10D-2        0.00000   0.00000   0.00000   0.00000   0.00000
  23       11D 0       -0.00046  -0.00009  -0.00091   0.00035   0.00019
  24       11D+1        0.00000   0.00000   0.00000   0.00000   0.00000
  25       11D-1        0.00025  -0.00114   0.00000  -0.00003  -0.00244
  26       11D+2        0.00079   0.00015  -0.00031   0.00076  -0.00036
  27       11D-2        0.00000   0.00000   0.00000   0.00000   0.00000
  28       12D 0        0.00050   0.00010  -0.00179   0.00229  -0.00056
  29       12D+1        0.00000   0.00000   0.00000   0.00000   0.00000
  30       12D-1        0.00091  -0.00430  -0.00004  -0.00007  -0.00459
  31       12D+2        0.00131   0.00026  -0.00078   0.00028  -0.00078
  32       12D-2        0.00000   0.00000   0.00000   0.00000   0.00000
  33       13F 0       -0.00012  -0.00003   0.00000  -0.00005   0.00007
  34       13F+1        0.00000   0.00000   0.00000   0.00000   0.00000
  35       13F-1        0.00001  -0.00003   0.00000   0.00000   0.00001
  36       13F+2       -0.00004  -0.00001  -0.00006   0.00001  -0.00003
  37       13F-2        0.00000   0.00000   0.00000   0.00000   0.00000
  38       13F+3        0.00000   0.00000   0.00000   0.00000   0.00000
  39       13F-3       -0.00001   0.00003   0.00000   0.00000   0.00008
  40       14F 0        0.00014   0.00002   0.00044  -0.00150   0.00010
  41       14F+1        0.00000   0.00000   0.00000   0.00000   0.00000
  42       14F-1        0.00001   0.00002   0.00000  -0.00003  -0.00127
  43       14F+2       -0.00016  -0.00003   0.00056  -0.00105   0.00018
  44       14F-2        0.00000   0.00000   0.00000   0.00000   0.00000
  45       14F+3        0.00000   0.00000   0.00000   0.00000   0.00000
  46       14F-3        0.00007  -0.00035   0.00000  -0.00001  -0.00080
  47 2   Cl 1S         -0.13828  -0.20807   0.01879  -0.04010   0.07407
  48        2S          0.46644   0.70211  -0.06370   0.13738  -0.25146
  49        3S         -0.01384  -0.02061   0.00169  -0.00173   0.00409
  50        4S          0.03627   0.05458  -0.00489   0.01087  -0.02104
  51        5S         -0.00159  -0.00034  -0.00135   0.00054   0.00549
  52        6S         -0.00042  -0.00088  -0.00005  -0.00013  -0.00182
  53        7PX         0.00000   0.00000   0.00000   0.00000   0.00000
  54        7PY        -0.23247  -0.31142   0.06170   0.08807  -0.33529
  55        7PZ        -0.12252  -0.24102   0.00433   0.07259  -0.26784
  56        8PX         0.00000   0.00000   0.00000   0.00000   0.00000
  57        8PY         0.00415   0.00579  -0.00157  -0.00056   0.00573
  58        8PZ         0.00211   0.00453  -0.00043  -0.00038   0.00485
  59        9PX         0.00000   0.00000   0.00000   0.00000   0.00000
  60        9PY        -0.01324  -0.01776   0.00349   0.00529  -0.02055
  61        9PZ        -0.00700  -0.01371   0.00026   0.00436  -0.01653
  62       10PX         0.00000   0.00000   0.00000   0.00000   0.00000
  63       10PY         0.00139   0.00212  -0.00058  -0.00003   0.00016
  64       10PZ         0.00123   0.00110  -0.00053   0.00091  -0.00010
  65       11PX         0.00000   0.00000   0.00000   0.00000   0.00000
  66       11PY        -0.00007   0.00011  -0.00003  -0.00004  -0.00009
  67       11PZ         0.00010  -0.00007  -0.00012  -0.00010  -0.00023
  68       12D 0       -0.00004  -0.00003   0.00002  -0.00001   0.00000
  69       12D+1        0.00000   0.00000   0.00000   0.00000   0.00000
  70       12D-1        0.00014   0.00021   0.00002   0.00007  -0.00029
  71       12D+2       -0.00007  -0.00009   0.00002  -0.00012   0.00024
  72       12D-2        0.00000   0.00000   0.00000   0.00000   0.00000
  73       13D 0       -0.00011   0.00020   0.00015  -0.00013   0.00060
  74       13D+1        0.00000   0.00000   0.00000   0.00000   0.00000
  75       13D-1        0.00027   0.00050  -0.00011   0.00015   0.00169
  76       13D+2       -0.00038  -0.00039   0.00015   0.00018  -0.00075
  77       13D-2        0.00000   0.00000   0.00000   0.00000   0.00000
  78       14D 0        0.00005  -0.00023   0.00017  -0.00003  -0.00005
  79       14D+1        0.00000   0.00000   0.00000   0.00000   0.00000
  80       14D-1        0.00025   0.00023   0.00003   0.00025  -0.00012
  81       14D+2       -0.00024   0.00016  -0.00004   0.00011   0.00071
  82       14D-2        0.00000   0.00000   0.00000   0.00000   0.00000
  83       15F 0        0.00000   0.00004   0.00001   0.00000   0.00004
  84       15F+1        0.00000   0.00000   0.00000   0.00000   0.00000
  85       15F-1       -0.00001   0.00003   0.00000   0.00000   0.00009
  86       15F+2        0.00000  -0.00001   0.00000  -0.00001  -0.00003
  87       15F-2        0.00000   0.00000   0.00000   0.00000   0.00000
  88       15F+3        0.00000   0.00000   0.00000   0.00000   0.00000
  89       15F-3       -0.00002  -0.00003   0.00002  -0.00001   0.00000
  90       16F 0       -0.00004  -0.00012   0.00010  -0.00027  -0.00022
  91       16F+1        0.00000   0.00000   0.00000   0.00000   0.00000
  92       16F-1        0.00000   0.00007   0.00003   0.00001   0.00039
  93       16F+2       -0.00010  -0.00014   0.00006  -0.00008  -0.00040
  94       16F-2        0.00000   0.00000   0.00000   0.00000   0.00000
  95       16F+3        0.00000   0.00000   0.00000   0.00000   0.00000
  96       16F-3       -0.00010  -0.00001  -0.00004   0.00014  -0.00005
  97 3   Cl 1S         -0.20742   0.13732   0.01825  -0.04378  -0.12648
  98        2S          0.69976  -0.46344  -0.06187   0.14991   0.42996
  99        3S         -0.02076   0.01360   0.00163  -0.00193  -0.00693
 100        4S          0.05439  -0.03601  -0.00475   0.01191   0.03584
 101        5S         -0.00144  -0.00039  -0.00142   0.00030  -0.00972
 102        6S         -0.00069   0.00063  -0.00010  -0.00009   0.00147
 103        7PX         0.00000   0.00000   0.00000   0.00000   0.00000
 104        7PY         0.33948  -0.19889  -0.06043  -0.10140  -0.57087
 105        7PZ        -0.21018   0.17623   0.00401   0.08297   0.39868
 106        8PX         0.00000   0.00000   0.00000   0.00000   0.00000
 107        8PY        -0.00620   0.00379   0.00154   0.00081   0.00978
 108        8PZ         0.00381  -0.00340  -0.00042  -0.00057  -0.00722
 109        9PX         0.00000   0.00000   0.00000   0.00000   0.00000
 110        9PY         0.01935  -0.01135  -0.00342  -0.00611  -0.03505
 111        9PZ        -0.01199   0.01002   0.00024   0.00500   0.02460
 112       10PX         0.00000   0.00000   0.00000   0.00000   0.00000
 113       10PY        -0.00216   0.00143   0.00059   0.00007   0.00067
 114       10PZ         0.00161  -0.00055  -0.00053   0.00090  -0.00085
 115       11PX         0.00000   0.00000   0.00000   0.00000   0.00000
 116       11PY         0.00002   0.00013   0.00003   0.00003  -0.00012
 117       11PZ         0.00007   0.00010  -0.00013  -0.00009   0.00021
 118       12D 0       -0.00005   0.00001   0.00002  -0.00001   0.00000
 119       12D+1        0.00000   0.00000   0.00000   0.00000   0.00000
 120       12D-1       -0.00021   0.00014  -0.00002  -0.00008  -0.00049
 121       12D+2       -0.00010   0.00006   0.00002  -0.00013  -0.00037
 122       12D-2        0.00000   0.00000   0.00000   0.00000   0.00000
 123       13D 0       -0.00002  -0.00023   0.00015  -0.00014  -0.00042
 124       13D+1        0.00000   0.00000   0.00000   0.00000   0.00000
 125       13D-1       -0.00047   0.00036   0.00011  -0.00008   0.00251
 126       13D+2       -0.00053   0.00022   0.00015   0.00022   0.00154
 127       13D-2        0.00000   0.00000   0.00000   0.00000   0.00000
 128       14D 0       -0.00004   0.00023   0.00018  -0.00002   0.00005
 129       14D+1        0.00000   0.00000   0.00000   0.00000   0.00000
 130       14D-1       -0.00032   0.00012  -0.00003  -0.00025  -0.00020
 131       14D+2       -0.00016  -0.00024  -0.00005   0.00009  -0.00086
 132       14D-2        0.00000   0.00000   0.00000   0.00000   0.00000
 133       15F 0        0.00002  -0.00003   0.00001   0.00000  -0.00003
 134       15F+1        0.00000   0.00000   0.00000   0.00000   0.00000
 135       15F-1       -0.00001   0.00003   0.00000   0.00000   0.00008
 136       15F+2       -0.00001   0.00001   0.00000   0.00000   0.00005
 137       15F-2        0.00000   0.00000   0.00000   0.00000   0.00000
 138       15F+3        0.00000   0.00000   0.00000   0.00000   0.00000
 139       15F-3        0.00003  -0.00002  -0.00002   0.00000  -0.00006
 140       16F 0       -0.00009   0.00010   0.00010  -0.00026   0.00036
 141       16F+1        0.00000   0.00000   0.00000   0.00000   0.00000
 142       16F-1       -0.00003   0.00007  -0.00003   0.00000   0.00040
 143       16F+2       -0.00016   0.00010   0.00006  -0.00006   0.00059
 144       16F-2        0.00000   0.00000   0.00000   0.00000   0.00000
 145       16F+3        0.00000   0.00000   0.00000   0.00000   0.00000
 146       16F-3        0.00010   0.00003   0.00004  -0.00015  -0.00015
 147 4   S  1S         -0.02045  -0.00433  -0.21773  -0.15835   0.02756
 148        2S          0.06971   0.01474   0.74421   0.54688  -0.09509
 149        3S         -0.00204  -0.00043  -0.02070  -0.00825   0.00152
 150        4S          0.00452   0.00096   0.04988   0.03930  -0.00683
 151        5S          0.00158   0.00033   0.00651  -0.01194   0.00046
 152        6S          0.00201   0.00040  -0.00078  -0.00355  -0.00135
 153        7PX         0.00000   0.00000   0.00000   0.00000   0.00000
 154        7PY        -0.03772   0.18734   0.00423   0.00083   0.09477
 155        7PZ         0.05362   0.01133   0.61526  -0.47928   0.11903
 156        8PX         0.00000   0.00000   0.00000   0.00000   0.00000
 157        8PY         0.00060  -0.00302  -0.00008   0.00001   0.00024
 158        8PZ        -0.00157  -0.00033  -0.01162   0.00831  -0.00142
 159        9PX         0.00000   0.00000   0.00000   0.00000   0.00000
 160        9PY        -0.00221   0.01097   0.00025   0.00005   0.00574
 161        9PZ         0.00346   0.00073   0.03786  -0.03136   0.00765
 162       10PX         0.00000   0.00000   0.00000   0.00000   0.00000
 163       10PY        -0.00038   0.00175   0.00001   0.00005   0.00342
 164       10PZ        -0.00224  -0.00045  -0.00662   0.00509   0.00074
 165       11PX         0.00000   0.00000   0.00000   0.00000   0.00000
 166       11PY        -0.00004   0.00019   0.00000   0.00000   0.00025
 167       11PZ        -0.00021  -0.00004   0.00012   0.00022   0.00023
 168       12D 0        0.00082   0.00017   0.00211  -0.00265   0.00014
 169       12D+1        0.00000   0.00000   0.00000   0.00000   0.00000
 170       12D-1       -0.00003   0.00020   0.00001  -0.00001  -0.00076
 171       12D+2       -0.00005  -0.00001  -0.00044   0.00019   0.00003
 172       12D-2        0.00000   0.00000   0.00000   0.00000   0.00000
 173       13D 0        0.00007   0.00001   0.00014   0.00022  -0.00009
 174       13D+1        0.00000   0.00000   0.00000   0.00000   0.00000
 175       13D-1       -0.00001   0.00002   0.00000   0.00000   0.00006
 176       13D+2        0.00004   0.00001   0.00030   0.00016  -0.00004
 177       13D-2        0.00000   0.00000   0.00000   0.00000   0.00000
 178       14D 0        0.00054   0.00011   0.00103  -0.00067  -0.00026
 179       14D+1        0.00000   0.00000   0.00000   0.00000   0.00000
 180       14D-1        0.00015  -0.00071  -0.00001  -0.00001  -0.00089
 181       14D+2       -0.00030  -0.00006   0.00040  -0.00001   0.00020
 182       14D-2        0.00000   0.00000   0.00000   0.00000   0.00000
 183       15F 0       -0.00013  -0.00003  -0.00016   0.00025   0.00005
 184       15F+1        0.00000   0.00000   0.00000   0.00000   0.00000
 185       15F-1        0.00000  -0.00001   0.00000   0.00000   0.00006
 186       15F+2        0.00000   0.00000   0.00012  -0.00016   0.00002
 187       15F-2        0.00000   0.00000   0.00000   0.00000   0.00000
 188       15F+3        0.00000   0.00000   0.00000   0.00000   0.00000
 189       15F-3       -0.00001   0.00003   0.00000   0.00000   0.00005
 190       16F 0       -0.00014  -0.00003  -0.00046   0.00048  -0.00008
 191       16F+1        0.00000   0.00000   0.00000   0.00000   0.00000
 192       16F-1        0.00000  -0.00004   0.00000   0.00000   0.00029
 193       16F+2        0.00012   0.00002  -0.00008  -0.00011  -0.00009
 194       16F-2        0.00000   0.00000   0.00000   0.00000   0.00000
 195       16F+3        0.00000   0.00000   0.00000   0.00000   0.00000
 196       16F-3        0.00000   0.00000   0.00000   0.00000   0.00003
                          11        12        13        14        15
     Eigenvalues --     2.00001   2.00001   2.00000   2.00000   2.00000
   1 1   C  1S          0.23661   0.00000   0.69771   0.00175   0.00176
   2        2S         -0.00439   0.00000  -0.00698  -0.00002  -0.00006
   3        3S          0.00844   0.00000   0.03001   0.00011   0.00008
   4        4S          0.01123   0.00000  -0.02259  -0.00042  -0.00017
   5        5S          0.00480   0.00000  -0.00553  -0.00020  -0.00016
   6        6PX         0.00000  -0.00182   0.00000   0.00000   0.00000
   7        6PY         0.00077   0.00000   0.00000   0.00000   0.00000
   8        6PZ         0.00201   0.00000  -0.00126  -0.00001   0.00000
   9        7PX         0.00000  -0.00140   0.00000   0.00000   0.00000
  10        7PY        -0.00006   0.00000  -0.00002   0.00000   0.00000
  11        7PZ         0.00164   0.00000   0.00250   0.00000  -0.00008
  12        8PX         0.00000   0.00072   0.00000   0.00000   0.00000
  13        8PY        -0.00057   0.00000   0.00001   0.00000   0.00000
  14        8PZ        -0.00285   0.00000   0.00244  -0.00007  -0.00002
  15        9PX         0.00000  -0.00103   0.00000   0.00000   0.00000
  16        9PY         0.00020   0.00000   0.00000   0.00000   0.00000
  17        9PZ         0.00030   0.00000   0.00051  -0.00002  -0.00005
  18       10D 0        0.00007   0.00000   0.00029   0.00000   0.00000
  19       10D+1        0.00000  -0.00018   0.00000   0.00000   0.00000
  20       10D-1        0.00000   0.00000   0.00000   0.00000   0.00000
  21       10D+2       -0.00003   0.00000  -0.00021   0.00000   0.00000
  22       10D-2        0.00000   0.00000   0.00000   0.00000   0.00000
  23       11D 0        0.00073   0.00000  -0.00031  -0.00004  -0.00005
  24       11D+1        0.00000   0.00118   0.00000   0.00000   0.00000
  25       11D-1        0.00073   0.00000   0.00000   0.00000   0.00000
  26       11D+2       -0.00121   0.00000   0.00313   0.00006  -0.00001
  27       11D-2        0.00000   0.00000   0.00000   0.00000   0.00000
  28       12D 0       -0.00174   0.00000  -0.00123  -0.00005  -0.00007
  29       12D+1        0.00000  -0.00101   0.00000   0.00000   0.00000
  30       12D-1        0.00134   0.00000   0.00001   0.00000   0.00000
  31       12D+2       -0.00263   0.00000   0.00171   0.00003  -0.00001
  32       12D-2        0.00000   0.00000   0.00000   0.00000   0.00000
  33       13F 0        0.00026   0.00000   0.00027   0.00000   0.00000
  34       13F+1        0.00000  -0.00018   0.00000   0.00000   0.00000
  35       13F-1        0.00000   0.00000   0.00000   0.00000   0.00000
  36       13F+2       -0.00007   0.00000  -0.00005  -0.00001   0.00000
  37       13F-2        0.00000   0.00000   0.00000   0.00000   0.00000
  38       13F+3        0.00000   0.00007   0.00000   0.00000   0.00000
  39       13F-3       -0.00002   0.00000   0.00000   0.00000   0.00000
  40       14F 0        0.00027   0.00000  -0.00113  -0.00003   0.00001
  41       14F+1        0.00000   0.00118   0.00000   0.00000   0.00000
  42       14F-1        0.00036   0.00000   0.00000   0.00000   0.00000
  43       14F+2        0.00057   0.00000  -0.00139  -0.00003   0.00001
  44       14F-2        0.00000   0.00000   0.00000   0.00000   0.00000
  45       14F+3        0.00000  -0.00015   0.00000   0.00000   0.00000
  46       14F-3        0.00024   0.00000   0.00000   0.00000   0.00000
  47 2   Cl 1S         -0.11673   0.00000   0.02985   0.68330  -0.25459
  48        2S          0.39727   0.00000  -0.10673   0.00650  -0.00284
  49        3S         -0.00624   0.00000   0.00054   0.00010  -0.00006
  50        4S          0.03300   0.00000  -0.00964   0.00012  -0.00008
  51        5S         -0.00927   0.00000   0.00900   0.00006   0.00006
  52        6S         -0.00010   0.00000   0.00342   0.00005   0.00007
  53        7PX         0.00000   0.08055   0.00000   0.00000   0.00000
  54        7PY         0.54043   0.00000  -0.28091  -0.00162  -0.00044
  55        7PZ         0.32224   0.00000  -0.18674  -0.00101  -0.00041
  56        8PX         0.00000  -0.00043   0.00000   0.00000   0.00000
  57        8PY        -0.00917   0.00000   0.00480   0.00008  -0.00002
  58        8PZ        -0.00575   0.00000   0.00342   0.00006  -0.00001
  59        9PX         0.00000   0.00471   0.00000   0.00000   0.00000
  60        9PY         0.03323   0.00000  -0.01816  -0.00013  -0.00002
  61        9PZ         0.01987   0.00000  -0.01212  -0.00009  -0.00002
  62       10PX         0.00000  -0.00068   0.00000   0.00000   0.00000
  63       10PY        -0.00104   0.00000   0.00356   0.00002   0.00007
  64       10PZ        -0.00165   0.00000   0.00241   0.00000   0.00002
  65       11PX         0.00000   0.00034   0.00000   0.00000   0.00000
  66       11PY         0.00007   0.00000   0.00028   0.00000   0.00001
  67       11PZ         0.00003   0.00000   0.00010   0.00001   0.00002
  68       12D 0        0.00001   0.00000   0.00001   0.00000   0.00000
  69       12D+1        0.00000  -0.00006   0.00000   0.00000   0.00000
  70       12D-1        0.00044   0.00000  -0.00032   0.00000   0.00000
  71       12D+2       -0.00032   0.00000   0.00021   0.00000   0.00000
  72       12D-2        0.00000  -0.00004   0.00000   0.00000   0.00000
  73       13D 0        0.00018   0.00000   0.00004   0.00000   0.00000
  74       13D+1        0.00000  -0.00005   0.00000   0.00000   0.00000
  75       13D-1       -0.00198   0.00000   0.00195   0.00003   0.00000
  76       13D+2        0.00168   0.00000  -0.00122  -0.00002   0.00000
  77       13D-2        0.00000  -0.00022   0.00000   0.00000   0.00000
  78       14D 0        0.00003   0.00000   0.00011   0.00000   0.00000
  79       14D+1        0.00000  -0.00023   0.00000   0.00000   0.00000
  80       14D-1        0.00020   0.00000   0.00068  -0.00001   0.00001
  81       14D+2       -0.00046   0.00000  -0.00058   0.00000  -0.00002
  82       14D-2        0.00000  -0.00055   0.00000   0.00000   0.00000
  83       15F 0        0.00000   0.00000   0.00002   0.00000   0.00000
  84       15F+1        0.00000   0.00000   0.00000   0.00000   0.00000
  85       15F-1        0.00000   0.00000  -0.00001   0.00000   0.00000
  86       15F+2        0.00005   0.00000  -0.00001   0.00000   0.00000
  87       15F-2        0.00000  -0.00001   0.00000   0.00000   0.00000
  88       15F+3        0.00000  -0.00003   0.00000   0.00000   0.00000
  89       15F-3        0.00010   0.00000  -0.00005   0.00000   0.00000
  90       16F 0        0.00032   0.00000  -0.00027   0.00000   0.00000
  91       16F+1        0.00000   0.00000   0.00000   0.00000   0.00000
  92       16F-1       -0.00011   0.00000   0.00031   0.00000   0.00000
  93       16F+2        0.00044   0.00000  -0.00046   0.00000   0.00000
  94       16F-2        0.00000   0.00000   0.00000   0.00000   0.00000
  95       16F+3        0.00000   0.00020   0.00000   0.00000   0.00000
  96       16F-3        0.00020   0.00000  -0.00019   0.00000   0.00000
  97 3   Cl 1S         -0.05766   0.00000   0.03020   0.64263  -0.22366
  98        2S          0.19663   0.00000  -0.10799   0.00607  -0.00252
  99        3S         -0.00302   0.00000   0.00058   0.00009  -0.00006
 100        4S          0.01624   0.00000  -0.00975   0.00011  -0.00007
 101        5S         -0.00480   0.00000   0.00907   0.00007   0.00006
 102        6S         -0.00115   0.00000   0.00343   0.00005   0.00006
 103        7PX         0.00000   0.08108   0.00000   0.00000   0.00000
 104        7PY        -0.26598   0.00000   0.28036   0.00159   0.00046
 105        7PZ         0.12164   0.00000  -0.18727  -0.00100  -0.00043
 106        8PX         0.00000  -0.00044   0.00000   0.00000   0.00000
 107        8PY         0.00450   0.00000  -0.00481  -0.00008   0.00001
 108        8PZ        -0.00216   0.00000   0.00345   0.00006  -0.00001
 109        9PX         0.00000   0.00474   0.00000   0.00000   0.00000
 110        9PY        -0.01639   0.00000   0.01812   0.00013   0.00002
 111        9PZ         0.00749   0.00000  -0.01216  -0.00009  -0.00002
 112       10PX         0.00000  -0.00069   0.00000   0.00000   0.00000
 113       10PY         0.00081   0.00000  -0.00356  -0.00003  -0.00006
 114       10PZ        -0.00145   0.00000   0.00242   0.00001   0.00002
 115       11PX         0.00000   0.00034   0.00000   0.00000   0.00000
 116       11PY        -0.00001   0.00000  -0.00028  -0.00001  -0.00001
 117       11PZ        -0.00011   0.00000   0.00010   0.00001   0.00002
 118       12D 0        0.00001   0.00000   0.00001   0.00000   0.00000
 119       12D+1        0.00000  -0.00006   0.00000   0.00000   0.00000
 120       12D-1       -0.00021   0.00000   0.00032   0.00000   0.00000
 121       12D+2       -0.00014   0.00000   0.00021   0.00000   0.00000
 122       12D-2        0.00000   0.00005   0.00000   0.00000   0.00000
 123       13D 0        0.00047   0.00000   0.00006   0.00000   0.00000
 124       13D+1        0.00000  -0.00005   0.00000   0.00000   0.00000
 125       13D-1        0.00074   0.00000  -0.00195  -0.00003   0.00000
 126       13D+2        0.00099   0.00000  -0.00121  -0.00002   0.00000
 127       13D-2        0.00000   0.00022   0.00000   0.00000   0.00000
 128       14D 0        0.00000   0.00000   0.00012   0.00000   0.00000
 129       14D+1        0.00000  -0.00023   0.00000   0.00000   0.00000
 130       14D-1       -0.00010   0.00000  -0.00067   0.00001  -0.00001
 131       14D+2        0.00001   0.00000  -0.00057   0.00000  -0.00002
 132       14D-2        0.00000   0.00055   0.00000   0.00000   0.00000
 133       15F 0        0.00002   0.00000   0.00003   0.00000   0.00000
 134       15F+1        0.00000   0.00000   0.00000   0.00000   0.00000
 135       15F-1       -0.00005   0.00000   0.00001   0.00000   0.00000
 136       15F+2        0.00002   0.00000  -0.00001   0.00000   0.00000
 137       15F-2        0.00000   0.00001   0.00000   0.00000   0.00000
 138       15F+3        0.00000  -0.00003   0.00000   0.00000   0.00000
 139       15F-3       -0.00009   0.00000   0.00004   0.00000   0.00000
 140       16F 0        0.00014   0.00000  -0.00027   0.00000   0.00000
 141       16F+1        0.00000   0.00001   0.00000   0.00000   0.00000
 142       16F-1       -0.00012   0.00000  -0.00032   0.00000   0.00000
 143       16F+2        0.00015   0.00000  -0.00046   0.00000   0.00000
 144       16F-2        0.00000   0.00000   0.00000   0.00000   0.00000
 145       16F+3        0.00000   0.00020   0.00000   0.00000   0.00000
 146       16F-3       -0.00014   0.00000   0.00018   0.00000   0.00000
 147 4   S  1S          0.08345   0.00000   0.04997   0.33868   0.93709
 148        2S         -0.28783   0.00000  -0.18504   0.00398   0.01231
 149        3S          0.00460   0.00000   0.00154   0.00012   0.00030
 150        4S         -0.02066   0.00000  -0.01371  -0.00004  -0.00003
 151        5S          0.00067   0.00000   0.00630   0.00018   0.00001
 152        6S         -0.00482   0.00000   0.00117   0.00013   0.00007
 153        7PX         0.00000   0.96526   0.00000   0.00000   0.00000
 154        7PY        -0.02846   0.00000   0.00100   0.00001   0.00000
 155        7PZ         0.37065   0.00000   0.42480   0.00194   0.00235
 156        8PX         0.00000  -0.01125   0.00000   0.00000   0.00000
 157        8PY        -0.00007   0.00000  -0.00001   0.00000   0.00000
 158        8PZ        -0.00419   0.00000  -0.00461  -0.00011  -0.00017
 159        9PX         0.00000   0.06176   0.00000   0.00000   0.00000
 160        9PY        -0.00173   0.00000   0.00006   0.00000   0.00000
 161        9PZ         0.02379   0.00000   0.02821   0.00015   0.00022
 162       10PX         0.00000   0.00104   0.00000   0.00000   0.00000
 163       10PY        -0.00098   0.00000  -0.00001   0.00000   0.00000
 164       10PZ         0.00291   0.00000  -0.00191  -0.00009   0.00004
 165       11PX         0.00000  -0.00028   0.00000   0.00000   0.00000
 166       11PY        -0.00007   0.00000   0.00000   0.00000   0.00000
 167       11PZ         0.00078   0.00000  -0.00016  -0.00001   0.00001
 168       12D 0        0.00026   0.00000   0.00114   0.00004   0.00005
 169       12D+1        0.00000   0.00216   0.00000   0.00000   0.00000
 170       12D-1        0.00022   0.00000   0.00000   0.00000   0.00000
 171       12D+2        0.00011   0.00000   0.00022   0.00000  -0.00001
 172       12D-2        0.00000   0.00000   0.00000   0.00000   0.00000
 173       13D 0       -0.00029   0.00000  -0.00062   0.00000   0.00001
 174       13D+1        0.00000  -0.00018   0.00000   0.00000   0.00000
 175       13D-1       -0.00002   0.00000   0.00000   0.00000   0.00000
 176       13D+2       -0.00011   0.00000  -0.00008   0.00000   0.00001
 177       13D-2        0.00000   0.00000   0.00000   0.00000   0.00000
 178       14D 0       -0.00093   0.00000   0.00039   0.00000  -0.00004
 179       14D+1        0.00000  -0.00047   0.00000   0.00000   0.00000
 180       14D-1        0.00025   0.00000   0.00000   0.00000   0.00000
 181       14D+2        0.00066   0.00000  -0.00015   0.00000   0.00001
 182       14D-2        0.00000   0.00000   0.00000   0.00000   0.00000
 183       15F 0        0.00019   0.00000   0.00039  -0.00001  -0.00002
 184       15F+1        0.00000  -0.00026   0.00000   0.00000   0.00000
 185       15F-1       -0.00002   0.00000   0.00000   0.00000   0.00000
 186       15F+2        0.00008   0.00000   0.00009   0.00000   0.00000
 187       15F-2        0.00000   0.00000   0.00000   0.00000   0.00000
 188       15F+3        0.00000   0.00013   0.00000   0.00000   0.00000
 189       15F-3       -0.00001   0.00000   0.00000   0.00000   0.00000
 190       16F 0       -0.00021   0.00000  -0.00037   0.00000   0.00000
 191       16F+1        0.00000  -0.00048   0.00000   0.00000   0.00000
 192       16F-1       -0.00008   0.00000   0.00000   0.00000   0.00000
 193       16F+2       -0.00031   0.00000  -0.00019   0.00000   0.00000
 194       16F-2        0.00000   0.00000   0.00000   0.00000   0.00000
 195       16F+3        0.00000  -0.00012   0.00000   0.00000   0.00000
 196       16F-3       -0.00001   0.00000   0.00000   0.00000   0.00000
                          16        17        18        19        20
     Eigenvalues --     2.00000   1.97692   1.97417   1.96999   1.95124
   1 1   C  1S         -0.00002  -0.08550   0.00053  -0.06957  -0.03829
   2        2S          0.00000   0.22024  -0.00139   0.18677   0.10657
   3        3S          0.00000   0.04806  -0.00027   0.04472   0.02565
   4        4S          0.00001   0.04465  -0.00069   0.06243   0.05316
   5        5S          0.00000   0.01157  -0.00027   0.01587   0.00161
   6        6PX         0.00000   0.00000   0.00000   0.00000   0.00000
   7        6PY        -0.00001   0.00105   0.06049  -0.00005   0.00048
   8        6PZ         0.00000  -0.01056  -0.00033   0.10373  -0.05343
   9        7PX         0.00000   0.00000   0.00000   0.00000   0.00000
  10        7PY         0.00004   0.00137   0.08327   0.00004   0.00064
  11        7PZ         0.00000  -0.02077  -0.00028   0.12960  -0.07444
  12        8PX         0.00000   0.00000   0.00000   0.00000   0.00000
  13        8PY        -0.00005   0.00010   0.00370   0.00007   0.00034
  14        8PZ         0.00000   0.00817  -0.00001   0.00481  -0.04695
  15        9PX         0.00000   0.00000   0.00000   0.00000   0.00000
  16        9PY        -0.00001   0.00012   0.00827   0.00006  -0.00004
  17        9PZ         0.00000  -0.00384   0.00005   0.00846  -0.02186
  18       10D 0        0.00000   0.00432  -0.00003   0.00974   0.01020
  19       10D+1        0.00000   0.00000   0.00000   0.00000   0.00000
  20       10D-1        0.00000  -0.00020  -0.00841   0.00003  -0.00005
  21       10D+2        0.00000  -0.00704   0.00002   0.00123   0.00379
  22       10D-2        0.00000   0.00000   0.00000   0.00000   0.00000
  23       11D 0        0.00000   0.00604  -0.00005   0.01120   0.03025
  24       11D+1        0.00000   0.00000   0.00000   0.00000   0.00000
  25       11D-1       -0.00006  -0.00033  -0.01767   0.00000   0.00003
  26       11D+2        0.00000  -0.01102   0.00011   0.00313   0.01392
  27       11D-2        0.00000   0.00000   0.00000   0.00000   0.00000
  28       12D 0        0.00000   0.00383  -0.00005   0.00372  -0.04174
  29       12D+1        0.00000   0.00000   0.00000   0.00000   0.00000
  30       12D-1       -0.00002   0.00014   0.01206  -0.00019  -0.00039
  31       12D+2        0.00000   0.00760   0.00001   0.00471  -0.02661
  32       12D-2        0.00000   0.00000   0.00000   0.00000   0.00000
  33       13F 0        0.00000   0.00400  -0.00003   0.00468  -0.00112
  34       13F+1        0.00000   0.00000   0.00000   0.00000   0.00000
  35       13F-1        0.00000   0.00006   0.00189  -0.00002   0.00006
  36       13F+2        0.00000   0.00457  -0.00002  -0.00024   0.00155
  37       13F-2        0.00000   0.00000   0.00000   0.00000   0.00000
  38       13F+3        0.00000   0.00000   0.00000   0.00000   0.00000
  39       13F-3        0.00000  -0.00004  -0.00241  -0.00001  -0.00001
  40       14F 0        0.00000   0.00136  -0.00004  -0.00097  -0.00306
  41       14F+1        0.00000   0.00000   0.00000   0.00000   0.00000
  42       14F-1       -0.00001   0.00003   0.00043   0.00002  -0.00019
  43       14F+2        0.00000   0.00182  -0.00005  -0.00012   0.00150
  44       14F-2        0.00000   0.00000   0.00000   0.00000   0.00000
  45       14F+3        0.00000   0.00000   0.00000   0.00000   0.00000
  46       14F-3       -0.00001   0.00000  -0.00072   0.00000  -0.00005
  47 2   Cl 1S          0.68025   0.04479  -0.05363  -0.02143  -0.01116
  48        2S          0.00691  -0.16742   0.20060   0.08018   0.04235
  49        3S          0.00011   0.35810  -0.42988  -0.17295  -0.09218
  50        4S          0.00016   0.04340  -0.05404  -0.02267  -0.01448
  51        5S         -0.00005   0.21676  -0.26735  -0.11330  -0.09622
  52        6S         -0.00005  -0.00642   0.00991   0.00254  -0.02575
  53        7PX         0.00000   0.00000   0.00000   0.00000   0.00000
  54        7PY        -0.00046  -0.01620  -0.00003   0.00083  -0.10971
  55        7PZ        -0.00039  -0.00704   0.00735  -0.01878   0.10576
  56        8PX         0.00000   0.00000   0.00000   0.00000   0.00000
  57        8PY         0.00006   0.02432   0.01594  -0.00156   0.25055
  58        8PZ         0.00004   0.00524  -0.00984   0.04798  -0.25298
  59        9PX         0.00000   0.00000   0.00000   0.00000   0.00000
  60        9PY        -0.00006   0.01047   0.00737  -0.00007   0.11961
  61        9PZ        -0.00004   0.00262  -0.00410   0.02248  -0.12123
  62       10PX         0.00000   0.00000   0.00000   0.00000   0.00000
  63       10PY        -0.00006  -0.00034   0.01507  -0.00701   0.13059
  64       10PZ        -0.00003  -0.00292   0.00330   0.02626  -0.18157
  65       11PX         0.00000   0.00000   0.00000   0.00000   0.00000
  66       11PY        -0.00001  -0.00392   0.00290   0.00040   0.00062
  67       11PZ         0.00000  -0.00157   0.00316  -0.00013  -0.00619
  68       12D 0        0.00000  -0.00059  -0.00073   0.00269  -0.00677
  69       12D+1        0.00000   0.00000   0.00000   0.00000   0.00000
  70       12D-1        0.00001   0.00710  -0.00532   0.00266   0.00233
  71       12D+2        0.00000  -0.00588   0.00272   0.00052  -0.00974
  72       12D-2        0.00000   0.00000   0.00000   0.00000   0.00000
  73       13D 0        0.00000  -0.00128  -0.00169   0.00457  -0.00827
  74       13D+1        0.00000   0.00000   0.00000   0.00000   0.00000
  75       13D-1        0.00002   0.00703  -0.00471   0.00429   0.00157
  76       13D+2       -0.00001  -0.00630   0.00187   0.00144  -0.01167
  77       13D-2        0.00000   0.00000   0.00000   0.00000   0.00000
  78       14D 0        0.00000   0.00097   0.00103   0.00294  -0.00871
  79       14D+1        0.00000   0.00000   0.00000   0.00000   0.00000
  80       14D-1       -0.00002  -0.00180   0.00305   0.00204  -0.00384
  81       14D+2        0.00002   0.00165  -0.00252   0.00074  -0.00676
  82       14D-2        0.00000   0.00000   0.00000   0.00000   0.00000
  83       15F 0        0.00000  -0.00131   0.00089   0.00052  -0.00214
  84       15F+1        0.00000   0.00000   0.00000   0.00000   0.00000
  85       15F-1        0.00000   0.00065  -0.00148   0.00131  -0.00392
  86       15F+2        0.00000  -0.00246   0.00210  -0.00019  -0.00150
  87       15F-2        0.00000   0.00000   0.00000   0.00000   0.00000
  88       15F+3        0.00000   0.00000   0.00000   0.00000   0.00000
  89       15F-3        0.00000  -0.00184   0.00083   0.00061  -0.00332
  90       16F 0        0.00000  -0.00019  -0.00032   0.00000  -0.00042
  91       16F+1        0.00000   0.00000   0.00000   0.00000   0.00000
  92       16F-1        0.00000  -0.00017   0.00002   0.00152  -0.00211
  93       16F+2        0.00000   0.00003  -0.00063  -0.00029  -0.00059
  94       16F-2        0.00000   0.00000   0.00000   0.00000   0.00000
  95       16F+3        0.00000   0.00000   0.00000   0.00000   0.00000
  96       16F-3        0.00000   0.00023  -0.00038   0.00023  -0.00133
  97 3   Cl 1S         -0.72902   0.04591   0.05259  -0.02147  -0.01127
  98        2S         -0.00737  -0.17159  -0.19671   0.08031   0.04281
  99        3S         -0.00012   0.36705   0.42162  -0.17330  -0.09317
 100        4S         -0.00016   0.04451   0.05300  -0.02269  -0.01464
 101        5S          0.00004   0.22148   0.26205  -0.11389  -0.09819
 102        6S          0.00005  -0.00723  -0.00989   0.00233  -0.02621
 103        7PX         0.00000   0.00000   0.00000   0.00000   0.00000
 104        7PY        -0.00055   0.01656  -0.00021  -0.00087   0.11052
 105        7PZ         0.00044  -0.00748  -0.00744  -0.01895   0.10379
 106        8PX         0.00000   0.00000   0.00000   0.00000   0.00000
 107        8PY         0.00007  -0.02444   0.01631   0.00172  -0.25216
 108        8PZ        -0.00005   0.00576   0.01005   0.04837  -0.24866
 109        9PX         0.00000   0.00000   0.00000   0.00000   0.00000
 110        9PY        -0.00007  -0.01068   0.00745   0.00011  -0.12044
 111        9PZ         0.00005   0.00294   0.00424   0.02270  -0.11907
 112       10PX         0.00000   0.00000   0.00000   0.00000   0.00000
 113       10PY        -0.00006   0.00102   0.01521   0.00726  -0.13090
 114       10PZ         0.00003  -0.00316  -0.00327   0.02636  -0.17926
 115       11PX         0.00000   0.00000   0.00000   0.00000   0.00000
 116       11PY        -0.00001   0.00405   0.00280  -0.00038  -0.00049
 117       11PZ         0.00000  -0.00169  -0.00315  -0.00017  -0.00602
 118       12D 0        0.00000  -0.00054   0.00079   0.00277  -0.00681
 119       12D+1        0.00000   0.00000   0.00000   0.00000   0.00000
 120       12D-1        0.00001  -0.00740  -0.00532  -0.00267  -0.00258
 121       12D+2        0.00000  -0.00604  -0.00266   0.00055  -0.00995
 122       12D-2        0.00000   0.00000   0.00000   0.00000   0.00000
 123       13D 0        0.00000  -0.00119   0.00176   0.00465  -0.00834
 124       13D+1        0.00000   0.00000   0.00000   0.00000   0.00000
 125       13D-1        0.00002  -0.00717  -0.00461  -0.00427  -0.00177
 126       13D+2        0.00001  -0.00631  -0.00172   0.00149  -0.01181
 127       13D-2        0.00000   0.00000   0.00000   0.00000   0.00000
 128       14D 0        0.00000   0.00097  -0.00106   0.00300  -0.00873
 129       14D+1        0.00000   0.00000   0.00000   0.00000   0.00000
 130       14D-1       -0.00002   0.00198   0.00310  -0.00204   0.00372
 131       14D+2       -0.00002   0.00183   0.00254   0.00074  -0.00682
 132       14D-2        0.00000   0.00000   0.00000   0.00000   0.00000
 133       15F 0        0.00000  -0.00135  -0.00088   0.00055  -0.00221
 134       15F+1        0.00000   0.00000   0.00000   0.00000   0.00000
 135       15F-1        0.00000  -0.00072  -0.00151  -0.00133   0.00388
 136       15F+2        0.00000  -0.00257  -0.00210  -0.00016  -0.00160
 137       15F-2        0.00000   0.00000   0.00000   0.00000   0.00000
 138       15F+3        0.00000   0.00000   0.00000   0.00000   0.00000
 139       15F-3        0.00000   0.00188   0.00081  -0.00063   0.00336
 140       16F 0        0.00000  -0.00016   0.00034   0.00002  -0.00042
 141       16F+1        0.00000   0.00000   0.00000   0.00000   0.00000
 142       16F-1        0.00000   0.00018   0.00005  -0.00150   0.00208
 143       16F+2        0.00000   0.00009   0.00067  -0.00028  -0.00060
 144       16F-2        0.00000   0.00000   0.00000   0.00000   0.00000
 145       16F+3        0.00000   0.00000   0.00000   0.00000   0.00000
 146       16F-3        0.00000  -0.00029  -0.00040  -0.00022   0.00130
 147 4   S  1S          0.01079   0.01658  -0.00021   0.05804   0.00514
 148        2S          0.00016  -0.06372   0.00080  -0.22206  -0.01967
 149        3S          0.00000   0.13210  -0.00169   0.47008   0.04329
 150        4S          0.00000   0.01590  -0.00021   0.06109   0.00611
 151        5S         -0.00001   0.05511  -0.00067   0.24343   0.08094
 152        6S          0.00000  -0.00326   0.00016  -0.03130   0.02536
 153        7PX         0.00000   0.00000   0.00000   0.00000   0.00000
 154        7PY         0.00024  -0.00010  -0.01107  -0.00006  -0.00042
 155        7PZ        -0.00001   0.02172  -0.00025   0.04432   0.00131
 156        8PX         0.00000   0.00000   0.00000   0.00000   0.00000
 157        8PY         0.00002   0.00029   0.03248   0.00015   0.00112
 158        8PZ         0.00000  -0.03280   0.00036  -0.05565  -0.00501
 159        9PX         0.00000   0.00000   0.00000   0.00000   0.00000
 160        9PY         0.00001   0.00011   0.01227   0.00006   0.00042
 161        9PZ         0.00000  -0.01624   0.00019  -0.03098  -0.00122
 162       10PX         0.00000   0.00000   0.00000   0.00000   0.00000
 163       10PY         0.00002   0.00010   0.01013   0.00025   0.00096
 164       10PZ         0.00000   0.00100  -0.00008   0.01618  -0.01716
 165       11PX         0.00000   0.00000   0.00000   0.00000   0.00000
 166       11PY         0.00000  -0.00002  -0.00148   0.00000   0.00004
 167       11PZ         0.00000   0.00235  -0.00005   0.00824   0.00056
 168       12D 0        0.00000   0.00674  -0.00006   0.00984   0.00048
 169       12D+1        0.00000   0.00000   0.00000   0.00000   0.00000
 170       12D-1       -0.00002  -0.00006  -0.00514  -0.00003  -0.00017
 171       12D+2        0.00000   0.00017   0.00000   0.00038   0.00328
 172       12D-2        0.00000   0.00000   0.00000   0.00000   0.00000
 173       13D 0        0.00000   0.00995  -0.00012   0.02409   0.00108
 174       13D+1        0.00000   0.00000   0.00000   0.00000   0.00000
 175       13D-1        0.00000  -0.00004  -0.00338  -0.00001  -0.00006
 176       13D+2        0.00000  -0.00001   0.00000   0.00099   0.00243
 177       13D-2        0.00000   0.00000   0.00000   0.00000   0.00000
 178       14D 0        0.00000  -0.00242   0.00004  -0.00880  -0.00082
 179       14D+1        0.00000   0.00000   0.00000   0.00000   0.00000
 180       14D-1       -0.00001   0.00000   0.00195  -0.00006  -0.00016
 181       14D+2        0.00000  -0.00173   0.00000  -0.00088   0.00538
 182       14D-2        0.00000   0.00000   0.00000   0.00000   0.00000
 183       15F 0        0.00000  -0.00301   0.00004  -0.00874  -0.00075
 184       15F+1        0.00000   0.00000   0.00000   0.00000   0.00000
 185       15F-1        0.00000   0.00002   0.00171   0.00001   0.00003
 186       15F+2        0.00000   0.00018   0.00000  -0.00031  -0.00042
 187       15F-2        0.00000   0.00000   0.00000   0.00000   0.00000
 188       15F+3        0.00000   0.00000   0.00000   0.00000   0.00000
 189       15F-3        0.00000   0.00000   0.00009   0.00000   0.00000
 190       16F 0        0.00000   0.00069  -0.00001   0.00505  -0.00007
 191       16F+1        0.00000   0.00000   0.00000   0.00000   0.00000
 192       16F-1        0.00001   0.00002   0.00079   0.00001   0.00004
 193       16F+2        0.00000  -0.00062   0.00001  -0.00076  -0.00130
 194       16F-2        0.00000   0.00000   0.00000   0.00000   0.00000
 195       16F+3        0.00000   0.00000   0.00000   0.00000   0.00000
 196       16F-3        0.00000   0.00000   0.00035   0.00000   0.00001
                          21        22        23        24        25
     Eigenvalues --     1.94882   1.94875   1.94805   1.94662   1.94096
   1 1   C  1S          0.10036   0.06782   0.00000   0.00000   0.00271
   2        2S         -0.28055  -0.18959   0.00000   0.00000  -0.00769
   3        3S         -0.06731  -0.04551   0.00000   0.00000  -0.00198
   4        4S         -0.17567  -0.11889   0.00000   0.00000  -0.00558
   5        5S         -0.00669  -0.00474   0.00000   0.00000   0.00004
   6        6PX         0.00000   0.00000   0.09558   0.00130   0.00000
   7        6PY        -0.04693   0.06514   0.00000   0.00000   0.16800
   8        6PZ         0.03066   0.02107   0.00000   0.00000  -0.00731
   9        7PX         0.00000   0.00000   0.13652   0.00179   0.00000
  10        7PY        -0.06432   0.08923   0.00000   0.00000   0.23688
  11        7PZ         0.05184   0.03560   0.00000   0.00000  -0.00948
  12        8PX         0.00000   0.00000   0.06193   0.00044   0.00000
  13        8PY        -0.01992   0.02794   0.00000   0.00000   0.08267
  14        8PZ        -0.01493  -0.01014   0.00000   0.00000  -0.00168
  15        9PX         0.00000   0.00000   0.00651   0.00001   0.00000
  16        9PY        -0.00575   0.00880   0.00000   0.00000  -0.00723
  17        9PZ        -0.00247  -0.00145   0.00000   0.00000   0.00062
  18       10D 0        0.00152   0.00082   0.00000   0.00000  -0.00036
  19       10D+1        0.00000   0.00000  -0.00716  -0.00010   0.00000
  20       10D-1       -0.00253   0.00427   0.00000   0.00000  -0.00656
  21       10D+2        0.00615   0.00401   0.00000   0.00000  -0.00023
  22       10D-2        0.00000   0.00000   0.00006   0.01054   0.00000
  23       11D 0        0.00599   0.00362   0.00000   0.00000  -0.00030
  24       11D+1        0.00000   0.00000  -0.02300  -0.00022   0.00000
  25       11D-1       -0.00890   0.01411   0.00000   0.00000  -0.01304
  26       11D+2        0.01410   0.00922   0.00000   0.00000  -0.00031
  27       11D-2        0.00000   0.00000  -0.00002   0.03221   0.00000
  28       12D 0       -0.01723  -0.01123   0.00000   0.00000  -0.00016
  29       12D+1        0.00000   0.00000   0.01620   0.00025   0.00000
  30       12D-1        0.02065  -0.03104   0.00000   0.00000   0.01066
  31       12D+2       -0.00504  -0.00315   0.00000   0.00000  -0.00001
  32       12D-2        0.00000   0.00000   0.00000  -0.01086   0.00000
  33       13F 0       -0.00302  -0.00197   0.00000   0.00000  -0.00016
  34       13F+1        0.00000   0.00000   0.00223   0.00004   0.00000
  35       13F-1        0.00135  -0.00223   0.00000   0.00000   0.00768
  36       13F+2       -0.00395  -0.00263   0.00000   0.00000   0.00013
  37       13F-2        0.00000   0.00000  -0.00004  -0.00440   0.00000
  38       13F+3        0.00000   0.00000  -0.00481  -0.00005   0.00000
  39       13F-3        0.00170  -0.00240   0.00000   0.00000  -0.00292
  40       14F 0       -0.00560  -0.00376   0.00000   0.00000   0.00002
  41       14F+1        0.00000   0.00000   0.00229   0.00000   0.00000
  42       14F-1        0.00488  -0.00736   0.00000   0.00000  -0.00100
  43       14F+2       -0.00168  -0.00111   0.00000   0.00000  -0.00018
  44       14F-2        0.00000   0.00000   0.00008  -0.00572   0.00000
  45       14F+3        0.00000   0.00000  -0.00340   0.00001   0.00000
  46       14F-3        0.00169  -0.00262   0.00000   0.00000   0.00097
  47 2   Cl 1S          0.00733   0.01540   0.00000   0.00000   0.00693
  48        2S         -0.02748  -0.05895   0.00000   0.00000  -0.02781
  49        3S          0.06291   0.12782   0.00000   0.00000   0.05978
  50        4S          0.00992   0.02044   0.00000   0.00000   0.01113
  51        5S          0.05081   0.14071   0.00000   0.00000   0.08582
  52        6S         -0.00548   0.03278   0.00000   0.00000   0.01568
  53        7PX         0.00000   0.00000  -0.15315   0.16829   0.00000
  54        7PY         0.07242  -0.02501   0.00000   0.00000   0.12788
  55        7PZ        -0.00950   0.16588   0.00000   0.00000  -0.00682
  56        8PX         0.00000   0.00000   0.35906  -0.39349   0.00000
  57        8PY        -0.15995   0.07419   0.00000   0.00000  -0.28278
  58        8PZ         0.03169  -0.37939   0.00000   0.00000   0.02964
[...]
  52        6S        -13.77427   0.00000   7.31099   5.23792   9.83277
  53        7PX         0.00000  -0.01632   0.00000   0.00000   0.00000
  54        7PY         0.02359   0.00000  -0.01331   0.00388  -0.01594
  55        7PZ         0.00144   0.00000  -0.00388  -0.01108  -0.01413
  56        8PX         0.00000  -0.19226   0.00000   0.00000   0.00000
  57        8PY         0.38136   0.00000  -0.16818   0.04886  -0.25631
  58        8PZ         0.02963   0.00000  -0.04004  -0.14213  -0.23063
  59        9PX         0.00000   0.06257   0.00000   0.00000   0.00000
  60        9PY        -0.08659   0.00000   0.05190  -0.01446   0.06039
  61        9PZ        -0.00203   0.00000   0.01601   0.04334   0.05412
  62       10PX         0.00000   0.82385   0.00000   0.00000   0.00000
  63       10PY        -5.27991   0.00000   0.82675   0.54633   1.88007
  64       10PZ        -2.65352   0.00000   0.57646   1.37788   1.31321
  65       11PX         0.00000  -2.37467   0.00000   0.00000   0.00000
  66       11PY        -2.44175   0.00000  -1.63968   1.27768   1.49761
  67       11PZ        -1.40485   0.00000   1.02888  -2.71736   1.56192
  68       12D 0        0.01908   0.00000  -0.01054  -0.02358  -0.00513
  69       12D+1        0.00000  -0.01486   0.00000   0.00000   0.00000
  70       12D-1       -0.01878   0.00000   0.00364  -0.00157   0.01735
  71       12D+2        0.04065   0.00000   0.04281   0.00755   0.01235
  72       12D-2        0.00000  -0.02212   0.00000   0.00000   0.00000
  73       13D 0       -0.11194   0.00000   0.05494   0.09079   0.00125
  74       13D+1        0.00000   0.06222   0.00000   0.00000   0.00000
  75       13D-1       -0.00117   0.00000   0.01313   0.04356  -0.09359
  76       13D+2       -0.12563   0.00000  -0.14903  -0.03589  -0.03279
  77       13D-2        0.00000   0.09130   0.00000   0.00000   0.00000
  78       14D 0        0.39056   0.00000  -0.02538  -0.18602   0.07565
  79       14D+1        0.00000  -0.09477   0.00000   0.00000   0.00000
  80       14D-1       -1.28554   0.00000   0.16149   0.31019   0.49674
  81       14D+2        1.05643   0.00000   0.30466  -0.02214  -0.31469
  82       14D-2        0.00000   0.09652   0.00000   0.00000   0.00000
  83       15F 0       -0.01729   0.00000   0.02956   0.00261   0.00716
  84       15F+1        0.00000  -0.01108   0.00000   0.00000   0.00000
  85       15F-1        0.03721   0.00000  -0.00602   0.01295  -0.00256
  86       15F+2       -0.02008   0.00000   0.00834   0.02720   0.02048
  87       15F-2        0.00000  -0.00500   0.00000   0.00000   0.00000
  88       15F+3        0.00000   0.05195   0.00000   0.00000   0.00000
  89       15F-3        0.01666   0.00000   0.01998  -0.00423   0.03234
  90       16F 0        0.07364   0.00000  -0.06358  -0.04500   0.00554
  91       16F+1        0.00000   0.00723   0.00000   0.00000   0.00000
  92       16F-1       -0.12768   0.00000   0.03299  -0.02506  -0.00228
  93       16F+2        0.10584   0.00000  -0.01802  -0.07669  -0.03621
  94       16F-2        0.00000   0.02206   0.00000   0.00000   0.00000
  95       16F+3        0.00000  -0.13149   0.00000   0.00000   0.00000
  96       16F-3       -0.00537   0.00000  -0.02033   0.01130  -0.07355
  97 3   Cl 1S         -0.01589   0.00000  -0.00983   0.00550   0.00354
  98        2S         -0.21409   0.00000  -0.18296   0.10447   0.08142
  99        3S         -0.60702   0.00000  -0.41235   0.23030   0.16001
 100        4S          0.02670   0.00000   0.16539  -0.10764  -0.10045
 101        5S          4.86818   0.00000   0.85377   0.02964  -0.15017
 102        6S         13.73421   0.00000  -7.09902   5.40870  10.07742
 103        7PX         0.00000  -0.01633   0.00000   0.00000   0.00000
 104        7PY         0.02314   0.00000  -0.01305  -0.00375   0.01669
 105        7PZ        -0.00096   0.00000   0.00369  -0.01113  -0.01450
 106        8PX         0.00000  -0.19280   0.00000   0.00000   0.00000
 107        8PY         0.37864   0.00000  -0.16428  -0.04764   0.26771
 108        8PZ        -0.02497   0.00000   0.03626  -0.14275  -0.23675
 109        9PX         0.00000   0.06258   0.00000   0.00000   0.00000
 110        9PY        -0.08491   0.00000   0.05078   0.01383  -0.06327
 111        9PZ         0.00027   0.00000  -0.01524   0.04361   0.05548
 112       10PX         0.00000   0.83908   0.00000   0.00000   0.00000
 113       10PY        -5.29141   0.00000   0.80070  -0.58845  -1.92535
 114       10PZ         2.64580   0.00000  -0.56154   1.41497   1.36103
 115       11PX         0.00000  -2.38520   0.00000   0.00000   0.00000
 116       11PY        -2.45399   0.00000  -1.71111  -1.29025  -1.47294
 117       11PZ         1.47944   0.00000  -1.00696  -2.71285   1.59657
 118       12D 0       -0.01776   0.00000   0.01003  -0.02350  -0.00531
 119       12D+1        0.00000  -0.01480   0.00000   0.00000   0.00000
 120       12D-1       -0.02058   0.00000   0.00257   0.00093  -0.01728
 121       12D+2       -0.04278   0.00000  -0.04283   0.00755   0.01283
 122       12D-2        0.00000   0.02190   0.00000   0.00000   0.00000
 123       13D 0        0.10757   0.00000  -0.05393   0.09033   0.00313
 124       13D+1        0.00000   0.06225   0.00000   0.00000   0.00000
 125       13D-1        0.00691   0.00000   0.01722  -0.04230   0.09561
 126       13D+2        0.13375   0.00000   0.14924  -0.03639  -0.03210
 127       13D-2        0.00000  -0.09111   0.00000   0.00000   0.00000
 128       14D 0       -0.38848   0.00000   0.02254  -0.18579   0.08330
 129       14D+1        0.00000  -0.09048   0.00000   0.00000   0.00000
 130       14D-1       -1.31117   0.00000   0.15225  -0.32382  -0.51103
 131       14D+2       -1.07336   0.00000  -0.31034  -0.02699  -0.31753
 132       14D-2        0.00000  -0.10277   0.00000   0.00000   0.00000
 133       15F 0        0.01778   0.00000  -0.02936   0.00284   0.00772
 134       15F+1        0.00000  -0.01111   0.00000   0.00000   0.00000
 135       15F-1        0.03717   0.00000  -0.00654  -0.01277   0.00327
 136       15F+2        0.01957   0.00000  -0.00800   0.02712   0.02156
 137       15F-2        0.00000   0.00497   0.00000   0.00000   0.00000
 138       15F+3        0.00000   0.05161   0.00000   0.00000   0.00000
 139       15F-3        0.01586   0.00000   0.01940   0.00426  -0.03331
 140       16F 0       -0.07527   0.00000   0.06349  -0.04602   0.00586
 141       16F+1        0.00000   0.00745   0.00000   0.00000   0.00000
 142       16F-1       -0.12769   0.00000   0.03441   0.02464   0.00011
 143       16F+2       -0.10562   0.00000   0.01762  -0.07683  -0.03719
 144       16F-2        0.00000  -0.02277   0.00000   0.00000   0.00000
 145       16F+3        0.00000  -0.13150   0.00000   0.00000   0.00000
 146       16F-3       -0.00358   0.00000  -0.01943  -0.01146   0.07449
 147 4   S  1S          0.00040   0.00000   0.00002   0.00190  -0.00371
 148        2S          0.00692   0.00000   0.00025  -0.00106  -0.06177
 149        3S          0.01815   0.00000   0.00076   0.05868  -0.16660
 150        4S         -0.00462   0.00000  -0.00010   0.10501   0.02168
 151        5S         -0.04878   0.00000   0.01628  -3.76407   2.32023
 152        6S         -0.07337   0.00000   0.05082 -15.54714   4.26687
 153        7PX         0.00000  -0.02005   0.00000   0.00000   0.00000
 154        7PY         0.01754   0.00000   0.00342   0.00008   0.00000
 155        7PZ        -0.00066   0.00000  -0.00001  -0.00748  -0.00106
 156        8PX         0.00000  -0.09183   0.00000   0.00000   0.00000
 157        8PY         0.26857   0.00000   0.12981   0.00136  -0.00109
 158        8PZ        -0.01107   0.00000  -0.00123  -0.01072  -0.12892
 159        9PX         0.00000   0.07515   0.00000   0.00000   0.00000
 160        9PY        -0.06548   0.00000  -0.01141  -0.00026  -0.00007
 161        9PZ         0.00221   0.00000  -0.00017   0.02098   0.00015
 162       10PX         0.00000  -0.64049   0.00000   0.00000   0.00000
 163       10PY        -3.53451   0.00000  -0.40301   0.00272   0.01753
 164       10PZ         0.06844   0.00000  -0.00483   3.58861  -0.35849
 165       11PX         0.00000  -4.10550   0.00000   0.00000   0.00000
 166       11PY        -0.08204   0.00000  -4.74172   0.01040   0.04472
 167       11PZ         0.03274   0.00000  -0.00877  -1.05426   0.79032
 168       12D 0        0.00077   0.00000   0.00080  -0.45455   0.33019
 169       12D+1        0.00000  -0.33882   0.00000   0.00000   0.00000
 170       12D-1       -0.07613   0.00000  -0.36101  -0.00134   0.00159
 171       12D+2        0.00110   0.00000  -0.00108   0.11131  -0.14871
 172       12D-2        0.00000  -0.00023   0.00000   0.00000   0.00000
 173       13D 0        0.00099   0.00000  -0.00011   0.08486  -0.08231
 174       13D+1        0.00000   0.06957   0.00000   0.00000   0.00000
 175       13D-1        0.04220   0.00000   0.07041   0.00000  -0.00031
 176       13D+2       -0.00012   0.00000   0.00025  -0.03285   0.03082
 177       13D-2        0.00000   0.00003   0.00000   0.00000   0.00000
 178       14D 0       -0.01714   0.00000  -0.00624   0.17521  -1.16360
 179       14D+1        0.00000   1.23950   0.00000   0.00000   0.00000
 180       14D-1        1.48551   0.00000   0.92128  -0.00351  -0.01469
 181       14D+2        0.01137   0.00000  -0.00016  -0.44273   0.17784
 182       14D-2        0.00000   0.00240   0.00000   0.00000   0.00000
 183       15F 0       -0.00077   0.00000  -0.00012  -0.01361  -0.01270
 184       15F+1        0.00000   0.01524   0.00000   0.00000   0.00000
 185       15F-1       -0.06862   0.00000   0.00572  -0.00036  -0.00020
 186       15F+2        0.00066   0.00000  -0.00023  -0.01270   0.00186
 187       15F-2        0.00000   0.00012   0.00000   0.00000   0.00000
 188       15F+3        0.00000   0.02685   0.00000   0.00000   0.00000
 189       15F-3       -0.00263   0.00000   0.04047  -0.00014  -0.00033
 190       16F 0       -0.00068   0.00000   0.00164   0.08057   0.13339
 191       16F+1        0.00000  -0.01889   0.00000   0.00000   0.00000
 192       16F-1        0.09817   0.00000   0.01109   0.00186   0.00133
 193       16F+2       -0.00436   0.00000   0.00081   0.07175   0.01708
 194       16F-2        0.00000  -0.00058   0.00000   0.00000   0.00000
 195       16F+3        0.00000  -0.06035   0.00000   0.00000   0.00000
 196       16F-3        0.01655   0.00000  -0.09422   0.00040   0.00074
                         196
     Eigenvalues --     0.00000
   1 1   C  1S         -0.03296
   2        2S         -0.11907
   3        3S          0.13268
   4        4S          2.57496
   5        5S         20.91022
   6        6PX         0.00000
   7        6PY         0.00014
   8        6PZ         0.02251
   9        7PX         0.00000
  10        7PY        -0.00063
  11        7PZ        -0.20471
  12        8PX         0.00000
  13        8PY         0.03633
  14        8PZ         1.15965
  15        9PX         0.00000
  16        9PY         0.03966
  17        9PZ         3.31905
  18       10D 0        0.01245
  19       10D+1        0.00000
  20       10D-1        0.00005
  21       10D+2       -0.03482
  22       10D-2        0.00000
  23       11D 0       -0.33308
  24       11D+1        0.00000
  25       11D-1        0.00166
  26       11D+2        0.16906
  27       11D-2        0.00000
  28       12D 0       -1.00878
  29       12D+1        0.00000
  30       12D-1        0.02591
  31       12D+2       -0.74229
  32       12D-2        0.00000
  33       13F 0       -0.02595
  34       13F+1        0.00000
  35       13F-1       -0.00018
  36       13F+2       -0.00083
  37       13F-2        0.00000
  38       13F+3        0.00000
  39       13F-3        0.00018
  40       14F 0       -0.14023
  41       14F+1        0.00000
  42       14F-1       -0.00009
  43       14F+2       -0.11866
  44       14F-2        0.00000
  45       14F+3        0.00000
  46       14F-3       -0.00076
  47 2   Cl 1S         -0.00107
  48        2S         -0.01460
  49        3S         -0.04096
  50        4S         -0.00133
  51        5S          0.36332
  52        6S         -3.39643
  53        7PX         0.00000
  54        7PY         0.00790
  55        7PZ         0.00351
  56        8PX         0.00000
  57        8PY         0.13976
  58        8PZ         0.08545
  59        9PX         0.00000
  60        9PY        -0.02878
  61        9PZ        -0.01107
  62       10PX         0.00000
  63       10PY         0.13844
  64       10PZ        -0.40739
  65       11PX         0.00000
  66       11PY        -0.74459
  67       11PZ        -1.00173
  68       12D 0        0.00853
  69       12D+1        0.00000
  70       12D-1       -0.01067
  71       12D+2       -0.00745
  72       12D-2        0.00000
  73       13D 0       -0.04196
  74       13D+1        0.00000
  75       13D-1        0.08797
  76       13D+2       -0.01022
  77       13D-2        0.00000
  78       14D 0       -0.04776
  79       14D+1        0.00000
  80       14D-1       -0.16939
  81       14D+2       -0.16921
  82       14D-2        0.00000
  83       15F 0       -0.00514
  84       15F+1        0.00000
  85       15F-1        0.00640
  86       15F+2       -0.00358
  87       15F-2        0.00000
  88       15F+3        0.00000
  89       15F-3       -0.00149
  90       16F 0        0.00489
  91       16F+1        0.00000
  92       16F-1       -0.02018
  93       16F+2       -0.00492
  94       16F-2        0.00000
  95       16F+3        0.00000
  96       16F-3       -0.01232
  97 3   Cl 1S         -0.00107
  98        2S         -0.01484
  99        3S         -0.04112
 100        4S         -0.00073
 101        5S          0.38398
 102        6S         -3.47597
 103        7PX         0.00000
 104        7PY        -0.00799
 105        7PZ         0.00362
 106        8PX         0.00000
 107        8PY        -0.14208
 108        8PZ         0.08833
 109        9PX         0.00000
 110        9PY         0.02899
 111        9PZ        -0.01134
 112       10PX         0.00000
 113       10PY        -0.13552
 114       10PZ        -0.43257
 115       11PX         0.00000
 116       11PY         0.73538
 117       11PZ        -1.01887
 118       12D 0        0.00862
 119       12D+1        0.00000
 120       12D-1        0.01047
 121       12D+2       -0.00781
 122       12D-2        0.00000
 123       13D 0       -0.04217
 124       13D+1        0.00000
 125       13D-1       -0.08801
 126       13D+2       -0.00918
 127       13D-2        0.00000
 128       14D 0       -0.05486
 129       14D+1        0.00000
 130       14D-1        0.17655
 131       14D+2       -0.16825
 132       14D-2        0.00000
 133       15F 0       -0.00510
 134       15F+1        0.00000
 135       15F-1       -0.00679
 136       15F+2       -0.00384
 137       15F-2        0.00000
 138       15F+3        0.00000
 139       15F-3        0.00208
 140       16F 0        0.00456
 141       16F+1        0.00000
 142       16F-1        0.02136
 143       16F+2       -0.00418
 144       16F-2        0.00000
 145       16F+3        0.00000
 146       16F-3        0.01086
 147 4   S  1S         -0.00441
 148        2S         -0.11095
 149        3S         -0.23441
 150        4S          0.10597
 151        5S          2.77625
 152        6S        -18.07255
 153        7PX         0.00000
 154        7PY         0.00004
 155        7PZ        -0.04528
 156        8PX         0.00000
 157        8PY         0.00061
 158        8PZ        -0.90887
 159        9PX         0.00000
 160        9PY        -0.00010
 161        9PZ         0.14219
 162       10PX         0.00000
 163       10PY        -0.02872
 164       10PZ         3.42113
 165       11PX         0.00000
 166       11PY        -0.01601
 167       11PZ         4.75003
 168       12D 0        0.31702
 169       12D+1        0.00000
 170       12D-1        0.00185
 171       12D+2        0.09012
 172       12D-2        0.00000
 173       13D 0       -0.00695
 174       13D+1        0.00000
 175       13D-1       -0.00019
 176       13D+2       -0.02075
 177       13D-2        0.00000
 178       14D 0       -1.71304
 179       14D+1        0.00000
 180       14D-1        0.01430
 181       14D+2        0.03932
 182       14D-2        0.00000
 183       15F 0       -0.08744
 184       15F+1        0.00000
 185       15F-1        0.00020
 186       15F+2        0.01210
 187       15F-2        0.00000
 188       15F+3        0.00000
 189       15F-3        0.00021
 190       16F 0        0.18821
 191       16F+1        0.00000
 192       16F-1       -0.00207
 193       16F+2       -0.08512
 194       16F-2        0.00000
 195       16F+3        0.00000
 196       16F-3       -0.00049
          Condensed to atoms (all electrons):
              1          2          3          4
     1  C    5.669455   0.074762   0.070546   0.178758
     2  Cl   0.074762  17.191147  -0.117596  -0.127242
     3  Cl   0.070546  -0.117596  17.189628  -0.128277
     4  S    0.178758  -0.127242  -0.128277  16.047867
 Mulliken atomic charges:
              1
     1  C    0.006480
     2  Cl  -0.021072
     3  Cl  -0.014302
     4  S    0.028894
 Sum of Mulliken atomic charges =   0.00000
 Mulliken charges with hydrogens summed into heavy atoms:
              1
     1  C    0.006480
     2  Cl  -0.021072
     3  Cl  -0.014302
     4  S    0.028894
 Sum of Mulliken charges with hydrogens summed into heavy atoms =   0.00000
 Electronic spatial extent (au):  <R**2>=            692.4460
 Charge=              0.0000 electrons
 Dipole moment (field-independent basis, Debye):
    X=              0.0000    Y=              0.0305    Z=             -0.4119  Tot=              0.4131
 Quadrupole moment (field-independent basis, Debye-Ang):
   XX=            -43.1647   YY=            -43.2954   ZZ=            -42.5575
   XY=              0.0000   XZ=              0.0000   YZ=             -0.0498
 Traceless Quadrupole moment (field-independent basis, Debye-Ang):
   XX=             -0.1589   YY=             -0.2896   ZZ=              0.4484
   XY=              0.0000   XZ=              0.0000   YZ=             -0.0498
 Octapole moment (field-independent basis, Debye-Ang**2):
  XXX=              0.0000  YYY=              0.4612  ZZZ=             81.8115  XYY=              0.0000
  XXY=              0.1603  XXZ=             27.1684  XZZ=              0.0000  YZZ=              0.2306
  YYZ=             19.0100  XYZ=              0.0000
 Hexadecapole moment (field-independent basis, Debye-Ang**3):
 XXXX=            -50.9183 YYYY=           -342.4147 ZZZZ=           -477.9626 XXXY=              0.0000
 XXXZ=              0.0000 YYYX=              0.0000 YYYZ=             -0.6491 ZZZX=              0.0000
 ZZZY=             -0.8186 XXYY=            -69.6149 XXZZ=            -89.7787 YYZZ=           -127.7113
 XXYZ=             -0.2410 YYXZ=              0.0000 ZZXY=              0.0000
 N-N= 2.444789817283D+02 E-N=-3.712515366415D+03  KE= 1.355020794321D+03
 1\1\GINC-TRAPISTA\SP\RQCISD-FC\Aug-CC-pVTZ\C1Cl2S1\BRUNS\27-Nov-2021\0
 \\# qcisd/aug-cc-pvtz nosymm density=current output=wfn\\cl2cs-wavefun
 ction\\0,1\C,0,0.,0.,-0.522914\Cl,0,0.,-1.440735,-1.5009\Cl,0,0.,1.430
 735,-1.5009\S,0,0.,0.,1.081815\\Version=EM64L-G09RevB.01\HF=-1354.4258
 825\MP2=-1355.1503376\MP3=-1355.1829322\MP4D=-1355.2047589\MP4DQ=-1355
 .1798429\MP4SDQ=-1355.1866948\QCISD=-1355.1841987\RMSD=3.865e-09\Dipol
 e=0.,0.0120127,-0.1620677\Quadrupole=-0.1181012,-0.2152804,0.3333816,0
 .,0.,-0.037058\PG=CS [SG(C1Cl2S1)]\\@

 Writing a WFN file to GAUSSIAN.wfn.


 WE STILL HAVE JUDGEMENT HERE,
 THAT WE TEACH BUT BLOODY INSTRUCTIONS,
 WHICH, BEING TAUGHT,
 RETURN TO PLAGUE THE INVENTOR.
           MACBETH ACT I, SCENE VII
 Job cpu time:  0 days  2 hours 18 minutes 54.7 seconds.
 File lengths (MBytes):  RWF=  18573 Int=      0 D2E=      0 Chk=      3 Scr=      1
 Normal termination of Gaussian 09 at Sat Nov 27 23:00:40 2021.
