 cl2cs-wavefunction
GAUSSIAN            196 MOL ORBITALS    414 PRIMITIVES        4 NUCLEI
  C    1    (CENTRE  1)   0.00000000  0.00000000 -0.98816425  CHARGE =  6.0
  Cl   2    (CENTRE  2)   0.00000000 -2.70369732 -2.83628995  CHARGE = 17.0
  Cl   3    (CENTRE  3)   0.00000000  2.70369732 -2.83628995  CHARGE = 17.0
  S    4    (CENTRE  4)   0.00000000  0.00000000  2.04433408  CHARGE = 16.0
CENTRE ASSIGNMENTS    1  1  1  1  1  1  1  1  1  1  1  1  1  1  1  1  1  1  1  1
CENTRE ASSIGNMENTS    1  1  1  1  1  1  1  1  1  1  1  1  1  1  1  1  1  1  1  1
CENTRE ASSIGNMENTS    1  1  1  1  1  1  1  1  1  1  1  1  1  1  1  1  1  1  1  1
CENTRE ASSIGNMENTS    1  1  1  1  1  1  1  1  1  1  1  1  2  2  2  2  2  2  2  2
CENTRE ASSIGNMENTS    2  2  2  2  2  2  2  2  2  2  2  2  2  2  2  2  2  2  2  2
CENTRE ASSIGNMENTS    2  2  2  2  2  2  2  2  2  2  2  2  2  2  2  2  2  2  2  2
CENTRE ASSIGNMENTS    2  2  2  2  2  2  2  2  2  2  2  2  2  2  2  2  2  2  2  2
CENTRE ASSIGNMENTS    2  2  2  2  2  2  2  2  2  2  2  2  2  2  2  2  2  2  2  2
CENTRE ASSIGNMENTS    2  2  2  2  2  2  2  2  2  2  2  2  2  2  2  2  2  2  2  2
CENTRE ASSIGNMENTS    2  2  2  2  2  2  3  3  3  3  3  3  3  3  3  3  3  3  3  3
CENTRE ASSIGNMENTS    3  3  3  3  3  3  3  3  3  3  3  3  3  3  3  3  3  3  3  3
CENTRE ASSIGNMENTS    3  3  3  3  3  3  3  3  3  3  3  3  3  3  3  3  3  3  3  3
CENTRE ASSIGNMENTS    3  3  3  3  3  3  3  3  3  3  3  3  3  3  3  3  3  3  3  3
CENTRE ASSIGNMENTS    3  3  3  3  3  3  3  3  3  3  3  3  3  3  3  3  3  3  3  3
CENTRE ASSIGNMENTS    3  3  3  3  3  3  3  3  3  3  3  3  3  3  3  3  3  3  3  3
CENTRE ASSIGNMENTS    4  4  4  4  4  4  4  4  4  4  4  4  4  4  4  4  4  4  4  4
CENTRE ASSIGNMENTS    4  4  4  4  4  4  4  4  4  4  4  4  4  4  4  4  4  4  4  4
CENTRE ASSIGNMENTS    4  4  4  4  4  4  4  4  4  4  4  4  4  4  4  4  4  4  4  4
CENTRE ASSIGNMENTS    4  4  4  4  4  4  4  4  4  4  4  4  4  4  4  4  4  4  4  4
CENTRE ASSIGNMENTS    4  4  4  4  4  4  4  4  4  4  4  4  4  4  4  4  4  4  4  4
CENTRE ASSIGNMENTS    4  4  4  4  4  4  4  4  4  4  4  4  4  4
TYPE ASSIGNMENTS      1  1  1  1  1  1  1  1  1  1  1  1  1  1  1  1  2  2  2  3
TYPE ASSIGNMENTS      3  3  4  4  4  2  3  4  2  3  4  2  3  4  5  6  7  8  9 10
TYPE ASSIGNMENTS      5  6  7  8  9 10  5  6  7  8  9 10 11 12 13 17 14 15 18 19
TYPE ASSIGNMENTS     16 20 11 12 13 17 14 15 18 19 16 20  1  1  1  1  1  1  1  1
TYPE ASSIGNMENTS      1  1  1  1  1  1  1  1  1  1  1  1  1  1  1  1  1  1  1  1
TYPE ASSIGNMENTS      1  1  1  2  2  2  2  2  2  3  3  3  3  3  3  4  4  4  4  4
TYPE ASSIGNMENTS      4  2  2  2  2  2  2  3  3  3  3  3  3  4  4  4  4  4  4  2
TYPE ASSIGNMENTS      3  4  2  3  4  2  3  4  5  6  7  8  9 10  5  6  7  8  9 10
TYPE ASSIGNMENTS      5  6  7  8  9 10 11 12 13 17 14 15 18 19 16 20 11 12 13 17
TYPE ASSIGNMENTS     14 15 18 19 16 20  1  1  1  1  1  1  1  1  1  1  1  1  1  1
TYPE ASSIGNMENTS      1  1  1  1  1  1  1  1  1  1  1  1  1  1  1  1  1  2  2  2
TYPE ASSIGNMENTS      2  2  2  3  3  3  3  3  3  4  4  4  4  4  4  2  2  2  2  2
TYPE ASSIGNMENTS      2  3  3  3  3  3  3  4  4  4  4  4  4  2  3  4  2  3  4  2
TYPE ASSIGNMENTS      3  4  5  6  7  8  9 10  5  6  7  8  9 10  5  6  7  8  9 10
TYPE ASSIGNMENTS     11 12 13 17 14 15 18 19 16 20 11 12 13 17 14 15 18 19 16 20
TYPE ASSIGNMENTS      1  1  1  1  1  1  1  1  1  1  1  1  1  1  1  1  1  1  1  1
TYPE ASSIGNMENTS      1  1  1  1  1  1  1  1  1  1  1  2  2  2  2  2  2  3  3  3
TYPE ASSIGNMENTS      3  3  3  4  4  4  4  4  4  2  2  2  2  2  2  3  3  3  3  3
TYPE ASSIGNMENTS      3  4  4  4  4  4  4  2  3  4  2  3  4  2  3  4  5  6  7  8
TYPE ASSIGNMENTS      9 10  5  6  7  8  9 10  5  6  7  8  9 10 11 12 13 17 14 15
TYPE ASSIGNMENTS     18 19 16 20 11 12 13 17 14 15 18 19 16 20
EXPONENTS  0.8236000D+04 0.1235000D+04 0.2808000D+03 0.7927000D+02 0.2559000D+02
EXPONENTS  0.8997000D+01 0.3319000D+01 0.2808000D+03 0.7927000D+02 0.2559000D+02
EXPONENTS  0.8997000D+01 0.3319000D+01 0.3643000D+00 0.9059000D+00 0.1285000D+00
EXPONENTS  0.4402000D-01 0.1871000D+02 0.4133000D+01 0.1200000D+01 0.1871000D+02
EXPONENTS  0.4133000D+01 0.1200000D+01 0.1871000D+02 0.4133000D+01 0.1200000D+01
EXPONENTS  0.3827000D+00 0.3827000D+00 0.3827000D+00 0.1209000D+00 0.1209000D+00
EXPONENTS  0.1209000D+00 0.3569000D-01 0.3569000D-01 0.3569000D-01 0.1097000D+01
EXPONENTS  0.1097000D+01 0.1097000D+01 0.1097000D+01 0.1097000D+01 0.1097000D+01
EXPONENTS  0.3180000D+00 0.3180000D+00 0.3180000D+00 0.3180000D+00 0.3180000D+00
EXPONENTS  0.3180000D+00 0.1000000D+00 0.1000000D+00 0.1000000D+00 0.1000000D+00
EXPONENTS  0.1000000D+00 0.1000000D+00 0.7610000D+00 0.7610000D+00 0.7610000D+00
EXPONENTS  0.7610000D+00 0.7610000D+00 0.7610000D+00 0.7610000D+00 0.7610000D+00
EXPONENTS  0.7610000D+00 0.7610000D+00 0.2680000D+00 0.2680000D+00 0.2680000D+00
EXPONENTS  0.2680000D+00 0.2680000D+00 0.2680000D+00 0.2680000D+00 0.2680000D+00
EXPONENTS  0.2680000D+00 0.2680000D+00 0.4561000D+06 0.6833000D+05 0.1555000D+05
EXPONENTS  0.4405000D+04 0.1439000D+04 0.5204000D+03 0.2031000D+03 0.8396000D+02
EXPONENTS  0.3620000D+02 0.1583000D+02 0.6334000D+01 0.4405000D+04 0.1439000D+04
EXPONENTS  0.5204000D+03 0.2031000D+03 0.8396000D+02 0.3620000D+02 0.1583000D+02
EXPONENTS  0.6334000D+01 0.2694000D+01 0.1439000D+04 0.2031000D+03 0.8396000D+02
EXPONENTS  0.3620000D+02 0.1583000D+02 0.6334000D+01 0.2694000D+01 0.4313000D+00
EXPONENTS  0.9768000D+00 0.1625000D+00 0.5910000D-01 0.6633000D+03 0.1568000D+03
EXPONENTS  0.4998000D+02 0.1842000D+02 0.7240000D+01 0.2922000D+01 0.6633000D+03
EXPONENTS  0.1568000D+03 0.4998000D+02 0.1842000D+02 0.7240000D+01 0.2922000D+01
EXPONENTS  0.6633000D+03 0.1568000D+03 0.4998000D+02 0.1842000D+02 0.7240000D+01
EXPONENTS  0.2922000D+01 0.1568000D+03 0.4998000D+02 0.1842000D+02 0.7240000D+01
EXPONENTS  0.2922000D+01 0.3818000D+00 0.1568000D+03 0.4998000D+02 0.1842000D+02
EXPONENTS  0.7240000D+01 0.2922000D+01 0.3818000D+00 0.1568000D+03 0.4998000D+02
EXPONENTS  0.1842000D+02 0.7240000D+01 0.2922000D+01 0.3818000D+00 0.1022000D+01
EXPONENTS  0.1022000D+01 0.1022000D+01 0.1301000D+00 0.1301000D+00 0.1301000D+00
EXPONENTS  0.4190000D-01 0.4190000D-01 0.4190000D-01 0.1046000D+01 0.1046000D+01
EXPONENTS  0.1046000D+01 0.1046000D+01 0.1046000D+01 0.1046000D+01 0.3440000D+00
EXPONENTS  0.3440000D+00 0.3440000D+00 0.3440000D+00 0.3440000D+00 0.3440000D+00
EXPONENTS  0.1350000D+00 0.1350000D+00 0.1350000D+00 0.1350000D+00 0.1350000D+00
EXPONENTS  0.1350000D+00 0.7060000D+00 0.7060000D+00 0.7060000D+00 0.7060000D+00
EXPONENTS  0.7060000D+00 0.7060000D+00 0.7060000D+00 0.7060000D+00 0.7060000D+00
EXPONENTS  0.7060000D+00 0.3120000D+00 0.3120000D+00 0.3120000D+00 0.3120000D+00
EXPONENTS  0.3120000D+00 0.3120000D+00 0.3120000D+00 0.3120000D+00 0.3120000D+00
EXPONENTS  0.3120000D+00 0.4561000D+06 0.6833000D+05 0.1555000D+05 0.4405000D+04
EXPONENTS  0.1439000D+04 0.5204000D+03 0.2031000D+03 0.8396000D+02 0.3620000D+02
EXPONENTS  0.1583000D+02 0.6334000D+01 0.4405000D+04 0.1439000D+04 0.5204000D+03
EXPONENTS  0.2031000D+03 0.8396000D+02 0.3620000D+02 0.1583000D+02 0.6334000D+01
EXPONENTS  0.2694000D+01 0.1439000D+04 0.2031000D+03 0.8396000D+02 0.3620000D+02
EXPONENTS  0.1583000D+02 0.6334000D+01 0.2694000D+01 0.4313000D+00 0.9768000D+00
EXPONENTS  0.1625000D+00 0.5910000D-01 0.6633000D+03 0.1568000D+03 0.4998000D+02
EXPONENTS  0.1842000D+02 0.7240000D+01 0.2922000D+01 0.6633000D+03 0.1568000D+03
EXPONENTS  0.4998000D+02 0.1842000D+02 0.7240000D+01 0.2922000D+01 0.6633000D+03
EXPONENTS  0.1568000D+03 0.4998000D+02 0.1842000D+02 0.7240000D+01 0.2922000D+01
EXPONENTS  0.1568000D+03 0.4998000D+02 0.1842000D+02 0.7240000D+01 0.2922000D+01
EXPONENTS  0.3818000D+00 0.1568000D+03 0.4998000D+02 0.1842000D+02 0.7240000D+01
EXPONENTS  0.2922000D+01 0.3818000D+00 0.1568000D+03 0.4998000D+02 0.1842000D+02
EXPONENTS  0.7240000D+01 0.2922000D+01 0.3818000D+00 0.1022000D+01 0.1022000D+01
EXPONENTS  0.1022000D+01 0.1301000D+00 0.1301000D+00 0.1301000D+00 0.4190000D-01
EXPONENTS  0.4190000D-01 0.4190000D-01 0.1046000D+01 0.1046000D+01 0.1046000D+01
EXPONENTS  0.1046000D+01 0.1046000D+01 0.1046000D+01 0.3440000D+00 0.3440000D+00
EXPONENTS  0.3440000D+00 0.3440000D+00 0.3440000D+00 0.3440000D+00 0.1350000D+00
EXPONENTS  0.1350000D+00 0.1350000D+00 0.1350000D+00 0.1350000D+00 0.1350000D+00
EXPONENTS  0.7060000D+00 0.7060000D+00 0.7060000D+00 0.7060000D+00 0.7060000D+00
EXPONENTS  0.7060000D+00 0.7060000D+00 0.7060000D+00 0.7060000D+00 0.7060000D+00
EXPONENTS  0.3120000D+00 0.3120000D+00 0.3120000D+00 0.3120000D+00 0.3120000D+00
EXPONENTS  0.3120000D+00 0.3120000D+00 0.3120000D+00 0.3120000D+00 0.3120000D+00
EXPONENTS  0.3741000D+06 0.5605000D+05 0.1276000D+05 0.3615000D+04 0.1183000D+04
EXPONENTS  0.4288000D+03 0.1678000D+03 0.6947000D+02 0.2984000D+02 0.1272000D+02
EXPONENTS  0.5244000D+01 0.3615000D+04 0.1183000D+04 0.4288000D+03 0.1678000D+03
EXPONENTS  0.6947000D+02 0.2984000D+02 0.1272000D+02 0.5244000D+01 0.2219000D+01
EXPONENTS  0.1183000D+04 0.1678000D+03 0.6947000D+02 0.2984000D+02 0.1272000D+02
EXPONENTS  0.5244000D+01 0.2219000D+01 0.3490000D+00 0.7767000D+00 0.1322000D+00
EXPONENTS  0.4970000D-01 0.5744000D+03 0.1358000D+03 0.4319000D+02 0.1587000D+02
EXPONENTS  0.6208000D+01 0.2483000D+01 0.5744000D+03 0.1358000D+03 0.4319000D+02
EXPONENTS  0.1587000D+02 0.6208000D+01 0.2483000D+01 0.5744000D+03 0.1358000D+03
EXPONENTS  0.4319000D+02 0.1587000D+02 0.6208000D+01 0.2483000D+01 0.1358000D+03
EXPONENTS  0.4319000D+02 0.1587000D+02 0.6208000D+01 0.2483000D+01 0.3229000D+00
EXPONENTS  0.1358000D+03 0.4319000D+02 0.1587000D+02 0.6208000D+01 0.2483000D+01
EXPONENTS  0.3229000D+00 0.1358000D+03 0.4319000D+02 0.1587000D+02 0.6208000D+01
EXPONENTS  0.2483000D+01 0.3229000D+00 0.8688000D+00 0.8688000D+00 0.8688000D+00
EXPONENTS  0.1098000D+00 0.1098000D+00 0.1098000D+00 0.3510000D-01 0.3510000D-01
EXPONENTS  0.3510000D-01 0.2690000D+00 0.2690000D+00 0.2690000D+00 0.2690000D+00
EXPONENTS  0.2690000D+00 0.2690000D+00 0.8190000D+00 0.8190000D+00 0.8190000D+00
EXPONENTS  0.8190000D+00 0.8190000D+00 0.8190000D+00 0.1010000D+00 0.1010000D+00
EXPONENTS  0.1010000D+00 0.1010000D+00 0.1010000D+00 0.1010000D+00 0.5570000D+00
EXPONENTS  0.5570000D+00 0.5570000D+00 0.5570000D+00 0.5570000D+00 0.5570000D+00
EXPONENTS  0.5570000D+00 0.5570000D+00 0.5570000D+00 0.5570000D+00 0.2180000D+00
EXPONENTS  0.2180000D+00 0.2180000D+00 0.2180000D+00 0.2180000D+00 0.2180000D+00
EXPONENTS  0.2180000D+00 0.2180000D+00 0.2180000D+00 0.2180000D+00
MO    1     MO 0.0        OCC NO =    2.0000385  ORB. ENERGY =    0.000000
 -0.12447162D-10 -0.23204017D-10 -0.39217950D-10 -0.58951893D-10 -0.72411842D-10
 -0.61113040D-10 -0.22980099D-10 -0.39631481D-14 -0.29622077D-13 -0.11070446D-12
 -0.30884822D-12 -0.41377146D-12  0.48858695D-12 -0.86142736D-12 -0.10732836D-11
 -0.17156716D-12 -0.13412365D-11 -0.12574945D-11 -0.89541100D-12  0.74403742D-03
  0.69758237D-03  0.49672021D-03  0.22305014D-11  0.20912368D-11  0.14890852D-11
 -0.27610540D-12  0.19819072D-03  0.16172145D-11  0.36951589D-13  0.30952235D-03
 -0.14705069D-11  0.85527446D-14 -0.10510026D-04 -0.13433666D-12 -0.13892002D-12
  0.21221342D-11 -0.19832142D-11  0.23847650D-12  0.33357223D-12  0.26885526D-03
  0.15986340D-12 -0.31659892D-12  0.15673552D-12 -0.23381796D-13 -0.10777094D-14
  0.28122399D-03  0.11101032D-13  0.47019073D-12 -0.48129176D-12  0.23813822D-13
  0.53576753D-13  0.18759134D-03  0.31558134D-13  0.24698806D-03  0.27231510D-12
 -0.57309532D-13  0.26475679D-04 -0.52237011D-12 -0.37364870D-13 -0.76743986D-03
 -0.29457518D-12 -0.10128974D-12 -0.12878844D-13 -0.30063562D-03 -0.21555629D-12
  0.37659055D-13 -0.21473758D-04  0.29162327D-12  0.97747631D-15  0.92338062D-03
  0.35504562D-12  0.75208918D-13 -0.13946934D-02 -0.26093225D-02 -0.45083305D-02
 -0.73085334D-02 -0.11098709D-01 -0.15426162D-01 -0.18340524D-01 -0.16338376D-01
 -0.81139831D-02 -0.13062826D-02 -0.13782053D-04 -0.68585800D-05 -0.22879075D-03
 -0.79728995D-03 -0.28711702D-02 -0.63291374D-02 -0.89093827D-02  0.42500659D-03
  0.11659474D-01  0.68941743D-02  0.22709903D-06  0.27507238D-05  0.57363445D-05
  0.16450837D-04  0.85426908D-06 -0.70943989D-04 -0.18330564D-03  0.14934881D-03
  0.38487155D-03 -0.21124185D-03 -0.10726440D-03  0.47051876D-08  0.61978327D-08
  0.68371797D-08  0.56788131D-08  0.30156073D-08  0.77804245D-09 -0.48526910D+01
 -0.63921292D+01 -0.70515192D+01 -0.58568388D+01 -0.31101439D+01 -0.80243339D+00
  0.65963965D+01  0.86889973D+01  0.95853241D+01  0.79613622D+01  0.42277042D+01
  0.10907698D+01 -0.19206395D-12  0.18567507D-11  0.26182123D-11  0.37447362D-11
 -0.18962817D-13 -0.34342763D-11  0.25174923D-03 -0.24337495D-02 -0.34318409D-02
 -0.49084403D-02  0.24855651D-04  0.45015027D-02 -0.32935432D-03  0.31839856D-02
  0.44897521D-02  0.64215332D-02 -0.32517740D-04 -0.58891516D-02  0.31082661D-10
 -0.31216132D-01  0.42590425D-01 -0.18326540D-12  0.34366328D-03 -0.50720555D-03
 -0.10872197D-13  0.96080288D-05 -0.19522408D-04  0.76161403D-05 -0.81314927D-03
  0.80553313D-03  0.43316427D-12  0.31751176D-12  0.73862851D-03  0.41804381D-04
  0.47697468D-03 -0.51877906D-03 -0.26543523D-12 -0.16036145D-12 -0.34743138D-03
 -0.21087414D-05 -0.15919468D-05  0.37006881D-05  0.23988720D-13  0.89468626D-14
  0.34792975D-05  0.42528862D-14 -0.22278258D-04 -0.98473806D-05 -0.16256813D-13
  0.49204559D-04  0.37124842D-04  0.34981544D-14  0.17630214D-04 -0.75827005D-05
  0.15838832D-13  0.14575590D-13  0.84380172D-04 -0.40465907D-04 -0.34473888D-13
 -0.90714805D-05  0.43599603D-04 -0.92528810D-14 -0.24406903D-03  0.77798119D-04
 -0.75684861D-13  0.13946933D-02  0.26093224D-02  0.45083304D-02  0.73085332D-02
  0.11098709D-01  0.15426161D-01  0.18340524D-01  0.16338376D-01  0.81139829D-02
  0.13062826D-02  0.13782053D-04  0.68585799D-05  0.22879074D-03  0.79728994D-03
  0.28711702D-02  0.63291373D-02  0.89093826D-02 -0.42500659D-03 -0.11659474D-01
 -0.68941742D-02 -0.22709903D-06 -0.27507238D-05 -0.57363445D-05 -0.16450837D-04
 -0.85426908D-06  0.70943989D-04  0.18330564D-03 -0.14934881D-03 -0.38487155D-03
  0.21124184D-03  0.10726440D-03  0.14302936D-08  0.18840313D-08  0.20783815D-08
  0.17262585D-08  0.91669118D-09  0.23651112D-09 -0.48526910D+01 -0.63921293D+01
 -0.70515192D+01 -0.58568388D+01 -0.31101439D+01 -0.80243339D+00 -0.65963965D+01
 -0.86889973D+01 -0.95853242D+01 -0.79613622D+01 -0.42277043D+01 -0.10907698D+01
 -0.48695374D-13  0.47075554D-12  0.66381445D-12  0.94943027D-12 -0.48077812D-14
 -0.87071710D-12  0.25174923D-03 -0.24337495D-02 -0.34318409D-02 -0.49084403D-02
  0.24855651D-04  0.45015027D-02  0.32935432D-03 -0.31839856D-02 -0.44897521D-02
 -0.64215332D-02  0.32517740D-04  0.58891516D-02  0.96319147D-11 -0.31216132D-01
 -0.42590425D-01 -0.42240367D-13  0.34366328D-03  0.50720555D-03 -0.50411905D-14
  0.96080288D-05  0.19522408D-04 -0.76161403D-05  0.81314927D-03 -0.80553313D-03
 -0.32278693D-13  0.85425092D-13  0.73862851D-03 -0.41804381D-04 -0.47697468D-03
  0.51877907D-03  0.67958396D-13 -0.25348937D-13 -0.34743138D-03  0.21087414D-05
  0.15919470D-05 -0.37006884D-05 -0.83948399D-14 -0.12489794D-13  0.34792977D-05
 -0.61874238D-14 -0.22278257D-04  0.98473806D-05 -0.35581442D-13  0.49204558D-04
 -0.37124842D-04  0.54143714D-13  0.17630214D-04  0.75827003D-05 -0.32556834D-13
  0.76302614D-14  0.84380172D-04  0.40465907D-04  0.16996725D-14 -0.90714807D-05
 -0.43599603D-04 -0.24590457D-13 -0.24406904D-03 -0.77798119D-04  0.20801999D-13
 -0.19939783D-10 -0.37279433D-10 -0.64429940D-10 -0.10421277D-09 -0.15751412D-09
 -0.21692955D-09 -0.25356423D-09 -0.21914735D-09 -0.10227721D-09 -0.13856318D-10
  0.10134711D-12 -0.15543500D-12 -0.19981013D-11 -0.72887864D-11 -0.24592185D-10
 -0.54015472D-10 -0.69773257D-10  0.11213156D-10  0.94065051D-10  0.51621687D-10
 -0.33281591D-15 -0.37909801D-14 -0.78714412D-14 -0.21644464D-13  0.28064534D-14
  0.97866410D-13  0.24409437D-12 -0.20205778D-12  0.33249251D-11  0.32356944D-11
  0.75550687D-12 -0.34926511D-09 -0.45821597D-09 -0.50256375D-09 -0.41349431D-09
 -0.21797069D-09 -0.56711874D-10  0.83873068D+00  0.11003670D+01  0.12068644D+01
  0.99297167D+00  0.52343821D+00  0.13618878D+00 -0.20732610D-08 -0.27200005D-08
 -0.29832518D-08 -0.24545298D-08 -0.12938885D-08 -0.33664546D-09 -0.57195068D-14
 -0.20530531D-12 -0.32572201D-12 -0.38678490D-12 -0.58530750D-13  0.42597583D-12
  0.22751338D-04  0.81667365D-03  0.12956732D-02  0.15385722D-02  0.23282653D-03
 -0.16944678D-02 -0.15927031D-13 -0.57171082D-12 -0.90703354D-12 -0.10770745D-11
 -0.16298976D-12  0.11862090D-11 -0.23440139D-11  0.59019772D-02 -0.14725491D-10
 -0.52846966D-13 -0.52204805D-03 -0.32698681D-12 -0.22390888D-14 -0.67217550D-05
 -0.10440893D-14  0.67034403D-13  0.15474945D-12 -0.22178385D-12 -0.20993638D-13
  0.11870607D-13  0.69048184D-03 -0.27269088D-12  0.20633053D-12  0.66360351D-13
  0.43308552D-13  0.36556794D-13 -0.10457336D-03  0.29767686D-13 -0.25473871D-13
 -0.42938158D-14 -0.64786128D-14  0.28303439D-13  0.76555602D-04 -0.64886844D-14
  0.63093595D-04  0.89272296D-13 -0.48599111D-14  0.23084369D-04  0.13712308D-12
  0.24325964D-13 -0.21236515D-03 -0.40493996D-12 -0.15160709D-13  0.54908027D-14
  0.27139090D-04  0.31068344D-13 -0.41653277D-14  0.20725814D-05 -0.58699122D-13
 -0.12307080D-13 -0.83489850D-04 -0.34505911D-13  0.20452823D-13
MO    2     MO 0.0        OCC NO =    2.0000376  ORB. ENERGY =    0.000000
 -0.56204604D-03 -0.10477671D-02 -0.17708691D-02 -0.26619465D-02 -0.32697245D-02
 -0.27595321D-02 -0.10376561D-02 -0.10917095D-05 -0.81598523D-05 -0.30495231D-04
 -0.85076947D-04 -0.11397965D-03  0.13458872D-03  0.18381604D-04 -0.44421946D-03
 -0.64450575D-04  0.40017147D-12  0.37518619D-12  0.26715491D-12 -0.29116610D-11
 -0.27298673D-11 -0.19438281D-11  0.81740180D-03  0.76636614D-03  0.54569835D-03
  0.84481483D-13 -0.98172653D-12  0.57390606D-03 -0.22395441D-13 -0.69519714D-12
 -0.50672061D-03 -0.43812994D-14  0.44149562D-13 -0.46048664D-04 -0.63796065D-04
  0.71575411D-03 -0.65195805D-03 -0.55348732D-13 -0.12366104D-12 -0.12665276D-11
  0.63274730D-04 -0.11213005D-03  0.48855325D-04  0.63555351D-14  0.60202075D-14
 -0.59188943D-12  0.47768866D-05  0.16311862D-03 -0.16789550D-03 -0.56104104D-14
 -0.20332812D-13 -0.60039210D-12 -0.97592383D-14 -0.69669524D-12  0.99955375D-04
  0.20311743D-13  0.46551038D-13 -0.19011070D-03  0.89659718D-14  0.20435347D-11
 -0.10975543D-03  0.20673659D-13  0.42139616D-14  0.85942419D-12 -0.74365468D-04
 -0.14067066D-13  0.32570590D-13  0.98160369D-04  0.14251816D-14 -0.26108431D-11
  0.12493604D-03 -0.16778460D-13 -0.80033726D-03 -0.14973456D-02 -0.25870811D-02
 -0.41939625D-02 -0.63689344D-02 -0.88522196D-02 -0.10524611D-01 -0.93756891D-02
 -0.46561654D-02 -0.74960324D-03 -0.79087570D-05 -0.41560557D-05 -0.13863906D-03
 -0.48312937D-03 -0.17398271D-02 -0.38352323D-02 -0.53987693D-02  0.25753889D-03
  0.70652272D-02  0.41776246D-02  0.29121979D-06  0.35273828D-05  0.73559850D-05
  0.21095684D-04  0.10954695D-05 -0.90974822D-04 -0.23506147D-03  0.19151702D-03
  0.13798468D-03 -0.35358593D-03 -0.17159831D-03 -0.13478467D-08 -0.17754294D-08
 -0.19585765D-08 -0.16267512D-08 -0.86385001D-09 -0.22287782D-09  0.41841240D+01
  0.55114701D+01  0.60800142D+01  0.50499279D+01  0.26816518D+01  0.69188019D+00
 -0.70562694D+01 -0.92947575D+01 -0.10253572D+02 -0.85163948D+01 -0.45224419D+01
 -0.11668137D+01  0.55373368D-13 -0.53531410D-12 -0.75484875D-12 -0.10796334D-11
  0.54671116D-14  0.99012566D-12 -0.18202395D-03  0.17596905D-02  0.24813472D-02
  0.35489829D-02 -0.17971550D-04 -0.32547521D-02  0.33136985D-03 -0.32034705D-02
 -0.45172279D-02 -0.64608308D-02  0.32716738D-04  0.59251912D-02 -0.88947927D-11
  0.27026525D-01 -0.45655690D-01  0.53177268D-13 -0.14315313D-03  0.13550630D-03
  0.37985220D-14 -0.10749343D-04  0.13333766D-04  0.14971632D-04  0.47417179D-03
 -0.48914342D-03 -0.12078250D-12 -0.92537198D-13 -0.44615666D-03  0.24752015D-04
 -0.28454016D-03  0.25978815D-03  0.77181414D-13  0.46188572D-13  0.41261059D-03
 -0.27899400D-05  0.47356398D-04 -0.44566458D-04 -0.68508451D-14 -0.11924231D-14
 -0.26994750D-04 -0.46291734D-16 -0.30172185D-04  0.10934982D-05  0.56247666D-14
  0.59180686D-04  0.30248289D-04 -0.54858914D-14  0.31335868D-04 -0.33528784D-04
 -0.11215849D-13 -0.47599464D-14 -0.46861462D-04 -0.11819531D-04  0.99598502D-14
  0.18265955D-04 -0.41594803D-04  0.43199889D-14  0.12231843D-03  0.77053397D-04
  0.24460593D-13 -0.80033735D-03 -0.14973458D-02 -0.25870814D-02 -0.41939629D-02
 -0.63689351D-02 -0.88522206D-02 -0.10524612D-01 -0.93756901D-02 -0.46561659D-02
 -0.74960333D-03 -0.79087579D-05 -0.41560559D-05 -0.13863907D-03 -0.48312940D-03
 -0.17398272D-02 -0.38352325D-02 -0.53987695D-02  0.25753890D-03  0.70652275D-02
  0.41776248D-02  0.29121979D-06  0.35273828D-05  0.73559850D-05  0.21095684D-04
  0.10954695D-05 -0.90974821D-04 -0.23506147D-03  0.19151702D-03  0.13798469D-03
 -0.35358593D-03 -0.17159831D-03 -0.68727656D-09 -0.90530401D-09 -0.99869204D-09
 -0.82949193D-09 -0.44048323D-09 -0.11364698D-09 -0.41841239D+01 -0.55114700D+01
 -0.60800142D+01 -0.50499278D+01 -0.26816518D+01 -0.69188018D+00 -0.70562694D+01
 -0.92947574D+01 -0.10253572D+02 -0.85163947D+01 -0.45224419D+01 -0.11668137D+01
  0.25970599D-13 -0.25106704D-12 -0.35403074D-12 -0.50635761D-12  0.25641236D-14
  0.46437768D-12  0.18202395D-03 -0.17596904D-02 -0.24813472D-02 -0.35489829D-02
  0.17971550D-04  0.32547521D-02  0.33136985D-03 -0.32034705D-02 -0.45172278D-02
 -0.64608308D-02  0.32716738D-04  0.59251912D-02 -0.45728976D-11 -0.27026525D-01
 -0.45655690D-01  0.25777433D-13  0.14315313D-03  0.13550630D-03  0.27016792D-14
  0.10749343D-04  0.13333766D-04  0.14971632D-04  0.47417178D-03 -0.48914342D-03
  0.36620257D-13 -0.46982231D-13  0.44615666D-03  0.24752015D-04 -0.28454016D-03
  0.25978815D-03 -0.34632830D-13  0.16690886D-13 -0.41261059D-03 -0.27899400D-05
  0.47356398D-04 -0.44566457D-04  0.34815419D-14  0.37890140D-14  0.26994750D-04
  0.14026154D-14  0.30172185D-04  0.10934981D-05  0.11423421D-13 -0.59180686D-04
  0.30248290D-04 -0.15631267D-13 -0.31335868D-04 -0.33528784D-04  0.13889791D-13
 -0.30853018D-14  0.46861462D-04 -0.11819532D-04  0.16263813D-14 -0.18265955D-04
 -0.41594803D-04  0.76295243D-14 -0.12231843D-03  0.77053398D-04 -0.12631987D-13
  0.51327832D-03  0.95962551D-03  0.16585181D-02  0.26825847D-02  0.40546370D-02
  0.55840746D-02  0.65271032D-02  0.56411640D-02  0.26327606D-02  0.35668129D-03
 -0.26088183D-05  0.64738003D-05  0.83220052D-04  0.30357479D-03  0.10242538D-02
  0.22497209D-02  0.29060258D-02 -0.46702308D-03 -0.39177685D-02 -0.21500208D-02
  0.23276649D-06  0.26513550D-05  0.55051687D-05  0.15137816D-04 -0.19627917D-05
 -0.68446309D-04 -0.17071597D-03  0.14131620D-03 -0.26427033D-04  0.11724350D-02
  0.25935184D-03  0.27848018D-09  0.36535016D-09  0.40071006D-09  0.32969217D-09
  0.17379496D-09  0.45218181D-10  0.13002907D-08  0.17059075D-08  0.18710113D-08
  0.15394117D-08  0.81149034D-09  0.21113452D-09 -0.57348274D+00 -0.75237674D+00
 -0.82519445D+00 -0.67894513D+00 -0.35790127D+00 -0.93119178D-01  0.27634360D-14
  0.99195280D-13  0.15737580D-12  0.18687893D-12  0.28279708D-13 -0.20581442D-12
 -0.32449927D-13 -0.11648106D-11 -0.18480012D-11 -0.21944447D-11 -0.33207733D-12
  0.24167966D-11 -0.45653815D-05 -0.16387725D-03 -0.25999536D-03 -0.30873652D-03
 -0.46719973D-04  0.34001921D-03  0.20209016D-11  0.86306503D-11 -0.39329127D-02
  0.25820053D-13  0.13399520D-11 -0.11704628D-03  0.12414919D-14  0.99820045D-14
 -0.87770164D-07  0.20085315D-04  0.45797316D-04 -0.65882631D-04  0.46848741D-14
  0.24011550D-14 -0.17338989D-11 -0.91836037D-04  0.92072047D-04 -0.23601053D-06
 -0.11004543D-13 -0.19260554D-13  0.20405698D-13  0.10393219D-04 -0.90138279D-05
 -0.13793913D-05  0.15720069D-14 -0.12123727D-13 -0.23060862D-12  0.40537424D-14
 -0.17939854D-12  0.33054306D-04  0.90279386D-15 -0.17422780D-13  0.45348103D-04
 -0.13064021D-13  0.55561841D-12 -0.14451102D-03  0.49107125D-14 -0.20514000D-14
 -0.67301672D-13  0.97905066D-05  0.12558522D-14 -0.35791759D-14 -0.19895864D-04
  0.48983478D-14  0.20548419D-12 -0.94756558D-05 -0.48461157D-14
MO    3     MO 0.0        OCC NO =    2.0000330  ORB. ENERGY =    0.000000
  0.18794253D-10  0.35036274D-10  0.59216077D-10  0.89012808D-10  0.10933629D-09
  0.92275972D-10  0.34698175D-10  0.27085642D-14  0.20244839D-13  0.75659587D-13
  0.21107847D-12  0.28278695D-12 -0.33391866D-12  0.14905763D-11  0.45841057D-14
  0.11287059D-13 -0.11557125D-12 -0.10835539D-12 -0.77155493D-13  0.21703123D-11
  0.20348057D-11  0.14489029D-11 -0.47831336D-12 -0.44844918D-12 -0.31932253D-12
  0.33328776D-14  0.45913609D-12  0.63370106D-13 -0.19279638D-14 -0.54647190D-12
  0.36745244D-13 -0.64895007D-14 -0.18530932D-13 -0.23996941D-14 -0.55045073D-13
  0.61737066D-13 -0.66919933D-14  0.11748210D-02 -0.18325639D-12  0.64139746D-12
  0.24169732D-13 -0.25282537D-13  0.11128052D-14 -0.10412711D-03  0.60304360D-13
 -0.92810174D-13 -0.90827811D-15  0.22624149D-14 -0.13541368D-14  0.11682067D-03
 -0.22379534D-13  0.94615262D-13  0.56140249D-14 -0.82775408D-13 -0.93543985D-15
  0.15460000D-13 -0.20697287D-12  0.94543421D-14 -0.32302075D-13  0.45529909D-12
 -0.66480226D-14 -0.46337692D-03 -0.44524596D-14  0.74702113D-13 -0.18346668D-13
 -0.15540958D-13  0.78282670D-13  0.19900867D-14  0.28898337D-13 -0.30238901D-12
  0.53049918D-13  0.34834463D-03 -0.55967620D-10 -0.10470944D-09 -0.18091469D-09
 -0.29328398D-09 -0.44537986D-09 -0.61903610D-09 -0.73598649D-09 -0.65564234D-09
 -0.32560585D-09 -0.52419787D-10 -0.55305972D-12  0.24285185D-13  0.81011313D-12
  0.28230821D-11  0.10166376D-10  0.22410510D-10  0.31546765D-10 -0.15048835D-11
 -0.41284420D-10 -0.24411219D-10  0.10882257D-14  0.13181071D-13  0.27487734D-13
  0.78830036D-13  0.40935340D-14 -0.33995335D-12 -0.87837416D-12  0.71565792D-12
 -0.14433551D-11 -0.42900030D-12 -0.18284157D-12  0.82136028D+01  0.10819236D+02
  0.11935311D+02  0.99132105D+01  0.52641899D+01  0.13581885D+01  0.17018292D-08
  0.22417072D-08  0.24729540D-08  0.20539819D-08  0.10907214D-08  0.28141182D-09
 -0.70774658D-09 -0.93226781D-09 -0.10284373D-08 -0.85419773D-09 -0.45360270D-09
 -0.11703187D-09 -0.35897918D-03  0.34703797D-02  0.48935976D-02  0.69991392D-02
 -0.35442656D-04 -0.64188707D-02 -0.67374212D-13  0.65133053D-12  0.91844404D-12
  0.13136179D-11 -0.66519763D-14 -0.12047115D-11  0.60358395D-13 -0.58350613D-12
 -0.82280455D-12 -0.11768282D-11  0.59592922D-14  0.10792624D-11  0.53791432D-01
  0.11824258D-10 -0.37770473D-11 -0.35374471D-03 -0.16829573D-12  0.46833120D-13
 -0.14917342D-04 -0.78905984D-14  0.91839134D-15  0.27511243D-13  0.21120121D-12
 -0.23871246D-12  0.99074564D-03  0.56260644D-03 -0.27495115D-12  0.44821295D-13
 -0.10798844D-12  0.63167141D-13 -0.47787667D-03 -0.32826612D-03  0.50504480D-13
 -0.50903198D-14  0.10531307D-13 -0.54409871D-14  0.39004964D-04  0.52134775D-04
 -0.16224870D-13  0.21147698D-04 -0.18664000D-14 -0.20360379D-13  0.44257977D-04
  0.46240987D-13  0.47248562D-13 -0.10770107D-03 -0.40641787D-13  0.13832575D-13
 -0.17190984D-04  0.17142739D-04 -0.12048883D-13 -0.12161875D-14 -0.85420814D-04
 -0.12796326D-13 -0.87852414D-14  0.33992598D-04  0.48942976D-13  0.12433804D-13
 -0.13699841D-03  0.25283095D-10  0.47301973D-10  0.81727317D-10  0.13248958D-09
  0.20119815D-09  0.27964649D-09  0.33247825D-09  0.29618318D-09  0.14709083D-09
  0.23680379D-10  0.24984199D-12  0.34820569D-13  0.11615559D-11  0.40477897D-11
  0.14576746D-10  0.32132623D-10  0.45232362D-10 -0.21577311D-11 -0.59194401D-10
 -0.35001279D-10  0.47142115D-15  0.57100613D-14  0.11907731D-13  0.34149299D-13
  0.17733256D-14 -0.14726834D-12 -0.38051311D-12  0.31002417D-12 -0.23386636D-11
  0.62918650D-12  0.15759293D-12 -0.82136028D+01 -0.10819236D+02 -0.11935311D+02
 -0.99132105D+01 -0.52641899D+01 -0.13581885D+01  0.92881757D-09  0.12234700D-08
  0.13496790D-08  0.11210140D-08  0.59528957D-09  0.15358782D-09  0.44451298D-09
  0.58552758D-09  0.64592857D-09  0.53649425D-09  0.28489334D-09  0.73503970D-10
  0.35897918D-03 -0.34703797D-02 -0.48935976D-02 -0.69991392D-02  0.35442656D-04
  0.64188707D-02 -0.44336855D-13  0.42862019D-12  0.60439921D-12  0.86445075D-12
 -0.43774569D-14 -0.79278287D-12 -0.37737843D-13  0.36482518D-12  0.51444159D-12
  0.73578756D-12 -0.37259246D-14 -0.67478659D-12 -0.53791432D-01  0.66832695D-11
  0.21983284D-11  0.35374471D-03 -0.14920758D-12 -0.32550945D-13  0.14917342D-04
 -0.53294421D-14 -0.32092880D-15 -0.37048846D-13 -0.17937541D-12  0.21642425D-12
  0.99074564D-03 -0.56260644D-03 -0.16903152D-12 -0.37278469D-13  0.90134810D-13
 -0.52856341D-13 -0.47787667D-03  0.32826612D-03 -0.25443353D-13  0.78519750D-14
 -0.75675850D-14 -0.28439001D-15  0.39004964D-04 -0.52134775D-04 -0.11284476D-13
 -0.21147698D-04 -0.12183492D-15  0.18852437D-13 -0.44257977D-04  0.58630656D-13
 -0.57412432D-13  0.10770107D-03 -0.58265151D-13  0.85512023D-15 -0.17190984D-04
 -0.17142739D-04 -0.60219003D-14 -0.68643864D-14  0.85420814D-04 -0.25594950D-13
  0.15889135D-13 -0.33992598D-04  0.43660651D-13  0.47040243D-14 -0.13699841D-03
 -0.42515524D-10 -0.79487054D-10 -0.13737725D-09 -0.22220205D-09 -0.33585096D-09
 -0.46253631D-09 -0.54064862D-09 -0.46726509D-09 -0.21807505D-09 -0.29544384D-10
  0.21609188D-12 -0.14814641D-12 -0.19044072D-11 -0.69470036D-11 -0.23439018D-10
 -0.51482601D-10 -0.66501478D-10  0.10687353D-10  0.89654191D-10  0.49201064D-10
 -0.69920252D-15 -0.79643513D-14 -0.16536864D-13 -0.45472177D-13  0.58959900D-14
  0.20560448D-12  0.51281022D-12 -0.42449687D-12  0.29526457D-11 -0.13533899D-12
  0.76726109D-14  0.13516166D-08  0.17732441D-08  0.19448650D-08  0.16001764D-08
  0.84352200D-09  0.21946856D-09 -0.55622527D-08 -0.72973593D-08 -0.80036238D-08
 -0.65851406D-08 -0.34713117D-08 -0.90317000D-09 -0.52428130D-09 -0.68782725D-09
 -0.75439763D-09 -0.62069564D-09 -0.32719545D-09 -0.85130102D-10  0.86120281D-14
  0.30913418D-12  0.49044913D-12  0.58239330D-12  0.88131457D-13 -0.64140423D-12
 -0.52023915D-13 -0.18674313D-11 -0.29627265D-11 -0.35181469D-11 -0.53238835D-12