 cl2cs-wavefunction
GAUSSIAN            196 MOL ORBITALS    414 PRIMITIVES        4 NUCLEI
  C    1    (CENTRE  1)   0.00000000  0.01889726 -0.98816425  CHARGE =  6.0
  Cl   2    (CENTRE  2)   0.00000000 -2.70369732 -2.83628995  CHARGE = 17.0
  Cl   3    (CENTRE  3)   0.00000000  2.70369732 -2.83628995  CHARGE = 17.0
  S    4    (CENTRE  4)   0.00000000  0.00000000  2.04433408  CHARGE = 16.0
CENTRE ASSIGNMENTS    1  1  1  1  1  1  1  1  1  1  1  1  1  1  1  1  1  1  1  1
CENTRE ASSIGNMENTS    1  1  1  1  1  1  1  1  1  1  1  1  1  1  1  1  1  1  1  1
CENTRE ASSIGNMENTS    1  1  1  1  1  1  1  1  1  1  1  1  1  1  1  1  1  1  1  1
CENTRE ASSIGNMENTS    1  1  1  1  1  1  1  1  1  1  1  1  2  2  2  2  2  2  2  2
CENTRE ASSIGNMENTS    2  2  2  2  2  2  2  2  2  2  2  2  2  2  2  2  2  2  2  2
CENTRE ASSIGNMENTS    2  2  2  2  2  2  2  2  2  2  2  2  2  2  2  2  2  2  2  2
CENTRE ASSIGNMENTS    2  2  2  2  2  2  2  2  2  2  2  2  2  2  2  2  2  2  2  2
CENTRE ASSIGNMENTS    2  2  2  2  2  2  2  2  2  2  2  2  2  2  2  2  2  2  2  2
CENTRE ASSIGNMENTS    2  2  2  2  2  2  2  2  2  2  2  2  2  2  2  2  2  2  2  2
CENTRE ASSIGNMENTS    2  2  2  2  2  2  3  3  3  3  3  3  3  3  3  3  3  3  3  3
CENTRE ASSIGNMENTS    3  3  3  3  3  3  3  3  3  3  3  3  3  3  3  3  3  3  3  3
CENTRE ASSIGNMENTS    3  3  3  3  3  3  3  3  3  3  3  3  3  3  3  3  3  3  3  3
CENTRE ASSIGNMENTS    3  3  3  3  3  3  3  3  3  3  3  3  3  3  3  3  3  3  3  3
CENTRE ASSIGNMENTS    3  3  3  3  3  3  3  3  3  3  3  3  3  3  3  3  3  3  3  3
CENTRE ASSIGNMENTS    3  3  3  3  3  3  3  3  3  3  3  3  3  3  3  3  3  3  3  3
CENTRE ASSIGNMENTS    4  4  4  4  4  4  4  4  4  4  4  4  4  4  4  4  4  4  4  4
CENTRE ASSIGNMENTS    4  4  4  4  4  4  4  4  4  4  4  4  4  4  4  4  4  4  4  4
CENTRE ASSIGNMENTS    4  4  4  4  4  4  4  4  4  4  4  4  4  4  4  4  4  4  4  4
CENTRE ASSIGNMENTS    4  4  4  4  4  4  4  4  4  4  4  4  4  4  4  4  4  4  4  4
CENTRE ASSIGNMENTS    4  4  4  4  4  4  4  4  4  4  4  4  4  4  4  4  4  4  4  4
CENTRE ASSIGNMENTS    4  4  4  4  4  4  4  4  4  4  4  4  4  4
TYPE ASSIGNMENTS      1  1  1  1  1  1  1  1  1  1  1  1  1  1  1  1  2  2  2  3
TYPE ASSIGNMENTS      3  3  4  4  4  2  3  4  2  3  4  2  3  4  5  6  7  8  9 10
TYPE ASSIGNMENTS      5  6  7  8  9 10  5  6  7  8  9 10 11 12 13 17 14 15 18 19
TYPE ASSIGNMENTS     16 20 11 12 13 17 14 15 18 19 16 20  1  1  1  1  1  1  1  1
TYPE ASSIGNMENTS      1  1  1  1  1  1  1  1  1  1  1  1  1  1  1  1  1  1  1  1
TYPE ASSIGNMENTS      1  1  1  2  2  2  2  2  2  3  3  3  3  3  3  4  4  4  4  4
TYPE ASSIGNMENTS      4  2  2  2  2  2  2  3  3  3  3  3  3  4  4  4  4  4  4  2
TYPE ASSIGNMENTS      3  4  2  3  4  2  3  4  5  6  7  8  9 10  5  6  7  8  9 10
TYPE ASSIGNMENTS      5  6  7  8  9 10 11 12 13 17 14 15 18 19 16 20 11 12 13 17
TYPE ASSIGNMENTS     14 15 18 19 16 20  1  1  1  1  1  1  1  1  1  1  1  1  1  1
TYPE ASSIGNMENTS      1  1  1  1  1  1  1  1  1  1  1  1  1  1  1  1  1  2  2  2
TYPE ASSIGNMENTS      2  2  2  3  3  3  3  3  3  4  4  4  4  4  4  2  2  2  2  2
TYPE ASSIGNMENTS      2  3  3  3  3  3  3  4  4  4  4  4  4  2  3  4  2  3  4  2
TYPE ASSIGNMENTS      3  4  5  6  7  8  9 10  5  6  7  8  9 10  5  6  7  8  9 10
TYPE ASSIGNMENTS     11 12 13 17 14 15 18 19 16 20 11 12 13 17 14 15 18 19 16 20
TYPE ASSIGNMENTS      1  1  1  1  1  1  1  1  1  1  1  1  1  1  1  1  1  1  1  1
TYPE ASSIGNMENTS      1  1  1  1  1  1  1  1  1  1  1  2  2  2  2  2  2  3  3  3
TYPE ASSIGNMENTS      3  3  3  4  4  4  4  4  4  2  2  2  2  2  2  3  3  3  3  3
TYPE ASSIGNMENTS      3  4  4  4  4  4  4  2  3  4  2  3  4  2  3  4  5  6  7  8
TYPE ASSIGNMENTS      9 10  5  6  7  8  9 10  5  6  7  8  9 10 11 12 13 17 14 15
TYPE ASSIGNMENTS     18 19 16 20 11 12 13 17 14 15 18 19 16 20
EXPONENTS  0.8236000D+04 0.1235000D+04 0.2808000D+03 0.7927000D+02 0.2559000D+02
EXPONENTS  0.8997000D+01 0.3319000D+01 0.2808000D+03 0.7927000D+02 0.2559000D+02
EXPONENTS  0.8997000D+01 0.3319000D+01 0.3643000D+00 0.9059000D+00 0.1285000D+00
EXPONENTS  0.4402000D-01 0.1871000D+02 0.4133000D+01 0.1200000D+01 0.1871000D+02
EXPONENTS  0.4133000D+01 0.1200000D+01 0.1871000D+02 0.4133000D+01 0.1200000D+01
EXPONENTS  0.3827000D+00 0.3827000D+00 0.3827000D+00 0.1209000D+00 0.1209000D+00
EXPONENTS  0.1209000D+00 0.3569000D-01 0.3569000D-01 0.3569000D-01 0.1097000D+01
EXPONENTS  0.1097000D+01 0.1097000D+01 0.1097000D+01 0.1097000D+01 0.1097000D+01
EXPONENTS  0.3180000D+00 0.3180000D+00 0.3180000D+00 0.3180000D+00 0.3180000D+00
EXPONENTS  0.3180000D+00 0.1000000D+00 0.1000000D+00 0.1000000D+00 0.1000000D+00
EXPONENTS  0.1000000D+00 0.1000000D+00 0.7610000D+00 0.7610000D+00 0.7610000D+00
EXPONENTS  0.7610000D+00 0.7610000D+00 0.7610000D+00 0.7610000D+00 0.7610000D+00
EXPONENTS  0.7610000D+00 0.7610000D+00 0.2680000D+00 0.2680000D+00 0.2680000D+00
EXPONENTS  0.2680000D+00 0.2680000D+00 0.2680000D+00 0.2680000D+00 0.2680000D+00
EXPONENTS  0.2680000D+00 0.2680000D+00 0.4561000D+06 0.6833000D+05 0.1555000D+05
EXPONENTS  0.4405000D+04 0.1439000D+04 0.5204000D+03 0.2031000D+03 0.8396000D+02
EXPONENTS  0.3620000D+02 0.1583000D+02 0.6334000D+01 0.4405000D+04 0.1439000D+04
EXPONENTS  0.5204000D+03 0.2031000D+03 0.8396000D+02 0.3620000D+02 0.1583000D+02
EXPONENTS  0.6334000D+01 0.2694000D+01 0.1439000D+04 0.2031000D+03 0.8396000D+02
EXPONENTS  0.3620000D+02 0.1583000D+02 0.6334000D+01 0.2694000D+01 0.4313000D+00
EXPONENTS  0.9768000D+00 0.1625000D+00 0.5910000D-01 0.6633000D+03 0.1568000D+03
EXPONENTS  0.4998000D+02 0.1842000D+02 0.7240000D+01 0.2922000D+01 0.6633000D+03
EXPONENTS  0.1568000D+03 0.4998000D+02 0.1842000D+02 0.7240000D+01 0.2922000D+01
EXPONENTS  0.6633000D+03 0.1568000D+03 0.4998000D+02 0.1842000D+02 0.7240000D+01
EXPONENTS  0.2922000D+01 0.1568000D+03 0.4998000D+02 0.1842000D+02 0.7240000D+01
EXPONENTS  0.2922000D+01 0.3818000D+00 0.1568000D+03 0.4998000D+02 0.1842000D+02
EXPONENTS  0.7240000D+01 0.2922000D+01 0.3818000D+00 0.1568000D+03 0.4998000D+02
EXPONENTS  0.1842000D+02 0.7240000D+01 0.2922000D+01 0.3818000D+00 0.1022000D+01
EXPONENTS  0.1022000D+01 0.1022000D+01 0.1301000D+00 0.1301000D+00 0.1301000D+00
EXPONENTS  0.4190000D-01 0.4190000D-01 0.4190000D-01 0.1046000D+01 0.1046000D+01
EXPONENTS  0.1046000D+01 0.1046000D+01 0.1046000D+01 0.1046000D+01 0.3440000D+00
EXPONENTS  0.3440000D+00 0.3440000D+00 0.3440000D+00 0.3440000D+00 0.3440000D+00
EXPONENTS  0.1350000D+00 0.1350000D+00 0.1350000D+00 0.1350000D+00 0.1350000D+00
EXPONENTS  0.1350000D+00 0.7060000D+00 0.7060000D+00 0.7060000D+00 0.7060000D+00
EXPONENTS  0.7060000D+00 0.7060000D+00 0.7060000D+00 0.7060000D+00 0.7060000D+00
EXPONENTS  0.7060000D+00 0.3120000D+00 0.3120000D+00 0.3120000D+00 0.3120000D+00
EXPONENTS  0.3120000D+00 0.3120000D+00 0.3120000D+00 0.3120000D+00 0.3120000D+00
EXPONENTS  0.3120000D+00 0.4561000D+06 0.6833000D+05 0.1555000D+05 0.4405000D+04
EXPONENTS  0.1439000D+04 0.5204000D+03 0.2031000D+03 0.8396000D+02 0.3620000D+02
EXPONENTS  0.1583000D+02 0.6334000D+01 0.4405000D+04 0.1439000D+04 0.5204000D+03
EXPONENTS  0.2031000D+03 0.8396000D+02 0.3620000D+02 0.1583000D+02 0.6334000D+01
EXPONENTS  0.2694000D+01 0.1439000D+04 0.2031000D+03 0.8396000D+02 0.3620000D+02
EXPONENTS  0.1583000D+02 0.6334000D+01 0.2694000D+01 0.4313000D+00 0.9768000D+00
EXPONENTS  0.1625000D+00 0.5910000D-01 0.6633000D+03 0.1568000D+03 0.4998000D+02
EXPONENTS  0.1842000D+02 0.7240000D+01 0.2922000D+01 0.6633000D+03 0.1568000D+03
EXPONENTS  0.4998000D+02 0.1842000D+02 0.7240000D+01 0.2922000D+01 0.6633000D+03
EXPONENTS  0.1568000D+03 0.4998000D+02 0.1842000D+02 0.7240000D+01 0.2922000D+01
EXPONENTS  0.1568000D+03 0.4998000D+02 0.1842000D+02 0.7240000D+01 0.2922000D+01
EXPONENTS  0.3818000D+00 0.1568000D+03 0.4998000D+02 0.1842000D+02 0.7240000D+01
EXPONENTS  0.2922000D+01 0.3818000D+00 0.1568000D+03 0.4998000D+02 0.1842000D+02
EXPONENTS  0.7240000D+01 0.2922000D+01 0.3818000D+00 0.1022000D+01 0.1022000D+01
EXPONENTS  0.1022000D+01 0.1301000D+00 0.1301000D+00 0.1301000D+00 0.4190000D-01
EXPONENTS  0.4190000D-01 0.4190000D-01 0.1046000D+01 0.1046000D+01 0.1046000D+01
EXPONENTS  0.1046000D+01 0.1046000D+01 0.1046000D+01 0.3440000D+00 0.3440000D+00
EXPONENTS  0.3440000D+00 0.3440000D+00 0.3440000D+00 0.3440000D+00 0.1350000D+00
EXPONENTS  0.1350000D+00 0.1350000D+00 0.1350000D+00 0.1350000D+00 0.1350000D+00
EXPONENTS  0.7060000D+00 0.7060000D+00 0.7060000D+00 0.7060000D+00 0.7060000D+00
EXPONENTS  0.7060000D+00 0.7060000D+00 0.7060000D+00 0.7060000D+00 0.7060000D+00
EXPONENTS  0.3120000D+00 0.3120000D+00 0.3120000D+00 0.3120000D+00 0.3120000D+00
EXPONENTS  0.3120000D+00 0.3120000D+00 0.3120000D+00 0.3120000D+00 0.3120000D+00
EXPONENTS  0.3741000D+06 0.5605000D+05 0.1276000D+05 0.3615000D+04 0.1183000D+04
EXPONENTS  0.4288000D+03 0.1678000D+03 0.6947000D+02 0.2984000D+02 0.1272000D+02
EXPONENTS  0.5244000D+01 0.3615000D+04 0.1183000D+04 0.4288000D+03 0.1678000D+03
EXPONENTS  0.6947000D+02 0.2984000D+02 0.1272000D+02 0.5244000D+01 0.2219000D+01
EXPONENTS  0.1183000D+04 0.1678000D+03 0.6947000D+02 0.2984000D+02 0.1272000D+02
EXPONENTS  0.5244000D+01 0.2219000D+01 0.3490000D+00 0.7767000D+00 0.1322000D+00
EXPONENTS  0.4970000D-01 0.5744000D+03 0.1358000D+03 0.4319000D+02 0.1587000D+02
EXPONENTS  0.6208000D+01 0.2483000D+01 0.5744000D+03 0.1358000D+03 0.4319000D+02
EXPONENTS  0.1587000D+02 0.6208000D+01 0.2483000D+01 0.5744000D+03 0.1358000D+03
EXPONENTS  0.4319000D+02 0.1587000D+02 0.6208000D+01 0.2483000D+01 0.1358000D+03
EXPONENTS  0.4319000D+02 0.1587000D+02 0.6208000D+01 0.2483000D+01 0.3229000D+00
EXPONENTS  0.1358000D+03 0.4319000D+02 0.1587000D+02 0.6208000D+01 0.2483000D+01
EXPONENTS  0.3229000D+00 0.1358000D+03 0.4319000D+02 0.1587000D+02 0.6208000D+01
EXPONENTS  0.2483000D+01 0.3229000D+00 0.8688000D+00 0.8688000D+00 0.8688000D+00
EXPONENTS  0.1098000D+00 0.1098000D+00 0.1098000D+00 0.3510000D-01 0.3510000D-01
EXPONENTS  0.3510000D-01 0.2690000D+00 0.2690000D+00 0.2690000D+00 0.2690000D+00
EXPONENTS  0.2690000D+00 0.2690000D+00 0.8190000D+00 0.8190000D+00 0.8190000D+00
EXPONENTS  0.8190000D+00 0.8190000D+00 0.8190000D+00 0.1010000D+00 0.1010000D+00
EXPONENTS  0.1010000D+00 0.1010000D+00 0.1010000D+00 0.1010000D+00 0.5570000D+00
EXPONENTS  0.5570000D+00 0.5570000D+00 0.5570000D+00 0.5570000D+00 0.5570000D+00
EXPONENTS  0.5570000D+00 0.5570000D+00 0.5570000D+00 0.5570000D+00 0.2180000D+00
EXPONENTS  0.2180000D+00 0.2180000D+00 0.2180000D+00 0.2180000D+00 0.2180000D+00
EXPONENTS  0.2180000D+00 0.2180000D+00 0.2180000D+00 0.2180000D+00
MO    1     MO 0.0        OCC NO =    2.0000385  ORB. ENERGY =    0.000000
 -0.42928601D-04 -0.80027561D-04 -0.13525748D-03 -0.20331722D-03 -0.24973879D-03
 -0.21077073D-03 -0.79255298D-04 -0.11186762D-06 -0.83614119D-06 -0.31248505D-05
 -0.87178464D-05 -0.11679511D-04  0.13791324D-04  0.52864905D-06 -0.20659254D-04
 -0.61241600D-07 -0.23166164D-12 -0.21719751D-12 -0.15465757D-12  0.74630522D-03
  0.69970858D-03  0.49823419D-03  0.10935268D-03  0.10252509D-03  0.73003972D-04
 -0.33522055D-13  0.19686428D-03  0.72472329D-04  0.71754836D-14  0.30932267D-03
 -0.42293992D-04 -0.11968732D-14 -0.10434762D-04 -0.30196790D-05 -0.61808951D-05
  0.70709682D-04 -0.64528787D-04 -0.21784322D-12 -0.39399781D-13  0.26804124D-03
  0.49579400D-05 -0.29801029D-04  0.24843089D-04  0.18260808D-13  0.24915845D-13
  0.28045043D-03  0.27750852D-06  0.12138937D-04 -0.12416446D-04 -0.21176463D-13
 -0.16657873D-14  0.18645663D-03  0.74718046D-14  0.24659896D-03  0.11397931D-04
 -0.88888154D-15  0.26524240D-04 -0.23106691D-04 -0.21526532D-13 -0.76632111D-03
 -0.11087101D-04  0.85184436D-13 -0.39729601D-14 -0.30003446D-03 -0.77490521D-05
 -0.93236591D-15 -0.21509665D-04  0.94580599D-05  0.12851246D-13  0.92161304D-03
  0.13789096D-04 -0.63406895D-13 -0.15448600D-02 -0.28902681D-02 -0.49937423D-02
 -0.80954430D-02 -0.12293707D-01 -0.17087096D-01 -0.20315248D-01 -0.18097529D-01
 -0.89876155D-02 -0.14469301D-02 -0.15265967D-04 -0.75883941D-05 -0.25313613D-03
 -0.88212872D-03 -0.31766883D-02 -0.70026141D-02 -0.98574206D-02  0.47023109D-03
  0.12900147D-01  0.76277760D-02  0.22991411D-06  0.27848213D-05  0.58074512D-05
  0.16654759D-04  0.86485844D-06 -0.71823398D-04 -0.18557787D-03  0.15120011D-03
  0.41620756D-03 -0.23336621D-03 -0.11927859D-03 -0.15232815D-08 -0.20065181D-08
 -0.22135036D-08 -0.18384880D-08 -0.97628817D-09 -0.25188745D-09 -0.45148810D+01
 -0.59471545D+01 -0.65606423D+01 -0.54491271D+01 -0.28936377D+01 -0.74657366D+00
  0.60761685D+01  0.80037354D+01  0.88293730D+01  0.73334856D+01  0.38942843D+01
  0.10047457D+01  0.67778994D-13 -0.65524370D-12 -0.92396202D-12 -0.13215101D-11
  0.66919412D-14  0.12119494D-11  0.23651354D-03 -0.22864608D-02 -0.32241484D-02
 -0.46113850D-02  0.23351405D-04  0.42290750D-02 -0.30342705D-03  0.29333375D-02
  0.41363120D-02  0.59160204D-02 -0.29957894D-04 -0.54255487D-02 -0.99213781D-11
 -0.29033746D-01  0.39212712D-01  0.66547642D-13  0.33134803D-03 -0.49439303D-03
  0.33968302D-14  0.88087843D-05 -0.18732313D-04  0.95930766D-05 -0.77282849D-03
  0.76323541D-03 -0.19496066D-12 -0.11791652D-12  0.70784589D-03  0.41042495D-04
  0.44832692D-03 -0.48936942D-03  0.82338481D-13  0.58242026D-13 -0.31309460D-03
 -0.25238271D-05  0.18370495D-05  0.68677759D-06 -0.94995248D-14 -0.10824467D-13
  0.20867950D-05 -0.50041170D-14 -0.25648180D-04 -0.92200982D-05 -0.50074353D-14
  0.53700270D-04  0.37062780D-04  0.20019786D-13  0.23244270D-04 -0.94024850D-05
 -0.73459364D-15 -0.22604406D-14  0.80505096D-04 -0.40406964D-04  0.13385140D-13
 -0.87609871D-05  0.39883590D-04 -0.66038184D-14 -0.23275430D-03  0.81337304D-04
  0.24770502D-13  0.12119197D-02  0.22673725D-02  0.39175168D-02  0.63507550D-02
  0.96442309D-02  0.13404574D-01  0.15937011D-01  0.14197243D-01  0.70506511D-02
  0.11350952D-02  0.11975925D-04  0.59744371D-05  0.19929722D-03  0.69451092D-03
  0.25010463D-02  0.55132452D-02  0.77608699D-02 -0.37021879D-03 -0.10156446D-01
 -0.60054429D-02 -0.22561874D-06 -0.27327939D-05 -0.56989536D-05 -0.16343607D-04
 -0.84870074D-06  0.70481558D-04  0.18211081D-03 -0.14837532D-03 -0.34447746D-03
  0.18461690D-03  0.93873922D-04  0.15341535D-08  0.20208391D-08  0.22293019D-08
  0.18516098D-08  0.98325616D-09  0.25368523D-09 -0.51677520D+01 -0.68071383D+01
 -0.75093391D+01 -0.62370941D+01 -0.33120701D+01 -0.85453139D+00 -0.70787969D+01
 -0.93244315D+01 -0.10286308D+02 -0.85435838D+01 -0.45368801D+01 -0.11705388D+01
 -0.65626048D-13  0.63443041D-12  0.89461311D-12  0.12795334D-11 -0.64793770D-14
 -0.11734528D-11  0.26592460D-03 -0.25707879D-02 -0.36250793D-02 -0.51848223D-02
  0.26255211D-04  0.47549711D-02  0.35352195D-03 -0.34176227D-02 -0.48192048D-02
 -0.68927377D-02  0.34903853D-04  0.63212905D-02  0.10085484D-10 -0.33253057D-01
 -0.45725873D-01 -0.67548995D-13  0.35454836D-03  0.51715649D-03 -0.21190967D-14
  0.10340651D-04  0.20155070D-04 -0.56487011D-05  0.84987090D-03 -0.84422220D-03
 -0.17100828D-12  0.93318726D-13  0.76395911D-03 -0.42406219D-04 -0.50424063D-03
  0.54664685D-03  0.93472041D-13 -0.63362154D-13 -0.38025265D-03  0.15823656D-05
  0.50256609D-05 -0.66080265D-05 -0.47002586D-14  0.82438263D-14  0.45943111D-05
  0.36173109D-14 -0.18636727D-04  0.10456050D-04  0.83240784D-14  0.44115601D-04
 -0.36983592D-04 -0.19176011D-13  0.11794581D-04  0.56154421D-05  0.35541999D-14
  0.40034964D-14  0.87945349D-04  0.40416347D-04 -0.17853267D-13 -0.92259611D-05
 -0.47233168D-04  0.58427774D-14 -0.25461009D-03 -0.74015874D-04  0.26005684D-13
  0.24803771D-04  0.46373148D-04  0.80146583D-04  0.12963380D-03  0.19593714D-03
  0.26984601D-03  0.31541713D-03  0.27260481D-03  0.12722609D-03  0.17236343D-04
 -0.12606909D-06  0.27106000D-06  0.34844491D-05  0.12710769D-04  0.42885821D-04
  0.94196505D-04  0.12167619D-03 -0.19554399D-04 -0.16403817D-03 -0.90022030D-04
  0.48626425D-07  0.55388521D-06  0.11500654D-05  0.31623877D-05 -0.41003988D-06
 -0.14298877D-04 -0.35663670D-04  0.29521869D-04  0.15995375D-04  0.75907569D-04
  0.11511744D-04  0.59405147D-09  0.77936175D-09  0.85479117D-09  0.70329642D-09
  0.37073789D-09  0.96459024D-10  0.83909773D+00  0.11008485D+01  0.12073926D+01
  0.99340623D+00  0.52366728D+00  0.13624838D+00 -0.37911925D-01 -0.49738289D-01
 -0.54552139D-01 -0.44883856D-01 -0.23660217D-01 -0.61559434D-02  0.32439646D-14
  0.11644416D-12  0.18474158D-12  0.21937495D-12  0.33197213D-13 -0.24160309D-12
  0.22723232D-04  0.81566477D-03  0.12940726D-02  0.15366715D-02  0.23253890D-03
 -0.16923746D-02 -0.38895858D-06 -0.13961914D-04 -0.22150926D-04 -0.26303545D-04
 -0.39804197D-05  0.28968749D-04  0.45369199D-11  0.59041010D-02 -0.27812344D-03
  0.17129314D-14 -0.51984620D-03 -0.74316814D-06 -0.53993128D-15 -0.66997520D-05
  0.29978829D-06  0.80497878D-05 -0.62443888D-06 -0.74253489D-05  0.16672322D-13
  0.37624225D-13  0.68909094D-03 -0.80426478D-05  0.74178617D-05  0.62478614D-06
 -0.38032059D-13 -0.24582939D-13 -0.10397227D-03  0.16085420D-05 -0.10084537D-05
 -0.60008835D-06  0.56354858D-14 -0.46744561D-15  0.76204022D-04  0.56181689D-14
  0.63048336D-04  0.33674341D-05 -0.42350327D-14  0.22980836D-04 -0.24292258D-05
 -0.12619474D-13 -0.21212585D-03 -0.76730766D-05  0.15881485D-13  0.68460095D-15
  0.27062298D-04  0.48537367D-06  0.20672405D-14  0.21496623D-05 -0.34497267D-05
 -0.41210433D-14 -0.83336557D-04  0.19936057D-05 -0.17129509D-13
MO    2     MO 0.0        OCC NO =    2.0000376  ORB. ENERGY =    0.000000
 -0.56349770D-03 -0.10504732D-02 -0.17754429D-02 -0.26688218D-02 -0.32781696D-02
 -0.27666595D-02 -0.10403362D-02 -0.10867852D-05 -0.81230462D-05 -0.30357678D-04
 -0.84693195D-04 -0.11346553D-03  0.13398164D-03  0.18102670D-04 -0.44381183D-03
 -0.64671017D-04  0.70220764D-12  0.65836430D-12  0.46879460D-12 -0.10158259D-04
 -0.95240131D-05 -0.67816647D-05  0.81200437D-03  0.76130571D-03  0.54209502D-03
  0.14696624D-12 -0.19076363D-04  0.57058960D-03 -0.11113818D-13 -0.75954328D-05
 -0.50524226D-03 -0.60263528D-14  0.13860646D-05 -0.45955365D-04 -0.63513320D-04
  0.71271004D-03 -0.64919672D-03  0.11480066D-12 -0.19485669D-12 -0.25344896D-04
  0.63053851D-04 -0.11058248D-03  0.47528626D-04 -0.11891935D-13  0.87390393D-14
 -0.15805763D-04  0.47711321D-05  0.16267302D-03 -0.16744415D-03  0.10611257D-13
 -0.29463200D-13 -0.19925184D-04 -0.12895052D-13 -0.14686202D-04  0.99441411D-04
  0.33749507D-13  0.33624842D-06 -0.18907474D-03  0.49356485D-14  0.43722357D-04
 -0.10924950D-03 -0.51071221D-13  0.50329475D-14  0.17562225D-04 -0.74020030D-04
 -0.22167899D-13 -0.48195167D-06  0.97785350D-04  0.70690563D-14 -0.52204723D-04
  0.12427474D-03  0.34651378D-13 -0.52281510D-03 -0.97813126D-03 -0.16899939D-02
 -0.27396786D-02 -0.41604649D-02 -0.57826547D-02 -0.68751334D-02 -0.61246077D-02
 -0.30416097D-02 -0.48967343D-03 -0.51663439D-05 -0.28326031D-05 -0.94490897D-04
 -0.32928186D-03 -0.11857973D-02 -0.26139425D-02 -0.36795875D-02  0.17552831D-03
  0.48153792D-02  0.28473036D-02  0.29292608D-06  0.35480502D-05  0.73990846D-05
  0.21219286D-04  0.11018880D-05 -0.91507854D-04 -0.23643872D-03  0.19263914D-03
  0.60458891D-04 -0.31539166D-03 -0.15825463D-03 -0.10030588D-08 -0.13212631D-08
 -0.14575600D-08 -0.12106177D-08 -0.64287159D-09 -0.16586423D-09  0.45046323D+01
  0.59336545D+01  0.65457497D+01  0.54367577D+01  0.28870692D+01  0.74487894D+00
 -0.75366997D+01 -0.99275966D+01 -0.10951693D+02 -0.90962386D+01 -0.48303551D+01
 -0.12462569D+01  0.35973522D-13 -0.34776887D-12 -0.49039040D-12 -0.70138800D-12
  0.35517301D-14  0.64323895D-12 -0.19781603D-03  0.19123581D-02  0.26966246D-02
  0.38568865D-02 -0.19530730D-04 -0.35371287D-02  0.35433209D-03 -0.34254546D-02
 -0.48302486D-02 -0.69085333D-02  0.34983840D-04  0.63357766D-02 -0.67167682D-11
  0.29084825D-01 -0.48747169D-01  0.29907348D-13 -0.16444573D-03  0.17344395D-03
  0.37921910D-14 -0.11513476D-04  0.15077167D-04  0.14413706D-04  0.52488819D-03
 -0.53930189D-03 -0.38182991D-13 -0.67743379D-13 -0.50466387D-03  0.21837852D-04
 -0.30918073D-03  0.28734288D-03  0.44244554D-13  0.21978007D-13  0.43158675D-03
 -0.20769930D-05  0.47403720D-04 -0.45326727D-04 -0.64403596D-14  0.47645673D-14
 -0.28841367D-04  0.22758846D-14 -0.27373558D-04  0.17273812D-05  0.19956795D-13
  0.53385528D-04  0.27026521D-04 -0.26784448D-13  0.28735145D-04 -0.32208665D-04
 -0.15505516D-13 -0.39982120D-14 -0.51438420D-04 -0.95365394D-05 -0.98051407D-15
  0.19443846D-04 -0.43373957D-04  0.12975150D-13  0.13487142D-03  0.71983575D-04
  0.13933484D-13 -0.10613901D-02 -0.19857476D-02 -0.34309313D-02 -0.55619428D-02
 -0.84463439D-02 -0.11739623D-01 -0.13957513D-01 -0.12433837D-01 -0.61749065D-02
 -0.99410771D-03 -0.10488423D-04 -0.54001593D-05 -0.18014027D-03 -0.62775279D-03
 -0.22606394D-02 -0.49832983D-02 -0.70148757D-02  0.33463243D-03  0.91801830D-02
  0.54281848D-02  0.28945702D-06  0.35060314D-05  0.73114589D-05  0.20967991D-04
  0.10888386D-05 -0.90424147D-04 -0.23363863D-03  0.19035776D-03  0.21196185D-03
 -0.39029703D-03 -0.18390637D-03 -0.24819118D-08 -0.32692585D-08 -0.36065039D-08
 -0.29954838D-08 -0.15906850D-08 -0.41040505D-09 -0.38379339D+01 -0.50554568D+01
 -0.55769602D+01 -0.46321021D+01 -0.24597748D+01 -0.63463474D+00 -0.65401629D+01
 -0.86149245D+01 -0.95036102D+01 -0.78934924D+01 -0.41916635D+01 -0.10814711D+01
  0.10106724D-12 -0.97705304D-12 -0.13777468D-11 -0.19705424D-11  0.99785491D-14
  0.18071732D-11  0.16506360D-03 -0.15957286D-02 -0.22501440D-02 -0.32183011D-02
  0.16297024D-04  0.29514856D-02  0.30652938D-03 -0.29633288D-02 -0.41786030D-02
 -0.59765077D-02  0.30264193D-04  0.54810212D-02 -0.16405738D-10 -0.24802574D-01
 -0.42332665D-01  0.93245637D-13  0.12067814D-03  0.96741984D-04  0.64524800D-14
  0.99179047D-05  0.11564087D-04  0.15375404D-04  0.42008134D-03 -0.43545674D-03
  0.21737498D-12 -0.17138031D-12  0.38568116D-03  0.27787002D-04 -0.25746056D-03
  0.22967356D-03 -0.13464984D-12  0.84104990D-13 -0.39103969D-03 -0.34829190D-05
  0.47074368D-04 -0.43591449D-04  0.13510514D-13 -0.44729633D-14  0.25042763D-04
 -0.23569701D-14  0.32637915D-04  0.39363215D-06  0.13646171D-13 -0.64536268D-04
  0.33584236D-04 -0.65752610D-14 -0.33377478D-04 -0.34765132D-04  0.13178887D-13
 -0.72637788D-14  0.41986121D-04 -0.14135829D-04  0.14905558D-13 -0.17107148D-04
 -0.39535064D-04  0.68857780D-14 -0.10885121D-03  0.81942552D-04 -0.40585153D-13
  0.51351392D-03  0.96006599D-03  0.16592794D-02  0.26838160D-02  0.40564981D-02
  0.55866378D-02  0.65300993D-02  0.56437533D-02  0.26339691D-02  0.35684501D-03
 -0.26100158D-05  0.64797394D-05  0.83296397D-04  0.30385328D-03  0.10251935D-02
  0.22517848D-02  0.29086918D-02 -0.46745152D-03 -0.39213626D-02 -0.21519932D-02
  0.23010828D-06  0.26210764D-05  0.54422994D-05  0.14964941D-04 -0.19403765D-05
 -0.67664649D-04 -0.16876638D-03  0.13970237D-03 -0.27593227D-04  0.11698887D-02
  0.25922982D-03  0.36134362D-09  0.47406228D-09  0.51994372D-09  0.42779403D-09
  0.22550869D-09  0.58673119D-10 -0.26052833D-01 -0.34179835D-01 -0.37487882D-01
 -0.30843900D-01 -0.16259150D-01 -0.42303251D-02 -0.57187073D+00 -0.75026188D+00
 -0.82287491D+00 -0.67703669D+00 -0.35689525D+00 -0.92857430D-01  0.42231318D-14
  0.15159198D-12  0.24050448D-12  0.28559169D-12  0.43217550D-13 -0.31452923D-12
 -0.11059675D-05 -0.39699402D-04 -0.62984096D-04 -0.74791682D-04 -0.11317953D-04
  0.82369939D-04 -0.45463180D-05 -0.16319295D-03 -0.25890971D-03 -0.30744734D-03
 -0.46524886D-04  0.33859940D-03  0.25782222D-11 -0.18635716D-03 -0.39208011D-02
  0.25668588D-13  0.43707084D-04 -0.11723932D-03  0.14050626D-14  0.55294359D-06
 -0.11012747D-06  0.19614820D-04  0.45923699D-04 -0.65538519D-04 -0.99686433D-14
  0.85849865D-14 -0.37417759D-04 -0.91478225D-04  0.91742536D-04 -0.26431072D-06
  0.20702483D-13 -0.30269790D-13  0.14311418D-04  0.10305458D-04 -0.89466422D-05
 -0.13588156D-05 -0.27534334D-14 -0.15128655D-13 -0.64226973D-05  0.54536674D-14
 -0.22451235D-05  0.32886255D-04  0.85076527D-15 -0.20716260D-05  0.45569345D-04
 -0.17211767D-13  0.88069966D-05 -0.14422811D-03 -0.71341798D-14 -0.26554073D-14
 -0.16491010D-05  0.97851885D-05  0.28737644D-14  0.81352916D-06 -0.19717942D-04
  0.50924574D-14  0.41337739D-05 -0.96376235D-05  0.93033356D-14
MO    3     MO 0.0        OCC NO =    2.0000330  ORB. ENERGY =    0.000000
  0.17001903D-10  0.31694971D-10  0.53568820D-10  0.80523928D-10  0.98909222D-10
  0.83475894D-10  0.31389116D-10  0.22596034D-14  0.16889135D-13  0.63118555D-13
  0.17609094D-12  0.23591331D-12 -0.27856964D-12  0.13854864D-11 -0.12169911D-12
 -0.21113331D-13 -0.66041861D-04 -0.61918442D-04 -0.44089620D-04 -0.80631304D-12
 -0.75596973D-12 -0.53829548D-12 -0.51016129D-12 -0.47830864D-12 -0.34058425D-12
 -0.59749663D-05 -0.10826758D-12  0.77080579D-13  0.15194088D-05  0.64593676D-13
  0.86894191D-13 -0.28542887D-06  0.55796461D-14 -0.11836782D-14 -0.54894875D-13
  0.67797971D-13 -0.12903096D-13 -0.11748441D-02  0.12862491D-04 -0.17273610D-12
  0.43307642D-13 -0.44811147D-13  0.15035054D-14  0.10417663D-03 -0.71179291D-05
 -0.11556536D-12  0.21252391D-14  0.74922435D-14 -0.96174826D-14 -0.11681497D-03
  0.15235266D-05 -0.74697761D-13  0.22314581D-05 -0.42761938D-13 -0.50640845D-14
 -0.26841130D-05  0.33764769D-13  0.35728535D-14 -0.40102613D-05  0.94521044D-13
  0.11619400D-13  0.46342265D-03 -0.13166545D-05  0.57082939D-13 -0.18646444D-13
  0.14967176D-05 -0.15968698D-13 -0.22631019D-15  0.24532460D-05 -0.15528012D-12
  0.56165642D-13 -0.34831743D-03  0.98053019D-11  0.18344674D-10  0.31695527D-10
  0.51382173D-10  0.78028761D-10  0.10845264D-09  0.12894187D-09  0.11486590D-09
  0.57044836D-10  0.91837360D-11  0.96893839D-13 -0.44777905D-13 -0.14937159D-11
 -0.52053010D-11 -0.18745132D-10 -0.41321310D-10 -0.58167068D-10  0.27747587D-11
  0.76121710D-10  0.45010291D-10 -0.11828380D-14 -0.14327057D-13 -0.29877566D-13
 -0.85683659D-13 -0.44494331D-14  0.36950949D-12  0.95474156D-12 -0.77787848D-12
  0.27571600D-11  0.24792457D-12  0.56344892D-13 -0.82498310D+01 -0.10866957D+02
 -0.11987955D+02 -0.99569353D+01 -0.52874089D+01 -0.13641791D+01  0.65605779D-09
  0.86418158D-09  0.95332755D-09  0.79181318D-09  0.42047477D-09  0.10848469D-09
 -0.22597634D-08 -0.29766371D-08 -0.32836966D-08 -0.27273672D-08 -0.14483077D-08
 -0.37367094D-09  0.35983801D-03 -0.34786824D-02 -0.49053052D-02 -0.70158841D-02
  0.35527450D-04  0.64342274D-02 -0.36969735D-13  0.35739961D-12  0.50397076D-12
  0.72081150D-12 -0.36500880D-14 -0.66105213D-12  0.10677332D-12 -0.10322157D-11
 -0.14555319D-11 -0.20817957D-11  0.10541920D-13  0.19092030D-11 -0.54005749D-01
  0.36455898D-11 -0.15015981D-10  0.35895891D-03  0.23881696D-14  0.14760243D-12
  0.15360361D-04 -0.12059068D-14  0.53644642D-14 -0.35330256D-14  0.18844775D-12
 -0.18491472D-12 -0.99109527D-03 -0.55904494D-03 -0.16917172D-12 -0.41427067D-13
 -0.79546952D-13  0.12097402D-12  0.47208917D-03  0.32159890D-03  0.19080932D-12
  0.23655063D-14  0.58732532D-14 -0.82387595D-14 -0.38568728D-04 -0.51649635D-04
  0.39847348D-14 -0.19822378D-04  0.47446711D-14  0.61876076D-14 -0.46852717D-04
 -0.35483088D-13 -0.25091894D-13  0.10631985D-03  0.21249075D-13  0.65290708D-14
  0.14287183D-04 -0.17190723D-04 -0.20444392D-13  0.91114462D-15  0.85709043D-04
  0.52141531D-14 -0.11895824D-13 -0.34136874D-04  0.56119022D-13  0.91623899D-14
  0.13510991D-03  0.30094706D-10  0.56303984D-10  0.97280796D-10  0.15770360D-09
  0.23948805D-09  0.33286586D-09  0.39575200D-09  0.35254963D-09  0.17508360D-09
  0.28186979D-10  0.29738928D-12  0.14719339D-13  0.49101252D-12  0.17110803D-11
  0.61618774D-11  0.13583092D-10  0.19120609D-10 -0.91211538D-12 -0.25022638D-10
 -0.14795729D-10  0.67890662D-15  0.82232171D-14  0.17148652D-13  0.49179349D-13
  0.25538151D-14 -0.21208521D-12 -0.54798744D-12  0.44647437D-12 -0.94036897D-12
 -0.93018559D-13 -0.36051638D-13  0.81772106D+01  0.10771299D+02  0.11882429D+02
  0.98692878D+01  0.52408657D+01  0.13521707D+01  0.25783287D-09  0.33962621D-09
  0.37466087D-09  0.31118519D-09  0.16524797D-09  0.42634840D-10  0.11499996D-08
  0.15148186D-08  0.16710820D-08  0.13879644D-08  0.73704763D-09  0.19016214D-09
 -0.35811105D-03  0.34619872D-02  0.48817634D-02  0.69822131D-02 -0.35356944D-04
 -0.64033479D-02 -0.25417118D-13  0.24571635D-12  0.34648570D-12  0.49556621D-12
 -0.25094775D-14 -0.45448095D-12 -0.49115847D-13  0.47482041D-12  0.66954634D-12
  0.95762839D-12 -0.48492953D-14 -0.87823555D-12  0.53576824D-01  0.13106096D-11
  0.77248678D-11 -0.34847414D-03 -0.58834186D-13 -0.91572012D-13 -0.14474194D-04
 -0.11865845D-14 -0.29077457D-14 -0.76254878D-14 -0.98850131D-13  0.10647562D-12
 -0.98986802D-03  0.56581420D-03 -0.83794315D-13  0.27751478D-13  0.71035109D-13
 -0.98786587D-13  0.48358146D-03 -0.33498017D-03  0.49166318D-13 -0.40098104D-14
  0.89959289D-14 -0.49861185D-14 -0.39440036D-04  0.52612070D-04  0.17795735D-14
  0.22477810D-04  0.56185661D-14 -0.88226048D-14  0.41640593D-04 -0.17087520D-13
  0.24236835D-13 -0.10907402D-03  0.23182189D-15  0.22309791D-14  0.20130950D-04
  0.17087013D-04 -0.13821489D-13 -0.11055188D-13 -0.85078091D-04 -0.11991318D-14
  0.72633678D-14  0.33817052D-04  0.42663599D-13  0.25902196D-13  0.13885032D-03
 -0.16575140D-10 -0.30988894D-10 -0.53558019D-10 -0.86627889D-10 -0.13093515D-09
 -0.18032482D-09 -0.21077775D-09 -0.18216839D-09 -0.85018934D-10 -0.11518200D-10
  0.84245774D-13  0.13002132D-13  0.16714109D-12  0.60970668D-12  0.20571352D-11
  0.45183920D-11  0.58365301D-11 -0.93798004D-12 -0.78685377D-11 -0.43181520D-11
  0.42288375D-15  0.48169088D-14  0.10001639D-13  0.27501967D-13 -0.35659459D-14
 -0.12435137D-12 -0.31015207D-12  0.25673939D-12 -0.11986113D-12 -0.55986159D-13
  0.15712975D-13 -0.17576038D-02 -0.23058762D-02 -0.25290472D-02 -0.20808238D-02
 -0.10968920D-02 -0.28539067D-03  0.76080992D-09  0.99813934D-09  0.10947428D-08
  0.90072143D-09  0.47480912D-09  0.12353640D-09 -0.72786463D-09 -0.95491700D-09
 -0.10473373D-08 -0.86171757D-09 -0.45424850D-09 -0.11818692D-09  0.80388643D-08
  0.28856011D-06  0.45780784D-06  0.54363277D-06  0.82265967D-07 -0.59871629D-06
  0.34189698D-14  0.12272608D-12  0.19470800D-12  0.23120978D-12  0.34988133D-13