 cl2cs-wavefunction
GAUSSIAN            196 MOL ORBITALS    414 PRIMITIVES        4 NUCLEI
  C    1    (CENTRE  1)   0.00000000  0.00000000 -0.98816425  CHARGE =  6.0
  Cl   2    (CENTRE  2)  -0.01889726 -2.70369732 -2.83628995  CHARGE = 17.0
  Cl   3    (CENTRE  3)   0.00000000  2.70369732 -2.83628995  CHARGE = 17.0
  S    4    (CENTRE  4)   0.00000000  0.00000000  2.04433408  CHARGE = 16.0
CENTRE ASSIGNMENTS    1  1  1  1  1  1  1  1  1  1  1  1  1  1  1  1  1  1  1  1
CENTRE ASSIGNMENTS    1  1  1  1  1  1  1  1  1  1  1  1  1  1  1  1  1  1  1  1
CENTRE ASSIGNMENTS    1  1  1  1  1  1  1  1  1  1  1  1  1  1  1  1  1  1  1  1
CENTRE ASSIGNMENTS    1  1  1  1  1  1  1  1  1  1  1  1  2  2  2  2  2  2  2  2
CENTRE ASSIGNMENTS    2  2  2  2  2  2  2  2  2  2  2  2  2  2  2  2  2  2  2  2
CENTRE ASSIGNMENTS    2  2  2  2  2  2  2  2  2  2  2  2  2  2  2  2  2  2  2  2
CENTRE ASSIGNMENTS    2  2  2  2  2  2  2  2  2  2  2  2  2  2  2  2  2  2  2  2
CENTRE ASSIGNMENTS    2  2  2  2  2  2  2  2  2  2  2  2  2  2  2  2  2  2  2  2
CENTRE ASSIGNMENTS    2  2  2  2  2  2  2  2  2  2  2  2  2  2  2  2  2  2  2  2
CENTRE ASSIGNMENTS    2  2  2  2  2  2  3  3  3  3  3  3  3  3  3  3  3  3  3  3
CENTRE ASSIGNMENTS    3  3  3  3  3  3  3  3  3  3  3  3  3  3  3  3  3  3  3  3
CENTRE ASSIGNMENTS    3  3  3  3  3  3  3  3  3  3  3  3  3  3  3  3  3  3  3  3
CENTRE ASSIGNMENTS    3  3  3  3  3  3  3  3  3  3  3  3  3  3  3  3  3  3  3  3
CENTRE ASSIGNMENTS    3  3  3  3  3  3  3  3  3  3  3  3  3  3  3  3  3  3  3  3
CENTRE ASSIGNMENTS    3  3  3  3  3  3  3  3  3  3  3  3  3  3  3  3  3  3  3  3
CENTRE ASSIGNMENTS    4  4  4  4  4  4  4  4  4  4  4  4  4  4  4  4  4  4  4  4
CENTRE ASSIGNMENTS    4  4  4  4  4  4  4  4  4  4  4  4  4  4  4  4  4  4  4  4
CENTRE ASSIGNMENTS    4  4  4  4  4  4  4  4  4  4  4  4  4  4  4  4  4  4  4  4
CENTRE ASSIGNMENTS    4  4  4  4  4  4  4  4  4  4  4  4  4  4  4  4  4  4  4  4
CENTRE ASSIGNMENTS    4  4  4  4  4  4  4  4  4  4  4  4  4  4  4  4  4  4  4  4
CENTRE ASSIGNMENTS    4  4  4  4  4  4  4  4  4  4  4  4  4  4
TYPE ASSIGNMENTS      1  1  1  1  1  1  1  1  1  1  1  1  1  1  1  1  2  2  2  3
TYPE ASSIGNMENTS      3  3  4  4  4  2  3  4  2  3  4  2  3  4  5  6  7  8  9 10
TYPE ASSIGNMENTS      5  6  7  8  9 10  5  6  7  8  9 10 11 12 13 17 14 15 18 19
TYPE ASSIGNMENTS     16 20 11 12 13 17 14 15 18 19 16 20  1  1  1  1  1  1  1  1
TYPE ASSIGNMENTS      1  1  1  1  1  1  1  1  1  1  1  1  1  1  1  1  1  1  1  1
TYPE ASSIGNMENTS      1  1  1  2  2  2  2  2  2  3  3  3  3  3  3  4  4  4  4  4
TYPE ASSIGNMENTS      4  2  2  2  2  2  2  3  3  3  3  3  3  4  4  4  4  4  4  2
TYPE ASSIGNMENTS      3  4  2  3  4  2  3  4  5  6  7  8  9 10  5  6  7  8  9 10
TYPE ASSIGNMENTS      5  6  7  8  9 10 11 12 13 17 14 15 18 19 16 20 11 12 13 17
TYPE ASSIGNMENTS     14 15 18 19 16 20  1  1  1  1  1  1  1  1  1  1  1  1  1  1
TYPE ASSIGNMENTS      1  1  1  1  1  1  1  1  1  1  1  1  1  1  1  1  1  2  2  2
TYPE ASSIGNMENTS      2  2  2  3  3  3  3  3  3  4  4  4  4  4  4  2  2  2  2  2
TYPE ASSIGNMENTS      2  3  3  3  3  3  3  4  4  4  4  4  4  2  3  4  2  3  4  2
TYPE ASSIGNMENTS      3  4  5  6  7  8  9 10  5  6  7  8  9 10  5  6  7  8  9 10
TYPE ASSIGNMENTS     11 12 13 17 14 15 18 19 16 20 11 12 13 17 14 15 18 19 16 20
TYPE ASSIGNMENTS      1  1  1  1  1  1  1  1  1  1  1  1  1  1  1  1  1  1  1  1
TYPE ASSIGNMENTS      1  1  1  1  1  1  1  1  1  1  1  2  2  2  2  2  2  3  3  3
TYPE ASSIGNMENTS      3  3  3  4  4  4  4  4  4  2  2  2  2  2  2  3  3  3  3  3
TYPE ASSIGNMENTS      3  4  4  4  4  4  4  2  3  4  2  3  4  2  3  4  5  6  7  8
TYPE ASSIGNMENTS      9 10  5  6  7  8  9 10  5  6  7  8  9 10 11 12 13 17 14 15
TYPE ASSIGNMENTS     18 19 16 20 11 12 13 17 14 15 18 19 16 20
EXPONENTS  0.8236000D+04 0.1235000D+04 0.2808000D+03 0.7927000D+02 0.2559000D+02
EXPONENTS  0.8997000D+01 0.3319000D+01 0.2808000D+03 0.7927000D+02 0.2559000D+02
EXPONENTS  0.8997000D+01 0.3319000D+01 0.3643000D+00 0.9059000D+00 0.1285000D+00
EXPONENTS  0.4402000D-01 0.1871000D+02 0.4133000D+01 0.1200000D+01 0.1871000D+02
EXPONENTS  0.4133000D+01 0.1200000D+01 0.1871000D+02 0.4133000D+01 0.1200000D+01
EXPONENTS  0.3827000D+00 0.3827000D+00 0.3827000D+00 0.1209000D+00 0.1209000D+00
EXPONENTS  0.1209000D+00 0.3569000D-01 0.3569000D-01 0.3569000D-01 0.1097000D+01
EXPONENTS  0.1097000D+01 0.1097000D+01 0.1097000D+01 0.1097000D+01 0.1097000D+01
EXPONENTS  0.3180000D+00 0.3180000D+00 0.3180000D+00 0.3180000D+00 0.3180000D+00
EXPONENTS  0.3180000D+00 0.1000000D+00 0.1000000D+00 0.1000000D+00 0.1000000D+00
EXPONENTS  0.1000000D+00 0.1000000D+00 0.7610000D+00 0.7610000D+00 0.7610000D+00
EXPONENTS  0.7610000D+00 0.7610000D+00 0.7610000D+00 0.7610000D+00 0.7610000D+00
EXPONENTS  0.7610000D+00 0.7610000D+00 0.2680000D+00 0.2680000D+00 0.2680000D+00
EXPONENTS  0.2680000D+00 0.2680000D+00 0.2680000D+00 0.2680000D+00 0.2680000D+00
EXPONENTS  0.2680000D+00 0.2680000D+00 0.4561000D+06 0.6833000D+05 0.1555000D+05
EXPONENTS  0.4405000D+04 0.1439000D+04 0.5204000D+03 0.2031000D+03 0.8396000D+02
EXPONENTS  0.3620000D+02 0.1583000D+02 0.6334000D+01 0.4405000D+04 0.1439000D+04
EXPONENTS  0.5204000D+03 0.2031000D+03 0.8396000D+02 0.3620000D+02 0.1583000D+02
EXPONENTS  0.6334000D+01 0.2694000D+01 0.1439000D+04 0.2031000D+03 0.8396000D+02
EXPONENTS  0.3620000D+02 0.1583000D+02 0.6334000D+01 0.2694000D+01 0.4313000D+00
EXPONENTS  0.9768000D+00 0.1625000D+00 0.5910000D-01 0.6633000D+03 0.1568000D+03
EXPONENTS  0.4998000D+02 0.1842000D+02 0.7240000D+01 0.2922000D+01 0.6633000D+03
EXPONENTS  0.1568000D+03 0.4998000D+02 0.1842000D+02 0.7240000D+01 0.2922000D+01
EXPONENTS  0.6633000D+03 0.1568000D+03 0.4998000D+02 0.1842000D+02 0.7240000D+01
EXPONENTS  0.2922000D+01 0.1568000D+03 0.4998000D+02 0.1842000D+02 0.7240000D+01
EXPONENTS  0.2922000D+01 0.3818000D+00 0.1568000D+03 0.4998000D+02 0.1842000D+02
EXPONENTS  0.7240000D+01 0.2922000D+01 0.3818000D+00 0.1568000D+03 0.4998000D+02
EXPONENTS  0.1842000D+02 0.7240000D+01 0.2922000D+01 0.3818000D+00 0.1022000D+01
EXPONENTS  0.1022000D+01 0.1022000D+01 0.1301000D+00 0.1301000D+00 0.1301000D+00
EXPONENTS  0.4190000D-01 0.4190000D-01 0.4190000D-01 0.1046000D+01 0.1046000D+01
EXPONENTS  0.1046000D+01 0.1046000D+01 0.1046000D+01 0.1046000D+01 0.3440000D+00
EXPONENTS  0.3440000D+00 0.3440000D+00 0.3440000D+00 0.3440000D+00 0.3440000D+00
EXPONENTS  0.1350000D+00 0.1350000D+00 0.1350000D+00 0.1350000D+00 0.1350000D+00
EXPONENTS  0.1350000D+00 0.7060000D+00 0.7060000D+00 0.7060000D+00 0.7060000D+00
EXPONENTS  0.7060000D+00 0.7060000D+00 0.7060000D+00 0.7060000D+00 0.7060000D+00
EXPONENTS  0.7060000D+00 0.3120000D+00 0.3120000D+00 0.3120000D+00 0.3120000D+00
EXPONENTS  0.3120000D+00 0.3120000D+00 0.3120000D+00 0.3120000D+00 0.3120000D+00
EXPONENTS  0.3120000D+00 0.4561000D+06 0.6833000D+05 0.1555000D+05 0.4405000D+04
EXPONENTS  0.1439000D+04 0.5204000D+03 0.2031000D+03 0.8396000D+02 0.3620000D+02
EXPONENTS  0.1583000D+02 0.6334000D+01 0.4405000D+04 0.1439000D+04 0.5204000D+03
EXPONENTS  0.2031000D+03 0.8396000D+02 0.3620000D+02 0.1583000D+02 0.6334000D+01
EXPONENTS  0.2694000D+01 0.1439000D+04 0.2031000D+03 0.8396000D+02 0.3620000D+02
EXPONENTS  0.1583000D+02 0.6334000D+01 0.2694000D+01 0.4313000D+00 0.9768000D+00
EXPONENTS  0.1625000D+00 0.5910000D-01 0.6633000D+03 0.1568000D+03 0.4998000D+02
EXPONENTS  0.1842000D+02 0.7240000D+01 0.2922000D+01 0.6633000D+03 0.1568000D+03
EXPONENTS  0.4998000D+02 0.1842000D+02 0.7240000D+01 0.2922000D+01 0.6633000D+03
EXPONENTS  0.1568000D+03 0.4998000D+02 0.1842000D+02 0.7240000D+01 0.2922000D+01
EXPONENTS  0.1568000D+03 0.4998000D+02 0.1842000D+02 0.7240000D+01 0.2922000D+01
EXPONENTS  0.3818000D+00 0.1568000D+03 0.4998000D+02 0.1842000D+02 0.7240000D+01
EXPONENTS  0.2922000D+01 0.3818000D+00 0.1568000D+03 0.4998000D+02 0.1842000D+02
EXPONENTS  0.7240000D+01 0.2922000D+01 0.3818000D+00 0.1022000D+01 0.1022000D+01
EXPONENTS  0.1022000D+01 0.1301000D+00 0.1301000D+00 0.1301000D+00 0.4190000D-01
EXPONENTS  0.4190000D-01 0.4190000D-01 0.1046000D+01 0.1046000D+01 0.1046000D+01
EXPONENTS  0.1046000D+01 0.1046000D+01 0.1046000D+01 0.3440000D+00 0.3440000D+00
EXPONENTS  0.3440000D+00 0.3440000D+00 0.3440000D+00 0.3440000D+00 0.1350000D+00
EXPONENTS  0.1350000D+00 0.1350000D+00 0.1350000D+00 0.1350000D+00 0.1350000D+00
EXPONENTS  0.7060000D+00 0.7060000D+00 0.7060000D+00 0.7060000D+00 0.7060000D+00
EXPONENTS  0.7060000D+00 0.7060000D+00 0.7060000D+00 0.7060000D+00 0.7060000D+00
EXPONENTS  0.3120000D+00 0.3120000D+00 0.3120000D+00 0.3120000D+00 0.3120000D+00
EXPONENTS  0.3120000D+00 0.3120000D+00 0.3120000D+00 0.3120000D+00 0.3120000D+00
EXPONENTS  0.3741000D+06 0.5605000D+05 0.1276000D+05 0.3615000D+04 0.1183000D+04
EXPONENTS  0.4288000D+03 0.1678000D+03 0.6947000D+02 0.2984000D+02 0.1272000D+02
EXPONENTS  0.5244000D+01 0.3615000D+04 0.1183000D+04 0.4288000D+03 0.1678000D+03
EXPONENTS  0.6947000D+02 0.2984000D+02 0.1272000D+02 0.5244000D+01 0.2219000D+01
EXPONENTS  0.1183000D+04 0.1678000D+03 0.6947000D+02 0.2984000D+02 0.1272000D+02
EXPONENTS  0.5244000D+01 0.2219000D+01 0.3490000D+00 0.7767000D+00 0.1322000D+00
EXPONENTS  0.4970000D-01 0.5744000D+03 0.1358000D+03 0.4319000D+02 0.1587000D+02
EXPONENTS  0.6208000D+01 0.2483000D+01 0.5744000D+03 0.1358000D+03 0.4319000D+02
EXPONENTS  0.1587000D+02 0.6208000D+01 0.2483000D+01 0.5744000D+03 0.1358000D+03
EXPONENTS  0.4319000D+02 0.1587000D+02 0.6208000D+01 0.2483000D+01 0.1358000D+03
EXPONENTS  0.4319000D+02 0.1587000D+02 0.6208000D+01 0.2483000D+01 0.3229000D+00
EXPONENTS  0.1358000D+03 0.4319000D+02 0.1587000D+02 0.6208000D+01 0.2483000D+01
EXPONENTS  0.3229000D+00 0.1358000D+03 0.4319000D+02 0.1587000D+02 0.6208000D+01
EXPONENTS  0.2483000D+01 0.3229000D+00 0.8688000D+00 0.8688000D+00 0.8688000D+00
EXPONENTS  0.1098000D+00 0.1098000D+00 0.1098000D+00 0.3510000D-01 0.3510000D-01
EXPONENTS  0.3510000D-01 0.2690000D+00 0.2690000D+00 0.2690000D+00 0.2690000D+00
EXPONENTS  0.2690000D+00 0.2690000D+00 0.8190000D+00 0.8190000D+00 0.8190000D+00
EXPONENTS  0.8190000D+00 0.8190000D+00 0.8190000D+00 0.1010000D+00 0.1010000D+00
EXPONENTS  0.1010000D+00 0.1010000D+00 0.1010000D+00 0.1010000D+00 0.5570000D+00
EXPONENTS  0.5570000D+00 0.5570000D+00 0.5570000D+00 0.5570000D+00 0.5570000D+00
EXPONENTS  0.5570000D+00 0.5570000D+00 0.5570000D+00 0.5570000D+00 0.2180000D+00
EXPONENTS  0.2180000D+00 0.2180000D+00 0.2180000D+00 0.2180000D+00 0.2180000D+00
EXPONENTS  0.2180000D+00 0.2180000D+00 0.2180000D+00 0.2180000D+00
MO    1     MO 0.0        OCC NO =    2.0000385  ORB. ENERGY =    0.000000
 -0.37946775D-07 -0.70740433D-07 -0.11956097D-06 -0.17972244D-06 -0.22075682D-06
 -0.18631097D-06 -0.70057790D-07 -0.16490937D-09 -0.12325953D-08 -0.46064902D-08
 -0.12851390D-07 -0.17217320D-07  0.20330445D-07  0.52572162D-08 -0.55033415D-07
 -0.57872686D-08  0.26003569D-05  0.24379999D-05  0.17360012D-05  0.74402286D-03
  0.69756873D-03  0.49671049D-03  0.17525423D-06  0.16431198D-06  0.11699992D-06
  0.69280299D-06  0.19819194D-03  0.11411948D-06  0.10813019D-05  0.30950907D-03
 -0.76737566D-07 -0.36745327D-07 -0.10510080D-04 -0.61340585D-08 -0.10404527D-07
  0.13400416D-06 -0.12359963D-06 -0.99509709D-07  0.93916913D-06  0.26883506D-03
  0.11290556D-07 -0.50838316D-07  0.39547760D-07  0.43725494D-06  0.98250622D-06
  0.28121492D-03 -0.17438978D-09  0.24134419D-07 -0.23960030D-07 -0.21462216D-06
  0.65536051D-06  0.18758960D-03  0.92372644D-07  0.24697221D-03  0.20581119D-07
  0.24042854D-05  0.26469751D-04 -0.55179945D-07 -0.26814033D-05 -0.76738637D-03
 -0.65634116D-08 -0.45750496D-05 -0.74983565D-07 -0.30059880D-03 -0.15951594D-07
 -0.30012233D-05 -0.21479972D-04  0.29464144D-07  0.32261740D-05  0.92327638D-03
  0.18390636D-07  0.37050330D-05 -0.13948223D-02 -0.26095638D-02 -0.45087474D-02
 -0.73092092D-02 -0.11099736D-01 -0.15427588D-01 -0.18342220D-01 -0.16339887D-01
 -0.81147335D-02 -0.13064034D-02 -0.13783328D-04 -0.68592261D-05 -0.22881230D-03
 -0.79736506D-03 -0.28714407D-02 -0.63297337D-02 -0.89102221D-02  0.42504663D-03
  0.11660573D-01  0.68948238D-02  0.22710586D-06  0.27508066D-05  0.57365171D-05
  0.16451332D-04  0.85429479D-06 -0.70946124D-04 -0.18331116D-03  0.14935330D-03
  0.38488261D-03 -0.21127933D-03 -0.10729265D-03 -0.49649427D-02 -0.65399910D-02
 -0.72146339D-02 -0.59923183D-02 -0.31820873D-02 -0.82099516D-03 -0.48520756D+01
 -0.63913187D+01 -0.70506250D+01 -0.58560961D+01 -0.31097495D+01 -0.80233163D+00
  0.65954273D+01  0.86877207D+01  0.95839158D+01  0.79601925D+01  0.42270831D+01
  0.10906095D+01  0.35336629D-06 -0.34161180D-05 -0.48170829D-05 -0.68897028D-05
  0.34888485D-07  0.63185073D-05  0.25171757D-03 -0.24334435D-02 -0.34314093D-02
 -0.49078231D-02  0.24852525D-04  0.45009367D-02 -0.32930080D-03  0.31834683D-02
  0.44890226D-02  0.64204898D-02 -0.32512456D-04 -0.58881947D-02 -0.32750262D-04
 -0.31212122D-01  0.42584069D-01 -0.76378396D-06  0.34362882D-03 -0.50716191D-03
 -0.48562029D-07  0.96064575D-05 -0.19521098D-04  0.76146329D-05 -0.81303189D-03
  0.80541725D-03 -0.69056681D-05  0.97680664D-05  0.73852170D-03  0.41805597D-04
  0.47686778D-03 -0.51867338D-03  0.46015097D-05 -0.58152695D-05 -0.34731905D-03
 -0.21110642D-05 -0.15889787D-05  0.37000429D-05 -0.17026585D-06 -0.22870214D-06
  0.34808000D-05  0.19837322D-06 -0.22282069D-04 -0.98476146D-05 -0.89258415D-06
  0.49203082D-04  0.37133340D-04  0.29746449D-06  0.17643127D-04 -0.75904964D-05
  0.42051602D-06  0.10162190D-06  0.84358372D-04 -0.40458618D-04  0.22293500D-05
 -0.90584801D-05  0.43571492D-04 -0.25342157D-05 -0.24401664D-03  0.77804361D-04
 -0.17058369D-05  0.13943733D-02  0.26087236D-02  0.45072958D-02  0.73068561D-02
  0.11096162D-01  0.15422621D-01  0.18336315D-01  0.16334627D-01  0.81121210D-02
  0.13059828D-02  0.13778890D-04  0.68570162D-05  0.22873858D-03  0.79710816D-03
  0.28705156D-02  0.63276943D-02  0.89073513D-02 -0.42490969D-03 -0.11656816D-01
 -0.68926024D-02 -0.22706607D-06 -0.27503246D-05 -0.57355119D-05 -0.16448450D-04
 -0.85414509D-06  0.70933692D-04  0.18327904D-03 -0.14932713D-03 -0.38479685D-03
  0.21119622D-03  0.10724742D-03 -0.28954564D-01 -0.38139935D-01 -0.42074318D-01
 -0.34946016D-01 -0.18557304D-01 -0.47878814D-02 -0.48532123D+01 -0.63928159D+01
 -0.70522766D+01 -0.58574679D+01 -0.31104780D+01 -0.80251958D+00 -0.65973665D+01
 -0.86902750D+01 -0.95867337D+01 -0.79625329D+01 -0.42283259D+01 -0.10909302D+01
  0.14063130D-05 -0.13595329D-04 -0.19170833D-04 -0.27419363D-04  0.13884780D-06
  0.25146142D-04  0.25176851D-03 -0.24339360D-02 -0.34321038D-02 -0.49088163D-02
  0.24857555D-04  0.45018475D-02  0.32939717D-03 -0.31843999D-02 -0.44903362D-02
 -0.64223687D-02  0.32521971D-04  0.58899178D-02 -0.18544578D-03 -0.31219477D-01
 -0.42596658D-01  0.31653384D-05  0.34365662D-03  0.50720789D-03  0.11570091D-06
  0.96087826D-05  0.19524320D-04 -0.76173110D-05  0.81318711D-03 -0.80556980D-03
  0.45668624D-05 -0.46066916D-05  0.73868401D-03 -0.41795596D-04 -0.47698110D-03
  0.51877670D-03 -0.14811481D-05  0.33879333D-05 -0.34748079D-03  0.21082318D-05
  0.16031876D-05 -0.37114194D-05 -0.17739784D-06  0.25288956D-06  0.34846389D-05
  0.14547128D-06 -0.22272402D-04  0.98485535D-05 -0.26236826D-06  0.49191857D-04
 -0.37125235D-04 -0.17404558D-06  0.17625349D-04  0.75795740D-05  0.10452712D-05
 -0.16502754D-06  0.84381633D-04  0.40458085D-04 -0.33348166D-06 -0.90763040D-05
 -0.43598571D-04  0.82856428D-06 -0.24406859D-03 -0.77775683D-04 -0.21840780D-05
  0.17719706D-07  0.33128775D-07  0.57256370D-07  0.92609818D-07  0.13997664D-06
  0.19277681D-06  0.22533262D-06  0.19474769D-06  0.90889760D-07  0.12313568D-07
 -0.90063211D-10  0.21895450D-09  0.28146380D-08  0.10267395D-07  0.34641936D-07
  0.76089236D-07  0.98286538D-07 -0.15795483D-07 -0.13250533D-06 -0.72717215D-07
  0.38582152D-10  0.43947469D-09  0.91250788D-09  0.25091649D-08 -0.32534205D-09
 -0.11345301D-07 -0.28296983D-07  0.23423833D-07  0.20210004D-07  0.14726645D-06
  0.29230564D-07  0.29310467D-02  0.38453666D-02  0.42175349D-02  0.34700607D-02
  0.18292187D-02  0.47592829D-03  0.83874299D+00  0.11003831D+01  0.12068821D+01
  0.99298625D+00  0.52344589D+00  0.13619077D+00 -0.87138050D-04 -0.11432017D-03
 -0.12538448D-03 -0.10316257D-03 -0.54381444D-04 -0.14149029D-04  0.79497092D-07
  0.28535983D-05  0.45273052D-05  0.53760361D-05  0.81353596D-06 -0.59207623D-05
  0.22750035D-04  0.81662688D-03  0.12955990D-02  0.15384841D-02  0.23281319D-03
 -0.16943708D-02 -0.10298405D-08 -0.36966774D-07 -0.58648713D-07 -0.69643548D-07
 -0.10538904D-07  0.76700172D-07  0.20624888D-04  0.59020180D-02 -0.60940785D-06
 -0.18238959D-05 -0.52202665D-03 -0.39154066D-08 -0.23478817D-07 -0.67217109D-05
  0.34860659D-09  0.27863384D-08  0.15605935D-07 -0.18392274D-07 -0.15850569D-05
  0.24123851D-05  0.69041286D-03 -0.11930235D-07  0.13653940D-07 -0.17237049D-08
  0.54830550D-06 -0.36540698D-06 -0.10460173D-03  0.22883975D-08 -0.10484672D-08
 -0.12399303D-08 -0.91073204D-08  0.26743737D-06  0.76550654D-04  0.80641312D-07
  0.63084966D-04  0.77894853D-08  0.50005017D-06  0.23084738D-04  0.12542690D-07
 -0.74197410D-06 -0.21233964D-03 -0.35911146D-07  0.23306545D-05  0.72327076D-08
  0.27136510D-04  0.20032627D-08  0.26998822D-06  0.20717110D-05 -0.25749746D-08
 -0.29168634D-06 -0.83481242D-04 -0.34348135D-08  0.65901374D-06
MO    2     MO 0.0        OCC NO =    2.0000376  ORB. ENERGY =    0.000000
 -0.56186640D-03 -0.10474322D-02 -0.17703031D-02 -0.26610957D-02 -0.32686794D-02
 -0.27586501D-02 -0.10373245D-02 -0.10916622D-05 -0.81594982D-05 -0.30493908D-04
 -0.85073255D-04 -0.11397471D-03  0.13458288D-03  0.18394846D-04 -0.44422635D-03
 -0.64458085D-04  0.10206895D-05  0.95696131D-06  0.68141346D-06 -0.22331161D-07
 -0.20936883D-07 -0.14908308D-07  0.81736758D-03  0.76633406D-03  0.54567550D-03
  0.92113343D-06 -0.35560826D-07  0.57386682D-03 -0.21774022D-05 -0.19564461D-07
 -0.50672152D-03 -0.12609142D-06  0.23970889D-08 -0.46048436D-04 -0.63784113D-04
  0.71573090D-03 -0.65194679D-03  0.54482785D-05 -0.13211621D-05 -0.44307952D-07
  0.63269741D-04 -0.11211554D-03  0.48845798D-04 -0.12258345D-05 -0.23009146D-05
 -0.29708159D-07  0.47765718D-05  0.16311026D-03 -0.16788683D-03  0.11066904D-05
 -0.16691774D-05 -0.28331421D-07 -0.51799976D-06 -0.26292145D-07  0.99945659D-04
 -0.80216014D-06 -0.39017210D-08 -0.19009203D-03  0.23561594D-05  0.82778155D-07
 -0.10974494D-03  0.56219489D-06  0.37265163D-06  0.32988386D-07 -0.74359189D-04
  0.12026065D-05  0.57211277D-08  0.98148977D-04 -0.23205614D-05 -0.10468629D-06
  0.12492859D-03  0.18670894D-06 -0.80007983D-03 -0.14968640D-02 -0.25862489D-02
 -0.41926134D-02 -0.63668858D-02 -0.88493722D-02 -0.10521225D-01 -0.93726733D-02
 -0.46546677D-02 -0.74936213D-03 -0.79062131D-05 -0.41548001D-05 -0.13859718D-03
 -0.48298341D-03 -0.17393015D-02 -0.38340736D-02 -0.53971382D-02  0.25746108D-03
  0.70630926D-02  0.41763625D-02  0.29118877D-06  0.35270071D-05  0.73552014D-05
  0.21093437D-04  0.10953528D-05 -0.90965131D-04 -0.23503643D-03  0.19149662D-03
  0.13791133D-03 -0.35351798D-03 -0.17158144D-03  0.43622405D-02  0.57460912D-02
  0.63388381D-02  0.52649014D-02  0.27958087D-02  0.72133326D-03  0.41847871D+01
  0.55123435D+01  0.60809778D+01  0.50507282D+01  0.26820768D+01  0.69198984D+00
 -0.70572060D+01 -0.92959912D+01 -0.10254933D+02 -0.85175252D+01 -0.45230422D+01
 -0.11669685D+01 -0.79521628D-07  0.76876394D-06  0.10840374D-05  0.15504602D-05
 -0.78513124D-08 -0.14219183D-05 -0.18205621D-03  0.17600023D-02  0.24817870D-02
  0.35496119D-02 -0.17974735D-04 -0.32553289D-02  0.33141340D-03 -0.32038915D-02
 -0.45178215D-02 -0.64616799D-02  0.32721037D-04  0.59259699D-02  0.26552982D-04
  0.27030776D-01 -0.45661701D-01 -0.17836357D-05 -0.14320791D-03  0.13558933D-03
 -0.77551171D-07 -0.10751175D-04  0.13336927D-04  0.14972883D-04  0.47426507D-03
 -0.48923796D-03  0.41070372D-05 -0.48152148D-05 -0.44625124D-03  0.24746078D-04
 -0.28458563D-03  0.25983956D-03 -0.16070774D-05  0.31083539D-05  0.41262739D-03
 -0.27897281D-05  0.47354597D-04 -0.44564869D-04  0.12848304D-06 -0.69232245D-06
 -0.26996910D-04  0.19109300D-06 -0.30163569D-04  0.10939228D-05 -0.83328273D-06
  0.59164151D-04  0.30244848D-04  0.26000375D-06  0.31326556D-04 -0.33526617D-04
  0.60645446D-07  0.40100430D-07 -0.46869273D-04 -0.11813613D-04 -0.56798745D-06
  0.18265996D-04 -0.41596415D-04  0.44768616D-06  0.12234182D-03  0.77037253D-04
  0.11068595D-05 -0.80091820D-03 -0.14984325D-02 -0.25889590D-02 -0.41970067D-02
 -0.63735574D-02 -0.88586452D-02 -0.10532250D-01 -0.93824946D-02 -0.46595452D-02
 -0.75014736D-03 -0.79144977D-05 -0.41588084D-05 -0.13873089D-03 -0.48344937D-03
 -0.17409794D-02 -0.38377725D-02 -0.54023451D-02  0.25770947D-03  0.70699067D-02
  0.41803916D-02  0.29119783D-06  0.35271168D-05  0.73554303D-05  0.21094093D-04
  0.10953869D-05 -0.90967961D-04 -0.23504374D-03  0.19150258D-03  0.13814714D-03
 -0.35362523D-03 -0.17162243D-03 -0.24878094D-01 -0.32770270D-01 -0.36150737D-01
 -0.30026018D-01 -0.15944649D-01 -0.41138027D-02 -0.41833988D+01 -0.55105148D+01
 -0.60789604D+01 -0.50490526D+01 -0.26811870D+01 -0.69176027D+00 -0.70553243D+01
 -0.92935125D+01 -0.10252199D+02 -0.85152541D+01 -0.45218362D+01 -0.11666574D+01
  0.11925280D-05 -0.11528594D-04 -0.16256520D-04 -0.23251125D-04  0.11774042D-06
  0.21323474D-04  0.18198680D-03 -0.17593313D-02 -0.24808407D-02 -0.35482585D-02
  0.17967882D-04  0.32540877D-02  0.33132239D-03 -0.32030117D-02 -0.45165809D-02
 -0.64599055D-02  0.32712052D-04  0.59243426D-02 -0.16231949D-03 -0.27021836D-01
 -0.45649582D-01 -0.78369826D-06  0.14312379D-03  0.13544471D-03 -0.24460366D-08
  0.10748551D-04  0.13330683D-04  0.14970338D-04  0.47406458D-03 -0.48903492D-03
  0.23120902D-05 -0.16949008D-05  0.44605310D-03  0.24752954D-04 -0.28447208D-03
  0.25971912D-03 -0.27166467D-05  0.22343754D-06 -0.41255612D-03 -0.27901196D-05
  0.47352658D-04 -0.44562539D-04  0.57252277D-06 -0.50370289D-06  0.26995098D-04
 -0.22249470D-06  0.30172618D-04  0.10912576D-05  0.62640559D-06 -0.59183849D-04
  0.30253487D-04  0.41078515D-07 -0.31334004D-04 -0.33527259D-04 -0.95237179D-06
 -0.87529604D-07  0.46849343D-04 -0.11823034D-04  0.67021519D-06 -0.18261131D-04
 -0.41589771D-04 -0.40762638D-06 -0.12228690D-03  0.77058872D-04  0.55211068D-06
  0.51333986D-03  0.95974057D-03  0.16587170D-02  0.26829063D-02  0.40551231D-02
  0.55847441D-02  0.65278858D-02  0.56418403D-02  0.26330763D-02  0.35672406D-03
 -0.26091311D-05  0.64746410D-05  0.83230858D-04  0.30361421D-03  0.10243868D-02
  0.22500131D-02  0.29064032D-02 -0.46708372D-03 -0.39182772D-02 -0.21503000D-02
  0.23271946D-06  0.26508193D-05  0.55040564D-05  0.15134757D-04 -0.19623951D-05
 -0.68432480D-04 -0.17068147D-03  0.14128765D-03 -0.26449510D-04  0.11724215D-02
  0.25936866D-03 -0.68699398D-03 -0.90129703D-03 -0.98852779D-03 -0.81333088D-03
 -0.42874180D-03 -0.11155055D-03 -0.51212918D-04 -0.67188436D-04 -0.73691173D-04
 -0.60630878D-04 -0.31961151D-04 -0.83156904D-05 -0.57347951D+00 -0.75237250D+00
 -0.82518980D+00 -0.67894131D+00 -0.35789926D+00 -0.93118654D-01 -0.45285600D-07
 -0.16255552D-05 -0.25789840D-05 -0.30624644D-05 -0.46343159D-06  0.33727683D-05
 -0.21321116D-08 -0.76533492D-07 -0.12142230D-06 -0.14418526D-06 -0.21819030D-07
  0.15879481D-06 -0.45653054D-05 -0.16387452D-03 -0.25999103D-03 -0.30873138D-03
 -0.46719195D-04  0.34001354D-03 -0.56750987D-05 -0.37453560D-06 -0.39328783D-02
  0.32100635D-05  0.60481372D-07 -0.11706634D-03  0.90393257D-07  0.50546008D-09
 -0.89056181D-07  0.20081813D-04  0.45790953D-04 -0.65872766D-04  0.17989054D-06
 -0.26996460D-05 -0.74398609D-07 -0.91829235D-04  0.92072759D-04 -0.24352398D-06
  0.12853023D-05  0.11309223D-05  0.32876593D-08  0.10391872D-04 -0.90144908D-05
 -0.13773815D-05 -0.13563359D-06 -0.63328008D-06 -0.87870622D-08 -0.22390375D-06
 -0.86720810D-08  0.33050278D-04  0.71333731D-08 -0.17862279D-08  0.45349356D-04
  0.66457786D-06  0.27802471D-07 -0.14450019D-03 -0.13271936D-05 -0.40732085D-07
 -0.23385440D-08  0.97900161D-05 -0.26867096D-06 -0.10152128D-08 -0.19895926D-04
  0.39086722D-06  0.80308448D-08 -0.94741221D-05  0.72747735D-07
MO    3     MO 0.0        OCC NO =    2.0000330  ORB. ENERGY =    0.000000
  0.30779170D-08  0.57378573D-08  0.96977605D-08  0.14577543D-07  0.17905900D-07
  0.15111948D-07  0.56824872D-08  0.28582979D-12  0.21364006D-11  0.79842170D-11
  0.22274722D-10  0.29841986D-10 -0.35237822D-10  0.28482394D-09 -0.60923435D-09
 -0.14070914D-09  0.89849312D-07  0.84239441D-07  0.59983500D-07 -0.49321521D-05
 -0.46242061D-05 -0.32927102D-05  0.74847072D-10  0.70173888D-10  0.49967989D-10
  0.11072658D-07  0.71342401D-06 -0.15153329D-09 -0.32432454D-07 -0.93941217D-05
 -0.14522665D-09 -0.11056376D-08 -0.43181466D-06 -0.85640636D-11  0.41053164D-05
 -0.41053767D-05  0.60232098D-10  0.11747477D-02 -0.20286129D-07  0.11963417D-05
 -0.36373976D-06  0.36384313D-06 -0.10336523D-09 -0.10411043D-03 -0.35034554D-08
 -0.51308946D-05  0.40823270D-06 -0.40823281D-06  0.11051626D-12  0.11681263D-03
 -0.19398506D-07 -0.52977003D-05 -0.96910234D-08 -0.45237463D-08 -0.41057383D-10
  0.15762840D-07 -0.19496162D-05 -0.16191203D-05  0.13310231D-07  0.19631874D-05
  0.16192435D-05 -0.46332771D-03  0.71350783D-08  0.39576645D-06  0.92788525D-11
 -0.82748401D-08  0.16256276D-05  0.12171785D-05 -0.13130395D-07 -0.28129270D-05
 -0.12172063D-05  0.34830611D-03 -0.36901251D-04 -0.69038304D-04 -0.11928288D-03
 -0.19337156D-03 -0.29365326D-03 -0.40815041D-03 -0.48525956D-03 -0.43228608D-03
 -0.21468241D-03 -0.34562052D-04 -0.36465006D-06 -0.17263811D-06 -0.57589182D-05
 -0.20068677D-04 -0.72270555D-04 -0.15931145D-03 -0.22425910D-03  0.10697890D-04
  0.29348197D-03  0.17353405D-03 -0.37194634D-08 -0.45051785D-07 -0.93950749D-07
 -0.26943439D-06 -0.13991353D-07  0.11619318D-05  0.30022085D-05 -0.24460582D-05
  0.97154725D-05  0.41468754D-05 -0.96764348D-06  0.82134654D+01  0.10819055D+02
  0.11935112D+02  0.99130446D+01  0.52641018D+01  0.13581658D+01 -0.50126358D-01
 -0.66028139D-01 -0.72839373D-01 -0.60498803D-01 -0.32126543D-01 -0.82888160D-02
 -0.30112595D-01 -0.39665332D-01 -0.43757070D-01 -0.36343673D-01 -0.19299499D-01
 -0.49793716D-02 -0.35897058D-03  0.34702966D-02  0.48934804D-02  0.69989715D-02
 -0.35441806D-04 -0.64187170D-02  0.22330205D-05 -0.21587405D-04 -0.30440494D-04
 -0.43537960D-04  0.22047010D-06  0.39928415D-04  0.14963809D-05 -0.14466048D-04
 -0.20398638D-04 -0.29175448D-04  0.14774036D-06  0.26756638D-04  0.53790420D-01
 -0.32964578D-03 -0.20054663D-03 -0.35374119D-03  0.27360569D-05 -0.20974318D-05
 -0.14917767D-04  0.16913304D-06 -0.11004792D-07  0.70231760D-05 -0.57570252D-05
 -0.12661508D-05  0.99066399D-03  0.56256473D-03 -0.51960598D-05 -0.38267314D-05
  0.26602666D-05  0.11664648D-05 -0.47780524D-03 -0.32821119D-03  0.47305176D-05
  0.73541725D-06  0.12280952D-07 -0.74769821D-06  0.39002001D-04  0.52122417D-04
 -0.92474958D-06  0.21137016D-04 -0.51611652D-06  0.67206922D-06  0.44254326D-04
 -0.24155601D-06 -0.16602574D-05 -0.10766537D-03  0.17899056D-05 -0.35595028D-06
 -0.17160300D-04  0.17138468D-04  0.48823851D-06 -0.40931361D-06 -0.85400232D-04
 -0.15898935D-05 -0.40708579D-06  0.33984827D-04  0.12517794D-06  0.16350266D-05
 -0.13697264D-03  0.36903971D-04  0.69043392D-04  0.11929167D-03  0.19338581D-03
  0.29367491D-03  0.40818049D-03  0.48529533D-03  0.43231794D-03  0.21469823D-03
  0.34564599D-04  0.36467694D-06  0.17265082D-06  0.57593424D-05  0.20070155D-04
  0.72275879D-04  0.15932318D-03  0.22427562D-03 -0.10698678D-04 -0.29350359D-03
 -0.17354684D-03  0.37196748D-08  0.45054346D-07  0.93956088D-07  0.26944970D-06
  0.13992148D-07 -0.11619978D-05 -0.30023791D-05  0.24461972D-05 -0.97162400D-05
 -0.41467671D-05  0.96776868D-06 -0.82134695D+01 -0.10819061D+02 -0.11935118D+02
 -0.99130496D+01 -0.52641044D+01 -0.13581665D+01  0.72806433D-02  0.95903104D-02
  0.10579614D-01  0.87871975D-02  0.46662457D-02  0.12039158D-02  0.30111977D-01
  0.39664518D-01  0.43756173D-01  0.36342927D-01  0.19299103D-01  0.49792694D-02
  0.35897329D-03 -0.34703228D-02 -0.48935175D-02 -0.69990245D-02  0.35442075D-04
  0.64187656D-02 -0.27597003D-06  0.26679006D-05  0.37620184D-05  0.53806815D-05
 -0.27247014D-07 -0.49345924D-05 -0.14963623D-05  0.14465868D-04  0.20398383D-04
  0.29175084D-04 -0.14773852D-06 -0.26756304D-04 -0.53790539D-01  0.46315845D-04
  0.20054289D-03  0.35373542D-03  0.26352211D-06  0.20976013D-05  0.14917341D-04
  0.64865461D-07  0.11016582D-07 -0.98640776D-07 -0.11674783D-05  0.12661191D-05
  0.99074000D-03 -0.56259096D-03 -0.12637824D-05  0.48701209D-06  0.67952338D-06
 -0.11665355D-05 -0.47786551D-03  0.32825546D-03  0.24364562D-05 -0.46280941D-06
 -0.28490254D-06  0.74771196D-06  0.39008555D-04 -0.52128808D-04 -0.56040248D-06
 -0.21142819D-04 -0.20680048D-06 -0.67210244D-06 -0.44250197D-04 -0.41690600D-06
  0.15402841D-05  0.10767866D-03  0.10373074D-05  0.47602319D-06 -0.17186289D-04
 -0.17144128D-04 -0.10873114D-06  0.40932065D-06  0.85414966D-04 -0.36565458D-07
 -0.55034529D-06 -0.33982582D-04  0.36275887D-06 -0.67761667D-06 -0.13699369D-03
 -0.83270936D-11 -0.15568340D-10 -0.26906719D-10 -0.43520509D-10 -0.65779793D-10
 -0.90592394D-10 -0.10589148D-09 -0.91518575D-10 -0.42712196D-10 -0.57865653D-11
  0.42323772D-13  0.61343763D-12  0.78856789D-11  0.28765823D-10  0.97055175D-10
  0.21317671D-09  0.27536617D-09 -0.44253686D-10 -0.37123583D-09 -0.20372943D-09
 -0.63548626D-13 -0.72385835D-12 -0.15029909D-11 -0.41328432D-11  0.53587058D-12
  0.18686835D-10  0.46607934D-10 -0.38581373D-10 -0.59343420D-10  0.35553341D-09
  0.13153632D-09 -0.20406831D-04 -0.26772602D-04 -0.29363750D-04 -0.24159609D-04
 -0.12735572D-04 -0.33135563D-05 -0.67108833D-02 -0.88042972D-02 -0.96564086D-02
 -0.79450021D-02 -0.41881534D-02 -0.10896787D-02  0.20141831D-07  0.26424937D-07
  0.28982437D-07  0.23845876D-07  0.12570190D-07  0.32705270D-08 -0.35407996D-09
 -0.12709923D-07 -0.20164612D-07 -0.23944858D-07 -0.36234882D-08  0.26371068D-07
 -0.11817395D-06 -0.42419284D-05 -0.67299257D-05 -0.79915803D-05 -0.12093367D-05