 Entering Gaussian System, Link 0=/home/bruns/programas/chemistry/gaussian/g09/g09
 Input=GAUSSIAN.com
 Output=GAUSSIAN.log
 Initial command:
 /home/bruns/programas/chemistry/gaussian/g09/l1.exe /home/bruns/programas/chemistry/gaussian/work/Gau-60621.inp -scrdir=/home/bruns/programas/chemistry/gaussian/work/
 Entering Link 1 = /home/bruns/programas/chemistry/gaussian/g09/l1.exe PID=     60623.
  
 Copyright (c) 1988,1990,1992,1993,1995,1998,2003,2009,2010,
            Gaussian, Inc.  All Rights Reserved.
  
 This is part of the Gaussian(R) 09 program.  It is based on
 the Gaussian(R) 03 system (copyright 2003, Gaussian, Inc.),
 the Gaussian(R) 98 system (copyright 1998, Gaussian, Inc.),
 the Gaussian(R) 94 system (copyright 1995, Gaussian, Inc.),
 the Gaussian 92(TM) system (copyright 1992, Gaussian, Inc.),
 the Gaussian 90(TM) system (copyright 1990, Gaussian, Inc.),
 the Gaussian 88(TM) system (copyright 1988, Gaussian, Inc.),
 the Gaussian 86(TM) system (copyright 1986, Carnegie Mellon
 University), and the Gaussian 82(TM) system (copyright 1983,
 Carnegie Mellon University). Gaussian is a federally registered
 trademark of Gaussian, Inc.
  
 This software contains proprietary and confidential information,
 including trade secrets, belonging to Gaussian, Inc.
  
 This software is provided under written license and may be
 used, copied, transmitted, or stored only in accord with that
 written license.
  
 The following legend is applicable only to US Government
 contracts under FAR:
  
                    RESTRICTED RIGHTS LEGEND
  
 Use, reproduction and disclosure by the US Government is
 subject to restrictions as set forth in subparagraphs (a)
 and (c) of the Commercial Computer Software - Restricted
 Rights clause in FAR 52.227-19.
  
 Gaussian, Inc.
 340 Quinnipiac St., Bldg. 40, Wallingford CT 06492
  
  
 ---------------------------------------------------------------
 Warning -- This program may not be used in any manner that
 competes with the business of Gaussian, Inc. or will provide
 assistance to any competitor of Gaussian, Inc.  The licensee
 of this program is prohibited from giving any competitor of
 Gaussian, Inc. access to this program.  By using this program,
 the user acknowledges that Gaussian, Inc. is engaged in the
 business of creating and licensing software in the field of
 computational chemistry and represents and warrants to the
 licensee that it is not a competitor of Gaussian, Inc. and that
 it will not use this program in any manner prohibited above.
 ---------------------------------------------------------------
  

 Cite this work as:
 Gaussian 09, Revision B.01,
 M. J. Frisch, G. W. Trucks, H. B. Schlegel, G. E. Scuseria, 
 M. A. Robb, J. R. Cheeseman, G. Scalmani, V. Barone, B. Mennucci, 
 G. A. Petersson, H. Nakatsuji, M. Caricato, X. Li, H. P. Hratchian, 
 A. F. Izmaylov, J. Bloino, G. Zheng, J. L. Sonnenberg, M. Hada, 
 M. Ehara, K. Toyota, R. Fukuda, J. Hasegawa, M. Ishida, T. Nakajima, 
 Y. Honda, O. Kitao, H. Nakai, T. Vreven, J. A. Montgomery, Jr., 
 J. E. Peralta, F. Ogliaro, M. Bearpark, J. J. Heyd, E. Brothers, 
 K. N. Kudin, V. N. Staroverov, T. Keith, R. Kobayashi, J. Normand, 
 K. Raghavachari, A. Rendell, J. C. Burant, S. S. Iyengar, J. Tomasi, 
 M. Cossi, N. Rega, J. M. Millam, M. Klene, J. E. Knox, J. B. Cross, 
 V. Bakken, C. Adamo, J. Jaramillo, R. Gomperts, R. E. Stratmann, 
 O. Yazyev, A. J. Austin, R. Cammi, C. Pomelli, J. W. Ochterski, 
 R. L. Martin, K. Morokuma, V. G. Zakrzewski, G. A. Voth, 
 P. Salvador, J. J. Dannenberg, S. Dapprich, A. D. Daniels, 
 O. Farkas, J. B. Foresman, J. V. Ortiz, J. Cioslowski, 
 and D. J. Fox, Gaussian, Inc., Wallingford CT, 2010.
 
 ******************************************
 Gaussian 09:  EM64L-G09RevB.01 12-Aug-2010
                27-Nov-2021 
 ******************************************
 %nproc=8
 Will use up to    8 processors via shared memory.
 %mem=8GB
 -----------------------------------------------------
 # qcisd/aug-cc-pvtz nosymm density=current output=wfn
 -----------------------------------------------------
 1/30=1,38=1/1;
 2/12=2,15=1,17=6,18=5,40=1/2;
 3/5=16,6=1,7=10,11=9,16=1,25=1,30=1,71=1/1,2,3;
 4//1;
 5/5=2,38=5/2;
 8/6=4,9=120000,10=1/1,4;
 9/5=8,15=1/13;
 11/28=-7,31=1,32=3,42=3/11;
 10/5=6,13=10,31=1/2;
 6/7=2,8=2,9=2,10=2,22=-1,31=1/1;
 99/5=1,6=1100,9=1/99;
 ------------------
 cl2cs-wavefunction
 ------------------
 Symbolic Z-matrix:
 Charge =  0 Multiplicity = 1
 C                     0.        0.       -0.52291 
 Cl                    0.       -1.43074  -1.4909 
 Cl                    0.        1.43074  -1.5009 
 S                     0.        0.        1.08181 
 
                          Input orientation:                          
 ---------------------------------------------------------------------
 Center     Atomic      Atomic             Coordinates (Angstroms)
 Number     Number       Type             X           Y           Z
 ---------------------------------------------------------------------
      1          6           0        0.000000    0.000000   -0.522914
      2         17           0        0.000000   -1.430735   -1.490900
      3         17           0        0.000000    1.430735   -1.500900
      4         16           0        0.000000    0.000000    1.081815
 ---------------------------------------------------------------------
                    Distance matrix (angstroms):
                    1          2          3          4
     1  C    0.000000
     2  Cl   1.727426   0.000000
     3  Cl   1.733049   2.861487   0.000000
     4  S    1.604729   2.943784   2.952528   0.000000
 Symmetry turned off by external request.
 Stoichiometry    CCl2S
 Framework group  CS[SG(CCl2S)]
 Deg. of freedom     5
 Full point group                 CS      NOp   2
 Rotational constants (GHZ):      3.5321585      3.4575309      1.7472232
 Standard basis: Aug-CC-pVTZ (5D, 7F)
 Integral buffers will be    131072 words long.
 Raffenetti 1 integral format.
 Two-electron integral symmetry is turned off.
   196 basis functions,   414 primitive gaussians,   232 cartesian basis functions
    28 alpha electrons       28 beta electrons
       nuclear repulsion energy       245.1388808137 Hartrees.
 NAtoms=    4 NActive=    4 NUniq=    4 SFac= 1.00D+00 NAtFMM=   50 NAOKFM=F Big=F
 One-electron integrals computed using PRISM.
 NBasis=   196 RedAO= T  NBF=   196
 NBsUse=   196 1.00D-06 NBFU=   196
 Harris functional with IExCor=  205 diagonalized for initial guess.
 ExpMin= 3.51D-02 ExpMax= 4.56D+05 ExpMxC= 1.44D+03 IAcc=3 IRadAn=         0 AccDes= 0.00D+00
 HarFok:  IExCor=  205 AccDes= 0.00D+00 IRadAn=         0 IDoV= 1
 ScaDFX=  1.000000  1.000000  1.000000  1.000000
 FoFCou: FMM=F IPFlag=           0 FMFlag=      100000 FMFlg1=           0
         NFxFlg=           0 DoJE=T BraDBF=F KetDBF=T FulRan=T
         Omega=  0.000000  0.000000  1.000000  0.000000  0.000000 ICntrl=     500 IOpCl=  0
         NMat0=    1 NMatS0=    1 NMatT0=    0 NMatD0=    1 NMtDS0=    0 NMtDT0=    0
         I1Cent=           4 NGrid=           0.
 Symmetry not used in FoFCou.
 Requested convergence on RMS density matrix=1.00D-08 within 128 cycles.
 Requested convergence on MAX density matrix=1.00D-06.
 Requested convergence on             energy=1.00D-06.
 No special actions if energy rises.
 Keep R1 ints in memory in canonical form, NReq=371777346.
 SCF Done:  E(RHF) =  -1354.42610032     A.U. after   12 cycles
             Convg  =    0.9673D-08             -V/T =  2.0001
 ExpMin= 3.51D-02 ExpMax= 4.56D+05 ExpMxC= 1.44D+03 IAcc=3 IRadAn=         5 AccDes= 0.00D+00
 HarFok:  IExCor=  205 AccDes= 0.00D+00 IRadAn=         5 IDoV=-2
 ScaDFX=  1.000000  1.000000  1.000000  1.000000
 Range of M.O.s used for correlation:    17   196
 NBasis=   196 NAE=    28 NBE=    28 NFC=    16 NFV=     0
 NROrb=    180 NOA=    12 NOB=    12 NVA=   168 NVB=   168

 **** Warning!!: The largest alpha MO coefficient is  0.31239726D+02

 Semi-Direct transformation.
 ModeAB=           2 MOrb=            12 LenV=    1072679819
 LASXX=     33405819 LTotXX=    33405819 LenRXX=    33405819
 LTotAB=    33954012 MaxLAS=    58380480 LenRXY=    58380480
 NonZer=    66811638 LenScr=   100987392 LnRSAI=           0
 LnScr1=           0 LExtra=           0 Total=    192773691
 MaxDsk=          -1 SrtSym=           F ITran=            4
 JobTyp=0 Pass  1:  I=   1 to  12.
 (rs|ai) integrals will be sorted in core.
 Spin components of T(2) and E(2):
     alpha-alpha T2 =       0.3950314102D-01 E2=     -0.9366580462D-01
     alpha-beta  T2 =       0.2070724180D+00 E2=     -0.5369545021D+00
     beta-beta   T2 =       0.3950314102D-01 E2=     -0.9366580462D-01
 ANorm=    0.1134054099D+01
 E2 =    -0.7242861113D+00 EUMP2 =    -0.13551503864268D+04
 R2 and R3 integrals will be kept in memory, NReq=   736864364.
 Iterations=  50 Convergence= 0.100D-07
 Iteration Nr.   1
 **********************
 DD1Dir will call FoFMem   1 times, MxPair=       156
 NAB=    78 NAA=     0 NBB=     0.
 MP4(R+Q)=  0.24864697D-01
 E3=       -0.32625491D-01        EUMP3=      -0.13551830119D+04
 E4(DQ)=    0.31185230D-02        UMP4(DQ)=   -0.13551798934D+04
 E4(SDQ)=  -0.36781619D-02        UMP4(SDQ)=  -0.13551866901D+04
 DE(Corr)= -0.73204691     E(Corr)=     -1355.1581472    
 NORM(A)=   0.11379895D+01
 Iteration Nr.   2
 **********************
 DD1Dir will call FoFMem   1 times, MxPair=       156
 NAB=    78 NAA=     0 NBB=     0.
 DE(Corr)= -0.75632359     E(CORR)=     -1355.1824239     Delta=-2.43D-02
 NORM(A)=   0.11489662D+01
 Iteration Nr.   3
 **********************
 DD1Dir will call FoFMem   1 times, MxPair=       156
 NAB=    78 NAA=     0 NBB=     0.
 DE(Corr)= -0.75552294     E(CORR)=     -1355.1816233     Delta= 8.01D-04
 NORM(A)=   0.11516965D+01
 Iteration Nr.   4
 **********************
 DD1Dir will call FoFMem   1 times, MxPair=       156
 NAB=    78 NAA=     0 NBB=     0.
 DE(Corr)= -0.75777595     E(CORR)=     -1355.1838763     Delta=-2.25D-03
 NORM(A)=   0.11527688D+01
 Iteration Nr.   5
 **********************
 DD1Dir will call FoFMem   1 times, MxPair=       156
 NAB=    78 NAA=     0 NBB=     0.
 DE(Corr)= -0.75805262     E(CORR)=     -1355.1841529     Delta=-2.77D-04
 NORM(A)=   0.11533031D+01
 Iteration Nr.   6
 **********************
 DD1Dir will call FoFMem   1 times, MxPair=       156
 NAB=    78 NAA=     0 NBB=     0.
 DE(Corr)= -0.75810520     E(CORR)=     -1355.1842055     Delta=-5.26D-05
 NORM(A)=   0.11533655D+01
 Iteration Nr.   7
 **********************
 DD1Dir will call FoFMem   1 times, MxPair=       156
 NAB=    78 NAA=     0 NBB=     0.
 DE(Corr)= -0.75811239     E(CORR)=     -1355.1842127     Delta=-7.19D-06
 NORM(A)=   0.11533708D+01
 Iteration Nr.   8
 **********************
 DD1Dir will call FoFMem   1 times, MxPair=       156
 NAB=    78 NAA=     0 NBB=     0.
 DE(Corr)= -0.75811048     E(CORR)=     -1355.1842108     Delta= 1.91D-06
 NORM(A)=   0.11533773D+01
 Iteration Nr.   9
 **********************
 DD1Dir will call FoFMem   1 times, MxPair=       156
 NAB=    78 NAA=     0 NBB=     0.
 DE(Corr)= -0.75811055     E(CORR)=     -1355.1842109     Delta=-7.39D-08
 NORM(A)=   0.11533761D+01
 Iteration Nr.  10
 **********************
 DD1Dir will call FoFMem   1 times, MxPair=       156
 NAB=    78 NAA=     0 NBB=     0.
 DE(Corr)= -0.75811153     E(CORR)=     -1355.1842118     Delta=-9.72D-07
 NORM(A)=   0.11533779D+01
 Iteration Nr.  11
 **********************
 DD1Dir will call FoFMem   1 times, MxPair=       156
 NAB=    78 NAA=     0 NBB=     0.
 DE(Corr)= -0.75811221     E(CORR)=     -1355.1842125     Delta=-6.85D-07
 NORM(A)=   0.11533789D+01
 Iteration Nr.  12
 **********************
 DD1Dir will call FoFMem   1 times, MxPair=       156
 NAB=    78 NAA=     0 NBB=     0.
 DE(Corr)= -0.75811243     E(CORR)=     -1355.1842127     Delta=-2.22D-07
 NORM(A)=   0.11533797D+01
 Iteration Nr.  13
 **********************
 DD1Dir will call FoFMem   1 times, MxPair=       156
 NAB=    78 NAA=     0 NBB=     0.
 DE(Corr)= -0.75811272     E(CORR)=     -1355.1842130     Delta=-2.84D-07
 NORM(A)=   0.11533801D+01
 Iteration Nr.  14
 **********************
 DD1Dir will call FoFMem   1 times, MxPair=       156
 NAB=    78 NAA=     0 NBB=     0.
 DE(Corr)= -0.75811275     E(CORR)=     -1355.1842131     Delta=-2.86D-08
 NORM(A)=   0.11533803D+01
 Iteration Nr.  15
 **********************
 DD1Dir will call FoFMem   1 times, MxPair=       156
 NAB=    78 NAA=     0 NBB=     0.
 DE(Corr)= -0.75811280     E(CORR)=     -1355.1842131     Delta=-5.44D-08
 NORM(A)=   0.11533804D+01
 Iteration Nr.  16
 **********************
 DD1Dir will call FoFMem   1 times, MxPair=       156
 NAB=    78 NAA=     0 NBB=     0.
 DE(Corr)= -0.75811281     E(CORR)=     -1355.1842131     Delta=-1.22D-08
 NORM(A)=   0.11533804D+01
 Iteration Nr.  17
 **********************
 DD1Dir will call FoFMem   1 times, MxPair=       156
 NAB=    78 NAA=     0 NBB=     0.
 DE(Corr)= -0.75811281     E(CORR)=     -1355.1842131     Delta= 3.37D-10
 NORM(A)=   0.11533804D+01
 Iteration Nr.  18
 **********************
 DD1Dir will call FoFMem   1 times, MxPair=       156
 NAB=    78 NAA=     0 NBB=     0.
 DE(Corr)= -0.75811282     E(CORR)=     -1355.1842131     Delta=-3.82D-09
 NORM(A)=   0.11533805D+01
 Iteration Nr.  19
 **********************
 DD1Dir will call FoFMem   1 times, MxPair=       156
 NAB=    78 NAA=     0 NBB=     0.
 DE(Corr)= -0.75811281     E(CORR)=     -1355.1842131     Delta= 1.66D-09
 NORM(A)=   0.11533805D+01
 Iteration Nr.  20
 **********************
 DD1Dir will call FoFMem   1 times, MxPair=       156
 NAB=    78 NAA=     0 NBB=     0.
 DE(Corr)= -0.75811282     E(CORR)=     -1355.1842131     Delta=-4.87D-09
 NORM(A)=   0.11533805D+01
 Iteration Nr.  21
 **********************
 DD1Dir will call FoFMem   1 times, MxPair=       156
 NAB=    78 NAA=     0 NBB=     0.
 DE(Corr)= -0.75811282     E(CORR)=     -1355.1842131     Delta= 6.15D-10
 NORM(A)=   0.11533805D+01
 Largest amplitude= 8.90D-02

 Z-AMPLITUDE ITERATIONS

 Iteration Nr.   1
 **********************
 DD1Dir will call FoFMem   1 times, MxPair=       156
 NAB=    78 NAA=     0 NBB=     0.
 DE(Z)  -0.72630496D+00          E(Z)=    -0.13551524053D+04
 NORM(A)=   0.11534461D+01
 Iteration Nr.   2
 **********************
 DD1Dir will call FoFMem   1 times, MxPair=       156
 NAB=    78 NAA=     0 NBB=     0.
 DE(Z)  -0.72630671D+00          E(Z)=    -0.13551524070D+04
 NORM(A)=   0.11537792D+01
 Iteration Nr.   3
 **********************
 DD1Dir will call FoFMem   1 times, MxPair=       156
 NAB=    78 NAA=     0 NBB=     0.
 DE(Z)  -0.72631563D+00          E(Z)=    -0.13551524159D+04
 NORM(A)=   0.11535629D+01
 Iteration Nr.   4
 **********************
 DD1Dir will call FoFMem   1 times, MxPair=       156
 NAB=    78 NAA=     0 NBB=     0.
 DE(Z)  -0.72631003D+00          E(Z)=    -0.13551524103D+04
 NORM(A)=   0.11548212D+01
 Iteration Nr.   5
 **********************
 DD1Dir will call FoFMem   1 times, MxPair=       156
 NAB=    78 NAA=     0 NBB=     0.
 DE(Z)  -0.72634630D+00          E(Z)=    -0.13551524466D+04
 NORM(A)=   0.11401643D+01
 Iteration Nr.   6
 **********************
 DD1Dir will call FoFMem   1 times, MxPair=       156
 NAB=    78 NAA=     0 NBB=     0.
 DE(Z)  -0.72591882D+00          E(Z)=    -0.13551520191D+04
 NORM(A)=   0.11401654D+01
 Iteration Nr.   7
 **********************
 DD1Dir will call FoFMem   1 times, MxPair=       156
 NAB=    78 NAA=     0 NBB=     0.
 DE(Z)  -0.72591694D+00          E(Z)=    -0.13551520173D+04
 NORM(A)=   0.11401640D+01
 Iteration Nr.   8
 **********************
 DD1Dir will call FoFMem   1 times, MxPair=       156
 NAB=    78 NAA=     0 NBB=     0.
 DE(Z)  -0.72591751D+00          E(Z)=    -0.13551520178D+04
 NORM(A)=   0.11401644D+01
 Iteration Nr.   9
 **********************
 DD1Dir will call FoFMem   1 times, MxPair=       156
 NAB=    78 NAA=     0 NBB=     0.
 DE(Z)  -0.72591759D+00          E(Z)=    -0.13551520179D+04
 NORM(A)=   0.11401647D+01
 Iteration Nr.  10
 **********************
 DD1Dir will call FoFMem   1 times, MxPair=       156
 NAB=    78 NAA=     0 NBB=     0.
 DE(Z)  -0.72591739D+00          E(Z)=    -0.13551520177D+04
 NORM(A)=   0.11401650D+01
 Iteration Nr.  11
 **********************
 DD1Dir will call FoFMem   1 times, MxPair=       156
 NAB=    78 NAA=     0 NBB=     0.
 DE(Z)  -0.72591754D+00          E(Z)=    -0.13551520179D+04
 NORM(A)=   0.11401652D+01
 Iteration Nr.  12
 **********************
 DD1Dir will call FoFMem   1 times, MxPair=       156
 NAB=    78 NAA=     0 NBB=     0.
 DE(Z)  -0.72591751D+00          E(Z)=    -0.13551520178D+04
 NORM(A)=   0.11401652D+01
 Iteration Nr.  13
 **********************
 DD1Dir will call FoFMem   1 times, MxPair=       156
 NAB=    78 NAA=     0 NBB=     0.
 DE(Z)  -0.72591754D+00          E(Z)=    -0.13551520179D+04
 NORM(A)=   0.11401652D+01
 Iteration Nr.  14
 **********************
 DD1Dir will call FoFMem   1 times, MxPair=       156
 NAB=    78 NAA=     0 NBB=     0.
 DE(Z)  -0.72591753D+00          E(Z)=    -0.13551520178D+04
 NORM(A)=   0.11401652D+01
 Iteration Nr.  15
 **********************
 DD1Dir will call FoFMem   1 times, MxPair=       156
 NAB=    78 NAA=     0 NBB=     0.
 DE(Z)  -0.72591753D+00          E(Z)=    -0.13551520178D+04
 NORM(A)=   0.11401651D+01
 Iteration Nr.  16
 **********************
 DD1Dir will call FoFMem   1 times, MxPair=       156
 NAB=    78 NAA=     0 NBB=     0.
 DE(Z)  -0.72591753D+00          E(Z)=    -0.13551520178D+04
 NORM(A)=   0.11401651D+01
 Discarding MO integrals.
          Differentiating once with respect to electric field.
                with respect to dipole field.
          Electric field/nuclear overlap derivatives assumed to be zero.
          Keep R1 ints in memory in canonical form, NReq=367211061.
          There are     1 degrees of freedom in the 1st order CPHF.  IDoFFX=0.
 LinEq1:  Iter=  0 NonCon=     1 RMS=2.08D-03 Max=6.34D-02
 AX will form     1 AO Fock derivatives at one time.
 LinEq1:  Iter=  1 NonCon=     1 RMS=9.26D-04 Max=1.75D-02
 LinEq1:  Iter=  2 NonCon=     1 RMS=4.10D-04 Max=1.01D-02
 LinEq1:  Iter=  3 NonCon=     1 RMS=1.03D-04 Max=1.79D-03
 LinEq1:  Iter=  4 NonCon=     1 RMS=2.45D-05 Max=8.17D-04
 LinEq1:  Iter=  5 NonCon=     1 RMS=8.05D-06 Max=2.00D-04
 LinEq1:  Iter=  6 NonCon=     1 RMS=2.43D-06 Max=9.01D-05
 LinEq1:  Iter=  7 NonCon=     1 RMS=7.34D-07 Max=1.31D-05
 LinEq1:  Iter=  8 NonCon=     1 RMS=1.36D-07 Max=2.09D-06
 LinEq1:  Iter=  9 NonCon=     1 RMS=2.56D-08 Max=3.69D-07
 LinEq1:  Iter= 10 NonCon=     1 RMS=6.74D-09 Max=1.48D-07
 LinEq1:  Iter= 11 NonCon=     1 RMS=1.39D-09 Max=1.98D-08
 LinEq1:  Iter= 12 NonCon=     1 RMS=3.22D-10 Max=5.17D-09
 LinEq1:  Iter= 13 NonCon=     0 RMS=7.23D-11 Max=8.52D-10
 Linear equations converged to 1.000D-10 1.000D-09 after    13 iterations.
 End of Minotr Frequency-dependent properties file   721 does not exist.
 End of Minotr Frequency-dependent properties file   722 does not exist.

 **********************************************************************

            Population analysis using the QCI/CC density.

 **********************************************************************

     Natural Orbital Coefficients:
                           1         2         3         4         5
     Eigenvalues --     2.00004   2.00004   2.00003   2.00003   2.00003
   1 1   C  1S         -0.00001  -0.00180   0.00000   0.00000  -0.00084
   2        2S         -0.00001   0.00037   0.00000   0.00000   0.00003
   3        3S          0.00000   0.00002   0.00000   0.00000  -0.00003
   4        4S          0.00011  -0.00290   0.00000   0.00000  -0.00004
   5        5S          0.00004  -0.00095   0.00000   0.00000   0.00000
   6        6PX         0.00000   0.00000   0.00001   0.00160   0.00000
   7        6PY         0.00035   0.00000   0.00000   0.00000  -0.00104
   8        6PZ        -0.00001   0.00037   0.00000   0.00000   0.00002
   9        7PX         0.00000   0.00000   0.00000   0.00170   0.00000
  10        7PY         0.00047   0.00002   0.00000   0.00000  -0.00226
  11        7PZ        -0.00004   0.00134   0.00000   0.00000   0.00001
  12        8PX         0.00000   0.00000   0.00001  -0.00094   0.00000
  13        8PY         0.00301   0.00008   0.00000   0.00000   0.00663
  14        8PZ         0.00014  -0.00491   0.00000   0.00000  -0.00007
  15        9PX         0.00000   0.00000   0.00000  -0.00100   0.00000
  16        9PY        -0.00047  -0.00002   0.00000   0.00000   0.00157
  17        9PZ         0.00007  -0.00208   0.00000   0.00000  -0.00001
  18       10D 0        0.00001  -0.00034   0.00000   0.00000   0.00000
  19       10D+1        0.00000   0.00000   0.00000  -0.00028   0.00000
  20       10D-1        0.00008   0.00000   0.00000   0.00000  -0.00036
  21       10D+2        0.00001  -0.00023   0.00000   0.00000   0.00000
  22       10D-2        0.00000   0.00000  -0.00035   0.00000   0.00000
  23       11D 0       -0.00003   0.00024   0.00000   0.00000  -0.00001
  24       11D+1        0.00000   0.00000   0.00001   0.00011   0.00000
  25       11D-1        0.00071   0.00003   0.00000   0.00000   0.00113
  26       11D+2       -0.00003   0.00046   0.00000   0.00000  -0.00001
  27       11D-2        0.00000   0.00000   0.00028   0.00001   0.00000
  28       12D 0        0.00016  -0.00575   0.00000   0.00000  -0.00001
  29       12D+1        0.00000   0.00000   0.00002  -0.00271   0.00000
  30       12D-1        0.00371   0.00008   0.00000   0.00000  -0.00338
  31       12D+2        0.00009  -0.00313   0.00000   0.00000  -0.00001
  32       12D-2        0.00000   0.00000  -0.00232   0.00000   0.00000
  33       13F 0        0.00000   0.00012   0.00000   0.00000   0.00000
  34       13F+1        0.00000   0.00000   0.00000   0.00004   0.00000
  35       13F-1       -0.00040  -0.00001   0.00000   0.00000  -0.00029
  36       13F+2        0.00000  -0.00003   0.00000   0.00000   0.00000
  37       13F-2        0.00000   0.00000   0.00015   0.00000   0.00000
  38       13F+3        0.00000   0.00000   0.00000  -0.00010   0.00000
  39       13F-3       -0.00009   0.00000   0.00000   0.00000   0.00010
  40       14F 0        0.00001  -0.00096   0.00000   0.00000   0.00000
  41       14F+1        0.00000   0.00000   0.00000   0.00006   0.00000
  42       14F-1        0.00502   0.00015   0.00000   0.00000   0.00167
  43       14F+2       -0.00002  -0.00008   0.00000   0.00000   0.00001
  44       14F-2        0.00000   0.00000  -0.00119   0.00000   0.00000
  45       14F+3        0.00000   0.00000   0.00000   0.00059   0.00000
  46       14F-3        0.00118   0.00004   0.00000   0.00000  -0.00012
  47 2   Cl 1S         -0.00234  -0.00132   0.00000   0.00000   0.02380
  48        2S          0.00826   0.00496   0.00000   0.00000  -0.08089
  49        3S          0.00031   0.00044   0.00000   0.00000   0.00222
  50        4S          0.00057   0.00020   0.00000   0.00000  -0.00599
  51        5S         -0.00113  -0.00197   0.00000   0.00000   0.00396
  52        6S         -0.00119  -0.00203   0.00000   0.00000   0.00408
  53        7PX         0.00000   0.00000  -0.69101  -0.68859   0.00000
  54        7PY        -0.41615   0.33552   0.00000   0.00000   0.13886
  55        7PZ         0.57704  -0.57971   0.00000   0.00000   0.02828
  56        8PX         0.00000   0.00000   0.01495   0.01339   0.00000
  57        8PY         0.01066  -0.00717   0.00000   0.00000  -0.00294
  58        8PZ        -0.01428   0.01344   0.00000   0.00000  -0.00138
  59        9PX         0.00000   0.00000  -0.03666  -0.03700   0.00000
  60        9PY        -0.02169   0.01755   0.00000   0.00000   0.00767
  61        9PZ         0.03018  -0.03038   0.00000   0.00000   0.00163
  62       10PX         0.00000   0.00000   0.00315   0.00277   0.00000
  63       10PY         0.00311  -0.00114   0.00000   0.00000   0.00064
  64       10PZ        -0.00464   0.00109   0.00000   0.00000   0.00009
  65       11PX         0.00000   0.00000   0.00055   0.00078   0.00000
  66       11PY         0.00036  -0.00038   0.00000   0.00000   0.00029
  67       11PZ        -0.00074   0.00048   0.00000   0.00000   0.00020
  68       12D 0        0.00046  -0.00026   0.00000   0.00000   0.00008
  69       12D+1        0.00000   0.00000  -0.00018  -0.00018   0.00000
  70       12D-1        0.00025  -0.00014   0.00000   0.00000   0.00011
  71       12D+2        0.00027  -0.00014   0.00000   0.00000  -0.00007
  72       12D-2        0.00000   0.00000  -0.00032  -0.00020   0.00000
  73       13D 0       -0.00210   0.00095   0.00000   0.00000   0.00010
  74       13D+1        0.00000   0.00000   0.00074   0.00058   0.00000
  75       13D-1       -0.00086   0.00093   0.00000   0.00000  -0.00049
  76       13D+2       -0.00102   0.00067   0.00000   0.00000   0.00017
  77       13D-2        0.00000   0.00000   0.00110   0.00102   0.00000
  78       14D 0        0.00009  -0.00090   0.00000   0.00000   0.00000
  79       14D+1        0.00000   0.00000  -0.00061   0.00007   0.00000
  80       14D-1        0.00004  -0.00032   0.00000   0.00000   0.00007
  81       14D+2        0.00000  -0.00059   0.00000   0.00000   0.00016
  82       14D-2        0.00000   0.00000  -0.00046  -0.00048   0.00000
  83       15F 0       -0.00001   0.00000   0.00000   0.00000   0.00005
  84       15F+1        0.00000   0.00000   0.00007  -0.00005   0.00000
  85       15F-1        0.00001   0.00002   0.00000   0.00000   0.00003
  86       15F+2        0.00002   0.00003   0.00000   0.00000  -0.00003
  87       15F-2        0.00000   0.00000   0.00001  -0.00003   0.00000
  88       15F+3        0.00000   0.00000   0.00001  -0.00003   0.00000
  89       15F-3        0.00003   0.00004   0.00000   0.00000  -0.00005
  90       16F 0       -0.00037  -0.00013   0.00000   0.00000   0.00019
  91       16F+1        0.00000   0.00000  -0.00013   0.00018   0.00000
  92       16F-1       -0.00096   0.00044   0.00000   0.00000  -0.00017
  93       16F+2       -0.00006  -0.00030   0.00000   0.00000   0.00030
  94       16F-2        0.00000   0.00000   0.00033   0.00033   0.00000
  95       16F+3        0.00000   0.00000  -0.00031  -0.00022   0.00000
  96       16F-3       -0.00029   0.00018   0.00000   0.00000   0.00021
  97 3   Cl 1S          0.00240  -0.00111   0.00000   0.00000  -0.02412
  98        2S         -0.00851   0.00421   0.00000   0.00000   0.08200
  99        3S         -0.00034   0.00043   0.00000   0.00000  -0.00226
 100        4S         -0.00058   0.00015   0.00000   0.00000   0.00607
 101        5S          0.00122  -0.00189   0.00000   0.00000  -0.00401
 102        6S          0.00130  -0.00195   0.00000   0.00000  -0.00412
 103        7PX         0.00000   0.00000   0.69391  -0.68573   0.00000
 104        7PY        -0.39801  -0.36530   0.00000   0.00000   0.13757
 105        7PZ        -0.53721  -0.61201   0.00000   0.00000  -0.03162
 106        8PX         0.00000   0.00000  -0.01500   0.01332   0.00000
 107        8PY         0.01027   0.00791   0.00000   0.00000  -0.00290
 108        8PZ         0.01330   0.01423   0.00000   0.00000   0.00144
 109        9PX         0.00000   0.00000   0.03680  -0.03683   0.00000
 110        9PY        -0.02074  -0.01911   0.00000   0.00000   0.00760
 111        9PZ        -0.02809  -0.03207   0.00000   0.00000  -0.00181
 112       10PX         0.00000   0.00000  -0.00318   0.00276   0.00000
 113       10PY         0.00307   0.00136   0.00000   0.00000   0.00066
 114       10PZ         0.00452   0.00136   0.00000   0.00000  -0.00014
 115       11PX         0.00000   0.00000  -0.00055   0.00078   0.00000
 116       11PY         0.00034   0.00041   0.00000   0.00000   0.00030
 117       11PZ         0.00070   0.00052   0.00000   0.00000  -0.00020
 118       12D 0       -0.00044  -0.00029   0.00000   0.00000  -0.00008
 119       12D+1        0.00000   0.00000   0.00018  -0.00018   0.00000
 120       12D-1        0.00023   0.00015   0.00000   0.00000   0.00011
 121       12D+2       -0.00026  -0.00016   0.00000   0.00000   0.00007
 122       12D-2        0.00000   0.00000  -0.00032   0.00020   0.00000
 123       13D 0        0.00203   0.00108   0.00000   0.00000  -0.00009
 124       13D+1        0.00000   0.00000  -0.00075   0.00058   0.00000
 125       13D-1       -0.00076  -0.00096   0.00000   0.00000  -0.00048
 126       13D+2        0.00098   0.00073   0.00000   0.00000  -0.00016
 127       13D-2        0.00000   0.00000   0.00109  -0.00100   0.00000
 128       14D 0       -0.00004  -0.00090   0.00000   0.00000   0.00000
 129       14D+1        0.00000   0.00000   0.00061   0.00006   0.00000
 130       14D-1        0.00003   0.00031   0.00000   0.00000   0.00008
 131       14D+2        0.00004  -0.00059   0.00000   0.00000  -0.00016
 132       14D-2        0.00000   0.00000  -0.00046   0.00048   0.00000
 133       15F 0        0.00001   0.00000   0.00000   0.00000  -0.00004
 134       15F+1        0.00000   0.00000  -0.00007  -0.00005   0.00000
 135       15F-1        0.00001  -0.00002   0.00000   0.00000   0.00003
 136       15F+2       -0.00002   0.00002   0.00000   0.00000   0.00003
 137       15F-2        0.00000   0.00000   0.00001   0.00003   0.00000
 138       15F+3        0.00000   0.00000  -0.00001  -0.00003   0.00000
 139       15F-3        0.00003  -0.00004   0.00000   0.00000  -0.00005
 140       16F 0        0.00038  -0.00010   0.00000   0.00000  -0.00019
 141       16F+1        0.00000   0.00000   0.00013   0.00018   0.00000
 142       16F-1       -0.00092  -0.00050   0.00000   0.00000  -0.00017
 143       16F+2        0.00009  -0.00028   0.00000   0.00000  -0.00030
 144       16F-2        0.00000   0.00000   0.00033  -0.00033   0.00000
 145       16F+3        0.00000   0.00000   0.00030  -0.00022   0.00000
 146       16F-3       -0.00027  -0.00020   0.00000   0.00000   0.00021
 147 4   S  1S          0.00001   0.00084   0.00000   0.00000  -0.00080
 148        2S         -0.00002  -0.00291   0.00000   0.00000   0.00270
 149        3S          0.00001   0.00036   0.00000   0.00000  -0.00009
 150        4S          0.00000  -0.00004   0.00000   0.00000   0.00018
 151        5S         -0.00021   0.00746   0.00000   0.00000   0.00007
 152        6S         -0.00011   0.00344   0.00000   0.00000   0.00002
 153        7PX         0.00000   0.00000   0.00006   0.11544   0.00000
 154        7PY         0.08450   0.00113   0.00000   0.00000   0.94913
 155        7PZ         0.00208  -0.05755   0.00000   0.00000   0.00537
 156        8PX         0.00000   0.00000  -0.00001  -0.00356   0.00000
 157        8PY        -0.00489  -0.00012   0.00000   0.00000  -0.01860
 158        8PZ        -0.00005   0.00099   0.00000   0.00000  -0.00011
 159        9PX         0.00000   0.00000   0.00000   0.00667   0.00000
 160        9PY         0.00497   0.00007   0.00000   0.00000   0.05483
 161        9PZ         0.00012  -0.00330   0.00000   0.00000   0.00032
 162       10PX         0.00000   0.00000  -0.00002   0.00144   0.00000
 163       10PY        -0.00582  -0.00014   0.00000   0.00000  -0.00509
 164       10PZ         0.00004  -0.00127   0.00000   0.00000  -0.00007
 165       11PX         0.00000   0.00000   0.00000   0.00023   0.00000
 166       11PY        -0.00032  -0.00001   0.00000   0.00000  -0.00115
 167       11PZ         0.00000   0.00000   0.00000   0.00000   0.00000
 168       12D 0        0.00002  -0.00040   0.00000   0.00000   0.00002
 169       12D+1        0.00000   0.00000   0.00000   0.00000   0.00000
 170       12D-1        0.00243   0.00008   0.00000   0.00000   0.00270
 171       12D+2        0.00001  -0.00009   0.00000   0.00000   0.00000
 172       12D-2        0.00000   0.00000   0.00033   0.00000   0.00000
 173       13D 0        0.00000   0.00000   0.00000   0.00000   0.00000
 174       13D+1        0.00000   0.00000   0.00000  -0.00006   0.00000
 175       13D-1       -0.00005   0.00000   0.00000   0.00000  -0.00034
 176       13D+2        0.00000  -0.00009   0.00000   0.00000   0.00000
 177       13D-2        0.00000   0.00000  -0.00010   0.00000   0.00000
 178       14D 0        0.00000  -0.00005   0.00000   0.00000   0.00001
 179       14D+1        0.00000   0.00000   0.00000  -0.00141   0.00000
 180       14D-1        0.00149   0.00004   0.00000   0.00000  -0.00030
 181       14D+2       -0.00001   0.00037   0.00000   0.00000   0.00000
 182       14D-2        0.00000   0.00000   0.00061   0.00000   0.00000
 183       15F 0        0.00000   0.00008   0.00000   0.00000   0.00000
 184       15F+1        0.00000   0.00000   0.00000  -0.00008   0.00000
 185       15F-1       -0.00022  -0.00001   0.00000   0.00000  -0.00018
 186       15F+2       -0.00001   0.00013   0.00000   0.00000   0.00000
 187       15F-2        0.00000   0.00000   0.00006   0.00000   0.00000
 188       15F+3        0.00000   0.00000   0.00000   0.00001   0.00000
 189       15F-3       -0.00003   0.00000   0.00000   0.00000   0.00009
 190       16F 0       -0.00001   0.00021   0.00000   0.00000   0.00000
 191       16F+1        0.00000   0.00000   0.00000   0.00024   0.00000
 192       16F-1       -0.00072  -0.00002   0.00000   0.00000  -0.00089
 193       16F+2        0.00000  -0.00005   0.00000   0.00000   0.00000
 194       16F-2        0.00000   0.00000  -0.00052   0.00000   0.00000
 195       16F+3        0.00000   0.00000   0.00000  -0.00017   0.00000
 196       16F-3       -0.00017   0.00000   0.00000   0.00000  -0.00018
                           6         7         8         9        10
     Eigenvalues --     2.00003   2.00003   2.00002   2.00001   2.00001
   1 1   C  1S         -0.16270   0.01903  -0.15436   0.60496   0.03710
   2        2S          0.00335  -0.00039   0.00300  -0.01068  -0.00070
   3        3S         -0.00597   0.00070  -0.00605   0.02401   0.00129
   4        4S         -0.00882   0.00101  -0.00737   0.00631   0.00208
   5        5S         -0.00150   0.00016   0.00014   0.00366   0.00090
   6        6PX         0.00000   0.00000   0.00000   0.00000   0.00000
   7        6PY        -0.00012  -0.00089   0.00001   0.00003   0.00266
   8        6PZ        -0.00011   0.00002   0.00115  -0.00212   0.00046
   9        7PX         0.00000   0.00000   0.00000   0.00000   0.00000
  10        7PY        -0.00002  -0.00027   0.00001   0.00000  -0.00025
  11        7PZ        -0.00080   0.00010  -0.00061   0.00102   0.00031
  12        8PX         0.00000   0.00000   0.00000   0.00000   0.00000
  13        8PY         0.00041   0.00292  -0.00004  -0.00005  -0.00194
  14        8PZ         0.00133  -0.00020  -0.00721   0.00488  -0.00066
  15        9PX         0.00000   0.00000   0.00000   0.00000   0.00000
  16        9PY        -0.00007  -0.00060   0.00000   0.00001   0.00064
  17        9PZ        -0.00056   0.00007   0.00016   0.00098   0.00004
  18       10D 0       -0.00003   0.00000  -0.00010   0.00009   0.00001
  19       10D+1        0.00000   0.00000   0.00000   0.00000   0.00000
  20       10D-1       -0.00001  -0.00011   0.00000   0.00000   0.00000
  21       10D+2        0.00006  -0.00001   0.00002  -0.00015   0.00000
  22       10D-2        0.00000   0.00000   0.00000   0.00000   0.00000
  23       11D 0       -0.00047   0.00006  -0.00091   0.00036   0.00011
  24       11D+1        0.00000   0.00000   0.00000   0.00000   0.00000
  25       11D-1       -0.00016  -0.00118   0.00000   0.00003   0.00247
  26       11D+2        0.00082  -0.00010  -0.00031   0.00075  -0.00025
  27       11D-2        0.00000   0.00000   0.00000   0.00000   0.00000
  28       12D 0        0.00052  -0.00006  -0.00179   0.00224  -0.00043
  29       12D+1        0.00000   0.00000   0.00000   0.00000   0.00000
  30       12D-1       -0.00055  -0.00443   0.00004   0.00002   0.00470
  31       12D+2        0.00136  -0.00016  -0.00078   0.00023  -0.00056
  32       12D-2        0.00000   0.00000   0.00000   0.00000   0.00000
  33       13F 0       -0.00013   0.00002  -0.00001  -0.00004   0.00005
  34       13F+1        0.00000   0.00000   0.00000   0.00000   0.00000
  35       13F-1        0.00000  -0.00003   0.00000   0.00000  -0.00001
  36       13F+2       -0.00004   0.00001  -0.00006   0.00001  -0.00002
  37       13F-2        0.00000   0.00000   0.00000   0.00000   0.00000
  38       13F+3        0.00000   0.00000   0.00000   0.00000   0.00000
  39       13F-3        0.00000   0.00003   0.00000   0.00000  -0.00009
  40       14F 0        0.00014  -0.00001   0.00044  -0.00152   0.00006
  41       14F+1        0.00000   0.00000   0.00000   0.00000   0.00000
  42       14F-1       -0.00001   0.00000  -0.00002   0.00003   0.00131
  43       14F+2       -0.00016   0.00003   0.00056  -0.00105   0.00011
  44       14F-2        0.00000   0.00000   0.00000   0.00000   0.00000
  45       14F+3        0.00000   0.00000   0.00000   0.00000   0.00000
  46       14F-3       -0.00005  -0.00036   0.00000   0.00002   0.00081
  47 2   Cl 1S         -0.19605  -0.15170   0.01887  -0.04553  -0.12163
  48        2S          0.66144   0.51198  -0.06398   0.15589   0.41345
  49        3S         -0.01969  -0.01507   0.00169  -0.00201  -0.00671
  50        4S          0.05140   0.03978  -0.00491   0.01241   0.03447
  51        5S         -0.00137   0.00034  -0.00142   0.00020  -0.00928
  52        6S         -0.00061  -0.00068  -0.00009  -0.00010   0.00154
  53        7PX         0.00000   0.00000   0.00000   0.00000   0.00000
  54        7PY        -0.32799  -0.22617   0.06127   0.10739   0.54376
  55        7PZ        -0.19750  -0.19234   0.00451   0.08542   0.38186
  56        8PX         0.00000   0.00000   0.00000   0.00000   0.00000
  57        8PY         0.00600   0.00430  -0.00156  -0.00091  -0.00935
  58        8PZ         0.00358   0.00371  -0.00042  -0.00063  -0.00696
  59        9PX         0.00000   0.00000   0.00000   0.00000   0.00000
  60        9PY        -0.01870  -0.01290   0.00346   0.00648   0.03337
  61        9PZ        -0.01127  -0.01094   0.00026   0.00516   0.02356
  62       10PX         0.00000   0.00000   0.00000   0.00000   0.00000
  63       10PY         0.00209   0.00161  -0.00059  -0.00007  -0.00062
  64       10PZ         0.00160   0.00066  -0.00052   0.00084  -0.00072
  65       11PX         0.00000   0.00000   0.00000   0.00000   0.00000
  66       11PY        -0.00003   0.00013  -0.00003  -0.00003   0.00012
  67       11PZ         0.00008  -0.00010  -0.00013  -0.00009   0.00022
  68       12D 0       -0.00005  -0.00001   0.00002  -0.00001   0.00000
  69       12D+1        0.00000   0.00000   0.00000   0.00000   0.00000
  70       12D-1        0.00020   0.00015   0.00002   0.00009   0.00046
  71       12D+2       -0.00009  -0.00006   0.00003  -0.00014  -0.00036
  72       12D-2        0.00000   0.00000   0.00000   0.00000   0.00000
  73       13D 0       -0.00004   0.00023   0.00016  -0.00015  -0.00044
  74       13D+1        0.00000   0.00000   0.00000   0.00000   0.00000
  75       13D-1        0.00046   0.00042  -0.00011   0.00005  -0.00244
  76       13D+2       -0.00053  -0.00027   0.00015   0.00024   0.00146
  77       13D-2        0.00000   0.00000   0.00000   0.00000   0.00000
  78       14D 0       -0.00003  -0.00024   0.00018  -0.00004   0.00005
  79       14D+1        0.00000   0.00000   0.00000   0.00000   0.00000
  80       14D-1        0.00032   0.00014   0.00003   0.00025   0.00019
  81       14D+2       -0.00018   0.00023  -0.00005   0.00008  -0.00084
  82       14D-2        0.00000   0.00000   0.00000   0.00000   0.00000
  83       15F 0        0.00001   0.00004   0.00001   0.00000  -0.00004
  84       15F+1        0.00000   0.00000   0.00000   0.00000   0.00000
  85       15F-1        0.00001   0.00003   0.00001   0.00000  -0.00009
  86       15F+2       -0.00001  -0.00001   0.00000   0.00000   0.00005
  87       15F-2        0.00000   0.00000   0.00000   0.00000   0.00000
  88       15F+3        0.00000   0.00000   0.00000   0.00000   0.00000
  89       15F-3       -0.00003  -0.00003   0.00002   0.00000   0.00005
  90       16F 0       -0.00009  -0.00011   0.00010  -0.00026   0.00035
  91       16F+1        0.00000   0.00000   0.00000   0.00000   0.00000
  92       16F-1        0.00002   0.00007   0.00003  -0.00001  -0.00039
  93       16F+2       -0.00015  -0.00011   0.00006  -0.00006   0.00057
  94       16F-2        0.00000   0.00000   0.00000   0.00000   0.00000
  95       16F+3        0.00000   0.00000   0.00000   0.00000   0.00000
  96       16F-3       -0.00011   0.00002  -0.00004   0.00015   0.00015
  97 3   Cl 1S         -0.15248   0.19655   0.01726  -0.04224   0.08574
  98        2S          0.51436  -0.66329  -0.05853   0.14468  -0.29121
  99        3S         -0.01532   0.01953   0.00153  -0.00183   0.00475
 100        4S          0.03999  -0.05155  -0.00448   0.01148  -0.02433
 101        5S         -0.00148   0.00007  -0.00138   0.00040   0.00637
 102        6S         -0.00043   0.00083  -0.00006  -0.00015  -0.00177
 103        7PX         0.00000   0.00000   0.00000   0.00000   0.00000
 104        7PY         0.25770  -0.29717  -0.05997  -0.09485   0.38063
 105        7PZ        -0.14326   0.23582   0.00311   0.07716  -0.29744
 106        8PX         0.00000   0.00000   0.00000   0.00000   0.00000
 107        8PY        -0.00466   0.00558   0.00153   0.00069  -0.00652
 108        8PZ         0.00252  -0.00448  -0.00042  -0.00045   0.00541
 109        9PX         0.00000   0.00000   0.00000   0.00000   0.00000
 110        9PY         0.01469  -0.01695  -0.00339  -0.00571   0.02333
 111        9PZ        -0.00819   0.01342   0.00019   0.00464  -0.01836
 112       10PX         0.00000   0.00000   0.00000   0.00000   0.00000
 113       10PY        -0.00159   0.00206   0.00056   0.00006  -0.00028
 114       10PZ         0.00136  -0.00103  -0.00053   0.00090   0.00004
 115       11PX         0.00000   0.00000   0.00000   0.00000   0.00000
 116       11PY         0.00006   0.00012   0.00002   0.00004   0.00009
 117       11PZ         0.00010   0.00008  -0.00013  -0.00010  -0.00024
 118       12D 0       -0.00004   0.00002   0.00002  -0.00001   0.00000
 119       12D+1        0.00000   0.00000   0.00000   0.00000   0.00000
 120       12D-1       -0.00016   0.00020  -0.00002  -0.00007   0.00033
 121       12D+2       -0.00007   0.00008   0.00002  -0.00013   0.00027
 122       12D-2        0.00000   0.00000   0.00000   0.00000   0.00000
 123       13D 0       -0.00010  -0.00022   0.00015  -0.00012   0.00060
 124       13D+1        0.00000   0.00000   0.00000   0.00000   0.00000
 125       13D-1       -0.00033   0.00051   0.00011  -0.00013  -0.00188
 126       13D+2       -0.00043   0.00037   0.00015   0.00022  -0.00090
 127       13D-2        0.00000   0.00000   0.00000   0.00000   0.00000
 128       14D 0        0.00004   0.00024   0.00017  -0.00002  -0.00006
 129       14D+1        0.00000   0.00000   0.00000   0.00000   0.00000
 130       14D-1       -0.00027   0.00021  -0.00003  -0.00025   0.00014
 131       14D+2       -0.00023  -0.00018  -0.00005   0.00011   0.00074
 132       14D-2        0.00000   0.00000   0.00000   0.00000   0.00000
 133       15F 0        0.00000  -0.00004   0.00001   0.00000   0.00004
 134       15F+1        0.00000   0.00000   0.00000   0.00000   0.00000
 135       15F-1        0.00000   0.00003  -0.00001   0.00000  -0.00010
 136       15F+2       -0.00001   0.00001   0.00000  -0.00001  -0.00004
 137       15F-2        0.00000   0.00000   0.00000   0.00000   0.00000
 138       15F+3        0.00000   0.00000   0.00000   0.00000   0.00000
 139       15F-3        0.00003  -0.00003  -0.00002   0.00000   0.00001
 140       16F 0       -0.00005   0.00012   0.00010  -0.00026  -0.00025
 141       16F+1        0.00000   0.00000   0.00000   0.00000   0.00000
 142       16F-1       -0.00001   0.00008  -0.00003  -0.00002  -0.00040
 143       16F+2       -0.00012   0.00014   0.00006  -0.00007  -0.00045
 144       16F-2        0.00000   0.00000   0.00000   0.00000   0.00000
 145       16F+3        0.00000   0.00000   0.00000   0.00000   0.00000
 146       16F-3        0.00011   0.00000   0.00004  -0.00015   0.00008
 147 4   S  1S         -0.02034   0.00155  -0.21765  -0.15736   0.01970
 148        2S          0.06932  -0.00526   0.74394   0.54349  -0.06798
 149        3S         -0.00204   0.00015  -0.02069  -0.00817   0.00110
 150        4S          0.00449  -0.00034   0.04987   0.03907  -0.00488
 151        5S          0.00162  -0.00017   0.00653  -0.01189   0.00042
 152        6S          0.00207  -0.00025  -0.00078  -0.00360  -0.00091
 153        7PX         0.00000   0.00000   0.00000   0.00000   0.00000
 154        7PY         0.02267   0.18762  -0.00635   0.00056  -0.09690
 155        7PZ         0.05333  -0.00300   0.61591  -0.47490   0.08397
 156        8PX         0.00000   0.00000   0.00000   0.00000   0.00000
 157        8PY        -0.00036  -0.00301   0.00012  -0.00003  -0.00023
 158        8PZ        -0.00158   0.00013  -0.01164   0.00824  -0.00103
 159        9PX         0.00000   0.00000   0.00000   0.00000   0.00000
 160        9PY         0.00133   0.01098  -0.00038   0.00004  -0.00587
 161        9PZ         0.00344  -0.00021   0.03790  -0.03109   0.00540
 162       10PX         0.00000   0.00000   0.00000   0.00000   0.00000
 163       10PY         0.00023   0.00183   0.00001  -0.00002  -0.00350
 164       10PZ        -0.00229   0.00024  -0.00664   0.00512   0.00047
 165       11PX         0.00000   0.00000   0.00000   0.00000   0.00000
 166       11PY         0.00002   0.00020   0.00000   0.00000  -0.00025
 167       11PZ        -0.00022   0.00002   0.00012   0.00023   0.00016
 168       12D 0        0.00083  -0.00009   0.00212  -0.00265   0.00011
 169       12D+1        0.00000   0.00000   0.00000   0.00000   0.00000
 170       12D-1        0.00002   0.00018  -0.00002   0.00002   0.00077
 171       12D+2       -0.00005   0.00000  -0.00044   0.00020   0.00003
 172       12D-2        0.00000   0.00000   0.00000   0.00000   0.00000
 173       13D 0        0.00007  -0.00001   0.00014   0.00022  -0.00006
 174       13D+1        0.00000   0.00000   0.00000   0.00000   0.00000
 175       13D-1        0.00000   0.00002   0.00000   0.00000  -0.00007
 176       13D+2        0.00004   0.00000   0.00030   0.00016  -0.00003
 177       13D-2        0.00000   0.00000   0.00000   0.00000   0.00000
 178       14D 0        0.00055  -0.00006   0.00104  -0.00068  -0.00017
 179       14D+1        0.00000   0.00000   0.00000   0.00000   0.00000
 180       14D-1       -0.00009  -0.00074   0.00001   0.00000   0.00091
 181       14D+2       -0.00031   0.00004   0.00040   0.00000   0.00014
 182       14D-2        0.00000   0.00000   0.00000   0.00000   0.00000
 183       15F 0       -0.00014   0.00002  -0.00016   0.00025   0.00003
 184       15F+1        0.00000   0.00000   0.00000   0.00000   0.00000
 185       15F-1        0.00000  -0.00001   0.00000   0.00000  -0.00005
 186       15F+2        0.00000   0.00000   0.00012  -0.00016   0.00001
 187       15F-2        0.00000   0.00000   0.00000   0.00000   0.00000
 188       15F+3        0.00000   0.00000   0.00000   0.00000   0.00000
 189       15F-3        0.00000   0.00003   0.00000   0.00000  -0.00005
 190       16F 0       -0.00014   0.00002  -0.00046   0.00048  -0.00006
 191       16F+1        0.00000   0.00000   0.00000   0.00000   0.00000
 192       16F-1        0.00000  -0.00003   0.00001  -0.00001  -0.00030
 193       16F+2        0.00012  -0.00001  -0.00008  -0.00012  -0.00006
 194       16F-2        0.00000   0.00000   0.00000   0.00000   0.00000
 195       16F+3        0.00000   0.00000   0.00000   0.00000   0.00000
 196       16F-3        0.00000   0.00000   0.00000   0.00000  -0.00003
                          11        12        13        14        15
     Eigenvalues --     2.00001   2.00001   2.00000   2.00000   2.00000
   1 1   C  1S          0.22976   0.00000   0.70105   0.00182   0.00170
   2        2S         -0.00428   0.00000  -0.00704  -0.00003  -0.00006
   3        3S          0.00816   0.00000   0.03015   0.00011   0.00008
   4        4S          0.01123   0.00000  -0.02258  -0.00042  -0.00015
   5        5S          0.00481   0.00000  -0.00551  -0.00020  -0.00015
   6        6PX         0.00000  -0.00183   0.00000   0.00000   0.00000
   7        6PY        -0.00053   0.00000   0.00000   0.00000   0.00000
   8        6PZ         0.00212   0.00000  -0.00126  -0.00001   0.00000
   9        7PX         0.00000  -0.00140   0.00000   0.00000   0.00000
  10        7PY         0.00005   0.00000   0.00001   0.00000   0.00000
  11        7PZ         0.00164   0.00000   0.00253   0.00000  -0.00008
  12        8PX         0.00000   0.00074   0.00000   0.00000   0.00000
  13        8PY         0.00033   0.00000   0.00002   0.00000   0.00000
  14        8PZ        -0.00297   0.00000   0.00245  -0.00007  -0.00001
  15        9PX         0.00000  -0.00103   0.00000   0.00000   0.00000
  16        9PY        -0.00014   0.00000   0.00000   0.00000   0.00000
  17        9PZ         0.00029   0.00000   0.00052  -0.00003  -0.00005
  18       10D 0        0.00006   0.00000   0.00030   0.00000   0.00000
  19       10D+1        0.00000  -0.00018   0.00000   0.00000   0.00000
  20       10D-1        0.00000   0.00000   0.00000   0.00000   0.00000
  21       10D+2       -0.00003   0.00000  -0.00022   0.00000   0.00000
  22       10D-2        0.00000   0.00000   0.00000   0.00000   0.00000
  23       11D 0        0.00072   0.00000  -0.00028  -0.00004  -0.00005
  24       11D+1        0.00000   0.00118   0.00000   0.00000   0.00000
  25       11D-1       -0.00052   0.00000   0.00002   0.00000   0.00000
  26       11D+2       -0.00122   0.00000   0.00313   0.00006  -0.00001
  27       11D-2        0.00000   0.00000   0.00000   0.00000   0.00000
  28       12D 0       -0.00183   0.00000  -0.00121  -0.00006  -0.00007
  29       12D+1        0.00000  -0.00102   0.00000   0.00000   0.00000
  30       12D-1       -0.00098   0.00000   0.00003   0.00000   0.00000
  31       12D+2       -0.00269   0.00000   0.00172   0.00003  -0.00001
  32       12D-2        0.00000  -0.00001   0.00000   0.00000   0.00000
  33       13F 0        0.00026   0.00000   0.00028   0.00000   0.00000
  34       13F+1        0.00000  -0.00018   0.00000   0.00000   0.00000
  35       13F-1        0.00000   0.00000   0.00000   0.00000   0.00000
  36       13F+2       -0.00008   0.00000  -0.00004  -0.00001   0.00000
  37       13F-2        0.00000   0.00000   0.00000   0.00000   0.00000
  38       13F+3        0.00000   0.00007   0.00000   0.00000   0.00000
  39       13F-3        0.00001   0.00000   0.00000   0.00000   0.00000
  40       14F 0        0.00028   0.00000  -0.00113  -0.00003   0.00001
  41       14F+1        0.00000   0.00118   0.00000   0.00000   0.00000
  42       14F-1       -0.00030   0.00000  -0.00002   0.00000   0.00000
  43       14F+2        0.00058   0.00000  -0.00138  -0.00003   0.00001
  44       14F-2        0.00000   0.00000   0.00000   0.00000   0.00000
  45       14F+3        0.00000  -0.00015   0.00000   0.00000   0.00000
  46       14F-3       -0.00017   0.00000   0.00000   0.00000   0.00000
  47 2   Cl 1S         -0.06932   0.00000   0.03004   0.63310  -0.24735
  48        2S          0.23626   0.00000  -0.10747   0.00595  -0.00274
  49        3S         -0.00369   0.00000   0.00060   0.00009  -0.00006
  50        4S          0.01955   0.00000  -0.00970   0.00011  -0.00007
  51        5S         -0.00566   0.00000   0.00907   0.00007   0.00005
  52        6S         -0.00096   0.00000   0.00342   0.00006   0.00006
  53        7PX         0.00000   0.08146   0.00000   0.00000   0.00000
  54        7PY         0.31707   0.00000  -0.27873  -0.00161  -0.00039
  55        7PZ         0.15503   0.00000  -0.18445  -0.00100  -0.00038
  56        8PX         0.00000  -0.00044   0.00000   0.00000   0.00000
  57        8PY        -0.00541   0.00000   0.00481   0.00008  -0.00002
  58        8PZ        -0.00275   0.00000   0.00342   0.00006  -0.00001
  59        9PX         0.00000   0.00476   0.00000   0.00000   0.00000
  60        9PY         0.01953   0.00000  -0.01802  -0.00013  -0.00002
  61        9PZ         0.00954   0.00000  -0.01197  -0.00009  -0.00002
  62       10PX         0.00000  -0.00069   0.00000   0.00000   0.00000
  63       10PY        -0.00084   0.00000   0.00355   0.00003   0.00006
  64       10PZ        -0.00152   0.00000   0.00243   0.00001   0.00002
  65       11PX         0.00000   0.00034   0.00000   0.00000   0.00000
  66       11PY         0.00002   0.00000   0.00027   0.00001   0.00001
  67       11PZ        -0.00009   0.00000   0.00010   0.00001   0.00002
  68       12D 0        0.00001   0.00000   0.00001   0.00000   0.00000
  69       12D+1        0.00000  -0.00007   0.00000   0.00000   0.00000
  70       12D-1        0.00025   0.00000  -0.00031   0.00000   0.00000
  71       12D+2       -0.00017   0.00000   0.00021   0.00000   0.00000
  72       12D-2        0.00000  -0.00005   0.00000   0.00000   0.00000
  73       13D 0        0.00046   0.00000   0.00005   0.00000   0.00000
  74       13D+1        0.00000  -0.00005   0.00000   0.00000   0.00000
  75       13D-1       -0.00095   0.00000   0.00193   0.00003  -0.00001
  76       13D+2        0.00114   0.00000  -0.00120  -0.00002   0.00000
  77       13D-2        0.00000  -0.00022   0.00000   0.00000   0.00000
  78       14D 0        0.00000   0.00000   0.00012   0.00000   0.00000
  79       14D+1        0.00000  -0.00023   0.00000   0.00000   0.00000
  80       14D-1        0.00011   0.00000   0.00067  -0.00001   0.00001
  81       14D+2       -0.00007   0.00000  -0.00057   0.00000  -0.00002
  82       14D-2        0.00000  -0.00055   0.00000   0.00000   0.00000
  83       15F 0        0.00002   0.00000   0.00003   0.00000   0.00000
  84       15F+1        0.00000   0.00000   0.00000   0.00000   0.00000
  85       15F-1        0.00005   0.00000  -0.00001   0.00000   0.00000
  86       15F+2        0.00002   0.00000   0.00000   0.00000   0.00000
  87       15F-2        0.00000  -0.00001   0.00000   0.00000   0.00000
  88       15F+3        0.00000  -0.00003   0.00000   0.00000   0.00000
  89       15F-3        0.00009   0.00000  -0.00004   0.00000   0.00000
  90       16F 0        0.00018   0.00000  -0.00027   0.00000   0.00000
  91       16F+1        0.00000   0.00000   0.00000   0.00000   0.00000
  92       16F-1        0.00009   0.00000   0.00031   0.00000   0.00000
  93       16F+2        0.00020   0.00000  -0.00045   0.00000   0.00000
  94       16F-2        0.00000   0.00000   0.00000   0.00000   0.00000
  95       16F+3        0.00000   0.00020   0.00000   0.00000   0.00000
  96       16F-3        0.00015   0.00000  -0.00018   0.00000   0.00000
  97 3   Cl 1S         -0.11031   0.00000   0.02992   0.67546  -0.27648
  98        2S          0.37552   0.00000  -0.10701   0.00639  -0.00303
  99        3S         -0.00593   0.00000   0.00058   0.00010  -0.00006
 100        4S          0.03118   0.00000  -0.00966   0.00012  -0.00008
 101        5S         -0.00877   0.00000   0.00908   0.00007   0.00005
 102        6S         -0.00027   0.00000   0.00344   0.00005   0.00006
 103        7PX         0.00000   0.08104   0.00000   0.00000   0.00000
 104        7PY        -0.50259   0.00000   0.27825   0.00163   0.00037
 105        7PZ         0.29545   0.00000  -0.18690  -0.00104  -0.00037
 106        8PX         0.00000  -0.00044   0.00000   0.00000   0.00000
 107        8PY         0.00856   0.00000  -0.00480  -0.00009   0.00002
 108        8PZ        -0.00531   0.00000   0.00344   0.00006  -0.00002
 109        9PX         0.00000   0.00474   0.00000   0.00000   0.00000
 110        9PY        -0.03091   0.00000   0.01799   0.00013   0.00001
 111        9PZ         0.01821   0.00000  -0.01213  -0.00009  -0.00002
 112       10PX         0.00000  -0.00069   0.00000   0.00000   0.00000
 113       10PY         0.00099   0.00000  -0.00356  -0.00002  -0.00006
 114       10PZ        -0.00168   0.00000   0.00243   0.00001   0.00002
 115       11PX         0.00000   0.00034   0.00000   0.00000   0.00000
 116       11PY        -0.00007   0.00000  -0.00028   0.00000  -0.00001
 117       11PZ         0.00000   0.00000   0.00010   0.00001   0.00002
 118       12D 0        0.00001   0.00000   0.00001   0.00000   0.00000
 119       12D+1        0.00000  -0.00006   0.00000   0.00000   0.00000
 120       12D-1       -0.00042   0.00000   0.00032   0.00000   0.00000
 121       12D+2       -0.00029   0.00000   0.00021   0.00000   0.00000
 122       12D-2        0.00000   0.00005   0.00000   0.00000   0.00000
 123       13D 0        0.00021   0.00000   0.00005   0.00000   0.00000
 124       13D+1        0.00000  -0.00006   0.00000   0.00000   0.00000
 125       13D-1        0.00183   0.00000  -0.00194  -0.00003   0.00001
 126       13D+2        0.00160   0.00000  -0.00121  -0.00002   0.00000
 127       13D-2        0.00000   0.00022   0.00000   0.00000   0.00000
 128       14D 0        0.00002   0.00000   0.00012   0.00000   0.00000
 129       14D+1        0.00000  -0.00023   0.00000   0.00000   0.00000
 130       14D-1       -0.00018   0.00000  -0.00067   0.00001  -0.00001
 131       14D+2       -0.00040   0.00000  -0.00057   0.00000  -0.00002
 132       14D-2        0.00000   0.00055   0.00000   0.00000   0.00000
 133       15F 0        0.00000   0.00000   0.00002   0.00000   0.00000
 134       15F+1        0.00000   0.00000   0.00000   0.00000   0.00000
 135       15F-1       -0.00001   0.00000   0.00001   0.00000   0.00000
 136       15F+2        0.00004   0.00000  -0.00001   0.00000   0.00000
 137       15F-2        0.00000   0.00001   0.00000   0.00000   0.00000
 138       15F+3        0.00000  -0.00003   0.00000   0.00000   0.00000
 139       15F-3       -0.00010   0.00000   0.00004   0.00000   0.00000
 140       16F 0        0.00029   0.00000  -0.00027   0.00000   0.00000
 141       16F+1        0.00000   0.00001   0.00000   0.00000   0.00000
 142       16F-1        0.00008   0.00000  -0.00032   0.00000   0.00000
 143       16F+2        0.00041   0.00000  -0.00045   0.00000   0.00000
 144       16F-2        0.00000   0.00000   0.00000   0.00000   0.00000
 145       16F+3        0.00000   0.00020   0.00000   0.00000   0.00000
 146       16F-3       -0.00019   0.00000   0.00018   0.00000   0.00000
 147 4   S  1S          0.08788   0.00000   0.04977   0.37083   0.92487
 148        2S         -0.30313   0.00000  -0.18428   0.00440   0.01216
 149        3S          0.00486   0.00000   0.00153   0.00013   0.00030
 150        4S         -0.02176   0.00000  -0.01366  -0.00004  -0.00003
 151        5S          0.00095   0.00000   0.00623   0.00018   0.00000
 152        6S         -0.00483   0.00000   0.00114   0.00013   0.00007
 153        7PX         0.00000   0.96519   0.00000   0.00000   0.00000
 154        7PY         0.01844   0.00000  -0.00148  -0.00001   0.00000
 155        7PZ         0.38584   0.00000   0.42372   0.00202   0.00227
 156        8PX         0.00000  -0.01126   0.00000   0.00000   0.00000
 157        8PY         0.00009   0.00000   0.00002   0.00000   0.00000
 158        8PZ        -0.00445   0.00000  -0.00458  -0.00011  -0.00016
 159        9PX         0.00000   0.06176   0.00000   0.00000   0.00000
 160        9PY         0.00111   0.00000  -0.00010   0.00000   0.00000
 161        9PZ         0.02477   0.00000   0.02813   0.00016   0.00021
 162       10PX         0.00000   0.00102   0.00000   0.00000   0.00000
 163       10PY         0.00075   0.00000  -0.00002   0.00000   0.00000
 164       10PZ         0.00284   0.00000  -0.00187  -0.00009   0.00004
 165       11PX         0.00000  -0.00028   0.00000   0.00000   0.00000
 166       11PY         0.00005   0.00000   0.00000   0.00000   0.00000
 167       11PZ         0.00079   0.00000  -0.00015  -0.00001   0.00001
 168       12D 0        0.00033   0.00000   0.00112   0.00004   0.00005
 169       12D+1        0.00000   0.00217   0.00000   0.00000   0.00000
 170       12D-1       -0.00018   0.00000  -0.00001   0.00000   0.00000
 171       12D+2        0.00012   0.00000   0.00022   0.00000  -0.00001
 172       12D-2        0.00000   0.00000   0.00000   0.00000   0.00000
 173       13D 0       -0.00030   0.00000  -0.00062   0.00000   0.00001
 174       13D+1        0.00000  -0.00018   0.00000   0.00000   0.00000
 175       13D-1        0.00001   0.00000   0.00000   0.00000   0.00000
 176       13D+2       -0.00012   0.00000  -0.00008   0.00000   0.00001
 177       13D-2        0.00000   0.00000   0.00000   0.00000   0.00000
 178       14D 0       -0.00093   0.00000   0.00039   0.00000  -0.00004
 179       14D+1        0.00000  -0.00047   0.00000   0.00000   0.00000
 180       14D-1       -0.00020   0.00000   0.00001   0.00000   0.00000
 181       14D+2        0.00068   0.00000  -0.00014   0.00000   0.00001
 182       14D-2        0.00000   0.00000   0.00000   0.00000   0.00000
 183       15F 0        0.00019   0.00000   0.00039  -0.00001  -0.00002
 184       15F+1        0.00000  -0.00026   0.00000   0.00000   0.00000
 185       15F-1        0.00002   0.00000   0.00000   0.00000   0.00000
 186       15F+2        0.00008   0.00000   0.00009   0.00000   0.00000
 187       15F-2        0.00000   0.00000   0.00000   0.00000   0.00000
 188       15F+3        0.00000   0.00013   0.00000   0.00000   0.00000
 189       15F-3        0.00001   0.00000   0.00000   0.00000   0.00000
 190       16F 0       -0.00023   0.00000  -0.00036   0.00000   0.00000
 191       16F+1        0.00000  -0.00048   0.00000   0.00000   0.00000
 192       16F-1        0.00007   0.00000   0.00000   0.00000   0.00000
 193       16F+2       -0.00032   0.00000  -0.00019   0.00000   0.00000
 194       16F-2        0.00000   0.00000   0.00000   0.00000   0.00000
 195       16F+3        0.00000  -0.00012   0.00000   0.00000   0.00000
 196       16F-3        0.00001   0.00000   0.00000   0.00000   0.00000
                          16        17        18        19        20
     Eigenvalues --     2.00000   1.97700   1.97421   1.97000   1.95130
   1 1   C  1S          0.00003  -0.08602  -0.00039  -0.06945  -0.04191
   2        2S          0.00000   0.22141   0.00103   0.18643   0.11663
   3        3S          0.00000   0.04827   0.00020   0.04456   0.02801
   4        4S         -0.00001   0.04461   0.00057   0.06314   0.05911
   5        5S          0.00000   0.01154   0.00020   0.01620   0.00169
   6        6PX         0.00000   0.00000   0.00000   0.00000   0.00000
   7        6PY        -0.00001  -0.00089   0.06139   0.00021  -0.00047
   8        6PZ         0.00000  -0.01120  -0.00007   0.10400  -0.05593
   9        7PX         0.00000   0.00000   0.00000   0.00000   0.00000
  10        7PY         0.00004  -0.00118   0.08429   0.00018  -0.00067
  11        7PZ         0.00000  -0.02156  -0.00022   0.12991  -0.07821
  12        8PX         0.00000   0.00000   0.00000   0.00000   0.00000
  13        8PY        -0.00005  -0.00013   0.00393   0.00005  -0.00027
  14        8PZ         0.00000   0.00789   0.00014   0.00461  -0.04595
  15        9PX         0.00000   0.00000   0.00000   0.00000   0.00000
  16        9PY        -0.00001  -0.00009   0.00832   0.00003   0.00001
  17        9PZ         0.00000  -0.00391  -0.00005   0.00845  -0.02171
  18       10D 0        0.00000   0.00430   0.00007   0.00969   0.01023
  19       10D+1        0.00000   0.00000   0.00000   0.00000   0.00000
  20       10D-1        0.00000   0.00012  -0.00855  -0.00003   0.00010
  21       10D+2        0.00000  -0.00716   0.00001   0.00122   0.00357
  22       10D-2        0.00000   0.00000   0.00000   0.00000   0.00000
  23       11D 0        0.00000   0.00598   0.00014   0.01112   0.03012
  24       11D+1        0.00000   0.00000   0.00000   0.00000   0.00000
  25       11D-1       -0.00006   0.00020  -0.01777  -0.00005   0.00023
  26       11D+2        0.00000  -0.01115  -0.00002   0.00302   0.01339
  27       11D-2        0.00000   0.00000   0.00000   0.00000   0.00000
  28       12D 0        0.00000   0.00377   0.00002   0.00385  -0.04141
  29       12D+1        0.00000   0.00000   0.00000   0.00000   0.00000
  30       12D-1       -0.00002  -0.00016   0.01222   0.00006  -0.00038
  31       12D+2        0.00000   0.00768  -0.00001   0.00469  -0.02658
  32       12D-2        0.00000   0.00000   0.00000   0.00000   0.00000
  33       13F 0        0.00000   0.00403   0.00001   0.00469  -0.00104
  34       13F+1        0.00000   0.00000   0.00000   0.00000   0.00000
  35       13F-1        0.00000   0.00000   0.00188   0.00002  -0.00004
  36       13F+2        0.00000   0.00464   0.00002  -0.00023   0.00175
  37       13F-2        0.00000   0.00000   0.00000   0.00000   0.00000
  38       13F+3        0.00000   0.00000   0.00000   0.00000   0.00000
  39       13F-3        0.00000   0.00005  -0.00244   0.00001   0.00001
  40       14F 0        0.00000   0.00134   0.00002  -0.00093  -0.00281
  41       14F+1        0.00000   0.00000   0.00000   0.00000   0.00000
  42       14F-1       -0.00001   0.00000   0.00056  -0.00009   0.00015
  43       14F+2        0.00000   0.00181   0.00003  -0.00008   0.00153
  44       14F-2        0.00000   0.00000   0.00000   0.00000   0.00000
  45       14F+3        0.00000   0.00000   0.00000   0.00000   0.00000
  46       14F-3       -0.00001   0.00001  -0.00069  -0.00002   0.00002
  47 2   Cl 1S          0.72972   0.04573  -0.05268  -0.02149  -0.01182
  48        2S          0.00736  -0.17091   0.19703   0.08038   0.04489
  49        3S          0.00012   0.36554  -0.42227  -0.17347  -0.09789
  50        4S          0.00016   0.04430  -0.05304  -0.02269  -0.01536
  51        5S         -0.00004   0.22016  -0.26209  -0.11415  -0.10268
  52        6S         -0.00005  -0.00740   0.01019   0.00222  -0.02630
  53        7PX         0.00000   0.00000   0.00000   0.00000   0.00000
  54        7PY        -0.00056  -0.01685   0.00004   0.00078  -0.11181
  55        7PZ        -0.00045  -0.00752   0.00758  -0.01917   0.10122
  56        8PX         0.00000   0.00000   0.00000   0.00000   0.00000
  57        8PY         0.00007   0.02483   0.01605  -0.00153   0.25448
  58        8PZ         0.00005   0.00576  -0.01033   0.04889  -0.24309
  59        9PX         0.00000   0.00000   0.00000   0.00000   0.00000
  60        9PY        -0.00007   0.01095   0.00725   0.00002   0.12161
  61        9PZ        -0.00005   0.00302  -0.00439   0.02294  -0.11632
  62       10PX         0.00000   0.00000   0.00000   0.00000   0.00000
  63       10PY        -0.00006  -0.00118   0.01538  -0.00724   0.13055
  64       10PZ        -0.00003  -0.00337   0.00342   0.02654  -0.17656
  65       11PX         0.00000   0.00000   0.00000   0.00000   0.00000
  66       11PY        -0.00001  -0.00408   0.00284   0.00036   0.00038
  67       11PZ         0.00000  -0.00168   0.00317  -0.00019  -0.00589
  68       12D 0        0.00000  -0.00062  -0.00076   0.00281  -0.00696
  69       12D+1        0.00000   0.00000   0.00000   0.00000   0.00000
  70       12D-1        0.00001   0.00746  -0.00543   0.00274   0.00305
  71       12D+2        0.00000  -0.00617   0.00275   0.00057  -0.01047
  72       12D-2        0.00000   0.00000   0.00000   0.00000   0.00000
  73       13D 0        0.00000  -0.00128  -0.00178   0.00470  -0.00851
  74       13D+1        0.00000   0.00000   0.00000   0.00000   0.00000
  75       13D-1        0.00002   0.00711  -0.00466   0.00436   0.00209
  76       13D+2       -0.00001  -0.00636   0.00174   0.00151  -0.01233
  77       13D-2        0.00000   0.00000   0.00000   0.00000   0.00000
  78       14D 0        0.00000   0.00097   0.00103   0.00296  -0.00865
  79       14D+1        0.00000   0.00000   0.00000   0.00000   0.00000
  80       14D-1       -0.00002  -0.00206   0.00318   0.00206  -0.00375
  81       14D+2        0.00002   0.00189  -0.00261   0.00076  -0.00675
  82       14D-2        0.00000   0.00000   0.00000   0.00000   0.00000
  83       15F 0        0.00000  -0.00137   0.00092   0.00056  -0.00229
  84       15F+1        0.00000   0.00000   0.00000   0.00000   0.00000
  85       15F-1        0.00000   0.00069  -0.00152   0.00137  -0.00389
  86       15F+2        0.00000  -0.00259   0.00216  -0.00017  -0.00174
  87       15F-2        0.00000   0.00000   0.00000   0.00000   0.00000
  88       15F+3        0.00000   0.00000   0.00000   0.00000   0.00000
  89       15F-3        0.00000  -0.00193   0.00084   0.00065  -0.00351
  90       16F 0        0.00000  -0.00013  -0.00036  -0.00002  -0.00035
  91       16F+1        0.00000   0.00000   0.00000   0.00000   0.00000
  92       16F-1        0.00000  -0.00020   0.00004   0.00148  -0.00208
  93       16F+2        0.00000   0.00014  -0.00070  -0.00029  -0.00054
  94       16F-2        0.00000   0.00000   0.00000   0.00000   0.00000
  95       16F+3        0.00000   0.00000   0.00000   0.00000   0.00000
  96       16F-3        0.00000   0.00032  -0.00041   0.00022  -0.00129
  97 3   Cl 1S         -0.67955   0.04488   0.05351  -0.02133  -0.01175
  98        2S         -0.00688  -0.16774  -0.20016   0.07978   0.04460
  99        3S         -0.00011   0.35876   0.42893  -0.17213  -0.09724
 100        4S         -0.00015   0.04346   0.05388  -0.02253  -0.01526
 101        5S          0.00005   0.21647   0.26638  -0.11322  -0.10172
 102        6S          0.00005  -0.00686  -0.01022   0.00225  -0.02629
 103        7PX         0.00000   0.00000   0.00000   0.00000   0.00000
 104        7PY        -0.00046   0.01654   0.00013  -0.00090   0.11200
 105        7PZ         0.00040  -0.00732  -0.00752  -0.01897   0.10168
 106        8PX         0.00000   0.00000   0.00000   0.00000   0.00000
 107        8PY         0.00006  -0.02473   0.01583   0.00180  -0.25515
 108        8PZ        -0.00004   0.00555   0.01002   0.04837  -0.24401
 109        9PX         0.00000   0.00000   0.00000   0.00000   0.00000
 110        9PY        -0.00006  -0.01079   0.00721   0.00015  -0.12190
 111        9PZ         0.00004   0.00286   0.00422   0.02272  -0.11682
 112       10PX         0.00000   0.00000   0.00000   0.00000   0.00000
 113       10PY        -0.00006   0.00066   0.01527   0.00731  -0.13148
 114       10PZ         0.00003  -0.00310  -0.00355   0.02630  -0.17700
 115       11PX         0.00000   0.00000   0.00000   0.00000   0.00000
 116       11PY        -0.00001   0.00397   0.00289  -0.00037  -0.00049
 117       11PZ         0.00000  -0.00162  -0.00320  -0.00017  -0.00600
 118       12D 0        0.00000  -0.00057   0.00078   0.00278  -0.00690
 119       12D+1        0.00000   0.00000   0.00000   0.00000   0.00000
 120       12D-1        0.00001  -0.00728  -0.00546  -0.00269  -0.00303
 121       12D+2        0.00000  -0.00600  -0.00277   0.00057  -0.01031
 122       12D-2        0.00000   0.00000   0.00000   0.00000   0.00000
 123       13D 0        0.00000  -0.00127   0.00177   0.00463  -0.00843
 124       13D+1        0.00000   0.00000   0.00000   0.00000   0.00000
 125       13D-1        0.00002  -0.00707  -0.00474  -0.00428  -0.00215
 126       13D+2        0.00001  -0.00631  -0.00181   0.00148  -0.01221
 127       13D-2        0.00000   0.00000   0.00000   0.00000   0.00000
 128       14D 0        0.00000   0.00098  -0.00106   0.00297  -0.00867
 129       14D+1        0.00000   0.00000   0.00000   0.00000   0.00000
 130       14D-1       -0.00002   0.00193   0.00316  -0.00201   0.00364
 131       14D+2       -0.00002   0.00174   0.00258   0.00075  -0.00678
 132       14D-2        0.00000   0.00000   0.00000   0.00000   0.00000
 133       15F 0        0.00000  -0.00133  -0.00090   0.00055  -0.00231
 134       15F+1        0.00000   0.00000   0.00000   0.00000   0.00000
 135       15F-1        0.00000  -0.00068  -0.00154  -0.00134   0.00386
 136       15F+2        0.00000  -0.00252  -0.00215  -0.00017  -0.00175
 137       15F-2        0.00000   0.00000   0.00000   0.00000   0.00000
 138       15F+3        0.00000   0.00000   0.00000   0.00000   0.00000
 139       15F-3        0.00000   0.00187   0.00084  -0.00064   0.00347
 140       16F 0        0.00000  -0.00016   0.00034   0.00000  -0.00040
 141       16F+1        0.00000   0.00000   0.00000   0.00000   0.00000
 142       16F-1        0.00000   0.00019   0.00004  -0.00148   0.00207
 143       16F+2        0.00000   0.00008   0.00068  -0.00029  -0.00058
 144       16F-2        0.00000   0.00000   0.00000   0.00000   0.00000
 145       16F+3        0.00000   0.00000   0.00000   0.00000   0.00000
 146       16F-3        0.00000  -0.00028  -0.00040  -0.00021   0.00131
 147 4   S  1S         -0.00797   0.01648   0.00010   0.05803   0.00423
 148        2S         -0.00012  -0.06335  -0.00037  -0.22206  -0.01624
 149        3S          0.00000   0.13126   0.00077   0.46992   0.03548
 150        4S          0.00000   0.01578   0.00009   0.06103   0.00495
 151        5S          0.00001   0.05503   0.00016   0.24337   0.07391
 152        6S          0.00000  -0.00297  -0.00012  -0.03130   0.02500
 153        7PX         0.00000   0.00000   0.00000   0.00000   0.00000
 154        7PY         0.00024   0.00009  -0.01108   0.00000   0.00012
 155        7PZ         0.00002   0.02164   0.00012   0.04434   0.00250
 156        8PX         0.00000   0.00000   0.00000   0.00000   0.00000
 157        8PY         0.00002  -0.00029   0.03243  -0.00001  -0.00041
 158        8PZ         0.00000  -0.03274  -0.00016  -0.05568  -0.00758
 159        9PX         0.00000   0.00000   0.00000   0.00000   0.00000
 160        9PY         0.00001  -0.00011   0.01229  -0.00002  -0.00012
 161        9PZ         0.00000  -0.01618  -0.00009  -0.03099  -0.00235
 162       10PX         0.00000   0.00000   0.00000   0.00000   0.00000
 163       10PY         0.00002   0.00000   0.00996  -0.00004  -0.00011
 164       10PZ         0.00000   0.00081   0.00010   0.01623  -0.01748
 165       11PX         0.00000   0.00000   0.00000   0.00000   0.00000
 166       11PY         0.00000   0.00002  -0.00148  -0.00001  -0.00001
 167       11PZ         0.00000   0.00232   0.00004   0.00824   0.00051
 168       12D 0        0.00000   0.00675   0.00004   0.00985   0.00092
 169       12D+1        0.00000   0.00000   0.00000   0.00000   0.00000
 170       12D-1       -0.00002   0.00005  -0.00509  -0.00003   0.00007
 171       12D+2        0.00000   0.00018   0.00000   0.00037   0.00328
 172       12D-2        0.00000   0.00000   0.00000   0.00000   0.00000
 173       13D 0        0.00000   0.00991   0.00006   0.02410   0.00137
 174       13D+1        0.00000   0.00000   0.00000   0.00000   0.00000
 175       13D-1        0.00000   0.00005  -0.00341  -0.00001   0.00001
 176       13D+2        0.00000  -0.00001   0.00001   0.00099   0.00241
 177       13D-2        0.00000   0.00000   0.00000   0.00000   0.00000
 178       14D 0        0.00000  -0.00238  -0.00003  -0.00881  -0.00081
 179       14D+1        0.00000   0.00000   0.00000   0.00000   0.00000
 180       14D-1       -0.00001  -0.00005   0.00202   0.00001  -0.00002
 181       14D+2        0.00000  -0.00174   0.00000  -0.00088   0.00539
 182       14D-2        0.00000   0.00000   0.00000   0.00000   0.00000
 183       15F 0        0.00000  -0.00299  -0.00002  -0.00874  -0.00082
 184       15F+1        0.00000   0.00000   0.00000   0.00000   0.00000
 185       15F-1        0.00000  -0.00003   0.00172   0.00001  -0.00002
 186       15F+2        0.00000   0.00019   0.00000  -0.00031  -0.00043
 187       15F-2        0.00000   0.00000   0.00000   0.00000   0.00000
 188       15F+3        0.00000   0.00000   0.00000   0.00000   0.00000
 189       15F-3        0.00000   0.00000   0.00009   0.00000  -0.00001
 190       16F 0        0.00000   0.00068   0.00000   0.00505  -0.00019
 191       16F+1        0.00000   0.00000   0.00000   0.00000   0.00000
 192       16F-1        0.00001   0.00000   0.00076   0.00001  -0.00003
 193       16F+2        0.00000  -0.00062   0.00000  -0.00075  -0.00132
 194       16F-2        0.00000   0.00000   0.00000   0.00000   0.00000
 195       16F+3        0.00000   0.00000   0.00000   0.00000   0.00000
 196       16F-3        0.00000   0.00000   0.00035   0.00000   0.00000
                          21        22        23        24        25
     Eigenvalues --     1.94899   1.94881   1.94811   1.94659   1.94118
   1 1   C  1S          0.11814  -0.01696   0.00000   0.00000  -0.00190
   2        2S         -0.33024   0.04741   0.00000   0.00000   0.00535
   3        3S         -0.07912   0.01137   0.00000   0.00000   0.00135
   4        4S         -0.20715   0.03010   0.00000   0.00000   0.00401
   5        5S         -0.00831   0.00122   0.00000   0.00000   0.00004
   6        6PX         0.00000   0.00000   0.09688  -0.00078   0.00000
   7        6PY         0.01353   0.08128   0.00000   0.00000   0.16846
   8        6PZ         0.03691  -0.00550   0.00000   0.00000   0.00328
   9        7PX         0.00000   0.00000   0.13834  -0.00106   0.00000
  10        7PY         0.01860   0.11135   0.00000   0.00000   0.23745
  11        7PZ         0.06225  -0.00924   0.00000   0.00000   0.00408
  12        8PX         0.00000   0.00000   0.06228  -0.00023   0.00000
  13        8PY         0.00576   0.03474   0.00000   0.00000   0.08252
  14        8PZ        -0.01844   0.00280   0.00000   0.00000   0.00103
  15        9PX         0.00000   0.00000   0.00650   0.00003   0.00000
  16        9PY         0.00138   0.01046   0.00000   0.00000  -0.00749
  17        9PZ        -0.00366   0.00036   0.00000   0.00000  -0.00025
  18       10D 0        0.00221  -0.00021   0.00000   0.00000   0.00023
  19       10D+1        0.00000   0.00000  -0.00726   0.00002   0.00000
  20       10D-1        0.00054   0.00489   0.00000   0.00000  -0.00723
  21       10D+2        0.00758  -0.00100   0.00000   0.00000   0.00013
  22       10D-2        0.00000   0.00000  -0.00008   0.01071   0.00000
  23       11D 0        0.00818  -0.00098   0.00000   0.00000   0.00024
  24       11D+1        0.00000   0.00000  -0.02311   0.00002   0.00000
  25       11D-1        0.00206   0.01653   0.00000   0.00000  -0.01432
  26       11D+2        0.01738  -0.00235   0.00000   0.00000   0.00016
  27       11D-2        0.00000   0.00000  -0.00011   0.03250   0.00000
  28       12D 0       -0.02179   0.00305   0.00000   0.00000   0.00022
  29       12D+1        0.00000   0.00000   0.01637  -0.00002   0.00000
  30       12D-1       -0.00504  -0.03734   0.00000   0.00000   0.01159
  31       12D+2       -0.00678   0.00091   0.00000   0.00000   0.00007
  32       12D-2        0.00000   0.00000  -0.00008  -0.01106   0.00000
  33       13F 0       -0.00360   0.00052   0.00000   0.00000   0.00007
  34       13F+1        0.00000   0.00000   0.00227   0.00000   0.00000
  35       13F-1       -0.00032  -0.00258   0.00000   0.00000   0.00768
  36       13F+2       -0.00473   0.00069   0.00000   0.00000  -0.00005
  37       13F-2        0.00000   0.00000   0.00002  -0.00446   0.00000
  38       13F+3        0.00000   0.00000  -0.00489   0.00005   0.00000
  39       13F-3       -0.00049  -0.00299   0.00000   0.00000  -0.00300
  40       14F 0       -0.00687   0.00104   0.00000   0.00000  -0.00001
  41       14F+1        0.00000   0.00000   0.00231   0.00004   0.00000
  42       14F-1       -0.00121  -0.00850   0.00000   0.00000  -0.00062
  43       14F+2       -0.00194   0.00033   0.00000   0.00000   0.00006
  44       14F-2        0.00000   0.00000  -0.00006  -0.00566   0.00000
  45       14F+3        0.00000   0.00000  -0.00335   0.00002   0.00000
  46       14F-3       -0.00039  -0.00302   0.00000   0.00000   0.00115
  47 2   Cl 1S          0.01572   0.00658   0.00000   0.00000   0.00653
  48        2S         -0.05978  -0.02560   0.00000   0.00000  -0.02642
  49        3S          0.13226   0.05332   0.00000   0.00000   0.05658
[...]
  53        7PX         0.00000  -0.01624   0.00000   0.00000   0.00000
  54        7PY         0.02320   0.00000  -0.01317   0.00406  -0.01675
  55        7PZ         0.00108   0.00000  -0.00374  -0.01113  -0.01456
  56        8PX         0.00000  -0.19223   0.00000   0.00000   0.00000
  57        8PY         0.37866   0.00000  -0.16604   0.05301  -0.26900
  58        8PZ         0.02539   0.00000  -0.03621  -0.14203  -0.23733
  59        9PX         0.00000   0.06219   0.00000   0.00000   0.00000
  60        9PY        -0.08538   0.00000   0.05124  -0.01492   0.06337
  61        9PZ        -0.00094   0.00000   0.01554   0.04375   0.05568
  62       10PX         0.00000   0.85130   0.00000   0.00000   0.00000
  63       10PY        -5.31342   0.00000   0.82114   0.55965   1.94770
  64       10PZ        -2.65364   0.00000   0.58244   1.39576   1.35312
  65       11PX         0.00000  -2.39022   0.00000   0.00000   0.00000
  66       11PY        -2.47586   0.00000  -1.69928   1.29021   1.47527
  67       11PZ        -1.45221   0.00000   0.96794  -2.76655   1.55753
  68       12D 0        0.01812   0.00000  -0.01080  -0.02287  -0.00572
  69       12D+1        0.00000  -0.01450   0.00000   0.00000   0.00000
  70       12D-1       -0.02021   0.00000   0.00247  -0.00115   0.01664
  71       12D+2        0.04313   0.00000   0.04297   0.00716   0.01335
  72       12D-2        0.00000  -0.02186   0.00000   0.00000   0.00000
  73       13D 0       -0.10870   0.00000   0.05786   0.08705   0.00459
  74       13D+1        0.00000   0.06137   0.00000   0.00000   0.00000
  75       13D-1        0.00526   0.00000   0.01881   0.04300  -0.09441
  76       13D+2       -0.13501   0.00000  -0.14898  -0.03563  -0.03385
  77       13D-2        0.00000   0.09157   0.00000   0.00000   0.00000
  78       14D 0        0.38937   0.00000  -0.02944  -0.18836   0.07040
  79       14D+1        0.00000  -0.08624   0.00000   0.00000   0.00000
  80       14D-1       -1.30882   0.00000   0.15936   0.31316   0.50638
  81       14D+2        1.08183   0.00000   0.30907  -0.02869  -0.32106
  82       14D-2        0.00000   0.10966   0.00000   0.00000   0.00000
  83       15F 0       -0.01763   0.00000   0.02901   0.00206   0.00823
  84       15F+1        0.00000  -0.01109   0.00000   0.00000   0.00000
  85       15F-1        0.03687   0.00000  -0.00621   0.01343  -0.00283
  86       15F+2       -0.02019   0.00000   0.00847   0.02653   0.02198
  87       15F-2        0.00000  -0.00498   0.00000   0.00000   0.00000
  88       15F+3        0.00000   0.05144   0.00000   0.00000   0.00000
  89       15F-3        0.01536   0.00000   0.01967  -0.00417   0.03347
  90       16F 0        0.07436   0.00000  -0.06373  -0.04485   0.00480
  91       16F+1        0.00000   0.00743   0.00000   0.00000   0.00000
  92       16F-1       -0.12680   0.00000   0.03459  -0.02815  -0.00188
  93       16F+2        0.10618   0.00000  -0.01907  -0.07540  -0.03765
  94       16F-2        0.00000   0.02316   0.00000   0.00000   0.00000
  95       16F+3        0.00000  -0.13216   0.00000   0.00000   0.00000
  96       16F-3       -0.00270   0.00000  -0.01933   0.01070  -0.07515
  97 3   Cl 1S         -0.01589   0.00000  -0.00982   0.00550   0.00336
  98        2S         -0.21410   0.00000  -0.18299   0.10426   0.07837
  99        3S         -0.60712   0.00000  -0.41209   0.22987   0.15278
 100        4S          0.02683   0.00000   0.16556  -0.10737  -0.09840
 101        5S          4.85404   0.00000   0.86316   0.02788  -0.12515
 102        6S         13.77267   0.00000  -7.22099   5.37765   9.95574
 103        7PX         0.00000  -0.01624   0.00000   0.00000   0.00000
 104        7PY         0.02368   0.00000  -0.01365  -0.00367   0.01623
 105        7PZ        -0.00149   0.00000   0.00377  -0.01104  -0.01450
 106        8PX         0.00000  -0.19144   0.00000   0.00000   0.00000
 107        8PY         0.38284   0.00000  -0.17379  -0.04687   0.26106
 108        8PZ        -0.03035   0.00000   0.03854  -0.14072  -0.23638
 109        9PX         0.00000   0.06220   0.00000   0.00000   0.00000
 110        9PY        -0.08701   0.00000   0.05297   0.01362  -0.06136
 111        9PZ         0.00224   0.00000  -0.01547   0.04325   0.05545
 112       10PX         0.00000   0.83729   0.00000   0.00000   0.00000
 113       10PY        -5.25964   0.00000   0.82267  -0.57414  -1.91930
 114       10PZ         2.67478   0.00000  -0.56584   1.40564   1.34587
 115       11PX         0.00000  -2.39667   0.00000   0.00000   0.00000
 116       11PY        -2.43356   0.00000  -1.70523  -1.25585  -1.49315
 117       11PZ         1.41355   0.00000  -1.05336  -2.72107   1.55303
 118       12D 0       -0.01936   0.00000   0.01006  -0.02345  -0.00523
 119       12D+1        0.00000  -0.01521   0.00000   0.00000   0.00000
 120       12D-1       -0.01888   0.00000   0.00267   0.00139  -0.01681
 121       12D+2       -0.04079   0.00000  -0.04288   0.00823   0.01298
 122       12D-2        0.00000   0.02217   0.00000   0.00000   0.00000
 123       13D 0        0.11384   0.00000  -0.05489   0.09155   0.00136
 124       13D+1        0.00000   0.06396   0.00000   0.00000   0.00000
 125       13D-1        0.00136   0.00000   0.01548  -0.04471   0.09369
 126       13D+2        0.12771   0.00000   0.14763  -0.03819  -0.03429
 127       13D-2        0.00000  -0.09256   0.00000   0.00000   0.00000
 128       14D 0       -0.37809   0.00000   0.02013  -0.18629   0.07473
 129       14D+1        0.00000  -0.09443   0.00000   0.00000   0.00000
 130       14D-1       -1.28836   0.00000   0.15471  -0.31781  -0.50526
 131       14D+2       -1.04899   0.00000  -0.30688  -0.01751  -0.32060
 132       14D-2        0.00000  -0.10276   0.00000   0.00000   0.00000
 133       15F 0        0.01686   0.00000  -0.02948   0.00303   0.00761
 134       15F+1        0.00000  -0.01095   0.00000   0.00000   0.00000
 135       15F-1        0.03787   0.00000  -0.00655  -0.01292   0.00290
 136       15F+2        0.01966   0.00000  -0.00830   0.02710   0.02165
 137       15F-2        0.00000   0.00537   0.00000   0.00000   0.00000
 138       15F+3        0.00000   0.05166   0.00000   0.00000   0.00000
 139       15F-3        0.01635   0.00000   0.02015   0.00408  -0.03275
 140       16F 0       -0.07076   0.00000   0.06271  -0.04649   0.00491
 141       16F+1        0.00000   0.00692   0.00000   0.00000   0.00000
 142       16F-1       -0.12964   0.00000   0.03501   0.02406   0.00240
 143       16F+2       -0.10328   0.00000   0.01766  -0.07687  -0.03824
 144       16F-2        0.00000  -0.02373   0.00000   0.00000   0.00000
 145       16F+3        0.00000  -0.13215   0.00000   0.00000   0.00000
 146       16F-3       -0.00547   0.00000  -0.02048  -0.01155   0.07470
 147 4   S  1S         -0.00028   0.00000  -0.00004   0.00195  -0.00381
 148        2S         -0.00435   0.00000  -0.00121  -0.00019  -0.06342
 149        3S         -0.01220   0.00000  -0.00236   0.06093  -0.17126
 150        4S          0.00209   0.00000   0.00191   0.10430   0.02177
 151        5S          0.05144   0.00000  -0.03610  -3.76069   2.30775
 152        6S          0.15660   0.00000  -0.20697 -15.51375   4.16520
 153        7PX         0.00000  -0.01982   0.00000   0.00000   0.00000
 154        7PY         0.01749   0.00000   0.00353  -0.00008  -0.00011
 155        7PZ         0.00076   0.00000  -0.00019  -0.00755  -0.00119
 156        8PX         0.00000  -0.08840   0.00000   0.00000   0.00000
 157        8PY         0.26668   0.00000   0.13257  -0.00229  -0.00112
 158        8PZ         0.01269   0.00000  -0.00174  -0.01251  -0.12953
 159        9PX         0.00000   0.07433   0.00000   0.00000   0.00000
 160        9PY        -0.06546   0.00000  -0.01165   0.00023   0.00042
 161        9PZ        -0.00249   0.00000   0.00067   0.02095   0.00109
 162       10PX         0.00000  -0.63256   0.00000   0.00000   0.00000
 163       10PY        -3.43347   0.00000  -0.38456  -0.02975   0.00867
 164       10PZ        -0.06716   0.00000   0.03558   3.56427  -0.34693
 165       11PX         0.00000  -4.11071   0.00000   0.00000   0.00000
 166       11PY        -0.05973   0.00000  -4.74469   0.02606  -0.02103
 167       11PZ        -0.03802   0.00000  -0.00031  -1.07783   0.79359
 168       12D 0       -0.00169   0.00000  -0.00372  -0.45447   0.33203
 169       12D+1        0.00000  -0.34372   0.00000   0.00000   0.00000
 170       12D-1       -0.08082   0.00000  -0.36502   0.00616  -0.00128
 171       12D+2       -0.00187   0.00000   0.00174   0.11244  -0.14775
 172       12D-2        0.00000   0.00050   0.00000   0.00000   0.00000
 173       13D 0       -0.00066   0.00000   0.00102   0.08549  -0.08230
 174       13D+1        0.00000   0.07015   0.00000   0.00000   0.00000
 175       13D-1        0.04218   0.00000   0.07032  -0.00053   0.00012
 176       13D+2        0.00034   0.00000  -0.00038  -0.03309   0.03057
 177       13D-2        0.00000  -0.00018   0.00000   0.00000   0.00000
 178       14D 0        0.01347   0.00000   0.00727   0.18890  -1.15744
 179       14D+1        0.00000   1.23423   0.00000   0.00000   0.00000
 180       14D-1        1.43157   0.00000   0.91192   0.00912  -0.00339
 181       14D+2       -0.00662   0.00000  -0.00290  -0.44555   0.17869
 182       14D-2        0.00000  -0.00516   0.00000   0.00000   0.00000
 183       15F 0        0.00098   0.00000  -0.00028  -0.01345  -0.01279
 184       15F+1        0.00000   0.01504   0.00000   0.00000   0.00000
 185       15F-1       -0.06935   0.00000   0.00579  -0.00006  -0.00017
 186       15F+2       -0.00026   0.00000  -0.00009  -0.01282   0.00203
 187       15F-2        0.00000  -0.00021   0.00000   0.00000   0.00000
 188       15F+3        0.00000   0.02672   0.00000   0.00000   0.00000
 189       15F-3       -0.00238   0.00000   0.04047  -0.00046   0.00026
 190       16F 0       -0.00034   0.00000  -0.00050   0.07890   0.13024
 191       16F+1        0.00000  -0.01554   0.00000   0.00000   0.00000
 192       16F-1        0.10631   0.00000   0.01355  -0.00261   0.00126
 193       16F+2        0.00304   0.00000   0.00005   0.07192   0.01635
 194       16F-2        0.00000   0.00130   0.00000   0.00000   0.00000
 195       16F+3        0.00000  -0.06021   0.00000   0.00000   0.00000
 196       16F-3        0.01607   0.00000  -0.09416   0.00100  -0.00072
                         196
     Eigenvalues --     0.00000
   1 1   C  1S         -0.03328
   2        2S         -0.12033
   3        3S          0.13356
   4        4S          2.60221
   5        5S         21.00673
   6        6PX         0.00000
   7        6PY        -0.00017
   8        6PZ         0.02235
   9        7PX         0.00000
  10        7PY         0.00051
  11        7PZ        -0.20291
  12        8PX         0.00000
  13        8PY        -0.02717
  14        8PZ         1.18268
  15        9PX         0.00000
  16        9PY        -0.04592
  17        9PZ         3.35388
  18       10D 0        0.01249
  19       10D+1        0.00000
  20       10D-1       -0.00005
  21       10D+2       -0.03503
  22       10D-2        0.00000
  23       11D 0       -0.33290
  24       11D+1        0.00000
  25       11D-1       -0.00057
  26       11D+2        0.17073
  27       11D-2        0.00000
  28       12D 0       -1.01440
  29       12D+1        0.00000
  30       12D-1        0.00456
  31       12D+2       -0.74764
  32       12D-2        0.00000
  33       13F 0       -0.02588
  34       13F+1        0.00000
  35       13F-1        0.00001
  36       13F+2       -0.00093
  37       13F-2        0.00000
  38       13F+3        0.00000
  39       13F-3        0.00002
  40       14F 0       -0.14219
  41       14F+1        0.00000
  42       14F-1       -0.00101
  43       14F+2       -0.12008
  44       14F-2        0.00000
  45       14F+3        0.00000
  46       14F-3       -0.00020
  47 2   Cl 1S         -0.00094
  48        2S         -0.01297
  49        3S         -0.03621
  50        4S         -0.00156
  51        5S          0.36611
  52        6S         -3.51925
  53        7PX         0.00000
  54        7PY         0.00816
  55        7PZ         0.00359
  56        8PX         0.00000
  57        8PY         0.14537
  58        8PZ         0.08828
  59        9PX         0.00000
  60        9PY        -0.02943
  61        9PZ        -0.01116
  62       10PX         0.00000
  63       10PY         0.12326
  64       10PZ        -0.43476
  65       11PX         0.00000
  66       11PY        -0.73580
  67       11PZ        -1.02348
  68       12D 0        0.00861
  69       12D+1        0.00000
  70       12D-1       -0.01011
  71       12D+2       -0.00820
  72       12D-2        0.00000
  73       13D 0       -0.04265
  74       13D+1        0.00000
  75       13D-1        0.08696
  76       13D+2       -0.00823
  77       13D-2        0.00000
  78       14D 0       -0.05142
  79       14D+1        0.00000
  80       14D-1       -0.17832
  81       14D+2       -0.16880
  82       14D-2        0.00000
  83       15F 0       -0.00516
  84       15F+1        0.00000
  85       15F-1        0.00690
  86       15F+2       -0.00420
  87       15F-2        0.00000
  88       15F+3        0.00000
  89       15F-3       -0.00233
  90       16F 0        0.00506
  91       16F+1        0.00000
  92       16F-1       -0.02162
  93       16F+2       -0.00306
  94       16F-2        0.00000
  95       16F+3        0.00000
  96       16F-3       -0.01023
  97 3   Cl 1S         -0.00099
  98        2S         -0.01343
  99        3S         -0.03793
 100        4S         -0.00203
 101        5S          0.37963
 102        6S         -3.40821
 103        7PX         0.00000
 104        7PY        -0.00793
 105        7PZ         0.00364
 106        8PX         0.00000
 107        8PY        -0.14131
 108        8PZ         0.08859
 109        9PX         0.00000
 110        9PY         0.02867
 111        9PZ        -0.01143
 112       10PX         0.00000
 113       10PY        -0.15244
 114       10PZ        -0.41923
 115       11PX         0.00000
 116       11PY         0.73710
 117       11PZ        -1.01241
 118       12D 0        0.00842
 119       12D+1        0.00000
 120       12D-1        0.01031
 121       12D+2       -0.00803
 122       12D-2        0.00000
 123       13D 0       -0.04140
 124       13D+1        0.00000
 125       13D-1       -0.08785
 126       13D+2       -0.00853
 127       13D-2        0.00000
 128       14D 0       -0.05424
 129       14D+1        0.00000
 130       14D-1        0.16970
 131       14D+2       -0.17254
 132       14D-2        0.00000
 133       15F 0       -0.00512
 134       15F+1        0.00000
 135       15F-1       -0.00670
 136       15F+2       -0.00375
 137       15F-2        0.00000
 138       15F+3        0.00000
 139       15F-3        0.00199
 140       16F 0        0.00456
 141       16F+1        0.00000
 142       16F-1        0.02073
 143       16F+2       -0.00460
 144       16F-2        0.00000
 145       16F+3        0.00000
 146       16F-3        0.01091
 147 4   S  1S         -0.00436
 148        2S         -0.11022
 149        3S         -0.23203
 150        4S          0.10640
 151        5S          2.76260
 152        6S        -18.13822
 153        7PX         0.00000
 154        7PY         0.00008
 155        7PZ        -0.04534
 156        8PX         0.00000
 157        8PY         0.00153
 158        8PZ        -0.90966
 159        9PX         0.00000
 160        9PY        -0.00028
 161        9PZ         0.14225
 162       10PX         0.00000
 163       10PY        -0.00021
 164       10PZ         3.44378
 165       11PX         0.00000
 166       11PY         0.00990
 167       11PZ         4.74945
 168       12D 0        0.31422
 169       12D+1        0.00000
 170       12D-1       -0.00159
 171       12D+2        0.09122
 172       12D-2        0.00000
 173       13D 0       -0.00650
 174       13D+1        0.00000
 175       13D-1        0.00016
 176       13D+2       -0.02098
 177       13D-2        0.00000
 178       14D 0       -1.71475
 179       14D+1        0.00000
 180       14D-1        0.00050
 181       14D+2        0.03775
 182       14D-2        0.00000
 183       15F 0       -0.08743
 184       15F+1        0.00000
 185       15F-1        0.00012
 186       15F+2        0.01204
 187       15F-2        0.00000
 188       15F+3        0.00000
 189       15F-3       -0.00010
 190       16F 0        0.18872
 191       16F+1        0.00000
 192       16F-1        0.00038
 193       16F+2       -0.08516
 194       16F-2        0.00000
 195       16F+3        0.00000
 196       16F-3        0.00037
          Condensed to atoms (all electrons):
              1          2          3          4
     1  C    5.677794   0.067915   0.070353   0.180260
     2  Cl   0.067915  17.193117  -0.118847  -0.130292
     3  Cl   0.070353  -0.118847  17.193661  -0.128784
     4  S    0.180260  -0.130292  -0.128784  16.054218
 Mulliken atomic charges:
              1
     1  C    0.003679
     2  Cl  -0.011893
     3  Cl  -0.016383
     4  S    0.024597
 Sum of Mulliken atomic charges =   0.00000
 Mulliken charges with hydrogens summed into heavy atoms:
              1
     1  C    0.003679
     2  Cl  -0.011893
     3  Cl  -0.016383
     4  S    0.024597
 Sum of Mulliken charges with hydrogens summed into heavy atoms =   0.00000
 Electronic spatial extent (au):  <R**2>=            688.8401
 Charge=              0.0000 electrons
 Dipole moment (field-independent basis, Debye):
    X=              0.0000    Y=             -0.0179    Z=             -0.4565  Tot=              0.4568
 Quadrupole moment (field-independent basis, Debye-Ang):
   XX=            -43.1444   YY=            -43.2603   ZZ=            -42.5505
   XY=              0.0000   XZ=              0.0000   YZ=              0.0107
 Traceless Quadrupole moment (field-independent basis, Debye-Ang):
   XX=             -0.1594   YY=             -0.2752   ZZ=              0.4346
   XY=              0.0000   XZ=              0.0000   YZ=              0.0107
 Octapole moment (field-independent basis, Debye-Ang**2):
  XXX=              0.0000  YYY=             -0.1053  ZZZ=             81.2734  XYY=              0.0000
  XXY=             -0.0224  XXZ=             26.9806  XZZ=              0.0000  YZZ=             -0.0105
  YYZ=             18.8314  XYZ=              0.0000
 Hexadecapole moment (field-independent basis, Debye-Ang**3):
 XXXX=            -50.8760 YYYY=           -340.1778 ZZZZ=           -475.6703 XXXY=              0.0000
 XXXZ=              0.0000 YYYX=              0.0000 YYYZ=              0.6023 ZZZX=              0.0000
 ZZZY=              0.4376 XXYY=            -69.1965 XXZZ=            -89.3651 YYZZ=           -127.0522
 XXYZ=              0.2014 YYXZ=              0.0000 ZZXY=              0.0000
 N-N= 2.451388808137D+02 E-N=-3.713853778550D+03  KE= 1.355046531329D+03
 1\1\GINC-TRAPISTA\SP\RQCISD-FC\Aug-CC-pVTZ\C1Cl2S1\BRUNS\27-Nov-2021\0
 \\# qcisd/aug-cc-pvtz nosymm density=current output=wfn\\cl2cs-wavefun
 ction\\0,1\C,0,0.,0.,-0.522914\Cl,0,0.,-1.430735,-1.4909\Cl,0,0.,1.430
 735,-1.5009\S,0,0.,0.,1.081815\\Version=EM64L-G09RevB.01\HF=-1354.4261
 003\MP2=-1355.1503864\MP3=-1355.1830119\MP4D=-1355.2047581\MP4DQ=-1355
 .1798934\MP4SDQ=-1355.1866901\QCISD=-1355.1842131\RMSD=9.673e-09\Dipol
 e=0.,-0.007047,-0.179594\Quadrupole=-0.118481,-0.2046087,0.3230897,0.,
 0.,0.00799\PG=CS [SG(C1Cl2S1)]\\@

 Writing a WFN file to GAUSSIAN.wfn.


 LAWS OF PROGRAMMING DEFINITION:  A WORKING PROGRAM
                                  IS ONE THAT HAS
                                  ONLY UNOBSERVED
                                  BUGS.
 Job cpu time:  0 days  2 hours 20 minutes  6.1 seconds.
 File lengths (MBytes):  RWF=  18573 Int=      0 D2E=      0 Chk=      3 Scr=      1
 Normal termination of Gaussian 09 at Sat Nov 27 23:24:21 2021.
