 Entering Gaussian System, Link 0=/home/bruns/programas/chemistry/gaussian/g09/g09
 Input=GAUSSIAN.com
 Output=GAUSSIAN.log
 Initial command:
 /home/bruns/programas/chemistry/gaussian/g09/l1.exe /home/bruns/programas/chemistry/gaussian/work/Gau-59056.inp -scrdir=/home/bruns/programas/chemistry/gaussian/work/
 Entering Link 1 = /home/bruns/programas/chemistry/gaussian/g09/l1.exe PID=     59058.
  
 Copyright (c) 1988,1990,1992,1993,1995,1998,2003,2009,2010,
            Gaussian, Inc.  All Rights Reserved.
  
 This is part of the Gaussian(R) 09 program.  It is based on
 the Gaussian(R) 03 system (copyright 2003, Gaussian, Inc.),
 the Gaussian(R) 98 system (copyright 1998, Gaussian, Inc.),
 the Gaussian(R) 94 system (copyright 1995, Gaussian, Inc.),
 the Gaussian 92(TM) system (copyright 1992, Gaussian, Inc.),
 the Gaussian 90(TM) system (copyright 1990, Gaussian, Inc.),
 the Gaussian 88(TM) system (copyright 1988, Gaussian, Inc.),
 the Gaussian 86(TM) system (copyright 1986, Carnegie Mellon
 University), and the Gaussian 82(TM) system (copyright 1983,
 Carnegie Mellon University). Gaussian is a federally registered
 trademark of Gaussian, Inc.
  
 This software contains proprietary and confidential information,
 including trade secrets, belonging to Gaussian, Inc.
  
 This software is provided under written license and may be
 used, copied, transmitted, or stored only in accord with that
 written license.
  
 The following legend is applicable only to US Government
 contracts under FAR:
  
                    RESTRICTED RIGHTS LEGEND
  
 Use, reproduction and disclosure by the US Government is
 subject to restrictions as set forth in subparagraphs (a)
 and (c) of the Commercial Computer Software - Restricted
 Rights clause in FAR 52.227-19.
  
 Gaussian, Inc.
 340 Quinnipiac St., Bldg. 40, Wallingford CT 06492
  
  
 ---------------------------------------------------------------
 Warning -- This program may not be used in any manner that
 competes with the business of Gaussian, Inc. or will provide
 assistance to any competitor of Gaussian, Inc.  The licensee
 of this program is prohibited from giving any competitor of
 Gaussian, Inc. access to this program.  By using this program,
 the user acknowledges that Gaussian, Inc. is engaged in the
 business of creating and licensing software in the field of
 computational chemistry and represents and warrants to the
 licensee that it is not a competitor of Gaussian, Inc. and that
 it will not use this program in any manner prohibited above.
 ---------------------------------------------------------------
  

 Cite this work as:
 Gaussian 09, Revision B.01,
 M. J. Frisch, G. W. Trucks, H. B. Schlegel, G. E. Scuseria, 
 M. A. Robb, J. R. Cheeseman, G. Scalmani, V. Barone, B. Mennucci, 
 G. A. Petersson, H. Nakatsuji, M. Caricato, X. Li, H. P. Hratchian, 
 A. F. Izmaylov, J. Bloino, G. Zheng, J. L. Sonnenberg, M. Hada, 
 M. Ehara, K. Toyota, R. Fukuda, J. Hasegawa, M. Ishida, T. Nakajima, 
 Y. Honda, O. Kitao, H. Nakai, T. Vreven, J. A. Montgomery, Jr., 
 J. E. Peralta, F. Ogliaro, M. Bearpark, J. J. Heyd, E. Brothers, 
 K. N. Kudin, V. N. Staroverov, T. Keith, R. Kobayashi, J. Normand, 
 K. Raghavachari, A. Rendell, J. C. Burant, S. S. Iyengar, J. Tomasi, 
 M. Cossi, N. Rega, J. M. Millam, M. Klene, J. E. Knox, J. B. Cross, 
 V. Bakken, C. Adamo, J. Jaramillo, R. Gomperts, R. E. Stratmann, 
 O. Yazyev, A. J. Austin, R. Cammi, C. Pomelli, J. W. Ochterski, 
 R. L. Martin, K. Morokuma, V. G. Zakrzewski, G. A. Voth, 
 P. Salvador, J. J. Dannenberg, S. Dapprich, A. D. Daniels, 
 O. Farkas, J. B. Foresman, J. V. Ortiz, J. Cioslowski, 
 and D. J. Fox, Gaussian, Inc., Wallingford CT, 2010.
 
 ******************************************
 Gaussian 09:  EM64L-G09RevB.01 12-Aug-2010
                27-Nov-2021 
 ******************************************
 %nproc=8
 Will use up to    8 processors via shared memory.
 %mem=8GB
 -----------------------------------------------------
 # qcisd/aug-cc-pvtz nosymm density=current output=wfn
 -----------------------------------------------------
 1/30=1,38=1/1;
 2/12=2,15=1,17=6,18=5,40=1/2;
 3/5=16,6=1,7=10,11=9,16=1,25=1,30=1,71=1/1,2,3;
 4//1;
 5/5=2,38=5/2;
 8/6=4,9=120000,10=1/1,4;
 9/5=8,15=1/13;
 11/28=-7,31=1,32=3,42=3/11;
 10/5=6,13=10,31=1/2;
 6/7=2,8=2,9=2,10=2,22=-1,31=1/1;
 99/5=1,6=1100,9=1/99;
 ------------------
 cl2cs-wavefunction
 ------------------
 Symbolic Z-matrix:
 Charge =  0 Multiplicity = 1
 C                     0.        0.       -0.52291 
 Cl                   -0.01     -1.43074  -1.5009 
 Cl                    0.        1.43074  -1.5009 
 S                     0.        0.        1.08181 
 
                          Input orientation:                          
 ---------------------------------------------------------------------
 Center     Atomic      Atomic             Coordinates (Angstroms)
 Number     Number       Type             X           Y           Z
 ---------------------------------------------------------------------
      1          6           0        0.000000    0.000000   -0.522914
      2         17           0       -0.010000   -1.430735   -1.500900
      3         17           0        0.000000    1.430735   -1.500900
      4         16           0        0.000000    0.000000    1.081815
 ---------------------------------------------------------------------
                    Distance matrix (angstroms):
                    1          2          3          4
     1  C    0.000000
     2  Cl   1.733078   0.000000
     3  Cl   1.733049   2.861487   0.000000
     4  S    1.604729   2.952545   2.952528   0.000000
 Symmetry turned off by external request.
 Stoichiometry    CCl2S
 Framework group  C1[X(CCl2S)]
 Deg. of freedom     6
 Full point group                 C1      NOp   1
 Rotational constants (GHZ):      3.5300576      3.4458851      1.7437330
 Standard basis: Aug-CC-pVTZ (5D, 7F)
 Integral buffers will be    131072 words long.
 Raffenetti 1 integral format.
 Two-electron integral symmetry is turned off.
   196 basis functions,   414 primitive gaussians,   232 cartesian basis functions
    28 alpha electrons       28 beta electrons
       nuclear repulsion energy       244.8918981380 Hartrees.
 NAtoms=    4 NActive=    4 NUniq=    4 SFac= 1.00D+00 NAtFMM=   50 NAOKFM=F Big=F
 One-electron integrals computed using PRISM.
 NBasis=   196 RedAO= T  NBF=   196
 NBsUse=   196 1.00D-06 NBFU=   196
 Harris functional with IExCor=  205 diagonalized for initial guess.
 ExpMin= 3.51D-02 ExpMax= 4.56D+05 ExpMxC= 1.44D+03 IAcc=3 IRadAn=         0 AccDes= 0.00D+00
 HarFok:  IExCor=  205 AccDes= 0.00D+00 IRadAn=         0 IDoV= 1
 ScaDFX=  1.000000  1.000000  1.000000  1.000000
 FoFCou: FMM=F IPFlag=           0 FMFlag=      100000 FMFlg1=           0
         NFxFlg=           0 DoJE=T BraDBF=F KetDBF=T FulRan=T
         Omega=  0.000000  0.000000  1.000000  0.000000  0.000000 ICntrl=     500 IOpCl=  0
         NMat0=    1 NMatS0=    1 NMatT0=    0 NMatD0=    1 NMtDS0=    0 NMtDT0=    0
         I1Cent=           4 NGrid=           0.
 Symmetry not used in FoFCou.
 Requested convergence on RMS density matrix=1.00D-08 within 128 cycles.
 Requested convergence on MAX density matrix=1.00D-06.
 Requested convergence on             energy=1.00D-06.
 No special actions if energy rises.
 Keep R1 ints in memory in canonical form, NReq=371777346.
 SCF Done:  E(RHF) =  -1354.42602212     A.U. after   12 cycles
             Convg  =    0.9620D-08             -V/T =  2.0001
 ExpMin= 3.51D-02 ExpMax= 4.56D+05 ExpMxC= 1.44D+03 IAcc=3 IRadAn=         5 AccDes= 0.00D+00
 HarFok:  IExCor=  205 AccDes= 0.00D+00 IRadAn=         5 IDoV=-2
 ScaDFX=  1.000000  1.000000  1.000000  1.000000
 DSYEVD returned Info=         101 IAlg= 4 N=    50 NDim=    50 NE2=    21472333 trying DSYEV.
 Range of M.O.s used for correlation:    17   196
 NBasis=   196 NAE=    28 NBE=    28 NFC=    16 NFV=     0
 NROrb=    180 NOA=    12 NOB=    12 NVA=   168 NVB=   168

 **** Warning!!: The largest alpha MO coefficient is  0.31157644D+02

 Semi-Direct transformation.
 ModeAB=           2 MOrb=            12 LenV=    1072679875
 LASXX=     33405819 LTotXX=    33405819 LenRXX=    33405819
 LTotAB=    33954012 MaxLAS=    58380480 LenRXY=    58380480
 NonZer=    66811638 LenScr=   100987392 LnRSAI=           0
 LnScr1=           0 LExtra=           0 Total=    192773691
 MaxDsk=          -1 SrtSym=           F ITran=            4
 JobTyp=0 Pass  1:  I=   1 to  12.
 (rs|ai) integrals will be sorted in core.
 Spin components of T(2) and E(2):
     alpha-alpha T2 =       0.3952982654D-01 E2=     -0.9366363087D-01
     alpha-beta  T2 =       0.2072471247D+00 E2=     -0.5370473851D+00
     beta-beta   T2 =       0.3952982654D-01 E2=     -0.9366363087D-01
 ANorm=    0.1134154653D+01
 E2 =    -0.7243746469D+00 EUMP2 =    -0.13551503967682D+04
 R2 and R3 integrals will be kept in memory, NReq=   736864364.
 Iterations=  50 Convergence= 0.100D-07
 Iteration Nr.   1
 **********************
 DD1Dir will call FoFMem   1 times, MxPair=       156
 NAB=    78 NAA=     0 NBB=     0.
 MP4(R+Q)=  0.24886226D-01
 E3=       -0.32600002D-01        EUMP3=      -0.13551829968D+04
 E4(DQ)=    0.31061306D-02        UMP4(DQ)=   -0.13551798906D+04
 E4(SDQ)=  -0.37171158D-02        UMP4(SDQ)=  -0.13551867139D+04
 DE(Corr)= -0.73208842     E(Corr)=     -1355.1581105    
 NORM(A)=   0.11380821D+01
 Iteration Nr.   2
 **********************
 DD1Dir will call FoFMem   1 times, MxPair=       156
 NAB=    78 NAA=     0 NBB=     0.
 DE(Corr)= -0.75642078     E(CORR)=     -1355.1824429     Delta=-2.43D-02
 NORM(A)=   0.11490810D+01
 Iteration Nr.   3
 **********************
 DD1Dir will call FoFMem   1 times, MxPair=       156
 NAB=    78 NAA=     0 NBB=     0.
 DE(Corr)= -0.75560409     E(CORR)=     -1355.1816262     Delta= 8.17D-04
 NORM(A)=   0.11518243D+01
 Iteration Nr.   4
 **********************
 DD1Dir will call FoFMem   1 times, MxPair=       156
 NAB=    78 NAA=     0 NBB=     0.
 DE(Corr)= -0.75786692     E(CORR)=     -1355.1838890     Delta=-2.26D-03
 NORM(A)=   0.11529014D+01
 Iteration Nr.   5
 **********************
 DD1Dir will call FoFMem   1 times, MxPair=       156
 NAB=    78 NAA=     0 NBB=     0.
 DE(Corr)= -0.75814504     E(CORR)=     -1355.1841672     Delta=-2.78D-04
 NORM(A)=   0.11534387D+01
 Iteration Nr.   6
 **********************
 DD1Dir will call FoFMem   1 times, MxPair=       156
 NAB=    78 NAA=     0 NBB=     0.
 DE(Corr)= -0.75819796     E(CORR)=     -1355.1842201     Delta=-5.29D-05
 NORM(A)=   0.11535017D+01
 Iteration Nr.   7
 **********************
 DD1Dir will call FoFMem   1 times, MxPair=       156
 NAB=    78 NAA=     0 NBB=     0.
 DE(Corr)= -0.75820522     E(CORR)=     -1355.1842273     Delta=-7.26D-06
 NORM(A)=   0.11535071D+01
 Iteration Nr.   8
 **********************
 DD1Dir will call FoFMem   1 times, MxPair=       156
 NAB=    78 NAA=     0 NBB=     0.
 DE(Corr)= -0.75820332     E(CORR)=     -1355.1842254     Delta= 1.90D-06
 NORM(A)=   0.11535136D+01
 Iteration Nr.   9
 **********************
 DD1Dir will call FoFMem   1 times, MxPair=       156
 NAB=    78 NAA=     0 NBB=     0.
 DE(Corr)= -0.75820339     E(CORR)=     -1355.1842255     Delta=-6.32D-08
 NORM(A)=   0.11535125D+01
 Iteration Nr.  10
 **********************
 DD1Dir will call FoFMem   1 times, MxPair=       156
 NAB=    78 NAA=     0 NBB=     0.
 DE(Corr)= -0.75820437     E(CORR)=     -1355.1842265     Delta=-9.83D-07
 NORM(A)=   0.11535143D+01
 Iteration Nr.  11
 **********************
 DD1Dir will call FoFMem   1 times, MxPair=       156
 NAB=    78 NAA=     0 NBB=     0.
 DE(Corr)= -0.75820506     E(CORR)=     -1355.1842272     Delta=-6.89D-07
 NORM(A)=   0.11535153D+01
 Iteration Nr.  12
 **********************
 DD1Dir will call FoFMem   1 times, MxPair=       156
 NAB=    78 NAA=     0 NBB=     0.
 DE(Corr)= -0.75820528     E(CORR)=     -1355.1842274     Delta=-2.25D-07
 NORM(A)=   0.11535161D+01
 Iteration Nr.  13
 **********************
 DD1Dir will call FoFMem   1 times, MxPair=       156
 NAB=    78 NAA=     0 NBB=     0.
 DE(Corr)= -0.75820557     E(CORR)=     -1355.1842277     Delta=-2.88D-07
 NORM(A)=   0.11535166D+01
 Iteration Nr.  14
 **********************
 DD1Dir will call FoFMem   1 times, MxPair=       156
 NAB=    78 NAA=     0 NBB=     0.
 DE(Corr)= -0.75820560     E(CORR)=     -1355.1842277     Delta=-2.86D-08
 NORM(A)=   0.11535167D+01
 Iteration Nr.  15
 **********************
 DD1Dir will call FoFMem   1 times, MxPair=       156
 NAB=    78 NAA=     0 NBB=     0.
 DE(Corr)= -0.75820566     E(CORR)=     -1355.1842278     Delta=-5.54D-08
 NORM(A)=   0.11535168D+01
 Iteration Nr.  16
 **********************
 DD1Dir will call FoFMem   1 times, MxPair=       156
 NAB=    78 NAA=     0 NBB=     0.
 DE(Corr)= -0.75820567     E(CORR)=     -1355.1842278     Delta=-1.23D-08
 NORM(A)=   0.11535169D+01
 Iteration Nr.  17
 **********************
 DD1Dir will call FoFMem   1 times, MxPair=       156
 NAB=    78 NAA=     0 NBB=     0.
 DE(Corr)= -0.75820567     E(CORR)=     -1355.1842278     Delta=-4.16D-11
 NORM(A)=   0.11535169D+01
 Iteration Nr.  18
 **********************
 DD1Dir will call FoFMem   1 times, MxPair=       156
 NAB=    78 NAA=     0 NBB=     0.
 DE(Corr)= -0.75820567     E(CORR)=     -1355.1842278     Delta=-3.18D-09
 NORM(A)=   0.11535169D+01
 Iteration Nr.  19
 **********************
 DD1Dir will call FoFMem   1 times, MxPair=       156
 NAB=    78 NAA=     0 NBB=     0.
 DE(Corr)= -0.75820567     E(CORR)=     -1355.1842278     Delta= 1.57D-10
 NORM(A)=   0.11535169D+01
 Largest amplitude= 8.91D-02

 Z-AMPLITUDE ITERATIONS

 Iteration Nr.   1
 **********************
 DD1Dir will call FoFMem   1 times, MxPair=       156
 NAB=    78 NAA=     0 NBB=     0.
 DE(Z)  -0.72636127D+00          E(Z)=    -0.13551523834D+04
 NORM(A)=   0.11535505D+01
 Iteration Nr.   2
 **********************
 DD1Dir will call FoFMem   1 times, MxPair=       156
 NAB=    78 NAA=     0 NBB=     0.
 DE(Z)  -0.72636217D+00          E(Z)=    -0.13551523843D+04
 NORM(A)=   0.11546472D+01
 Iteration Nr.   3
 **********************
 DD1Dir will call FoFMem   1 times, MxPair=       156
 NAB=    78 NAA=     0 NBB=     0.
 DE(Z)  -0.72639137D+00          E(Z)=    -0.13551524135D+04
 NORM(A)=   0.11535908D+01
 Iteration Nr.   4
 **********************
 DD1Dir will call FoFMem   1 times, MxPair=       156
 NAB=    78 NAA=     0 NBB=     0.
 DE(Z)  -0.72636332D+00          E(Z)=    -0.13551523854D+04
 NORM(A)=   0.11532929D+01
 Iteration Nr.   5
 **********************
 DD1Dir will call FoFMem   1 times, MxPair=       156
 NAB=    78 NAA=     0 NBB=     0.
 DE(Z)  -0.72635481D+00          E(Z)=    -0.13551523769D+04
 NORM(A)=   0.11402851D+01
 Iteration Nr.   6
 **********************
 DD1Dir will call FoFMem   1 times, MxPair=       156
 NAB=    78 NAA=     0 NBB=     0.
 DE(Z)  -0.72597052D+00          E(Z)=    -0.13551519926D+04
 NORM(A)=   0.11402617D+01
 Iteration Nr.   7
 **********************
 DD1Dir will call FoFMem   1 times, MxPair=       156
 NAB=    78 NAA=     0 NBB=     0.
 DE(Z)  -0.72598632D+00          E(Z)=    -0.13551520084D+04
 NORM(A)=   0.11402787D+01
 Iteration Nr.   8
 **********************
 DD1Dir will call FoFMem   1 times, MxPair=       156
 NAB=    78 NAA=     0 NBB=     0.
 DE(Z)  -0.72597393D+00          E(Z)=    -0.13551519961D+04
 NORM(A)=   0.11402758D+01
 Iteration Nr.   9
 **********************
 DD1Dir will call FoFMem   1 times, MxPair=       156
 NAB=    78 NAA=     0 NBB=     0.
 DE(Z)  -0.72597436D+00          E(Z)=    -0.13551519965D+04
 NORM(A)=   0.11402771D+01
 Iteration Nr.  10
 **********************
 DD1Dir will call FoFMem   1 times, MxPair=       156
 NAB=    78 NAA=     0 NBB=     0.
 DE(Z)  -0.72597454D+00          E(Z)=    -0.13551519967D+04
 NORM(A)=   0.11402786D+01
 Iteration Nr.  11
 **********************
 DD1Dir will call FoFMem   1 times, MxPair=       156
 NAB=    78 NAA=     0 NBB=     0.
 DE(Z)  -0.72597454D+00          E(Z)=    -0.13551519967D+04
 NORM(A)=   0.11402788D+01
 Iteration Nr.  12
 **********************
 DD1Dir will call FoFMem   1 times, MxPair=       156
 NAB=    78 NAA=     0 NBB=     0.
 DE(Z)  -0.72597467D+00          E(Z)=    -0.13551519968D+04
 NORM(A)=   0.11402788D+01
 Iteration Nr.  13
 **********************
 DD1Dir will call FoFMem   1 times, MxPair=       156
 NAB=    78 NAA=     0 NBB=     0.
 DE(Z)  -0.72597459D+00          E(Z)=    -0.13551519967D+04
 NORM(A)=   0.11402788D+01
 Iteration Nr.  14
 **********************
 DD1Dir will call FoFMem   1 times, MxPair=       156
 NAB=    78 NAA=     0 NBB=     0.
 DE(Z)  -0.72597462D+00          E(Z)=    -0.13551519967D+04
 NORM(A)=   0.11402788D+01
 Iteration Nr.  15
 **********************
 DD1Dir will call FoFMem   1 times, MxPair=       156
 NAB=    78 NAA=     0 NBB=     0.
 DE(Z)  -0.72597462D+00          E(Z)=    -0.13551519967D+04
 NORM(A)=   0.11402788D+01
 Iteration Nr.  16
 **********************
 DD1Dir will call FoFMem   1 times, MxPair=       156
 NAB=    78 NAA=     0 NBB=     0.
 DE(Z)  -0.72597462D+00          E(Z)=    -0.13551519967D+04
 NORM(A)=   0.11402788D+01
 Iteration Nr.  17
 **********************
 DD1Dir will call FoFMem   1 times, MxPair=       156
 NAB=    78 NAA=     0 NBB=     0.
 DE(Z)  -0.72597462D+00          E(Z)=    -0.13551519967D+04
 NORM(A)=   0.11402788D+01
 Iteration Nr.  18
 **********************
 DD1Dir will call FoFMem   1 times, MxPair=       156
 NAB=    78 NAA=     0 NBB=     0.
 DE(Z)  -0.72597461D+00          E(Z)=    -0.13551519967D+04
 NORM(A)=   0.11402788D+01
 Iteration Nr.  19
 **********************
 DD1Dir will call FoFMem   1 times, MxPair=       156
 NAB=    78 NAA=     0 NBB=     0.
 DE(Z)  -0.72597461D+00          E(Z)=    -0.13551519967D+04
 NORM(A)=   0.11402788D+01
 Iteration Nr.  20
 **********************
 DD1Dir will call FoFMem   1 times, MxPair=       156
 NAB=    78 NAA=     0 NBB=     0.
 DE(Z)  -0.72597462D+00          E(Z)=    -0.13551519967D+04
 NORM(A)=   0.11402788D+01
 Iteration Nr.  21
 **********************
 DD1Dir will call FoFMem   1 times, MxPair=       156
 NAB=    78 NAA=     0 NBB=     0.
 DE(Z)  -0.72597462D+00          E(Z)=    -0.13551519967D+04
 NORM(A)=   0.11402788D+01
 Iteration Nr.  22
 **********************
 DD1Dir will call FoFMem   1 times, MxPair=       156
 NAB=    78 NAA=     0 NBB=     0.
 DE(Z)  -0.72597462D+00          E(Z)=    -0.13551519967D+04
 NORM(A)=   0.11402788D+01
 Iteration Nr.  23
 **********************
 DD1Dir will call FoFMem   1 times, MxPair=       156
 NAB=    78 NAA=     0 NBB=     0.
 DE(Z)  -0.72597462D+00          E(Z)=    -0.13551519967D+04
 NORM(A)=   0.11402788D+01
 Discarding MO integrals.
          Differentiating once with respect to electric field.
                with respect to dipole field.
          Electric field/nuclear overlap derivatives assumed to be zero.
          Keep R1 ints in memory in canonical form, NReq=367211061.
          There are     1 degrees of freedom in the 1st order CPHF.  IDoFFX=0.
 LinEq1:  Iter=  0 NonCon=     1 RMS=2.08D-03 Max=6.35D-02
 AX will form     1 AO Fock derivatives at one time.
 LinEq1:  Iter=  1 NonCon=     1 RMS=9.28D-04 Max=1.77D-02
 LinEq1:  Iter=  2 NonCon=     1 RMS=4.11D-04 Max=1.02D-02
 LinEq1:  Iter=  3 NonCon=     1 RMS=1.04D-04 Max=1.79D-03
 LinEq1:  Iter=  4 NonCon=     1 RMS=2.44D-05 Max=8.01D-04
 LinEq1:  Iter=  5 NonCon=     1 RMS=7.98D-06 Max=1.97D-04
 LinEq1:  Iter=  6 NonCon=     1 RMS=2.41D-06 Max=8.99D-05
 LinEq1:  Iter=  7 NonCon=     1 RMS=7.34D-07 Max=1.30D-05
 LinEq1:  Iter=  8 NonCon=     1 RMS=1.36D-07 Max=2.09D-06
 LinEq1:  Iter=  9 NonCon=     1 RMS=2.58D-08 Max=3.74D-07
 LinEq1:  Iter= 10 NonCon=     1 RMS=6.84D-09 Max=1.78D-07
 LinEq1:  Iter= 11 NonCon=     1 RMS=1.41D-09 Max=2.31D-08
 LinEq1:  Iter= 12 NonCon=     1 RMS=3.24D-10 Max=5.48D-09
 LinEq1:  Iter= 13 NonCon=     0 RMS=7.20D-11 Max=8.75D-10
 Linear equations converged to 1.000D-10 1.000D-09 after    13 iterations.
 End of Minotr Frequency-dependent properties file   721 does not exist.
 End of Minotr Frequency-dependent properties file   722 does not exist.

 **********************************************************************

            Population analysis using the QCI/CC density.

 **********************************************************************

     Natural Orbital Coefficients:
                           1         2         3         4         5
     Eigenvalues --     2.00004   2.00004   2.00003   2.00003   2.00003
   1 1   C  1S          0.00000  -0.00168   0.00000   0.00005   0.00000
   2        2S          0.00000   0.00038   0.00000   0.00000   0.00000
   3        3S          0.00000   0.00003   0.00000   0.00000   0.00000
   4        4S          0.00000  -0.00290   0.00000   0.00002   0.00000
   5        5S          0.00000  -0.00094   0.00000   0.00004   0.00000
   6        6PX         0.00000   0.00000   0.00000   0.00159   0.00000
   7        6PY         0.00034   0.00000   0.00000  -0.00001  -0.00105
   8        6PZ         0.00000   0.00037   0.00000   0.00000   0.00000
   9        7PX         0.00000   0.00000   0.00000   0.00170  -0.00001
  10        7PY         0.00046   0.00000   0.00000  -0.00001  -0.00225
  11        7PZ         0.00000   0.00134   0.00000   0.00000   0.00000
  12        8PX         0.00001  -0.00002   0.00000  -0.00093   0.00002
  13        8PY         0.00305   0.00000  -0.00009   0.00000   0.00662
  14        8PZ         0.00000  -0.00499   0.00000   0.00007   0.00000
  15        9PX         0.00000  -0.00001   0.00000  -0.00100   0.00001
  16        9PY        -0.00048   0.00000  -0.00002   0.00000   0.00157
  17        9PZ         0.00000  -0.00208   0.00000   0.00002   0.00000
  18       10D 0        0.00000  -0.00034   0.00000   0.00000   0.00000
  19       10D+1        0.00000   0.00000   0.00000  -0.00028   0.00000
  20       10D-1        0.00008   0.00000   0.00000   0.00000  -0.00036
  21       10D+2        0.00000  -0.00023   0.00000   0.00000   0.00000
  22       10D-2        0.00000   0.00000   0.00035   0.00000   0.00000
  23       11D 0        0.00000   0.00022   0.00000   0.00000   0.00000
  24       11D+1        0.00000  -0.00001   0.00000   0.00010   0.00000
  25       11D-1        0.00073   0.00000  -0.00001   0.00000   0.00113
  26       11D+2        0.00000   0.00046   0.00000   0.00000   0.00000
  27       11D-2        0.00000   0.00000  -0.00027   0.00000   0.00000
  28       12D 0        0.00000  -0.00574   0.00000  -0.00005   0.00000
  29       12D+1        0.00001  -0.00003   0.00000  -0.00272  -0.00001
  30       12D-1        0.00370   0.00000  -0.00010   0.00001  -0.00335
  31       12D+2        0.00000  -0.00312   0.00002  -0.00004   0.00000
  32       12D-2        0.00000   0.00002   0.00230   0.00000  -0.00001
  33       13F 0        0.00000   0.00013   0.00000   0.00000   0.00000
  34       13F+1        0.00000   0.00000   0.00000   0.00004   0.00000
  35       13F-1       -0.00039   0.00000   0.00000   0.00000  -0.00029
  36       13F+2        0.00000  -0.00003   0.00000   0.00000   0.00000
  37       13F-2        0.00000   0.00000  -0.00015   0.00000   0.00000
  38       13F+3        0.00000   0.00000   0.00000  -0.00009   0.00000
  39       13F-3       -0.00009   0.00000   0.00000   0.00000   0.00010
  40       14F 0        0.00000  -0.00098   0.00000   0.00000   0.00000
  41       14F+1        0.00002  -0.00001   0.00000   0.00005   0.00001
  42       14F-1        0.00495   0.00000  -0.00002   0.00000   0.00168
  43       14F+2        0.00000  -0.00009   0.00001  -0.00001   0.00000
  44       14F-2        0.00001   0.00000   0.00118   0.00000   0.00000
  45       14F+3        0.00001   0.00000   0.00000   0.00058   0.00000
  46       14F-3        0.00116   0.00000   0.00001  -0.00001  -0.00012
  47 2   Cl 1S         -0.00226  -0.00130  -0.00006   0.00020   0.02442
  48        2S          0.00803   0.00486   0.00020  -0.00068  -0.08302
  49        3S          0.00034   0.00043  -0.00001   0.00003   0.00228
  50        4S          0.00055   0.00020   0.00001  -0.00005  -0.00615
  51        5S         -0.00116  -0.00194   0.00002   0.00001   0.00397
  52        6S         -0.00126  -0.00201  -0.00001   0.00000   0.00410
  53        7PX        -0.00042   0.00037   0.69245  -0.68714   0.00145
  54        7PY        -0.40906   0.35281  -0.00423   0.00457   0.13850
  55        7PZ         0.55604  -0.59497  -0.00254   0.00224   0.03121
  56        8PX         0.00001   0.00000  -0.01496   0.01335  -0.00003
  57        8PY         0.01049  -0.00759   0.00009  -0.00009  -0.00292
  58        8PZ        -0.01372   0.01381   0.00006  -0.00004  -0.00144
  59        9PX        -0.00002   0.00002   0.03672  -0.03691   0.00008
  60        9PY        -0.02131   0.01845  -0.00023   0.00025   0.00765
  61        9PZ         0.02907  -0.03117  -0.00014   0.00012   0.00179
  62       10PX        -0.00001  -0.00002  -0.00318   0.00276   0.00000
  63       10PY         0.00309  -0.00129   0.00002   0.00001   0.00065
  64       10PZ        -0.00455   0.00122  -0.00002  -0.00004   0.00013
  65       11PX         0.00000   0.00000  -0.00055   0.00078   0.00000
  66       11PY         0.00036  -0.00040   0.00001   0.00000   0.00030
  67       11PZ        -0.00072   0.00049   0.00000  -0.00001   0.00021
  68       12D 0        0.00045  -0.00027   0.00000   0.00000   0.00008
  69       12D+1        0.00000   0.00000   0.00018  -0.00018   0.00000
  70       12D-1        0.00024  -0.00014   0.00000   0.00000   0.00011
  71       12D+2        0.00027  -0.00015   0.00000   0.00000  -0.00007
  72       12D-2        0.00000   0.00000   0.00032  -0.00020   0.00000
  73       13D 0       -0.00204   0.00102   0.00000   0.00000   0.00009
  74       13D+1       -0.00001   0.00001  -0.00075   0.00057   0.00000
  75       13D-1       -0.00079   0.00094   0.00001  -0.00001  -0.00048
  76       13D+2       -0.00099   0.00070  -0.00001   0.00001   0.00016
  77       13D-2        0.00001   0.00000  -0.00108   0.00100   0.00000
  78       14D 0        0.00007  -0.00090  -0.00002  -0.00001   0.00001
  79       14D+1        0.00000  -0.00001   0.00061   0.00006   0.00000
  80       14D-1        0.00004  -0.00031  -0.00001   0.00000   0.00008
  81       14D+2       -0.00001  -0.00059   0.00001  -0.00001   0.00016
  82       14D-2        0.00000   0.00000   0.00046  -0.00048   0.00000
  83       15F 0       -0.00001   0.00000   0.00000   0.00000   0.00004
  84       15F+1        0.00000   0.00000  -0.00007  -0.00005   0.00000
  85       15F-1        0.00001   0.00002   0.00000   0.00000   0.00003
  86       15F+2        0.00002   0.00002   0.00000   0.00000  -0.00003
  87       15F-2        0.00000   0.00000  -0.00001  -0.00003   0.00000
  88       15F+3        0.00000   0.00000  -0.00001  -0.00003   0.00000
  89       15F-3        0.00003   0.00004   0.00000   0.00000  -0.00005
  90       16F 0       -0.00038  -0.00011   0.00000   0.00000   0.00019
  91       16F+1       -0.00001   0.00000   0.00013   0.00018   0.00000
  92       16F-1       -0.00093   0.00047   0.00000   0.00000  -0.00017
  93       16F+2       -0.00008  -0.00029   0.00000   0.00001   0.00030
  94       16F-2        0.00000   0.00000  -0.00033   0.00033   0.00000
  95       16F+3       -0.00001   0.00000   0.00030  -0.00022   0.00000
  96       16F-3       -0.00028   0.00019  -0.00001   0.00000   0.00021
  97 3   Cl 1S          0.00226  -0.00130   0.00006   0.00020  -0.02442
  98        2S         -0.00802   0.00487  -0.00020  -0.00068   0.08302
  99        3S         -0.00034   0.00043   0.00001   0.00003  -0.00229
 100        4S         -0.00055   0.00020  -0.00001  -0.00005   0.00615
 101        5S          0.00116  -0.00194  -0.00002   0.00001  -0.00397
 102        6S          0.00126  -0.00201   0.00001   0.00000  -0.00410
 103        7PX        -0.00244  -0.00210  -0.69245  -0.68717  -0.00048
 104        7PY        -0.40916  -0.35269   0.00061   0.00023   0.13852
 105        7PZ        -0.55620  -0.59481   0.00254   0.00224  -0.03120
 106        8PX         0.00006   0.00005   0.01496   0.01335   0.00001
 107        8PY         0.01049   0.00758  -0.00001   0.00000  -0.00292
 108        8PZ         0.01373   0.01381  -0.00006  -0.00004   0.00144
 109        9PX        -0.00013  -0.00011  -0.03672  -0.03691  -0.00003
 110        9PY        -0.02131  -0.01845   0.00003   0.00001   0.00766
 111        9PZ        -0.02908  -0.03117   0.00014   0.00012  -0.00179
 112       10PX         0.00003  -0.00001   0.00318   0.00276   0.00000
 113       10PY         0.00309   0.00129   0.00000  -0.00003   0.00065
 114       10PZ         0.00455   0.00122   0.00002  -0.00005  -0.00013
 115       11PX         0.00000   0.00000   0.00055   0.00078   0.00000
 116       11PY         0.00036   0.00040   0.00000   0.00000   0.00030
 117       11PZ         0.00072   0.00049   0.00000  -0.00001  -0.00021
 118       12D 0       -0.00045  -0.00027   0.00000   0.00000  -0.00008
 119       12D+1        0.00000   0.00000  -0.00018  -0.00018   0.00000
 120       12D-1        0.00024   0.00014   0.00000   0.00000   0.00011
 121       12D+2       -0.00027  -0.00015   0.00000   0.00000   0.00007
 122       12D-2        0.00000   0.00000   0.00032   0.00020   0.00000
 123       13D 0        0.00204   0.00102   0.00000   0.00000  -0.00009
 124       13D+1        0.00001   0.00000   0.00075   0.00057   0.00000
 125       13D-1       -0.00079  -0.00094   0.00001   0.00000  -0.00048
 126       13D+2        0.00099   0.00070   0.00000   0.00000  -0.00016
 127       13D-2        0.00000  -0.00001  -0.00108  -0.00100   0.00000
 128       14D 0       -0.00007  -0.00090   0.00002  -0.00001  -0.00001
 129       14D+1        0.00000  -0.00001  -0.00061   0.00006   0.00000
 130       14D-1        0.00004   0.00031  -0.00001   0.00000   0.00008
 131       14D+2        0.00001  -0.00058   0.00000  -0.00001  -0.00016
 132       14D-2        0.00000   0.00001   0.00046   0.00048   0.00000
 133       15F 0        0.00001   0.00000   0.00000   0.00000  -0.00004
 134       15F+1        0.00000   0.00000   0.00007  -0.00005   0.00000
 135       15F-1        0.00001  -0.00002   0.00000   0.00000   0.00003
 136       15F+2       -0.00002   0.00002   0.00000   0.00000   0.00003
 137       15F-2        0.00000   0.00000  -0.00001   0.00003   0.00000
 138       15F+3        0.00000   0.00000   0.00001  -0.00003   0.00000
 139       15F-3        0.00003  -0.00004   0.00000   0.00000  -0.00005
 140       16F 0        0.00038  -0.00011   0.00000   0.00000  -0.00019
 141       16F+1        0.00000   0.00000  -0.00013   0.00018   0.00000
 142       16F-1       -0.00093  -0.00047   0.00000   0.00000  -0.00017
 143       16F+2        0.00008  -0.00029   0.00000   0.00000  -0.00030
 144       16F-2       -0.00001   0.00000  -0.00033  -0.00033   0.00000
 145       16F+3        0.00000   0.00000  -0.00030  -0.00022   0.00000
 146       16F-3       -0.00028  -0.00019   0.00000   0.00000   0.00021
 147 4   S  1S          0.00000   0.00088   0.00000  -0.00003   0.00000
 148        2S          0.00000  -0.00304   0.00000   0.00012  -0.00001
 149        3S          0.00000   0.00038   0.00000   0.00000   0.00000
 150        4S          0.00000  -0.00004   0.00000   0.00001   0.00000
 151        5S          0.00000   0.00750   0.00000  -0.00001   0.00000
 152        6S          0.00000   0.00346   0.00000  -0.00005   0.00000
 153        7PX         0.00029  -0.00007   0.00000   0.11531   0.00332
 154        7PY         0.08387  -0.00001  -0.00067  -0.00040   0.94871
 155        7PZ        -0.00001  -0.05734   0.00000   0.00062  -0.00001
 156        8PX        -0.00002   0.00001   0.00000  -0.00355  -0.00006
 157        8PY        -0.00485   0.00000   0.00003   0.00001  -0.01857
 158        8PZ         0.00000   0.00097   0.00000  -0.00001   0.00000
 159        9PX         0.00002   0.00000   0.00000   0.00666   0.00019
 160        9PY         0.00494   0.00000  -0.00004  -0.00002   0.05481
 161        9PZ         0.00000  -0.00329   0.00000   0.00004   0.00000
 162       10PX        -0.00002   0.00004   0.00000   0.00145  -0.00002
 163       10PY        -0.00579   0.00000   0.00011  -0.00001  -0.00508
 164       10PZ         0.00000  -0.00130   0.00000   0.00003   0.00000
 165       11PX         0.00000   0.00000   0.00000   0.00024   0.00000
 166       11PY        -0.00031   0.00000   0.00001   0.00000  -0.00114
 167       11PZ         0.00000   0.00000   0.00000   0.00001   0.00000
 168       12D 0        0.00000  -0.00040   0.00000   0.00000   0.00000
 169       12D+1        0.00001  -0.00001   0.00000  -0.00001   0.00001
 170       12D-1        0.00241   0.00000  -0.00002   0.00000   0.00270
 171       12D+2        0.00000  -0.00009   0.00000   0.00001   0.00000
 172       12D-2       -0.00001   0.00000  -0.00033   0.00000   0.00000
 173       13D 0        0.00000   0.00000   0.00000   0.00000   0.00000
 174       13D+1        0.00000   0.00000   0.00000  -0.00006   0.00000
 175       13D-1       -0.00005   0.00000   0.00000   0.00000  -0.00034
 176       13D+2        0.00000  -0.00009   0.00000   0.00000   0.00000
 177       13D-2        0.00000   0.00000   0.00010   0.00000   0.00000
 178       14D 0        0.00000  -0.00005   0.00000   0.00000   0.00000
 179       14D+1        0.00001  -0.00001   0.00000  -0.00141   0.00000
 180       14D-1        0.00148   0.00000  -0.00003   0.00000  -0.00029
 181       14D+2        0.00000   0.00038   0.00000   0.00001   0.00000
 182       14D-2        0.00000   0.00000  -0.00061   0.00000   0.00000
 183       15F 0        0.00000   0.00008   0.00000   0.00000   0.00000
 184       15F+1        0.00000   0.00000   0.00000  -0.00008   0.00000
 185       15F-1       -0.00022   0.00000   0.00000   0.00000  -0.00018
 186       15F+2        0.00000   0.00012   0.00000   0.00000   0.00000
 187       15F-2        0.00000   0.00000  -0.00006   0.00000   0.00000
 188       15F+3        0.00000   0.00000   0.00000   0.00001   0.00000
 189       15F-3       -0.00003   0.00000   0.00000   0.00000   0.00009
 190       16F 0        0.00000   0.00020   0.00000   0.00000   0.00000
 191       16F+1        0.00000   0.00000   0.00000   0.00024   0.00000
 192       16F-1       -0.00071   0.00000   0.00001   0.00000  -0.00089
 193       16F+2        0.00000  -0.00006   0.00000   0.00000   0.00000
 194       16F-2        0.00000   0.00000   0.00052   0.00000   0.00000
 195       16F+3        0.00000   0.00000   0.00000  -0.00017   0.00000
 196       16F-3       -0.00017   0.00000   0.00000   0.00000  -0.00018
                           6         7         8         9        10
     Eigenvalues --     2.00003   2.00003   2.00002   2.00001   2.00001
   1 1   C  1S         -0.16315  -0.00011  -0.15446   0.60541   0.00021
   2        2S          0.00336   0.00000   0.00300  -0.01067   0.00000
   3        3S         -0.00599   0.00000  -0.00605   0.02403   0.00001
   4        4S         -0.00878  -0.00001  -0.00736   0.00624   0.00001
   5        5S         -0.00147   0.00000   0.00014   0.00363   0.00000
   6        6PX         0.00000   0.00000   0.00000   0.00000  -0.00001
   7        6PY         0.00000  -0.00089   0.00000   0.00000  -0.00270
   8        6PZ        -0.00010   0.00000   0.00114  -0.00213   0.00000
   9        7PX         0.00000   0.00000   0.00000   0.00001   0.00000
  10        7PY         0.00000  -0.00028   0.00000   0.00000   0.00025
  11        7PZ        -0.00081   0.00000  -0.00061   0.00102   0.00000
  12        8PX         0.00001   0.00001   0.00000   0.00000   0.00001
  13        8PY         0.00000   0.00292   0.00000   0.00000   0.00192
  14        8PZ         0.00136   0.00000  -0.00722   0.00487   0.00000
  15        9PX        -0.00001   0.00000   0.00000   0.00001   0.00000
  16        9PY         0.00000  -0.00061   0.00000   0.00000  -0.00067
  17        9PZ        -0.00056   0.00000   0.00016   0.00098   0.00000
  18       10D 0       -0.00003   0.00000  -0.00010   0.00009   0.00000
  19       10D+1        0.00000   0.00000   0.00000   0.00000   0.00000
  20       10D-1        0.00000  -0.00011   0.00000   0.00000   0.00000
  21       10D+2        0.00006   0.00000   0.00002  -0.00015   0.00000
  22       10D-2        0.00000   0.00000   0.00000   0.00000   0.00000
  23       11D 0       -0.00048   0.00000  -0.00091   0.00036   0.00000
  24       11D+1        0.00000   0.00000   0.00000  -0.00001  -0.00001
  25       11D-1        0.00000  -0.00119   0.00000   0.00000  -0.00255
  26       11D+2        0.00082   0.00000  -0.00031   0.00075   0.00000
  27       11D-2       -0.00001  -0.00001   0.00000  -0.00001  -0.00001
  28       12D 0        0.00051   0.00000  -0.00177   0.00226   0.00000
  29       12D+1       -0.00001  -0.00002   0.00001   0.00001  -0.00002
  30       12D-1        0.00000  -0.00445   0.00000   0.00000  -0.00481
  31       12D+2        0.00135   0.00000  -0.00077   0.00025   0.00000
  32       12D-2       -0.00001  -0.00002   0.00001   0.00000  -0.00002
  33       13F 0       -0.00013   0.00000   0.00000  -0.00004   0.00000
  34       13F+1        0.00000   0.00000   0.00000   0.00000   0.00000
  35       13F-1        0.00000  -0.00003   0.00000   0.00000   0.00001
  36       13F+2       -0.00004   0.00000  -0.00006   0.00001   0.00000
  37       13F-2        0.00000   0.00000   0.00000   0.00000   0.00000
  38       13F+3        0.00000   0.00000   0.00000   0.00000   0.00000
  39       13F-3        0.00000   0.00003   0.00000   0.00000   0.00009
  40       14F 0        0.00014   0.00000   0.00044  -0.00152   0.00000
  41       14F+1        0.00000   0.00000   0.00000  -0.00001   0.00000
  42       14F-1        0.00000   0.00000   0.00000   0.00000  -0.00137
  43       14F+2       -0.00016   0.00000   0.00056  -0.00105   0.00000
  44       14F-2        0.00000   0.00000   0.00000   0.00001   0.00000
  45       14F+3        0.00000   0.00000   0.00000   0.00000  -0.00001
  46       14F-3        0.00000  -0.00036   0.00000   0.00000  -0.00084
  47 2   Cl 1S         -0.17587  -0.17586   0.01804  -0.04316   0.10510
  48        2S          0.59332   0.59349  -0.06115   0.14779  -0.35713
  49        3S         -0.01763  -0.01746   0.00161  -0.00189   0.00578
  50        4S          0.04612   0.04612  -0.00469   0.01174  -0.02980
  51        5S         -0.00148   0.00010  -0.00140   0.00034   0.00795
  52        6S         -0.00054  -0.00075  -0.00008  -0.00012  -0.00170
  53        7PX        -0.00302  -0.00246   0.00086   0.00042  -0.00400
  54        7PY        -0.29295  -0.26203   0.06054   0.09855  -0.47063
  55        7PZ        -0.17172  -0.21532   0.00401   0.08037  -0.34882
  56        8PX         0.00005   0.00005  -0.00002   0.00000   0.00007
  57        8PY         0.00532   0.00494  -0.00155  -0.00076   0.00806
  58        8PZ         0.00306   0.00411  -0.00043  -0.00052   0.00634
  59        9PX        -0.00017  -0.00014   0.00005   0.00003  -0.00024
  60        9PY        -0.01670  -0.01495   0.00342   0.00594  -0.02887
  61        9PZ        -0.00981  -0.01225   0.00024   0.00484  -0.02153
  62       10PX         0.00002   0.00002  -0.00001   0.00000   0.00000
  63       10PY         0.00184   0.00183  -0.00058  -0.00006   0.00044
  64       10PZ         0.00147   0.00086  -0.00053   0.00089   0.00041
  65       11PX         0.00000   0.00000   0.00000   0.00000   0.00000
  66       11PY        -0.00005   0.00012  -0.00003  -0.00003  -0.00011
  67       11PZ         0.00009  -0.00009  -0.00013  -0.00009  -0.00023
  68       12D 0       -0.00004  -0.00002   0.00002  -0.00001   0.00000
  69       12D+1        0.00000   0.00000   0.00000   0.00000   0.00000
  70       12D-1        0.00018   0.00018   0.00002   0.00008  -0.00041
  71       12D+2       -0.00008  -0.00007   0.00002  -0.00013   0.00032
  72       12D-2        0.00000   0.00000   0.00000   0.00000   0.00000
  73       13D 0       -0.00007   0.00023   0.00015  -0.00013   0.00055
  74       13D+1        0.00000   0.00001   0.00000   0.00000   0.00002
  75       13D-1        0.00039   0.00046  -0.00011   0.00010   0.00220
  76       13D+2       -0.00047  -0.00032   0.00015   0.00022  -0.00119
  77       13D-2        0.00001   0.00001   0.00000   0.00000   0.00002
  78       14D 0        0.00000  -0.00024   0.00018  -0.00003  -0.00005
  79       14D+1        0.00000   0.00000   0.00000   0.00000  -0.00001
  80       14D-1        0.00029   0.00018   0.00003   0.00025  -0.00016
  81       14D+2       -0.00020   0.00021  -0.00005   0.00010   0.00081
  82       14D-2        0.00000   0.00000   0.00000   0.00000  -0.00001
  83       15F 0        0.00001   0.00004   0.00001   0.00000   0.00004
  84       15F+1        0.00000   0.00000   0.00000   0.00000   0.00000
  85       15F-1        0.00000   0.00003   0.00000   0.00000   0.00009
  86       15F+2       -0.00001  -0.00001   0.00000  -0.00001  -0.00004
  87       15F-2        0.00000   0.00000   0.00000   0.00000   0.00000
  88       15F+3        0.00000   0.00000   0.00000   0.00000   0.00000
  89       15F-3       -0.00003  -0.00003   0.00002   0.00000  -0.00003
  90       16F 0       -0.00007  -0.00011   0.00010  -0.00026  -0.00030
  91       16F+1        0.00000   0.00000   0.00000   0.00000   0.00000
  92       16F-1        0.00002   0.00007   0.00003   0.00001   0.00042
  93       16F+2       -0.00013  -0.00013   0.00006  -0.00007  -0.00052
  94       16F-2        0.00000   0.00000   0.00000   0.00000   0.00001
  95       16F+3        0.00000   0.00000   0.00000   0.00000   0.00000
  96       16F-3       -0.00010   0.00001  -0.00004   0.00015  -0.00011
  97 3   Cl 1S         -0.17612   0.17561   0.01803  -0.04317  -0.10529
  98        2S          0.59415  -0.59264  -0.06115   0.14783   0.35778
  99        3S         -0.01766   0.01743   0.00161  -0.00189  -0.00579
 100        4S          0.04618  -0.04606  -0.00469   0.01174   0.02986
 101        5S         -0.00148  -0.00011  -0.00140   0.00034  -0.00797
 102        6S         -0.00054   0.00075  -0.00008  -0.00012   0.00170
 103        7PX        -0.00097   0.00063   0.00044  -0.00027   0.00071
 104        7PY         0.29335  -0.26164  -0.06054  -0.09860  -0.47150
 105        7PZ        -0.17204   0.21508   0.00401   0.08041   0.34930
 106        8PX         0.00002  -0.00001  -0.00001   0.00001  -0.00001
 107        8PY        -0.00533   0.00493   0.00155   0.00076   0.00807
 108        8PZ         0.00307  -0.00411  -0.00043  -0.00052  -0.00635
 109        9PX        -0.00005   0.00004   0.00002  -0.00002   0.00004
 110        9PY         0.01672  -0.01492  -0.00342  -0.00594  -0.02892
 111        9PZ        -0.00982   0.01224   0.00024   0.00484   0.02156
 112       10PX         0.00000   0.00000   0.00000   0.00000   0.00000
 113       10PY        -0.00184   0.00183   0.00058   0.00006   0.00044
 114       10PZ         0.00147  -0.00086  -0.00053   0.00089  -0.00041
 115       11PX         0.00000   0.00000   0.00000   0.00000   0.00000
 116       11PY         0.00005   0.00012   0.00003   0.00003  -0.00011
 117       11PZ         0.00009   0.00009  -0.00013  -0.00009   0.00023
 118       12D 0       -0.00004   0.00002   0.00002  -0.00001   0.00000
 119       12D+1        0.00000   0.00000   0.00000   0.00000   0.00000
 120       12D-1       -0.00018   0.00018  -0.00002  -0.00008  -0.00041
 121       12D+2       -0.00008   0.00007   0.00002  -0.00013  -0.00032
 122       12D-2        0.00000   0.00000   0.00000   0.00000   0.00000
 123       13D 0       -0.00007  -0.00023   0.00015  -0.00013  -0.00055
 124       13D+1        0.00000   0.00000   0.00000   0.00000   0.00000
 125       13D-1       -0.00039   0.00046   0.00011  -0.00010   0.00221
 126       13D+2       -0.00047   0.00032   0.00015   0.00022   0.00119
 127       13D-2        0.00000   0.00000   0.00000   0.00000   0.00000
 128       14D 0        0.00000   0.00024   0.00018  -0.00003   0.00005
 129       14D+1        0.00000   0.00000   0.00000   0.00000   0.00001
 130       14D-1       -0.00029   0.00018  -0.00003  -0.00025  -0.00016
 131       14D+2       -0.00020  -0.00021  -0.00005   0.00010  -0.00081
 132       14D-2        0.00000   0.00000   0.00000   0.00000   0.00000
 133       15F 0        0.00001  -0.00004   0.00001   0.00000  -0.00004
 134       15F+1        0.00000   0.00000   0.00000   0.00000   0.00000
 135       15F-1        0.00000   0.00003   0.00000   0.00000   0.00009
 136       15F+2       -0.00001   0.00001   0.00000   0.00000   0.00004
 137       15F-2        0.00000   0.00000   0.00000   0.00000   0.00000
 138       15F+3        0.00000   0.00000   0.00000   0.00000   0.00000
 139       15F-3        0.00003  -0.00003  -0.00002   0.00000  -0.00003
 140       16F 0       -0.00007   0.00011   0.00010  -0.00026   0.00030
 141       16F+1        0.00000   0.00000   0.00000   0.00000   0.00000
 142       16F-1       -0.00002   0.00007  -0.00003  -0.00001   0.00042
 143       16F+2       -0.00013   0.00013   0.00006  -0.00007   0.00052
 144       16F-2        0.00000   0.00000   0.00000   0.00000   0.00000
 145       16F+3        0.00000   0.00000   0.00000   0.00000   0.00000
 146       16F-3        0.00010   0.00001   0.00004  -0.00015  -0.00011
 147 4   S  1S         -0.02038  -0.00002  -0.21775  -0.15763   0.00010
 148        2S          0.06944   0.00005   0.74426   0.54442  -0.00036
 149        3S         -0.00204   0.00000  -0.02070  -0.00819   0.00001
 150        4S          0.00450   0.00000   0.04989   0.03913  -0.00003
 151        5S          0.00161   0.00000   0.00652  -0.01189   0.00000
 152        6S          0.00207   0.00000  -0.00078  -0.00357   0.00000
 153        7PX         0.00048   0.00067   0.00064  -0.00249   0.00035
 154        7PY        -0.00014   0.19122   0.00001   0.00001   0.09903
 155        7PZ         0.05308   0.00004   0.61560  -0.47637   0.00044
 156        8PX        -0.00001  -0.00001  -0.00001   0.00003   0.00000
 157        8PY         0.00000  -0.00308   0.00000   0.00000   0.00027
 158        8PZ        -0.00158   0.00000  -0.01163   0.00826  -0.00001
 159        9PX         0.00003   0.00004   0.00004  -0.00016   0.00002
 160        9PY        -0.00001   0.01119   0.00000   0.00000   0.00600
 161        9PZ         0.00343   0.00000   0.03788  -0.03118   0.00003
 162       10PX         0.00000   0.00001  -0.00001   0.00000   0.00001
 163       10PY         0.00000   0.00184   0.00000   0.00000   0.00362
 164       10PZ        -0.00228   0.00000  -0.00664   0.00510   0.00000
 165       11PX         0.00000   0.00000   0.00000   0.00000   0.00000
 166       11PY         0.00000   0.00020   0.00000   0.00000   0.00026
 167       11PZ        -0.00022   0.00000   0.00012   0.00022   0.00000
 168       12D 0        0.00084   0.00000   0.00211  -0.00265   0.00000
 169       12D+1        0.00000   0.00000   0.00000  -0.00001   0.00000
 170       12D-1        0.00000   0.00019   0.00000   0.00000  -0.00081
 171       12D+2       -0.00005   0.00000  -0.00044   0.00019   0.00000
 172       12D-2        0.00000   0.00000   0.00000   0.00000   0.00000
 173       13D 0        0.00007   0.00000   0.00014   0.00022   0.00000
 174       13D+1        0.00000   0.00000   0.00000   0.00000   0.00000
 175       13D-1        0.00000   0.00002   0.00000   0.00000   0.00007
 176       13D+2        0.00004   0.00000   0.00030   0.00016   0.00000
 177       13D-2        0.00000   0.00000   0.00000   0.00000   0.00000
 178       14D 0        0.00055   0.00000   0.00104  -0.00068   0.00000
 179       14D+1        0.00000   0.00000   0.00000   0.00000   0.00000
 180       14D-1        0.00000  -0.00074   0.00000   0.00000  -0.00094
 181       14D+2       -0.00031   0.00000   0.00039   0.00000   0.00000
 182       14D-2        0.00000   0.00001   0.00000   0.00000   0.00001
 183       15F 0       -0.00014   0.00000  -0.00016   0.00025   0.00000
 184       15F+1        0.00000   0.00000   0.00000   0.00000   0.00000
 185       15F-1        0.00000   0.00000   0.00000   0.00000   0.00006
 186       15F+2        0.00000   0.00000   0.00012  -0.00016   0.00000
 187       15F-2        0.00000   0.00000   0.00000   0.00000   0.00000
 188       15F+3        0.00000   0.00000   0.00000   0.00000   0.00000
 189       15F-3        0.00000   0.00003   0.00000   0.00000   0.00005
 190       16F 0       -0.00014   0.00000  -0.00046   0.00048   0.00000
 191       16F+1        0.00000   0.00000   0.00000   0.00000   0.00000
 192       16F-1        0.00000  -0.00004   0.00000   0.00000   0.00031
 193       16F+2        0.00012   0.00000  -0.00008  -0.00012   0.00000
 194       16F-2        0.00000   0.00000   0.00000   0.00000  -0.00001
 195       16F+3        0.00000   0.00000   0.00000   0.00000   0.00000
 196       16F-3        0.00000   0.00000   0.00000   0.00000   0.00004
                          11        12        13        14        15
     Eigenvalues --     2.00001   2.00001   2.00000   2.00000   2.00000
   1 1   C  1S          0.23624   0.00297   0.69962   0.00180   0.00171
   2        2S         -0.00440  -0.00003  -0.00702  -0.00003  -0.00006
   3        3S          0.00839   0.00012   0.03009   0.00011   0.00008
   4        4S          0.01155  -0.00002  -0.02257  -0.00042  -0.00015
   5        5S          0.00493   0.00000  -0.00551  -0.00020  -0.00015
   6        6PX         0.00000  -0.00182   0.00000   0.00000   0.00000
   7        6PY         0.00000   0.00001   0.00000   0.00000   0.00000
   8        6PZ         0.00215  -0.00001  -0.00126  -0.00001   0.00000
   9        7PX        -0.00001  -0.00140   0.00001   0.00000   0.00000
  10        7PY         0.00000   0.00000   0.00000   0.00000   0.00000
  11        7PZ         0.00168   0.00001   0.00252   0.00000  -0.00008
  12        8PX        -0.00002   0.00073   0.00002   0.00000   0.00000
  13        8PY         0.00000   0.00000   0.00000   0.00000   0.00000
  14        8PZ        -0.00308   0.00010   0.00246  -0.00007  -0.00001
  15        9PX         0.00000  -0.00103   0.00000   0.00000   0.00000
  16        9PY         0.00000   0.00000   0.00000   0.00000   0.00000
  17        9PZ         0.00030   0.00001   0.00052  -0.00003  -0.00005
  18       10D 0        0.00007   0.00000   0.00030   0.00000   0.00000
  19       10D+1        0.00000  -0.00019   0.00000   0.00000   0.00000
  20       10D-1        0.00000   0.00000   0.00000   0.00000   0.00000
  21       10D+2       -0.00003   0.00000  -0.00021   0.00000   0.00000
  22       10D-2        0.00000   0.00000   0.00000   0.00000   0.00000
  23       11D 0        0.00075   0.00000  -0.00031  -0.00004  -0.00005
  24       11D+1        0.00001   0.00118  -0.00002   0.00000   0.00000
  25       11D-1        0.00000   0.00000   0.00000   0.00000   0.00000
  26       11D+2       -0.00126   0.00001   0.00312   0.00006  -0.00001
  27       11D-2        0.00001   0.00000  -0.00002   0.00000   0.00000
  28       12D 0       -0.00183   0.00001  -0.00124  -0.00006  -0.00007
  29       12D+1        0.00001  -0.00102  -0.00001   0.00000   0.00000
  30       12D-1        0.00000   0.00000   0.00000   0.00000   0.00000
  31       12D+2       -0.00273   0.00000   0.00171   0.00003  -0.00001
  32       12D-2        0.00002   0.00000  -0.00001   0.00000   0.00000
  33       13F 0        0.00027   0.00000   0.00027   0.00000   0.00000
  34       13F+1        0.00000  -0.00018   0.00000   0.00000   0.00000
  35       13F-1        0.00000   0.00000   0.00000   0.00000   0.00000
  36       13F+2       -0.00008   0.00000  -0.00004  -0.00001   0.00000
  37       13F-2        0.00000   0.00000   0.00000   0.00000   0.00000
  38       13F+3        0.00000   0.00007   0.00000   0.00000   0.00000
  39       13F-3        0.00000   0.00000   0.00000   0.00000   0.00000
  40       14F 0        0.00029   0.00000  -0.00113  -0.00003   0.00001
  41       14F+1       -0.00001   0.00119  -0.00001   0.00000   0.00000
  42       14F-1        0.00000   0.00000   0.00000   0.00000   0.00000
  43       14F+2        0.00060   0.00000  -0.00139  -0.00003   0.00001
  44       14F-2        0.00000   0.00000   0.00001   0.00000   0.00000
  45       14F+3        0.00000  -0.00014  -0.00001   0.00000   0.00000
  46       14F-3        0.00000   0.00000   0.00000   0.00000   0.00000
  47 2   Cl 1S         -0.09151   0.00019   0.02995   0.65633  -0.25678
  48        2S          0.31166  -0.00066  -0.10715   0.00620  -0.00284
  49        3S         -0.00489   0.00001   0.00058   0.00010  -0.00006
  50        4S          0.02585  -0.00006  -0.00967   0.00011  -0.00007
  51        5S         -0.00738   0.00005   0.00905   0.00007   0.00005
  52        6S         -0.00064   0.00001   0.00342   0.00005   0.00006
  53        7PX         0.00356   0.08115  -0.00235  -0.00001   0.00000
  54        7PY         0.41841  -0.00165  -0.27849  -0.00162  -0.00040
  55        7PZ         0.23195  -0.00092  -0.18704  -0.00102  -0.00039
  56        8PX        -0.00006  -0.00044   0.00004   0.00000   0.00000
  57        8PY        -0.00713   0.00003   0.00479   0.00008  -0.00002
  58        8PZ        -0.00415   0.00002   0.00344   0.00006  -0.00001
  59        9PX         0.00022   0.00474  -0.00015   0.00000   0.00000
  60        9PY         0.02575  -0.00010  -0.01800  -0.00013  -0.00002
  61        9PZ         0.01429  -0.00006  -0.01214  -0.00009  -0.00002
  62       10PX        -0.00001  -0.00069   0.00003   0.00000   0.00000
  63       10PY        -0.00096   0.00003   0.00355   0.00003   0.00006
  64       10PZ        -0.00163   0.00000   0.00242   0.00001   0.00002
  65       11PX         0.00000   0.00034   0.00000   0.00000   0.00000
  66       11PY         0.00004   0.00000   0.00028   0.00000   0.00001
  67       11PZ        -0.00004   0.00000   0.00010   0.00001   0.00002
  68       12D 0        0.00001   0.00000   0.00001   0.00000   0.00000
  69       12D+1        0.00000  -0.00006   0.00000   0.00000   0.00000
  70       12D-1        0.00034   0.00000  -0.00032   0.00000   0.00000
  71       12D+2       -0.00023   0.00000   0.00021   0.00000   0.00000
  72       12D-2        0.00000  -0.00005   0.00000   0.00000   0.00000
  73       13D 0        0.00033   0.00000   0.00006   0.00000   0.00000
  74       13D+1       -0.00001  -0.00005   0.00001   0.00000   0.00000
  75       13D-1       -0.00143   0.00001   0.00194   0.00003  -0.00001
  76       13D+2        0.00139  -0.00001  -0.00120  -0.00002   0.00000
  77       13D-2       -0.00002  -0.00022   0.00002   0.00000   0.00000
  78       14D 0        0.00002   0.00000   0.00012   0.00000   0.00000
  79       14D+1        0.00000  -0.00023   0.00001   0.00000   0.00000
  80       14D-1        0.00015   0.00000   0.00067  -0.00001   0.00001
  81       14D+2       -0.00024  -0.00001  -0.00057   0.00000  -0.00002
  82       14D-2        0.00000  -0.00055   0.00001   0.00000   0.00000
  83       15F 0        0.00001   0.00000   0.00002   0.00000   0.00000
  84       15F+1        0.00000   0.00000   0.00000   0.00000   0.00000
  85       15F-1        0.00003   0.00000  -0.00001   0.00000   0.00000
  86       15F+2        0.00003   0.00000  -0.00001   0.00000   0.00000
  87       15F-2        0.00000  -0.00001   0.00000   0.00000   0.00000
  88       15F+3        0.00000  -0.00003   0.00000   0.00000   0.00000
  89       15F-3        0.00010   0.00000  -0.00005   0.00000   0.00000
  90       16F 0        0.00024   0.00000  -0.00027   0.00000   0.00000
  91       16F+1        0.00000   0.00001   0.00000   0.00000   0.00000
  92       16F-1        0.00000   0.00000   0.00032   0.00000   0.00000
  93       16F+2        0.00031   0.00000  -0.00045   0.00000   0.00000
  94       16F-2       -0.00001   0.00000   0.00001   0.00000   0.00000
  95       16F+3        0.00000   0.00020  -0.00001   0.00000   0.00000
  96       16F-3        0.00017   0.00000  -0.00018   0.00000   0.00000
  97 3   Cl 1S         -0.09129   0.00019   0.02996   0.65682  -0.25785
  98        2S          0.31093  -0.00066  -0.10715   0.00621  -0.00285
  99        3S         -0.00488   0.00001   0.00058   0.00010  -0.00006
 100        4S          0.02578  -0.00006  -0.00967   0.00011  -0.00007
 101        5S         -0.00736   0.00005   0.00905   0.00007   0.00005
 102        6S         -0.00064   0.00001   0.00342   0.00005   0.00006
 103        7PX         0.00063   0.08116  -0.00041   0.00000   0.00000
 104        7PY        -0.41742   0.00108   0.27850   0.00162   0.00040
 105        7PZ         0.23122  -0.00092  -0.18704  -0.00102  -0.00039
 106        8PX        -0.00001  -0.00044   0.00000   0.00000   0.00000
 107        8PY         0.00711  -0.00002  -0.00479  -0.00008   0.00002
 108        8PZ        -0.00414   0.00002   0.00344   0.00006  -0.00001
 109        9PX         0.00004   0.00475  -0.00003   0.00000   0.00000
 110        9PY        -0.02569   0.00007   0.01800   0.00013   0.00002
 111        9PZ         0.01425  -0.00006  -0.01214  -0.00009  -0.00002
 112       10PX         0.00000  -0.00069   0.00000   0.00000   0.00000
 113       10PY         0.00096  -0.00002  -0.00355  -0.00003  -0.00006
 114       10PZ        -0.00163   0.00000   0.00242   0.00001   0.00002
 115       11PX         0.00000   0.00034   0.00000   0.00000   0.00000
 116       11PY        -0.00004   0.00000  -0.00028   0.00000  -0.00001
 117       11PZ        -0.00004   0.00000   0.00010   0.00001   0.00002
 118       12D 0        0.00001   0.00000   0.00001   0.00000   0.00000
 119       12D+1        0.00000  -0.00006   0.00000   0.00000   0.00000
 120       12D-1       -0.00034   0.00000   0.00032   0.00000   0.00000
 121       12D+2       -0.00023   0.00000   0.00021   0.00000   0.00000
 122       12D-2        0.00000   0.00005   0.00000   0.00000   0.00000
 123       13D 0        0.00033   0.00000   0.00006   0.00000   0.00000
 124       13D+1        0.00000  -0.00005   0.00000   0.00000   0.00000
 125       13D-1        0.00143  -0.00001  -0.00194  -0.00003   0.00001
 126       13D+2        0.00139  -0.00001  -0.00120  -0.00002   0.00000
 127       13D-2        0.00000   0.00022   0.00000   0.00000   0.00000
 128       14D 0        0.00002   0.00000   0.00012   0.00000   0.00000
 129       14D+1        0.00000  -0.00023   0.00000   0.00000   0.00000
 130       14D-1       -0.00015   0.00000  -0.00067   0.00001  -0.00001
 131       14D+2       -0.00023   0.00000  -0.00057   0.00000  -0.00002
 132       14D-2        0.00000   0.00055   0.00000   0.00000   0.00000
 133       15F 0        0.00001   0.00000   0.00002   0.00000   0.00000
 134       15F+1        0.00000   0.00000   0.00000   0.00000   0.00000
 135       15F-1       -0.00003   0.00000   0.00001   0.00000   0.00000
 136       15F+2        0.00003   0.00000  -0.00001   0.00000   0.00000
 137       15F-2        0.00000   0.00001   0.00000   0.00000   0.00000
 138       15F+3        0.00000  -0.00003   0.00000   0.00000   0.00000
 139       15F-3       -0.00010   0.00000   0.00005   0.00000   0.00000
 140       16F 0        0.00024   0.00000  -0.00027   0.00000   0.00000
 141       16F+1        0.00000   0.00001   0.00000   0.00000   0.00000
 142       16F-1        0.00000   0.00000  -0.00032   0.00000   0.00000
 143       16F+2        0.00031   0.00000  -0.00045   0.00000   0.00000
 144       16F-2        0.00000   0.00000   0.00000   0.00000   0.00000
 145       16F+3        0.00000   0.00020   0.00000   0.00000   0.00000
 146       16F-3       -0.00017   0.00000   0.00018   0.00000   0.00000
 147 4   S  1S          0.08927  -0.00029   0.04993   0.36385   0.92767
 148        2S         -0.30793   0.00101  -0.18488   0.00431   0.01219
 149        3S          0.00493  -0.00001   0.00154   0.00013   0.00030
 150        4S         -0.02211   0.00008  -0.01370  -0.00004  -0.00003
 151        5S          0.00092  -0.00008   0.00627   0.00018   0.00000
 152        6S         -0.00494  -0.00002   0.00114   0.00013   0.00007
 153        7PX         0.00188   0.96520  -0.00233  -0.00001  -0.00001
 154        7PY        -0.00011  -0.00337   0.00001   0.00000   0.00000
 155        7PZ         0.39272  -0.00147   0.42464   0.00201   0.00229
 156        8PX        -0.00002  -0.01126   0.00002   0.00000   0.00000
 157        8PY         0.00000   0.00004   0.00000   0.00000   0.00000
 158        8PZ        -0.00451   0.00003  -0.00460  -0.00011  -0.00016
 159        9PX         0.00012   0.06175  -0.00016   0.00000   0.00000
 160        9PY        -0.00001  -0.00022   0.00000   0.00000   0.00000
 161        9PZ         0.02521  -0.00010   0.02819   0.00016   0.00022
 162       10PX        -0.00001   0.00103   0.00000   0.00000   0.00000
 163       10PY         0.00000   0.00000   0.00000   0.00000   0.00000
 164       10PZ         0.00292   0.00003  -0.00189  -0.00009   0.00004
 165       11PX         0.00000  -0.00028   0.00000   0.00000   0.00000
 166       11PY         0.00000   0.00000   0.00000   0.00000   0.00000
 167       11PZ         0.00081   0.00000  -0.00015  -0.00001   0.00001
 168       12D 0        0.00032  -0.00001   0.00113   0.00004   0.00005
 169       12D+1        0.00000   0.00217  -0.00001   0.00000   0.00000
 170       12D-1        0.00000  -0.00001   0.00000   0.00000   0.00000
 171       12D+2        0.00012   0.00000   0.00022   0.00000  -0.00001
 172       12D-2        0.00000   0.00000   0.00000   0.00000   0.00000
 173       13D 0       -0.00031   0.00000  -0.00062   0.00000   0.00001
 174       13D+1        0.00000  -0.00018   0.00000   0.00000   0.00000
 175       13D-1        0.00000   0.00000   0.00000   0.00000   0.00000
 176       13D+2       -0.00012   0.00000  -0.00008   0.00000   0.00001
 177       13D-2        0.00000   0.00000   0.00000   0.00000   0.00000
 178       14D 0       -0.00096   0.00000   0.00039   0.00000  -0.00004
 179       14D+1        0.00000  -0.00047   0.00000   0.00000   0.00000
 180       14D-1        0.00000   0.00000   0.00000   0.00000   0.00000
 181       14D+2        0.00069   0.00000  -0.00015   0.00000   0.00001
 182       14D-2        0.00000   0.00000   0.00000   0.00000   0.00000
 183       15F 0        0.00019   0.00000   0.00039  -0.00001  -0.00002
 184       15F+1        0.00000  -0.00026   0.00000   0.00000   0.00000
 185       15F-1        0.00000   0.00000   0.00000   0.00000   0.00000
 186       15F+2        0.00008   0.00000   0.00009   0.00000   0.00000
 187       15F-2        0.00000   0.00000   0.00000   0.00000   0.00000
 188       15F+3        0.00000   0.00013   0.00000   0.00000   0.00000
 189       15F-3        0.00000   0.00000   0.00000   0.00000   0.00000
 190       16F 0       -0.00023   0.00000  -0.00037   0.00000   0.00000
 191       16F+1        0.00000  -0.00048   0.00000   0.00000   0.00000
 192       16F-1        0.00000   0.00000   0.00000   0.00000   0.00000
 193       16F+2       -0.00033   0.00000  -0.00019   0.00000   0.00000
 194       16F-2        0.00000   0.00000   0.00000   0.00000   0.00000
 195       16F+3        0.00000  -0.00012   0.00000   0.00000   0.00000
 196       16F-3        0.00000   0.00000   0.00000   0.00000   0.00000
                          16        17        18        19        20
     Eigenvalues --     2.00000   1.97697   1.97419   1.97000   1.95129
   1 1   C  1S          0.00000  -0.08577   0.00000  -0.06957  -0.04032
   2        2S          0.00000   0.22081   0.00000   0.18676   0.11218
   3        3S          0.00000   0.04816   0.00000   0.04467   0.02697
   4        4S          0.00000   0.04440   0.00000   0.06295   0.05609
   5        5S          0.00000   0.01148   0.00000   0.01605   0.00164
   6        6PX         0.00000  -0.00018   0.00021   0.00006  -0.00029
   7        6PY        -0.00001   0.00000   0.06099   0.00000   0.00000
   8        6PZ         0.00000  -0.01108   0.00000   0.10386  -0.05487
   9        7PX         0.00000  -0.00026   0.00029   0.00006  -0.00041
  10        7PY         0.00004   0.00001   0.08383   0.00000   0.00000
  11        7PZ         0.00000  -0.02143   0.00000   0.12974  -0.07662
  12        8PX         0.00000   0.00004   0.00001   0.00004  -0.00027
  13        8PY        -0.00005   0.00000   0.00398   0.00000   0.00000
  14        8PZ         0.00000   0.00803   0.00000   0.00451  -0.04648
  15        9PX         0.00000  -0.00003   0.00003   0.00005  -0.00006
  16        9PY        -0.00001   0.00000   0.00831   0.00000   0.00000
  17        9PZ         0.00000  -0.00385   0.00000   0.00844  -0.02170
  18       10D 0        0.00000   0.00433   0.00000   0.00971   0.01023
  19       10D+1        0.00000   0.00003  -0.00003  -0.00001   0.00005
  20       10D-1        0.00000   0.00000  -0.00851   0.00000   0.00000
  21       10D+2        0.00000  -0.00709   0.00000   0.00121   0.00367
  22       10D-2        0.00000   0.00005  -0.00005  -0.00001  -0.00003
  23       11D 0        0.00000   0.00606   0.00000   0.01114   0.03019
  24       11D+1        0.00000   0.00006  -0.00006  -0.00004   0.00012
  25       11D-1       -0.00006   0.00000  -0.01777   0.00000   0.00000
  26       11D+2        0.00000  -0.01104   0.00000   0.00305   0.01364
  27       11D-2        0.00000   0.00008  -0.00010  -0.00002  -0.00010
  28       12D 0        0.00000   0.00386   0.00000   0.00383  -0.04135
  29       12D+1        0.00000   0.00000   0.00004   0.00013  -0.00028
  30       12D-1       -0.00002   0.00000   0.01213   0.00000   0.00000
  31       12D+2        0.00000   0.00769   0.00000   0.00471  -0.02645
  32       12D-2        0.00000  -0.00005   0.00006  -0.00003   0.00018
  33       13F 0        0.00000   0.00400   0.00000   0.00470  -0.00111
  34       13F+1        0.00000  -0.00001   0.00001   0.00001  -0.00003
  35       13F-1        0.00000   0.00000   0.00190   0.00000   0.00000
  36       13F+2        0.00000   0.00461   0.00000  -0.00023   0.00164
  37       13F-2        0.00000  -0.00003   0.00002   0.00000  -0.00001
  38       13F+3        0.00000   0.00003  -0.00003   0.00001   0.00001
  39       13F-3        0.00000   0.00000  -0.00242   0.00000   0.00000
  40       14F 0        0.00000   0.00133   0.00000  -0.00094  -0.00298
  41       14F+1        0.00000   0.00000   0.00000  -0.00001  -0.00005
  42       14F-1       -0.00001   0.00000   0.00055   0.00000   0.00000
  43       14F+2        0.00000   0.00182   0.00000  -0.00009   0.00149
  44       14F-2        0.00000  -0.00001   0.00003   0.00000  -0.00001
  45       14F+3        0.00000   0.00001  -0.00001  -0.00002  -0.00001
  46       14F-3       -0.00001   0.00000  -0.00070   0.00000   0.00000
  47 2   Cl 1S          0.70553   0.04533  -0.05311  -0.02139  -0.01156
  48        2S          0.00714  -0.16943   0.19866   0.08000   0.04389
  49        3S          0.00011   0.36238  -0.42573  -0.17262  -0.09562
  50        4S          0.00016   0.04391  -0.05350  -0.02260  -0.01502
  51        5S         -0.00004   0.21875  -0.26443  -0.11351  -0.10003
  52        6S         -0.00005  -0.00694   0.01010   0.00231  -0.02622
  53        7PX         0.00000  -0.00011   0.00004  -0.00004  -0.00008
  54        7PY        -0.00051  -0.01656  -0.00006   0.00089  -0.11147
  55        7PZ        -0.00042  -0.00737   0.00751  -0.01896   0.10252
  56        8PX         0.00000   0.00013   0.00001   0.00011   0.00014
  57        8PY         0.00006   0.02466   0.01613  -0.00179   0.25415
  58        8PZ         0.00004   0.00559  -0.01011   0.04837  -0.24584
  59        9PX         0.00000   0.00006   0.00001   0.00006   0.00006
  60        9PY        -0.00006   0.01076   0.00735  -0.00013   0.12138
  61        9PZ        -0.00005   0.00287  -0.00426   0.02271  -0.11771
  62       10PX         0.00000   0.00000   0.00006   0.00007  -0.00018
  63       10PY        -0.00006  -0.00080   0.01530  -0.00732   0.13130
  64       10PZ        -0.00003  -0.00310   0.00339   0.02635  -0.17775
  65       11PX         0.00000  -0.00002   0.00003   0.00000  -0.00004
  66       11PY        -0.00001  -0.00400   0.00285   0.00037   0.00048
  67       11PZ         0.00000  -0.00165   0.00318  -0.00016  -0.00602
  68       12D 0        0.00000  -0.00056  -0.00079   0.00277  -0.00687
  69       12D+1        0.00000   0.00005  -0.00004   0.00002   0.00000
  70       12D-1        0.00001   0.00733  -0.00540   0.00268   0.00283
  71       12D+2        0.00000  -0.00602   0.00271   0.00056  -0.01017
  72       12D-2        0.00000   0.00008  -0.00005   0.00000   0.00009
  73       13D 0        0.00000  -0.00124  -0.00178   0.00465  -0.00840
  74       13D+1        0.00000   0.00004  -0.00004   0.00003  -0.00001
  75       13D-1        0.00002   0.00711  -0.00468   0.00428   0.00196
  76       13D+2       -0.00001  -0.00632   0.00176   0.00149  -0.01207
  77       13D-2        0.00000   0.00008  -0.00004  -0.00001   0.00010
  78       14D 0        0.00000   0.00098   0.00106   0.00300  -0.00868
  79       14D+1        0.00000  -0.00001   0.00003   0.00002  -0.00008
  80       14D-1       -0.00002  -0.00195   0.00314   0.00202  -0.00365
  81       14D+2        0.00002   0.00178  -0.00255   0.00076  -0.00674
  82       14D-2        0.00000  -0.00003   0.00003   0.00001   0.00001
  83       15F 0        0.00000  -0.00134   0.00089   0.00055  -0.00226
  84       15F+1        0.00000   0.00000  -0.00001   0.00001  -0.00003
  85       15F-1        0.00000   0.00069  -0.00153   0.00133  -0.00387
  86       15F+2        0.00000  -0.00254   0.00213  -0.00017  -0.00169
  87       15F-2        0.00000   0.00003  -0.00003   0.00000   0.00001
  88       15F+3        0.00000  -0.00004   0.00002   0.00001  -0.00005
  89       15F-3        0.00000  -0.00188   0.00082   0.00064  -0.00343
  90       16F 0        0.00000  -0.00016  -0.00034   0.00001  -0.00041
  91       16F+1        0.00000   0.00000   0.00000   0.00000  -0.00002
  92       16F-1        0.00000  -0.00018   0.00004   0.00150  -0.00207
  93       16F+2        0.00000   0.00009  -0.00068  -0.00028  -0.00058
  94       16F-2        0.00000   0.00000   0.00000   0.00000  -0.00001
  95       16F+3        0.00000   0.00000   0.00000   0.00000  -0.00002
  96       16F-3        0.00000   0.00028  -0.00039   0.00022  -0.00131
  97 3   Cl 1S         -0.70468   0.04533   0.05311  -0.02139  -0.01156
  98        2S         -0.00713  -0.16944  -0.19864   0.08000   0.04389
  99        3S         -0.00011   0.36242   0.42570  -0.17262  -0.09562
 100        4S         -0.00016   0.04392   0.05349  -0.02260  -0.01502
 101        5S          0.00004   0.21876   0.26442  -0.11351  -0.10003
 102        6S          0.00005  -0.00694  -0.01010   0.00231  -0.02622
 103        7PX         0.00000   0.00001  -0.00004  -0.00005   0.00070
 104        7PY        -0.00051   0.01656  -0.00006  -0.00089   0.11147
 105        7PZ         0.00042  -0.00738  -0.00751  -0.01896   0.10251
 106        8PX         0.00000  -0.00004   0.00010   0.00012  -0.00164
 107        8PY         0.00006  -0.02466   0.01613   0.00179  -0.25415
 108        8PZ        -0.00004   0.00559   0.01011   0.04837  -0.24582
 109        9PX         0.00000  -0.00001   0.00004   0.00006  -0.00079
 110        9PY        -0.00006  -0.01076   0.00735   0.00013  -0.12138
 111        9PZ         0.00005   0.00287   0.00426   0.02271  -0.11770
 112       10PX         0.00000   0.00001   0.00005   0.00012  -0.00110
 113       10PY        -0.00006   0.00080   0.01530   0.00732  -0.13130
 114       10PZ         0.00003  -0.00310  -0.00339   0.02635  -0.17774
 115       11PX         0.00000   0.00001  -0.00001   0.00000  -0.00004
 116       11PY        -0.00001   0.00400   0.00285  -0.00037  -0.00048
 117       11PZ         0.00000  -0.00165  -0.00318  -0.00016  -0.00602
 118       12D 0        0.00000  -0.00056   0.00079   0.00277  -0.00687
 119       12D+1        0.00000   0.00000   0.00000   0.00000  -0.00002
 120       12D-1        0.00001  -0.00733  -0.00540  -0.00268  -0.00283
 121       12D+2        0.00000  -0.00602  -0.00271   0.00056  -0.01017
 122       12D-2        0.00000   0.00001  -0.00001  -0.00001   0.00005
 123       13D 0        0.00000  -0.00124   0.00178   0.00465  -0.00840
 124       13D+1        0.00000  -0.00001   0.00001   0.00000  -0.00002
 125       13D-1        0.00002  -0.00711  -0.00468  -0.00428  -0.00196
 126       13D+2        0.00001  -0.00632  -0.00176   0.00149  -0.01208
 127       13D-2        0.00000   0.00001  -0.00002  -0.00001   0.00007
 128       14D 0        0.00000   0.00098  -0.00106   0.00300  -0.00868
 129       14D+1        0.00000   0.00001  -0.00001   0.00000  -0.00005
 130       14D-1       -0.00002   0.00195   0.00314  -0.00202   0.00365
 131       14D+2       -0.00002   0.00178   0.00255   0.00076  -0.00674
 132       14D-2        0.00000   0.00000  -0.00001  -0.00002   0.00008
 133       15F 0        0.00000  -0.00134  -0.00089   0.00055  -0.00226
 134       15F+1        0.00000   0.00000   0.00000   0.00000   0.00000
 135       15F-1        0.00000  -0.00069  -0.00153  -0.00133   0.00387
 136       15F+2        0.00000  -0.00254  -0.00213  -0.00017  -0.00169
 137       15F-2        0.00000   0.00000   0.00000   0.00000   0.00002
 138       15F+3        0.00000   0.00000   0.00000   0.00000   0.00002
 139       15F-3        0.00000   0.00188   0.00082  -0.00064   0.00343
 140       16F 0        0.00000  -0.00016   0.00034   0.00001  -0.00041
 141       16F+1        0.00000   0.00000   0.00000  -0.00001   0.00000
 142       16F-1        0.00000   0.00018   0.00004  -0.00150   0.00207
 143       16F+2        0.00000   0.00009   0.00068  -0.00028  -0.00058
 144       16F-2        0.00000   0.00000  -0.00001   0.00000   0.00002
 145       16F+3        0.00000   0.00000   0.00000   0.00000   0.00001
 146       16F-3        0.00000  -0.00028  -0.00039  -0.00022   0.00131
 147 4   S  1S         -0.00058   0.01649   0.00000   0.05805   0.00460
 148        2S         -0.00001  -0.06338   0.00000  -0.22211  -0.01763
 149        3S          0.00000   0.13134  -0.00001   0.47010   0.03870
 150        4S          0.00000   0.01580   0.00000   0.06108   0.00542
 151        5S          0.00000   0.05492   0.00000   0.24351   0.07681
 152        6S          0.00000  -0.00307   0.00000  -0.03125   0.02510
 153        7PX         0.00000   0.00001  -0.00004   0.00002   0.00002
 154        7PY         0.00024   0.00000  -0.01106   0.00000   0.00000
 155        7PZ         0.00000   0.02164   0.00000   0.04434   0.00199
 156        8PX         0.00000  -0.00005   0.00011  -0.00004  -0.00002
 157        8PY         0.00002   0.00000   0.03238   0.00000   0.00000
 158        8PZ         0.00000  -0.03273   0.00000  -0.05565  -0.00652
 159        9PX         0.00000  -0.00002   0.00004  -0.00003  -0.00002
 160        9PY         0.00001   0.00000   0.01227   0.00000   0.00000
 161        9PZ         0.00000  -0.01618   0.00000  -0.03098  -0.00186
 162       10PX         0.00000  -0.00004   0.00003  -0.00014   0.00027
 163       10PY         0.00002   0.00000   0.00999   0.00000   0.00000
 164       10PZ         0.00000   0.00084   0.00000   0.01616  -0.01739
 165       11PX         0.00000   0.00001  -0.00001  -0.00003   0.00005
 166       11PY         0.00000   0.00000  -0.00149   0.00000   0.00000
 167       11PZ         0.00000   0.00231   0.00000   0.00823   0.00053
 168       12D 0        0.00000   0.00675   0.00000   0.00985   0.00074
 169       12D+1        0.00000   0.00002  -0.00002   0.00000  -0.00002
 170       12D-1       -0.00002   0.00000  -0.00509   0.00000   0.00000
 171       12D+2        0.00000   0.00017   0.00000   0.00037   0.00325
 172       12D-2        0.00000   0.00000  -0.00001   0.00000  -0.00002
 173       13D 0        0.00000   0.00991   0.00000   0.02410   0.00124
 174       13D+1        0.00000   0.00001  -0.00001   0.00000   0.00001
 175       13D-1        0.00000   0.00000  -0.00339   0.00000   0.00000
 176       13D+2        0.00000  -0.00001   0.00000   0.00099   0.00241
 177       13D-2        0.00000   0.00000   0.00000  -0.00001  -0.00002
 178       14D 0        0.00000  -0.00238   0.00000  -0.00880  -0.00078
 179       14D+1        0.00000   0.00001   0.00001   0.00005  -0.00011
 180       14D-1       -0.00001   0.00000   0.00200   0.00000   0.00000
 181       14D+2        0.00000  -0.00175   0.00000  -0.00088   0.00539
 182       14D-2        0.00000   0.00001  -0.00002   0.00001  -0.00004
 183       15F 0        0.00000  -0.00300   0.00000  -0.00874  -0.00079
 184       15F+1        0.00000   0.00000   0.00001   0.00000   0.00000
 185       15F-1        0.00000   0.00000   0.00171   0.00000   0.00000
 186       15F+2        0.00000   0.00018   0.00000  -0.00031  -0.00042
 187       15F-2        0.00000   0.00000   0.00000   0.00000   0.00000
 188       15F+3        0.00000   0.00000   0.00000   0.00000   0.00000
 189       15F-3        0.00000   0.00000   0.00009   0.00000   0.00000
 190       16F 0        0.00000   0.00068   0.00000   0.00506  -0.00015
 191       16F+1        0.00000  -0.00001   0.00000   0.00000   0.00001
 192       16F-1        0.00001   0.00000   0.00077   0.00000   0.00000
 193       16F+2        0.00000  -0.00061   0.00000  -0.00075  -0.00132
 194       16F-2        0.00000   0.00000   0.00001   0.00001   0.00001
 195       16F+3        0.00000   0.00000   0.00000   0.00000   0.00000
 196       16F-3        0.00000   0.00000   0.00035   0.00000   0.00000
                          21        22        23        24        25
     Eigenvalues --     1.94891   1.94878   1.94808   1.94659   1.94109
   1 1   C  1S          0.12010   0.00010  -0.00145   0.00000   0.00001
   2        2S         -0.33573  -0.00029   0.00406   0.00000  -0.00003
   3        3S         -0.08049  -0.00007   0.00098   0.00000  -0.00001
   4        4S         -0.21036  -0.00018   0.00279   0.00000  -0.00002
   5        5S         -0.00823  -0.00001  -0.00030   0.00000   0.00000
   6        6PX         0.00134   0.00029   0.09635   0.00000   0.00059
   7        6PY        -0.00008   0.08140  -0.00034   0.00008   0.16849
   8        6PZ         0.03754   0.00003  -0.00058   0.00000  -0.00002
   9        7PX         0.00193   0.00039   0.13760   0.00001   0.00083
  10        7PY        -0.00011   0.11152  -0.00048   0.00012   0.23752
  11        7PZ         0.06337   0.00006  -0.00094   0.00000  -0.00003
  12        8PX         0.00068   0.00012   0.06219   0.00000   0.00029
  13        8PY        -0.00004   0.03470  -0.00022   0.00049   0.08313
  14        8PZ        -0.01873  -0.00002  -0.00055   0.00000  -0.00001
  15        9PX        -0.00001   0.00004   0.00653   0.00000  -0.00003
  16        9PY        -0.00001   0.01051  -0.00002   0.00022  -0.00728
  17        9PZ        -0.00342   0.00000  -0.00022   0.00000   0.00000
  18       10D 0        0.00200   0.00000   0.00004   0.00000   0.00000
  19       10D+1       -0.00008   0.00002  -0.00724   0.00000  -0.00002
  20       10D-1        0.00000   0.00491   0.00003  -0.00001  -0.00696
  21       10D+2        0.00752   0.00001  -0.00012   0.00007   0.00000
  22       10D-2       -0.00005  -0.00004   0.00000   0.01063  -0.00005
  23       11D 0        0.00768   0.00001   0.00009   0.00000   0.00000
  24       11D+1       -0.00027   0.00006  -0.02313   0.00000  -0.00005
  25       11D-1       -0.00001   0.01661   0.00008  -0.00003  -0.01383
  26       11D+2        0.01722   0.00001  -0.00032   0.00023   0.00000
  27       11D-2       -0.00012  -0.00008   0.00000   0.03235  -0.00009
  28       12D 0       -0.02161  -0.00002   0.00050   0.00000   0.00000
  29       12D+1        0.00005  -0.00013   0.01639   0.00000   0.00004
  30       12D-1        0.00003  -0.03734  -0.00006   0.00037   0.01093
  31       12D+2       -0.00660   0.00000   0.00025  -0.00008   0.00000
  32       12D-2        0.00005   0.00001   0.00000  -0.01091  -0.00007
  33       13F 0       -0.00361   0.00000   0.00003   0.00000   0.00000
[...]
  53        7PX         0.00009  -0.01624   0.00000  -0.00004  -0.00005
  54        7PY         0.02347  -0.00004  -0.01325   0.00396  -0.01632
  55        7PZ         0.00126   0.00003  -0.00377  -0.01090  -0.01454
  56        8PX         0.00171  -0.19167   0.00008  -0.00037  -0.00118
  57        8PY         0.38085  -0.00172  -0.16763   0.05122  -0.26186
  58        8PZ         0.02821  -0.00048  -0.03794  -0.13873  -0.23679
  59        9PX        -0.00033   0.06220   0.00000   0.00015   0.00020
  60        9PY        -0.08623   0.00023   0.05154  -0.01471   0.06180
  61        9PZ        -0.00144  -0.00008   0.01555   0.04276   0.05564
  62       10PX        -0.03326   0.83873  -0.00175   0.00719   0.00868
  63       10PY        -5.27805   0.00155   0.79847   0.57504   1.92675
  64       10PZ        -2.67071  -0.00389   0.56705   1.39787   1.36155
  65       11PX        -0.01593  -2.38621   0.00645  -0.00455   0.02289
  66       11PY        -2.44613   0.02575  -1.70574   1.27018   1.48622
  67       11PZ        -1.44532   0.04737   1.02221  -2.72971   1.55265
  68       12D 0        0.01860   0.00031  -0.01018  -0.02333  -0.00528
  69       12D+1        0.00002  -0.01498  -0.00006  -0.00022   0.00019
  70       12D-1       -0.01973   0.00079   0.00286  -0.00128   0.01695
  71       12D+2        0.04170  -0.00082   0.04296   0.00782   0.01300
  72       12D-2       -0.00044  -0.02191  -0.00030  -0.00011   0.00013
  73       13D 0       -0.11048  -0.00120   0.05507   0.09014   0.00205
  74       13D+1       -0.00059   0.06291   0.00036   0.00098  -0.00107
  75       13D-1        0.00363  -0.00348   0.01567   0.04462  -0.09343
  76       13D+2       -0.12975   0.00343  -0.14865  -0.03770  -0.03426
  77       13D-2        0.00140   0.09136   0.00091   0.00071  -0.00084
  78       14D 0        0.38108   0.00255  -0.01956  -0.18966   0.07759
  79       14D+1       -0.00562  -0.09186  -0.00117   0.00130   0.00468
  80       14D-1       -1.30064   0.00559   0.15482   0.31764   0.51005
  81       14D+2        1.06101  -0.00423   0.31125  -0.02593  -0.31891
  82       14D-2       -0.01426   0.10392  -0.00330   0.00065   0.00414
  83       15F 0       -0.01734   0.00024   0.02928   0.00247   0.00770
  84       15F+1       -0.00019  -0.01116   0.00018  -0.00023  -0.00014
  85       15F-1        0.03744   0.00005  -0.00632   0.01323  -0.00291
  86       15F+2       -0.01969  -0.00023   0.00830   0.02668   0.02175
  87       15F-2        0.00033  -0.00527   0.00000  -0.00033  -0.00030
  88       15F+3        0.00010   0.05130   0.00030   0.00005   0.00028
  89       15F-3        0.01591  -0.00041   0.01989  -0.00418   0.03297
  90       16F 0        0.07308  -0.00010  -0.06275  -0.04579   0.00473
  91       16F+1        0.00018   0.00737  -0.00026   0.00032   0.00037
  92       16F-1       -0.12831  -0.00009   0.03443  -0.02588  -0.00164
  93       16F+2        0.10460   0.00078  -0.01789  -0.07631  -0.03849
  94       16F-2       -0.00148   0.02334  -0.00010   0.00099   0.00035
  95       16F+3        0.00026  -0.13110  -0.00014  -0.00017  -0.00047
  96       16F-3       -0.00385   0.00139  -0.01995   0.01084  -0.07457
  97 3   Cl 1S         -0.01581   0.00016  -0.00994   0.00533   0.00345
  98        2S         -0.21257   0.00285  -0.18488   0.10106   0.08000
  99        3S         -0.60370   0.00675  -0.41696   0.22275   0.15649
 100        4S          0.02527  -0.00198   0.16664  -0.10458  -0.09989
 101        5S          4.85262  -0.02832   0.87873   0.04507  -0.12628
 102        6S         13.79999   0.07239  -7.16276   5.28189  10.02667
 103        7PX         0.00007  -0.01624  -0.00009  -0.00007   0.00006
 104        7PY         0.02346   0.00015  -0.01325  -0.00396   0.01632
 105        7PZ        -0.00126   0.00003   0.00377  -0.01090  -0.01454
 106        8PX         0.00095  -0.19166  -0.00125  -0.00073   0.00065
 107        8PY         0.38084   0.00306  -0.16761  -0.05122   0.26190
 108        8PZ        -0.02819  -0.00048   0.03793  -0.13874  -0.23681
 109        9PX        -0.00028   0.06220   0.00036   0.00025  -0.00023
 110        9PY        -0.08622  -0.00066   0.05154   0.01470  -0.06181
 111        9PZ         0.00144  -0.00008  -0.01555   0.04276   0.05564
 112       10PX        -0.00364   0.83875   0.00733   0.00317  -0.00479
 113       10PY        -5.27820  -0.00742   0.79834  -0.57522  -1.92692
 114       10PZ         2.67068  -0.00389  -0.56700   1.39800   1.36172
 115       11PX        -0.00116  -2.38636  -0.01837  -0.01343   0.01251
 116       11PY        -2.44623  -0.00908  -1.70590  -1.27016  -1.48625
 117       11PZ         1.44559   0.04737  -1.02213  -2.72970   1.55277
 118       12D 0       -0.01859   0.00031   0.01018  -0.02333  -0.00528
 119       12D+1       -0.00016  -0.01498   0.00008  -0.00021   0.00007
 120       12D-1       -0.01974  -0.00068   0.00285   0.00128  -0.01695
 121       12D+2       -0.04171  -0.00051  -0.04296   0.00782   0.01299
 122       12D-2        0.00014   0.02192   0.00030   0.00000  -0.00032
 123       13D 0        0.11046  -0.00120  -0.05507   0.09014   0.00205
 124       13D+1        0.00061   0.06293  -0.00025   0.00067  -0.00042
 125       13D-1        0.00366   0.00304   0.01568  -0.04462   0.09344
 126       13D+2        0.12979   0.00215   0.14864  -0.03771  -0.03424
 127       13D-2       -0.00042  -0.09140  -0.00117  -0.00018   0.00132
 128       14D 0       -0.38107   0.00255   0.01955  -0.18966   0.07761
 129       14D+1       -0.00347  -0.09188   0.00225  -0.00092   0.00111
 130       14D-1       -1.30074  -0.00495   0.15478  -0.31769  -0.51012
 131       14D+2       -1.06117  -0.00569  -0.31129  -0.02596  -0.31894
 132       14D-2        0.00057  -0.10388   0.00105  -0.00029   0.00032
 133       15F 0        0.01734   0.00024  -0.02928   0.00247   0.00770
 134       15F+1        0.00045  -0.01116  -0.00022  -0.00032  -0.00012
 135       15F-1        0.03744   0.00002  -0.00632  -0.01323   0.00291
 136       15F+2        0.01969  -0.00015  -0.00830   0.02668   0.02175
 137       15F-2        0.00005   0.00527   0.00012  -0.00004   0.00000
 138       15F+3        0.00024   0.05130   0.00012   0.00014  -0.00041
 139       15F-3        0.01591  -0.00067   0.01989   0.00418  -0.03297
 140       16F 0       -0.07309  -0.00010   0.06275  -0.04579   0.00474
 141       16F+1       -0.00107   0.00737   0.00050   0.00050   0.00038
 142       16F-1       -0.12830   0.00004   0.03443   0.02587   0.00163
 143       16F+2       -0.10461   0.00045   0.01788  -0.07631  -0.03850
 144       16F-2       -0.00002  -0.02336  -0.00035   0.00008   0.00019
 145       16F+3       -0.00034  -0.13110  -0.00027  -0.00039   0.00109
 146       16F-3       -0.00384   0.00136  -0.01994  -0.01083   0.07456
 147 4   S  1S          0.00000  -0.00003   0.00000   0.00197  -0.00377
 148        2S          0.00002  -0.00052   0.00000   0.00002  -0.06313
 149        3S          0.00007  -0.00140   0.00000   0.06161  -0.16987
 150        4S         -0.00002  -0.00003   0.00000   0.10451   0.02265
 151        5S         -0.00019   0.05166   0.00006  -3.77691   2.29627
 152        6S         -0.00027   0.11225   0.00019 -15.53972   4.09807
 153        7PX         0.00006  -0.01985   0.00001  -0.00014   0.00008
 154        7PY         0.01748   0.00007   0.00356   0.00000   0.00000
 155        7PZ         0.00000  -0.00010   0.00000  -0.00754  -0.00126
 156        8PX         0.00093  -0.08879   0.00046  -0.00040  -0.00035
 157        8PY         0.26702   0.00031   0.13278   0.00001   0.00000
 158        8PZ        -0.00004  -0.00405   0.00000  -0.01156  -0.13103
 159        9PX        -0.00023   0.07446  -0.00004   0.00053  -0.00033
 160        9PY        -0.06530  -0.00026  -0.01182   0.00000   0.00000
 161        9PZ         0.00001   0.00025   0.00000   0.02088   0.00103
 162       10PX        -0.01214  -0.63794  -0.00143   0.00464   0.01704
 163       10PY        -3.47463   0.00223  -0.40831  -0.00001   0.00000
 164       10PZ         0.00025  -0.01247  -0.00002   3.57596  -0.33022
 165       11PX        -0.00019  -4.11320  -0.01658  -0.03874   0.03092
 166       11PY        -0.05731   0.01437  -4.74524   0.00017   0.00005
 167       11PZ         0.00012   0.03002  -0.00003  -1.07923   0.78851
 168       12D 0        0.00000   0.00715   0.00000  -0.45694   0.32983
 169       12D+1       -0.00027  -0.34335  -0.00127  -0.00424   0.00328
 170       12D-1       -0.07823   0.00120  -0.36442   0.00001  -0.00001
 171       12D+2        0.00000  -0.00092   0.00000   0.11222  -0.14711
 172       12D-2       -0.00033   0.00001   0.00064  -0.00078   0.00103
 173       13D 0        0.00000  -0.00144   0.00000   0.08599  -0.08191
 174       13D+1        0.00015   0.07022   0.00025   0.00064  -0.00076
 175       13D-1        0.04208  -0.00025   0.07058   0.00000   0.00000
 176       13D+2        0.00000   0.00027   0.00000  -0.03294   0.03039
 177       13D-2        0.00004   0.00000  -0.00021   0.00023  -0.00021
 178       14D 0       -0.00006  -0.01952  -0.00002   0.19407  -1.16053
 179       14D+1        0.00508   1.23937   0.00322   0.00653  -0.01877
 180       14D-1        1.45378  -0.00433   0.92293  -0.00003   0.00001
 181       14D+2        0.00001   0.00652   0.00001  -0.44366   0.17440
 182       14D-2       -0.00449  -0.00004   0.00154   0.00310  -0.00122
 183       15F 0        0.00000  -0.00022   0.00000  -0.01309  -0.01299
 184       15F+1       -0.00024   0.01521   0.00002  -0.00008  -0.00054
 185       15F-1       -0.06905  -0.00005   0.00563   0.00000   0.00000
 186       15F+2        0.00000   0.00016   0.00000  -0.01301   0.00189
 187       15F-2       -0.00039   0.00000   0.00024   0.00009  -0.00001
 188       15F+3       -0.00003   0.02671   0.00042   0.00008   0.00003
 189       15F-3       -0.00273  -0.00028   0.04049   0.00000   0.00000
 190       16F 0        0.00000   0.00093   0.00001   0.07779   0.13227
 191       16F+1        0.00036  -0.01680   0.00005   0.00121   0.00189
 192       16F-1        0.10223   0.00006   0.01317   0.00000   0.00000
 193       16F+2        0.00000  -0.00163   0.00000   0.07212   0.01711
 194       16F-2        0.00209   0.00001  -0.00090  -0.00050  -0.00012
 195       16F+3        0.00018  -0.06017  -0.00099  -0.00022  -0.00025
 196       16F-3        0.01677   0.00063  -0.09420   0.00000   0.00001
                         196
     Eigenvalues --     0.00000
   1 1   C  1S         -0.03328
   2        2S         -0.12033
   3        3S          0.13353
   4        4S          2.58681
   5        5S         21.00205
   6        6PX        -0.00017
   7        6PY         0.00000
   8        6PZ         0.02244
   9        7PX         0.00089
  10        7PY        -0.00001
  11        7PZ        -0.20363
  12        8PX         0.00331
  13        8PY         0.00012
  14        8PZ         1.17488
  15        9PX        -0.02964
  16        9PY         0.00024
  17        9PZ         3.35441
  18       10D 0        0.01263
  19       10D+1        0.00004
  20       10D-1        0.00000
  21       10D+2       -0.03508
  22       10D-2        0.00025
  23       11D 0       -0.33376
  24       11D+1       -0.00054
  25       11D-1        0.00001
  26       11D+2        0.17072
  27       11D-2       -0.00119
  28       12D 0       -1.00188
  29       12D+1       -0.00281
  30       12D-1        0.00010
  31       12D+2       -0.74301
  32       12D-2        0.00519
  33       13F 0       -0.02586
  34       13F+1       -0.00008
  35       13F-1        0.00000
  36       13F+2       -0.00085
  37       13F-2        0.00001
  38       13F+3        0.00000
  39       13F-3        0.00000
  40       14F 0       -0.14231
  41       14F+1        0.00057
  42       14F-1        0.00000
  43       14F+2       -0.11999
  44       14F-2        0.00084
  45       14F+3       -0.00087
  46       14F-3        0.00001
  47 2   Cl 1S         -0.00100
  48        2S         -0.01374
  49        3S         -0.03848
  50        4S         -0.00156
  51        5S          0.37742
  52        6S         -3.45646
  53        7PX         0.00014
  54        7PY         0.00804
  55        7PZ         0.00364
  56        8PX         0.00204
  57        8PY         0.14300
  58        8PZ         0.08867
  59        9PX        -0.00052
  60        9PY        -0.02913
  61        9PZ        -0.01142
  62       10PX        -0.00462
  63       10PY         0.13616
  64       10PZ        -0.42101
  65       11PX         0.00331
  66       11PY        -0.73566
  67       11PZ        -1.02040
  68       12D 0        0.00841
  69       12D+1       -0.00009
  70       12D-1       -0.01034
  71       12D+2       -0.00802
  72       12D-2        0.00004
  73       13D 0       -0.04126
  74       13D+1        0.00062
  75       13D-1        0.08801
  76       13D+2       -0.00850
  77       13D-2        0.00034
  78       14D 0       -0.05266
  79       14D+1       -0.00232
  80       14D-1       -0.17124
  81       14D+2       -0.16920
  82       14D-2        0.00083
  83       15F 0       -0.00508
  84       15F+1        0.00012
  85       15F-1        0.00674
  86       15F+2       -0.00373
  87       15F-2        0.00023
  88       15F+3       -0.00011
  89       15F-3       -0.00210
  90       16F 0        0.00442
  91       16F+1       -0.00037
  92       16F-1       -0.02075
  93       16F+2       -0.00463
  94       16F-2       -0.00035
  95       16F+3       -0.00010
  96       16F-3       -0.01059
  97 3   Cl 1S         -0.00100
  98        2S         -0.01374
  99        3S         -0.03848
 100        4S         -0.00156
 101        5S          0.37749
 102        6S         -3.45674
 103        7PX         0.00008
 104        7PY        -0.00805
 105        7PZ         0.00364
 106        8PX         0.00104
 107        8PY        -0.14301
 108        8PZ         0.08868
 109        9PX        -0.00031
 110        9PY         0.02913
 111        9PZ        -0.01142
 112       10PX        -0.00558
 113       10PY        -0.13611
 114       10PZ        -0.42110
 115       11PX         0.00845
 116       11PY         0.73559
 117       11PZ        -1.02046
 118       12D 0        0.00841
 119       12D+1       -0.00002
 120       12D-1        0.01034
 121       12D+2       -0.00802
 122       12D-2        0.00007
 123       13D 0       -0.04126
 124       13D+1        0.00000
 125       13D-1       -0.08802
 126       13D+2       -0.00850
 127       13D-2       -0.00022
 128       14D 0       -0.05269
 129       14D+1       -0.00112
 130       14D-1        0.17128
 131       14D+2       -0.16919
 132       14D-2        0.00153
 133       15F 0       -0.00508
 134       15F+1        0.00007
 135       15F-1       -0.00674
 136       15F+2       -0.00373
 137       15F-2       -0.00018
 138       15F+3       -0.00007
 139       15F-3        0.00211
 140       16F 0        0.00442
 141       16F+1       -0.00022
 142       16F-1        0.02076
 143       16F+2       -0.00463
 144       16F-2        0.00041
 145       16F+3        0.00013
 146       16F-3        0.01059
 147 4   S  1S         -0.00436
 148        2S         -0.11023
 149        3S         -0.23208
 150        4S          0.10628
 151        5S          2.75934
 152        6S        -18.13877
 153        7PX         0.00000
 154        7PY         0.00000
 155        7PZ        -0.04535
 156        8PX        -0.00020
 157        8PY         0.00000
 158        8PZ        -0.91012
 159        9PX        -0.00002
 160        9PY         0.00000
 161        9PZ         0.14224
 162       10PX         0.00060
 163       10PY        -0.00010
 164       10PZ         3.43804
 165       11PX         0.01042
 166       11PY        -0.00009
 167       11PZ         4.74861
 168       12D 0        0.31473
 169       12D+1        0.00055
 170       12D-1        0.00000
 171       12D+2        0.09105
 172       12D-2       -0.00064
 173       13D 0       -0.00638
 174       13D+1       -0.00005
 175       13D-1        0.00000
 176       13D+2       -0.02094
 177       13D-2        0.00015
 178       14D 0       -1.71123
 179       14D+1       -0.00071
 180       14D-1        0.00005
 181       14D+2        0.03779
 182       14D-2       -0.00026
 183       15F 0       -0.08746
 184       15F+1        0.00016
 185       15F-1        0.00000
 186       15F+2        0.01203
 187       15F-2       -0.00008
 188       15F+3       -0.00010
 189       15F-3        0.00000
 190       16F 0        0.18830
 191       16F+1       -0.00060
 192       16F-1       -0.00001
 193       16F+2       -0.08512
 194       16F-2        0.00059
 195       16F+3        0.00036
 196       16F-3       -0.00001
          Condensed to atoms (all electrons):
              1          2          3          4
     1  C    5.673220   0.071298   0.071283   0.179125
     2  Cl   0.071298  17.191986  -0.119032  -0.128553
     3  Cl   0.071283  -0.119032  17.191980  -0.128557
     4  S    0.179125  -0.128553  -0.128557  16.051687
 Mulliken atomic charges:
              1
     1  C    0.005075
     2  Cl  -0.015698
     3  Cl  -0.015674
     4  S    0.026297
 Sum of Mulliken atomic charges =   0.00000
 Mulliken charges with hydrogens summed into heavy atoms:
              1
     1  C    0.005075
     2  Cl  -0.015698
     3  Cl  -0.015674
     4  S    0.026297
 Sum of Mulliken charges with hydrogens summed into heavy atoms =   0.00000
 Electronic spatial extent (au):  <R**2>=            690.6831
 Charge=              0.0000 electrons
 Dipole moment (field-independent basis, Debye):
    X=             -0.0025    Y=              0.0001    Z=             -0.4350  Tot=              0.4350
 Quadrupole moment (field-independent basis, Debye-Ang):
   XX=            -43.1530   YY=            -43.2925   ZZ=            -42.5375
   XY=             -0.0005   XZ=              0.0009   YZ=             -0.0002
 Traceless Quadrupole moment (field-independent basis, Debye-Ang):
   XX=             -0.1586   YY=             -0.2982   ZZ=              0.4569
   XY=             -0.0005   XZ=              0.0009   YZ=             -0.0002
 Octapole moment (field-independent basis, Debye-Ang**2):
  XXX=              0.3706  YYY=              0.0007  ZZZ=             81.6768  XYY=              0.0891
  XXY=             -0.0001  XXZ=             27.1313  XZZ=              0.1023  YZZ=              0.0004
  YYZ=             18.9949  XYZ=             -0.0284
 Hexadecapole moment (field-independent basis, Debye-Ang**3):
 XXXX=            -50.9016 YYYY=           -340.4826 ZZZZ=           -477.7195 XXXY=             -0.5479
 XXXZ=             -0.5726 YYYX=             -0.4641 YYYZ=             -0.0012 ZZZX=             -0.5273
 ZZZY=             -0.0010 XXYY=            -69.2263 XXZZ=            -89.7498 YYZZ=           -127.3455
 XXYZ=              0.0004 YYXZ=             -0.1038 ZZXY=             -0.1314
 N-N= 2.448918981380D+02 E-N=-3.713352694206D+03  KE= 1.355036322330D+03
 1\1\GINC-TRAPISTA\SP\RQCISD-FC\Aug-CC-pVTZ\C1Cl2S1\BRUNS\27-Nov-2021\0
 \\# qcisd/aug-cc-pvtz nosymm density=current output=wfn\\cl2cs-wavefun
 ction\\0,1\C,0,0.,0.,-0.522914\Cl,0,-0.01,-1.430735,-1.5009\Cl,0,0.,1.
 430735,-1.5009\S,0,0.,0.,1.081815\\Version=EM64L-G09RevB.01\HF=-1354.4
 260221\MP2=-1355.1503968\MP3=-1355.1829968\MP4D=-1355.2047769\MP4DQ=-1
 355.1798906\MP4SDQ=-1355.1867139\QCISD=-1355.1842278\RMSD=9.620e-09\Di
 pole=-0.0009887,0.0000453,-0.1711456\Quadrupole=-0.1179491,-0.2217122,
 0.3396613,-0.000363,0.0006638,-0.0001315\PG=C01 [X(C1Cl2S1)]\\@

 Writing a WFN file to GAUSSIAN.wfn.


 IT CANNOT BE MY BEAUTY, FOR I HAVE NONE; AND IT CANNOT BE MY WIT,
 FOR HE HAS NOT ENOUGH TO KNOW THAT I HAVE ANY.
 -- CATHARINE SEDLEY, PUZZLED ABOUT WHY SHE WAS MISTRESS TO JAMES II
 Job cpu time:  0 days  2 hours 25 minutes 58.5 seconds.
 File lengths (MBytes):  RWF=  18573 Int=      0 D2E=      0 Chk=      3 Scr=      1
 Normal termination of Gaussian 09 at Sat Nov 27 22:14:53 2021.
