 Entering Gaussian System, Link 0=/home/bruns/programas/chemistry/gaussian/g09/g09
 Input=GAUSSIAN.com
 Output=GAUSSIAN.log
 Initial command:
 /home/bruns/programas/chemistry/gaussian/g09/l1.exe /home/bruns/programas/chemistry/gaussian/work/Gau-57530.inp -scrdir=/home/bruns/programas/chemistry/gaussian/work/
 Entering Link 1 = /home/bruns/programas/chemistry/gaussian/g09/l1.exe PID=     57532.
  
 Copyright (c) 1988,1990,1992,1993,1995,1998,2003,2009,2010,
            Gaussian, Inc.  All Rights Reserved.
  
 This is part of the Gaussian(R) 09 program.  It is based on
 the Gaussian(R) 03 system (copyright 2003, Gaussian, Inc.),
 the Gaussian(R) 98 system (copyright 1998, Gaussian, Inc.),
 the Gaussian(R) 94 system (copyright 1995, Gaussian, Inc.),
 the Gaussian 92(TM) system (copyright 1992, Gaussian, Inc.),
 the Gaussian 90(TM) system (copyright 1990, Gaussian, Inc.),
 the Gaussian 88(TM) system (copyright 1988, Gaussian, Inc.),
 the Gaussian 86(TM) system (copyright 1986, Carnegie Mellon
 University), and the Gaussian 82(TM) system (copyright 1983,
 Carnegie Mellon University). Gaussian is a federally registered
 trademark of Gaussian, Inc.
  
 This software contains proprietary and confidential information,
 including trade secrets, belonging to Gaussian, Inc.
  
 This software is provided under written license and may be
 used, copied, transmitted, or stored only in accord with that
 written license.
  
 The following legend is applicable only to US Government
 contracts under FAR:
  
                    RESTRICTED RIGHTS LEGEND
  
 Use, reproduction and disclosure by the US Government is
 subject to restrictions as set forth in subparagraphs (a)
 and (c) of the Commercial Computer Software - Restricted
 Rights clause in FAR 52.227-19.
  
 Gaussian, Inc.
 340 Quinnipiac St., Bldg. 40, Wallingford CT 06492
  
  
 ---------------------------------------------------------------
 Warning -- This program may not be used in any manner that
 competes with the business of Gaussian, Inc. or will provide
 assistance to any competitor of Gaussian, Inc.  The licensee
 of this program is prohibited from giving any competitor of
 Gaussian, Inc. access to this program.  By using this program,
 the user acknowledges that Gaussian, Inc. is engaged in the
 business of creating and licensing software in the field of
 computational chemistry and represents and warrants to the
 licensee that it is not a competitor of Gaussian, Inc. and that
 it will not use this program in any manner prohibited above.
 ---------------------------------------------------------------
  

 Cite this work as:
 Gaussian 09, Revision B.01,
 M. J. Frisch, G. W. Trucks, H. B. Schlegel, G. E. Scuseria, 
 M. A. Robb, J. R. Cheeseman, G. Scalmani, V. Barone, B. Mennucci, 
 G. A. Petersson, H. Nakatsuji, M. Caricato, X. Li, H. P. Hratchian, 
 A. F. Izmaylov, J. Bloino, G. Zheng, J. L. Sonnenberg, M. Hada, 
 M. Ehara, K. Toyota, R. Fukuda, J. Hasegawa, M. Ishida, T. Nakajima, 
 Y. Honda, O. Kitao, H. Nakai, T. Vreven, J. A. Montgomery, Jr., 
 J. E. Peralta, F. Ogliaro, M. Bearpark, J. J. Heyd, E. Brothers, 
 K. N. Kudin, V. N. Staroverov, T. Keith, R. Kobayashi, J. Normand, 
 K. Raghavachari, A. Rendell, J. C. Burant, S. S. Iyengar, J. Tomasi, 
 M. Cossi, N. Rega, J. M. Millam, M. Klene, J. E. Knox, J. B. Cross, 
 V. Bakken, C. Adamo, J. Jaramillo, R. Gomperts, R. E. Stratmann, 
 O. Yazyev, A. J. Austin, R. Cammi, C. Pomelli, J. W. Ochterski, 
 R. L. Martin, K. Morokuma, V. G. Zakrzewski, G. A. Voth, 
 P. Salvador, J. J. Dannenberg, S. Dapprich, A. D. Daniels, 
 O. Farkas, J. B. Foresman, J. V. Ortiz, J. Cioslowski, 
 and D. J. Fox, Gaussian, Inc., Wallingford CT, 2010.
 
 ******************************************
 Gaussian 09:  EM64L-G09RevB.01 12-Aug-2010
                27-Nov-2021 
 ******************************************
 %nproc=8
 Will use up to    8 processors via shared memory.
 %mem=8GB
 -----------------------------------------------------
 # qcisd/aug-cc-pvtz nosymm density=current output=wfn
 -----------------------------------------------------
 1/30=1,38=1/1;
 2/12=2,15=1,17=6,18=5,40=1/2;
 3/5=16,6=1,7=10,11=9,16=1,25=1,30=1,71=1/1,2,3;
 4//1;
 5/5=2,38=5/2;
 8/6=4,9=120000,10=1/1,4;
 9/5=8,15=1/13;
 11/28=-7,31=1,32=3,42=3/11;
 10/5=6,13=10,31=1/2;
 6/7=2,8=2,9=2,10=2,22=-1,31=1/1;
 99/5=1,6=1100,9=1/99;
 ------------------
 cl2cs-wavefunction
 ------------------
 Symbolic Z-matrix:
 Charge =  0 Multiplicity = 1
 C                     0.        0.       -0.51291 
 Cl                    0.       -1.43074  -1.5009 
 Cl                    0.        1.43074  -1.5009 
 S                     0.        0.        1.08181 
 
                          Input orientation:                          
 ---------------------------------------------------------------------
 Center     Atomic      Atomic             Coordinates (Angstroms)
 Number     Number       Type             X           Y           Z
 ---------------------------------------------------------------------
      1          6           0        0.000000    0.000000   -0.512914
      2         17           0        0.000000   -1.430735   -1.500900
      3         17           0        0.000000    1.430735   -1.500900
      4         16           0        0.000000    0.000000    1.081815
 ---------------------------------------------------------------------
                    Distance matrix (angstroms):
                    1          2          3          4
     1  C    0.000000
     2  Cl   1.738712   0.000000
     3  Cl   1.738712   2.861470   0.000000
     4  S    1.594729   2.952528   2.952528   0.000000
 Symmetry turned off by external request.
 Stoichiometry    CCl2S
 Framework group  C2V[C2(CS),SGV(Cl2)]
 Deg. of freedom     3
 Full point group                 C2V     NOp   4
 Rotational constants (GHZ):      3.5301033      3.4450298      1.7435239
 Standard basis: Aug-CC-pVTZ (5D, 7F)
 Integral buffers will be    131072 words long.
 Raffenetti 1 integral format.
 Two-electron integral symmetry is turned off.
   196 basis functions,   414 primitive gaussians,   232 cartesian basis functions
    28 alpha electrons       28 beta electrons
       nuclear repulsion energy       244.8886620549 Hartrees.
 NAtoms=    4 NActive=    4 NUniq=    4 SFac= 1.00D+00 NAtFMM=   50 NAOKFM=F Big=F
 One-electron integrals computed using PRISM.
 NBasis=   196 RedAO= T  NBF=   196
 NBsUse=   196 1.00D-06 NBFU=   196
 Harris functional with IExCor=  205 diagonalized for initial guess.
 ExpMin= 3.51D-02 ExpMax= 4.56D+05 ExpMxC= 1.44D+03 IAcc=3 IRadAn=         0 AccDes= 0.00D+00
 HarFok:  IExCor=  205 AccDes= 0.00D+00 IRadAn=         0 IDoV= 1
 ScaDFX=  1.000000  1.000000  1.000000  1.000000
 FoFCou: FMM=F IPFlag=           0 FMFlag=      100000 FMFlg1=           0
         NFxFlg=           0 DoJE=T BraDBF=F KetDBF=T FulRan=T
         Omega=  0.000000  0.000000  1.000000  0.000000  0.000000 ICntrl=     500 IOpCl=  0
         NMat0=    1 NMatS0=    1 NMatT0=    0 NMatD0=    1 NMtDS0=    0 NMtDT0=    0
         I1Cent=           4 NGrid=           0.
 Symmetry not used in FoFCou.
 Requested convergence on RMS density matrix=1.00D-08 within 128 cycles.
 Requested convergence on MAX density matrix=1.00D-06.
 Requested convergence on             energy=1.00D-06.
 No special actions if energy rises.
 Keep R1 ints in memory in canonical form, NReq=371777346.
 SCF Done:  E(RHF) =  -1354.42606963     A.U. after   12 cycles
             Convg  =    0.9699D-08             -V/T =  2.0001
 ExpMin= 3.51D-02 ExpMax= 4.56D+05 ExpMxC= 1.44D+03 IAcc=3 IRadAn=         5 AccDes= 0.00D+00
 HarFok:  IExCor=  205 AccDes= 0.00D+00 IRadAn=         5 IDoV=-2
 ScaDFX=  1.000000  1.000000  1.000000  1.000000
 DSYEVD returned Info=          93 IAlg= 4 N=    46 NDim=    46 NE2=    21472333 trying DSYEV.
 Range of M.O.s used for correlation:    17   196
 NBasis=   196 NAE=    28 NBE=    28 NFC=    16 NFV=     0
 NROrb=    180 NOA=    12 NOB=    12 NVA=   168 NVB=   168

 **** Warning!!: The largest alpha MO coefficient is  0.30750335D+02

 Semi-Direct transformation.
 ModeAB=           2 MOrb=            12 LenV=    1072679791
 LASXX=     33405819 LTotXX=    33405819 LenRXX=    33405819
 LTotAB=    33954012 MaxLAS=    58380480 LenRXY=    58380480
 NonZer=    66811638 LenScr=   100987392 LnRSAI=           0
 LnScr1=           0 LExtra=           0 Total=    192773691
 MaxDsk=          -1 SrtSym=           F ITran=            4
 JobTyp=0 Pass  1:  I=   1 to  12.
 (rs|ai) integrals will be sorted in core.
 Spin components of T(2) and E(2):
     alpha-alpha T2 =       0.3949269385D-01 E2=     -0.9363478661D-01
     alpha-beta  T2 =       0.2070246126D+00 E2=     -0.5369302106D+00
     beta-beta   T2 =       0.3949269385D-01 E2=     -0.9363478661D-01
 ANorm=    0.1134023809D+01
 E2 =    -0.7241997838D+00 EUMP2 =    -0.13551502694166D+04
 R2 and R3 integrals will be kept in memory, NReq=   736864364.
 Iterations=  50 Convergence= 0.100D-07
 Iteration Nr.   1
 **********************
 DD1Dir will call FoFMem   1 times, MxPair=       156
 NAB=    78 NAA=     0 NBB=     0.
 MP4(R+Q)=  0.24845872D-01
 E3=       -0.32677046D-01        EUMP3=      -0.13551829465D+04
 E4(DQ)=    0.31000979D-02        UMP4(DQ)=   -0.13551798464D+04
 E4(SDQ)=  -0.36747704D-02        UMP4(SDQ)=  -0.13551866212D+04
 DE(Corr)= -0.73203096     E(Corr)=     -1355.1581006    
 NORM(A)=   0.11379863D+01
 Iteration Nr.   2
 **********************
 DD1Dir will call FoFMem   1 times, MxPair=       156
 NAB=    78 NAA=     0 NBB=     0.
 DE(Corr)= -0.75627376     E(CORR)=     -1355.1823434     Delta=-2.42D-02
 NORM(A)=   0.11489409D+01
 Iteration Nr.   3
 **********************
 DD1Dir will call FoFMem   1 times, MxPair=       156
 NAB=    78 NAA=     0 NBB=     0.
 DE(Corr)= -0.75548502     E(CORR)=     -1355.1815547     Delta= 7.89D-04
 NORM(A)=   0.11516421D+01
 Iteration Nr.   4
 **********************
 DD1Dir will call FoFMem   1 times, MxPair=       156
 NAB=    78 NAA=     0 NBB=     0.
 DE(Corr)= -0.75772807     E(CORR)=     -1355.1837977     Delta=-2.24D-03
 NORM(A)=   0.11526924D+01
 Iteration Nr.   5
 **********************
 DD1Dir will call FoFMem   1 times, MxPair=       156
 NAB=    78 NAA=     0 NBB=     0.
 DE(Corr)= -0.75800058     E(CORR)=     -1355.1840702     Delta=-2.73D-04
 NORM(A)=   0.11532137D+01
 Iteration Nr.   6
 **********************
 DD1Dir will call FoFMem   1 times, MxPair=       156
 NAB=    78 NAA=     0 NBB=     0.
 DE(Corr)= -0.75805234     E(CORR)=     -1355.1841220     Delta=-5.18D-05
 NORM(A)=   0.11532739D+01
 Iteration Nr.   7
 **********************
 DD1Dir will call FoFMem   1 times, MxPair=       156
 NAB=    78 NAA=     0 NBB=     0.
 DE(Corr)= -0.75805940     E(CORR)=     -1355.1841290     Delta=-7.06D-06
 NORM(A)=   0.11532801D+01
 Iteration Nr.   8
 **********************
 DD1Dir will call FoFMem   1 times, MxPair=       156
 NAB=    78 NAA=     0 NBB=     0.
 DE(Corr)= -0.75805729     E(CORR)=     -1355.1841269     Delta= 2.11D-06
 NORM(A)=   0.11532864D+01
 Iteration Nr.   9
 **********************
 DD1Dir will call FoFMem   1 times, MxPair=       156
 NAB=    78 NAA=     0 NBB=     0.
 DE(Corr)= -0.75805766     E(CORR)=     -1355.1841273     Delta=-3.70D-07
 NORM(A)=   0.11532856D+01
 Iteration Nr.  10
 **********************
 DD1Dir will call FoFMem   1 times, MxPair=       156
 NAB=    78 NAA=     0 NBB=     0.
 DE(Corr)= -0.75805850     E(CORR)=     -1355.1841281     Delta=-8.44D-07
 NORM(A)=   0.11532875D+01
 Iteration Nr.  11
 **********************
 DD1Dir will call FoFMem   1 times, MxPair=       156
 NAB=    78 NAA=     0 NBB=     0.
 DE(Corr)= -0.75805929     E(CORR)=     -1355.1841289     Delta=-7.89D-07
 NORM(A)=   0.11532886D+01
 Iteration Nr.  12
 **********************
 DD1Dir will call FoFMem   1 times, MxPair=       156
 NAB=    78 NAA=     0 NBB=     0.
 DE(Corr)= -0.75805948     E(CORR)=     -1355.1841291     Delta=-1.83D-07
 NORM(A)=   0.11532894D+01
 Iteration Nr.  13
 **********************
 DD1Dir will call FoFMem   1 times, MxPair=       156
 NAB=    78 NAA=     0 NBB=     0.
 DE(Corr)= -0.75805980     E(CORR)=     -1355.1841294     Delta=-3.20D-07
 NORM(A)=   0.11532899D+01
 Iteration Nr.  14
 **********************
 DD1Dir will call FoFMem   1 times, MxPair=       156
 NAB=    78 NAA=     0 NBB=     0.
 DE(Corr)= -0.75805982     E(CORR)=     -1355.1841294     Delta=-1.97D-08
 NORM(A)=   0.11532901D+01
 Iteration Nr.  15
 **********************
 DD1Dir will call FoFMem   1 times, MxPair=       156
 NAB=    78 NAA=     0 NBB=     0.
 DE(Corr)= -0.75805987     E(CORR)=     -1355.1841295     Delta=-5.77D-08
 NORM(A)=   0.11532902D+01
 Iteration Nr.  16
 **********************
 DD1Dir will call FoFMem   1 times, MxPair=       156
 NAB=    78 NAA=     0 NBB=     0.
 DE(Corr)= -0.75805988     E(CORR)=     -1355.1841295     Delta=-1.14D-08
 NORM(A)=   0.11532902D+01
 Iteration Nr.  17
 **********************
 DD1Dir will call FoFMem   1 times, MxPair=       156
 NAB=    78 NAA=     0 NBB=     0.
 DE(Corr)= -0.75805988     E(CORR)=     -1355.1841295     Delta= 3.74D-09
 NORM(A)=   0.11532902D+01
 Iteration Nr.  18
 **********************
 DD1Dir will call FoFMem   1 times, MxPair=       156
 NAB=    78 NAA=     0 NBB=     0.
 DE(Corr)= -0.75805989     E(CORR)=     -1355.1841295     Delta=-5.10D-09
 NORM(A)=   0.11532902D+01
 Iteration Nr.  19
 **********************
 DD1Dir will call FoFMem   1 times, MxPair=       156
 NAB=    78 NAA=     0 NBB=     0.
 DE(Corr)= -0.75805988     E(CORR)=     -1355.1841295     Delta= 2.96D-09
 NORM(A)=   0.11532902D+01
 Largest amplitude= 8.72D-02

 Z-AMPLITUDE ITERATIONS

 Iteration Nr.   1
 **********************
 DD1Dir will call FoFMem   1 times, MxPair=       156
 NAB=    78 NAA=     0 NBB=     0.
 DE(Z)  -0.72628910D+00          E(Z)=    -0.13551523587D+04
 NORM(A)=   0.11532903D+01
 Iteration Nr.   2
 **********************
 DD1Dir will call FoFMem   1 times, MxPair=       156
 NAB=    78 NAA=     0 NBB=     0.
 DE(Z)  -0.72628910D+00          E(Z)=    -0.13551523587D+04
 NORM(A)=   0.11532902D+01
 Iteration Nr.   3
 **********************
 DD1Dir will call FoFMem   1 times, MxPair=       156
 NAB=    78 NAA=     0 NBB=     0.
 DE(Z)  -0.72628910D+00          E(Z)=    -0.13551523587D+04
 NORM(A)=   0.11532902D+01
 Iteration Nr.   4
 **********************
 DD1Dir will call FoFMem   1 times, MxPair=       156
 NAB=    78 NAA=     0 NBB=     0.
 DE(Z)  -0.72628910D+00          E(Z)=    -0.13551523587D+04
 NORM(A)=   0.11532902D+01
 Iteration Nr.   5
 **********************
 DD1Dir will call FoFMem   1 times, MxPair=       156
 NAB=    78 NAA=     0 NBB=     0.
 DE(Z)  -0.72628910D+00          E(Z)=    -0.13551523587D+04
 NORM(A)=   0.11382722D+01
 Iteration Nr.   6
 **********************
 DD1Dir will call FoFMem   1 times, MxPair=       156
 NAB=    78 NAA=     0 NBB=     0.
 DE(Z)  -0.72586422D+00          E(Z)=    -0.13551519339D+04
 NORM(A)=   0.11401593D+01
 Iteration Nr.   7
 **********************
 DD1Dir will call FoFMem   1 times, MxPair=       156
 NAB=    78 NAA=     0 NBB=     0.
 DE(Z)  -0.72587199D+00          E(Z)=    -0.13551519416D+04
 NORM(A)=   0.11400816D+01
 Iteration Nr.   8
 **********************
 DD1Dir will call FoFMem   1 times, MxPair=       156
 NAB=    78 NAA=     0 NBB=     0.
 DE(Z)  -0.72587570D+00          E(Z)=    -0.13551519453D+04
 NORM(A)=   0.11401046D+01
 Iteration Nr.   9
 **********************
 DD1Dir will call FoFMem   1 times, MxPair=       156
 NAB=    78 NAA=     0 NBB=     0.
 DE(Z)  -0.72589133D+00          E(Z)=    -0.13551519610D+04
 NORM(A)=   0.11401151D+01
 Iteration Nr.  10
 **********************
 DD1Dir will call FoFMem   1 times, MxPair=       156
 NAB=    78 NAA=     0 NBB=     0.
 DE(Z)  -0.72588960D+00          E(Z)=    -0.13551519592D+04
 NORM(A)=   0.11401170D+01
 Iteration Nr.  11
 **********************
 DD1Dir will call FoFMem   1 times, MxPair=       156
 NAB=    78 NAA=     0 NBB=     0.
 DE(Z)  -0.72589038D+00          E(Z)=    -0.13551519600D+04
 NORM(A)=   0.11401177D+01
 Iteration Nr.  12
 **********************
 DD1Dir will call FoFMem   1 times, MxPair=       156
 NAB=    78 NAA=     0 NBB=     0.
 DE(Z)  -0.72589062D+00          E(Z)=    -0.13551519603D+04
 NORM(A)=   0.11401181D+01
 Iteration Nr.  13
 **********************
 DD1Dir will call FoFMem   1 times, MxPair=       156
 NAB=    78 NAA=     0 NBB=     0.
 DE(Z)  -0.72589042D+00          E(Z)=    -0.13551519601D+04
 NORM(A)=   0.11401182D+01
 Iteration Nr.  14
 **********************
 DD1Dir will call FoFMem   1 times, MxPair=       156
 NAB=    78 NAA=     0 NBB=     0.
 DE(Z)  -0.72589053D+00          E(Z)=    -0.13551519602D+04
 NORM(A)=   0.11401183D+01
 Iteration Nr.  15
 **********************
 DD1Dir will call FoFMem   1 times, MxPair=       156
 NAB=    78 NAA=     0 NBB=     0.
 DE(Z)  -0.72589050D+00          E(Z)=    -0.13551519601D+04
 NORM(A)=   0.11401183D+01
 Iteration Nr.  16
 **********************
 DD1Dir will call FoFMem   1 times, MxPair=       156
 NAB=    78 NAA=     0 NBB=     0.
 DE(Z)  -0.72589051D+00          E(Z)=    -0.13551519601D+04
 NORM(A)=   0.11401183D+01
 Iteration Nr.  17
 **********************
 DD1Dir will call FoFMem   1 times, MxPair=       156
 NAB=    78 NAA=     0 NBB=     0.
 DE(Z)  -0.72589051D+00          E(Z)=    -0.13551519601D+04
 NORM(A)=   0.11401183D+01
 Iteration Nr.  18
 **********************
 DD1Dir will call FoFMem   1 times, MxPair=       156
 NAB=    78 NAA=     0 NBB=     0.
 DE(Z)  -0.72589051D+00          E(Z)=    -0.13551519601D+04
 NORM(A)=   0.11401183D+01
 Discarding MO integrals.
          Differentiating once with respect to electric field.
                with respect to dipole field.
          Electric field/nuclear overlap derivatives assumed to be zero.
          Keep R1 ints in memory in canonical form, NReq=367211061.
          There are     1 degrees of freedom in the 1st order CPHF.  IDoFFX=0.
 LinEq1:  Iter=  0 NonCon=     1 RMS=2.08D-03 Max=6.33D-02
 AX will form     1 AO Fock derivatives at one time.
 LinEq1:  Iter=  1 NonCon=     1 RMS=9.31D-04 Max=1.86D-02
 LinEq1:  Iter=  2 NonCon=     1 RMS=4.08D-04 Max=9.99D-03
 LinEq1:  Iter=  3 NonCon=     1 RMS=1.02D-04 Max=1.67D-03
 LinEq1:  Iter=  4 NonCon=     1 RMS=2.25D-05 Max=6.30D-04
 LinEq1:  Iter=  5 NonCon=     1 RMS=7.07D-06 Max=1.51D-04
 LinEq1:  Iter=  6 NonCon=     1 RMS=2.06D-06 Max=7.74D-05
 LinEq1:  Iter=  7 NonCon=     1 RMS=6.72D-07 Max=1.47D-05
 LinEq1:  Iter=  8 NonCon=     1 RMS=1.28D-07 Max=1.92D-06
 LinEq1:  Iter=  9 NonCon=     1 RMS=2.52D-08 Max=3.70D-07
 LinEq1:  Iter= 10 NonCon=     1 RMS=6.75D-09 Max=1.74D-07
 LinEq1:  Iter= 11 NonCon=     1 RMS=1.37D-09 Max=2.28D-08
 LinEq1:  Iter= 12 NonCon=     1 RMS=3.11D-10 Max=5.30D-09
 LinEq1:  Iter= 13 NonCon=     0 RMS=6.84D-11 Max=8.99D-10
 Linear equations converged to 1.000D-10 1.000D-09 after    13 iterations.
 End of Minotr Frequency-dependent properties file   721 does not exist.
 End of Minotr Frequency-dependent properties file   722 does not exist.

 **********************************************************************

            Population analysis using the QCI/CC density.

 **********************************************************************

     Natural Orbital Coefficients:
                           1         2         3         4         5
     Eigenvalues --     2.00004   2.00004   2.00003   2.00003   2.00003
   1 1   C  1S          0.00000  -0.00084   0.00000   0.00000   0.00000
   2        2S          0.00000   0.00037   0.00000   0.00000   0.00000
   3        3S          0.00000   0.00006   0.00000   0.00000   0.00000
   4        4S          0.00000  -0.00288   0.00000   0.00000   0.00000
   5        5S          0.00000  -0.00089   0.00000   0.00000   0.00000
   6        6PX         0.00000   0.00000   0.00000   0.00156   0.00000
   7        6PY         0.00033   0.00000   0.00000   0.00000  -0.00110
   8        6PZ         0.00000   0.00035   0.00000   0.00000   0.00000
   9        7PX         0.00000   0.00000   0.00000   0.00168   0.00000
  10        7PY         0.00045   0.00000   0.00000   0.00000  -0.00228
  11        7PZ         0.00000   0.00133   0.00000   0.00000   0.00000
  12        8PX         0.00000   0.00000   0.00000  -0.00098   0.00000
  13        8PY         0.00319   0.00000   0.00000   0.00000   0.00665
  14        8PZ         0.00000  -0.00516   0.00000   0.00000   0.00000
  15        9PX         0.00000   0.00000   0.00000  -0.00102   0.00000
  16        9PY        -0.00049   0.00000   0.00000   0.00000   0.00158
  17        9PZ         0.00000  -0.00209   0.00000   0.00000   0.00000
  18       10D 0        0.00000  -0.00033   0.00000   0.00000   0.00000
  19       10D+1        0.00000   0.00000   0.00000  -0.00028   0.00000
  20       10D-1        0.00007   0.00000   0.00000   0.00000  -0.00037
  21       10D+2        0.00000  -0.00023   0.00000   0.00000   0.00000
  22       10D-2        0.00000   0.00000   0.00035   0.00000   0.00000
  23       11D 0        0.00000   0.00020   0.00000   0.00000   0.00000
  24       11D+1        0.00000   0.00000   0.00000   0.00010   0.00000
  25       11D-1        0.00082   0.00000   0.00000   0.00000   0.00119
  26       11D+2        0.00000   0.00045   0.00000   0.00000   0.00000
  27       11D-2        0.00000   0.00000  -0.00025   0.00000   0.00000
  28       12D 0        0.00000  -0.00571   0.00000   0.00000   0.00000
  29       12D+1        0.00000   0.00000   0.00000  -0.00274   0.00000
  30       12D-1        0.00372   0.00000   0.00000   0.00000  -0.00334
  31       12D+2        0.00000  -0.00312   0.00000   0.00000   0.00000
  32       12D-2        0.00000   0.00000   0.00229   0.00000   0.00000
  33       13F 0        0.00000   0.00013   0.00000   0.00000   0.00000
  34       13F+1        0.00000   0.00000   0.00000   0.00005   0.00000
  35       13F-1       -0.00039   0.00000   0.00000   0.00000  -0.00030
  36       13F+2        0.00000  -0.00003   0.00000   0.00000   0.00000
  37       13F-2        0.00000   0.00000  -0.00015   0.00000   0.00000
  38       13F+3        0.00000   0.00000   0.00000  -0.00009   0.00000
  39       13F-3       -0.00008   0.00000   0.00000   0.00000   0.00010
  40       14F 0        0.00000  -0.00101   0.00000   0.00000   0.00000
  41       14F+1        0.00000   0.00000   0.00000   0.00004   0.00000
  42       14F-1        0.00485   0.00000   0.00000   0.00000   0.00169
  43       14F+2        0.00000  -0.00010   0.00000   0.00000   0.00000
  44       14F-2        0.00000   0.00000   0.00118   0.00000   0.00000
  45       14F+3        0.00000   0.00000   0.00000   0.00057   0.00000
  46       14F-3        0.00112   0.00000   0.00000   0.00000  -0.00012
  47 2   Cl 1S         -0.00197  -0.00150   0.00000   0.00000   0.02449
  48        2S          0.00704   0.00557   0.00000   0.00000  -0.08323
  49        3S          0.00038   0.00042   0.00000   0.00000   0.00229
  50        4S          0.00048   0.00025   0.00000   0.00000  -0.00617
  51        5S         -0.00114  -0.00197   0.00000   0.00000   0.00394
  52        6S         -0.00128  -0.00205   0.00000   0.00000   0.00411
  53        7PX         0.00000   0.00000   0.69247  -0.68720   0.00000
  54        7PY        -0.41170   0.35633   0.00000   0.00000   0.13850
  55        7PZ         0.55426  -0.59270   0.00000   0.00000   0.03223
  56        8PX         0.00000   0.00000  -0.01494   0.01334   0.00000
  57        8PY         0.01050  -0.00766   0.00000   0.00000  -0.00293
  58        8PZ        -0.01361   0.01375   0.00000   0.00000  -0.00147
  59        9PX         0.00000   0.00000   0.03672  -0.03690   0.00000
  60        9PY        -0.02144   0.01864   0.00000   0.00000   0.00766
  61        9PZ         0.02897  -0.03106   0.00000   0.00000   0.00185
  62       10PX         0.00000   0.00000  -0.00320   0.00277   0.00000
  63       10PY         0.00306  -0.00136   0.00000   0.00000   0.00063
  64       10PZ        -0.00451   0.00121   0.00000   0.00000   0.00016
  65       11PX         0.00000   0.00000  -0.00056   0.00079   0.00000
  66       11PY         0.00036  -0.00041   0.00000   0.00000   0.00029
  67       11PZ        -0.00073   0.00049   0.00000   0.00000   0.00021
  68       12D 0        0.00045  -0.00027   0.00000   0.00000   0.00008
  69       12D+1        0.00000   0.00000   0.00018  -0.00018   0.00000
  70       12D-1        0.00024  -0.00014   0.00000   0.00000   0.00011
  71       12D+2        0.00027  -0.00015   0.00000   0.00000  -0.00007
  72       12D-2        0.00000   0.00000   0.00032  -0.00020   0.00000
  73       13D 0       -0.00200   0.00102   0.00000   0.00000   0.00008
  74       13D+1        0.00000   0.00000  -0.00075   0.00057   0.00000
  75       13D-1       -0.00075   0.00092   0.00000   0.00000  -0.00048
  76       13D+2       -0.00096   0.00071   0.00000   0.00000   0.00016
  77       13D-2        0.00000   0.00000  -0.00107   0.00099   0.00000
  78       14D 0        0.00009  -0.00090   0.00000   0.00000   0.00002
  79       14D+1        0.00000   0.00000   0.00060   0.00006   0.00000
  80       14D-1        0.00005  -0.00031   0.00000   0.00000   0.00009
  81       14D+2        0.00002  -0.00057   0.00000   0.00000   0.00016
  82       14D-2        0.00000   0.00000   0.00045  -0.00048   0.00000
  83       15F 0       -0.00001   0.00000   0.00000   0.00000   0.00004
  84       15F+1        0.00000   0.00000  -0.00006  -0.00005   0.00000
  85       15F-1        0.00001   0.00002   0.00000   0.00000   0.00003
  86       15F+2        0.00002   0.00002   0.00000   0.00000  -0.00003
  87       15F-2        0.00000   0.00000  -0.00001  -0.00003   0.00000
  88       15F+3        0.00000   0.00000  -0.00001  -0.00003   0.00000
  89       15F-3        0.00003   0.00004   0.00000   0.00000  -0.00005
  90       16F 0       -0.00038  -0.00011   0.00000   0.00000   0.00018
  91       16F+1        0.00000   0.00000   0.00012   0.00018   0.00000
  92       16F-1       -0.00091   0.00047   0.00000   0.00000  -0.00017
  93       16F+2       -0.00009  -0.00028   0.00000   0.00000   0.00030
  94       16F-2        0.00000   0.00000  -0.00033   0.00032   0.00000
  95       16F+3        0.00000   0.00000   0.00030  -0.00022   0.00000
  96       16F-3       -0.00026   0.00019   0.00000   0.00000   0.00021
  97 3   Cl 1S          0.00197  -0.00150   0.00000   0.00000  -0.02449
  98        2S         -0.00704   0.00557   0.00000   0.00000   0.08323
  99        3S         -0.00038   0.00042   0.00000   0.00000  -0.00229
 100        4S         -0.00048   0.00025   0.00000   0.00000   0.00617
 101        5S          0.00114  -0.00197   0.00000   0.00000  -0.00394
 102        6S          0.00128  -0.00205   0.00000   0.00000  -0.00411
 103        7PX         0.00000   0.00000  -0.69247  -0.68720   0.00000
 104        7PY        -0.41170  -0.35633   0.00000   0.00000   0.13850
 105        7PZ        -0.55426  -0.59270   0.00000   0.00000  -0.03223
 106        8PX         0.00000   0.00000   0.01494   0.01334   0.00000
 107        8PY         0.01050   0.00766   0.00000   0.00000  -0.00293
 108        8PZ         0.01361   0.01375   0.00000   0.00000   0.00147
 109        9PX         0.00000   0.00000  -0.03672  -0.03690   0.00000
 110        9PY        -0.02144  -0.01864   0.00000   0.00000   0.00766
 111        9PZ        -0.02897  -0.03106   0.00000   0.00000  -0.00185
 112       10PX         0.00000   0.00000   0.00320   0.00277   0.00000
 113       10PY         0.00306   0.00136   0.00000   0.00000   0.00063
 114       10PZ         0.00451   0.00121   0.00000   0.00000  -0.00016
 115       11PX         0.00000   0.00000   0.00056   0.00079   0.00000
 116       11PY         0.00036   0.00041   0.00000   0.00000   0.00029
 117       11PZ         0.00073   0.00049   0.00000   0.00000  -0.00021
 118       12D 0       -0.00045  -0.00027   0.00000   0.00000  -0.00008
 119       12D+1        0.00000   0.00000  -0.00018  -0.00018   0.00000
 120       12D-1        0.00024   0.00014   0.00000   0.00000   0.00011
 121       12D+2       -0.00027  -0.00015   0.00000   0.00000   0.00007
 122       12D-2        0.00000   0.00000   0.00032   0.00020   0.00000
 123       13D 0        0.00200   0.00102   0.00000   0.00000  -0.00008
 124       13D+1        0.00000   0.00000   0.00075   0.00057   0.00000
 125       13D-1       -0.00075  -0.00092   0.00000   0.00000  -0.00048
 126       13D+2        0.00096   0.00071   0.00000   0.00000  -0.00016
 127       13D-2        0.00000   0.00000  -0.00107  -0.00099   0.00000
 128       14D 0       -0.00009  -0.00090   0.00000   0.00000  -0.00002
 129       14D+1        0.00000   0.00000  -0.00060   0.00006   0.00000
 130       14D-1        0.00005   0.00031   0.00000   0.00000   0.00009
 131       14D+2       -0.00002  -0.00057   0.00000   0.00000  -0.00016
 132       14D-2        0.00000   0.00000   0.00045   0.00048   0.00000
 133       15F 0        0.00001   0.00000   0.00000   0.00000  -0.00004
 134       15F+1        0.00000   0.00000   0.00006  -0.00005   0.00000
 135       15F-1        0.00001  -0.00002   0.00000   0.00000   0.00003
 136       15F+2       -0.00002   0.00002   0.00000   0.00000   0.00003
 137       15F-2        0.00000   0.00000  -0.00001   0.00003   0.00000
 138       15F+3        0.00000   0.00000   0.00001  -0.00003   0.00000
 139       15F-3        0.00003  -0.00004   0.00000   0.00000  -0.00005
 140       16F 0        0.00038  -0.00011   0.00000   0.00000  -0.00018
 141       16F+1        0.00000   0.00000  -0.00012   0.00018   0.00000
 142       16F-1       -0.00091  -0.00047   0.00000   0.00000  -0.00017
 143       16F+2        0.00009  -0.00028   0.00000   0.00000  -0.00030
 144       16F-2        0.00000   0.00000  -0.00033  -0.00032   0.00000
 145       16F+3        0.00000   0.00000  -0.00030  -0.00022   0.00000
 146       16F-3       -0.00026  -0.00019   0.00000   0.00000   0.00021
 147 4   S  1S          0.00000   0.00098   0.00000   0.00000   0.00000
 148        2S          0.00000  -0.00337   0.00000   0.00000   0.00000
 149        3S          0.00000   0.00043   0.00000   0.00000   0.00000
 150        4S          0.00000  -0.00006   0.00000   0.00000   0.00000
 151        5S          0.00000   0.00758   0.00000   0.00000   0.00000
 152        6S          0.00000   0.00344   0.00000   0.00000   0.00000
 153        7PX         0.00000   0.00000   0.00000   0.11501   0.00000
 154        7PY         0.08339   0.00000   0.00000   0.00000   0.94858
 155        7PZ         0.00000  -0.05826   0.00000   0.00000   0.00000
 156        8PX         0.00000   0.00000   0.00000  -0.00353   0.00000
 157        8PY        -0.00486   0.00000   0.00000   0.00000  -0.01861
 158        8PZ         0.00000   0.00098   0.00000   0.00000   0.00000
 159        9PX         0.00000   0.00000   0.00000   0.00665   0.00000
 160        9PY         0.00491   0.00000   0.00000   0.00000   0.05487
 161        9PZ         0.00000  -0.00335   0.00000   0.00000   0.00000
 162       10PX         0.00000   0.00000   0.00000   0.00152   0.00000
 163       10PY        -0.00583   0.00000   0.00000   0.00000  -0.00505
 164       10PZ         0.00000  -0.00128   0.00000   0.00000   0.00000
 165       11PX         0.00000   0.00000   0.00000   0.00025   0.00000
 166       11PY        -0.00031   0.00000   0.00000   0.00000  -0.00114
 167       11PZ         0.00000   0.00000   0.00000   0.00000   0.00000
 168       12D 0        0.00000  -0.00041   0.00000   0.00000   0.00000
 169       12D+1        0.00000   0.00000   0.00000  -0.00002   0.00000
 170       12D-1        0.00240   0.00000   0.00000   0.00000   0.00274
 171       12D+2        0.00000  -0.00008   0.00000   0.00000   0.00000
 172       12D-2        0.00000   0.00000  -0.00033   0.00000   0.00000
 173       13D 0        0.00000   0.00000   0.00000   0.00000   0.00000
 174       13D+1        0.00000   0.00000   0.00000  -0.00005   0.00000
 175       13D-1       -0.00005   0.00000   0.00000   0.00000  -0.00032
 176       13D+2        0.00000  -0.00009   0.00000   0.00000   0.00000
 177       13D-2        0.00000   0.00000   0.00011   0.00000   0.00000
 178       14D 0        0.00000  -0.00005   0.00000   0.00000   0.00000
 179       14D+1        0.00000   0.00000   0.00000  -0.00142   0.00000
 180       14D-1        0.00149   0.00000   0.00000   0.00000  -0.00028
 181       14D+2        0.00000   0.00038   0.00000   0.00000   0.00000
 182       14D-2        0.00000   0.00000  -0.00062   0.00000   0.00000
 183       15F 0        0.00000   0.00009   0.00000   0.00000   0.00000
 184       15F+1        0.00000   0.00000   0.00000  -0.00008   0.00000
 185       15F-1       -0.00022   0.00000   0.00000   0.00000  -0.00019
 186       15F+2        0.00000   0.00012   0.00000   0.00000   0.00000
 187       15F-2        0.00000   0.00000  -0.00006   0.00000   0.00000
 188       15F+3        0.00000   0.00000   0.00000   0.00001   0.00000
 189       15F-3       -0.00003   0.00000   0.00000   0.00000   0.00009
 190       16F 0        0.00000   0.00020   0.00000   0.00000   0.00000
 191       16F+1        0.00000   0.00000   0.00000   0.00024   0.00000
 192       16F-1       -0.00070   0.00000   0.00000   0.00000  -0.00090
 193       16F+2        0.00000  -0.00006   0.00000   0.00000   0.00000
 194       16F-2        0.00000   0.00000   0.00052   0.00000   0.00000
 195       16F+3        0.00000   0.00000   0.00000  -0.00017   0.00000
 196       16F-3       -0.00017   0.00000   0.00000   0.00000  -0.00018
                           6         7         8         9        10
     Eigenvalues --     2.00003   2.00002   2.00002   2.00001   2.00001
   1 1   C  1S         -0.16730   0.00000  -0.15403   0.58274   0.00000
   2        2S          0.00343   0.00000   0.00300  -0.01032   0.00000
   3        3S         -0.00616   0.00000  -0.00605   0.02319   0.00000
   4        4S         -0.00900   0.00000  -0.00745   0.00557   0.00000
   5        5S         -0.00146   0.00000   0.00005   0.00336   0.00000
   6        6PX         0.00000   0.00000   0.00000   0.00000   0.00000
   7        6PY         0.00000  -0.00088   0.00000   0.00000   0.00269
   8        6PZ        -0.00005   0.00000   0.00120  -0.00231   0.00000
   9        7PX         0.00000   0.00000   0.00000   0.00000   0.00000
  10        7PY         0.00000  -0.00030   0.00000   0.00000  -0.00022
  11        7PZ        -0.00087   0.00000  -0.00059   0.00087   0.00000
  12        8PX         0.00000   0.00000   0.00000   0.00000   0.00000
  13        8PY         0.00000   0.00280   0.00000   0.00000  -0.00176
  14        8PZ         0.00110   0.00000  -0.00743   0.00494   0.00000
  15        9PX         0.00000   0.00000   0.00000   0.00000   0.00000
  16        9PY         0.00000  -0.00062   0.00000   0.00000   0.00069
  17        9PZ        -0.00057   0.00000   0.00014   0.00098   0.00000
  18       10D 0       -0.00004   0.00000  -0.00010   0.00008   0.00000
  19       10D+1        0.00000   0.00000   0.00000   0.00000   0.00000
  20       10D-1        0.00000  -0.00011   0.00000   0.00000   0.00000
  21       10D+2        0.00006   0.00000   0.00002  -0.00015   0.00000
  22       10D-2        0.00000   0.00000   0.00000   0.00000   0.00000
  23       11D 0       -0.00052   0.00000  -0.00088   0.00027   0.00000
  24       11D+1        0.00000   0.00000   0.00000   0.00000   0.00000
  25       11D-1        0.00000  -0.00118   0.00000   0.00000   0.00264
  26       11D+2        0.00079   0.00000  -0.00034   0.00081   0.00000
  27       11D-2        0.00000   0.00000   0.00000   0.00000   0.00000
  28       12D 0        0.00042   0.00000  -0.00180   0.00238   0.00000
  29       12D+1        0.00000   0.00000   0.00000   0.00000   0.00000
  30       12D-1        0.00000  -0.00442   0.00000   0.00000   0.00482
  31       12D+2        0.00130   0.00000  -0.00081   0.00043   0.00000
  32       12D-2        0.00000   0.00000   0.00000   0.00000   0.00000
  33       13F 0       -0.00013   0.00000   0.00000  -0.00006   0.00000
  34       13F+1        0.00000   0.00000   0.00000   0.00000   0.00000
  35       13F-1        0.00000  -0.00003   0.00000   0.00000  -0.00002
  36       13F+2       -0.00004   0.00000  -0.00006   0.00001   0.00000
  37       13F-2        0.00000   0.00000   0.00000   0.00000   0.00000
  38       13F+3        0.00000   0.00000   0.00000   0.00000   0.00000
  39       13F-3        0.00000   0.00003   0.00000   0.00000  -0.00008
  40       14F 0        0.00016   0.00000   0.00047  -0.00153   0.00000
  41       14F+1        0.00000   0.00000   0.00000   0.00000   0.00000
  42       14F-1        0.00000   0.00000   0.00000   0.00000   0.00144
  43       14F+2       -0.00015   0.00000   0.00057  -0.00106   0.00000
  44       14F-2        0.00000   0.00000   0.00000   0.00000   0.00000
  45       14F+3        0.00000   0.00000   0.00000   0.00000   0.00000
  46       14F-3        0.00000  -0.00036   0.00000   0.00000   0.00085
  47 2   Cl 1S         -0.17588  -0.17628   0.02363  -0.03618  -0.10430
  48        2S          0.59334   0.59490  -0.08003   0.12401   0.35437
  49        3S         -0.01759  -0.01746   0.00216  -0.00153  -0.00570
  50        4S          0.04614   0.04625  -0.00615   0.00977   0.02958
  51        5S         -0.00160   0.00002  -0.00136   0.00080  -0.00792
  52        6S         -0.00056  -0.00077  -0.00005  -0.00007   0.00172
  53        7PX         0.00000   0.00000   0.00000   0.00000   0.00000
  54        7PY        -0.28767  -0.25881   0.07079   0.06874   0.47050
  55        7PZ        -0.17158  -0.21381   0.00910   0.06480   0.35273
  56        8PX         0.00000   0.00000   0.00000   0.00000   0.00000
  57        8PY         0.00519   0.00486  -0.00174  -0.00026  -0.00802
  58        8PZ         0.00303   0.00406  -0.00053  -0.00023  -0.00639
  59        9PX         0.00000   0.00000   0.00000   0.00000   0.00000
  60        9PY        -0.01639  -0.01476   0.00400   0.00411   0.02886
  61        9PZ        -0.00980  -0.01217   0.00053   0.00388   0.02177
  62       10PX         0.00000   0.00000   0.00000   0.00000   0.00000
  63       10PY         0.00179   0.00179  -0.00066  -0.00001  -0.00042
  64       10PZ         0.00142   0.00088  -0.00058   0.00103  -0.00046
  65       11PX         0.00000   0.00000   0.00000   0.00000   0.00000
  66       11PY        -0.00005   0.00012  -0.00003  -0.00004   0.00010
  67       11PZ         0.00009  -0.00008  -0.00013  -0.00009   0.00023
  68       12D 0       -0.00004  -0.00001   0.00002  -0.00001   0.00001
  69       12D+1        0.00000   0.00000   0.00000   0.00000   0.00000
  70       12D-1        0.00018   0.00018   0.00001   0.00005   0.00041
  71       12D+2       -0.00008  -0.00008   0.00003  -0.00011  -0.00032
  72       12D-2        0.00000   0.00000   0.00000   0.00000   0.00000
  73       13D 0       -0.00006   0.00023   0.00016  -0.00014  -0.00059
  74       13D+1        0.00000   0.00000   0.00000   0.00000   0.00000
  75       13D-1        0.00037   0.00044  -0.00013   0.00021  -0.00221
  76       13D+2       -0.00045  -0.00030   0.00016   0.00012   0.00117
  77       13D-2        0.00000   0.00000   0.00000   0.00000   0.00000
  78       14D 0        0.00001  -0.00023   0.00018  -0.00001   0.00003
  79       14D+1        0.00000   0.00000   0.00000   0.00000   0.00000
  80       14D-1        0.00029   0.00019   0.00002   0.00025   0.00015
  81       14D+2       -0.00020   0.00021  -0.00004   0.00011  -0.00082
  82       14D-2        0.00000   0.00000   0.00000   0.00000   0.00000
  83       15F 0        0.00001   0.00004   0.00001   0.00000  -0.00004
  84       15F+1        0.00000   0.00000   0.00000   0.00000   0.00000
  85       15F-1        0.00000   0.00003   0.00000   0.00000  -0.00009
  86       15F+2       -0.00001  -0.00001   0.00000  -0.00001   0.00004
  87       15F-2        0.00000   0.00000   0.00000   0.00000   0.00000
  88       15F+3        0.00000   0.00000   0.00000   0.00000   0.00000
  89       15F-3       -0.00003  -0.00003   0.00002  -0.00001   0.00003
  90       16F 0       -0.00007  -0.00011   0.00011  -0.00028   0.00029
  91       16F+1        0.00000   0.00000   0.00000   0.00000   0.00000
  92       16F-1        0.00001   0.00008   0.00003   0.00002  -0.00044
  93       16F+2       -0.00013  -0.00012   0.00007  -0.00009   0.00052
  94       16F-2        0.00000   0.00000   0.00000   0.00000   0.00000
  95       16F+3        0.00000   0.00000   0.00000   0.00000   0.00000
  96       16F-3       -0.00010   0.00001  -0.00004   0.00013   0.00011
  97 3   Cl 1S         -0.17588   0.17628   0.02363  -0.03618   0.10430
  98        2S          0.59334  -0.59490  -0.08003   0.12401  -0.35437
  99        3S         -0.01759   0.01746   0.00216  -0.00153   0.00570
 100        4S          0.04614  -0.04625  -0.00615   0.00977  -0.02958
 101        5S         -0.00160  -0.00002  -0.00136   0.00080   0.00792
 102        6S         -0.00056   0.00077  -0.00005  -0.00007  -0.00172
 103        7PX         0.00000   0.00000   0.00000   0.00000   0.00000
 104        7PY         0.28767  -0.25881  -0.07079  -0.06874   0.47050
 105        7PZ        -0.17158   0.21381   0.00910   0.06480  -0.35273
 106        8PX         0.00000   0.00000   0.00000   0.00000   0.00000
 107        8PY        -0.00519   0.00486   0.00174   0.00026  -0.00802
 108        8PZ         0.00303  -0.00406  -0.00053  -0.00023   0.00639
 109        9PX         0.00000   0.00000   0.00000   0.00000   0.00000
 110        9PY         0.01639  -0.01476  -0.00400  -0.00411   0.02886
 111        9PZ        -0.00980   0.01217   0.00053   0.00388  -0.02177
 112       10PX         0.00000   0.00000   0.00000   0.00000   0.00000
 113       10PY        -0.00179   0.00179   0.00066   0.00001  -0.00042
 114       10PZ         0.00142  -0.00088  -0.00058   0.00103   0.00046
 115       11PX         0.00000   0.00000   0.00000   0.00000   0.00000
 116       11PY         0.00005   0.00012   0.00003   0.00004   0.00010
 117       11PZ         0.00009   0.00008  -0.00013  -0.00009  -0.00023
 118       12D 0       -0.00004   0.00001   0.00002  -0.00001  -0.00001
 119       12D+1        0.00000   0.00000   0.00000   0.00000   0.00000
 120       12D-1       -0.00018   0.00018  -0.00001  -0.00005   0.00041
 121       12D+2       -0.00008   0.00008   0.00003  -0.00011   0.00032
 122       12D-2        0.00000   0.00000   0.00000   0.00000   0.00000
 123       13D 0       -0.00006  -0.00023   0.00016  -0.00014   0.00059
 124       13D+1        0.00000   0.00000   0.00000   0.00000   0.00000
 125       13D-1       -0.00037   0.00044   0.00013  -0.00021  -0.00221
 126       13D+2       -0.00045   0.00030   0.00016   0.00012  -0.00117
 127       13D-2        0.00000   0.00000   0.00000   0.00000   0.00000
 128       14D 0        0.00001   0.00023   0.00018  -0.00001  -0.00003
 129       14D+1        0.00000   0.00000   0.00000   0.00000   0.00000
 130       14D-1       -0.00029   0.00019  -0.00002  -0.00025   0.00015
 131       14D+2       -0.00020  -0.00021  -0.00004   0.00011   0.00082
 132       14D-2        0.00000   0.00000   0.00000   0.00000   0.00000
 133       15F 0        0.00001  -0.00004   0.00001   0.00000   0.00004
 134       15F+1        0.00000   0.00000   0.00000   0.00000   0.00000
 135       15F-1        0.00000   0.00003   0.00000   0.00000  -0.00009
 136       15F+2       -0.00001   0.00001   0.00000  -0.00001  -0.00004
 137       15F-2        0.00000   0.00000   0.00000   0.00000   0.00000
 138       15F+3        0.00000   0.00000   0.00000   0.00000   0.00000
 139       15F-3        0.00003  -0.00003  -0.00002   0.00001   0.00003
 140       16F 0       -0.00007   0.00011   0.00011  -0.00028  -0.00029
 141       16F+1        0.00000   0.00000   0.00000   0.00000   0.00000
 142       16F-1       -0.00001   0.00008  -0.00003  -0.00002  -0.00044
 143       16F+2       -0.00013   0.00012   0.00007  -0.00009  -0.00052
 144       16F-2        0.00000   0.00000   0.00000   0.00000   0.00000
 145       16F+3        0.00000   0.00000   0.00000   0.00000   0.00000
 146       16F-3        0.00010   0.00001   0.00004  -0.00013   0.00011
 147 4   S  1S         -0.02678   0.00000  -0.21380  -0.16705   0.00000
 148        2S          0.09133   0.00000   0.73074   0.57695   0.00000
 149        3S         -0.00265   0.00000  -0.02050  -0.00887   0.00000
 150        4S          0.00596   0.00000   0.04896   0.04145   0.00000
 151        5S          0.00193   0.00000   0.00689  -0.01200   0.00000
 152        6S          0.00208   0.00000  -0.00069  -0.00331   0.00000
 153        7PX         0.00000   0.00000   0.00000   0.00000   0.00000
 154        7PY         0.00000   0.19129   0.00000   0.00000  -0.10023
 155        7PZ         0.07420   0.00000   0.62476  -0.49523   0.00000
 156        8PX         0.00000   0.00000   0.00000   0.00000   0.00000
 157        8PY         0.00000  -0.00307   0.00000   0.00000  -0.00035
 158        8PZ        -0.00202   0.00000  -0.01186   0.00853   0.00000
 159        9PX         0.00000   0.00000   0.00000   0.00000   0.00000
 160        9PY         0.00000   0.01121   0.00000   0.00000  -0.00607
 161        9PZ         0.00473   0.00000   0.03844  -0.03238   0.00000
 162       10PX         0.00000   0.00000   0.00000   0.00000   0.00000
 163       10PY         0.00000   0.00188   0.00000   0.00000  -0.00374
 164       10PZ        -0.00255   0.00000  -0.00680   0.00489   0.00000
 165       11PX         0.00000   0.00000   0.00000   0.00000   0.00000
 166       11PY         0.00000   0.00021   0.00000   0.00000  -0.00027
 167       11PZ        -0.00021   0.00000   0.00011   0.00017   0.00000
 168       12D 0        0.00093   0.00000   0.00216  -0.00267   0.00000
 169       12D+1        0.00000   0.00000   0.00000   0.00000   0.00000
 170       12D-1        0.00000   0.00018   0.00000   0.00000   0.00089
 171       12D+2       -0.00006   0.00000  -0.00044   0.00018   0.00000
 172       12D-2        0.00000   0.00000   0.00000   0.00000   0.00000
 173       13D 0        0.00008   0.00000   0.00014   0.00022   0.00000
 174       13D+1        0.00000   0.00000   0.00000   0.00000   0.00000
 175       13D-1        0.00000   0.00003   0.00000   0.00000  -0.00007
 176       13D+2        0.00005   0.00000   0.00030   0.00017   0.00000
 177       13D-2        0.00000   0.00000   0.00000   0.00000   0.00000
 178       14D 0        0.00059   0.00000   0.00106  -0.00061   0.00000
 179       14D+1        0.00000   0.00000   0.00000   0.00000   0.00000
 180       14D-1        0.00000  -0.00075   0.00000   0.00000   0.00098
 181       14D+2       -0.00030   0.00000   0.00041  -0.00004   0.00000
 182       14D-2        0.00000   0.00000   0.00000   0.00000   0.00000
 183       15F 0       -0.00015   0.00000  -0.00016   0.00024   0.00000
 184       15F+1        0.00000   0.00000   0.00000   0.00000   0.00000
 185       15F-1        0.00000   0.00000   0.00000   0.00000  -0.00007
 186       15F+2        0.00000   0.00000   0.00012  -0.00016   0.00000
 187       15F-2        0.00000   0.00000   0.00000   0.00000   0.00000
 188       15F+3        0.00000   0.00000   0.00000   0.00000   0.00000
 189       15F-3        0.00000   0.00003   0.00000   0.00000  -0.00005
 190       16F 0       -0.00016   0.00000  -0.00047   0.00049   0.00000
 191       16F+1        0.00000   0.00000   0.00000   0.00000   0.00000
 192       16F-1        0.00000  -0.00003   0.00000   0.00000  -0.00033
 193       16F+2        0.00012   0.00000  -0.00009  -0.00009   0.00000
 194       16F-2        0.00000   0.00000   0.00000   0.00000   0.00000
 195       16F+3        0.00000   0.00000   0.00000   0.00000   0.00000
 196       16F-3        0.00000   0.00000   0.00000   0.00000  -0.00004
                          11        12        13        14        15
     Eigenvalues --     2.00001   2.00001   2.00000   2.00000   2.00000
   1 1   C  1S          0.28265   0.00000   0.70080   0.00157   0.00193
   2        2S         -0.00518   0.00000  -0.00698  -0.00002  -0.00006
   3        3S          0.01023   0.00000   0.03014   0.00010   0.00009
   4        4S          0.01240   0.00000  -0.02226  -0.00039  -0.00019
   5        5S          0.00531   0.00000  -0.00538  -0.00018  -0.00017
   6        6PX         0.00000  -0.00185   0.00000   0.00000   0.00000
   7        6PY         0.00000   0.00000   0.00000   0.00000   0.00000
   8        6PZ         0.00199   0.00000  -0.00127  -0.00001   0.00000
   9        7PX         0.00000  -0.00140   0.00000   0.00000   0.00000
  10        7PY         0.00000   0.00000   0.00000   0.00000   0.00000
  11        7PZ         0.00185   0.00000   0.00260   0.00001  -0.00008
  12        8PX         0.00000   0.00075   0.00000   0.00000   0.00000
  13        8PY         0.00000   0.00000   0.00000   0.00000   0.00000
  14        8PZ        -0.00260   0.00000   0.00268  -0.00006  -0.00002
  15        9PX         0.00000  -0.00104   0.00000   0.00000   0.00000
  16        9PY         0.00000   0.00000   0.00000   0.00000   0.00000
  17        9PZ         0.00040   0.00000   0.00056  -0.00002  -0.00005
  18       10D 0        0.00008   0.00000   0.00031   0.00000   0.00000
  19       10D+1        0.00000  -0.00019   0.00000   0.00000   0.00000
  20       10D-1        0.00000   0.00000   0.00000   0.00000   0.00000
  21       10D+2       -0.00004   0.00000  -0.00021   0.00000   0.00000
  22       10D-2        0.00000   0.00000   0.00000   0.00000   0.00000
  23       11D 0        0.00085   0.00000  -0.00028  -0.00003  -0.00005
  24       11D+1        0.00000   0.00121   0.00000   0.00000   0.00000
  25       11D-1        0.00000   0.00000   0.00000   0.00000   0.00000
  26       11D+2       -0.00122   0.00000   0.00311   0.00006   0.00000
  27       11D-2        0.00000   0.00000   0.00000   0.00000   0.00000
  28       12D 0       -0.00156   0.00000  -0.00123  -0.00005  -0.00007
  29       12D+1        0.00000  -0.00100   0.00000   0.00000   0.00000
  30       12D-1        0.00000   0.00000   0.00000   0.00000   0.00000
  31       12D+2       -0.00268   0.00000   0.00169   0.00003  -0.00001
  32       12D-2        0.00000   0.00000   0.00000   0.00000   0.00000
  33       13F 0        0.00027   0.00000   0.00027   0.00000   0.00000
  34       13F+1        0.00000  -0.00018   0.00000   0.00000   0.00000
  35       13F-1        0.00000   0.00000   0.00000   0.00000   0.00000
  36       13F+2       -0.00007   0.00000  -0.00005  -0.00001   0.00000
  37       13F-2        0.00000   0.00000   0.00000   0.00000   0.00000
  38       13F+3        0.00000   0.00007   0.00000   0.00000   0.00000
  39       13F-3        0.00000   0.00000   0.00000   0.00000   0.00000
  40       14F 0        0.00021   0.00000  -0.00112  -0.00003   0.00000
  41       14F+1        0.00000   0.00119   0.00000   0.00000   0.00000
  42       14F-1        0.00000   0.00000   0.00000   0.00000   0.00000
  43       14F+2        0.00054   0.00000  -0.00140  -0.00003   0.00001
  44       14F-2        0.00000   0.00000   0.00000   0.00000   0.00000
  45       14F+3        0.00000  -0.00015   0.00000   0.00000   0.00000
  46       14F-3        0.00000   0.00000   0.00000   0.00000   0.00000
  47 2   Cl 1S         -0.09344   0.00000   0.02981   0.68125  -0.17464
  48        2S          0.31828   0.00000  -0.10655   0.00650  -0.00206
  49        3S         -0.00495   0.00000   0.00055   0.00010  -0.00005
  50        4S          0.02636   0.00000  -0.00963   0.00012  -0.00006
  51        5S         -0.00730   0.00000   0.00904   0.00006   0.00006
  52        6S         -0.00066   0.00000   0.00340   0.00004   0.00007
  53        7PX         0.00000   0.08095   0.00000   0.00000   0.00000
  54        7PY         0.42307   0.00000  -0.27845  -0.00154  -0.00060
  55        7PZ         0.24024   0.00000  -0.18912  -0.00097  -0.00052
  56        8PX         0.00000  -0.00044   0.00000   0.00000   0.00000
  57        8PY        -0.00713   0.00000   0.00477   0.00008  -0.00001
  58        8PZ        -0.00422   0.00000   0.00347   0.00006  -0.00001
  59        9PX         0.00000   0.00473   0.00000   0.00000   0.00000
  60        9PY         0.02603   0.00000  -0.01800  -0.00013  -0.00003
  61        9PZ         0.01479   0.00000  -0.01228  -0.00008  -0.00003
  62       10PX         0.00000  -0.00069   0.00000   0.00000   0.00000
  63       10PY        -0.00099   0.00000   0.00355   0.00002   0.00007
  64       10PZ        -0.00155   0.00000   0.00243   0.00000   0.00002
  65       11PX         0.00000   0.00034   0.00000   0.00000   0.00000
  66       11PY         0.00004   0.00000   0.00027   0.00000   0.00001
  67       11PZ        -0.00005   0.00000   0.00010   0.00000   0.00002
  68       12D 0        0.00002   0.00000   0.00000   0.00000   0.00000
  69       12D+1        0.00000  -0.00006   0.00000   0.00000   0.00000
  70       12D-1        0.00035   0.00000  -0.00032   0.00000   0.00000
  71       12D+2       -0.00024   0.00000   0.00021   0.00000   0.00000
  72       12D-2        0.00000  -0.00004   0.00000   0.00000   0.00000
  73       13D 0        0.00031   0.00000   0.00008   0.00000   0.00000
  74       13D+1        0.00000  -0.00005   0.00000   0.00000   0.00000
  75       13D-1       -0.00143   0.00000   0.00196   0.00003   0.00000
  76       13D+2        0.00139   0.00000  -0.00120  -0.00002   0.00000
  77       13D-2        0.00000  -0.00022   0.00000   0.00000   0.00000
  78       14D 0        0.00002   0.00000   0.00012   0.00000   0.00000
  79       14D+1        0.00000  -0.00024   0.00000   0.00000   0.00000
  80       14D-1        0.00017   0.00000   0.00067  -0.00001   0.00001
  81       14D+2       -0.00022   0.00000  -0.00057   0.00000  -0.00002
  82       14D-2        0.00000  -0.00054   0.00000   0.00000   0.00000
  83       15F 0        0.00001   0.00000   0.00002   0.00000   0.00000
  84       15F+1        0.00000   0.00000   0.00000   0.00000   0.00000
  85       15F-1        0.00003   0.00000  -0.00001   0.00000   0.00000
  86       15F+2        0.00003   0.00000  -0.00001   0.00000   0.00000
  87       15F-2        0.00000  -0.00001   0.00000   0.00000   0.00000
  88       15F+3        0.00000  -0.00003   0.00000   0.00000   0.00000
  89       15F-3        0.00010   0.00000  -0.00005   0.00000   0.00000
  90       16F 0        0.00022   0.00000  -0.00026   0.00000   0.00000
  91       16F+1        0.00000   0.00001   0.00000   0.00000   0.00000
  92       16F-1        0.00000   0.00000   0.00033   0.00000   0.00000
  93       16F+2        0.00031   0.00000  -0.00046   0.00000   0.00000
  94       16F-2        0.00000   0.00000   0.00000   0.00000   0.00000
  95       16F+3        0.00000   0.00020   0.00000   0.00000   0.00000
  96       16F-3        0.00018   0.00000  -0.00018   0.00000   0.00000
  97 3   Cl 1S         -0.09344   0.00000   0.02981   0.68421  -0.17843
  98        2S          0.31828   0.00000  -0.10655   0.00653  -0.00210
  99        3S         -0.00495   0.00000   0.00055   0.00010  -0.00005
 100        4S          0.02636   0.00000  -0.00963   0.00012  -0.00006
 101        5S         -0.00730   0.00000   0.00904   0.00006   0.00006
 102        6S         -0.00066   0.00000   0.00340   0.00004   0.00007
 103        7PX         0.00000   0.08095   0.00000   0.00000   0.00000
 104        7PY        -0.42307   0.00000   0.27845   0.00154   0.00060
 105        7PZ         0.24024   0.00000  -0.18912  -0.00097  -0.00052
 106        8PX         0.00000  -0.00044   0.00000   0.00000   0.00000
 107        8PY         0.00713   0.00000  -0.00477  -0.00008   0.00001
 108        8PZ        -0.00422   0.00000   0.00347   0.00006  -0.00001
 109        9PX         0.00000   0.00473   0.00000   0.00000   0.00000
 110        9PY        -0.02603   0.00000   0.01800   0.00013   0.00003
 111        9PZ         0.01479   0.00000  -0.01228  -0.00008  -0.00003
 112       10PX         0.00000  -0.00069   0.00000   0.00000   0.00000
 113       10PY         0.00099   0.00000  -0.00355  -0.00002  -0.00007
 114       10PZ        -0.00155   0.00000   0.00243   0.00000   0.00002
 115       11PX         0.00000   0.00034   0.00000   0.00000   0.00000
 116       11PY        -0.00004   0.00000  -0.00027   0.00000  -0.00001
 117       11PZ        -0.00005   0.00000   0.00010   0.00000   0.00002
 118       12D 0        0.00002   0.00000   0.00000   0.00000   0.00000
 119       12D+1        0.00000  -0.00006   0.00000   0.00000   0.00000
 120       12D-1       -0.00035   0.00000   0.00032   0.00000   0.00000
 121       12D+2       -0.00024   0.00000   0.00021   0.00000   0.00000
 122       12D-2        0.00000   0.00004   0.00000   0.00000   0.00000
 123       13D 0        0.00031   0.00000   0.00008   0.00000   0.00000
 124       13D+1        0.00000  -0.00005   0.00000   0.00000   0.00000
 125       13D-1        0.00143   0.00000  -0.00196  -0.00003   0.00000
 126       13D+2        0.00139   0.00000  -0.00120  -0.00002   0.00000
 127       13D-2        0.00000   0.00022   0.00000   0.00000   0.00000
 128       14D 0        0.00002   0.00000   0.00012   0.00000   0.00000
 129       14D+1        0.00000  -0.00024   0.00000   0.00000   0.00000
 130       14D-1       -0.00017   0.00000  -0.00067   0.00001  -0.00001
 131       14D+2       -0.00022   0.00000  -0.00057   0.00000  -0.00002
 132       14D-2        0.00000   0.00054   0.00000   0.00000   0.00000
 133       15F 0        0.00001   0.00000   0.00002   0.00000   0.00000
 134       15F+1        0.00000   0.00000   0.00000   0.00000   0.00000
 135       15F-1       -0.00003   0.00000   0.00001   0.00000   0.00000
 136       15F+2        0.00003   0.00000  -0.00001   0.00000   0.00000
 137       15F-2        0.00000   0.00001   0.00000   0.00000   0.00000
 138       15F+3        0.00000  -0.00003   0.00000   0.00000   0.00000
 139       15F-3       -0.00010   0.00000   0.00005   0.00000   0.00000
 140       16F 0        0.00022   0.00000  -0.00026   0.00000   0.00000
 141       16F+1        0.00000   0.00001   0.00000   0.00000   0.00000
 142       16F-1        0.00000   0.00000  -0.00033   0.00000   0.00000
 143       16F+2        0.00031   0.00000  -0.00046   0.00000   0.00000
 144       16F-2        0.00000   0.00000   0.00000   0.00000   0.00000
 145       16F+3        0.00000   0.00020   0.00000   0.00000   0.00000
 146       16F-3       -0.00018   0.00000   0.00018   0.00000   0.00000
 147 4   S  1S          0.07913   0.00000   0.05008   0.24973   0.96469
 148        2S         -0.27295   0.00000  -0.18549   0.00281   0.01257
 149        3S          0.00440   0.00000   0.00153   0.00009   0.00031
 150        4S         -0.01956   0.00000  -0.01372  -0.00004  -0.00004
 151        5S         -0.00029   0.00000   0.00603   0.00018   0.00002
 152        6S         -0.00532   0.00000   0.00102   0.00012   0.00008
 153        7PX         0.00000   0.96525   0.00000   0.00000   0.00000
 154        7PY         0.00000   0.00000   0.00000   0.00000   0.00000
 155        7PZ         0.35347   0.00000   0.42101   0.00169   0.00253
 156        8PX         0.00000  -0.01135   0.00000   0.00000   0.00000
 157        8PY         0.00000   0.00000   0.00000   0.00000   0.00000
 158        8PZ        -0.00374   0.00000  -0.00447  -0.00009  -0.00017
 159        9PX         0.00000   0.06178   0.00000   0.00000   0.00000
 160        9PY         0.00000   0.00000   0.00000   0.00000   0.00000
 161        9PZ         0.02264   0.00000   0.02794   0.00013   0.00023
 162       10PX         0.00000   0.00099   0.00000   0.00000   0.00000
 163       10PY         0.00000   0.00000   0.00000   0.00000   0.00000
 164       10PZ         0.00346   0.00000  -0.00174  -0.00009   0.00004
 165       11PX         0.00000  -0.00027   0.00000   0.00000   0.00000
 166       11PY         0.00000   0.00000   0.00000   0.00000   0.00000
 167       11PZ         0.00083   0.00000  -0.00014  -0.00001   0.00001
 168       12D 0        0.00007   0.00000   0.00106   0.00003   0.00006
 169       12D+1        0.00000   0.00220   0.00000   0.00000   0.00000
 170       12D-1        0.00000   0.00000   0.00000   0.00000   0.00000
 171       12D+2        0.00013   0.00000   0.00023   0.00000  -0.00001
 172       12D-2        0.00000   0.00000   0.00000   0.00000   0.00000
 173       13D 0       -0.00030   0.00000  -0.00064   0.00000   0.00001
 174       13D+1        0.00000  -0.00017   0.00000   0.00000   0.00000
 175       13D-1        0.00000   0.00000   0.00000   0.00000   0.00000
 176       13D+2       -0.00011   0.00000  -0.00008   0.00000   0.00001
 177       13D-2        0.00000   0.00000   0.00000   0.00000   0.00000
 178       14D 0       -0.00102   0.00000   0.00037   0.00001  -0.00004
 179       14D+1        0.00000  -0.00046   0.00000   0.00000   0.00000
 180       14D-1        0.00000   0.00000   0.00000   0.00000   0.00000
 181       14D+2        0.00069   0.00000  -0.00015   0.00000   0.00001
 182       14D-2        0.00000   0.00000   0.00000   0.00000   0.00000
 183       15F 0        0.00023   0.00000   0.00041  -0.00001  -0.00002
 184       15F+1        0.00000  -0.00026   0.00000   0.00000   0.00000
 185       15F-1        0.00000   0.00000   0.00000   0.00000   0.00000
 186       15F+2        0.00007   0.00000   0.00009   0.00000   0.00000
 187       15F-2        0.00000   0.00000   0.00000   0.00000   0.00000
 188       15F+3        0.00000   0.00013   0.00000   0.00000   0.00000
 189       15F-3        0.00000   0.00000   0.00000   0.00000   0.00000
 190       16F 0       -0.00019   0.00000  -0.00036   0.00000   0.00000
 191       16F+1        0.00000  -0.00049   0.00000   0.00000   0.00000
 192       16F-1        0.00000   0.00000   0.00000   0.00000   0.00000
 193       16F+2       -0.00033   0.00000  -0.00020   0.00000   0.00000
 194       16F-2        0.00000   0.00000   0.00000   0.00000   0.00000
 195       16F+3        0.00000  -0.00012   0.00000   0.00000   0.00000
 196       16F-3        0.00000   0.00000   0.00000   0.00000   0.00000
                          16        17        18        19        20
     Eigenvalues --     2.00000   1.97694   1.97416   1.97015   1.95128
   1 1   C  1S          0.00000  -0.08607   0.00000  -0.06982  -0.03772
   2        2S          0.00000   0.22168   0.00000   0.18737   0.10496
   3        3S          0.00000   0.04839   0.00000   0.04498   0.02529
   4        4S          0.00000   0.04424   0.00000   0.06068   0.05082
   5        5S          0.00000   0.01146   0.00000   0.01504   0.00175
   6        6PX         0.00000   0.00000   0.00000   0.00000   0.00000
   7        6PY        -0.00001   0.00000   0.06029   0.00000   0.00000
   8        6PZ         0.00000  -0.00946   0.00000   0.10526  -0.05256
   9        7PX         0.00000   0.00000   0.00000   0.00000   0.00000
  10        7PY         0.00004   0.00000   0.08308   0.00000   0.00000
  11        7PZ         0.00000  -0.01964   0.00000   0.13091  -0.07329
  12        8PX         0.00000   0.00000   0.00000   0.00000   0.00000
  13        8PY        -0.00005   0.00000   0.00426   0.00000   0.00000
  14        8PZ         0.00000   0.00827   0.00000   0.00383  -0.04770
  15        9PX         0.00000   0.00000   0.00000   0.00000   0.00000
  16        9PY        -0.00001   0.00000   0.00832   0.00000   0.00000
  17        9PZ         0.00000  -0.00366   0.00000   0.00826  -0.02172
  18       10D 0        0.00000   0.00457   0.00000   0.00992   0.01022
  19       10D+1        0.00000   0.00000   0.00000   0.00000   0.00000
  20       10D-1        0.00000   0.00000  -0.00838   0.00000   0.00000
  21       10D+2        0.00000  -0.00694   0.00000   0.00129   0.00384
  22       10D-2        0.00000   0.00000   0.00000   0.00000   0.00000
  23       11D 0        0.00000   0.00634   0.00000   0.01102   0.03021
  24       11D+1        0.00000   0.00000   0.00000   0.00000   0.00000
  25       11D-1       -0.00006   0.00000  -0.01776   0.00000   0.00000
  26       11D+2        0.00000  -0.01076   0.00000   0.00332   0.01407
  27       11D-2        0.00000   0.00000   0.00000   0.00000   0.00000
  28       12D 0        0.00000   0.00393   0.00000   0.00325  -0.04112
  29       12D+1        0.00000   0.00000   0.00000   0.00000   0.00000
  30       12D-1       -0.00002   0.00000   0.01201   0.00000   0.00000
  31       12D+2        0.00000   0.00777   0.00000   0.00474  -0.02619
  32       12D-2        0.00000   0.00000   0.00000   0.00000   0.00000
  33       13F 0        0.00000   0.00400   0.00000   0.00472  -0.00122
  34       13F+1        0.00000   0.00000   0.00000   0.00000   0.00000
  35       13F-1        0.00000   0.00000   0.00197   0.00000   0.00000
  36       13F+2        0.00000   0.00455   0.00000  -0.00026   0.00145
  37       13F-2        0.00000   0.00000   0.00000   0.00000   0.00000
  38       13F+3        0.00000   0.00000   0.00000   0.00000   0.00000
  39       13F-3        0.00000   0.00000  -0.00238   0.00000   0.00000
  40       14F 0        0.00000   0.00127   0.00000  -0.00110  -0.00325
  41       14F+1        0.00000   0.00000   0.00000   0.00000   0.00000
  42       14F-1       -0.00001   0.00000   0.00047   0.00000   0.00000
  43       14F+2        0.00000   0.00179   0.00000  -0.00021   0.00146
  44       14F-2        0.00000   0.00000   0.00000   0.00000   0.00000
  45       14F+3        0.00000   0.00000   0.00000   0.00000   0.00000
  46       14F-3       -0.00001   0.00000  -0.00073   0.00000   0.00000
  47 2   Cl 1S          0.70700   0.04518  -0.05312  -0.02179  -0.01115
  48        2S          0.00717  -0.16889   0.19871   0.08153   0.04235
  49        3S          0.00011   0.36120  -0.42578  -0.17583  -0.09215
  50        4S          0.00016   0.04375  -0.05353  -0.02300  -0.01449
  51        5S         -0.00005   0.21870  -0.26472  -0.11499  -0.09627
  52        6S         -0.00005  -0.00640   0.00988   0.00284  -0.02622
  53        7PX         0.00000   0.00000   0.00000   0.00000   0.00000
  54        7PY        -0.00050  -0.01627  -0.00033   0.00117  -0.11069
  55        7PZ        -0.00042  -0.00739   0.00746  -0.01841   0.10432
  56        8PX         0.00000   0.00000   0.00000   0.00000   0.00000
  57        8PY         0.00006   0.02439   0.01651  -0.00223   0.25292
  58        8PZ         0.00004   0.00579  -0.00999   0.04729  -0.24970
  59        9PX         0.00000   0.00000   0.00000   0.00000   0.00000
  60        9PY        -0.00006   0.01052   0.00757  -0.00038   0.12070
  61        9PZ        -0.00005   0.00287  -0.00420   0.02214  -0.11963
  62       10PX         0.00000   0.00000   0.00000   0.00000   0.00000
  63       10PY        -0.00006  -0.00059   0.01532  -0.00710   0.13178
  64       10PZ        -0.00003  -0.00262   0.00327   0.02594  -0.17942
  65       11PX         0.00000   0.00000   0.00000   0.00000   0.00000
  66       11PY        -0.00001  -0.00393   0.00284   0.00044   0.00057
  67       11PZ         0.00000  -0.00164   0.00317  -0.00006  -0.00619
  68       12D 0        0.00000  -0.00047  -0.00083   0.00275  -0.00675
  69       12D+1        0.00000   0.00000   0.00000   0.00000   0.00000
  70       12D-1        0.00001   0.00726  -0.00531   0.00254   0.00247
  71       12D+2        0.00000  -0.00590   0.00262   0.00062  -0.00977
  72       12D-2        0.00000   0.00000   0.00000   0.00000   0.00000
  73       13D 0        0.00000  -0.00113  -0.00179   0.00464  -0.00827
  74       13D+1        0.00000   0.00000   0.00000   0.00000   0.00000
  75       13D-1        0.00002   0.00719  -0.00463   0.00417   0.00171
  76       13D+2       -0.00001  -0.00626   0.00173   0.00156  -0.01172
  77       13D-2        0.00000   0.00000   0.00000   0.00000   0.00000
  78       14D 0        0.00000   0.00105   0.00109   0.00306  -0.00871
  79       14D+1        0.00000   0.00000   0.00000   0.00000   0.00000
  80       14D-1       -0.00002  -0.00182   0.00310   0.00202  -0.00352
  81       14D+2        0.00002   0.00173  -0.00248   0.00070  -0.00667
  82       14D-2        0.00000   0.00000   0.00000   0.00000   0.00000
  83       15F 0        0.00000  -0.00131   0.00085   0.00056  -0.00220
  84       15F+1        0.00000   0.00000   0.00000   0.00000   0.00000
  85       15F-1        0.00000   0.00072  -0.00154   0.00128  -0.00384
  86       15F+2        0.00000  -0.00251   0.00208  -0.00013  -0.00158
  87       15F-2        0.00000   0.00000   0.00000   0.00000   0.00000
  88       15F+3        0.00000   0.00000   0.00000   0.00000   0.00000
  89       15F-3        0.00000  -0.00184   0.00078   0.00065  -0.00332
  90       16F 0        0.00000  -0.00017  -0.00033   0.00004  -0.00048
  91       16F+1        0.00000   0.00000   0.00000   0.00000   0.00000
  92       16F-1        0.00000  -0.00014   0.00005   0.00153  -0.00207
  93       16F+2        0.00000   0.00006  -0.00066  -0.00026  -0.00062
  94       16F-2        0.00000   0.00000   0.00000   0.00000   0.00000
  95       16F+3        0.00000   0.00000   0.00000   0.00000   0.00000
  96       16F-3        0.00000   0.00027  -0.00037   0.00023  -0.00133
  97 3   Cl 1S         -0.70319   0.04518   0.05312  -0.02179  -0.01115
  98        2S         -0.00713  -0.16889  -0.19871   0.08153   0.04235
  99        3S         -0.00011   0.36120   0.42578  -0.17583  -0.09215
 100        4S         -0.00016   0.04375   0.05353  -0.02300  -0.01449
 101        5S          0.00005   0.21870   0.26472  -0.11499  -0.09627
 102        6S          0.00005  -0.00640  -0.00988   0.00284  -0.02622
 103        7PX         0.00000   0.00000   0.00000   0.00000   0.00000
 104        7PY        -0.00049   0.01627  -0.00033  -0.00117   0.11069
 105        7PZ         0.00042  -0.00739  -0.00746  -0.01841   0.10432
 106        8PX         0.00000   0.00000   0.00000   0.00000   0.00000
 107        8PY         0.00006  -0.02439   0.01651   0.00223  -0.25292
 108        8PZ        -0.00004   0.00579   0.00999   0.04729  -0.24970
 109        9PX         0.00000   0.00000   0.00000   0.00000   0.00000
 110        9PY        -0.00006  -0.01052   0.00757   0.00038  -0.12070
 111        9PZ         0.00005   0.00287   0.00420   0.02214  -0.11963
 112       10PX         0.00000   0.00000   0.00000   0.00000   0.00000
 113       10PY        -0.00006   0.00059   0.01532   0.00710  -0.13178
 114       10PZ         0.00003  -0.00262  -0.00327   0.02594  -0.17942
 115       11PX         0.00000   0.00000   0.00000   0.00000   0.00000
 116       11PY        -0.00001   0.00393   0.00284  -0.00044  -0.00057
 117       11PZ         0.00000  -0.00164  -0.00317  -0.00006  -0.00619
 118       12D 0        0.00000  -0.00047   0.00083   0.00275  -0.00675
 119       12D+1        0.00000   0.00000   0.00000   0.00000   0.00000
 120       12D-1        0.00001  -0.00726  -0.00531  -0.00254  -0.00247
 121       12D+2        0.00000  -0.00590  -0.00262   0.00062  -0.00977
 122       12D-2        0.00000   0.00000   0.00000   0.00000   0.00000
 123       13D 0        0.00000  -0.00113   0.00179   0.00464  -0.00827
 124       13D+1        0.00000   0.00000   0.00000   0.00000   0.00000
 125       13D-1        0.00002  -0.00719  -0.00463  -0.00417  -0.00171
 126       13D+2        0.00001  -0.00626  -0.00173   0.00156  -0.01172
 127       13D-2        0.00000   0.00000   0.00000   0.00000   0.00000
 128       14D 0        0.00000   0.00105  -0.00109   0.00306  -0.00871
 129       14D+1        0.00000   0.00000   0.00000   0.00000   0.00000
 130       14D-1       -0.00002   0.00182   0.00310  -0.00202   0.00352
 131       14D+2       -0.00002   0.00173   0.00248   0.00070  -0.00667
 132       14D-2        0.00000   0.00000   0.00000   0.00000   0.00000
 133       15F 0        0.00000  -0.00131  -0.00085   0.00056  -0.00220
 134       15F+1        0.00000   0.00000   0.00000   0.00000   0.00000
 135       15F-1        0.00000  -0.00072  -0.00154  -0.00128   0.00384
 136       15F+2        0.00000  -0.00251  -0.00208  -0.00013  -0.00158
 137       15F-2        0.00000   0.00000   0.00000   0.00000   0.00000
 138       15F+3        0.00000   0.00000   0.00000   0.00000   0.00000
 139       15F-3        0.00000   0.00184   0.00078  -0.00065   0.00332
 140       16F 0        0.00000  -0.00017   0.00033   0.00004  -0.00048
 141       16F+1        0.00000   0.00000   0.00000   0.00000   0.00000
 142       16F-1        0.00000   0.00014   0.00005  -0.00153   0.00207
 143       16F+2        0.00000   0.00006   0.00066  -0.00026  -0.00062
 144       16F-2        0.00000   0.00000   0.00000   0.00000   0.00000
 145       16F+3        0.00000   0.00000   0.00000   0.00000   0.00000
 146       16F-3        0.00000  -0.00027  -0.00037  -0.00023   0.00133
 147 4   S  1S         -0.00207   0.01701   0.00000   0.05781   0.00511
 148        2S         -0.00003  -0.06541   0.00000  -0.22123  -0.01953
 149        3S          0.00000   0.13544   0.00000   0.46791   0.04320
 150        4S          0.00000   0.01633   0.00000   0.06080   0.00606
 151        5S          0.00000   0.05615   0.00000   0.24159   0.08136
 152        6S          0.00000  -0.00382   0.00000  -0.03140   0.02507
 153        7PX         0.00000   0.00000   0.00000   0.00000   0.00000
 154        7PY         0.00024   0.00000  -0.01115   0.00000   0.00000
 155        7PZ         0.00000   0.02244   0.00000   0.04530   0.00132
 156        8PX         0.00000   0.00000   0.00000   0.00000   0.00000
 157        8PY         0.00002   0.00000   0.03262   0.00000   0.00000
 158        8PZ         0.00000  -0.03373   0.00000  -0.05697  -0.00515
 159        9PX         0.00000   0.00000   0.00000   0.00000   0.00000
 160        9PY         0.00001   0.00000   0.01235   0.00000   0.00000
 161        9PZ         0.00000  -0.01684   0.00000  -0.03196  -0.00123
 162       10PX         0.00000   0.00000   0.00000   0.00000   0.00000
 163       10PY         0.00002   0.00000   0.00995   0.00000   0.00000
 164       10PZ         0.00000   0.00128   0.00000   0.01624  -0.01710
 165       11PX         0.00000   0.00000   0.00000   0.00000   0.00000
 166       11PY         0.00000   0.00000  -0.00153   0.00000   0.00000
 167       11PZ         0.00000   0.00246   0.00000   0.00829   0.00067
 168       12D 0        0.00000   0.00680   0.00000   0.00973   0.00054
 169       12D+1        0.00000   0.00000   0.00000   0.00000   0.00000
 170       12D-1       -0.00002   0.00000  -0.00516   0.00000   0.00000
 171       12D+2        0.00000   0.00017   0.00000   0.00040   0.00325
 172       12D-2        0.00000   0.00000   0.00000   0.00000   0.00000
 173       13D 0        0.00000   0.01033   0.00000   0.02464   0.00114
 174       13D+1        0.00000   0.00000   0.00000   0.00000   0.00000
 175       13D-1        0.00000   0.00000  -0.00346   0.00000   0.00000
 176       13D+2        0.00000   0.00000   0.00000   0.00100   0.00244
 177       13D-2        0.00000   0.00000   0.00000   0.00000   0.00000
 178       14D 0        0.00000  -0.00257   0.00000  -0.00906  -0.00076
 179       14D+1        0.00000   0.00000   0.00000   0.00000   0.00000
 180       14D-1       -0.00001   0.00000   0.00200   0.00000   0.00000
 181       14D+2        0.00000  -0.00175   0.00000  -0.00085   0.00543
 182       14D-2        0.00000   0.00000   0.00000   0.00000   0.00000
 183       15F 0        0.00000  -0.00314   0.00000  -0.00892  -0.00077
 184       15F+1        0.00000   0.00000   0.00000   0.00000   0.00000
 185       15F-1        0.00000   0.00000   0.00172   0.00000   0.00000
 186       15F+2        0.00000   0.00019   0.00000  -0.00033  -0.00041
 187       15F-2        0.00000   0.00000   0.00000   0.00000   0.00000
 188       15F+3        0.00000   0.00000   0.00000   0.00000   0.00000
 189       15F-3        0.00000   0.00000   0.00009   0.00000   0.00000
 190       16F 0        0.00000   0.00082   0.00000   0.00529  -0.00009
 191       16F+1        0.00000   0.00000   0.00000   0.00000   0.00000
 192       16F-1        0.00001   0.00000   0.00077   0.00000   0.00000
 193       16F+2        0.00000  -0.00063   0.00000  -0.00077  -0.00130
 194       16F-2        0.00000   0.00000   0.00000   0.00000   0.00000
 195       16F+3        0.00000   0.00000   0.00000   0.00000   0.00000
 196       16F-3        0.00000   0.00000   0.00035   0.00000   0.00000
                          21        22        23        24        25
     Eigenvalues --     1.94881   1.94875   1.94807   1.94662   1.94098
   1 1   C  1S          0.12114   0.00000   0.00000   0.00000   0.00000
   2        2S         -0.33860   0.00000   0.00000   0.00000   0.00000
   3        3S         -0.08123   0.00000   0.00000   0.00000   0.00000
   4        4S         -0.21107   0.00000   0.00000   0.00000   0.00000
   5        5S         -0.00692   0.00000   0.00000   0.00000   0.00000
   6        6PX         0.00000   0.00000   0.09577   0.00000   0.00000
   7        6PY         0.00000   0.08056   0.00000   0.00000   0.16840
   8        6PZ         0.03645   0.00000   0.00000   0.00000   0.00000
   9        7PX         0.00000   0.00000   0.13679   0.00000   0.00000
  10        7PY         0.00000   0.11042   0.00000   0.00000   0.23760
  11        7PZ         0.06242   0.00000   0.00000   0.00000   0.00000
  12        8PX         0.00000   0.00000   0.06292   0.00000   0.00000
  13        8PY         0.00000   0.03382   0.00000   0.00000   0.08444
  14        8PZ        -0.01944   0.00000   0.00000   0.00000   0.00000
  15        9PX         0.00000   0.00000   0.00681   0.00000   0.00000
  16        9PY         0.00000   0.01041   0.00000   0.00000  -0.00685
  17        9PZ        -0.00274   0.00000   0.00000   0.00000   0.00000
  18       10D 0        0.00151   0.00000   0.00000   0.00000   0.00000
  19       10D+1        0.00000   0.00000  -0.00710   0.00000   0.00000
  20       10D-1        0.00000   0.00497   0.00000   0.00000  -0.00622
  21       10D+2        0.00721   0.00000   0.00000   0.00000   0.00000
  22       10D-2        0.00000   0.00000   0.00000  -0.01046   0.00000
  23       11D 0        0.00669   0.00000   0.00000   0.00000   0.00000
  24       11D+1        0.00000   0.00000  -0.02298   0.00000   0.00000
  25       11D-1        0.00000   0.01628   0.00000   0.00000  -0.01298
  26       11D+2        0.01648   0.00000   0.00000   0.00000   0.00000
  27       11D-2        0.00000   0.00000   0.00000  -0.03205   0.00000
  28       12D 0       -0.02087   0.00000   0.00000   0.00000   0.00000
  29       12D+1        0.00000   0.00000   0.01679   0.00000   0.00000
  30       12D-1        0.00000  -0.03676   0.00000   0.00000   0.01029
  31       12D+2       -0.00629   0.00000   0.00000   0.00000   0.00000
  32       12D-2        0.00000   0.00000   0.00000   0.01060   0.00000
  33       13F 0       -0.00357   0.00000   0.00000   0.00000   0.00000
  34       13F+1        0.00000   0.00000   0.00232   0.00000   0.00000
  35       13F-1        0.00000  -0.00249   0.00000   0.00000   0.00788
  36       13F+2       -0.00472   0.00000   0.00000   0.00000   0.00000
  37       13F-2        0.00000   0.00000   0.00000   0.00440   0.00000
  38       13F+3        0.00000   0.00000  -0.00475   0.00000   0.00000
  39       13F-3        0.00000  -0.00292   0.00000   0.00000  -0.00288
  40       14F 0       -0.00680   0.00000   0.00000   0.00000   0.00000
  41       14F+1        0.00000   0.00000   0.00235   0.00000   0.00000
  42       14F-1        0.00000  -0.00919   0.00000   0.00000  -0.00115
  43       14F+2       -0.00196   0.00000   0.00000   0.00000   0.00000
  44       14F-2        0.00000   0.00000   0.00000   0.00579   0.00000
  45       14F+3        0.00000   0.00000  -0.00340   0.00000   0.00000
  46       14F-3        0.00000  -0.00315   0.00000   0.00000   0.00089
  47 2   Cl 1S          0.01480   0.00872   0.00000   0.00000   0.00672
  48        2S         -0.05620  -0.03370   0.00000   0.00000  -0.02713
[...]
  51        5S         -4.84449   0.00000  -0.93680   0.04823  -0.14242
  52        6S        -13.79099   0.00000   7.10384   5.53742   9.93000
  53        7PX         0.00000  -0.01629   0.00000   0.00000   0.00000
  54        7PY         0.02351   0.00000  -0.01290   0.00359  -0.01618
  55        7PZ         0.00122   0.00000  -0.00379  -0.01113  -0.01417
  56        8PX         0.00000  -0.19116   0.00000   0.00000   0.00000
  57        8PY         0.38034   0.00000  -0.16319   0.04369  -0.25870
  58        8PZ         0.02890   0.00000  -0.03943  -0.14324  -0.23240
  59        9PX         0.00000   0.06249   0.00000   0.00000   0.00000
  60        9PY        -0.08640   0.00000   0.05022  -0.01349   0.06128
  61        9PZ        -0.00121   0.00000   0.01557   0.04350   0.05414
  62       10PX         0.00000   0.82019   0.00000   0.00000   0.00000
  63       10PY        -5.25437   0.00000   0.76739   0.64575   1.88405
  64       10PZ        -2.66672   0.00000   0.57139   1.42466   1.35700
  65       11PX         0.00000  -2.37628   0.00000   0.00000   0.00000
  66       11PY        -2.42177   0.00000  -1.69996   1.31020   1.46300
  67       11PZ        -1.47231   0.00000   1.04338  -2.65710   1.64019
  68       12D 0        0.01808   0.00000  -0.00992  -0.02367  -0.00488
  69       12D+1        0.00000  -0.01459   0.00000   0.00000   0.00000
  70       12D-1       -0.02000   0.00000   0.00346  -0.00057   0.01704
  71       12D+2        0.04096   0.00000   0.04280   0.00808   0.01294
  72       12D-2        0.00000  -0.02181   0.00000   0.00000   0.00000
  73       13D 0       -0.10754   0.00000   0.05318   0.09100   0.00065
  74       13D+1        0.00000   0.06180   0.00000   0.00000   0.00000
  75       13D-1        0.00514   0.00000   0.01320   0.04106  -0.09213
  76       13D+2       -0.12602   0.00000  -0.14883  -0.03833  -0.03471
  77       13D-2        0.00000   0.09103   0.00000   0.00000   0.00000
  78       14D 0        0.37796   0.00000  -0.00776  -0.19063   0.09402
  79       14D+1        0.00000  -0.09197   0.00000   0.00000   0.00000
  80       14D-1       -1.29649   0.00000   0.15900   0.33512   0.51154
  81       14D+2        1.04425   0.00000   0.31058  -0.04446  -0.30577
  82       14D-2        0.00000   0.09181   0.00000   0.00000   0.00000
  83       15F 0       -0.01759   0.00000   0.02903   0.00231   0.00751
  84       15F+1        0.00000  -0.01187   0.00000   0.00000   0.00000
  85       15F-1        0.03717   0.00000  -0.00653   0.01313  -0.00380
  86       15F+2       -0.01896   0.00000   0.00817   0.02702   0.02081
  87       15F-2        0.00000  -0.00524   0.00000   0.00000   0.00000
  88       15F+3        0.00000   0.05036   0.00000   0.00000   0.00000
  89       15F-3        0.01654   0.00000   0.02007  -0.00312   0.03264
  90       16F 0        0.07398   0.00000  -0.06152  -0.04461   0.00469
  91       16F+1        0.00000   0.00902   0.00000   0.00000   0.00000
  92       16F-1       -0.12710   0.00000   0.03479  -0.02556   0.00196
  93       16F+2        0.10293   0.00000  -0.01771  -0.07716  -0.03793
  94       16F-2        0.00000   0.02264   0.00000   0.00000   0.00000
  95       16F+3        0.00000  -0.12766   0.00000   0.00000   0.00000
  96       16F-3       -0.00528   0.00000  -0.02097   0.00758  -0.07350
  97 3   Cl 1S         -0.01572   0.00000  -0.01016   0.00523   0.00349
  98        2S         -0.21066   0.00000  -0.18851   0.10002   0.08023
  99        3S         -0.59952   0.00000  -0.42583   0.21929   0.15767
 100        4S          0.02345   0.00000   0.16907  -0.10504  -0.09951
 101        5S          4.84449   0.00000   0.93680   0.04823  -0.14242
 102        6S         13.79099   0.00000  -7.10384   5.53742   9.93000
 103        7PX         0.00000  -0.01629   0.00000   0.00000   0.00000
 104        7PY         0.02351   0.00000  -0.01290  -0.00359   0.01618
 105        7PZ        -0.00122   0.00000   0.00379  -0.01113  -0.01417
 106        8PX         0.00000  -0.19116   0.00000   0.00000   0.00000
 107        8PY         0.38034   0.00000  -0.16319  -0.04369   0.25870
 108        8PZ        -0.02890   0.00000   0.03943  -0.14324  -0.23240
 109        9PX         0.00000   0.06249   0.00000   0.00000   0.00000
 110        9PY        -0.08640   0.00000   0.05022   0.01349  -0.06128
 111        9PZ         0.00121   0.00000  -0.01557   0.04350   0.05414
 112       10PX         0.00000   0.82019   0.00000   0.00000   0.00000
 113       10PY        -5.25437   0.00000   0.76739  -0.64575  -1.88405
 114       10PZ         2.66672   0.00000  -0.57139   1.42466   1.35700
 115       11PX         0.00000  -2.37628   0.00000   0.00000   0.00000
 116       11PY        -2.42177   0.00000  -1.69996  -1.31020  -1.46300
 117       11PZ         1.47231   0.00000  -1.04338  -2.65710   1.64019
 118       12D 0       -0.01808   0.00000   0.00992  -0.02367  -0.00488
 119       12D+1        0.00000  -0.01459   0.00000   0.00000   0.00000
 120       12D-1       -0.02000   0.00000   0.00346   0.00057  -0.01704
 121       12D+2       -0.04096   0.00000  -0.04280   0.00808   0.01294
 122       12D-2        0.00000   0.02181   0.00000   0.00000   0.00000
 123       13D 0        0.10754   0.00000  -0.05318   0.09100   0.00065
 124       13D+1        0.00000   0.06180   0.00000   0.00000   0.00000
 125       13D-1        0.00514   0.00000   0.01320  -0.04106   0.09213
 126       13D+2        0.12602   0.00000   0.14883  -0.03833  -0.03471
 127       13D-2        0.00000  -0.09103   0.00000   0.00000   0.00000
 128       14D 0       -0.37796   0.00000   0.00776  -0.19063   0.09402
 129       14D+1        0.00000  -0.09197   0.00000   0.00000   0.00000
 130       14D-1       -1.29649   0.00000   0.15900  -0.33512  -0.51154
 131       14D+2       -1.04425   0.00000  -0.31058  -0.04446  -0.30577
 132       14D-2        0.00000  -0.09181   0.00000   0.00000   0.00000
 133       15F 0        0.01759   0.00000  -0.02903   0.00231   0.00751
 134       15F+1        0.00000  -0.01187   0.00000   0.00000   0.00000
 135       15F-1        0.03717   0.00000  -0.00653  -0.01313   0.00380
 136       15F+2        0.01896   0.00000  -0.00817   0.02702   0.02081
 137       15F-2        0.00000   0.00524   0.00000   0.00000   0.00000
 138       15F+3        0.00000   0.05036   0.00000   0.00000   0.00000
 139       15F-3        0.01654   0.00000   0.02007   0.00312  -0.03264
 140       16F 0       -0.07398   0.00000   0.06152  -0.04461   0.00469
 141       16F+1        0.00000   0.00902   0.00000   0.00000   0.00000
 142       16F-1       -0.12710   0.00000   0.03479   0.02556  -0.00196
 143       16F+2       -0.10293   0.00000   0.01771  -0.07716  -0.03793
 144       16F-2        0.00000  -0.02264   0.00000   0.00000   0.00000
 145       16F+3        0.00000  -0.12766   0.00000   0.00000   0.00000
 146       16F-3       -0.00528   0.00000  -0.02097  -0.00758   0.07350
 147 4   S  1S          0.00000   0.00000   0.00000   0.00176  -0.00364
 148        2S          0.00000   0.00000   0.00000  -0.00387  -0.05912
 149        3S          0.00000   0.00000   0.00000   0.05187  -0.16210
 150        4S          0.00000   0.00000   0.00000   0.10766   0.01805
 151        5S          0.00000   0.00000   0.00000  -3.78121   2.36176
 152        6S          0.00000   0.00000   0.00000 -15.61338   4.85470
 153        7PX         0.00000  -0.02022   0.00000   0.00000   0.00000
 154        7PY         0.01764   0.00000   0.00388   0.00000   0.00000
 155        7PZ         0.00000   0.00000   0.00000  -0.00736  -0.00045
 156        8PX         0.00000  -0.09104   0.00000   0.00000   0.00000
 157        8PY         0.27125   0.00000   0.13773   0.00000   0.00000
 158        8PZ         0.00000   0.00000   0.00000  -0.00948  -0.11671
 159        9PX         0.00000   0.07596   0.00000   0.00000   0.00000
 160        9PY        -0.06585   0.00000  -0.01278   0.00000   0.00000
 161        9PZ         0.00000   0.00000   0.00000   0.02050  -0.00202
 162       10PX         0.00000  -0.62712   0.00000   0.00000   0.00000
 163       10PY        -3.64000   0.00000  -0.50670   0.00000   0.00000
 164       10PZ         0.00000   0.00000   0.00000   3.61309  -0.48661
 165       11PX         0.00000  -4.14423   0.00000   0.00000   0.00000
 166       11PY        -0.07548   0.00000  -4.79064   0.00000   0.00000
 167       11PZ         0.00000   0.00000   0.00000  -1.07224   0.71868
 168       12D 0        0.00000   0.00000   0.00000  -0.45071   0.32922
 169       12D+1        0.00000  -0.34380   0.00000   0.00000   0.00000
 170       12D-1       -0.07633   0.00000  -0.35947   0.00000   0.00000
 171       12D+2        0.00000   0.00000   0.00000   0.10641  -0.15170
 172       12D-2        0.00000   0.00000   0.00000   0.00000   0.00000
 173       13D 0        0.00000   0.00000   0.00000   0.08346  -0.08319
 174       13D+1        0.00000   0.06943   0.00000   0.00000   0.00000
 175       13D-1        0.04300   0.00000   0.06981   0.00000   0.00000
 176       13D+2        0.00000   0.00000   0.00000  -0.03163   0.03131
 177       13D-2        0.00000   0.00000   0.00000   0.00000   0.00000
 178       14D 0        0.00000   0.00000   0.00000   0.15919  -1.13096
 179       14D+1        0.00000   1.23578   0.00000   0.00000   0.00000
 180       14D-1        1.52360   0.00000   0.96698   0.00000   0.00000
 181       14D+2        0.00000   0.00000   0.00000  -0.43484   0.17606
 182       14D-2        0.00000   0.00000   0.00000   0.00000   0.00000
 183       15F 0        0.00000   0.00000   0.00000  -0.01279  -0.01025
 184       15F+1        0.00000   0.01556   0.00000   0.00000   0.00000
 185       15F-1       -0.06790   0.00000   0.00653   0.00000   0.00000
 186       15F+2        0.00000   0.00000   0.00000  -0.01280   0.00166
 187       15F-2        0.00000   0.00000   0.00000   0.00000   0.00000
 188       15F+3        0.00000   0.02650   0.00000   0.00000   0.00000
 189       15F-3       -0.00351   0.00000   0.04060   0.00000   0.00000
 190       16F 0        0.00000   0.00000   0.00000   0.08057   0.12926
 191       16F+1        0.00000  -0.01694   0.00000   0.00000   0.00000
 192       16F-1        0.09492   0.00000   0.00730   0.00000   0.00000
 193       16F+2        0.00000   0.00000   0.00000   0.07224   0.01942
 194       16F-2        0.00000   0.00000   0.00000   0.00000   0.00000
 195       16F+3        0.00000  -0.05986   0.00000   0.00000   0.00000
 196       16F-3        0.01829   0.00000  -0.09458   0.00000   0.00000
                         196
     Eigenvalues --     0.00000
   1 1   C  1S         -0.03018
   2        2S         -0.10666
   3        3S          0.13087
   4        4S          2.54687
   5        5S         20.66875
   6        6PX         0.00000
   7        6PY         0.00000
   8        6PZ         0.02330
   9        7PX         0.00000
  10        7PY         0.00000
  11        7PZ        -0.21912
  12        8PX         0.00000
  13        8PY         0.00000
  14        8PZ         1.12974
  15        9PX         0.00000
  16        9PY         0.00000
  17        9PZ         3.26393
  18       10D 0        0.01175
  19       10D+1        0.00000
  20       10D-1        0.00000
  21       10D+2       -0.03455
  22       10D-2        0.00000
  23       11D 0       -0.34416
  24       11D+1        0.00000
  25       11D-1        0.00000
  26       11D+2        0.16601
  27       11D-2        0.00000
  28       12D 0       -1.04836
  29       12D+1        0.00000
  30       12D-1        0.00000
  31       12D+2       -0.72479
  32       12D-2        0.00000
  33       13F 0       -0.02620
  34       13F+1        0.00000
  35       13F-1        0.00000
  36       13F+2        0.00000
  37       13F-2        0.00000
  38       13F+3        0.00000
  39       13F-3        0.00000
  40       14F 0       -0.14315
  41       14F+1        0.00000
  42       14F-1        0.00000
  43       14F+2       -0.12075
  44       14F-2        0.00000
  45       14F+3        0.00000
  46       14F-3        0.00000
  47 2   Cl 1S         -0.00093
  48        2S         -0.01232
  49        3S         -0.03550
  50        4S         -0.00306
  51        5S          0.37193
  52        6S         -3.28276
  53        7PX         0.00000
  54        7PY         0.00773
  55        7PZ         0.00352
  56        8PX         0.00000
  57        8PY         0.13770
  58        8PZ         0.08654
  59        9PX         0.00000
  60        9PY        -0.02792
  61        9PZ        -0.01088
  62       10PX         0.00000
  63       10PY         0.16320
  64       10PZ        -0.40458
  65       11PX         0.00000
  66       11PY        -0.71026
  67       11PZ        -0.97860
  68       12D 0        0.00816
  69       12D+1        0.00000
  70       12D-1       -0.01008
  71       12D+2       -0.00780
  72       12D-2        0.00000
  73       13D 0       -0.04005
  74       13D+1        0.00000
  75       13D-1        0.08644
  76       13D+2       -0.00855
  77       13D-2        0.00000
  78       14D 0       -0.05183
  79       14D+1        0.00000
  80       14D-1       -0.16307
  81       14D+2       -0.17231
  82       14D-2        0.00000
  83       15F 0       -0.00496
  84       15F+1        0.00000
  85       15F-1        0.00643
  86       15F+2       -0.00329
  87       15F-2        0.00000
  88       15F+3        0.00000
  89       15F-3       -0.00151
  90       16F 0        0.00467
  91       16F+1        0.00000
  92       16F-1       -0.02013
  93       16F+2       -0.00505
  94       16F-2        0.00000
  95       16F+3        0.00000
  96       16F-3       -0.01146
  97 3   Cl 1S         -0.00093
  98        2S         -0.01232
  99        3S         -0.03550
 100        4S         -0.00306
 101        5S          0.37193
 102        6S         -3.28276
 103        7PX         0.00000
 104        7PY        -0.00773
 105        7PZ         0.00352
 106        8PX         0.00000
 107        8PY        -0.13770
 108        8PZ         0.08654
 109        9PX         0.00000
 110        9PY         0.02792
 111        9PZ        -0.01088
 112       10PX         0.00000
 113       10PY        -0.16320
 114       10PZ        -0.40458
 115       11PX         0.00000
 116       11PY         0.71026
 117       11PZ        -0.97860
 118       12D 0        0.00816
 119       12D+1        0.00000
 120       12D-1        0.01008
 121       12D+2       -0.00780
 122       12D-2        0.00000
 123       13D 0       -0.04005
 124       13D+1        0.00000
 125       13D-1       -0.08644
 126       13D+2       -0.00855
 127       13D-2        0.00000
 128       14D 0       -0.05183
 129       14D+1        0.00000
 130       14D-1        0.16307
 131       14D+2       -0.17231
 132       14D-2        0.00000
 133       15F 0       -0.00496
 134       15F+1        0.00000
 135       15F-1       -0.00643
 136       15F+2       -0.00329
 137       15F-2        0.00000
 138       15F+3        0.00000
 139       15F-3        0.00151
 140       16F 0        0.00467
 141       16F+1        0.00000
 142       16F-1        0.02013
 143       16F+2       -0.00505
 144       16F-2        0.00000
 145       16F+3        0.00000
 146       16F-3        0.01146
 147 4   S  1S         -0.00391
 148        2S         -0.10292
 149        3S         -0.21205
 150        4S          0.10197
 151        5S          2.83378
 152        6S        -18.11903
 153        7PX         0.00000
 154        7PY         0.00000
 155        7PZ        -0.04629
 156        8PX         0.00000
 157        8PY         0.00000
 158        8PZ        -0.93447
 159        9PX         0.00000
 160        9PY         0.00000
 161        9PZ         0.14378
 162       10PX         0.00000
 163       10PY         0.00000
 164       10PZ         3.45523
 165       11PX         0.00000
 166       11PY         0.00000
 167       11PZ         4.77738
 168       12D 0        0.32435
 169       12D+1        0.00000
 170       12D-1        0.00000
 171       12D+2        0.08880
 172       12D-2        0.00000
 173       13D 0       -0.00544
 174       13D+1        0.00000
 175       13D-1        0.00000
 176       13D+2       -0.02014
 177       13D-2        0.00000
 178       14D 0       -1.74451
 179       14D+1        0.00000
 180       14D-1        0.00000
 181       14D+2        0.04701
 182       14D-2        0.00000
 183       15F 0       -0.08932
 184       15F+1        0.00000
 185       15F-1        0.00000
 186       15F+2        0.01212
 187       15F-2        0.00000
 188       15F+3        0.00000
 189       15F-3        0.00000
 190       16F 0        0.19257
 191       16F+1        0.00000
 192       16F-1        0.00000
 193       16F+2       -0.08680
 194       16F-2        0.00000
 195       16F+3        0.00000
 196       16F-3        0.00000
          Condensed to atoms (all electrons):
              1          2          3          4
     1  C    5.661463   0.077501   0.077501   0.176374
     2  Cl   0.077501  17.192203  -0.120411  -0.129031
     3  Cl   0.077501  -0.120411  17.192203  -0.129031
     4  S    0.176374  -0.129031  -0.129031  16.048325
 Mulliken atomic charges:
              1
     1  C    0.007161
     2  Cl  -0.020262
     3  Cl  -0.020262
     4  S    0.033364
 Sum of Mulliken atomic charges =   0.00000
 Mulliken charges with hydrogens summed into heavy atoms:
              1
     1  C    0.007161
     2  Cl  -0.020262
     3  Cl  -0.020262
     4  S    0.033364
 Sum of Mulliken charges with hydrogens summed into heavy atoms =   0.00000
 Electronic spatial extent (au):  <R**2>=            690.5122
 Charge=              0.0000 electrons
 Dipole moment (field-independent basis, Debye):
    X=              0.0000    Y=              0.0000    Z=             -0.3499  Tot=              0.3499
 Quadrupole moment (field-independent basis, Debye-Ang):
   XX=            -43.1373   YY=            -43.3736   ZZ=            -42.5490
   XY=              0.0000   XZ=              0.0000   YZ=              0.0000
 Traceless Quadrupole moment (field-independent basis, Debye-Ang):
   XX=             -0.1173   YY=             -0.3537   ZZ=              0.4710
   XY=              0.0000   XZ=              0.0000   YZ=              0.0000
 Octapole moment (field-independent basis, Debye-Ang**2):
  XXX=              0.0000  YYY=              0.0000  ZZZ=             81.6988  XYY=              0.0000
  XXY=              0.0000  XXZ=             27.1786  XZZ=              0.0000  YZZ=              0.0000
  YYZ=             19.1442  XYZ=              0.0000
 Hexadecapole moment (field-independent basis, Debye-Ang**3):
 XXXX=            -50.8336 YYYY=           -341.2727 ZZZZ=           -477.3129 XXXY=              0.0000
 XXXZ=              0.0000 YYYX=              0.0000 YYYZ=              0.0000 ZZZX=              0.0000
 ZZZY=              0.0000 XXYY=            -69.2909 XXZZ=            -89.6978 YYZZ=           -127.3857
 XXYZ=              0.0000 YYXZ=              0.0000 ZZXY=              0.0000
 N-N= 2.448886620549D+02 E-N=-3.713371489723D+03  KE= 1.355047304837D+03
 1\1\GINC-TRAPISTA\SP\RQCISD-FC\Aug-CC-pVTZ\C1Cl2S1\BRUNS\27-Nov-2021\0
 \\# qcisd/aug-cc-pvtz nosymm density=current output=wfn\\cl2cs-wavefun
 ction\\0,1\C,0,0.,0.,-0.512914\Cl,0,0.,-1.430735,-1.5009\Cl,0,0.,1.430
 735,-1.5009\S,0,0.,0.,1.081815\\Version=EM64L-G09RevB.01\HF=-1354.4260
 696\MP2=-1355.1502694\MP3=-1355.1829465\MP4D=-1355.2046922\MP4DQ=-1355
 .1798464\MP4SDQ=-1355.1866212\QCISD=-1355.1841295\RMSD=9.699e-09\Dipol
 e=0.,0.,-0.1376684\Quadrupole=-0.0872245,-0.262939,0.3501635,0.,0.,0.\
 PG=C02V [C2(C1S1),SGV(Cl2)]\\@

 Writing a WFN file to GAUSSIAN.wfn.


 Other things may change us, but we start and end with family.
 -- Anthony Brandt
 Job cpu time:  0 days  2 hours 20 minutes 14.9 seconds.
 File lengths (MBytes):  RWF=  18573 Int=      0 D2E=      0 Chk=      3 Scr=      1
 Normal termination of Gaussian 09 at Sat Nov 27 21:04:34 2021.
