 Entering Gaussian System, Link 0=/home/bruns/programas/chemistry/gaussian/g09/g09
 Input=GAUSSIAN.com
 Output=GAUSSIAN.log
 Initial command:
 /home/bruns/programas/chemistry/gaussian/g09/l1.exe /home/bruns/programas/chemistry/gaussian/work/Gau-64899.inp -scrdir=/home/bruns/programas/chemistry/gaussian/work/
 Entering Link 1 = /home/bruns/programas/chemistry/gaussian/g09/l1.exe PID=     64901.
  
 Copyright (c) 1988,1990,1992,1993,1995,1998,2003,2009,2010,
            Gaussian, Inc.  All Rights Reserved.
  
 This is part of the Gaussian(R) 09 program.  It is based on
 the Gaussian(R) 03 system (copyright 2003, Gaussian, Inc.),
 the Gaussian(R) 98 system (copyright 1998, Gaussian, Inc.),
 the Gaussian(R) 94 system (copyright 1995, Gaussian, Inc.),
 the Gaussian 92(TM) system (copyright 1992, Gaussian, Inc.),
 the Gaussian 90(TM) system (copyright 1990, Gaussian, Inc.),
 the Gaussian 88(TM) system (copyright 1988, Gaussian, Inc.),
 the Gaussian 86(TM) system (copyright 1986, Carnegie Mellon
 University), and the Gaussian 82(TM) system (copyright 1983,
 Carnegie Mellon University). Gaussian is a federally registered
 trademark of Gaussian, Inc.
  
 This software contains proprietary and confidential information,
 including trade secrets, belonging to Gaussian, Inc.
  
 This software is provided under written license and may be
 used, copied, transmitted, or stored only in accord with that
 written license.
  
 The following legend is applicable only to US Government
 contracts under FAR:
  
                    RESTRICTED RIGHTS LEGEND
  
 Use, reproduction and disclosure by the US Government is
 subject to restrictions as set forth in subparagraphs (a)
 and (c) of the Commercial Computer Software - Restricted
 Rights clause in FAR 52.227-19.
  
 Gaussian, Inc.
 340 Quinnipiac St., Bldg. 40, Wallingford CT 06492
  
  
 ---------------------------------------------------------------
 Warning -- This program may not be used in any manner that
 competes with the business of Gaussian, Inc. or will provide
 assistance to any competitor of Gaussian, Inc.  The licensee
 of this program is prohibited from giving any competitor of
 Gaussian, Inc. access to this program.  By using this program,
 the user acknowledges that Gaussian, Inc. is engaged in the
 business of creating and licensing software in the field of
 computational chemistry and represents and warrants to the
 licensee that it is not a competitor of Gaussian, Inc. and that
 it will not use this program in any manner prohibited above.
 ---------------------------------------------------------------
  

 Cite this work as:
 Gaussian 09, Revision B.01,
 M. J. Frisch, G. W. Trucks, H. B. Schlegel, G. E. Scuseria, 
 M. A. Robb, J. R. Cheeseman, G. Scalmani, V. Barone, B. Mennucci, 
 G. A. Petersson, H. Nakatsuji, M. Caricato, X. Li, H. P. Hratchian, 
 A. F. Izmaylov, J. Bloino, G. Zheng, J. L. Sonnenberg, M. Hada, 
 M. Ehara, K. Toyota, R. Fukuda, J. Hasegawa, M. Ishida, T. Nakajima, 
 Y. Honda, O. Kitao, H. Nakai, T. Vreven, J. A. Montgomery, Jr., 
 J. E. Peralta, F. Ogliaro, M. Bearpark, J. J. Heyd, E. Brothers, 
 K. N. Kudin, V. N. Staroverov, T. Keith, R. Kobayashi, J. Normand, 
 K. Raghavachari, A. Rendell, J. C. Burant, S. S. Iyengar, J. Tomasi, 
 M. Cossi, N. Rega, J. M. Millam, M. Klene, J. E. Knox, J. B. Cross, 
 V. Bakken, C. Adamo, J. Jaramillo, R. Gomperts, R. E. Stratmann, 
 O. Yazyev, A. J. Austin, R. Cammi, C. Pomelli, J. W. Ochterski, 
 R. L. Martin, K. Morokuma, V. G. Zakrzewski, G. A. Voth, 
 P. Salvador, J. J. Dannenberg, S. Dapprich, A. D. Daniels, 
 O. Farkas, J. B. Foresman, J. V. Ortiz, J. Cioslowski, 
 and D. J. Fox, Gaussian, Inc., Wallingford CT, 2010.
 
 ******************************************
 Gaussian 09:  EM64L-G09RevB.01 12-Aug-2010
                28-Nov-2021 
 ******************************************
 %nproc=8
 Will use up to    8 processors via shared memory.
 %mem=8GB
 -----------------------------------------------------
 # qcisd/aug-cc-pvtz nosymm density=current output=wfn
 -----------------------------------------------------
 1/30=1,38=1/1;
 2/12=2,15=1,17=6,18=5,40=1/2;
 3/5=16,6=1,7=10,11=9,16=1,25=1,30=1,71=1/1,2,3;
 4//1;
 5/5=2,38=5/2;
 8/6=4,9=120000,10=1/1,4;
 9/5=8,15=1/13;
 11/28=-7,31=1,32=3,42=3/11;
 10/5=6,13=10,31=1/2;
 6/7=2,8=2,9=2,10=2,22=-1,31=1/1;
 99/5=1,6=1100,9=1/99;
 ------------------
 cl2cs-wavefunction
 ------------------
 Symbolic Z-matrix:
 Charge =  0 Multiplicity = 1
 C                     0.        0.       -0.52291 
 Cl                    0.       -1.43074  -1.5009 
 Cl                    0.        1.43074  -1.5009 
 S                     0.01      0.        1.08181 
 
                          Input orientation:                          
 ---------------------------------------------------------------------
 Center     Atomic      Atomic             Coordinates (Angstroms)
 Number     Number       Type             X           Y           Z
 ---------------------------------------------------------------------
      1          6           0        0.000000    0.000000   -0.522914
      2         17           0        0.000000   -1.430735   -1.500900
      3         17           0        0.000000    1.430735   -1.500900
      4         16           0        0.010000    0.000000    1.081815
 ---------------------------------------------------------------------
                    Distance matrix (angstroms):
                    1          2          3          4
     1  C    0.000000
     2  Cl   1.733049   0.000000
     3  Cl   1.733049   2.861470   0.000000
     4  S    1.604760   2.952545   2.952545   0.000000
 Symmetry turned off by external request.
 Stoichiometry    CCl2S
 Framework group  CS[SG(CS),X(Cl2)]
 Deg. of freedom     4
 Full point group                 CS      NOp   2
 Rotational constants (GHZ):      3.5300995      3.4458469      1.7437341
 Standard basis: Aug-CC-pVTZ (5D, 7F)
 Integral buffers will be    131072 words long.
 Raffenetti 1 integral format.
 Two-electron integral symmetry is turned off.
   196 basis functions,   414 primitive gaussians,   232 cartesian basis functions
    28 alpha electrons       28 beta electrons
       nuclear repulsion energy       244.8918487170 Hartrees.
 NAtoms=    4 NActive=    4 NUniq=    4 SFac= 1.00D+00 NAtFMM=   50 NAOKFM=F Big=F
 One-electron integrals computed using PRISM.
 NBasis=   196 RedAO= T  NBF=   196
 NBsUse=   196 1.00D-06 NBFU=   196
 Harris functional with IExCor=  205 diagonalized for initial guess.
 ExpMin= 3.51D-02 ExpMax= 4.56D+05 ExpMxC= 1.44D+03 IAcc=3 IRadAn=         0 AccDes= 0.00D+00
 HarFok:  IExCor=  205 AccDes= 0.00D+00 IRadAn=         0 IDoV= 1
 ScaDFX=  1.000000  1.000000  1.000000  1.000000
 FoFCou: FMM=F IPFlag=           0 FMFlag=      100000 FMFlg1=           0
         NFxFlg=           0 DoJE=T BraDBF=F KetDBF=T FulRan=T
         Omega=  0.000000  0.000000  1.000000  0.000000  0.000000 ICntrl=     500 IOpCl=  0
         NMat0=    1 NMatS0=    1 NMatT0=    0 NMatD0=    1 NMtDS0=    0 NMtDT0=    0
         I1Cent=           4 NGrid=           0.
 Symmetry not used in FoFCou.
 Requested convergence on RMS density matrix=1.00D-08 within 128 cycles.
 Requested convergence on MAX density matrix=1.00D-06.
 Requested convergence on             energy=1.00D-06.
 No special actions if energy rises.
 Keep R1 ints in memory in canonical form, NReq=371777346.
 SCF Done:  E(RHF) =  -1354.42602062     A.U. after   12 cycles
             Convg  =    0.9620D-08             -V/T =  2.0001
 ExpMin= 3.51D-02 ExpMax= 4.56D+05 ExpMxC= 1.44D+03 IAcc=3 IRadAn=         5 AccDes= 0.00D+00
 HarFok:  IExCor=  205 AccDes= 0.00D+00 IRadAn=         5 IDoV=-2
 ScaDFX=  1.000000  1.000000  1.000000  1.000000
 DSYEVD returned Info=          93 IAlg= 4 N=    46 NDim=    46 NE2=    21472333 trying DSYEV.
 Range of M.O.s used for correlation:    17   196
 NBasis=   196 NAE=    28 NBE=    28 NFC=    16 NFV=     0
 NROrb=    180 NOA=    12 NOB=    12 NVA=   168 NVB=   168

 **** Warning!!: The largest alpha MO coefficient is  0.31158317D+02

 Semi-Direct transformation.
 ModeAB=           2 MOrb=            12 LenV=    1072679875
 LASXX=     33405819 LTotXX=    33405819 LenRXX=    33405819
 LTotAB=    33954012 MaxLAS=    58380480 LenRXY=    58380480
 NonZer=    66811638 LenScr=   100987392 LnRSAI=           0
 LnScr1=           0 LExtra=           0 Total=    192773691
 MaxDsk=          -1 SrtSym=           F ITran=            4
 JobTyp=0 Pass  1:  I=   1 to  12.
 (rs|ai) integrals will be sorted in core.
 Spin components of T(2) and E(2):
     alpha-alpha T2 =       0.3952999823D-01 E2=     -0.9366376296D-01
     alpha-beta  T2 =       0.2072481372D+00 E2=     -0.5370480033D+00
     beta-beta   T2 =       0.3952999823D-01 E2=     -0.9366376296D-01
 ANorm=    0.1134155251D+01
 E2 =    -0.7243755292D+00 EUMP2 =    -0.13551503961463D+04
 R2 and R3 integrals will be kept in memory, NReq=   736864364.
 Iterations=  50 Convergence= 0.100D-07
 Iteration Nr.   1
 **********************
 DD1Dir will call FoFMem   1 times, MxPair=       156
 NAB=    78 NAA=     0 NBB=     0.
 MP4(R+Q)=  0.24886402D-01
 E3=       -0.32599667D-01        EUMP3=      -0.13551829958D+04
 E4(DQ)=    0.31061398D-02        UMP4(DQ)=   -0.13551798897D+04
 E4(SDQ)=  -0.37173057D-02        UMP4(SDQ)=  -0.13551867131D+04
 DE(Corr)= -0.73208879     E(Corr)=     -1355.1581094    
 NORM(A)=   0.11380826D+01
 Iteration Nr.   2
 **********************
 DD1Dir will call FoFMem   1 times, MxPair=       156
 NAB=    78 NAA=     0 NBB=     0.
 DE(Corr)= -0.75642153     E(CORR)=     -1355.1824421     Delta=-2.43D-02
 NORM(A)=   0.11490817D+01
 Iteration Nr.   3
 **********************
 DD1Dir will call FoFMem   1 times, MxPair=       156
 NAB=    78 NAA=     0 NBB=     0.
 DE(Corr)= -0.75560473     E(CORR)=     -1355.1816253     Delta= 8.17D-04
 NORM(A)=   0.11518251D+01
 Iteration Nr.   4
 **********************
 DD1Dir will call FoFMem   1 times, MxPair=       156
 NAB=    78 NAA=     0 NBB=     0.
 DE(Corr)= -0.75786763     E(CORR)=     -1355.1838883     Delta=-2.26D-03
 NORM(A)=   0.11529023D+01
 Iteration Nr.   5
 **********************
 DD1Dir will call FoFMem   1 times, MxPair=       156
 NAB=    78 NAA=     0 NBB=     0.
 DE(Corr)= -0.75814578     E(CORR)=     -1355.1841664     Delta=-2.78D-04
 NORM(A)=   0.11534397D+01
 Iteration Nr.   6
 **********************
 DD1Dir will call FoFMem   1 times, MxPair=       156
 NAB=    78 NAA=     0 NBB=     0.
 DE(Corr)= -0.75819870     E(CORR)=     -1355.1842193     Delta=-5.29D-05
 NORM(A)=   0.11535027D+01
 Iteration Nr.   7
 **********************
 DD1Dir will call FoFMem   1 times, MxPair=       156
 NAB=    78 NAA=     0 NBB=     0.
 DE(Corr)= -0.75820597     E(CORR)=     -1355.1842266     Delta=-7.26D-06
 NORM(A)=   0.11535081D+01
 Iteration Nr.   8
 **********************
 DD1Dir will call FoFMem   1 times, MxPair=       156
 NAB=    78 NAA=     0 NBB=     0.
 DE(Corr)= -0.75820407     E(CORR)=     -1355.1842247     Delta= 1.90D-06
 NORM(A)=   0.11535146D+01
 Iteration Nr.   9
 **********************
 DD1Dir will call FoFMem   1 times, MxPair=       156
 NAB=    78 NAA=     0 NBB=     0.
 DE(Corr)= -0.75820413     E(CORR)=     -1355.1842247     Delta=-6.23D-08
 NORM(A)=   0.11535135D+01
 Iteration Nr.  10
 **********************
 DD1Dir will call FoFMem   1 times, MxPair=       156
 NAB=    78 NAA=     0 NBB=     0.
 DE(Corr)= -0.75820511     E(CORR)=     -1355.1842257     Delta=-9.83D-07
 NORM(A)=   0.11535153D+01
 Iteration Nr.  11
 **********************
 DD1Dir will call FoFMem   1 times, MxPair=       156
 NAB=    78 NAA=     0 NBB=     0.
 DE(Corr)= -0.75820580     E(CORR)=     -1355.1842264     Delta=-6.89D-07
 NORM(A)=   0.11535163D+01
 Iteration Nr.  12
 **********************
 DD1Dir will call FoFMem   1 times, MxPair=       156
 NAB=    78 NAA=     0 NBB=     0.
 DE(Corr)= -0.75820603     E(CORR)=     -1355.1842266     Delta=-2.25D-07
 NORM(A)=   0.11535170D+01
 Iteration Nr.  13
 **********************
 DD1Dir will call FoFMem   1 times, MxPair=       156
 NAB=    78 NAA=     0 NBB=     0.
 DE(Corr)= -0.75820632     E(CORR)=     -1355.1842269     Delta=-2.88D-07
 NORM(A)=   0.11535175D+01
 Iteration Nr.  14
 **********************
 DD1Dir will call FoFMem   1 times, MxPair=       156
 NAB=    78 NAA=     0 NBB=     0.
 DE(Corr)= -0.75820634     E(CORR)=     -1355.1842270     Delta=-2.88D-08
 NORM(A)=   0.11535177D+01
 Iteration Nr.  15
 **********************
 DD1Dir will call FoFMem   1 times, MxPair=       156
 NAB=    78 NAA=     0 NBB=     0.
 DE(Corr)= -0.75820640     E(CORR)=     -1355.1842270     Delta=-5.54D-08
 NORM(A)=   0.11535178D+01
 Iteration Nr.  16
 **********************
 DD1Dir will call FoFMem   1 times, MxPair=       156
 NAB=    78 NAA=     0 NBB=     0.
 DE(Corr)= -0.75820641     E(CORR)=     -1355.1842270     Delta=-1.21D-08
 NORM(A)=   0.11535179D+01
 Iteration Nr.  17
 **********************
 DD1Dir will call FoFMem   1 times, MxPair=       156
 NAB=    78 NAA=     0 NBB=     0.
 DE(Corr)= -0.75820641     E(CORR)=     -1355.1842270     Delta= 9.68D-11
 NORM(A)=   0.11535179D+01
 Iteration Nr.  18
 **********************
 DD1Dir will call FoFMem   1 times, MxPair=       156
 NAB=    78 NAA=     0 NBB=     0.
 DE(Corr)= -0.75820642     E(CORR)=     -1355.1842270     Delta=-3.61D-09
 NORM(A)=   0.11535179D+01
 Iteration Nr.  19
 **********************
 DD1Dir will call FoFMem   1 times, MxPair=       156
 NAB=    78 NAA=     0 NBB=     0.
 DE(Corr)= -0.75820642     E(CORR)=     -1355.1842270     Delta= 7.35D-10
 NORM(A)=   0.11535179D+01
 Largest amplitude= 8.91D-02

 Z-AMPLITUDE ITERATIONS

 Iteration Nr.   1
 **********************
 DD1Dir will call FoFMem   1 times, MxPair=       156
 NAB=    78 NAA=     0 NBB=     0.
 DE(Z)  -0.72636170D+00          E(Z)=    -0.13551523823D+04
 NORM(A)=   0.11535756D+01
 Iteration Nr.   2
 **********************
 DD1Dir will call FoFMem   1 times, MxPair=       156
 NAB=    78 NAA=     0 NBB=     0.
 DE(Z)  -0.72636324D+00          E(Z)=    -0.13551523839D+04
 NORM(A)=   0.11536986D+01
 Iteration Nr.   3
 **********************
 DD1Dir will call FoFMem   1 times, MxPair=       156
 NAB=    78 NAA=     0 NBB=     0.
 DE(Z)  -0.72636652D+00          E(Z)=    -0.13551523871D+04
 NORM(A)=   0.11537070D+01
 Iteration Nr.   4
 **********************
 DD1Dir will call FoFMem   1 times, MxPair=       156
 NAB=    78 NAA=     0 NBB=     0.
 DE(Z)  -0.72636695D+00          E(Z)=    -0.13551523876D+04
 NORM(A)=   0.11541541D+01
 Iteration Nr.   5
 **********************
 DD1Dir will call FoFMem   1 times, MxPair=       156
 NAB=    78 NAA=     0 NBB=     0.
 DE(Z)  -0.72637992D+00          E(Z)=    -0.13551524005D+04
 NORM(A)=   0.11402786D+01
 Iteration Nr.   6
 **********************
 DD1Dir will call FoFMem   1 times, MxPair=       156
 NAB=    78 NAA=     0 NBB=     0.
 DE(Z)  -0.72597638D+00          E(Z)=    -0.13551519970D+04
 NORM(A)=   0.11402797D+01
 Iteration Nr.   7
 **********************
 DD1Dir will call FoFMem   1 times, MxPair=       156
 NAB=    78 NAA=     0 NBB=     0.
 DE(Z)  -0.72597490D+00          E(Z)=    -0.13551519955D+04
 NORM(A)=   0.11402788D+01
 Iteration Nr.   8
 **********************
 DD1Dir will call FoFMem   1 times, MxPair=       156
 NAB=    78 NAA=     0 NBB=     0.
 DE(Z)  -0.72597525D+00          E(Z)=    -0.13551519959D+04
 NORM(A)=   0.11402790D+01
 Iteration Nr.   9
 **********************
 DD1Dir will call FoFMem   1 times, MxPair=       156
 NAB=    78 NAA=     0 NBB=     0.
 DE(Z)  -0.72597518D+00          E(Z)=    -0.13551519958D+04
 NORM(A)=   0.11402791D+01
 Iteration Nr.  10
 **********************
 DD1Dir will call FoFMem   1 times, MxPair=       156
 NAB=    78 NAA=     0 NBB=     0.
 DE(Z)  -0.72597497D+00          E(Z)=    -0.13551519956D+04
 NORM(A)=   0.11402793D+01
 Iteration Nr.  11
 **********************
 DD1Dir will call FoFMem   1 times, MxPair=       156
 NAB=    78 NAA=     0 NBB=     0.
 DE(Z)  -0.72597510D+00          E(Z)=    -0.13551519957D+04
 NORM(A)=   0.11402794D+01
 Iteration Nr.  12
 **********************
 DD1Dir will call FoFMem   1 times, MxPair=       156
 NAB=    78 NAA=     0 NBB=     0.
 DE(Z)  -0.72597506D+00          E(Z)=    -0.13551519957D+04
 NORM(A)=   0.11402795D+01
 Iteration Nr.  13
 **********************
 DD1Dir will call FoFMem   1 times, MxPair=       156
 NAB=    78 NAA=     0 NBB=     0.
 DE(Z)  -0.72597509D+00          E(Z)=    -0.13551519957D+04
 NORM(A)=   0.11402795D+01
 Iteration Nr.  14
 **********************
 DD1Dir will call FoFMem   1 times, MxPair=       156
 NAB=    78 NAA=     0 NBB=     0.
 DE(Z)  -0.72597509D+00          E(Z)=    -0.13551519957D+04
 NORM(A)=   0.11402795D+01
 Iteration Nr.  15
 **********************
 DD1Dir will call FoFMem   1 times, MxPair=       156
 NAB=    78 NAA=     0 NBB=     0.
 DE(Z)  -0.72597509D+00          E(Z)=    -0.13551519957D+04
 NORM(A)=   0.11402795D+01
 Iteration Nr.  16
 **********************
 DD1Dir will call FoFMem   1 times, MxPair=       156
 NAB=    78 NAA=     0 NBB=     0.
 DE(Z)  -0.72597508D+00          E(Z)=    -0.13551519957D+04
 NORM(A)=   0.11402795D+01
 Iteration Nr.  17
 **********************
 DD1Dir will call FoFMem   1 times, MxPair=       156
 NAB=    78 NAA=     0 NBB=     0.
 DE(Z)  -0.72597509D+00          E(Z)=    -0.13551519957D+04
 NORM(A)=   0.11402795D+01
 Iteration Nr.  18
 **********************
 DD1Dir will call FoFMem   1 times, MxPair=       156
 NAB=    78 NAA=     0 NBB=     0.
 DE(Z)  -0.72597509D+00          E(Z)=    -0.13551519957D+04
 NORM(A)=   0.11402795D+01
 Iteration Nr.  19
 **********************
 DD1Dir will call FoFMem   1 times, MxPair=       156
 NAB=    78 NAA=     0 NBB=     0.
 DE(Z)  -0.72597509D+00          E(Z)=    -0.13551519957D+04
 NORM(A)=   0.11402795D+01
 Discarding MO integrals.
          Differentiating once with respect to electric field.
                with respect to dipole field.
          Electric field/nuclear overlap derivatives assumed to be zero.
          Keep R1 ints in memory in canonical form, NReq=367211061.
          There are     1 degrees of freedom in the 1st order CPHF.  IDoFFX=0.
 LinEq1:  Iter=  0 NonCon=     1 RMS=2.08D-03 Max=6.35D-02
 AX will form     1 AO Fock derivatives at one time.
 LinEq1:  Iter=  1 NonCon=     1 RMS=9.28D-04 Max=1.77D-02
 LinEq1:  Iter=  2 NonCon=     1 RMS=4.11D-04 Max=1.02D-02
 LinEq1:  Iter=  3 NonCon=     1 RMS=1.04D-04 Max=1.79D-03
 LinEq1:  Iter=  4 NonCon=     1 RMS=2.44D-05 Max=8.02D-04
 LinEq1:  Iter=  5 NonCon=     1 RMS=7.99D-06 Max=1.97D-04
 LinEq1:  Iter=  6 NonCon=     1 RMS=2.41D-06 Max=8.99D-05
 LinEq1:  Iter=  7 NonCon=     1 RMS=7.34D-07 Max=1.30D-05
 LinEq1:  Iter=  8 NonCon=     1 RMS=1.36D-07 Max=2.09D-06
 LinEq1:  Iter=  9 NonCon=     1 RMS=2.58D-08 Max=3.74D-07
 LinEq1:  Iter= 10 NonCon=     1 RMS=6.85D-09 Max=1.78D-07
 LinEq1:  Iter= 11 NonCon=     1 RMS=1.41D-09 Max=2.31D-08
 LinEq1:  Iter= 12 NonCon=     1 RMS=3.26D-10 Max=5.49D-09
 LinEq1:  Iter= 13 NonCon=     0 RMS=7.31D-11 Max=8.70D-10
 Linear equations converged to 1.000D-10 1.000D-09 after    13 iterations.
 End of Minotr Frequency-dependent properties file   721 does not exist.
 End of Minotr Frequency-dependent properties file   722 does not exist.

 **********************************************************************

            Population analysis using the QCI/CC density.

 **********************************************************************

     Natural Orbital Coefficients:
                           1         2         3         4         5
     Eigenvalues --     2.00004   2.00004   2.00003   2.00003   2.00003
   1 1   C  1S          0.00000  -0.00168   0.00000  -0.00007   0.00000
   2        2S          0.00000   0.00038   0.00000   0.00000   0.00000
   3        3S          0.00000   0.00003   0.00000   0.00000   0.00000
   4        4S          0.00000  -0.00290   0.00000  -0.00002   0.00000
   5        5S          0.00000  -0.00094   0.00000  -0.00004   0.00000
   6        6PX         0.00000   0.00000   0.00000   0.00159   0.00000
   7        6PY         0.00034   0.00000   0.00000   0.00000  -0.00105
   8        6PZ         0.00000   0.00037   0.00000  -0.00001   0.00000
   9        7PX         0.00000   0.00001   0.00000   0.00170   0.00000
  10        7PY         0.00046   0.00000   0.00000   0.00000  -0.00225
  11        7PZ         0.00000   0.00134   0.00000  -0.00001   0.00000
  12        8PX         0.00000   0.00000   0.00000  -0.00093   0.00000
  13        8PY         0.00305   0.00000   0.00011   0.00000   0.00662
  14        8PZ         0.00000  -0.00499   0.00000  -0.00008   0.00000
  15        9PX         0.00000  -0.00001   0.00000  -0.00100   0.00000
  16        9PY        -0.00048   0.00000   0.00002   0.00000   0.00157
  17        9PZ         0.00000  -0.00208   0.00000  -0.00001   0.00000
  18       10D 0        0.00000  -0.00034   0.00000   0.00000   0.00000
  19       10D+1        0.00000   0.00000   0.00000  -0.00028   0.00000
  20       10D-1        0.00008   0.00000   0.00000   0.00000  -0.00036
  21       10D+2        0.00000  -0.00023   0.00000   0.00000   0.00000
  22       10D-2        0.00000   0.00000   0.00035   0.00000   0.00000
  23       11D 0        0.00000   0.00022   0.00000   0.00000   0.00000
  24       11D+1        0.00000   0.00001   0.00000   0.00010   0.00000
  25       11D-1        0.00073   0.00000   0.00002   0.00000   0.00113
  26       11D+2        0.00000   0.00046   0.00000   0.00000   0.00000
  27       11D-2        0.00000   0.00000  -0.00027   0.00000   0.00000
  28       12D 0        0.00000  -0.00574   0.00000   0.00009   0.00000
  29       12D+1        0.00000   0.00000   0.00000  -0.00272   0.00000
  30       12D-1        0.00370   0.00000   0.00011   0.00000  -0.00335
  31       12D+2        0.00000  -0.00312   0.00000   0.00003   0.00000
  32       12D-2        0.00003   0.00000   0.00230   0.00000   0.00000
  33       13F 0        0.00000   0.00013   0.00000   0.00000   0.00000
  34       13F+1        0.00000   0.00000   0.00000   0.00004   0.00000
  35       13F-1       -0.00039   0.00000   0.00000   0.00000  -0.00029
  36       13F+2        0.00000  -0.00003   0.00000   0.00000   0.00000
  37       13F-2        0.00000   0.00000  -0.00015   0.00000   0.00000
  38       13F+3        0.00000   0.00000   0.00000  -0.00009   0.00000
  39       13F-3       -0.00009   0.00000   0.00000   0.00000   0.00010
  40       14F 0        0.00000  -0.00098   0.00000   0.00000   0.00000
  41       14F+1        0.00000   0.00000   0.00000   0.00005   0.00000
  42       14F-1        0.00495   0.00000   0.00001   0.00000   0.00168
  43       14F+2        0.00000  -0.00009   0.00000   0.00001   0.00000
  44       14F-2        0.00002   0.00000   0.00118   0.00000   0.00002
  45       14F+3        0.00000   0.00000   0.00000   0.00058   0.00000
  46       14F-3        0.00116   0.00000   0.00000   0.00000  -0.00012
  47 2   Cl 1S         -0.00226  -0.00130   0.00007  -0.00025   0.02443
  48        2S          0.00803   0.00486  -0.00025   0.00082  -0.08302
  49        3S          0.00034   0.00043   0.00001  -0.00003   0.00229
  50        4S          0.00055   0.00020  -0.00002   0.00006  -0.00615
  51        5S         -0.00116  -0.00194  -0.00003  -0.00001   0.00397
  52        6S         -0.00126  -0.00201   0.00001   0.00000   0.00410
  53        7PX         0.00223  -0.00265   0.69246  -0.68716  -0.00098
  54        7PY        -0.40911   0.35275   0.00220  -0.00264   0.13851
  55        7PZ         0.55612  -0.59489  -0.00122   0.00155   0.03121
  56        8PX        -0.00006   0.00006  -0.01496   0.01335   0.00002
  57        8PY         0.01049  -0.00758  -0.00005   0.00005  -0.00292
  58        8PZ        -0.01372   0.01381   0.00002  -0.00004  -0.00144
  59        9PX         0.00012  -0.00014   0.03672  -0.03691  -0.00005
  60        9PY        -0.02131   0.01845   0.00012  -0.00014   0.00766
  61        9PZ         0.02908  -0.03117  -0.00006   0.00008   0.00179
  62       10PX        -0.00001   0.00002  -0.00318   0.00276   0.00000
  63       10PY         0.00309  -0.00129  -0.00002  -0.00003   0.00065
  64       10PZ        -0.00455   0.00122   0.00004   0.00004   0.00013
  65       11PX         0.00000   0.00000  -0.00055   0.00078   0.00000
  66       11PY         0.00036  -0.00040  -0.00001   0.00000   0.00030
  67       11PZ        -0.00072   0.00049   0.00000   0.00000   0.00021
  68       12D 0        0.00045  -0.00027   0.00000   0.00000   0.00008
  69       12D+1        0.00000   0.00000   0.00018  -0.00018   0.00000
  70       12D-1        0.00024  -0.00014   0.00000   0.00000   0.00011
  71       12D+2        0.00027  -0.00015   0.00000   0.00000  -0.00007
  72       12D-2        0.00000   0.00000   0.00032  -0.00020   0.00000
  73       13D 0       -0.00204   0.00102   0.00000   0.00000   0.00009
  74       13D+1        0.00000   0.00000  -0.00075   0.00057   0.00000
  75       13D-1       -0.00079   0.00094   0.00000   0.00000  -0.00048
  76       13D+2       -0.00099   0.00070   0.00000   0.00000   0.00016
  77       13D-2       -0.00001   0.00000  -0.00108   0.00100   0.00000
  78       14D 0        0.00007  -0.00090   0.00001   0.00002   0.00001
  79       14D+1        0.00000   0.00000   0.00061   0.00006   0.00000
  80       14D-1        0.00004  -0.00031   0.00001   0.00001   0.00008
  81       14D+2       -0.00001  -0.00059   0.00000   0.00001   0.00016
  82       14D-2        0.00000   0.00000   0.00046  -0.00048   0.00000
  83       15F 0       -0.00001   0.00000   0.00000   0.00000   0.00004
  84       15F+1        0.00000   0.00000  -0.00007  -0.00005   0.00000
  85       15F-1        0.00001   0.00002   0.00000   0.00000   0.00003
  86       15F+2        0.00002   0.00002   0.00000   0.00000  -0.00003
  87       15F-2        0.00000   0.00000  -0.00001  -0.00003   0.00000
  88       15F+3        0.00000   0.00000  -0.00001  -0.00003   0.00000
  89       15F-3        0.00003   0.00004   0.00000   0.00000  -0.00005
  90       16F 0       -0.00038  -0.00011   0.00000   0.00000   0.00019
  91       16F+1        0.00000   0.00000   0.00013   0.00018   0.00000
  92       16F-1       -0.00093   0.00047   0.00000   0.00000  -0.00017
  93       16F+2       -0.00008  -0.00029   0.00000   0.00000   0.00030
  94       16F-2        0.00000   0.00000  -0.00033   0.00033   0.00000
  95       16F+3        0.00000   0.00000   0.00030  -0.00022   0.00000
  96       16F-3       -0.00028   0.00019   0.00000   0.00000   0.00021
  97 3   Cl 1S          0.00226  -0.00130  -0.00007  -0.00025  -0.02443
  98        2S         -0.00803   0.00486   0.00025   0.00082   0.08302
  99        3S         -0.00034   0.00043  -0.00001  -0.00003  -0.00229
 100        4S         -0.00055   0.00020   0.00002   0.00006   0.00615
 101        5S          0.00116  -0.00194   0.00003  -0.00001  -0.00397
 102        6S          0.00126  -0.00201  -0.00001   0.00000  -0.00410
 103        7PX        -0.00223  -0.00265  -0.69246  -0.68716   0.00098
 104        7PY        -0.40911  -0.35275   0.00220   0.00264   0.13851
 105        7PZ        -0.55612  -0.59489   0.00122   0.00155  -0.03121
 106        8PX         0.00006   0.00006   0.01496   0.01335  -0.00002
 107        8PY         0.01049   0.00758  -0.00005  -0.00005  -0.00292
 108        8PZ         0.01372   0.01381  -0.00002  -0.00004   0.00144
 109        9PX        -0.00012  -0.00014  -0.03672  -0.03691   0.00005
 110        9PY        -0.02131  -0.01845   0.00012   0.00014   0.00766
 111        9PZ        -0.02908  -0.03117   0.00006   0.00008  -0.00179
 112       10PX         0.00001   0.00002   0.00318   0.00276   0.00000
 113       10PY         0.00309   0.00129  -0.00002   0.00003   0.00065
 114       10PZ         0.00455   0.00122  -0.00004   0.00004  -0.00013
 115       11PX         0.00000   0.00000   0.00055   0.00078   0.00000
 116       11PY         0.00036   0.00040  -0.00001   0.00000   0.00030
 117       11PZ         0.00072   0.00049   0.00000   0.00000  -0.00021
 118       12D 0       -0.00045  -0.00027   0.00000   0.00000  -0.00008
 119       12D+1        0.00000   0.00000  -0.00018  -0.00018   0.00000
 120       12D-1        0.00024   0.00014   0.00000   0.00000   0.00011
 121       12D+2       -0.00027  -0.00015   0.00000   0.00000   0.00007
 122       12D-2        0.00000   0.00000   0.00032   0.00020   0.00000
 123       13D 0        0.00204   0.00102   0.00000   0.00000  -0.00009
 124       13D+1        0.00000   0.00000   0.00075   0.00057   0.00000
 125       13D-1       -0.00079  -0.00094   0.00000   0.00000  -0.00048
 126       13D+2        0.00099   0.00070   0.00000   0.00000  -0.00016
 127       13D-2       -0.00001   0.00000  -0.00108  -0.00100   0.00000
 128       14D 0       -0.00007  -0.00090  -0.00001   0.00002  -0.00001
 129       14D+1        0.00000   0.00000  -0.00061   0.00006   0.00000
 130       14D-1        0.00004   0.00031   0.00001  -0.00001   0.00008
 131       14D+2        0.00001  -0.00059   0.00000   0.00001  -0.00016
 132       14D-2        0.00000   0.00000   0.00046   0.00048   0.00000
 133       15F 0        0.00001   0.00000   0.00000   0.00000  -0.00004
 134       15F+1        0.00000   0.00000   0.00007  -0.00005   0.00000
 135       15F-1        0.00001  -0.00002   0.00000   0.00000   0.00003
 136       15F+2       -0.00002   0.00002   0.00000   0.00000   0.00003
 137       15F-2        0.00000   0.00000  -0.00001   0.00003   0.00000
 138       15F+3        0.00000   0.00000   0.00001  -0.00003   0.00000
 139       15F-3        0.00003  -0.00004   0.00000   0.00000  -0.00005
 140       16F 0        0.00038  -0.00011   0.00000   0.00000  -0.00019
 141       16F+1        0.00000   0.00000  -0.00013   0.00018   0.00000
 142       16F-1       -0.00093  -0.00047   0.00000   0.00000  -0.00017
 143       16F+2        0.00008  -0.00029   0.00000   0.00000  -0.00030
 144       16F-2        0.00000   0.00000  -0.00033  -0.00033   0.00000
 145       16F+3        0.00000   0.00000  -0.00030  -0.00022   0.00000
 146       16F-3       -0.00028  -0.00019   0.00000   0.00000   0.00021
 147 4   S  1S          0.00000   0.00088   0.00000   0.00004   0.00000
 148        2S          0.00000  -0.00304   0.00000  -0.00014   0.00000
 149        3S          0.00000   0.00038   0.00000   0.00000   0.00000
 150        4S          0.00000  -0.00004   0.00000  -0.00001   0.00000
 151        5S          0.00000   0.00750   0.00000   0.00002   0.00000
 152        6S          0.00000   0.00346   0.00000   0.00006   0.00000
 153        7PX         0.00000  -0.00027   0.00000   0.11531   0.00000
 154        7PY         0.08387   0.00000   0.00082   0.00000   0.94871
 155        7PZ         0.00000  -0.05734   0.00000  -0.00147   0.00000
 156        8PX         0.00000  -0.00001   0.00000  -0.00355   0.00000
 157        8PY        -0.00485   0.00000  -0.00003   0.00000  -0.01857
 158        8PZ         0.00000   0.00097   0.00000   0.00003   0.00000
 159        9PX         0.00000  -0.00001   0.00000   0.00666   0.00000
 160        9PY         0.00494   0.00000   0.00005   0.00000   0.05481
 161        9PZ         0.00000  -0.00329   0.00000  -0.00008   0.00000
 162       10PX         0.00000  -0.00005   0.00000   0.00145   0.00000
 163       10PY        -0.00579   0.00000  -0.00013   0.00000  -0.00508
 164       10PZ         0.00000  -0.00130   0.00000  -0.00005   0.00000
 165       11PX         0.00000  -0.00001   0.00000   0.00024   0.00000
 166       11PY        -0.00031   0.00000  -0.00001   0.00000  -0.00114
 167       11PZ         0.00000   0.00000   0.00000  -0.00001   0.00000
 168       12D 0        0.00000  -0.00040   0.00000   0.00000   0.00000
 169       12D+1        0.00000   0.00001   0.00000  -0.00001   0.00000
 170       12D-1        0.00241   0.00000   0.00003   0.00000   0.00270
 171       12D+2        0.00000  -0.00009   0.00000  -0.00001   0.00000
 172       12D-2        0.00002   0.00000  -0.00033   0.00000   0.00002
 173       13D 0        0.00000   0.00000   0.00000   0.00000   0.00000
 174       13D+1        0.00000   0.00000   0.00000  -0.00006   0.00000
 175       13D-1       -0.00005   0.00000   0.00000   0.00000  -0.00034
 176       13D+2        0.00000  -0.00009   0.00000   0.00000   0.00000
 177       13D-2        0.00000   0.00000   0.00010   0.00000   0.00000
 178       14D 0        0.00000  -0.00005   0.00000   0.00002   0.00000
 179       14D+1        0.00000   0.00001   0.00000  -0.00141   0.00000
 180       14D-1        0.00148   0.00000   0.00005   0.00000  -0.00029
 181       14D+2        0.00000   0.00038   0.00000  -0.00002   0.00000
 182       14D-2        0.00001   0.00000  -0.00061   0.00000   0.00000
 183       15F 0        0.00000   0.00008   0.00000   0.00000   0.00000
 184       15F+1        0.00000   0.00000   0.00000  -0.00008   0.00000
 185       15F-1       -0.00022   0.00000   0.00000   0.00000  -0.00018
 186       15F+2        0.00000   0.00012   0.00000   0.00000   0.00000
 187       15F-2        0.00000   0.00000  -0.00006   0.00000   0.00000
 188       15F+3        0.00000   0.00000   0.00000   0.00001   0.00000
 189       15F-3       -0.00003   0.00000   0.00000   0.00000   0.00009
 190       16F 0        0.00000   0.00020   0.00000   0.00000   0.00000
 191       16F+1        0.00000   0.00000   0.00000   0.00024   0.00000
 192       16F-1       -0.00071   0.00000  -0.00001   0.00000  -0.00089
 193       16F+2        0.00000  -0.00006   0.00000   0.00001   0.00000
 194       16F-2       -0.00001   0.00000   0.00052   0.00000  -0.00001
 195       16F+3        0.00000   0.00000   0.00000  -0.00017   0.00000
 196       16F-3       -0.00017   0.00000   0.00000   0.00000  -0.00018
                           6         7         8         9        10
     Eigenvalues --     2.00003   2.00003   2.00002   2.00001   2.00001
   1 1   C  1S         -0.16314   0.00000  -0.15446   0.60548   0.00000
   2        2S          0.00336   0.00000   0.00299  -0.01068   0.00000
   3        3S         -0.00599   0.00000  -0.00605   0.02403   0.00000
   4        4S         -0.00877   0.00000  -0.00735   0.00624   0.00000
   5        5S         -0.00147   0.00000   0.00014   0.00363   0.00000
   6        6PX         0.00000   0.00000   0.00001  -0.00002   0.00000
   7        6PY         0.00000  -0.00089   0.00000   0.00000   0.00270
   8        6PZ        -0.00010   0.00000   0.00114  -0.00213   0.00000
   9        7PX        -0.00001   0.00000   0.00000   0.00000   0.00000
  10        7PY         0.00000  -0.00028   0.00000   0.00000  -0.00025
  11        7PZ        -0.00081   0.00000  -0.00061   0.00102   0.00000
  12        8PX        -0.00001   0.00000  -0.00004   0.00003   0.00000
  13        8PY         0.00000   0.00292   0.00000   0.00000  -0.00192
  14        8PZ         0.00136   0.00000  -0.00721   0.00487   0.00000
  15        9PX         0.00001   0.00000   0.00000   0.00000   0.00000
  16        9PY         0.00000  -0.00061   0.00000   0.00000   0.00067
  17        9PZ        -0.00056   0.00000   0.00016   0.00098   0.00000
  18       10D 0       -0.00003   0.00000  -0.00010   0.00009   0.00000
  19       10D+1        0.00000   0.00000   0.00000   0.00000   0.00000
  20       10D-1        0.00000  -0.00011   0.00000   0.00000   0.00000
  21       10D+2        0.00006   0.00000   0.00002  -0.00015   0.00000
  22       10D-2        0.00000   0.00000   0.00000   0.00000   0.00000
  23       11D 0       -0.00048   0.00000  -0.00091   0.00036   0.00000
  24       11D+1       -0.00001   0.00000  -0.00001   0.00001   0.00000
  25       11D-1        0.00000  -0.00119   0.00000   0.00000   0.00255
  26       11D+2        0.00082   0.00000  -0.00031   0.00075   0.00000
  27       11D-2        0.00000   0.00000   0.00000   0.00000   0.00000
  28       12D 0        0.00051   0.00000  -0.00177   0.00226   0.00000
  29       12D+1        0.00001   0.00000  -0.00003   0.00002   0.00000
  30       12D-1        0.00000  -0.00445   0.00000   0.00000   0.00481
  31       12D+2        0.00135   0.00000  -0.00077   0.00025   0.00000
  32       12D-2        0.00000  -0.00001   0.00000   0.00000   0.00000
  33       13F 0       -0.00013   0.00000   0.00000  -0.00004   0.00000
  34       13F+1        0.00000   0.00000   0.00000   0.00000   0.00000
  35       13F-1        0.00000  -0.00003   0.00000   0.00000  -0.00001
  36       13F+2       -0.00004   0.00000  -0.00006   0.00001   0.00000
  37       13F-2        0.00000   0.00000   0.00000   0.00000   0.00000
  38       13F+3        0.00000   0.00000   0.00000   0.00000   0.00000
  39       13F-3        0.00000   0.00003   0.00000   0.00000  -0.00009
  40       14F 0        0.00014   0.00000   0.00044  -0.00152   0.00000
  41       14F+1        0.00000   0.00000   0.00000  -0.00001   0.00000
  42       14F-1        0.00000   0.00000   0.00000   0.00000   0.00137
  43       14F+2       -0.00016   0.00000   0.00056  -0.00105   0.00000
  44       14F-2        0.00000   0.00000   0.00000   0.00000   0.00000
  45       14F+3        0.00000   0.00000   0.00001  -0.00001   0.00000
  46       14F-3        0.00000  -0.00036   0.00000   0.00000   0.00084
  47 2   Cl 1S         -0.17600  -0.17574   0.01802  -0.04319  -0.10520
  48        2S          0.59373   0.59306  -0.06111   0.14789   0.35746
  49        3S         -0.01765  -0.01744   0.00161  -0.00189  -0.00579
  50        4S          0.04615   0.04609  -0.00469   0.01174   0.02983
  51        5S         -0.00148   0.00011  -0.00140   0.00034  -0.00796
  52        6S         -0.00054  -0.00075  -0.00008  -0.00012   0.00170
  53        7PX         0.00136   0.00055  -0.00077   0.00041  -0.00070
  54        7PY        -0.29316  -0.26184   0.06052   0.09868   0.47106
  55        7PZ        -0.17190  -0.21521   0.00400   0.08044   0.34907
  56        8PX        -0.00002  -0.00001   0.00001  -0.00001   0.00001
  57        8PY         0.00532   0.00493  -0.00155  -0.00076  -0.00806
  58        8PZ         0.00307   0.00411  -0.00043  -0.00052  -0.00634
  59        9PX         0.00007   0.00003  -0.00004   0.00002  -0.00004
  60        9PY        -0.01671  -0.01493   0.00342   0.00594   0.02890
  61        9PZ        -0.00982  -0.01224   0.00024   0.00484   0.02154
  62       10PX         0.00000  -0.00001   0.00000   0.00000   0.00000
  63       10PY         0.00184   0.00183  -0.00058  -0.00006  -0.00044
  64       10PZ         0.00147   0.00086  -0.00053   0.00089  -0.00041
  65       11PX         0.00000   0.00000   0.00000   0.00000   0.00000
  66       11PY        -0.00005   0.00012  -0.00003  -0.00003   0.00011
  67       11PZ         0.00009  -0.00009  -0.00013  -0.00009   0.00023
  68       12D 0       -0.00004  -0.00002   0.00002  -0.00001   0.00000
  69       12D+1        0.00000   0.00000   0.00000   0.00000   0.00000
  70       12D-1        0.00018   0.00018   0.00002   0.00008   0.00041
  71       12D+2       -0.00008  -0.00007   0.00002  -0.00013  -0.00032
  72       12D-2        0.00000   0.00000   0.00000   0.00000   0.00000
  73       13D 0       -0.00007   0.00023   0.00015  -0.00013  -0.00055
  74       13D+1        0.00000   0.00000   0.00000  -0.00001   0.00000
  75       13D-1        0.00039   0.00046  -0.00011   0.00010  -0.00220
  76       13D+2       -0.00047  -0.00032   0.00015   0.00022   0.00119
  77       13D-2        0.00000   0.00000   0.00000   0.00000   0.00000
  78       14D 0        0.00000  -0.00024   0.00018  -0.00003   0.00005
  79       14D+1        0.00000   0.00000   0.00000   0.00000   0.00000
  80       14D-1        0.00029   0.00018   0.00003   0.00025   0.00016
  81       14D+2       -0.00020   0.00021  -0.00005   0.00010  -0.00081
  82       14D-2        0.00000   0.00000   0.00000   0.00000   0.00000
  83       15F 0        0.00001   0.00004   0.00001   0.00000  -0.00004
  84       15F+1        0.00000   0.00000   0.00000   0.00000   0.00000
  85       15F-1        0.00000   0.00003   0.00000   0.00000  -0.00009
  86       15F+2       -0.00001  -0.00001   0.00000   0.00000   0.00004
  87       15F-2        0.00000   0.00000   0.00000   0.00000   0.00000
  88       15F+3        0.00000   0.00000   0.00000   0.00000   0.00000
  89       15F-3       -0.00003  -0.00003   0.00002   0.00000   0.00003
  90       16F 0       -0.00007  -0.00011   0.00010  -0.00026   0.00030
  91       16F+1        0.00000   0.00000   0.00000   0.00000   0.00000
  92       16F-1        0.00002   0.00007   0.00003   0.00001  -0.00042
  93       16F+2       -0.00013  -0.00013   0.00006  -0.00007   0.00052
  94       16F-2        0.00000   0.00000   0.00000   0.00000   0.00000
  95       16F+3        0.00000   0.00000   0.00000   0.00000   0.00000
  96       16F-3       -0.00010   0.00001  -0.00004   0.00015   0.00011
  97 3   Cl 1S         -0.17600   0.17574   0.01802  -0.04319   0.10520
  98        2S          0.59373  -0.59306  -0.06111   0.14789  -0.35746
  99        3S         -0.01765   0.01744   0.00161  -0.00189   0.00579
 100        4S          0.04615  -0.04609  -0.00469   0.01174  -0.02983
 101        5S         -0.00148  -0.00011  -0.00140   0.00034   0.00796
 102        6S         -0.00054   0.00075  -0.00008  -0.00012  -0.00170
 103        7PX         0.00136  -0.00055  -0.00077   0.00041   0.00070
 104        7PY         0.29316  -0.26184  -0.06052  -0.09868   0.47106
 105        7PZ        -0.17190   0.21521   0.00400   0.08044  -0.34907
 106        8PX        -0.00002   0.00001   0.00001  -0.00001  -0.00001
 107        8PY        -0.00532   0.00493   0.00155   0.00076  -0.00806
 108        8PZ         0.00307  -0.00411  -0.00043  -0.00052   0.00634
 109        9PX         0.00007  -0.00003  -0.00004   0.00002   0.00004
 110        9PY         0.01671  -0.01493  -0.00342  -0.00594   0.02890
 111        9PZ        -0.00982   0.01224   0.00024   0.00484  -0.02154
 112       10PX         0.00000   0.00001   0.00000   0.00000   0.00000
 113       10PY        -0.00184   0.00183   0.00058   0.00006  -0.00044
 114       10PZ         0.00147  -0.00086  -0.00053   0.00089   0.00041
 115       11PX         0.00000   0.00000   0.00000   0.00000   0.00000
 116       11PY         0.00005   0.00012   0.00003   0.00003   0.00011
 117       11PZ         0.00009   0.00009  -0.00013  -0.00009  -0.00023
 118       12D 0       -0.00004   0.00002   0.00002  -0.00001   0.00000
 119       12D+1        0.00000   0.00000   0.00000   0.00000   0.00000
 120       12D-1       -0.00018   0.00018  -0.00002  -0.00008   0.00041
 121       12D+2       -0.00008   0.00007   0.00002  -0.00013   0.00032
 122       12D-2        0.00000   0.00000   0.00000   0.00000   0.00000
 123       13D 0       -0.00007  -0.00023   0.00015  -0.00013   0.00055
 124       13D+1        0.00000   0.00000   0.00000  -0.00001   0.00000
 125       13D-1       -0.00039   0.00046   0.00011  -0.00010  -0.00220
 126       13D+2       -0.00047   0.00032   0.00015   0.00022  -0.00119
 127       13D-2        0.00000   0.00000   0.00000   0.00000   0.00000
 128       14D 0        0.00000   0.00024   0.00018  -0.00003  -0.00005
 129       14D+1        0.00000   0.00000   0.00000   0.00000   0.00000
 130       14D-1       -0.00029   0.00018  -0.00003  -0.00025   0.00016
 131       14D+2       -0.00020  -0.00021  -0.00005   0.00010   0.00081
 132       14D-2        0.00000   0.00000   0.00000   0.00000   0.00000
 133       15F 0        0.00001  -0.00004   0.00001   0.00000   0.00004
 134       15F+1        0.00000   0.00000   0.00000   0.00000   0.00000
 135       15F-1        0.00000   0.00003   0.00000   0.00000  -0.00009
 136       15F+2       -0.00001   0.00001   0.00000   0.00000  -0.00004
 137       15F-2        0.00000   0.00000   0.00000   0.00000   0.00000
 138       15F+3        0.00000   0.00000   0.00000   0.00000   0.00000
 139       15F-3        0.00003  -0.00003  -0.00002   0.00000   0.00003
 140       16F 0       -0.00007   0.00011   0.00010  -0.00026  -0.00030
 141       16F+1        0.00000   0.00000   0.00000   0.00000   0.00000
 142       16F-1       -0.00002   0.00007  -0.00003  -0.00001  -0.00042
 143       16F+2       -0.00013   0.00013   0.00006  -0.00007  -0.00052
 144       16F-2        0.00000   0.00000   0.00000   0.00000   0.00000
 145       16F+3        0.00000   0.00000   0.00000   0.00000   0.00000
 146       16F-3        0.00010   0.00001   0.00004  -0.00015   0.00011
 147 4   S  1S         -0.02037   0.00000  -0.21776  -0.15760   0.00000
 148        2S          0.06939   0.00000   0.74430   0.54431   0.00000
 149        3S         -0.00204   0.00000  -0.02070  -0.00819   0.00000
 150        4S          0.00450   0.00000   0.04989   0.03912   0.00000
 151        5S          0.00161   0.00000   0.00652  -0.01189   0.00000
 152        6S          0.00207   0.00000  -0.00078  -0.00357   0.00000
 153        7PX        -0.00026   0.00000   0.00305   0.00006   0.00000
 154        7PY         0.00000   0.19122   0.00000   0.00000  -0.09903
 155        7PZ         0.05304   0.00000   0.61556  -0.47631   0.00000
 156        8PX         0.00001   0.00000  -0.00006   0.00001   0.00000
 157        8PY         0.00000  -0.00308   0.00000   0.00000  -0.00027
 158        8PZ        -0.00158   0.00000  -0.01163   0.00826   0.00000
 159        9PX        -0.00001   0.00000   0.00019   0.00000   0.00000
 160        9PY         0.00000   0.01119   0.00000   0.00000  -0.00600
 161        9PZ         0.00343   0.00000   0.03788  -0.03118   0.00000
 162       10PX        -0.00002   0.00000  -0.00003   0.00004   0.00000
 163       10PY         0.00000   0.00184   0.00000   0.00000  -0.00362
 164       10PZ        -0.00228   0.00000  -0.00664   0.00510   0.00000
 165       11PX        -0.00001   0.00000   0.00000   0.00000   0.00000
 166       11PY         0.00000   0.00020   0.00000   0.00000  -0.00026
 167       11PZ        -0.00022   0.00000   0.00012   0.00022   0.00000
 168       12D 0        0.00084   0.00000   0.00211  -0.00265   0.00000
 169       12D+1        0.00001   0.00000   0.00002  -0.00002   0.00000
 170       12D-1        0.00000   0.00019   0.00000   0.00000   0.00081
 171       12D+2       -0.00005   0.00000  -0.00044   0.00019   0.00000
 172       12D-2        0.00000   0.00000   0.00000   0.00000   0.00001
 173       13D 0        0.00007   0.00000   0.00014   0.00022   0.00000
 174       13D+1        0.00000   0.00000   0.00000   0.00000   0.00000
 175       13D-1        0.00000   0.00002   0.00000   0.00000  -0.00007
 176       13D+2        0.00004   0.00000   0.00030   0.00016   0.00000
 177       13D-2        0.00000   0.00000   0.00000   0.00000   0.00000
 178       14D 0        0.00055   0.00000   0.00104  -0.00068   0.00000
 179       14D+1        0.00001   0.00000   0.00000  -0.00001   0.00000
 180       14D-1        0.00000  -0.00074   0.00000   0.00000   0.00094
 181       14D+2       -0.00031   0.00000   0.00039   0.00000   0.00000
 182       14D-2        0.00000  -0.00001   0.00000   0.00000   0.00002
 183       15F 0       -0.00014   0.00000  -0.00016   0.00025   0.00000
 184       15F+1        0.00000   0.00000   0.00000   0.00000   0.00000
 185       15F-1        0.00000   0.00000   0.00000   0.00000  -0.00006
 186       15F+2        0.00000   0.00000   0.00012  -0.00016   0.00000
 187       15F-2        0.00000   0.00000   0.00000   0.00000   0.00000
 188       15F+3        0.00000   0.00000   0.00000   0.00000   0.00000
 189       15F-3        0.00000   0.00003   0.00000   0.00000  -0.00005
 190       16F 0       -0.00014   0.00000  -0.00046   0.00048   0.00000
 191       16F+1        0.00000   0.00000  -0.00001   0.00001   0.00000
 192       16F-1        0.00000  -0.00004   0.00000   0.00000  -0.00031
 193       16F+2        0.00012   0.00000  -0.00008  -0.00012   0.00000
 194       16F-2        0.00000   0.00000   0.00000   0.00000  -0.00001
 195       16F+3        0.00000   0.00000   0.00000   0.00000   0.00000
 196       16F-3        0.00000   0.00000   0.00000   0.00000  -0.00004
                          11        12        13        14        15
     Eigenvalues --     2.00001   2.00001   2.00000   2.00000   2.00000
   1 1   C  1S          0.23609  -0.00362   0.69962   0.00180   0.00171
   2        2S         -0.00440   0.00004  -0.00702  -0.00003  -0.00006
   3        3S          0.00839  -0.00015   0.03009   0.00011   0.00008
   4        4S          0.01154   0.00002  -0.02257  -0.00042  -0.00015
   5        5S          0.00493   0.00000  -0.00551  -0.00020  -0.00015
   6        6PX         0.00001  -0.00182   0.00000   0.00000   0.00000
   7        6PY         0.00000   0.00000   0.00000   0.00000   0.00000
   8        6PZ         0.00215   0.00002  -0.00126  -0.00001   0.00000
   9        7PX         0.00002  -0.00140   0.00000   0.00000   0.00000
  10        7PY         0.00000   0.00000   0.00000   0.00000   0.00000
  11        7PZ         0.00168   0.00000   0.00252   0.00000  -0.00008
  12        8PX         0.00000   0.00073  -0.00001   0.00000   0.00000
  13        8PY         0.00000   0.00000   0.00000   0.00000   0.00000
  14        8PZ        -0.00308  -0.00012   0.00246  -0.00007  -0.00001
  15        9PX         0.00000  -0.00103   0.00000   0.00000   0.00000
  16        9PY         0.00000   0.00000   0.00000   0.00000   0.00000
  17        9PZ         0.00030   0.00000   0.00052  -0.00003  -0.00005
  18       10D 0        0.00007   0.00000   0.00030   0.00000   0.00000
  19       10D+1        0.00000  -0.00018   0.00000   0.00000   0.00000
  20       10D-1        0.00000   0.00000   0.00000   0.00000   0.00000
  21       10D+2       -0.00003   0.00000  -0.00021   0.00000   0.00000
  22       10D-2        0.00000   0.00000   0.00000   0.00000   0.00000
  23       11D 0        0.00075  -0.00001  -0.00031  -0.00004  -0.00005
  24       11D+1        0.00001   0.00118   0.00000   0.00000   0.00000
  25       11D-1        0.00000   0.00000   0.00000   0.00000   0.00000
  26       11D+2       -0.00126   0.00000   0.00312   0.00006  -0.00001
  27       11D-2        0.00000   0.00000   0.00000   0.00000   0.00000
  28       12D 0       -0.00183   0.00000  -0.00124  -0.00006  -0.00007
  29       12D+1       -0.00002  -0.00102  -0.00001   0.00000   0.00000
  30       12D-1        0.00000   0.00000   0.00000   0.00000   0.00000
  31       12D+2       -0.00273  -0.00001   0.00171   0.00003  -0.00001
  32       12D-2        0.00000   0.00000   0.00000   0.00000   0.00000
  33       13F 0        0.00027   0.00000   0.00027   0.00000   0.00000
  34       13F+1        0.00000  -0.00018   0.00000   0.00000   0.00000
  35       13F-1        0.00000   0.00000   0.00000   0.00000   0.00000
  36       13F+2       -0.00008   0.00000  -0.00004  -0.00001   0.00000
  37       13F-2        0.00000   0.00000   0.00000   0.00000   0.00000
  38       13F+3        0.00000   0.00007   0.00000   0.00000   0.00000
  39       13F-3        0.00000   0.00000   0.00000   0.00000   0.00000
  40       14F 0        0.00029  -0.00002  -0.00113  -0.00003   0.00001
  41       14F+1        0.00000   0.00118   0.00000   0.00000   0.00000
  42       14F-1        0.00000   0.00000   0.00000   0.00000   0.00000
  43       14F+2        0.00060   0.00002  -0.00139  -0.00003   0.00001
  44       14F-2        0.00000   0.00000   0.00000   0.00000   0.00000
  45       14F+3        0.00000  -0.00014   0.00000   0.00000   0.00000
  46       14F-3        0.00000   0.00000   0.00000   0.00000   0.00000
  47 2   Cl 1S         -0.09139  -0.00024   0.02996   0.65616  -0.25800
  48        2S          0.31127   0.00080  -0.10715   0.00620  -0.00285
  49        3S         -0.00489  -0.00001   0.00058   0.00010  -0.00006
  50        4S          0.02581   0.00007  -0.00967   0.00011  -0.00007
  51        5S         -0.00737  -0.00006   0.00905   0.00007   0.00005
  52        6S         -0.00064  -0.00001   0.00342   0.00005   0.00006
  53        7PX        -0.00111   0.08116   0.00052   0.00000   0.00000
  54        7PY         0.41789   0.00166  -0.27849  -0.00162  -0.00040
  55        7PZ         0.23157   0.00062  -0.18704  -0.00102  -0.00039
  56        8PX         0.00001  -0.00044   0.00000   0.00000   0.00000
  57        8PY        -0.00712  -0.00003   0.00479   0.00008  -0.00002
  58        8PZ        -0.00414  -0.00002   0.00344   0.00006  -0.00001
  59        9PX        -0.00007   0.00475   0.00003   0.00000   0.00000
  60        9PY         0.02572   0.00010  -0.01800  -0.00013  -0.00002
  61        9PZ         0.01427   0.00004  -0.01214  -0.00009  -0.00002
  62       10PX         0.00000  -0.00069   0.00000   0.00000   0.00000
  63       10PY        -0.00096  -0.00003   0.00355   0.00003   0.00006
  64       10PZ        -0.00163   0.00000   0.00242   0.00001   0.00002
  65       11PX         0.00000   0.00034   0.00000   0.00000   0.00000
  66       11PY         0.00004   0.00000   0.00028   0.00000   0.00001
  67       11PZ        -0.00004   0.00000   0.00010   0.00001   0.00002
  68       12D 0        0.00001   0.00000   0.00001   0.00000   0.00000
  69       12D+1        0.00000  -0.00006   0.00000   0.00000   0.00000
  70       12D-1        0.00034   0.00000  -0.00032   0.00000   0.00000
  71       12D+2       -0.00023   0.00000   0.00021   0.00000   0.00000
  72       12D-2        0.00000  -0.00005   0.00000   0.00000   0.00000
  73       13D 0        0.00033   0.00000   0.00006   0.00000   0.00000
  74       13D+1        0.00000  -0.00005   0.00000   0.00000   0.00000
  75       13D-1       -0.00143  -0.00001   0.00194   0.00003  -0.00001
  76       13D+2        0.00139   0.00001  -0.00120  -0.00002   0.00000
  77       13D-2        0.00000  -0.00022   0.00000   0.00000   0.00000
  78       14D 0        0.00002   0.00001   0.00012   0.00000   0.00000
  79       14D+1        0.00001  -0.00023   0.00000   0.00000   0.00000
  80       14D-1        0.00015   0.00000   0.00067  -0.00001   0.00001
  81       14D+2       -0.00024   0.00000  -0.00057   0.00000  -0.00002
  82       14D-2        0.00000  -0.00055   0.00000   0.00000   0.00000
  83       15F 0        0.00001   0.00000   0.00002   0.00000   0.00000
  84       15F+1        0.00000   0.00000   0.00000   0.00000   0.00000
  85       15F-1        0.00003   0.00000  -0.00001   0.00000   0.00000
  86       15F+2        0.00003   0.00000  -0.00001   0.00000   0.00000
  87       15F-2        0.00000  -0.00001   0.00000   0.00000   0.00000
  88       15F+3        0.00000  -0.00003   0.00000   0.00000   0.00000
  89       15F-3        0.00010   0.00000  -0.00005   0.00000   0.00000
  90       16F 0        0.00024   0.00000  -0.00027   0.00000   0.00000
  91       16F+1        0.00000   0.00001   0.00000   0.00000   0.00000
  92       16F-1        0.00000   0.00000   0.00032   0.00000   0.00000
  93       16F+2        0.00031   0.00000  -0.00045   0.00000   0.00000
  94       16F-2        0.00000   0.00000   0.00000   0.00000   0.00000
  95       16F+3        0.00000   0.00020   0.00000   0.00000   0.00000
  96       16F-3        0.00017   0.00000  -0.00018   0.00000   0.00000
  97 3   Cl 1S         -0.09139  -0.00024   0.02996   0.65735  -0.25570
  98        2S          0.31127   0.00080  -0.10715   0.00621  -0.00283
  99        3S         -0.00489  -0.00001   0.00058   0.00010  -0.00006
 100        4S          0.02581   0.00007  -0.00967   0.00011  -0.00007
 101        5S         -0.00737  -0.00006   0.00905   0.00007   0.00005
 102        6S         -0.00064  -0.00001   0.00342   0.00005   0.00006
 103        7PX        -0.00111   0.08116   0.00052   0.00000   0.00000
 104        7PY        -0.41789  -0.00166   0.27849   0.00162   0.00040
 105        7PZ         0.23157   0.00062  -0.18704  -0.00102  -0.00039
 106        8PX         0.00001  -0.00044   0.00000   0.00000   0.00000
 107        8PY         0.00712   0.00003  -0.00479  -0.00008   0.00002
 108        8PZ        -0.00414  -0.00002   0.00344   0.00006  -0.00001
 109        9PX        -0.00007   0.00475   0.00003   0.00000   0.00000
 110        9PY        -0.02572  -0.00010   0.01800   0.00013   0.00002
 111        9PZ         0.01427   0.00004  -0.01214  -0.00009  -0.00002
 112       10PX         0.00000  -0.00069   0.00000   0.00000   0.00000
 113       10PY         0.00096   0.00003  -0.00355  -0.00003  -0.00006
 114       10PZ        -0.00163   0.00000   0.00242   0.00001   0.00002
 115       11PX         0.00000   0.00034   0.00000   0.00000   0.00000
 116       11PY        -0.00004   0.00000  -0.00028   0.00000  -0.00001
 117       11PZ        -0.00004   0.00000   0.00010   0.00001   0.00002
 118       12D 0        0.00001   0.00000   0.00001   0.00000   0.00000
 119       12D+1        0.00000  -0.00006   0.00000   0.00000   0.00000
 120       12D-1       -0.00034   0.00000   0.00032   0.00000   0.00000
 121       12D+2       -0.00023   0.00000   0.00021   0.00000   0.00000
 122       12D-2        0.00000   0.00005   0.00000   0.00000   0.00000
 123       13D 0        0.00033   0.00000   0.00006   0.00000   0.00000
 124       13D+1        0.00000  -0.00005   0.00000   0.00000   0.00000
 125       13D-1        0.00143   0.00001  -0.00194  -0.00003   0.00001
 126       13D+2        0.00139   0.00001  -0.00120  -0.00002   0.00000
 127       13D-2        0.00000   0.00022   0.00000   0.00000   0.00000
 128       14D 0        0.00002   0.00001   0.00012   0.00000   0.00000
 129       14D+1        0.00001  -0.00023   0.00000   0.00000   0.00000
 130       14D-1       -0.00015   0.00000  -0.00067   0.00001  -0.00001
 131       14D+2       -0.00024   0.00000  -0.00057   0.00000  -0.00002
 132       14D-2        0.00000   0.00055   0.00000   0.00000   0.00000
 133       15F 0        0.00001   0.00000   0.00002   0.00000   0.00000
 134       15F+1        0.00000   0.00000   0.00000   0.00000   0.00000
 135       15F-1       -0.00003   0.00000   0.00001   0.00000   0.00000
 136       15F+2        0.00003   0.00000  -0.00001   0.00000   0.00000
 137       15F-2        0.00000   0.00001   0.00000   0.00000   0.00000
 138       15F+3        0.00000  -0.00003   0.00000   0.00000   0.00000
 139       15F-3       -0.00010   0.00000   0.00005   0.00000   0.00000
 140       16F 0        0.00024   0.00000  -0.00027   0.00000   0.00000
 141       16F+1        0.00000   0.00001   0.00000   0.00000   0.00000
 142       16F-1        0.00000   0.00000  -0.00032   0.00000   0.00000
 143       16F+2        0.00031   0.00000  -0.00045   0.00000   0.00000
 144       16F-2        0.00000   0.00000   0.00000   0.00000   0.00000
 145       16F+3        0.00000   0.00020   0.00000   0.00000   0.00000
 146       16F-3       -0.00017   0.00000   0.00018   0.00000   0.00000
 147 4   S  1S          0.08930   0.00035   0.04993   0.36319   0.92792
 148        2S         -0.30804  -0.00123  -0.18488   0.00430   0.01220
 149        3S          0.00493   0.00001   0.00154   0.00013   0.00030
 150        4S         -0.02211  -0.00009  -0.01370  -0.00004  -0.00003
 151        5S          0.00092   0.00010   0.00627   0.00018   0.00000
 152        6S         -0.00494   0.00002   0.00114   0.00013   0.00007
 153        7PX         0.00015   0.96519   0.00549   0.00002   0.00002
 154        7PY         0.00000   0.00000   0.00000   0.00000   0.00000
 155        7PZ         0.39286  -0.00422   0.42462   0.00201   0.00229
 156        8PX        -0.00001  -0.01126  -0.00006   0.00000   0.00000
 157        8PY         0.00000   0.00000   0.00000   0.00000   0.00000
 158        8PZ        -0.00451   0.00003  -0.00460  -0.00011  -0.00016
 159        9PX         0.00001   0.06175   0.00036   0.00000   0.00000
 160        9PY         0.00000   0.00000   0.00000   0.00000   0.00000
 161        9PZ         0.02522  -0.00026   0.02819   0.00016   0.00022
 162       10PX         0.00003   0.00103  -0.00001   0.00000   0.00000
 163       10PY         0.00000   0.00000   0.00000   0.00000   0.00000
 164       10PZ         0.00292  -0.00005  -0.00189  -0.00009   0.00004
 165       11PX         0.00001  -0.00028   0.00000   0.00000   0.00000
 166       11PY         0.00000   0.00000   0.00000   0.00000   0.00000
 167       11PZ         0.00081   0.00000  -0.00015  -0.00001   0.00001
 168       12D 0        0.00032  -0.00001   0.00113   0.00004   0.00005
 169       12D+1        0.00000   0.00217   0.00002   0.00000   0.00000
 170       12D-1        0.00000   0.00000   0.00000   0.00000   0.00000
 171       12D+2        0.00012   0.00001   0.00022   0.00000  -0.00001
 172       12D-2        0.00000   0.00000   0.00000   0.00000   0.00000
 173       13D 0       -0.00031   0.00000  -0.00062   0.00000   0.00001
 174       13D+1        0.00000  -0.00018  -0.00001   0.00000   0.00000
 175       13D-1        0.00000   0.00000   0.00000   0.00000   0.00000
 176       13D+2       -0.00012   0.00000  -0.00008   0.00000   0.00001
 177       13D-2        0.00000   0.00000   0.00000   0.00000   0.00000
 178       14D 0       -0.00096   0.00001   0.00039   0.00000  -0.00004
 179       14D+1       -0.00002  -0.00047   0.00000   0.00000   0.00000
 180       14D-1        0.00000   0.00000   0.00000   0.00000   0.00000
 181       14D+2        0.00069   0.00000  -0.00015   0.00000   0.00001
 182       14D-2        0.00000   0.00000   0.00000   0.00000   0.00000
 183       15F 0        0.00019   0.00000   0.00039  -0.00001  -0.00002
 184       15F+1        0.00000  -0.00026   0.00000   0.00000   0.00000
 185       15F-1        0.00000   0.00000   0.00000   0.00000   0.00000
 186       15F+2        0.00008   0.00000   0.00009   0.00000   0.00000
 187       15F-2        0.00000   0.00000   0.00000   0.00000   0.00000
 188       15F+3        0.00000   0.00013   0.00000   0.00000   0.00000
 189       15F-3        0.00000   0.00000   0.00000   0.00000   0.00000
 190       16F 0       -0.00023   0.00001  -0.00037   0.00000   0.00000
 191       16F+1        0.00000  -0.00048  -0.00001   0.00000   0.00000
 192       16F-1        0.00000   0.00000   0.00000   0.00000   0.00000
 193       16F+2       -0.00033   0.00000  -0.00019   0.00000   0.00000
 194       16F-2        0.00000   0.00000   0.00000   0.00000   0.00000
 195       16F+3        0.00000  -0.00012   0.00000   0.00000   0.00000
 196       16F-3        0.00000   0.00000   0.00000   0.00000   0.00000
                          16        17        18        19        20
     Eigenvalues --     2.00000   1.97697   1.97419   1.97000   1.95130
   1 1   C  1S          0.00000  -0.08576   0.00000  -0.06957  -0.04032
   2        2S          0.00000   0.22081   0.00000   0.18676   0.11220
   3        3S          0.00000   0.04816   0.00000   0.04467   0.02698
   4        4S          0.00000   0.04440   0.00000   0.06296   0.05610
   5        5S          0.00000   0.01148   0.00000   0.01605   0.00164
   6        6PX         0.00000   0.00016   0.00000   0.00058   0.00001
   7        6PY        -0.00001   0.00000   0.06100   0.00000   0.00000
   8        6PZ         0.00000  -0.01108   0.00000   0.10386  -0.05488
   9        7PX         0.00000   0.00018   0.00000   0.00073   0.00002
  10        7PY         0.00004   0.00000   0.08383   0.00000   0.00000
  11        7PZ         0.00000  -0.02144   0.00000   0.12974  -0.07663
  12        8PX         0.00000   0.00001   0.00000  -0.00002   0.00004
  13        8PY        -0.00005   0.00000   0.00398   0.00000   0.00000
  14        8PZ         0.00000   0.00803   0.00000   0.00451  -0.04647
  15        9PX         0.00000   0.00001   0.00000  -0.00001  -0.00006
  16        9PY        -0.00001   0.00000   0.00831   0.00000   0.00000
  17        9PZ         0.00000  -0.00385   0.00000   0.00844  -0.02170
  18       10D 0        0.00000   0.00433   0.00000   0.00971   0.01023
  19       10D+1        0.00000   0.00005   0.00000   0.00012   0.00002
  20       10D-1        0.00000   0.00000  -0.00851   0.00000   0.00000
  21       10D+2        0.00000  -0.00709   0.00000   0.00121   0.00367
  22       10D-2        0.00000   0.00000   0.00000   0.00000   0.00000
  23       11D 0        0.00000   0.00606   0.00000   0.01114   0.03019
  24       11D+1        0.00000   0.00006   0.00000   0.00015   0.00010
  25       11D-1       -0.00006   0.00000  -0.01777   0.00000   0.00000
  26       11D+2        0.00000  -0.01104   0.00000   0.00305   0.01364
  27       11D-2        0.00000   0.00000   0.00001   0.00000   0.00000
  28       12D 0        0.00000   0.00386   0.00000   0.00384  -0.04135
  29       12D+1        0.00000   0.00000   0.00000  -0.00014   0.00006
  30       12D-1       -0.00002   0.00000   0.01213   0.00000   0.00000
  31       12D+2        0.00000   0.00769   0.00000   0.00471  -0.02645
  32       12D-2        0.00000   0.00000   0.00001   0.00000   0.00000
  33       13F 0        0.00000   0.00400   0.00000   0.00470  -0.00111
  34       13F+1        0.00000   0.00003   0.00000   0.00006   0.00000
  35       13F-1        0.00000   0.00000   0.00190   0.00000   0.00000
  36       13F+2        0.00000   0.00461   0.00000  -0.00023   0.00164
  37       13F-2        0.00000   0.00000   0.00001   0.00000   0.00000
  38       13F+3        0.00000   0.00000   0.00000  -0.00001   0.00001
  39       13F-3        0.00000   0.00000  -0.00242   0.00000   0.00000
  40       14F 0        0.00000   0.00133   0.00000  -0.00094  -0.00298
  41       14F+1        0.00000   0.00000   0.00000   0.00000   0.00001
  42       14F-1       -0.00001   0.00000   0.00055   0.00000   0.00000
  43       14F+2        0.00000   0.00182   0.00000  -0.00009   0.00149
  44       14F-2        0.00000   0.00000  -0.00003   0.00000   0.00000
  45       14F+3        0.00000   0.00000   0.00000   0.00002   0.00003
  46       14F-3       -0.00001   0.00000  -0.00070   0.00000   0.00000
  47 2   Cl 1S          0.70524   0.04533  -0.05311  -0.02139  -0.01156
  48        2S          0.00713  -0.16944   0.19865   0.08000   0.04389
  49        3S          0.00011   0.36240  -0.42571  -0.17261  -0.09563
  50        4S          0.00016   0.04391  -0.05349  -0.02259  -0.01502
  51        5S         -0.00004   0.21876  -0.26442  -0.11351  -0.10004
  52        6S         -0.00005  -0.00694   0.01010   0.00231  -0.02622
  53        7PX         0.00000   0.00001   0.00000  -0.00006   0.00026
  54        7PY        -0.00051  -0.01656  -0.00006   0.00089  -0.11147
  55        7PZ        -0.00042  -0.00738   0.00751  -0.01896   0.10251
  56        8PX         0.00000  -0.00002  -0.00001   0.00016  -0.00062
  57        8PY         0.00006   0.02466   0.01613  -0.00179   0.25416
  58        8PZ         0.00004   0.00559  -0.01011   0.04838  -0.24582
  59        9PX         0.00000  -0.00001  -0.00001   0.00007  -0.00029
  60        9PY        -0.00006   0.01076   0.00735  -0.00013   0.12138
  61        9PZ        -0.00005   0.00287  -0.00426   0.02271  -0.11770
  62       10PX         0.00000  -0.00002   0.00001   0.00005  -0.00033
  63       10PY        -0.00006  -0.00080   0.01530  -0.00732   0.13130
  64       10PZ        -0.00003  -0.00310   0.00339   0.02635  -0.17774
  65       11PX         0.00000   0.00000   0.00000   0.00000   0.00001
  66       11PY        -0.00001  -0.00400   0.00285   0.00037   0.00048
  67       11PZ         0.00000  -0.00165   0.00318  -0.00016  -0.00602
  68       12D 0        0.00000  -0.00056  -0.00079   0.00277  -0.00687
  69       12D+1        0.00000   0.00000   0.00000   0.00001   0.00000
  70       12D-1        0.00001   0.00733  -0.00540   0.00269   0.00283
  71       12D+2        0.00000  -0.00602   0.00271   0.00056  -0.01017
  72       12D-2        0.00000   0.00000   0.00000   0.00001  -0.00001
  73       13D 0        0.00000  -0.00124  -0.00178   0.00465  -0.00840
  74       13D+1        0.00000   0.00000   0.00000   0.00003   0.00001
  75       13D-1        0.00002   0.00711  -0.00468   0.00429   0.00196
  76       13D+2       -0.00001  -0.00632   0.00176   0.00149  -0.01208
  77       13D-2        0.00000   0.00000   0.00001   0.00003   0.00000
  78       14D 0        0.00000   0.00098   0.00106   0.00300  -0.00868
  79       14D+1        0.00000   0.00000   0.00000   0.00002   0.00003
  80       14D-1       -0.00002  -0.00195   0.00314   0.00202  -0.00365
  81       14D+2        0.00002   0.00178  -0.00255   0.00076  -0.00674
  82       14D-2        0.00000   0.00001   0.00001  -0.00001   0.00002
  83       15F 0        0.00000  -0.00134   0.00089   0.00055  -0.00227
  84       15F+1        0.00000   0.00000   0.00000   0.00000   0.00000
  85       15F-1        0.00000   0.00069  -0.00153   0.00133  -0.00387
  86       15F+2        0.00000  -0.00254   0.00213  -0.00017  -0.00169
  87       15F-2        0.00000   0.00000   0.00000   0.00001  -0.00001
  88       15F+3        0.00000   0.00000   0.00000  -0.00001   0.00001
  89       15F-3        0.00000  -0.00188   0.00082   0.00064  -0.00343
  90       16F 0        0.00000  -0.00016  -0.00034   0.00001  -0.00041
  91       16F+1        0.00000   0.00000   0.00000   0.00000   0.00001
  92       16F-1        0.00000  -0.00018   0.00004   0.00150  -0.00207
  93       16F+2        0.00000   0.00009  -0.00068  -0.00028  -0.00058
  94       16F-2        0.00000   0.00000   0.00000   0.00001   0.00001
  95       16F+3        0.00000   0.00000   0.00000   0.00000   0.00000
  96       16F-3        0.00000   0.00028  -0.00039   0.00022  -0.00131
  97 3   Cl 1S         -0.70497   0.04533   0.05311  -0.02139  -0.01156
  98        2S         -0.00713  -0.16944  -0.19865   0.08000   0.04389
  99        3S         -0.00011   0.36240   0.42571  -0.17261  -0.09563
 100        4S         -0.00016   0.04391   0.05349  -0.02259  -0.01502
 101        5S          0.00004   0.21876   0.26442  -0.11351  -0.10004
 102        6S          0.00005  -0.00694  -0.01010   0.00231  -0.02622
 103        7PX         0.00000   0.00001   0.00000  -0.00006   0.00026
 104        7PY        -0.00051   0.01656  -0.00006  -0.00089   0.11147
 105        7PZ         0.00042  -0.00738  -0.00751  -0.01896   0.10251
 106        8PX         0.00000  -0.00002   0.00001   0.00016  -0.00062
 107        8PY         0.00006  -0.02466   0.01613   0.00179  -0.25416
 108        8PZ        -0.00004   0.00559   0.01011   0.04838  -0.24582
 109        9PX         0.00000  -0.00001   0.00001   0.00007  -0.00029
 110        9PY        -0.00006  -0.01076   0.00735   0.00013  -0.12138
 111        9PZ         0.00005   0.00287   0.00426   0.02271  -0.11770
 112       10PX         0.00000  -0.00002  -0.00001   0.00005  -0.00033
 113       10PY        -0.00006   0.00080   0.01530   0.00732  -0.13130
 114       10PZ         0.00003  -0.00310  -0.00339   0.02635  -0.17774
 115       11PX         0.00000   0.00000   0.00000   0.00000   0.00001
 116       11PY        -0.00001   0.00400   0.00285  -0.00037  -0.00048
 117       11PZ         0.00000  -0.00165  -0.00318  -0.00016  -0.00602
 118       12D 0        0.00000  -0.00056   0.00079   0.00277  -0.00687
 119       12D+1        0.00000   0.00000   0.00000   0.00001   0.00000
 120       12D-1        0.00001  -0.00733  -0.00540  -0.00269  -0.00283
 121       12D+2        0.00000  -0.00602  -0.00271   0.00056  -0.01017
 122       12D-2        0.00000   0.00000   0.00000  -0.00001   0.00001
 123       13D 0        0.00000  -0.00124   0.00178   0.00465  -0.00840
 124       13D+1        0.00000   0.00000   0.00000   0.00003   0.00001
 125       13D-1        0.00002  -0.00711  -0.00468  -0.00429  -0.00196
 126       13D+2        0.00001  -0.00632  -0.00176   0.00149  -0.01208
 127       13D-2        0.00000   0.00000   0.00001  -0.00003   0.00000
 128       14D 0        0.00000   0.00098  -0.00106   0.00300  -0.00868
 129       14D+1        0.00000   0.00000   0.00000   0.00002   0.00003
 130       14D-1       -0.00002   0.00195   0.00314  -0.00202   0.00365
 131       14D+2       -0.00002   0.00178   0.00255   0.00076  -0.00674
 132       14D-2        0.00000  -0.00001   0.00001   0.00001  -0.00002
 133       15F 0        0.00000  -0.00134  -0.00089   0.00055  -0.00227
 134       15F+1        0.00000   0.00000   0.00000   0.00000   0.00000
 135       15F-1        0.00000  -0.00069  -0.00153  -0.00133   0.00387
 136       15F+2        0.00000  -0.00254  -0.00213  -0.00017  -0.00169
 137       15F-2        0.00000   0.00000   0.00000  -0.00001   0.00001
 138       15F+3        0.00000   0.00000   0.00000  -0.00001   0.00001
 139       15F-3        0.00000   0.00188   0.00082  -0.00064   0.00343
 140       16F 0        0.00000  -0.00016   0.00034   0.00001  -0.00041
 141       16F+1        0.00000   0.00000   0.00000   0.00000   0.00001
 142       16F-1        0.00000   0.00018   0.00004  -0.00150   0.00207
 143       16F+2        0.00000   0.00009   0.00068  -0.00028  -0.00058
 144       16F-2        0.00000   0.00000   0.00000  -0.00001  -0.00001
 145       16F+3        0.00000   0.00000   0.00000   0.00000   0.00000
 146       16F-3        0.00000  -0.00028  -0.00039  -0.00022   0.00131
 147 4   S  1S          0.00182   0.01649   0.00000   0.05805   0.00460
 148        2S          0.00002  -0.06337   0.00000  -0.22212  -0.01763
 149        3S          0.00000   0.13133   0.00000   0.47011   0.03869
 150        4S          0.00000   0.01580   0.00000   0.06108   0.00542
 151        5S          0.00000   0.05492   0.00000   0.24352   0.07680
 152        6S          0.00000  -0.00307   0.00000  -0.03125   0.02510
 153        7PX         0.00000   0.00012   0.00000   0.00026  -0.00001
 154        7PY         0.00024   0.00000  -0.01106   0.00000   0.00000
 155        7PZ         0.00001   0.02164   0.00000   0.04433   0.00199
 156        8PX         0.00000  -0.00014   0.00000  -0.00029  -0.00001
 157        8PY         0.00002   0.00000   0.03238   0.00000   0.00000
 158        8PZ         0.00000  -0.03273   0.00000  -0.05565  -0.00652
 159        9PX         0.00000  -0.00008   0.00000  -0.00016   0.00001
 160        9PY         0.00001   0.00000   0.01227   0.00000   0.00000
 161        9PZ         0.00000  -0.01618   0.00000  -0.03098  -0.00186
 162       10PX         0.00000   0.00005   0.00000   0.00027  -0.00044
 163       10PY         0.00002   0.00000   0.00999   0.00000   0.00000
 164       10PZ         0.00000   0.00084   0.00000   0.01616  -0.01739
 165       11PX         0.00000   0.00000   0.00000   0.00009  -0.00005
 166       11PY         0.00000   0.00000  -0.00149   0.00000   0.00000
 167       11PZ         0.00000   0.00231   0.00000   0.00823   0.00052
 168       12D 0        0.00000   0.00675   0.00000   0.00985   0.00074
 169       12D+1        0.00000   0.00005   0.00000   0.00010   0.00001
 170       12D-1       -0.00002   0.00000  -0.00509   0.00000   0.00000
 171       12D+2        0.00000   0.00017   0.00000   0.00037   0.00325
 172       12D-2        0.00000   0.00000  -0.00002   0.00000   0.00000
 173       13D 0        0.00000   0.00991   0.00000   0.02409   0.00124
 174       13D+1        0.00000   0.00010   0.00000   0.00025  -0.00002
 175       13D-1        0.00000   0.00000  -0.00339   0.00000   0.00000
 176       13D+2        0.00000  -0.00001   0.00000   0.00099   0.00241
 177       13D-2        0.00000   0.00000  -0.00002   0.00000   0.00000
 178       14D 0        0.00000  -0.00238   0.00000  -0.00880  -0.00078
 179       14D+1        0.00000  -0.00003   0.00000  -0.00015   0.00009
 180       14D-1       -0.00001   0.00000   0.00200   0.00000   0.00000
 181       14D+2        0.00000  -0.00175   0.00000  -0.00088   0.00539
 182       14D-2        0.00000   0.00000   0.00004   0.00000   0.00000
 183       15F 0        0.00000  -0.00300   0.00000  -0.00874  -0.00079
 184       15F+1        0.00000  -0.00004   0.00000  -0.00013  -0.00001
 185       15F-1        0.00000   0.00000   0.00171   0.00000   0.00000
 186       15F+2        0.00000   0.00018   0.00000  -0.00031  -0.00042
 187       15F-2        0.00000   0.00000   0.00001   0.00000   0.00000
 188       15F+3        0.00000   0.00000   0.00000   0.00000   0.00000
 189       15F-3        0.00000   0.00000   0.00009   0.00000   0.00000
 190       16F 0        0.00000   0.00068   0.00000   0.00505  -0.00015
 191       16F+1        0.00000   0.00002   0.00000   0.00009   0.00000
 192       16F-1        0.00001   0.00000   0.00077   0.00000   0.00000
 193       16F+2        0.00000  -0.00061   0.00000  -0.00075  -0.00132
 194       16F-2        0.00000   0.00000  -0.00001   0.00000   0.00000
 195       16F+3        0.00000   0.00000   0.00000  -0.00001  -0.00002
 196       16F-3        0.00000   0.00000   0.00035   0.00000   0.00000
                          21        22        23        24        25
     Eigenvalues --     1.94891   1.94878   1.94808   1.94659   1.94109
   1 1   C  1S          0.12009   0.00000   0.00177   0.00000   0.00000
   2        2S         -0.33571   0.00000  -0.00495   0.00000   0.00000
   3        3S         -0.08048   0.00000  -0.00119   0.00000   0.00000
   4        4S         -0.21035   0.00000  -0.00340   0.00000   0.00000
   5        5S         -0.00824   0.00000   0.00036   0.00000   0.00000
   6        6PX        -0.00140   0.00000   0.09635   0.00000   0.00000
   7        6PY         0.00000   0.08140   0.00000  -0.00010   0.16849
   8        6PZ         0.03756   0.00000   0.00011   0.00000   0.00000
   9        7PX        -0.00196   0.00000   0.13760   0.00000   0.00000
  10        7PY         0.00000   0.11152   0.00000  -0.00014   0.23753
  11        7PZ         0.06338   0.00000   0.00029   0.00000   0.00000
  12        8PX        -0.00094   0.00000   0.06219   0.00000   0.00000
  13        8PY         0.00000   0.03470   0.00000  -0.00059   0.08313
  14        8PZ        -0.01873   0.00000   0.00028   0.00000   0.00000
  15        9PX        -0.00001   0.00000   0.00653   0.00000   0.00000
  16        9PY         0.00000   0.01051   0.00000  -0.00027  -0.00728
  17        9PZ        -0.00342   0.00000   0.00022   0.00000   0.00000
  18       10D 0        0.00200   0.00000   0.00003   0.00000   0.00000
  19       10D+1        0.00008   0.00000  -0.00724   0.00000   0.00000
  20       10D-1        0.00000   0.00491   0.00000  -0.00005  -0.00697
  21       10D+2        0.00752   0.00000   0.00010   0.00000   0.00000
  22       10D-2        0.00000   0.00008   0.00000   0.01063   0.00001
  23       11D 0        0.00768   0.00000   0.00014   0.00000   0.00000
  24       11D+1        0.00030   0.00000  -0.02313   0.00000   0.00000
  25       11D-1        0.00000   0.01661   0.00000  -0.00017  -0.01383
  26       11D+2        0.01722   0.00000   0.00025   0.00000   0.00000
  27       11D-2        0.00000   0.00021   0.00000   0.03235   0.00003
  28       12D 0       -0.02161   0.00000  -0.00078   0.00000   0.00000
  29       12D+1       -0.00026   0.00000   0.01639   0.00000   0.00000
  30       12D-1        0.00000  -0.03734   0.00000  -0.00039   0.01093
  31       12D+2       -0.00660   0.00000  -0.00020   0.00000   0.00000
  32       12D-2        0.00000  -0.00025   0.00000  -0.01091   0.00016
  33       13F 0       -0.00361   0.00000  -0.00007   0.00000   0.00000
  34       13F+1       -0.00005   0.00000   0.00227   0.00000   0.00000
  35       13F-1        0.00000  -0.00259   0.00000   0.00003   0.00771
  36       13F+2       -0.00478   0.00000  -0.00005   0.00000   0.00000
  37       13F-2        0.00000   0.00000   0.00000  -0.00444   0.00006
  38       13F+3        0.00007   0.00000  -0.00484   0.00000   0.00000
  39       13F-3        0.00000  -0.00298   0.00000   0.00001  -0.00296
  40       14F 0       -0.00691   0.00000  -0.00010   0.00000   0.00000
  41       14F+1       -0.00005   0.00000   0.00234   0.00000   0.00000
  42       14F-1        0.00000  -0.00868   0.00000   0.00001  -0.00069
  43       14F+2       -0.00198   0.00000  -0.00007   0.00000   0.00000
  44       14F-2        0.00000  -0.00004   0.00000  -0.00571  -0.00004
  45       14F+3        0.00003   0.00000  -0.00335   0.00000   0.00000
[...]
  52        6S        -13.80007  -0.08820   7.16316   5.28107  10.02650
  53        7PX        -0.00001  -0.01624  -0.00008   0.00000  -0.00010
  54        7PY         0.02346   0.00012  -0.01325   0.00396  -0.01632
  55        7PZ         0.00126   0.00006  -0.00377  -0.01090  -0.01454
  56        8PX        -0.00029  -0.19165  -0.00104  -0.00020  -0.00115
  57        8PY         0.38084   0.00292  -0.16763   0.05124  -0.26188
  58        8PZ         0.02821   0.00178  -0.03793  -0.13872  -0.23680
  59        9PX         0.00002   0.06219   0.00031   0.00002   0.00036
  60        9PY        -0.08623  -0.00054   0.05154  -0.01471   0.06180
  61        9PZ        -0.00144  -0.00029   0.01555   0.04276   0.05564
  62       10PX         0.00141   0.83878   0.00906   0.00239   0.00612
  63       10PY        -5.27816  -0.00547   0.79848   0.57503   1.92702
  64       10PZ        -2.67086  -0.00048   0.56698   1.39787   1.36168
  65       11PX        -0.00001  -2.38652  -0.00875  -0.00605  -0.01190
  66       11PY        -2.44625  -0.02123  -1.70589   1.27007   1.48629
  67       11PZ        -1.44543  -0.04287   1.02221  -2.72981   1.55252
  68       12D 0        0.01860  -0.00022  -0.01018  -0.02333  -0.00528
  69       12D+1       -0.00017  -0.01499  -0.00029  -0.00004  -0.00030
  70       12D-1       -0.01973  -0.00076   0.00286  -0.00128   0.01695
  71       12D+2        0.04171   0.00071   0.04297   0.00782   0.01299
  72       12D-2        0.00006  -0.02192   0.00002   0.00006  -0.00017
  73       13D 0       -0.11048   0.00078   0.05507   0.09014   0.00204
  74       13D+1        0.00035   0.06295   0.00115   0.00021   0.00115
  75       13D-1        0.00365   0.00340   0.01568   0.04463  -0.09344
  76       13D+2       -0.12978  -0.00300  -0.14865  -0.03771  -0.03425
  77       13D-2       -0.00058   0.09140   0.00025  -0.00026   0.00073
  78       14D 0        0.38104  -0.00211  -0.01959  -0.18966   0.07757
  79       14D+1       -0.00118  -0.09192  -0.00006  -0.00212  -0.00070
  80       14D-1       -1.30075  -0.00707   0.15478   0.31763   0.51010
  81       14D+2        1.06116   0.00548   0.31128  -0.02592  -0.31899
  82       14D-2        0.00024   0.10391   0.00234   0.00141   0.00085
  83       15F 0       -0.01734  -0.00012   0.02928   0.00247   0.00770
  84       15F+1        0.00032  -0.01116   0.00012   0.00011   0.00006
  85       15F-1        0.03744   0.00003  -0.00632   0.01323  -0.00291
  86       15F+2       -0.01969  -0.00027   0.00830   0.02668   0.02175
  87       15F-2        0.00001  -0.00527  -0.00028   0.00034  -0.00010
  88       15F+3       -0.00007   0.05130  -0.00005   0.00009   0.00024
  89       15F-3        0.01591  -0.00020   0.01989  -0.00418   0.03298
  90       16F 0        0.07309   0.00001  -0.06276  -0.04579   0.00474
  91       16F+1       -0.00068   0.00737  -0.00032  -0.00045   0.00000
  92       16F-1       -0.12831  -0.00015   0.03443  -0.02587  -0.00165
  93       16F+2        0.10460   0.00032  -0.01788  -0.07631  -0.03850
  94       16F-2       -0.00032   0.02335   0.00077  -0.00089   0.00046
  95       16F+3        0.00044  -0.13112  -0.00022  -0.00024  -0.00067
  96       16F-3       -0.00383   0.00016  -0.01994   0.01084  -0.07457
  97 3   Cl 1S         -0.01581  -0.00020  -0.00994   0.00533   0.00345
  98        2S         -0.21257  -0.00347  -0.18488   0.10106   0.08000
  99        3S         -0.60369  -0.00823  -0.41696   0.22274   0.15647
 100        4S          0.02526   0.00241   0.16664  -0.10457  -0.09988
 101        5S          4.85248   0.03453   0.87861   0.04505  -0.12614
 102        6S         13.80007  -0.08820  -7.16316   5.28107  10.02650
 103        7PX         0.00001  -0.01624   0.00008   0.00000  -0.00010
 104        7PY         0.02346  -0.00012  -0.01325  -0.00396   0.01632
 105        7PZ        -0.00126   0.00006   0.00377  -0.01090  -0.01454
 106        8PX         0.00029  -0.19165   0.00104  -0.00020  -0.00115
 107        8PY         0.38084  -0.00292  -0.16763  -0.05124   0.26188
 108        8PZ        -0.02821   0.00178   0.03793  -0.13872  -0.23680
 109        9PX        -0.00002   0.06219  -0.00031   0.00002   0.00036
 110        9PY        -0.08623   0.00054   0.05154   0.01471  -0.06180
 111        9PZ         0.00144  -0.00029  -0.01555   0.04276   0.05564
 112       10PX        -0.00141   0.83878  -0.00906   0.00239   0.00612
 113       10PY        -5.27816   0.00547   0.79848  -0.57503  -1.92702
 114       10PZ         2.67086  -0.00048  -0.56698   1.39787   1.36168
 115       11PX         0.00001  -2.38652   0.00875  -0.00605  -0.01190
 116       11PY        -2.44625   0.02123  -1.70589  -1.27007  -1.48629
 117       11PZ         1.44543  -0.04287  -1.02221  -2.72981   1.55252
 118       12D 0       -0.01860  -0.00022   0.01018  -0.02333  -0.00528
 119       12D+1        0.00017  -0.01499   0.00029  -0.00004  -0.00030
 120       12D-1       -0.01973   0.00076   0.00286   0.00128  -0.01695
 121       12D+2       -0.04171   0.00071  -0.04297   0.00782   0.01299
 122       12D-2        0.00006   0.02192   0.00002  -0.00006   0.00017
 123       13D 0        0.11048   0.00078  -0.05507   0.09014   0.00204
 124       13D+1       -0.00035   0.06295  -0.00115   0.00021   0.00115
 125       13D-1        0.00365  -0.00340   0.01568  -0.04463   0.09344
 126       13D+2        0.12978  -0.00300   0.14865  -0.03771  -0.03425
 127       13D-2       -0.00058  -0.09140   0.00025   0.00026  -0.00073
 128       14D 0       -0.38104  -0.00211   0.01959  -0.18966   0.07757
 129       14D+1        0.00118  -0.09192   0.00006  -0.00212  -0.00070
 130       14D-1       -1.30075   0.00707   0.15478  -0.31763  -0.51010
 131       14D+2       -1.06116   0.00548  -0.31128  -0.02592  -0.31899
 132       14D-2        0.00024  -0.10391   0.00234  -0.00141  -0.00085
 133       15F 0        0.01734  -0.00012  -0.02928   0.00247   0.00770
 134       15F+1       -0.00032  -0.01116  -0.00012   0.00011   0.00006
 135       15F-1        0.03744  -0.00003  -0.00632  -0.01323   0.00291
 136       15F+2        0.01969  -0.00027  -0.00830   0.02668   0.02175
 137       15F-2        0.00001   0.00527  -0.00028  -0.00034   0.00010
 138       15F+3        0.00007   0.05130   0.00005   0.00009   0.00024
 139       15F-3        0.01591   0.00020   0.01989   0.00418  -0.03298
 140       16F 0       -0.07309   0.00001   0.06276  -0.04579   0.00474
 141       16F+1        0.00068   0.00737   0.00032  -0.00045   0.00000
 142       16F-1       -0.12831   0.00015   0.03443   0.02587   0.00165
 143       16F+2       -0.10460   0.00032   0.01788  -0.07631  -0.03850
 144       16F-2       -0.00032  -0.02335   0.00077   0.00089  -0.00046
 145       16F+3       -0.00044  -0.13112   0.00022  -0.00024  -0.00067
 146       16F-3       -0.00383  -0.00016  -0.01994  -0.01084   0.07457
 147 4   S  1S          0.00000   0.00004   0.00000   0.00197  -0.00377
 148        2S          0.00000   0.00063   0.00000   0.00003  -0.06312
 149        3S          0.00000   0.00170   0.00000   0.06164  -0.16986
 150        4S          0.00000   0.00004   0.00000   0.10450   0.02266
 151        5S          0.00000  -0.06295   0.00000  -3.77682   2.29580
 152        6S          0.00000  -0.13677   0.00000 -15.53930   4.09597
 153        7PX         0.00000  -0.01985   0.00000   0.00012  -0.00011
 154        7PY         0.01748   0.00000   0.00356   0.00000   0.00000
 155        7PZ         0.00000   0.00024   0.00000  -0.00754  -0.00126
 156        8PX         0.00000  -0.08874   0.00000   0.00042  -0.00039
 157        8PY         0.26701   0.00000   0.13276   0.00000   0.00000
 158        8PZ         0.00000   0.00549   0.00000  -0.01157  -0.13105
 159        9PX         0.00000   0.07445   0.00000  -0.00052   0.00041
 160        9PY        -0.06530   0.00000  -0.01181   0.00000   0.00000
 161        9PZ         0.00000  -0.00077   0.00000   0.02088   0.00103
 162       10PX         0.00000  -0.63785   0.00000   0.01663  -0.02282
 163       10PY        -3.47392   0.00000  -0.40813   0.00000   0.00000
 164       10PZ         0.00000   0.01916   0.00000   3.57582  -0.32959
 165       11PX         0.00000  -4.11306   0.00000   0.04049  -0.03276
 166       11PY        -0.05723   0.00000  -4.74513   0.00000   0.00000
 167       11PZ         0.00000  -0.01097   0.00000  -1.07946   0.78876
 168       12D 0        0.00000  -0.00501   0.00000  -0.45697   0.32982
 169       12D+1        0.00000  -0.34342   0.00000  -0.00046   0.00048
 170       12D-1       -0.07827   0.00000  -0.36441   0.00000   0.00000
 171       12D+2        0.00000  -0.00102   0.00000   0.11225  -0.14710
 172       12D-2       -0.00008   0.00000  -0.00305   0.00000   0.00000
 173       13D 0        0.00000   0.00100   0.00000   0.08600  -0.08190
 174       13D+1        0.00000   0.07023   0.00000   0.00035  -0.00015
 175       13D-1        0.04208   0.00000   0.07059   0.00000   0.00000
 176       13D+2        0.00000   0.00011   0.00000  -0.03295   0.03039
 177       13D-2        0.00021   0.00000   0.00069   0.00000   0.00000
 178       14D 0        0.00000   0.01042   0.00000   0.19420  -1.16073
 179       14D+1        0.00000   1.23953   0.00000  -0.00311   0.00926
 180       14D-1        1.45343   0.00000   0.92285   0.00000   0.00000
 181       14D+2        0.00000  -0.00022   0.00000  -0.44371   0.17449
 182       14D-2        0.01453   0.00000   0.00388   0.00000   0.00000
 183       15F 0        0.00000   0.00004   0.00000  -0.01309  -0.01301
 184       15F+1        0.00000   0.01522   0.00000   0.00003   0.00044
 185       15F-1       -0.06905   0.00000   0.00563   0.00000   0.00000
 186       15F+2        0.00000  -0.00025   0.00000  -0.01301   0.00189
 187       15F-2       -0.00018   0.00000  -0.00055   0.00000   0.00000
 188       15F+3        0.00000   0.02671   0.00000  -0.00019  -0.00002
 189       15F-3       -0.00273   0.00000   0.04049   0.00000   0.00000
 190       16F 0        0.00000  -0.00087   0.00000   0.07779   0.13229
 191       16F+1        0.00000  -0.01683   0.00000  -0.00100  -0.00046
 192       16F-1        0.10228   0.00000   0.01317   0.00000   0.00000
 193       16F+2        0.00000   0.00228   0.00000   0.07210   0.01709
 194       16F-2       -0.00167   0.00000   0.00195   0.00000   0.00000
 195       16F+3        0.00000  -0.06015   0.00000   0.00082   0.00043
 196       16F-3        0.01675   0.00000  -0.09419   0.00000   0.00000
                         196
     Eigenvalues --     0.00000
   1 1   C  1S         -0.03329
   2        2S         -0.12035
   3        3S          0.13354
   4        4S          2.58685
   5        5S         21.00265
   6        6PX         0.00034
   7        6PY         0.00000
   8        6PZ         0.02244
   9        7PX        -0.00235
  10        7PY         0.00000
  11        7PZ        -0.20357
  12        8PX         0.00328
  13        8PY         0.00000
  14        8PZ         1.17499
  15        9PX         0.05704
  16        9PY         0.00000
  17        9PZ         3.35436
  18       10D 0        0.01263
  19       10D+1        0.00031
  20       10D-1        0.00000
  21       10D+2       -0.03508
  22       10D-2        0.00000
  23       11D 0       -0.33371
  24       11D+1       -0.00401
  25       11D-1        0.00000
  26       11D+2        0.17072
  27       11D-2        0.00000
  28       12D 0       -1.00170
  29       12D+1       -0.00276
  30       12D-1        0.00000
  31       12D+2       -0.74302
  32       12D-2        0.00000
  33       13F 0       -0.02585
  34       13F+1       -0.00029
  35       13F-1        0.00000
  36       13F+2       -0.00085
  37       13F-2        0.00000
  38       13F+3       -0.00001
  39       13F-3        0.00000
  40       14F 0       -0.14228
  41       14F+1       -0.00169
  42       14F-1        0.00000
  43       14F+2       -0.12000
  44       14F-2        0.00000
  45       14F+3        0.00014
  46       14F-3        0.00000
  47 2   Cl 1S         -0.00100
  48        2S         -0.01375
  49        3S         -0.03850
  50        4S         -0.00156
  51        5S          0.37748
  52        6S         -3.45695
  53        7PX        -0.00011
  54        7PY         0.00805
  55        7PZ         0.00364
  56        8PX        -0.00133
  57        8PY         0.14301
  58        8PZ         0.08869
  59        9PX         0.00043
  60        9PY        -0.02913
  61        9PZ        -0.01142
  62       10PX         0.00359
  63       10PY         0.13607
  64       10PZ        -0.42107
  65       11PX        -0.01353
  66       11PY        -0.73568
  67       11PZ        -1.02046
  68       12D 0        0.00841
  69       12D+1        0.00020
  70       12D-1       -0.01034
  71       12D+2       -0.00802
  72       12D-2       -0.00005
  73       13D 0       -0.04126
  74       13D+1       -0.00077
  75       13D-1        0.08802
  76       13D+2       -0.00851
  77       13D-2        0.00020
  78       14D 0       -0.05269
  79       14D+1        0.00258
  80       14D-1       -0.17126
  81       14D+2       -0.16917
  82       14D-2       -0.00064
  83       15F 0       -0.00508
  84       15F+1       -0.00015
  85       15F-1        0.00674
  86       15F+2       -0.00373
  87       15F-2       -0.00016
  88       15F+3        0.00008
  89       15F-3       -0.00211
  90       16F 0        0.00441
  91       16F+1        0.00047
  92       16F-1       -0.02076
  93       16F+2       -0.00463
  94       16F-2        0.00034
  95       16F+3       -0.00005
  96       16F-3       -0.01059
  97 3   Cl 1S         -0.00100
  98        2S         -0.01375
  99        3S         -0.03850
 100        4S         -0.00156
 101        5S          0.37748
 102        6S         -3.45695
 103        7PX        -0.00011
 104        7PY        -0.00805
 105        7PZ         0.00364
 106        8PX        -0.00133
 107        8PY        -0.14301
 108        8PZ         0.08869
 109        9PX         0.00043
 110        9PY         0.02913
 111        9PZ        -0.01142
 112       10PX         0.00359
 113       10PY        -0.13607
 114       10PZ        -0.42107
 115       11PX        -0.01353
 116       11PY         0.73568
 117       11PZ        -1.02046
 118       12D 0        0.00841
 119       12D+1        0.00020
 120       12D-1        0.01034
 121       12D+2       -0.00802
 122       12D-2        0.00005
 123       13D 0       -0.04126
 124       13D+1       -0.00077
 125       13D-1       -0.08802
 126       13D+2       -0.00851
 127       13D-2       -0.00020
 128       14D 0       -0.05269
 129       14D+1        0.00258
 130       14D-1        0.17126
 131       14D+2       -0.16917
 132       14D-2        0.00064
 133       15F 0       -0.00508
 134       15F+1       -0.00015
 135       15F-1       -0.00674
 136       15F+2       -0.00373
 137       15F-2        0.00016
 138       15F+3        0.00008
 139       15F-3        0.00211
 140       16F 0        0.00441
 141       16F+1        0.00047
 142       16F-1        0.02076
 143       16F+2       -0.00463
 144       16F-2       -0.00034
 145       16F+3       -0.00005
 146       16F-3        0.01059
 147 4   S  1S         -0.00436
 148        2S         -0.11025
 149        3S         -0.23215
 150        4S          0.10630
 151        5S          2.75913
 152        6S        -18.13870
 153        7PX        -0.00029
 154        7PY         0.00000
 155        7PZ        -0.04534
 156        8PX        -0.00543
 157        8PY         0.00000
 158        8PZ        -0.91003
 159        9PX         0.00091
 160        9PY         0.00000
 161        9PZ         0.14224
 162       10PX         0.02069
 163       10PY         0.00000
 164       10PZ         3.43791
 165       11PX         0.01689
 166       11PY         0.00000
 167       11PZ         4.74852
 168       12D 0        0.31470
 169       12D+1        0.00216
 170       12D-1        0.00000
 171       12D+2        0.09105
 172       12D-2        0.00000
 173       13D 0       -0.00639
 174       13D+1        0.00013
 175       13D-1        0.00000
 176       13D+2       -0.02094
 177       13D-2        0.00000
 178       14D 0       -1.71105
 179       14D+1       -0.01783
 180       14D-1        0.00000
 181       14D+2        0.03772
 182       14D-2        0.00000
 183       15F 0       -0.08744
 184       15F+1       -0.00165
 185       15F-1        0.00000
 186       15F+2        0.01202
 187       15F-2        0.00000
 188       15F+3        0.00021
 189       15F-3        0.00000
 190       16F 0        0.18825
 191       16F+1        0.00444
 192       16F-1        0.00000
 193       16F+2       -0.08508
 194       16F-2        0.00000
 195       16F+3       -0.00109
 196       16F-3        0.00000
          Condensed to atoms (all electrons):
              1          2          3          4
     1  C    5.673249   0.071275   0.071275   0.179132
     2  Cl   0.071275  17.191979  -0.119030  -0.128551
     3  Cl   0.071275  -0.119030  17.191979  -0.128551
     4  S    0.179132  -0.128551  -0.128551  16.051691
 Mulliken atomic charges:
              1
     1  C    0.005068
     2  Cl  -0.015674
     3  Cl  -0.015674
     4  S    0.026280
 Sum of Mulliken atomic charges =   0.00000
 Mulliken charges with hydrogens summed into heavy atoms:
              1
     1  C    0.005068
     2  Cl  -0.015674
     3  Cl  -0.015674
     4  S    0.026280
 Sum of Mulliken charges with hydrogens summed into heavy atoms =   0.00000
 Electronic spatial extent (au):  <R**2>=            690.6826
 Charge=              0.0000 electrons
 Dipole moment (field-independent basis, Debye):
    X=              0.0004    Y=              0.0000    Z=             -0.4352  Tot=              0.4352
 Quadrupole moment (field-independent basis, Debye-Ang):
   XX=            -43.1530   YY=            -43.2924   ZZ=            -42.5374
   XY=              0.0000   XZ=              0.0013   YZ=              0.0000
 Traceless Quadrupole moment (field-independent basis, Debye-Ang):
   XX=             -0.1587   YY=             -0.2981   ZZ=              0.4569
   XY=              0.0000   XZ=              0.0013   YZ=              0.0000
 Octapole moment (field-independent basis, Debye-Ang**2):
  XXX=             -0.3664  YYY=              0.0000  ZZZ=             81.6757  XYY=             -0.1313
  XXY=              0.0000  XXZ=             27.1314  XZZ=             -0.0925  YZZ=              0.0000
  YYZ=             18.9942  XYZ=              0.0000
 Hexadecapole moment (field-independent basis, Debye-Ang**3):
 XXXX=            -50.9014 YYYY=           -340.4813 ZZZZ=           -477.7185 XXXY=              0.0000
 XXXZ=             -0.3975 YYYX=              0.0000 YYYZ=              0.0000 ZZZX=             -0.3903
 ZZZY=              0.0000 XXYY=            -69.2270 XXZZ=            -89.7499 YYZZ=           -127.3447
 XXYZ=              0.0000 YYXZ=             -0.1737 ZZXY=              0.0000
 N-N= 2.448918487170D+02 E-N=-3.713352517173D+03  KE= 1.355036283609D+03
 1\1\GINC-TRAPISTA\SP\RQCISD-FC\Aug-CC-pVTZ\C1Cl2S1\BRUNS\28-Nov-2021\0
 \\# qcisd/aug-cc-pvtz nosymm density=current output=wfn\\cl2cs-wavefun
 ction\\0,1\C,0,0.,0.,-0.522914\Cl,0,0.,-1.430735,-1.5009\Cl,0,0.,1.430
 735,-1.5009\S,0,0.01,0.,1.081815\\Version=EM64L-G09RevB.01\HF=-1354.42
 60206\MP2=-1355.1503961\MP3=-1355.1829958\MP4D=-1355.2047761\MP4DQ=-13
 55.1798897\MP4SDQ=-1355.1867131\QCISD=-1355.184227\RMSD=9.620e-09\Dipo
 le=0.0001385,0.,-0.1712358\Quadrupole=-0.1180054,-0.2216595,0.3396649,
 0.,0.0009877,0.\PG=CS [SG(C1S1),X(Cl2)]\\@

 Writing a WFN file to GAUSSIAN.wfn.


 I am not a vegetarian because I love animals;
 I am a vegetarian because I hate plants.
                               -- A. Whitney Brown
 Job cpu time:  0 days  2 hours 12 minutes 36.7 seconds.
 File lengths (MBytes):  RWF=  18573 Int=      0 D2E=      0 Chk=      3 Scr=      1
 Normal termination of Gaussian 09 at Sun Nov 28 02:27:35 2021.
