 cl2cs-wavefunction
GAUSSIAN            196 MOL ORBITALS    414 PRIMITIVES        4 NUCLEI
  C    1    (CENTRE  1)   0.00000000  0.00000000 -0.98816425  CHARGE =  6.0
  Cl   2    (CENTRE  2)   0.00000000 -2.72259458 -2.83628995  CHARGE = 17.0
  Cl   3    (CENTRE  3)   0.00000000  2.70369732 -2.83628995  CHARGE = 17.0
  S    4    (CENTRE  4)   0.00000000  0.00000000  2.04433408  CHARGE = 16.0
CENTRE ASSIGNMENTS    1  1  1  1  1  1  1  1  1  1  1  1  1  1  1  1  1  1  1  1
CENTRE ASSIGNMENTS    1  1  1  1  1  1  1  1  1  1  1  1  1  1  1  1  1  1  1  1
CENTRE ASSIGNMENTS    1  1  1  1  1  1  1  1  1  1  1  1  1  1  1  1  1  1  1  1
CENTRE ASSIGNMENTS    1  1  1  1  1  1  1  1  1  1  1  1  2  2  2  2  2  2  2  2
CENTRE ASSIGNMENTS    2  2  2  2  2  2  2  2  2  2  2  2  2  2  2  2  2  2  2  2
CENTRE ASSIGNMENTS    2  2  2  2  2  2  2  2  2  2  2  2  2  2  2  2  2  2  2  2
CENTRE ASSIGNMENTS    2  2  2  2  2  2  2  2  2  2  2  2  2  2  2  2  2  2  2  2
CENTRE ASSIGNMENTS    2  2  2  2  2  2  2  2  2  2  2  2  2  2  2  2  2  2  2  2
CENTRE ASSIGNMENTS    2  2  2  2  2  2  2  2  2  2  2  2  2  2  2  2  2  2  2  2
CENTRE ASSIGNMENTS    2  2  2  2  2  2  3  3  3  3  3  3  3  3  3  3  3  3  3  3
CENTRE ASSIGNMENTS    3  3  3  3  3  3  3  3  3  3  3  3  3  3  3  3  3  3  3  3
CENTRE ASSIGNMENTS    3  3  3  3  3  3  3  3  3  3  3  3  3  3  3  3  3  3  3  3
CENTRE ASSIGNMENTS    3  3  3  3  3  3  3  3  3  3  3  3  3  3  3  3  3  3  3  3
CENTRE ASSIGNMENTS    3  3  3  3  3  3  3  3  3  3  3  3  3  3  3  3  3  3  3  3
CENTRE ASSIGNMENTS    3  3  3  3  3  3  3  3  3  3  3  3  3  3  3  3  3  3  3  3
CENTRE ASSIGNMENTS    4  4  4  4  4  4  4  4  4  4  4  4  4  4  4  4  4  4  4  4
CENTRE ASSIGNMENTS    4  4  4  4  4  4  4  4  4  4  4  4  4  4  4  4  4  4  4  4
CENTRE ASSIGNMENTS    4  4  4  4  4  4  4  4  4  4  4  4  4  4  4  4  4  4  4  4
CENTRE ASSIGNMENTS    4  4  4  4  4  4  4  4  4  4  4  4  4  4  4  4  4  4  4  4
CENTRE ASSIGNMENTS    4  4  4  4  4  4  4  4  4  4  4  4  4  4  4  4  4  4  4  4
CENTRE ASSIGNMENTS    4  4  4  4  4  4  4  4  4  4  4  4  4  4
TYPE ASSIGNMENTS      1  1  1  1  1  1  1  1  1  1  1  1  1  1  1  1  2  2  2  3
TYPE ASSIGNMENTS      3  3  4  4  4  2  3  4  2  3  4  2  3  4  5  6  7  8  9 10
TYPE ASSIGNMENTS      5  6  7  8  9 10  5  6  7  8  9 10 11 12 13 17 14 15 18 19
TYPE ASSIGNMENTS     16 20 11 12 13 17 14 15 18 19 16 20  1  1  1  1  1  1  1  1
TYPE ASSIGNMENTS      1  1  1  1  1  1  1  1  1  1  1  1  1  1  1  1  1  1  1  1
TYPE ASSIGNMENTS      1  1  1  2  2  2  2  2  2  3  3  3  3  3  3  4  4  4  4  4
TYPE ASSIGNMENTS      4  2  2  2  2  2  2  3  3  3  3  3  3  4  4  4  4  4  4  2
TYPE ASSIGNMENTS      3  4  2  3  4  2  3  4  5  6  7  8  9 10  5  6  7  8  9 10
TYPE ASSIGNMENTS      5  6  7  8  9 10 11 12 13 17 14 15 18 19 16 20 11 12 13 17
TYPE ASSIGNMENTS     14 15 18 19 16 20  1  1  1  1  1  1  1  1  1  1  1  1  1  1
TYPE ASSIGNMENTS      1  1  1  1  1  1  1  1  1  1  1  1  1  1  1  1  1  2  2  2
TYPE ASSIGNMENTS      2  2  2  3  3  3  3  3  3  4  4  4  4  4  4  2  2  2  2  2
TYPE ASSIGNMENTS      2  3  3  3  3  3  3  4  4  4  4  4  4  2  3  4  2  3  4  2
TYPE ASSIGNMENTS      3  4  5  6  7  8  9 10  5  6  7  8  9 10  5  6  7  8  9 10
TYPE ASSIGNMENTS     11 12 13 17 14 15 18 19 16 20 11 12 13 17 14 15 18 19 16 20
TYPE ASSIGNMENTS      1  1  1  1  1  1  1  1  1  1  1  1  1  1  1  1  1  1  1  1
TYPE ASSIGNMENTS      1  1  1  1  1  1  1  1  1  1  1  2  2  2  2  2  2  3  3  3
TYPE ASSIGNMENTS      3  3  3  4  4  4  4  4  4  2  2  2  2  2  2  3  3  3  3  3
TYPE ASSIGNMENTS      3  4  4  4  4  4  4  2  3  4  2  3  4  2  3  4  5  6  7  8
TYPE ASSIGNMENTS      9 10  5  6  7  8  9 10  5  6  7  8  9 10 11 12 13 17 14 15
TYPE ASSIGNMENTS     18 19 16 20 11 12 13 17 14 15 18 19 16 20
EXPONENTS  0.8236000D+04 0.1235000D+04 0.2808000D+03 0.7927000D+02 0.2559000D+02
EXPONENTS  0.8997000D+01 0.3319000D+01 0.2808000D+03 0.7927000D+02 0.2559000D+02
EXPONENTS  0.8997000D+01 0.3319000D+01 0.3643000D+00 0.9059000D+00 0.1285000D+00
EXPONENTS  0.4402000D-01 0.1871000D+02 0.4133000D+01 0.1200000D+01 0.1871000D+02
EXPONENTS  0.4133000D+01 0.1200000D+01 0.1871000D+02 0.4133000D+01 0.1200000D+01
EXPONENTS  0.3827000D+00 0.3827000D+00 0.3827000D+00 0.1209000D+00 0.1209000D+00
EXPONENTS  0.1209000D+00 0.3569000D-01 0.3569000D-01 0.3569000D-01 0.1097000D+01
EXPONENTS  0.1097000D+01 0.1097000D+01 0.1097000D+01 0.1097000D+01 0.1097000D+01
EXPONENTS  0.3180000D+00 0.3180000D+00 0.3180000D+00 0.3180000D+00 0.3180000D+00
EXPONENTS  0.3180000D+00 0.1000000D+00 0.1000000D+00 0.1000000D+00 0.1000000D+00
EXPONENTS  0.1000000D+00 0.1000000D+00 0.7610000D+00 0.7610000D+00 0.7610000D+00
EXPONENTS  0.7610000D+00 0.7610000D+00 0.7610000D+00 0.7610000D+00 0.7610000D+00
EXPONENTS  0.7610000D+00 0.7610000D+00 0.2680000D+00 0.2680000D+00 0.2680000D+00
EXPONENTS  0.2680000D+00 0.2680000D+00 0.2680000D+00 0.2680000D+00 0.2680000D+00
EXPONENTS  0.2680000D+00 0.2680000D+00 0.4561000D+06 0.6833000D+05 0.1555000D+05
EXPONENTS  0.4405000D+04 0.1439000D+04 0.5204000D+03 0.2031000D+03 0.8396000D+02
EXPONENTS  0.3620000D+02 0.1583000D+02 0.6334000D+01 0.4405000D+04 0.1439000D+04
EXPONENTS  0.5204000D+03 0.2031000D+03 0.8396000D+02 0.3620000D+02 0.1583000D+02
EXPONENTS  0.6334000D+01 0.2694000D+01 0.1439000D+04 0.2031000D+03 0.8396000D+02
EXPONENTS  0.3620000D+02 0.1583000D+02 0.6334000D+01 0.2694000D+01 0.4313000D+00
EXPONENTS  0.9768000D+00 0.1625000D+00 0.5910000D-01 0.6633000D+03 0.1568000D+03
EXPONENTS  0.4998000D+02 0.1842000D+02 0.7240000D+01 0.2922000D+01 0.6633000D+03
EXPONENTS  0.1568000D+03 0.4998000D+02 0.1842000D+02 0.7240000D+01 0.2922000D+01
EXPONENTS  0.6633000D+03 0.1568000D+03 0.4998000D+02 0.1842000D+02 0.7240000D+01
EXPONENTS  0.2922000D+01 0.1568000D+03 0.4998000D+02 0.1842000D+02 0.7240000D+01
EXPONENTS  0.2922000D+01 0.3818000D+00 0.1568000D+03 0.4998000D+02 0.1842000D+02
EXPONENTS  0.7240000D+01 0.2922000D+01 0.3818000D+00 0.1568000D+03 0.4998000D+02
EXPONENTS  0.1842000D+02 0.7240000D+01 0.2922000D+01 0.3818000D+00 0.1022000D+01
EXPONENTS  0.1022000D+01 0.1022000D+01 0.1301000D+00 0.1301000D+00 0.1301000D+00
EXPONENTS  0.4190000D-01 0.4190000D-01 0.4190000D-01 0.1046000D+01 0.1046000D+01
EXPONENTS  0.1046000D+01 0.1046000D+01 0.1046000D+01 0.1046000D+01 0.3440000D+00
EXPONENTS  0.3440000D+00 0.3440000D+00 0.3440000D+00 0.3440000D+00 0.3440000D+00
EXPONENTS  0.1350000D+00 0.1350000D+00 0.1350000D+00 0.1350000D+00 0.1350000D+00
EXPONENTS  0.1350000D+00 0.7060000D+00 0.7060000D+00 0.7060000D+00 0.7060000D+00
EXPONENTS  0.7060000D+00 0.7060000D+00 0.7060000D+00 0.7060000D+00 0.7060000D+00
EXPONENTS  0.7060000D+00 0.3120000D+00 0.3120000D+00 0.3120000D+00 0.3120000D+00
EXPONENTS  0.3120000D+00 0.3120000D+00 0.3120000D+00 0.3120000D+00 0.3120000D+00
EXPONENTS  0.3120000D+00 0.4561000D+06 0.6833000D+05 0.1555000D+05 0.4405000D+04
EXPONENTS  0.1439000D+04 0.5204000D+03 0.2031000D+03 0.8396000D+02 0.3620000D+02
EXPONENTS  0.1583000D+02 0.6334000D+01 0.4405000D+04 0.1439000D+04 0.5204000D+03
EXPONENTS  0.2031000D+03 0.8396000D+02 0.3620000D+02 0.1583000D+02 0.6334000D+01
EXPONENTS  0.2694000D+01 0.1439000D+04 0.2031000D+03 0.8396000D+02 0.3620000D+02
EXPONENTS  0.1583000D+02 0.6334000D+01 0.2694000D+01 0.4313000D+00 0.9768000D+00
EXPONENTS  0.1625000D+00 0.5910000D-01 0.6633000D+03 0.1568000D+03 0.4998000D+02
EXPONENTS  0.1842000D+02 0.7240000D+01 0.2922000D+01 0.6633000D+03 0.1568000D+03
EXPONENTS  0.4998000D+02 0.1842000D+02 0.7240000D+01 0.2922000D+01 0.6633000D+03
EXPONENTS  0.1568000D+03 0.4998000D+02 0.1842000D+02 0.7240000D+01 0.2922000D+01
EXPONENTS  0.1568000D+03 0.4998000D+02 0.1842000D+02 0.7240000D+01 0.2922000D+01
EXPONENTS  0.3818000D+00 0.1568000D+03 0.4998000D+02 0.1842000D+02 0.7240000D+01
EXPONENTS  0.2922000D+01 0.3818000D+00 0.1568000D+03 0.4998000D+02 0.1842000D+02
EXPONENTS  0.7240000D+01 0.2922000D+01 0.3818000D+00 0.1022000D+01 0.1022000D+01
EXPONENTS  0.1022000D+01 0.1301000D+00 0.1301000D+00 0.1301000D+00 0.4190000D-01
EXPONENTS  0.4190000D-01 0.4190000D-01 0.1046000D+01 0.1046000D+01 0.1046000D+01
EXPONENTS  0.1046000D+01 0.1046000D+01 0.1046000D+01 0.3440000D+00 0.3440000D+00
EXPONENTS  0.3440000D+00 0.3440000D+00 0.3440000D+00 0.3440000D+00 0.1350000D+00
EXPONENTS  0.1350000D+00 0.1350000D+00 0.1350000D+00 0.1350000D+00 0.1350000D+00
EXPONENTS  0.7060000D+00 0.7060000D+00 0.7060000D+00 0.7060000D+00 0.7060000D+00
EXPONENTS  0.7060000D+00 0.7060000D+00 0.7060000D+00 0.7060000D+00 0.7060000D+00
EXPONENTS  0.3120000D+00 0.3120000D+00 0.3120000D+00 0.3120000D+00 0.3120000D+00
EXPONENTS  0.3120000D+00 0.3120000D+00 0.3120000D+00 0.3120000D+00 0.3120000D+00
EXPONENTS  0.3741000D+06 0.5605000D+05 0.1276000D+05 0.3615000D+04 0.1183000D+04
EXPONENTS  0.4288000D+03 0.1678000D+03 0.6947000D+02 0.2984000D+02 0.1272000D+02
EXPONENTS  0.5244000D+01 0.3615000D+04 0.1183000D+04 0.4288000D+03 0.1678000D+03
EXPONENTS  0.6947000D+02 0.2984000D+02 0.1272000D+02 0.5244000D+01 0.2219000D+01
EXPONENTS  0.1183000D+04 0.1678000D+03 0.6947000D+02 0.2984000D+02 0.1272000D+02
EXPONENTS  0.5244000D+01 0.2219000D+01 0.3490000D+00 0.7767000D+00 0.1322000D+00
EXPONENTS  0.4970000D-01 0.5744000D+03 0.1358000D+03 0.4319000D+02 0.1587000D+02
EXPONENTS  0.6208000D+01 0.2483000D+01 0.5744000D+03 0.1358000D+03 0.4319000D+02
EXPONENTS  0.1587000D+02 0.6208000D+01 0.2483000D+01 0.5744000D+03 0.1358000D+03
EXPONENTS  0.4319000D+02 0.1587000D+02 0.6208000D+01 0.2483000D+01 0.1358000D+03
EXPONENTS  0.4319000D+02 0.1587000D+02 0.6208000D+01 0.2483000D+01 0.3229000D+00
EXPONENTS  0.1358000D+03 0.4319000D+02 0.1587000D+02 0.6208000D+01 0.2483000D+01
EXPONENTS  0.3229000D+00 0.1358000D+03 0.4319000D+02 0.1587000D+02 0.6208000D+01
EXPONENTS  0.2483000D+01 0.3229000D+00 0.8688000D+00 0.8688000D+00 0.8688000D+00
EXPONENTS  0.1098000D+00 0.1098000D+00 0.1098000D+00 0.3510000D-01 0.3510000D-01
EXPONENTS  0.3510000D-01 0.2690000D+00 0.2690000D+00 0.2690000D+00 0.2690000D+00
EXPONENTS  0.2690000D+00 0.2690000D+00 0.8190000D+00 0.8190000D+00 0.8190000D+00
EXPONENTS  0.8190000D+00 0.8190000D+00 0.8190000D+00 0.1010000D+00 0.1010000D+00
EXPONENTS  0.1010000D+00 0.1010000D+00 0.1010000D+00 0.1010000D+00 0.5570000D+00
EXPONENTS  0.5570000D+00 0.5570000D+00 0.5570000D+00 0.5570000D+00 0.5570000D+00
EXPONENTS  0.5570000D+00 0.5570000D+00 0.5570000D+00 0.5570000D+00 0.2180000D+00
EXPONENTS  0.2180000D+00 0.2180000D+00 0.2180000D+00 0.2180000D+00 0.2180000D+00
EXPONENTS  0.2180000D+00 0.2180000D+00 0.2180000D+00 0.2180000D+00
MO    1     MO 0.0        OCC NO =    2.0000385  ORB. ENERGY =    0.000000
 -0.11114882D-04 -0.20720380D-04 -0.35020265D-04 -0.52641990D-04 -0.64661257D-04
 -0.54571819D-04 -0.20520429D-04 -0.47135973D-07 -0.35231219D-06 -0.13166711D-05
 -0.36733074D-05 -0.49212192D-05  0.58110422D-05  0.14704501D-05 -0.15624359D-04
 -0.16607711D-05 -0.48230003D-12 -0.45218693D-12 -0.32198403D-12  0.75182672D-03
  0.70488533D-03  0.50192035D-03  0.49472845D-04  0.46383937D-04  0.33028127D-04
 -0.97790896D-13  0.20048685D-03  0.32146506D-04  0.18399128D-13  0.30859126D-03
 -0.21896864D-04  0.40785005D-14 -0.10520561D-04 -0.17672083D-05 -0.28577595D-05
  0.37916326D-04 -0.35058566D-04 -0.52671087D-13  0.95834028D-13  0.25999437D-03
  0.27563713D-05 -0.13760296D-04  0.11003924D-04  0.44606938D-14  0.12514379D-13
  0.28757884D-03  0.16135147D-06  0.66852041D-05 -0.68465556D-05 -0.63753115D-14
  0.21335852D-13  0.18865400D-03  0.11431455D-13  0.24683222D-03  0.57509717D-05
 -0.18816261D-13  0.25440545D-04 -0.10958627D-04 -0.15478104D-13 -0.76593721D-03
 -0.62942884D-05  0.21890289D-13 -0.48797798D-14 -0.29891685D-03 -0.44648124D-05
  0.10727400D-13 -0.21416476D-04  0.46602904D-05  0.39119394D-14  0.91816703D-03
  0.87341468D-05 -0.17486301D-13 -0.14866219D-02 -0.27813110D-02 -0.48054885D-02
 -0.77902614D-02 -0.11830260D-01 -0.16442948D-01 -0.19549405D-01 -0.17415289D-01
 -0.86488008D-02 -0.13923838D-02 -0.14690471D-04 -0.73031392D-05 -0.24362050D-03
 -0.84896866D-03 -0.30572736D-02 -0.67393792D-02 -0.94868708D-02  0.45255466D-03
  0.12415218D-01  0.73410406D-02  0.22785471D-06  0.27598770D-05  0.57554325D-05
  0.16505578D-04  0.85711171D-06 -0.71180059D-04 -0.18391560D-03  0.14984578D-03
  0.40361445D-03 -0.22951205D-03 -0.11493194D-03  0.68987466D-09  0.90872631D-09
  0.10024674D-08  0.83262764D-09  0.44214838D-09  0.11407659D-09 -0.46493361D+01
 -0.61242633D+01 -0.67560211D+01 -0.56114045D+01 -0.29798115D+01 -0.76880694D+00
  0.63303216D+01  0.83385144D+01  0.91986866D+01  0.76402295D+01  0.40571739D+01
  0.10467721D+01 -0.25397844D-13  0.24553002D-12  0.34622295D-12  0.49519041D-12
 -0.25075745D-14 -0.45413631D-12  0.24197581D-03 -0.23392664D-02 -0.32986098D-02
 -0.47178847D-02  0.23890704D-04  0.43267452D-02 -0.31557824D-03  0.30508074D-02
  0.43019569D-02  0.61529363D-02 -0.31157604D-04 -0.56428229D-02  0.46030172D-11
 -0.29902141D-01  0.40863483D-01 -0.23149010D-13  0.33101633D-03 -0.49956003D-03
 -0.26152509D-14  0.90266075D-05 -0.19050393D-04  0.60222138D-05 -0.78325849D-03
  0.77723627D-03  0.29669299D-13  0.39065957D-13  0.72498397D-03  0.41384163D-04
  0.45828928D-03 -0.49967344D-03 -0.32420287D-13 -0.13729937D-13 -0.33419194D-03
 -0.21983503D-05 -0.37807238D-06  0.25764227D-05  0.36040729D-14 -0.39557726D-14
  0.26362835D-05 -0.20189117D-14 -0.21584879D-04 -0.95236769D-05 -0.12981057D-13
  0.47888886D-04  0.37815401D-04  0.19037792D-13  0.16865752D-04 -0.92443704D-05
  0.14424781D-13  0.29926290D-14  0.81716362D-04 -0.39519008D-04 -0.11948275D-14
 -0.78087976D-05  0.41467348D-04 -0.77830596D-14 -0.23734029D-03  0.77089677D-04
 -0.99618239D-14  0.13547118D-02  0.25345212D-02  0.43790904D-02  0.70990201D-02
  0.10780543D-01  0.14983941D-01  0.17814758D-01  0.15870005D-01  0.78813801D-02
  0.12688355D-02  0.13386964D-04  0.66552153D-05  0.22200684D-03  0.77364940D-03
  0.27860368D-02  0.61414713D-02  0.86452094D-02 -0.41240467D-03 -0.11313758D-01
 -0.66897542D-02 -0.21714467D-06 -0.26301522D-05 -0.54849051D-05 -0.15729753D-04
 -0.81682417D-06  0.67834323D-04  0.17527086D-03 -0.14280245D-03 -0.37810933D-03
  0.20545882D-03  0.10181986D-03  0.14218621D-08  0.18729249D-08  0.20661294D-08
  0.17160822D-08  0.91128729D-09  0.23511688D-09 -0.49969951D+01 -0.65822115D+01
 -0.72612097D+01 -0.60310032D+01 -0.32026300D+01 -0.82629529D+00 -0.68868764D+01
 -0.90716273D+01 -0.10007425D+02 -0.83119499D+01 -0.44138761D+01 -0.11388031D+01
 -0.57437326D-13  0.55526711D-12  0.78298459D-12  0.11198751D-11 -0.56708898D-14
 -0.10270311D-11  0.25750686D-03 -0.24894106D-02 -0.35103288D-02 -0.50206989D-02
  0.25424112D-04  0.46044544D-02  0.34315695D-03 -0.33174206D-02 -0.46779093D-02
 -0.66906478D-02  0.33880499D-04  0.61359551D-02  0.94080367D-11 -0.32148656D-01
 -0.44475738D-01 -0.50575241D-13  0.34307595D-03  0.51264982D-03 -0.37072462D-14
  0.98696570D-05  0.19979596D-04 -0.45089470D-05  0.82537049D-03 -0.82086154D-03
 -0.12298588D-12  0.87891558D-13  0.75755988D-03 -0.41682995D-04 -0.48719447D-03
  0.52887747D-03  0.78504011D-13 -0.44398437D-13 -0.37092200D-03  0.17592471D-05
  0.40743065D-05 -0.58335536D-05 -0.83673760D-14  0.18936948D-14  0.43234603D-05
  0.59463908D-15 -0.18392291D-04  0.97896631D-05 -0.73362395D-14  0.43543447D-04
 -0.36868573D-04  0.55523222D-14  0.11633427D-04  0.74995836D-05 -0.64823417D-14
  0.43082726D-14  0.85784026D-04  0.39367747D-04 -0.91709943D-14 -0.86100917D-05
 -0.45317421D-04 -0.37538234D-14 -0.24874199D-03 -0.72785821D-04  0.20854457D-13
  0.56398986D-05  0.10544358D-04  0.18223786D-04  0.29476222D-04  0.44552323D-04
  0.61357773D-04  0.71719765D-04  0.61985070D-04  0.28928755D-04  0.39192116D-05
 -0.28665678D-07  0.70131671D-07  0.90153557D-06  0.32886722D-05  0.11095898D-04
  0.24371572D-04  0.31481423D-04 -0.50593325D-05 -0.42441786D-04 -0.23291505D-04
  0.10694671D-07  0.12181896D-06  0.25294007D-06  0.69552095D-06 -0.90182278D-07
 -0.31448290D-05 -0.78437029D-05  0.64929037D-05  0.54754899D-05  0.42291104D-04
  0.84831649D-05 -0.66188961D-10 -0.86836152D-10 -0.95240466D-10 -0.78360986D-10
 -0.41307456D-10 -0.10747423D-10  0.85167822D+00  0.11173534D+01  0.12254948D+01
  0.10083002D+01  0.53151856D+00  0.13829113D+00 -0.24936242D-01 -0.32714931D-01
 -0.35881199D-01 -0.29521970D-01 -0.15562304D-01 -0.40490187D-02 -0.16395967D-14
 -0.58854359D-13 -0.93373916D-13 -0.11087866D-12 -0.16778864D-13  0.12211343D-12
  0.22827860D-04  0.81942044D-03  0.13000311D-02  0.15437470D-02  0.23360961D-03
 -0.17001670D-02 -0.29163539D-06 -0.10468436D-04 -0.16608437D-04 -0.19722009D-04
 -0.29844598D-05  0.21720339D-04 -0.39475431D-12  0.59886912D-02 -0.17418034D-03
 -0.25624497D-13 -0.52325002D-03 -0.12824251D-05 -0.13870406D-14 -0.67400891D-05
  0.95099808D-07  0.23069962D-05  0.28400565D-05 -0.51470527D-05  0.55814918D-14
  0.13430130D-13  0.68947354D-03 -0.39457336D-05  0.44493039D-05 -0.50357031D-06
 -0.11362284D-13  0.87910724D-14 -0.10657755D-03  0.65233559D-06 -0.31158131D-06
 -0.34075428D-06  0.16972245D-14  0.11797459D-13  0.76499031D-04 -0.10477202D-14
  0.63117527D-04  0.21839592D-05 -0.25111397D-14  0.23650376D-04  0.13137541D-05
  0.56543004D-14 -0.21300296D-03 -0.78656316D-05  0.44936960D-14  0.22961591D-14
  0.27113302D-04  0.56661396D-06 -0.62055476D-15  0.19799035D-05 -0.13695544D-05
 -0.62679226D-14 -0.83319811D-04 -0.33028752D-06 -0.52519221D-14
MO    2     MO 0.0        OCC NO =    2.0000375  ORB. ENERGY =    0.000000
 -0.54707854D-03 -0.10198646D-02 -0.17237101D-02 -0.25910578D-02 -0.31826505D-02
 -0.26860447D-02 -0.10100230D-02 -0.10817802D-05 -0.80856371D-05 -0.30217872D-04
 -0.84303158D-04 -0.11294299D-03  0.13336461D-03  0.19493616D-04 -0.44266359D-03
 -0.64817482D-04  0.11547878D-12  0.10826870D-12  0.77093761D-13 -0.60300579D-05
 -0.56535626D-05 -0.40256734D-05  0.80658297D-03  0.75622281D-03  0.53847569D-03
  0.37780101D-13 -0.92731531D-05  0.56127073D-03  0.36431826D-14 -0.77246810D-05
 -0.50379183D-03 -0.25979190D-14  0.55938892D-06 -0.46179565D-04 -0.62826978D-04
  0.70748330D-03 -0.64465632D-03  0.17117617D-12 -0.14168009D-12 -0.13695652D-04
  0.62646683D-04 -0.10572930D-03  0.43082614D-04 -0.11952375D-13  0.47623079D-13
 -0.11059071D-04  0.47132785D-05  0.16243523D-03 -0.16714851D-03  0.18238331D-13
 -0.89749376D-14 -0.97890786D-05 -0.26730259D-15 -0.83245395D-05  0.96617621D-04
  0.15266922D-13 -0.10256994D-05 -0.18451334D-03 -0.14465014D-13  0.25999318D-04
 -0.10533953D-03 -0.61930984D-13 -0.79219236D-15  0.10590752D-04 -0.72138288D-04
 -0.14563697D-13  0.35013350D-06  0.96080537D-04  0.16940274D-13 -0.32122390D-04
  0.12033433D-03  0.48543245D-13 -0.72045960D-03 -0.13479030D-02 -0.23288775D-02
 -0.37753840D-02 -0.57332829D-02 -0.79687238D-02 -0.94742020D-02 -0.84399484D-02
 -0.41914568D-02 -0.67478909D-03 -0.71194235D-05 -0.37638326D-05 -0.12555515D-03
 -0.43753458D-03 -0.15756329D-02 -0.34732865D-02 -0.48892664D-02  0.23323394D-03
  0.63984542D-02  0.37833659D-02  0.27987151D-06  0.33899275D-05  0.70693364D-05
  0.20273626D-04  0.10527812D-05 -0.87429708D-04 -0.22590157D-03  0.18405397D-03
  0.11497318D-03 -0.33865455D-03 -0.16673540D-03  0.57903293D-09  0.76272183D-09
  0.84140157D-09  0.69884988D-09  0.37110868D-09  0.95747979D-10  0.43452961D+01
  0.57237714D+01  0.63142159D+01  0.52444507D+01  0.27849488D+01  0.71853136D+00
 -0.73344285D+01 -0.96611582D+01 -0.10657770D+02 -0.88521123D+01 -0.47007172D+01
 -0.12128096D+01 -0.26501463D-13  0.25619909D-12  0.36126746D-12  0.51670804D-12
 -0.26165368D-14 -0.47387000D-12 -0.18986019D-03  0.18354462D-02  0.25881707D-02
  0.37017688D-02 -0.18745236D-04 -0.33948711D-02  0.34402960D-03 -0.33258568D-02
 -0.46898052D-02 -0.67076621D-02  0.33966657D-04  0.61515588D-02  0.37771650D-11
  0.28054672D-01 -0.47439319D-01 -0.22717710D-13 -0.15772463D-03  0.15634893D-03
 -0.58164022D-16 -0.11277828D-04  0.14313917D-04  0.13782378D-04  0.50260989D-03
 -0.51639227D-03  0.84331585D-13  0.19887534D-13 -0.48295431D-03  0.22220135D-04
 -0.29489331D-03  0.27267318D-03 -0.34219542D-13 -0.22416804D-13  0.41887229D-03
 -0.23012967D-05  0.47064958D-04 -0.44763661D-04  0.24043638D-14  0.77398931D-14
 -0.29017307D-04  0.37380374D-14 -0.26484398D-04  0.15422408D-05  0.12824826D-13
  0.52792631D-04  0.29329029D-04 -0.24038938D-13  0.26660562D-04 -0.33955751D-04
 -0.15054231D-13 -0.10834770D-15 -0.49142758D-04 -0.10343128D-04 -0.94315784D-14
  0.18985191D-04 -0.42659395D-04  0.97566215D-14  0.12844308D-03  0.73688779D-04
 -0.32134135D-14 -0.96229503D-03 -0.18003513D-02 -0.31106077D-02 -0.50426606D-02
 -0.76577641D-02 -0.10643572D-01 -0.12654391D-01 -0.11272971D-01 -0.55983959D-02
 -0.90129438D-03 -0.95091880D-05 -0.49198462D-05 -0.16411783D-03 -0.57191780D-03
 -0.20595686D-02 -0.45400626D-02 -0.63909429D-02  0.30486881D-03  0.83636587D-02
  0.49453790D-02  0.28221688D-06  0.34183356D-05  0.71285784D-05  0.20443522D-04
  0.10616036D-05 -0.88162381D-04 -0.22779466D-03  0.18559637D-03  0.18287055D-03
 -0.36975456D-03 -0.17855451D-03 -0.18984949D-08 -0.25007619D-08 -0.27587318D-08
 -0.22913428D-08 -0.12167666D-08 -0.31393214D-09 -0.39702357D+01 -0.52297292D+01
 -0.57692100D+01 -0.47917806D+01 -0.25445685D+01 -0.65651196D+00 -0.67941157D+01
 -0.89494398D+01 -0.98726330D+01 -0.81999947D+01 -0.43544247D+01 -0.11234643D+01
  0.81402453D-13 -0.78694654D-12 -0.11096768D-11 -0.15871313D-11  0.80370096D-14
  0.14555491D-11  0.17122309D-03 -0.16552747D-02 -0.23341101D-02 -0.33383949D-02
  0.16905162D-04  0.30616230D-02  0.31793674D-03 -0.30736079D-02 -0.43341079D-02
 -0.61989209D-02  0.31390463D-04  0.56849951D-02 -0.12453405D-10 -0.25643236D-01
 -0.43959321D-01  0.79573469D-13  0.13156726D-03  0.11492067D-03  0.45187569D-14
  0.10459814D-04  0.12525402D-04  0.14667747D-04  0.44409454D-03 -0.45876228D-03
  0.20651660D-12 -0.14704868D-12  0.41954843D-03  0.25283549D-04 -0.26372000D-03
  0.23843645D-03 -0.10470091D-12  0.73498950D-13 -0.39471376D-03 -0.28402821D-05
  0.46910001D-04 -0.44069719D-04  0.10321526D-13 -0.86854507D-14  0.27327506D-04
 -0.35947374D-14  0.28698029D-04  0.78666318D-06 -0.18842565D-15 -0.57853656D-04
  0.32831205D-04  0.10972638D-13 -0.28240432D-04 -0.35191195D-04  0.47944675D-14
 -0.47577868D-14  0.43577446D-04 -0.12973490D-04  0.14770071D-13 -0.18008736D-04
 -0.40209859D-04 -0.49671036D-15 -0.11272360D-03  0.79130329D-04 -0.34156143D-13
  0.51648323D-03  0.96561742D-03  0.16688739D-02  0.26993348D-02  0.40799542D-02
  0.56189416D-02  0.65678585D-02  0.56763874D-02  0.26491996D-02  0.35890841D-03
 -0.26251078D-05  0.65274524D-05  0.83909744D-04  0.30609069D-03  0.10327424D-02
  0.22683657D-02  0.29301097D-02 -0.47089356D-03 -0.39502373D-02 -0.21678393D-02
  0.22296173D-06  0.25396727D-05  0.52732760D-05  0.14500170D-04 -0.18801135D-05
 -0.65563164D-04 -0.16352494D-03  0.13536358D-03 -0.31141860D-04  0.11720794D-02
  0.26148410D-03  0.59389167D-09  0.77915210D-09  0.85456122D-09  0.70310723D-09
  0.37063815D-09  0.96433076D-10 -0.15702238D-01 -0.20600444D-01 -0.22594228D-01
 -0.18589851D-01 -0.97995122D-02 -0.25496487D-02 -0.57126235D+00 -0.74946372D+00
 -0.82199950D+00 -0.67631643D+00 -0.35651557D+00 -0.92758644D-01  0.42096468D-14
  0.15110793D-12  0.23973652D-12  0.28467976D-12  0.43079551D-13 -0.31352490D-12
 -0.65791324D-06 -0.23616211D-04 -0.37467711D-04 -0.44491757D-04 -0.67327756D-05
  0.48999879D-04 -0.44881927D-05 -0.16110651D-03 -0.25559952D-03 -0.30351659D-03
 -0.45930060D-04  0.33427037D-03  0.44763066D-11 -0.11527842D-03 -0.39129158D-02
  0.30797956D-14  0.20525482D-04 -0.12035821D-03 -0.18663825D-15  0.23539674D-06
 -0.20453833D-06  0.18499814D-04  0.44619879D-04 -0.63119694D-04 -0.13007282D-13
  0.44106922D-13 -0.23965269D-04 -0.91357092D-04  0.91948795D-04 -0.59170287D-06
  0.30121876D-13 -0.36275669D-13  0.21343022D-05  0.10088168D-04 -0.90272991D-05
 -0.10608689D-05 -0.48795038D-14 -0.42596798D-14 -0.31393895D-05  0.76431660D-14
 -0.24770289D-05  0.31898318D-04 -0.37145486D-15 -0.12165189D-05  0.46298146D-04
 -0.22558043D-13  0.86476056D-05 -0.14199310D-03 -0.13153967D-13  0.58380159D-16
 -0.93727283D-06  0.96182699D-05  0.34589369D-14  0.12769062D-06 -0.19296508D-04
 -0.36340773D-14  0.26841279D-05 -0.95583014D-05  0.13887812D-13
MO    3     MO 0.0        OCC NO =    2.0000330  ORB. ENERGY =    0.000000
  0.13344313D-10  0.24876488D-10  0.42044653D-10  0.63200956D-10  0.77631054D-10
  0.65517871D-10  0.24636430D-10  0.84896396D-15  0.63454796D-14  0.23714506D-13
  0.66159780D-13  0.88635865D-13 -0.10466243D-12  0.12075870D-11 -0.56926298D-12
 -0.19244617D-13  0.30577008D-04  0.28667888D-04  0.20413244D-04  0.76918087D-12
  0.72115595D-12  0.51350600D-12 -0.29970211D-12 -0.28098978D-12 -0.20008146D-12
  0.25223978D-05  0.27804430D-12 -0.52898189D-13  0.99003964D-07 -0.24539761D-12
  0.68005175D-13  0.11288729D-06 -0.17982325D-13  0.98434531D-14 -0.43822943D-13
 -0.88412418D-13  0.13223536D-12  0.11660827D-02 -0.69741376D-05  0.35423031D-12
  0.89648886D-13 -0.33797195D-13 -0.55851691D-13 -0.98885258D-04  0.40475289D-05
 -0.11389501D-12  0.76681247D-14 -0.25966589D-13  0.18298464D-13  0.11664678D-03
 -0.26114934D-06  0.63503622D-13 -0.81966262D-06 -0.14477131D-13 -0.17587295D-13
  0.63004720D-06 -0.10134960D-12  0.44221104D-14  0.18289407D-05  0.14478100D-12
  0.48339773D-13 -0.45853862D-03  0.41698426D-06  0.10396312D-13 -0.98670378D-15
 -0.31475558D-06  0.31102762D-13 -0.20635162D-13 -0.93619721D-06 -0.62291698D-13
  0.23595273D-13  0.34373225D-03 -0.19500868D-10 -0.36484043D-10 -0.63036334D-10
 -0.10218930D-09 -0.15518426D-09 -0.21569153D-09 -0.25644070D-09 -0.22844628D-09
 -0.11345126D-09 -0.18264692D-10 -0.19270329D-12 -0.10735194D-12 -0.35810809D-11
 -0.12479350D-10 -0.44940160D-10 -0.99064989D-10 -0.13945153D-09  0.66522926D-11
  0.18249655D-09  0.10790907D-09 -0.24823213D-14 -0.30066973D-13 -0.62701503D-13
 -0.17981699D-12 -0.93376461D-14  0.77545808D-12  0.20036348D-11 -0.16324673D-11
  0.67446593D-11 -0.16870361D-12 -0.10440793D-12  0.82339132D+01  0.10845990D+02
  0.11964825D+02  0.99377237D+01  0.52772070D+01  0.13615470D+01 -0.19279358D-08
 -0.25395424D-08 -0.28015128D-08 -0.23268757D-08 -0.12356356D-08 -0.31880044D-09
  0.87860864D-09  0.11573331D-08  0.12767196D-08  0.10604156D-08  0.56311010D-09
  0.14528535D-09 -0.35912812D-03  0.34718196D-02  0.48956280D-02  0.70020431D-02
 -0.35457361D-04 -0.64215340D-02  0.82801154D-13 -0.80046828D-12 -0.11287438D-11
 -0.16144023D-11  0.81751059D-14  0.14805592D-11 -0.38627559D-13  0.37342639D-12
  0.52657019D-12  0.75313466D-12 -0.38137679D-14 -0.69069552D-12  0.53896957D-01
 -0.13088544D-10  0.52845458D-11 -0.35634001D-03  0.63324112D-13 -0.19756158D-13
 -0.15141580D-04  0.14655783D-15 -0.63995284D-14  0.35318301D-13 -0.97965801D-13
  0.62647500D-13  0.98929151D-03  0.55844144D-03  0.61433349D-13 -0.32716513D-13
  0.97316479D-13 -0.64599966D-13 -0.47176914D-03 -0.32126122D-03  0.67328151D-13
 -0.51981776D-14 -0.16315227D-14  0.68297003D-14  0.39112086D-04  0.51766517D-04
  0.95746826D-14  0.20450142D-04  0.28660326D-15 -0.56852252D-14  0.44755821D-04
  0.10896693D-13  0.14009239D-13 -0.10610625D-03 -0.11756502D-13  0.30464362D-14
 -0.15374631D-04  0.17014037D-04  0.12288284D-13 -0.10078984D-13 -0.85157346D-04
 -0.27852453D-13 -0.57587444D-14  0.34115235D-04 -0.90123983D-14  0.35995697D-13
 -0.13407676D-03 -0.56882399D-11 -0.10642090D-10 -0.18387171D-10 -0.29807764D-10
 -0.45265950D-10 -0.62915412D-10 -0.74801604D-10 -0.66635868D-10 -0.33092781D-10
 -0.53276578D-11 -0.56209936D-13  0.22057451D-13  0.73579966D-12  0.25641145D-11
  0.92337915D-11  0.20354744D-10  0.28652910D-10 -0.13668372D-11 -0.37497309D-10
 -0.22171924D-10  0.19174657D-15  0.23225192D-14  0.48433690D-14  0.13889939D-13
  0.72128520D-15 -0.59900154D-13 -0.15477049D-12  0.12609971D-12 -0.13870997D-11
  0.53444273D-12  0.21263946D-12 -0.81933292D+01 -0.10792531D+02 -0.11905851D+02
 -0.98887417D+01 -0.52511963D+01 -0.13548361D+01  0.22126503D-09  0.29145781D-09
  0.32152359D-09  0.26705052D-09  0.14181123D-09  0.36588040D-10  0.60360955D-09
  0.79509498D-09  0.87711423D-09  0.72851204D-09  0.38686011D-09  0.99811930D-10
  0.35798594D-03 -0.34607777D-02 -0.48800578D-02 -0.69797736D-02  0.35344591D-04
  0.64011107D-02 -0.67432924D-14  0.65189812D-13  0.91924440D-13  0.13147627D-12
 -0.66577731D-15 -0.12057614D-12 -0.33561457D-13  0.32445057D-12  0.45750918D-12
  0.65435915D-12 -0.33135826D-14 -0.60010906D-12 -0.53654539D-01  0.17589254D-11
  0.36573240D-11  0.35174983D-03 -0.11378629D-12  0.67116099D-13  0.14789326D-04
 -0.44326704D-14  0.15792935D-14 -0.26411126D-13 -0.51868650D-13  0.78279776D-13
  0.98778451D-03 -0.55964918D-03 -0.55189934D-13 -0.33280600D-13  0.44257108D-13
 -0.10976508D-13 -0.47647222D-03  0.32672655D-03  0.19297398D-14 -0.34332384D-14
 -0.32114747D-14  0.66447130D-14  0.39189098D-04 -0.52107901D-04 -0.20963602D-13
 -0.21445937D-04 -0.12939817D-13  0.10759751D-13 -0.42706832D-04  0.52728807D-13
 -0.41126355D-13  0.10704464D-03 -0.13909355D-13  0.88471008D-14 -0.18034373D-04
 -0.17014911D-04 -0.19755443D-14  0.44129733D-14  0.85004645D-04 -0.72815660D-14
  0.83095951D-14 -0.33959912D-04  0.13208199D-13 -0.21548515D-13 -0.13577387D-03
 -0.83845293D-11 -0.15675722D-10 -0.27092307D-10 -0.43820690D-10 -0.66233506D-10
 -0.91217251D-10 -0.10662186D-09 -0.92149819D-10 -0.43006801D-10 -0.58264778D-11
  0.42615698D-13 -0.16812096D-12 -0.21611781D-11 -0.78836670D-11 -0.26599297D-10
 -0.58423991D-10 -0.75467861D-10  0.12128327D-10  0.10174225D-09  0.55834835D-10
 -0.13590300D-14 -0.15480197D-13 -0.32142469D-13 -0.88383627D-13  0.11459952D-13
  0.39963051D-12  0.99674196D-12 -0.82508856D-12  0.30924494D-11  0.11958063D-13
 -0.40381825D-13  0.96547524D-03  0.12666486D-02  0.13892394D-02  0.11430243D-02
  0.60253744D-03  0.15676891D-03 -0.28470341D-08 -0.37351469D-08 -0.40966478D-08
 -0.33705984D-08 -0.17767878D-08 -0.46228677D-09  0.76356184D-09  0.10017497D-08
  0.10987026D-08  0.90397942D-09  0.47652655D-09  0.12398325D-09  0.18073550D-07
  0.64876148D-06  0.10292764D-05  0.12222341D-05  0.18495623D-06 -0.13460768D-05
 -0.25548764D-13 -0.91708901D-12 -0.14549847D-11 -0.17277497D-11 -0.26145407D-12