 cl2cs-wavefunction
GAUSSIAN            196 MOL ORBITALS    414 PRIMITIVES        4 NUCLEI
  C    1    (CENTRE  1)   0.00000000  0.00000000 -0.98816425  CHARGE =  6.0
  Cl   2    (CENTRE  2)   0.00000000 -2.70369732 -2.83628995  CHARGE = 17.0
  Cl   3    (CENTRE  3)   0.00000000  2.70369732 -2.83628995  CHARGE = 17.0
  S    4    (CENTRE  4)   0.00000000  0.00000000  2.02543682  CHARGE = 16.0
CENTRE ASSIGNMENTS    1  1  1  1  1  1  1  1  1  1  1  1  1  1  1  1  1  1  1  1
CENTRE ASSIGNMENTS    1  1  1  1  1  1  1  1  1  1  1  1  1  1  1  1  1  1  1  1
CENTRE ASSIGNMENTS    1  1  1  1  1  1  1  1  1  1  1  1  1  1  1  1  1  1  1  1
CENTRE ASSIGNMENTS    1  1  1  1  1  1  1  1  1  1  1  1  2  2  2  2  2  2  2  2
CENTRE ASSIGNMENTS    2  2  2  2  2  2  2  2  2  2  2  2  2  2  2  2  2  2  2  2
CENTRE ASSIGNMENTS    2  2  2  2  2  2  2  2  2  2  2  2  2  2  2  2  2  2  2  2
CENTRE ASSIGNMENTS    2  2  2  2  2  2  2  2  2  2  2  2  2  2  2  2  2  2  2  2
CENTRE ASSIGNMENTS    2  2  2  2  2  2  2  2  2  2  2  2  2  2  2  2  2  2  2  2
CENTRE ASSIGNMENTS    2  2  2  2  2  2  2  2  2  2  2  2  2  2  2  2  2  2  2  2
CENTRE ASSIGNMENTS    2  2  2  2  2  2  3  3  3  3  3  3  3  3  3  3  3  3  3  3
CENTRE ASSIGNMENTS    3  3  3  3  3  3  3  3  3  3  3  3  3  3  3  3  3  3  3  3
CENTRE ASSIGNMENTS    3  3  3  3  3  3  3  3  3  3  3  3  3  3  3  3  3  3  3  3
CENTRE ASSIGNMENTS    3  3  3  3  3  3  3  3  3  3  3  3  3  3  3  3  3  3  3  3
CENTRE ASSIGNMENTS    3  3  3  3  3  3  3  3  3  3  3  3  3  3  3  3  3  3  3  3
CENTRE ASSIGNMENTS    3  3  3  3  3  3  3  3  3  3  3  3  3  3  3  3  3  3  3  3
CENTRE ASSIGNMENTS    4  4  4  4  4  4  4  4  4  4  4  4  4  4  4  4  4  4  4  4
CENTRE ASSIGNMENTS    4  4  4  4  4  4  4  4  4  4  4  4  4  4  4  4  4  4  4  4
CENTRE ASSIGNMENTS    4  4  4  4  4  4  4  4  4  4  4  4  4  4  4  4  4  4  4  4
CENTRE ASSIGNMENTS    4  4  4  4  4  4  4  4  4  4  4  4  4  4  4  4  4  4  4  4
CENTRE ASSIGNMENTS    4  4  4  4  4  4  4  4  4  4  4  4  4  4  4  4  4  4  4  4
CENTRE ASSIGNMENTS    4  4  4  4  4  4  4  4  4  4  4  4  4  4
TYPE ASSIGNMENTS      1  1  1  1  1  1  1  1  1  1  1  1  1  1  1  1  2  2  2  3
TYPE ASSIGNMENTS      3  3  4  4  4  2  3  4  2  3  4  2  3  4  5  6  7  8  9 10
TYPE ASSIGNMENTS      5  6  7  8  9 10  5  6  7  8  9 10 11 12 13 17 14 15 18 19
TYPE ASSIGNMENTS     16 20 11 12 13 17 14 15 18 19 16 20  1  1  1  1  1  1  1  1
TYPE ASSIGNMENTS      1  1  1  1  1  1  1  1  1  1  1  1  1  1  1  1  1  1  1  1
TYPE ASSIGNMENTS      1  1  1  2  2  2  2  2  2  3  3  3  3  3  3  4  4  4  4  4
TYPE ASSIGNMENTS      4  2  2  2  2  2  2  3  3  3  3  3  3  4  4  4  4  4  4  2
TYPE ASSIGNMENTS      3  4  2  3  4  2  3  4  5  6  7  8  9 10  5  6  7  8  9 10
TYPE ASSIGNMENTS      5  6  7  8  9 10 11 12 13 17 14 15 18 19 16 20 11 12 13 17
TYPE ASSIGNMENTS     14 15 18 19 16 20  1  1  1  1  1  1  1  1  1  1  1  1  1  1
TYPE ASSIGNMENTS      1  1  1  1  1  1  1  1  1  1  1  1  1  1  1  1  1  2  2  2
TYPE ASSIGNMENTS      2  2  2  3  3  3  3  3  3  4  4  4  4  4  4  2  2  2  2  2
TYPE ASSIGNMENTS      2  3  3  3  3  3  3  4  4  4  4  4  4  2  3  4  2  3  4  2
TYPE ASSIGNMENTS      3  4  5  6  7  8  9 10  5  6  7  8  9 10  5  6  7  8  9 10
TYPE ASSIGNMENTS     11 12 13 17 14 15 18 19 16 20 11 12 13 17 14 15 18 19 16 20
TYPE ASSIGNMENTS      1  1  1  1  1  1  1  1  1  1  1  1  1  1  1  1  1  1  1  1
TYPE ASSIGNMENTS      1  1  1  1  1  1  1  1  1  1  1  2  2  2  2  2  2  3  3  3
TYPE ASSIGNMENTS      3  3  3  4  4  4  4  4  4  2  2  2  2  2  2  3  3  3  3  3
TYPE ASSIGNMENTS      3  4  4  4  4  4  4  2  3  4  2  3  4  2  3  4  5  6  7  8
TYPE ASSIGNMENTS      9 10  5  6  7  8  9 10  5  6  7  8  9 10 11 12 13 17 14 15
TYPE ASSIGNMENTS     18 19 16 20 11 12 13 17 14 15 18 19 16 20
EXPONENTS  0.8236000D+04 0.1235000D+04 0.2808000D+03 0.7927000D+02 0.2559000D+02
EXPONENTS  0.8997000D+01 0.3319000D+01 0.2808000D+03 0.7927000D+02 0.2559000D+02
EXPONENTS  0.8997000D+01 0.3319000D+01 0.3643000D+00 0.9059000D+00 0.1285000D+00
EXPONENTS  0.4402000D-01 0.1871000D+02 0.4133000D+01 0.1200000D+01 0.1871000D+02
EXPONENTS  0.4133000D+01 0.1200000D+01 0.1871000D+02 0.4133000D+01 0.1200000D+01
EXPONENTS  0.3827000D+00 0.3827000D+00 0.3827000D+00 0.1209000D+00 0.1209000D+00
EXPONENTS  0.1209000D+00 0.3569000D-01 0.3569000D-01 0.3569000D-01 0.1097000D+01
EXPONENTS  0.1097000D+01 0.1097000D+01 0.1097000D+01 0.1097000D+01 0.1097000D+01
EXPONENTS  0.3180000D+00 0.3180000D+00 0.3180000D+00 0.3180000D+00 0.3180000D+00
EXPONENTS  0.3180000D+00 0.1000000D+00 0.1000000D+00 0.1000000D+00 0.1000000D+00
EXPONENTS  0.1000000D+00 0.1000000D+00 0.7610000D+00 0.7610000D+00 0.7610000D+00
EXPONENTS  0.7610000D+00 0.7610000D+00 0.7610000D+00 0.7610000D+00 0.7610000D+00
EXPONENTS  0.7610000D+00 0.7610000D+00 0.2680000D+00 0.2680000D+00 0.2680000D+00
EXPONENTS  0.2680000D+00 0.2680000D+00 0.2680000D+00 0.2680000D+00 0.2680000D+00
EXPONENTS  0.2680000D+00 0.2680000D+00 0.4561000D+06 0.6833000D+05 0.1555000D+05
EXPONENTS  0.4405000D+04 0.1439000D+04 0.5204000D+03 0.2031000D+03 0.8396000D+02
EXPONENTS  0.3620000D+02 0.1583000D+02 0.6334000D+01 0.4405000D+04 0.1439000D+04
EXPONENTS  0.5204000D+03 0.2031000D+03 0.8396000D+02 0.3620000D+02 0.1583000D+02
EXPONENTS  0.6334000D+01 0.2694000D+01 0.1439000D+04 0.2031000D+03 0.8396000D+02
EXPONENTS  0.3620000D+02 0.1583000D+02 0.6334000D+01 0.2694000D+01 0.4313000D+00
EXPONENTS  0.9768000D+00 0.1625000D+00 0.5910000D-01 0.6633000D+03 0.1568000D+03
EXPONENTS  0.4998000D+02 0.1842000D+02 0.7240000D+01 0.2922000D+01 0.6633000D+03
EXPONENTS  0.1568000D+03 0.4998000D+02 0.1842000D+02 0.7240000D+01 0.2922000D+01
EXPONENTS  0.6633000D+03 0.1568000D+03 0.4998000D+02 0.1842000D+02 0.7240000D+01
EXPONENTS  0.2922000D+01 0.1568000D+03 0.4998000D+02 0.1842000D+02 0.7240000D+01
EXPONENTS  0.2922000D+01 0.3818000D+00 0.1568000D+03 0.4998000D+02 0.1842000D+02
EXPONENTS  0.7240000D+01 0.2922000D+01 0.3818000D+00 0.1568000D+03 0.4998000D+02
EXPONENTS  0.1842000D+02 0.7240000D+01 0.2922000D+01 0.3818000D+00 0.1022000D+01
EXPONENTS  0.1022000D+01 0.1022000D+01 0.1301000D+00 0.1301000D+00 0.1301000D+00
EXPONENTS  0.4190000D-01 0.4190000D-01 0.4190000D-01 0.1046000D+01 0.1046000D+01
EXPONENTS  0.1046000D+01 0.1046000D+01 0.1046000D+01 0.1046000D+01 0.3440000D+00
EXPONENTS  0.3440000D+00 0.3440000D+00 0.3440000D+00 0.3440000D+00 0.3440000D+00
EXPONENTS  0.1350000D+00 0.1350000D+00 0.1350000D+00 0.1350000D+00 0.1350000D+00
EXPONENTS  0.1350000D+00 0.7060000D+00 0.7060000D+00 0.7060000D+00 0.7060000D+00
EXPONENTS  0.7060000D+00 0.7060000D+00 0.7060000D+00 0.7060000D+00 0.7060000D+00
EXPONENTS  0.7060000D+00 0.3120000D+00 0.3120000D+00 0.3120000D+00 0.3120000D+00
EXPONENTS  0.3120000D+00 0.3120000D+00 0.3120000D+00 0.3120000D+00 0.3120000D+00
EXPONENTS  0.3120000D+00 0.4561000D+06 0.6833000D+05 0.1555000D+05 0.4405000D+04
EXPONENTS  0.1439000D+04 0.5204000D+03 0.2031000D+03 0.8396000D+02 0.3620000D+02
EXPONENTS  0.1583000D+02 0.6334000D+01 0.4405000D+04 0.1439000D+04 0.5204000D+03
EXPONENTS  0.2031000D+03 0.8396000D+02 0.3620000D+02 0.1583000D+02 0.6334000D+01
EXPONENTS  0.2694000D+01 0.1439000D+04 0.2031000D+03 0.8396000D+02 0.3620000D+02
EXPONENTS  0.1583000D+02 0.6334000D+01 0.2694000D+01 0.4313000D+00 0.9768000D+00
EXPONENTS  0.1625000D+00 0.5910000D-01 0.6633000D+03 0.1568000D+03 0.4998000D+02
EXPONENTS  0.1842000D+02 0.7240000D+01 0.2922000D+01 0.6633000D+03 0.1568000D+03
EXPONENTS  0.4998000D+02 0.1842000D+02 0.7240000D+01 0.2922000D+01 0.6633000D+03
EXPONENTS  0.1568000D+03 0.4998000D+02 0.1842000D+02 0.7240000D+01 0.2922000D+01
EXPONENTS  0.1568000D+03 0.4998000D+02 0.1842000D+02 0.7240000D+01 0.2922000D+01
EXPONENTS  0.3818000D+00 0.1568000D+03 0.4998000D+02 0.1842000D+02 0.7240000D+01
EXPONENTS  0.2922000D+01 0.3818000D+00 0.1568000D+03 0.4998000D+02 0.1842000D+02
EXPONENTS  0.7240000D+01 0.2922000D+01 0.3818000D+00 0.1022000D+01 0.1022000D+01
EXPONENTS  0.1022000D+01 0.1301000D+00 0.1301000D+00 0.1301000D+00 0.4190000D-01
EXPONENTS  0.4190000D-01 0.4190000D-01 0.1046000D+01 0.1046000D+01 0.1046000D+01
EXPONENTS  0.1046000D+01 0.1046000D+01 0.1046000D+01 0.3440000D+00 0.3440000D+00
EXPONENTS  0.3440000D+00 0.3440000D+00 0.3440000D+00 0.3440000D+00 0.1350000D+00
EXPONENTS  0.1350000D+00 0.1350000D+00 0.1350000D+00 0.1350000D+00 0.1350000D+00
EXPONENTS  0.7060000D+00 0.7060000D+00 0.7060000D+00 0.7060000D+00 0.7060000D+00
EXPONENTS  0.7060000D+00 0.7060000D+00 0.7060000D+00 0.7060000D+00 0.7060000D+00
EXPONENTS  0.3120000D+00 0.3120000D+00 0.3120000D+00 0.3120000D+00 0.3120000D+00
EXPONENTS  0.3120000D+00 0.3120000D+00 0.3120000D+00 0.3120000D+00 0.3120000D+00
EXPONENTS  0.3741000D+06 0.5605000D+05 0.1276000D+05 0.3615000D+04 0.1183000D+04
EXPONENTS  0.4288000D+03 0.1678000D+03 0.6947000D+02 0.2984000D+02 0.1272000D+02
EXPONENTS  0.5244000D+01 0.3615000D+04 0.1183000D+04 0.4288000D+03 0.1678000D+03
EXPONENTS  0.6947000D+02 0.2984000D+02 0.1272000D+02 0.5244000D+01 0.2219000D+01
EXPONENTS  0.1183000D+04 0.1678000D+03 0.6947000D+02 0.2984000D+02 0.1272000D+02
EXPONENTS  0.5244000D+01 0.2219000D+01 0.3490000D+00 0.7767000D+00 0.1322000D+00
EXPONENTS  0.4970000D-01 0.5744000D+03 0.1358000D+03 0.4319000D+02 0.1587000D+02
EXPONENTS  0.6208000D+01 0.2483000D+01 0.5744000D+03 0.1358000D+03 0.4319000D+02
EXPONENTS  0.1587000D+02 0.6208000D+01 0.2483000D+01 0.5744000D+03 0.1358000D+03
EXPONENTS  0.4319000D+02 0.1587000D+02 0.6208000D+01 0.2483000D+01 0.1358000D+03
EXPONENTS  0.4319000D+02 0.1587000D+02 0.6208000D+01 0.2483000D+01 0.3229000D+00
EXPONENTS  0.1358000D+03 0.4319000D+02 0.1587000D+02 0.6208000D+01 0.2483000D+01
EXPONENTS  0.3229000D+00 0.1358000D+03 0.4319000D+02 0.1587000D+02 0.6208000D+01
EXPONENTS  0.2483000D+01 0.3229000D+00 0.8688000D+00 0.8688000D+00 0.8688000D+00
EXPONENTS  0.1098000D+00 0.1098000D+00 0.1098000D+00 0.3510000D-01 0.3510000D-01
EXPONENTS  0.3510000D-01 0.2690000D+00 0.2690000D+00 0.2690000D+00 0.2690000D+00
EXPONENTS  0.2690000D+00 0.2690000D+00 0.8190000D+00 0.8190000D+00 0.8190000D+00
EXPONENTS  0.8190000D+00 0.8190000D+00 0.8190000D+00 0.1010000D+00 0.1010000D+00
EXPONENTS  0.1010000D+00 0.1010000D+00 0.1010000D+00 0.1010000D+00 0.5570000D+00
EXPONENTS  0.5570000D+00 0.5570000D+00 0.5570000D+00 0.5570000D+00 0.5570000D+00
EXPONENTS  0.5570000D+00 0.5570000D+00 0.5570000D+00 0.5570000D+00 0.2180000D+00
EXPONENTS  0.2180000D+00 0.2180000D+00 0.2180000D+00 0.2180000D+00 0.2180000D+00
EXPONENTS  0.2180000D+00 0.2180000D+00 0.2180000D+00 0.2180000D+00
MO    1     MO 0.0        OCC NO =    2.0000385  ORB. ENERGY =    0.000000
  0.37947577D-11  0.70741929D-11  0.11956350D-10  0.17972624D-10  0.22076149D-10
  0.18631491D-10  0.70059272D-11 -0.51347216D-14 -0.38378862D-13 -0.14343057D-12
 -0.40014896D-12 -0.53608929D-12  0.63302149D-12  0.72682154D-12 -0.25007109D-11
 -0.39168176D-12  0.34053539D-12  0.31927358D-12  0.22734181D-12  0.73928618D-03
  0.69312779D-03  0.49354828D-03  0.33726306D-11  0.31620555D-11  0.22515719D-11
  0.69595997D-13  0.19892464D-03  0.30243032D-11 -0.34638183D-14  0.31824924D-03
 -0.26004665D-11 -0.18573388D-14 -0.10430148D-04 -0.24766598D-12 -0.34570335D-12
  0.37432924D-11 -0.33975891D-11 -0.24506546D-12 -0.58218802D-13  0.25655891D-03
  0.38062595D-12 -0.65996712D-12  0.27934118D-12  0.16048401D-13 -0.67491334D-14
  0.30128204D-03  0.29311385D-13  0.83538626D-12 -0.86469765D-12 -0.26510618D-13
 -0.95612020D-14  0.18931982D-03 -0.88034722D-14  0.24603238D-03  0.51705960D-12
  0.10920049D-13  0.27105891D-04 -0.99085629D-12  0.15490368D-13 -0.76520303D-03
 -0.56032250D-12  0.10439044D-12  0.29104964D-14 -0.30243793D-03 -0.39831007D-12
 -0.60604575D-14 -0.21616352D-04  0.51191878D-12 -0.26710319D-14  0.92893015D-03
  0.68301144D-12 -0.73516569D-13 -0.13491133D-02 -0.25240469D-02 -0.43609933D-02
 -0.70696825D-02 -0.10735991D-01 -0.14922018D-01 -0.17741136D-01 -0.15804420D-01
 -0.78488092D-02 -0.12635919D-02 -0.13331641D-04 -0.66467230D-05 -0.22172355D-03
 -0.77266219D-03 -0.27824816D-02 -0.61336345D-02 -0.86341778D-02  0.41187842D-03
  0.11299321D-01  0.66812178D-02  0.23472016D-06  0.28430343D-05  0.59288484D-05
  0.17002905D-04  0.88293717D-06 -0.73324772D-04 -0.18945713D-03  0.15436075D-03
  0.37365379D-03 -0.21466833D-03 -0.10799684D-03 -0.24283607D-08 -0.31987191D-08
 -0.35286879D-08 -0.29308516D-08 -0.15563635D-08 -0.40154993D-09 -0.48418293D+01
 -0.63778218D+01 -0.70357358D+01 -0.58437295D+01 -0.31031825D+01 -0.80063731D+00
  0.66035919D+01  0.86984753D+01  0.95957799D+01  0.79700465D+01  0.42323159D+01
  0.10919596D+01  0.10261520D-12 -0.99201775D-12 -0.13988486D-11 -0.20007235D-11
  0.10131382D-13  0.18348522D-11  0.25109656D-03 -0.24274400D-02 -0.34229438D-02
 -0.48957151D-02  0.24791212D-04  0.44898325D-02 -0.32998775D-03  0.31901093D-02
  0.44983871D-02  0.64338835D-02 -0.32580280D-04 -0.59004780D-02 -0.15959214D-10
 -0.31147173D-01  0.42645997D-01  0.98172003D-13  0.34215288D-03 -0.50900813D-03
  0.49122741D-14  0.95893093D-05 -0.19633110D-04  0.62697993D-05 -0.81281263D-03
  0.80654283D-03 -0.25004532D-12 -0.15395903D-12  0.74316476D-03  0.43177379D-04
  0.47677790D-03 -0.51995528D-03  0.13372858D-12  0.87481082D-13 -0.35225651D-03
 -0.19793812D-05 -0.15903316D-05  0.35697128D-05 -0.11630879D-13 -0.11488827D-13
  0.33424759D-05 -0.40704682D-14 -0.22088343D-04 -0.93710146D-05 -0.48546951D-14
  0.49043087D-04  0.36628695D-04  0.17066100D-13  0.17221943D-04 -0.85156517D-05
  0.20346110D-14 -0.55279756D-14  0.84467581D-04 -0.40434116D-04  0.21197576D-13
 -0.84463112D-05  0.44285791D-04 -0.46136492D-14 -0.24495643D-03  0.77016558D-04
  0.36029513D-13  0.13491132D-02  0.25240468D-02  0.43609930D-02  0.70696821D-02
  0.10735991D-01  0.14922017D-01  0.17741135D-01  0.15804419D-01  0.78488088D-02
  0.12635918D-02  0.13331640D-04  0.66467228D-05  0.22172355D-03  0.77266217D-03
  0.27824816D-02  0.61336343D-02  0.86341775D-02 -0.41187841D-03 -0.11299321D-01
 -0.66812176D-02 -0.23472016D-06 -0.28430343D-05 -0.59288484D-05 -0.17002905D-04
 -0.88293718D-06  0.73324772D-04  0.18945713D-03 -0.15436075D-03 -0.37365378D-03
  0.21466833D-03  0.10799684D-03  0.11050126D-08  0.14555601D-08  0.16057106D-08
  0.13336684D-08  0.70821492D-09  0.18272315D-09 -0.48418293D+01 -0.63778219D+01
 -0.70357359D+01 -0.58437295D+01 -0.31031825D+01 -0.80063732D+00 -0.66035920D+01
 -0.86984754D+01 -0.95957800D+01 -0.79700466D+01 -0.42323159D+01 -0.10919596D+01
 -0.51903437D-13  0.50176903D-12  0.70754671D-12  0.10119790D-11 -0.51245190D-14
 -0.92808016D-12  0.25109656D-03 -0.24274400D-02 -0.34229438D-02 -0.48957151D-02
  0.24791212D-04  0.44898325D-02  0.32998776D-03 -0.31901093D-02 -0.44983871D-02
 -0.64338835D-02  0.32580281D-04  0.59004780D-02  0.71696627D-11 -0.31147174D-01
 -0.42645997D-01 -0.49873003D-13  0.34215288D-03  0.50900813D-03 -0.14280827D-14
  0.95893094D-05  0.19633110D-04 -0.62697991D-05  0.81281263D-03 -0.80654283D-03
 -0.16741990D-12  0.79843412D-13  0.74316476D-03 -0.43177379D-04 -0.47677791D-03
  0.51995529D-03  0.66750182D-13 -0.50293399D-13 -0.35225652D-03  0.19793812D-05
  0.15903321D-05 -0.35697133D-05 -0.62814642D-14  0.12080508D-13  0.33424762D-05
  0.49372648D-14 -0.22088343D-04  0.93710146D-05  0.13123686D-13  0.49043087D-04
 -0.36628695D-04 -0.27935481D-13  0.17221943D-04  0.85156513D-05  0.73516816D-14
  0.11010490D-14  0.84467582D-04  0.40434116D-04 -0.13724685D-13 -0.84463114D-05
 -0.44285791D-04  0.10421538D-13 -0.24495643D-03 -0.77016557D-04  0.18817972D-13
  0.29005031D-10  0.54227826D-10  0.93721801D-10  0.15159115D-09  0.22912495D-09
  0.31555250D-09  0.36884244D-09  0.31877858D-09  0.14877562D-09  0.20155832D-10
 -0.14742266D-12  0.20985985D-12  0.26977273D-11  0.98409213D-11  0.33203025D-10
  0.72928741D-10  0.94204041D-10 -0.15139391D-10 -0.12700149D-09 -0.69696782D-10
  0.27163778D-14  0.30941232D-13  0.64245152D-13  0.17665785D-12 -0.22905719D-13
 -0.79876635D-12 -0.19922501D-11  0.16491558D-11 -0.33909038D-11  0.60868270D-11
  0.14375172D-11 -0.91003032D-10 -0.11939080D-09 -0.13094587D-09 -0.10773832D-09
 -0.56793516D-10 -0.14776605D-10  0.84742000D+00  0.11117669D+01  0.12193676D+01
  0.10032590D+01  0.52886107D+00  0.13759970D+00 -0.39123723D-08 -0.51328099D-08
 -0.56295816D-08 -0.46318502D-08 -0.24416480D-08 -0.63527090D-09  0.33878097D-15
  0.12160757D-13  0.19293345D-13  0.22910256D-13  0.34669256D-14 -0.25231635D-13
  0.23163410D-04  0.83146522D-03  0.13191404D-02  0.15664388D-02  0.23704348D-03
 -0.17251580D-02 -0.32183330D-13 -0.11552409D-11 -0.18328187D-11 -0.21764160D-11
 -0.32934911D-12  0.23969411D-11 -0.76516130D-12  0.59640071D-02 -0.27255413D-10
  0.61860616D-14 -0.53082940D-03 -0.56551304D-12  0.73761094D-15 -0.68540679D-05
 -0.29333565D-14  0.13392503D-12  0.26488340D-12 -0.39880843D-12  0.20398695D-13
 -0.93545806D-14  0.69761240D-03 -0.50165159D-12  0.54916592D-12 -0.47514327D-13
 -0.46781237D-13 -0.46118807D-14 -0.98734851D-04  0.52671457D-13 -0.43749835D-13
 -0.89216221D-14  0.72258359D-14 -0.47296810D-14  0.77596525D-04 -0.70895393D-16
  0.62680449D-04  0.18463845D-12  0.18997161D-14  0.20310203D-04  0.22327758D-12
 -0.16870300D-14 -0.20835155D-03 -0.77719294D-12  0.20590112D-13 -0.10941623D-14
  0.27221296D-04  0.54891263D-13  0.57050181D-15  0.19538670D-05 -0.10571192D-12
  0.27119850D-14 -0.83617755D-04 -0.58961869D-13 -0.21450645D-13
MO    2     MO 0.0        OCC NO =    2.0000376  ORB. ENERGY =    0.000000
 -0.35556985D-03 -0.66285383D-03 -0.11203133D-02 -0.16840398D-02 -0.20685413D-02
 -0.17457759D-02 -0.65645732D-03 -0.10471422D-05 -0.78267395D-05 -0.29250312D-04
 -0.81603817D-04 -0.10932662D-03  0.12909435D-03  0.33054431D-04 -0.43857307D-03
 -0.61945183D-04 -0.85809424D-13 -0.80451789D-13 -0.57286467D-13 -0.45821786D-11
 -0.42960837D-11 -0.30590675D-11  0.77411359D-03  0.72578069D-03  0.51679909D-03
 -0.15894908D-13 -0.11302250D-11  0.57426554D-03 -0.12643995D-13 -0.16557218D-11
 -0.50981319D-03 -0.90088288D-15  0.52051651D-13 -0.46052181D-04 -0.63820974D-04
  0.71568125D-03 -0.65186028D-03 -0.34027427D-13 -0.14830204D-13 -0.14646063D-11
  0.62652356D-04 -0.11338714D-03  0.50734780D-04  0.28958326D-14  0.63497378D-14
 -0.16309652D-11  0.45354130D-05  0.16333877D-03 -0.16787418D-03 -0.28167590D-14
 -0.41650124D-14 -0.10448076D-11  0.72506455D-15 -0.12896899D-11  0.10060977D-03
  0.18582400D-16 -0.10102146D-12 -0.19138480D-03 -0.21937760D-14  0.39700911D-11
 -0.11044450D-03  0.98728895D-14  0.19479265D-15  0.15896178D-11 -0.74244681D-04
 -0.21779994D-14  0.10057635D-12  0.98951287D-04  0.15936214D-14 -0.48694299D-11
  0.12378276D-03 -0.97390106D-14 -0.82854790D-03 -0.15501247D-02 -0.26782717D-02
 -0.43417931D-02 -0.65934294D-02 -0.91642465D-02 -0.10895587D-01 -0.97061674D-02
 -0.48202880D-02 -0.77602559D-03 -0.81875283D-05 -0.42847881D-05 -0.14293336D-03
 -0.49809414D-03 -0.17937176D-02 -0.39540273D-02 -0.55659943D-02  0.26551607D-03
  0.72840702D-02  0.43070251D-02  0.28416366D-06  0.34419159D-05  0.71777527D-05
  0.20584545D-04  0.10689268D-05 -0.88770542D-04 -0.22936603D-03  0.18687665D-03
  0.14611563D-03 -0.35575873D-03 -0.17218289D-03 -0.25202179D-09 -0.33197166D-09
 -0.36621670D-09 -0.30417165D-09 -0.16152358D-09 -0.41673929D-10  0.41744001D+01
  0.54986614D+01  0.60658843D+01  0.50381919D+01  0.26754197D+01  0.69027226D+00
 -0.70611936D+01 -0.93012438D+01 -0.10260728D+02 -0.85223379D+01 -0.45255979D+01
 -0.11676279D+01  0.11970281D-13 -0.11572097D-12 -0.16317865D-12 -0.23338863D-12
  0.11818472D-14  0.21403939D-12 -0.18168872D-03  0.17564496D-02  0.24767773D-02
  0.35424468D-02 -0.17938452D-04 -0.32487578D-02  0.33157184D-03 -0.32054232D-02
 -0.45199813D-02 -0.64647689D-02  0.32736680D-04  0.59288028D-02 -0.16315910D-11
  0.26965148D-01 -0.45691833D-01  0.13030439D-13 -0.14326604D-03  0.13686760D-03
  0.84057252D-15 -0.10783326D-04  0.13377848D-04  0.15490406D-04  0.47454371D-03
 -0.49003411D-03 -0.39139538D-13 -0.24979053D-13 -0.45037130D-03  0.24260618D-04
 -0.28435267D-03  0.26009205D-03  0.15788691D-13  0.99749279D-14  0.41376893D-03
 -0.29032316D-05  0.47235229D-04 -0.44331997D-04 -0.16002933D-14 -0.69197128D-15
 -0.26776507D-04 -0.42027673D-15 -0.29759392D-04  0.10053141D-05 -0.13110393D-14
  0.59260697D-04  0.30909346D-04  0.25718695D-14  0.30017480D-04 -0.33925289D-04
 -0.50883422D-14 -0.79965958D-15 -0.46967492D-04 -0.11785945D-04  0.26687095D-14
  0.17953255D-04 -0.42103803D-04 -0.26973072D-15  0.12294922D-03  0.77461639D-04
  0.70321995D-14 -0.82854789D-03 -0.15501247D-02 -0.26782716D-02 -0.43417930D-02
 -0.65934293D-02 -0.91642464D-02 -0.10895587D-01 -0.97061673D-02 -0.48202879D-02
 -0.77602558D-03 -0.81875282D-05 -0.42847882D-05 -0.14293336D-03 -0.49809415D-03
 -0.17937177D-02 -0.39540274D-02 -0.55659944D-02  0.26551607D-03  0.72840703D-02
  0.43070252D-02  0.28416367D-06  0.34419159D-05  0.71777528D-05  0.20584545D-04
  0.10689268D-05 -0.88770543D-04 -0.22936603D-03  0.18687665D-03  0.14611563D-03
 -0.35575874D-03 -0.17218289D-03  0.22752637D-09  0.29970545D-09  0.33062203D-09
  0.27460748D-09  0.14582419D-09  0.37623404D-10 -0.41744000D+01 -0.54986614D+01
 -0.60658842D+01 -0.50381918D+01 -0.26754197D+01 -0.69027226D+00 -0.70611935D+01
 -0.93012437D+01 -0.10260728D+02 -0.85223378D+01 -0.45255979D+01 -0.11676279D+01
 -0.93980694D-14  0.90854488D-13  0.12811431D-12  0.18323736D-12 -0.92788819D-15
 -0.16804594D-12  0.18168872D-03 -0.17564496D-02 -0.24767773D-02 -0.35424467D-02
  0.17938451D-04  0.32487577D-02  0.33157183D-03 -0.32054231D-02 -0.45199812D-02
 -0.64647689D-02  0.32736680D-04  0.59288028D-02  0.14964275D-11 -0.26965148D-01
 -0.45691833D-01 -0.10292193D-13  0.14326603D-03  0.13686760D-03 -0.15839060D-15
  0.10783326D-04  0.13377848D-04  0.15490406D-04  0.47454370D-03 -0.49003410D-03
 -0.17813189D-13  0.68992157D-14  0.45037129D-03  0.24260619D-04 -0.28435267D-03
  0.26009205D-03  0.11985213D-13 -0.85173821D-14 -0.41376893D-03 -0.29032317D-05
  0.47235229D-04 -0.44331997D-04 -0.21837442D-15  0.16950708D-14  0.26776507D-04
  0.73476748D-15  0.29759392D-04  0.10053140D-05  0.14538887D-14 -0.59260697D-04
  0.30909347D-04 -0.36581912D-14 -0.30017480D-04 -0.33925289D-04  0.59964707D-14
  0.35972071D-15  0.46967491D-04 -0.11785946D-04 -0.24909720D-14 -0.17953255D-04
 -0.42103803D-04  0.14118099D-14 -0.12294922D-03  0.77461640D-04  0.18317359D-14
  0.52537428D-03  0.98224012D-03  0.16976029D-02  0.27458027D-02  0.41501889D-02
  0.57156694D-02  0.66809215D-02  0.57741041D-02  0.26948044D-02  0.36508687D-03
 -0.26702980D-05  0.66091314D-05  0.84959719D-04  0.30992084D-03  0.10456652D-02
  0.22967501D-02  0.29667746D-02 -0.47678593D-03 -0.39996672D-02 -0.21949658D-02
  0.24160992D-06  0.27520872D-05  0.57143250D-05  0.15712943D-04 -0.20373635D-05
 -0.71046771D-04 -0.17720193D-03  0.14668519D-03 -0.26127008D-04  0.11730756D-02
  0.25665799D-03  0.26213039D-09  0.34390017D-09  0.37718406D-09  0.31033568D-09
  0.16359133D-09  0.42563386D-10 -0.35710663D-08 -0.46850360D-08 -0.51384705D-08
 -0.42277787D-08 -0.22286446D-08 -0.57985140D-09 -0.58741936D+00 -0.77066079D+00
 -0.84524810D+00 -0.69544468D+00 -0.36659889D+00 -0.95382136D-01  0.14041703D-14
  0.50403577D-13  0.79966539D-13  0.94957812D-13  0.14369620D-13 -0.10457940D-12
 -0.11443399D-12 -0.41076803D-11 -0.65169378D-11 -0.77386637D-11 -0.11710638D-11
  0.85227828D-11 -0.47900505D-05 -0.17194189D-03 -0.27279011D-03 -0.32392989D-03
 -0.49019131D-04  0.35675205D-03  0.19972410D-11 -0.25209710D-10 -0.40379075D-02
  0.11603440D-13  0.28114931D-11 -0.11053722D-03  0.14706330D-16  0.36103800D-13
  0.17232074D-06  0.21606648D-04  0.48738621D-04 -0.70345269D-04  0.23790851D-14
  0.79607545D-14 -0.36263215D-11 -0.92166754D-04  0.96594556D-04 -0.44278027D-05
 -0.59273551D-14 -0.33347573D-14  0.49629612D-12  0.10791810D-04 -0.88414694D-05
 -0.19503401D-05  0.74399420D-15 -0.33016338D-14 -0.42089317D-12  0.25664434D-14
 -0.32857258D-12  0.34147397D-04 -0.13348573D-14 -0.94008930D-13  0.45979439D-04
 -0.63644727D-14  0.10797267D-11 -0.14842163D-03  0.13154800D-14 -0.35459607D-15
 -0.14207624D-12  0.99840960D-05  0.21200202D-15 -0.10335204D-13 -0.20081706D-04
  0.85178620D-15  0.43656393D-12 -0.98705820D-05 -0.23892130D-14
MO    3     MO 0.0        OCC NO =    2.0000330  ORB. ENERGY =    0.000000
  0.38068558D-11  0.70967461D-11  0.11994468D-10  0.18029922D-10  0.22146530D-10
  0.18690890D-10  0.70282627D-11  0.76773323D-15  0.57383303D-14  0.21445450D-13
  0.59829467D-13  0.80154991D-13 -0.94648099D-13  0.29046430D-12 -0.22982473D-13
 -0.30566335D-13 -0.11806059D-10 -0.11068931D-10 -0.78817384D-11 -0.15303440D-11
 -0.14347948D-11 -0.10216593D-11  0.84417620D-13  0.79146885D-13  0.56357297D-13
 -0.25125830D-11 -0.16461030D-12  0.54121413D-13  0.36491210D-12  0.38330307D-12
  0.88864911D-13  0.84580062D-13  0.13745910D-13  0.20611288D-14 -0.10227504D-13
  0.25831600D-13 -0.15604096D-13  0.11734455D-02  0.34294384D-11 -0.29844805D-12
 -0.13900852D-14 -0.11717911D-13  0.13107996D-13 -0.10263372D-03 -0.20538099D-12
 -0.97778964D-13 -0.46706836D-17  0.73531950D-14 -0.73485243D-14  0.11771930D-03
  0.50861017D-12 -0.11719923D-12  0.27114571D-12  0.70805379D-13  0.18011582D-14
 -0.55118698D-12  0.10086872D-12 -0.69110346D-14 -0.26225016D-12 -0.31328485D-12
  0.15075600D-14 -0.46671029D-03 -0.11002803D-12 -0.65020354D-13 -0.15408641D-14
  0.39411114D-12 -0.53165575D-13 -0.27217072D-14 -0.64027058D-13  0.24822664D-12
  0.73442994D-14  0.35270236D-03 -0.27338643D-10 -0.51147684D-10 -0.88371854D-10
 -0.14326116D-09 -0.21755582D-09 -0.30238211D-09 -0.35950916D-09 -0.32026326D-09
 -0.15904951D-09 -0.25605625D-10 -0.27015447D-12 -0.59738677D-13 -0.19927823D-11
 -0.69444473D-11 -0.25008079D-10 -0.55127198D-10 -0.77601302D-10  0.37018350D-11
  0.10155478D-09  0.60048706D-10 -0.17114654D-14 -0.20730026D-13 -0.43230283D-13
 -0.12397693D-12 -0.64379491D-14  0.53464863D-12  0.13814294D-11 -0.11255236D-11
  0.37349959D-11  0.48148272D-12  0.15799528D-12  0.82136116D+01  0.10819248D+02
  0.11935324D+02  0.99132211D+01  0.52641955D+01  0.13581900D+01 -0.16056868D-08
 -0.21150651D-08 -0.23332479D-08 -0.19379451D-08 -0.10291026D-08 -0.26551385D-09
  0.43323722D-09  0.57067477D-09  0.62954360D-09  0.52288525D-09  0.27766658D-09
  0.71639428D-10 -0.35917596D-03  0.34722821D-02  0.48962802D-02  0.70029759D-02
 -0.35462084D-04 -0.64223893D-02  0.72972747D-13 -0.70545356D-12 -0.99476316D-12
 -0.14227745D-11  0.72047296D-14  0.13048184D-11 -0.34897515D-13  0.33736672D-12
  0.47572229D-12  0.68040872D-12 -0.34454940D-14 -0.62399897D-12  0.53792650D-01
 -0.11090547D-10  0.21019154D-11 -0.35381635D-03  0.23968245D-12 -0.50519452D-13
 -0.14928548D-04  0.73120008D-14 -0.86055672D-15 -0.31749621D-14 -0.18476051D-12
  0.18793547D-12  0.99229182D-03  0.56122099D-03  0.20612547D-12 -0.49733264D-13
  0.11985349D-12 -0.70120224D-13 -0.47953077D-03 -0.32880823D-03  0.49956623D-13
  0.53836475D-14  0.52474865D-14 -0.10631134D-13  0.39072901D-04  0.52153028D-04
  0.14648490D-13  0.21008797D-04 -0.76105164D-14  0.15435189D-13  0.44525512D-04
 -0.41230949D-13 -0.40256506D-13 -0.10755190D-03  0.64062498D-13 -0.60490620D-14
 -0.17739538D-04  0.17264612D-04  0.14323554D-13 -0.13577197D-13 -0.85923405D-04
  0.52604226D-14  0.73613813D-14  0.34129568D-04 -0.48231086D-13  0.33370210D-13
 -0.13722877D-03 -0.76970813D-13 -0.14400418D-12 -0.24880728D-12 -0.40334583D-12
 -0.61251935D-12 -0.85134426D-12 -0.10121831D-11 -0.90168787D-12 -0.44779726D-12
 -0.72091571D-13 -0.76060866D-15  0.33442459D-13  0.11155845D-11  0.38875885D-11
  0.13999836D-10  0.30860896D-10  0.43442181D-10 -0.20723336D-11 -0.56851638D-10
 -0.33616017D-10  0.12380924D-14  0.14996323D-13  0.31273251D-13  0.89686238D-13
  0.46572815D-14 -0.38677055D-12 -0.99934083D-12  0.81421587D-12 -0.19652646D-11
 -0.44100433D-12 -0.86757313D-13 -0.82136116D+01 -0.10819248D+02 -0.11935324D+02
 -0.99132211D+01 -0.52641955D+01 -0.13581899D+01 -0.21338518D-08 -0.28107820D-08
 -0.31007325D-08 -0.25754012D-08 -0.13676095D-08 -0.35285039D-09 -0.65463414D-09
 -0.86230631D-09 -0.95125884D-09 -0.79009495D-09 -0.41956234D-09 -0.10824928D-09
  0.35917596D-03 -0.34722820D-02 -0.48962801D-02 -0.70029758D-02  0.35462084D-04
  0.64223893D-02  0.90935210D-13 -0.87910310D-12 -0.12396271D-11 -0.17729947D-11
  0.89781957D-14  0.16260034D-11  0.48639858D-13 -0.47021885D-12 -0.66305766D-12
 -0.94834786D-12  0.48023001D-14  0.86972443D-12 -0.53792649D-01 -0.14867066D-10
 -0.33363265D-11  0.35381635D-03  0.16336383D-12  0.68823510D-13  0.14928547D-04
  0.40958572D-14  0.26425624D-14 -0.56406122D-14  0.23495444D-12 -0.22931383D-12
  0.99229182D-03 -0.56122099D-03  0.17680152D-12  0.55093384D-13 -0.14442213D-12
  0.89328748D-13 -0.47953077D-03  0.32880823D-03  0.45873092D-13 -0.91116435D-14
  0.93770036D-14 -0.26536012D-15  0.39072901D-04 -0.52153028D-04  0.65876561D-14
 -0.21008797D-04  0.18551337D-14 -0.12204881D-13 -0.44525513D-04 -0.43899295D-13
  0.46694529D-13  0.10755190D-03  0.38333894D-13 -0.10079885D-13 -0.17739539D-04
 -0.17264612D-04  0.14712260D-13  0.11051913D-13  0.85923405D-04  0.40730745D-14
 -0.10664340D-13 -0.34129569D-04 -0.48209854D-13 -0.22491399D-13 -0.13722877D-03
  0.16411444D-10  0.30682848D-10  0.53029081D-10  0.85772354D-10  0.12964204D-09
  0.17854393D-09  0.20869612D-09  0.18036929D-09  0.84179289D-10  0.11404447D-10
 -0.83413765D-13  0.69526330D-13  0.89375398D-12  0.32602860D-11  0.11000124D-10
  0.24161209D-10  0.31209692D-10 -0.50156630D-11 -0.42075451D-10 -0.23090465D-10
  0.55017834D-15  0.62668733D-14  0.13012288D-13  0.35780487D-13 -0.46393511D-14
 -0.16178307D-12 -0.40351267D-12  0.33402194D-12 -0.13220089D-11 -0.50865271D-13
 -0.62872790D-14 -0.54507795D-08 -0.71511128D-08 -0.78432230D-08 -0.64531676D-08
 -0.34017431D-08 -0.88506956D-09  0.30612858D-08  0.40162328D-08  0.44049382D-08
  0.36242505D-08  0.19104988D-08  0.49707584D-09 -0.16938130D-09 -0.22221863D-09
 -0.24372574D-09 -0.20053020D-09 -0.10570812D-09 -0.27503264D-10 -0.66945793D-13
 -0.24030615D-11 -0.38125173D-11 -0.45272473D-11 -0.68509185D-12  0.49859701D-11
  0.29760219D-13  0.10682619D-11  0.16948242D-11  0.20125518D-11  0.30455213D-12