 cl2cs-wavefunction
GAUSSIAN            196 MOL ORBITALS    414 PRIMITIVES        4 NUCLEI
  C    1    (CENTRE  1)   0.00000000  0.00000000 -0.98816425  CHARGE =  6.0
  Cl   2    (CENTRE  2)   0.00000000 -2.70369732 -2.83628995  CHARGE = 17.0
  Cl   3    (CENTRE  3)   0.00000000  2.70369732 -2.83628995  CHARGE = 17.0
  S    4    (CENTRE  4)   0.01889726  0.00000000  2.04433408  CHARGE = 16.0
CENTRE ASSIGNMENTS    1  1  1  1  1  1  1  1  1  1  1  1  1  1  1  1  1  1  1  1
CENTRE ASSIGNMENTS    1  1  1  1  1  1  1  1  1  1  1  1  1  1  1  1  1  1  1  1
CENTRE ASSIGNMENTS    1  1  1  1  1  1  1  1  1  1  1  1  1  1  1  1  1  1  1  1
CENTRE ASSIGNMENTS    1  1  1  1  1  1  1  1  1  1  1  1  2  2  2  2  2  2  2  2
CENTRE ASSIGNMENTS    2  2  2  2  2  2  2  2  2  2  2  2  2  2  2  2  2  2  2  2
CENTRE ASSIGNMENTS    2  2  2  2  2  2  2  2  2  2  2  2  2  2  2  2  2  2  2  2
CENTRE ASSIGNMENTS    2  2  2  2  2  2  2  2  2  2  2  2  2  2  2  2  2  2  2  2
CENTRE ASSIGNMENTS    2  2  2  2  2  2  2  2  2  2  2  2  2  2  2  2  2  2  2  2
CENTRE ASSIGNMENTS    2  2  2  2  2  2  2  2  2  2  2  2  2  2  2  2  2  2  2  2
CENTRE ASSIGNMENTS    2  2  2  2  2  2  3  3  3  3  3  3  3  3  3  3  3  3  3  3
CENTRE ASSIGNMENTS    3  3  3  3  3  3  3  3  3  3  3  3  3  3  3  3  3  3  3  3
CENTRE ASSIGNMENTS    3  3  3  3  3  3  3  3  3  3  3  3  3  3  3  3  3  3  3  3
CENTRE ASSIGNMENTS    3  3  3  3  3  3  3  3  3  3  3  3  3  3  3  3  3  3  3  3
CENTRE ASSIGNMENTS    3  3  3  3  3  3  3  3  3  3  3  3  3  3  3  3  3  3  3  3
CENTRE ASSIGNMENTS    3  3  3  3  3  3  3  3  3  3  3  3  3  3  3  3  3  3  3  3
CENTRE ASSIGNMENTS    4  4  4  4  4  4  4  4  4  4  4  4  4  4  4  4  4  4  4  4
CENTRE ASSIGNMENTS    4  4  4  4  4  4  4  4  4  4  4  4  4  4  4  4  4  4  4  4
CENTRE ASSIGNMENTS    4  4  4  4  4  4  4  4  4  4  4  4  4  4  4  4  4  4  4  4
CENTRE ASSIGNMENTS    4  4  4  4  4  4  4  4  4  4  4  4  4  4  4  4  4  4  4  4
CENTRE ASSIGNMENTS    4  4  4  4  4  4  4  4  4  4  4  4  4  4  4  4  4  4  4  4
CENTRE ASSIGNMENTS    4  4  4  4  4  4  4  4  4  4  4  4  4  4
TYPE ASSIGNMENTS      1  1  1  1  1  1  1  1  1  1  1  1  1  1  1  1  2  2  2  3
TYPE ASSIGNMENTS      3  3  4  4  4  2  3  4  2  3  4  2  3  4  5  6  7  8  9 10
TYPE ASSIGNMENTS      5  6  7  8  9 10  5  6  7  8  9 10 11 12 13 17 14 15 18 19
TYPE ASSIGNMENTS     16 20 11 12 13 17 14 15 18 19 16 20  1  1  1  1  1  1  1  1
TYPE ASSIGNMENTS      1  1  1  1  1  1  1  1  1  1  1  1  1  1  1  1  1  1  1  1
TYPE ASSIGNMENTS      1  1  1  2  2  2  2  2  2  3  3  3  3  3  3  4  4  4  4  4
TYPE ASSIGNMENTS      4  2  2  2  2  2  2  3  3  3  3  3  3  4  4  4  4  4  4  2
TYPE ASSIGNMENTS      3  4  2  3  4  2  3  4  5  6  7  8  9 10  5  6  7  8  9 10
TYPE ASSIGNMENTS      5  6  7  8  9 10 11 12 13 17 14 15 18 19 16 20 11 12 13 17
TYPE ASSIGNMENTS     14 15 18 19 16 20  1  1  1  1  1  1  1  1  1  1  1  1  1  1
TYPE ASSIGNMENTS      1  1  1  1  1  1  1  1  1  1  1  1  1  1  1  1  1  2  2  2
TYPE ASSIGNMENTS      2  2  2  3  3  3  3  3  3  4  4  4  4  4  4  2  2  2  2  2
TYPE ASSIGNMENTS      2  3  3  3  3  3  3  4  4  4  4  4  4  2  3  4  2  3  4  2
TYPE ASSIGNMENTS      3  4  5  6  7  8  9 10  5  6  7  8  9 10  5  6  7  8  9 10
TYPE ASSIGNMENTS     11 12 13 17 14 15 18 19 16 20 11 12 13 17 14 15 18 19 16 20
TYPE ASSIGNMENTS      1  1  1  1  1  1  1  1  1  1  1  1  1  1  1  1  1  1  1  1
TYPE ASSIGNMENTS      1  1  1  1  1  1  1  1  1  1  1  2  2  2  2  2  2  3  3  3
TYPE ASSIGNMENTS      3  3  3  4  4  4  4  4  4  2  2  2  2  2  2  3  3  3  3  3
TYPE ASSIGNMENTS      3  4  4  4  4  4  4  2  3  4  2  3  4  2  3  4  5  6  7  8
TYPE ASSIGNMENTS      9 10  5  6  7  8  9 10  5  6  7  8  9 10 11 12 13 17 14 15
TYPE ASSIGNMENTS     18 19 16 20 11 12 13 17 14 15 18 19 16 20
EXPONENTS  0.8236000D+04 0.1235000D+04 0.2808000D+03 0.7927000D+02 0.2559000D+02
EXPONENTS  0.8997000D+01 0.3319000D+01 0.2808000D+03 0.7927000D+02 0.2559000D+02
EXPONENTS  0.8997000D+01 0.3319000D+01 0.3643000D+00 0.9059000D+00 0.1285000D+00
EXPONENTS  0.4402000D-01 0.1871000D+02 0.4133000D+01 0.1200000D+01 0.1871000D+02
EXPONENTS  0.4133000D+01 0.1200000D+01 0.1871000D+02 0.4133000D+01 0.1200000D+01
EXPONENTS  0.3827000D+00 0.3827000D+00 0.3827000D+00 0.1209000D+00 0.1209000D+00
EXPONENTS  0.1209000D+00 0.3569000D-01 0.3569000D-01 0.3569000D-01 0.1097000D+01
EXPONENTS  0.1097000D+01 0.1097000D+01 0.1097000D+01 0.1097000D+01 0.1097000D+01
EXPONENTS  0.3180000D+00 0.3180000D+00 0.3180000D+00 0.3180000D+00 0.3180000D+00
EXPONENTS  0.3180000D+00 0.1000000D+00 0.1000000D+00 0.1000000D+00 0.1000000D+00
EXPONENTS  0.1000000D+00 0.1000000D+00 0.7610000D+00 0.7610000D+00 0.7610000D+00
EXPONENTS  0.7610000D+00 0.7610000D+00 0.7610000D+00 0.7610000D+00 0.7610000D+00
EXPONENTS  0.7610000D+00 0.7610000D+00 0.2680000D+00 0.2680000D+00 0.2680000D+00
EXPONENTS  0.2680000D+00 0.2680000D+00 0.2680000D+00 0.2680000D+00 0.2680000D+00
EXPONENTS  0.2680000D+00 0.2680000D+00 0.4561000D+06 0.6833000D+05 0.1555000D+05
EXPONENTS  0.4405000D+04 0.1439000D+04 0.5204000D+03 0.2031000D+03 0.8396000D+02
EXPONENTS  0.3620000D+02 0.1583000D+02 0.6334000D+01 0.4405000D+04 0.1439000D+04
EXPONENTS  0.5204000D+03 0.2031000D+03 0.8396000D+02 0.3620000D+02 0.1583000D+02
EXPONENTS  0.6334000D+01 0.2694000D+01 0.1439000D+04 0.2031000D+03 0.8396000D+02
EXPONENTS  0.3620000D+02 0.1583000D+02 0.6334000D+01 0.2694000D+01 0.4313000D+00
EXPONENTS  0.9768000D+00 0.1625000D+00 0.5910000D-01 0.6633000D+03 0.1568000D+03
EXPONENTS  0.4998000D+02 0.1842000D+02 0.7240000D+01 0.2922000D+01 0.6633000D+03
EXPONENTS  0.1568000D+03 0.4998000D+02 0.1842000D+02 0.7240000D+01 0.2922000D+01
EXPONENTS  0.6633000D+03 0.1568000D+03 0.4998000D+02 0.1842000D+02 0.7240000D+01
EXPONENTS  0.2922000D+01 0.1568000D+03 0.4998000D+02 0.1842000D+02 0.7240000D+01
EXPONENTS  0.2922000D+01 0.3818000D+00 0.1568000D+03 0.4998000D+02 0.1842000D+02
EXPONENTS  0.7240000D+01 0.2922000D+01 0.3818000D+00 0.1568000D+03 0.4998000D+02
EXPONENTS  0.1842000D+02 0.7240000D+01 0.2922000D+01 0.3818000D+00 0.1022000D+01
EXPONENTS  0.1022000D+01 0.1022000D+01 0.1301000D+00 0.1301000D+00 0.1301000D+00
EXPONENTS  0.4190000D-01 0.4190000D-01 0.4190000D-01 0.1046000D+01 0.1046000D+01
EXPONENTS  0.1046000D+01 0.1046000D+01 0.1046000D+01 0.1046000D+01 0.3440000D+00
EXPONENTS  0.3440000D+00 0.3440000D+00 0.3440000D+00 0.3440000D+00 0.3440000D+00
EXPONENTS  0.1350000D+00 0.1350000D+00 0.1350000D+00 0.1350000D+00 0.1350000D+00
EXPONENTS  0.1350000D+00 0.7060000D+00 0.7060000D+00 0.7060000D+00 0.7060000D+00
EXPONENTS  0.7060000D+00 0.7060000D+00 0.7060000D+00 0.7060000D+00 0.7060000D+00
EXPONENTS  0.7060000D+00 0.3120000D+00 0.3120000D+00 0.3120000D+00 0.3120000D+00
EXPONENTS  0.3120000D+00 0.3120000D+00 0.3120000D+00 0.3120000D+00 0.3120000D+00
EXPONENTS  0.3120000D+00 0.4561000D+06 0.6833000D+05 0.1555000D+05 0.4405000D+04
EXPONENTS  0.1439000D+04 0.5204000D+03 0.2031000D+03 0.8396000D+02 0.3620000D+02
EXPONENTS  0.1583000D+02 0.6334000D+01 0.4405000D+04 0.1439000D+04 0.5204000D+03
EXPONENTS  0.2031000D+03 0.8396000D+02 0.3620000D+02 0.1583000D+02 0.6334000D+01
EXPONENTS  0.2694000D+01 0.1439000D+04 0.2031000D+03 0.8396000D+02 0.3620000D+02
EXPONENTS  0.1583000D+02 0.6334000D+01 0.2694000D+01 0.4313000D+00 0.9768000D+00
EXPONENTS  0.1625000D+00 0.5910000D-01 0.6633000D+03 0.1568000D+03 0.4998000D+02
EXPONENTS  0.1842000D+02 0.7240000D+01 0.2922000D+01 0.6633000D+03 0.1568000D+03
EXPONENTS  0.4998000D+02 0.1842000D+02 0.7240000D+01 0.2922000D+01 0.6633000D+03
EXPONENTS  0.1568000D+03 0.4998000D+02 0.1842000D+02 0.7240000D+01 0.2922000D+01
EXPONENTS  0.1568000D+03 0.4998000D+02 0.1842000D+02 0.7240000D+01 0.2922000D+01
EXPONENTS  0.3818000D+00 0.1568000D+03 0.4998000D+02 0.1842000D+02 0.7240000D+01
EXPONENTS  0.2922000D+01 0.3818000D+00 0.1568000D+03 0.4998000D+02 0.1842000D+02
EXPONENTS  0.7240000D+01 0.2922000D+01 0.3818000D+00 0.1022000D+01 0.1022000D+01
EXPONENTS  0.1022000D+01 0.1301000D+00 0.1301000D+00 0.1301000D+00 0.4190000D-01
EXPONENTS  0.4190000D-01 0.4190000D-01 0.1046000D+01 0.1046000D+01 0.1046000D+01
EXPONENTS  0.1046000D+01 0.1046000D+01 0.1046000D+01 0.3440000D+00 0.3440000D+00
EXPONENTS  0.3440000D+00 0.3440000D+00 0.3440000D+00 0.3440000D+00 0.1350000D+00
EXPONENTS  0.1350000D+00 0.1350000D+00 0.1350000D+00 0.1350000D+00 0.1350000D+00
EXPONENTS  0.7060000D+00 0.7060000D+00 0.7060000D+00 0.7060000D+00 0.7060000D+00
EXPONENTS  0.7060000D+00 0.7060000D+00 0.7060000D+00 0.7060000D+00 0.7060000D+00
EXPONENTS  0.3120000D+00 0.3120000D+00 0.3120000D+00 0.3120000D+00 0.3120000D+00
EXPONENTS  0.3120000D+00 0.3120000D+00 0.3120000D+00 0.3120000D+00 0.3120000D+00
EXPONENTS  0.3741000D+06 0.5605000D+05 0.1276000D+05 0.3615000D+04 0.1183000D+04
EXPONENTS  0.4288000D+03 0.1678000D+03 0.6947000D+02 0.2984000D+02 0.1272000D+02
EXPONENTS  0.5244000D+01 0.3615000D+04 0.1183000D+04 0.4288000D+03 0.1678000D+03
EXPONENTS  0.6947000D+02 0.2984000D+02 0.1272000D+02 0.5244000D+01 0.2219000D+01
EXPONENTS  0.1183000D+04 0.1678000D+03 0.6947000D+02 0.2984000D+02 0.1272000D+02
EXPONENTS  0.5244000D+01 0.2219000D+01 0.3490000D+00 0.7767000D+00 0.1322000D+00
EXPONENTS  0.4970000D-01 0.5744000D+03 0.1358000D+03 0.4319000D+02 0.1587000D+02
EXPONENTS  0.6208000D+01 0.2483000D+01 0.5744000D+03 0.1358000D+03 0.4319000D+02
EXPONENTS  0.1587000D+02 0.6208000D+01 0.2483000D+01 0.5744000D+03 0.1358000D+03
EXPONENTS  0.4319000D+02 0.1587000D+02 0.6208000D+01 0.2483000D+01 0.1358000D+03
EXPONENTS  0.4319000D+02 0.1587000D+02 0.6208000D+01 0.2483000D+01 0.3229000D+00
EXPONENTS  0.1358000D+03 0.4319000D+02 0.1587000D+02 0.6208000D+01 0.2483000D+01
EXPONENTS  0.3229000D+00 0.1358000D+03 0.4319000D+02 0.1587000D+02 0.6208000D+01
EXPONENTS  0.2483000D+01 0.3229000D+00 0.8688000D+00 0.8688000D+00 0.8688000D+00
EXPONENTS  0.1098000D+00 0.1098000D+00 0.1098000D+00 0.3510000D-01 0.3510000D-01
EXPONENTS  0.3510000D-01 0.2690000D+00 0.2690000D+00 0.2690000D+00 0.2690000D+00
EXPONENTS  0.2690000D+00 0.2690000D+00 0.8190000D+00 0.8190000D+00 0.8190000D+00
EXPONENTS  0.8190000D+00 0.8190000D+00 0.8190000D+00 0.1010000D+00 0.1010000D+00
EXPONENTS  0.1010000D+00 0.1010000D+00 0.1010000D+00 0.1010000D+00 0.5570000D+00
EXPONENTS  0.5570000D+00 0.5570000D+00 0.5570000D+00 0.5570000D+00 0.5570000D+00
EXPONENTS  0.5570000D+00 0.5570000D+00 0.5570000D+00 0.5570000D+00 0.2180000D+00
EXPONENTS  0.2180000D+00 0.2180000D+00 0.2180000D+00 0.2180000D+00 0.2180000D+00
EXPONENTS  0.2180000D+00 0.2180000D+00 0.2180000D+00 0.2180000D+00
MO    1     MO 0.0        OCC NO =    2.0000385  ORB. ENERGY =    0.000000
  0.40078457D-13  0.74714317D-13  0.12627737D-12  0.18981845D-12  0.23315796D-12
  0.19677710D-12  0.73993327D-13 -0.80992263D-14 -0.60536699D-13 -0.22623947D-12
 -0.63117288D-12 -0.84559765D-12  0.99849315D-12  0.56485634D-12 -0.38014195D-11
 -0.60196639D-12  0.61542879D-13  0.57700361D-13  0.41086095D-13  0.74406249D-03
  0.69760588D-03  0.49673694D-03  0.59551019D-11  0.55832865D-11  0.39756326D-11
  0.38503206D-13  0.19819414D-03  0.45373664D-11  0.70832219D-15  0.30946899D-03
 -0.39628113D-11 -0.40509202D-14 -0.10509757D-04 -0.36319040D-12 -0.53523030D-12
  0.56921521D-11 -0.51569218D-11  0.17979941D-05 -0.12819812D-12  0.26891803D-03
  0.54509405D-12 -0.92839939D-12  0.38330534D-12  0.12185169D-05  0.40085900D-13
  0.28110605D-03  0.42156366D-13  0.12764244D-11 -0.13185807D-11  0.14306629D-05
 -0.15150275D-13  0.18757774D-03 -0.16643863D-14  0.24698303D-03  0.77899440D-12
  0.71470364D-14  0.26452376D-04 -0.14858866D-11 -0.21538775D-14 -0.76740145D-03
 -0.85109660D-12 -0.43174923D-05 -0.76629474D-15 -0.30060410D-03 -0.60096166D-12
 -0.12003145D-13 -0.21454833D-04  0.77594164D-12  0.14302029D-13  0.92326713D-03
  0.10269433D-11  0.72584167D-05 -0.13948696D-02 -0.26096522D-02 -0.45089002D-02
 -0.73094571D-02 -0.11100112D-01 -0.15428111D-01 -0.18342842D-01 -0.16340441D-01
 -0.81150086D-02 -0.13064477D-02 -0.13783795D-04 -0.68593784D-05 -0.22881738D-03
 -0.79738276D-03 -0.28715044D-02 -0.63298742D-02 -0.89104199D-02  0.42505607D-03
  0.11660832D-01  0.68949768D-02  0.22702805D-06  0.27498641D-05  0.57345517D-05
  0.16445696D-04  0.85400208D-06 -0.70921816D-04 -0.18324835D-03  0.14930213D-03
  0.38491404D-03 -0.21122002D-03 -0.10726371D-03  0.26487224D-01  0.34889871D-01
  0.38488989D-01  0.31968119D-01  0.16975958D-01  0.43798859D-02 -0.48526866D+01
 -0.63921235D+01 -0.70515128D+01 -0.58568335D+01 -0.31101411D+01 -0.80243267D+00
  0.65963475D+01  0.86889327D+01  0.95852529D+01  0.79613031D+01  0.42276728D+01
  0.10907617D+01 -0.14107244D-05  0.13637976D-04  0.19230969D-04  0.27505373D-04
 -0.13928334D-06 -0.25225021D-04  0.25174722D-03 -0.24337301D-02 -0.34318135D-02
 -0.49084011D-02  0.24855452D-04  0.45014668D-02 -0.32934762D-03  0.31839209D-02
  0.44896608D-02  0.64214026D-02 -0.32517079D-04 -0.58890319D-02  0.17235606D-03
 -0.31216087D-01  0.42590019D-01 -0.76610587D-06  0.34366047D-03 -0.50718847D-03
 -0.21553872D-07  0.96077266D-05 -0.19522427D-04  0.76165918D-05 -0.81313118D-03
  0.80551459D-03  0.60285268D-05  0.11832091D-05  0.73858549D-03  0.41800168D-04
  0.47694234D-03 -0.51874251D-03 -0.40670025D-05 -0.13768019D-05 -0.34738125D-03
 -0.21094735D-05 -0.15935853D-05  0.37030588D-05  0.23361912D-06  0.36593193D-06
  0.34819295D-05  0.19914841D-06 -0.22282349D-04 -0.98472884D-05  0.33667272D-06
  0.49200465D-04  0.37124181D-04 -0.93411794D-06  0.17646580D-04 -0.75823154D-05
 -0.12866740D-05  0.10915688D-06  0.84373502D-04 -0.40464947D-04 -0.10772969D-05
 -0.90705141D-05  0.43595014D-04  0.74982625D-06 -0.24404999D-03  0.77799827D-04
 -0.55771401D-06  0.13948697D-02  0.26096523D-02  0.45089004D-02  0.73094573D-02
  0.11100112D-01  0.15428112D-01  0.18342843D-01  0.16340442D-01  0.81150089D-02
  0.13064478D-02  0.13783796D-04  0.68593784D-05  0.22881738D-03  0.79738276D-03
  0.28715044D-02  0.63298742D-02  0.89104199D-02 -0.42505607D-03 -0.11660832D-01
 -0.68949768D-02 -0.22702804D-06 -0.27498640D-05 -0.57345515D-05 -0.16445695D-04
 -0.85400206D-06  0.70921814D-04  0.18324835D-03 -0.14930213D-03 -0.38491404D-03
  0.21122001D-03  0.10726371D-03 -0.26487226D-01 -0.34889872D-01 -0.38488991D-01
 -0.31968120D-01 -0.16975959D-01 -0.43798862D-02 -0.48526867D+01 -0.63921236D+01
 -0.70515129D+01 -0.58568336D+01 -0.31101412D+01 -0.80243268D+00 -0.65963476D+01
 -0.86889329D+01 -0.95852531D+01 -0.79613032D+01 -0.42276729D+01 -0.10907617D+01
  0.14107244D-05 -0.13637976D-04 -0.19230970D-04 -0.27505374D-04  0.13928334D-06
  0.25225022D-04  0.25174722D-03 -0.24337301D-02 -0.34318135D-02 -0.49084012D-02
  0.24855453D-04  0.45014668D-02  0.32934763D-03 -0.31839209D-02 -0.44896609D-02
 -0.64214027D-02  0.32517080D-04  0.58890320D-02 -0.17235607D-03 -0.31216087D-01
 -0.42590019D-01  0.76610593D-06  0.34366047D-03  0.50718847D-03  0.21553878D-07
  0.96077267D-05  0.19522428D-04 -0.76165916D-05  0.81313119D-03 -0.80551460D-03
  0.60285269D-05 -0.11832092D-05  0.73858549D-03 -0.41800168D-04 -0.47694235D-03
  0.51874252D-03 -0.40670026D-05  0.13768019D-05 -0.34738126D-03  0.21094734D-05
  0.15935861D-05 -0.37030595D-05  0.23361913D-06 -0.36593193D-06  0.34819300D-05
 -0.19914841D-06 -0.22282348D-04  0.98472884D-05 -0.33667270D-06  0.49200465D-04
 -0.37124180D-04  0.93411792D-06  0.17646580D-04  0.75823149D-05 -0.12866740D-05
 -0.10915689D-06  0.84373503D-04  0.40464947D-04  0.10772969D-05 -0.90705144D-05
 -0.43595015D-04 -0.74982624D-06 -0.24404999D-03 -0.77799825D-04 -0.55771404D-06
  0.62263590D-11  0.11640805D-10  0.20118771D-10  0.32541283D-10  0.49185061D-10
  0.67738012D-10  0.79177488D-10  0.68430539D-10  0.31936889D-10  0.43267477D-11
 -0.31646456D-13  0.68034416D-13  0.87457558D-12  0.31903260D-11  0.10764081D-10
  0.23642751D-10  0.30539986D-10 -0.49080356D-11 -0.41172585D-10 -0.22594984D-10
  0.21980532D-14  0.25037192D-13  0.51986236D-13  0.14294895D-12 -0.18534972D-13
 -0.64635003D-12 -0.16120996D-11  0.13344727D-11 -0.43493985D-12  0.92512531D-11
  0.21125801D-11  0.43500996D-09  0.57070832D-09  0.62594352D-09  0.51500747D-09
  0.27148265D-09  0.70634680D-10  0.83872014D+00  0.11003531D+01  0.12068492D+01
  0.99295920D+00  0.52343163D+00  0.13618707D+00 -0.51964596D-08 -0.68174595D-08
 -0.74772776D-08 -0.61520788D-08 -0.32430261D-08 -0.84377440D-09  0.34799076D-14
  0.12491348D-12  0.19817837D-12  0.23533073D-12  0.35611743D-13 -0.25917559D-12
  0.22748829D-04  0.81658359D-03  0.12955303D-02  0.15384025D-02  0.23280085D-03
 -0.16942810D-02 -0.40577884D-13 -0.14565688D-11 -0.23108828D-11 -0.27441025D-11
 -0.41525503D-12  0.30221483D-11  0.33065611D-11  0.59018392D-02 -0.36074048D-10
 -0.21292313D-13 -0.52199943D-03 -0.93909784D-12 -0.43463218D-15 -0.67217178D-05
 -0.41842145D-14  0.17238311D-12  0.36972640D-12 -0.54210951D-12  0.62339976D-05
  0.45385489D-13  0.69035961D-03 -0.74118535D-12  0.72914646D-12  0.12038889D-13
 -0.13201743D-05 -0.17748344D-13 -0.10463111D-03  0.79273402D-13 -0.70919004D-13
 -0.83543976D-14  0.48808570D-06 -0.14227471D-14  0.76545569D-04  0.10964146D-13
  0.63084285D-04  0.26270492D-12 -0.10563788D-13  0.23058254D-04  0.34770579D-12
 -0.22328650D-13 -0.21231111D-03 -0.11358206D-11 -0.57746636D-05 -0.11061596D-14
  0.27136667D-04  0.78994328D-13  0.42505606D-14  0.20631274D-05 -0.15845419D-12
 -0.93208196D-15 -0.83473129D-04 -0.78528795D-13 -0.18693991D-05
MO    2     MO 0.0        OCC NO =    2.0000376  ORB. ENERGY =    0.000000
 -0.56258903D-03 -0.10487793D-02 -0.17725799D-02 -0.26645182D-02 -0.32728833D-02
 -0.27621981D-02 -0.10386586D-02 -0.10917689D-05 -0.81602963D-05 -0.30496890D-04
 -0.85081575D-04 -0.11398585D-03  0.13459604D-03  0.18342183D-04 -0.44424741D-03
 -0.64471076D-04  0.38500144D-05  0.36096332D-05  0.25702739D-05 -0.57983365D-11
 -0.54363090D-11 -0.38709759D-11  0.81750648D-03  0.76646429D-03  0.54576823D-03
  0.24530552D-05 -0.14235803D-11  0.57387916D-03 -0.50391113D-06 -0.24861495D-11
 -0.50669849D-03 -0.13326034D-06  0.82119233D-13 -0.46047802D-04 -0.63803233D-04
  0.71576427D-03 -0.65196103D-03  0.96339510D-13 -0.57199432D-05 -0.19533410D-11
  0.63287283D-04 -0.11213337D-03  0.48846084D-04 -0.15243656D-13  0.26242814D-05
 -0.23457003D-11  0.47803854D-05  0.16311124D-03 -0.16789162D-03  0.20370510D-14
 -0.11762178D-06 -0.15000551D-11 -0.55323035D-06 -0.19593818D-11  0.99948334D-04
  0.29359489D-06 -0.25079834D-12 -0.19010125D-03  0.13660962D-05  0.61289437D-11
 -0.10974375D-03 -0.97338415D-14  0.15748441D-06  0.23801245D-11 -0.74366751D-04
 -0.68691096D-06  0.17591049D-12  0.98165740D-04  0.21445773D-06 -0.73162840D-11
  0.12493451D-03 -0.26122990D-13 -0.80019095D-03 -0.14970719D-02 -0.25866081D-02
 -0.41931957D-02 -0.63677701D-02 -0.88506013D-02 -0.10522687D-01 -0.93739750D-02
 -0.46553142D-02 -0.74946620D-03 -0.79073111D-05 -0.41553656D-05 -0.13861604D-03
 -0.48304914D-03 -0.17395382D-02 -0.38345954D-02 -0.53978728D-02  0.25749612D-03
  0.70640539D-02  0.41769309D-02  0.29122722D-06  0.35274728D-05  0.73561727D-05
  0.21096223D-04  0.10954975D-05 -0.90977143D-04 -0.23506746D-03  0.19152191D-03
  0.13794262D-03 -0.35354953D-03 -0.17159270D-03 -0.31464395D-01 -0.41445969D-01
 -0.45721391D-01 -0.37975195D-01 -0.20165883D-01 -0.52029031D-02  0.41841051D+01
  0.55114453D+01  0.60799869D+01  0.50499051D+01  0.26816398D+01  0.69187707D+00
 -0.70562125D+01 -0.92946825D+01 -0.10253490D+02 -0.85163261D+01 -0.45224055D+01
 -0.11668042D+01  0.13864448D-05 -0.13403256D-04 -0.18899990D-04 -0.27031986D-04
  0.13688617D-06  0.24790880D-04 -0.18202237D-03  0.17596752D-02  0.24813257D-02
  0.35489521D-02 -0.17971394D-04 -0.32547238D-02  0.33136753D-03 -0.32034480D-02
 -0.45171961D-02 -0.64607854D-02  0.32716508D-04  0.59251496D-02 -0.20173892D-03
  0.27026389D-01 -0.45655316D-01  0.24088158D-05 -0.14315281D-03  0.13550924D-03
  0.13183445D-06 -0.10749270D-04  0.13333287D-04  0.14972186D-04  0.47416781D-03
 -0.48913999D-03 -0.38731720D-05 -0.23156268D-05 -0.44614597D-03  0.24751666D-04
 -0.28453828D-03  0.25978662D-03  0.18944718D-05  0.89881513D-06  0.41260839D-03
 -0.27893441D-05  0.47355565D-04 -0.44566221D-04  0.10236982D-06  0.20825047D-06
 -0.26995996D-04  0.20757232D-06 -0.30174818D-04  0.10936903D-05 -0.82651200D-07
  0.59179018D-04  0.30242460D-04 -0.54006575D-06  0.31345437D-04 -0.33523531D-04
 -0.96433211D-06 -0.23027435D-06 -0.46860629D-04 -0.11819287D-04  0.41767637D-06
  0.18267278D-04 -0.41592463D-04  0.27314668D-06  0.12231461D-03  0.77050325D-04
  0.95861226D-06 -0.80019095D-03 -0.14970719D-02 -0.25866082D-02 -0.41931957D-02
 -0.63677701D-02 -0.88506013D-02 -0.10522687D-01 -0.93739750D-02 -0.46553142D-02
 -0.74946621D-03 -0.79073112D-05 -0.41553657D-05 -0.13861604D-03 -0.48304916D-03
 -0.17395382D-02 -0.38345956D-02 -0.53978729D-02  0.25749613D-03  0.70640541D-02
  0.41769310D-02  0.29122722D-06  0.35274729D-05  0.73561728D-05  0.21096223D-04
  0.10954975D-05 -0.90977144D-04 -0.23506747D-03  0.19152191D-03  0.13794263D-03
 -0.35354954D-03 -0.17159270D-03 -0.31464396D-01 -0.41445971D-01 -0.45721393D-01
 -0.37975197D-01 -0.20165883D-01 -0.52029033D-02 -0.41841051D+01 -0.55114452D+01
 -0.60799868D+01 -0.50499050D+01 -0.26816397D+01 -0.69187706D+00 -0.70562124D+01
 -0.92946824D+01 -0.10253490D+02 -0.85163259D+01 -0.45224054D+01 -0.11668042D+01
  0.13864448D-05 -0.13403257D-04 -0.18899991D-04 -0.27031987D-04  0.13688617D-06
  0.24790881D-04  0.18202237D-03 -0.17596751D-02 -0.24813256D-02 -0.35489521D-02
  0.17971394D-04  0.32547238D-02  0.33136752D-03 -0.32034480D-02 -0.45171961D-02
 -0.64607853D-02  0.32716507D-04  0.59251495D-02 -0.20173893D-03 -0.27026388D-01
 -0.45655315D-01  0.24088158D-05  0.14315280D-03  0.13550924D-03  0.13183446D-06
  0.10749269D-04  0.13333287D-04  0.14972186D-04  0.47416779D-03 -0.48913998D-03
  0.38731721D-05 -0.23156269D-05  0.44614595D-03  0.24751667D-04 -0.28453828D-03
  0.25978661D-03 -0.18944718D-05  0.89881517D-06 -0.41260839D-03 -0.27893442D-05
  0.47355565D-04 -0.44566221D-04 -0.10236982D-06  0.20825046D-06  0.26995996D-04
  0.20757231D-06  0.30174819D-04  0.10936902D-05 -0.82651202D-07 -0.59179019D-04
  0.30242461D-04 -0.54006574D-06 -0.31345437D-04 -0.33523531D-04  0.96433213D-06
 -0.23027435D-06  0.46860627D-04 -0.11819288D-04  0.41767637D-06 -0.18267277D-04
 -0.41592462D-04  0.27314669D-06 -0.12231461D-03  0.77050326D-04 -0.95861227D-06
  0.51323945D-03  0.95955284D-03  0.16583925D-02  0.26823815D-02  0.40543299D-02
  0.55836517D-02  0.65266089D-02  0.56407368D-02  0.26325612D-02  0.35665428D-03
 -0.26086208D-05  0.64734913D-05  0.83216079D-04  0.30356030D-03  0.10242049D-02
  0.22496136D-02  0.29058871D-02 -0.46700078D-03 -0.39175815D-02 -0.21499182D-02
  0.23265041D-06  0.26500328D-05  0.55024233D-05  0.15130267D-04 -0.19618128D-05
 -0.68412175D-04 -0.17063083D-03  0.14124573D-03 -0.26433919D-04  0.11723895D-02
  0.25937601D-03 -0.27363284D-02 -0.35899072D-02 -0.39373513D-02 -0.32395340D-02
 -0.17076981D-02 -0.44431093D-03 -0.77522398D-08 -0.10170498D-07 -0.11154835D-07
 -0.91778622D-08 -0.48380471D-08 -0.12587689D-08 -0.57344335D+00 -0.75232506D+00
 -0.82513777D+00 -0.67889850D+00 -0.35787669D+00 -0.93112783D-01  0.26734479D-07
  0.95965098D-06  0.15225103D-05  0.18079343D-05  0.27358812D-06 -0.19911230D-05
 -0.19002660D-12 -0.68211249D-11 -0.10821886D-10 -0.12850657D-10 -0.19446432D-11
  0.14152748D-10 -0.45653968D-05 -0.16387780D-03 -0.25999623D-03 -0.30873755D-03
 -0.46720129D-04  0.34002035D-03 -0.17590918D-04 -0.54389161D-10 -0.39326089D-02
 -0.46416831D-05  0.42184378D-11 -0.11705186D-03 -0.11072895D-06  0.55942302D-13
 -0.89309234D-07  0.20095263D-04  0.45787081D-04 -0.65882344D-04 -0.58866363D-13
  0.22187000D-05 -0.55476206D-11 -0.91834939D-04  0.92066368D-04 -0.23142950D-06
  0.31746995D-13 -0.23693993D-06  0.91898657D-12  0.10395633D-04 -0.90150927D-05
 -0.13805407D-05 -0.74428039D-14  0.62511633D-06 -0.60881916D-12  0.55543808D-06
 -0.50140695D-12  0.33053448D-04 -0.90923487D-06 -0.19984352D-12  0.45335058D-04
 -0.75707937D-06  0.17040644D-11 -0.14449540D-03  0.34875543D-13 -0.74349114D-07
 -0.21834438D-12  0.97919096D-05  0.26839439D-06 -0.15763364D-13 -0.19899958D-04
 -0.45347053D-07  0.67079650D-12 -0.94757712D-05  0.24958918D-13
MO    3     MO 0.0        OCC NO =    2.0000330  ORB. ENERGY =    0.000000
  0.92252792D-11  0.17197779D-10  0.29066589D-10  0.43692505D-10  0.53668417D-10
  0.45294250D-10  0.17031821D-10  0.78484603D-15  0.58662378D-14  0.21923470D-13
  0.61163068D-13  0.81941649D-13 -0.96757808D-13  0.77365462D-12 -0.88434506D-13
 -0.13868250D-13 -0.64718303D-11 -0.60677523D-11 -0.43206011D-11  0.60118088D-05
  0.56364529D-05  0.40134902D-05  0.69323408D-14  0.64995101D-14  0.46280384D-14
 -0.13564543D-11 -0.86989574D-06 -0.27506603D-14  0.17782409D-12  0.11449595D-04
  0.11503750D-12  0.40882891D-13  0.52632169D-06  0.19067499D-14  0.40928525D-14
 -0.93152354D-13  0.89059502D-13  0.11747796D-02  0.17177915D-11 -0.87783612D-05
  0.19644176D-13 -0.23129433D-13  0.34852563D-14 -0.10409631D-03 -0.62536694D-13
  0.69020171D-05  0.31211862D-14 -0.16562420D-13  0.13441233D-13  0.11685152D-03
  0.25640601D-12  0.57289212D-05  0.14961105D-12  0.55284506D-08 -0.19243065D-14
 -0.28866639D-12 -0.51083956D-06 -0.10251255D-13 -0.16016678D-12  0.49425421D-06
  0.16024175D-13 -0.46335482D-03 -0.60959162D-13 -0.48233992D-06  0.88534897D-14
  0.19814447D-12  0.18907075D-06 -0.19354503D-13 -0.15266986D-13  0.12579490D-05
 -0.72059662D-14  0.34834726D-03  0.44980155D-04  0.84153070D-04  0.14539784D-03
  0.23570698D-03  0.35794367D-03  0.49750803D-03  0.59149892D-03  0.52692779D-03
  0.26168348D-03  0.42128827D-04  0.44448401D-06  0.21043438D-06  0.70197387D-05
  0.24462384D-04  0.88093005D-04  0.19419007D-03  0.27335694D-03 -0.13040017D-04
 -0.35773503D-03 -0.21152648D-03  0.45336704D-08  0.54913820D-07  0.11451698D-06
  0.32841477D-06  0.17054122D-07 -0.14162838D-05 -0.36594052D-05  0.29815111D-05
 -0.11842582D-04 -0.50540002D-05  0.11795696D-05  0.82135453D+01  0.10819161D+02
  0.11935228D+02  0.99131411D+01  0.52641530D+01  0.13581790D+01  0.26111361D-01
  0.34394771D-01  0.37942816D-01  0.31514479D-01  0.16735063D-01  0.43177337D-02
 -0.14479086D-01 -0.19072343D-01 -0.21039780D-01 -0.17475185D-01 -0.92798081D-02
 -0.23942390D-02 -0.35897771D-03  0.34703655D-02  0.48935776D-02  0.69991105D-02
 -0.35442510D-04 -0.64188444D-02 -0.11926826D-05  0.11530088D-04  0.16258627D-04
  0.23254138D-04 -0.11775568D-06 -0.21326238D-04  0.41305479D-06 -0.39931480D-05
 -0.56307555D-05 -0.80534698D-05  0.40781638D-07  0.73857914D-05  0.53791048D-01
  0.17266935D-03 -0.90756455D-04 -0.35370942D-03 -0.18279673D-05  0.47608350D-05
 -0.14916932D-04 -0.14260289D-06  0.10637896D-06 -0.83457501D-06  0.27971193D-05
 -0.19625443D-05  0.99073740D-03  0.56260125D-03 -0.22368656D-05  0.58358103D-06
 -0.12072370D-05  0.62365593D-06 -0.47787197D-03 -0.32825533D-03 -0.13901187D-05
 -0.40537319D-06 -0.18111294D-06  0.58648613D-06  0.39012207D-04  0.52139526D-04
  0.66201097D-06  0.21144315D-04  0.44056725D-06 -0.14817327D-06  0.44253283D-04
  0.29419092D-06  0.21326843D-06 -0.10768623D-03 -0.16158927D-05  0.23125139D-06
 -0.17198899D-04  0.17142788D-04 -0.23131097D-06  0.28711785D-06 -0.85418043D-04
  0.13766143D-06  0.15829896D-07  0.33989679D-04  0.55627149D-06 -0.87718345D-06
 -0.13698967D-03 -0.44980253D-04 -0.84153253D-04 -0.14539816D-03 -0.23570749D-03
 -0.35794445D-03 -0.49750911D-03 -0.59150021D-03 -0.52692894D-03 -0.26168405D-03
 -0.42128918D-04 -0.44448497D-06 -0.21043464D-06 -0.70197472D-05 -0.24462414D-04
 -0.88093112D-04 -0.19419030D-03 -0.27335727D-03  0.13040033D-04  0.35773546D-03
  0.21152674D-03 -0.45336761D-08 -0.54913889D-07 -0.11451713D-06 -0.32841518D-06
 -0.17054143D-07  0.14162855D-05  0.36594098D-05 -0.29815149D-05  0.11842598D-04
  0.50540001D-05 -0.11795696D-05 -0.82135452D+01 -0.10819160D+02 -0.11935228D+02
 -0.99131410D+01 -0.52641530D+01 -0.13581790D+01  0.26111363D-01  0.34394773D-01
  0.37942818D-01  0.31514482D-01  0.16735064D-01  0.43177340D-02  0.14479087D-01
  0.19072344D-01  0.21039781D-01  0.17475186D-01  0.92798086D-02  0.23942391D-02
  0.35897770D-03 -0.34703655D-02 -0.48935776D-02 -0.69991104D-02  0.35442510D-04
  0.64188444D-02 -0.11926826D-05  0.11530088D-04  0.16258628D-04  0.23254139D-04
 -0.11775569D-06 -0.21326239D-04 -0.41305484D-06  0.39931484D-05  0.56307560D-05
  0.80534707D-05 -0.40781642D-07 -0.73857922D-05 -0.53791048D-01  0.17266936D-03
  0.90756459D-04  0.35370942D-03 -0.18279674D-05 -0.47608350D-05  0.14916931D-04
 -0.14260289D-06 -0.10637896D-06  0.83457493D-06 -0.27971193D-05  0.19625444D-05
  0.99073740D-03 -0.56260125D-03 -0.22368660D-05 -0.58358104D-06  0.12072370D-05
 -0.62365597D-06 -0.47787197D-03  0.32825533D-03 -0.13901186D-05  0.40537318D-06
  0.18111294D-06 -0.58648613D-06  0.39012207D-04 -0.52139526D-04  0.66201095D-06
 -0.21144315D-04  0.44056725D-06  0.14817328D-06 -0.44253283D-04  0.29419092D-06
 -0.21326843D-06  0.10768623D-03 -0.16158927D-05 -0.23125140D-06 -0.17198900D-04
 -0.17142788D-04 -0.23131098D-06 -0.28711785D-06  0.85418043D-04  0.13766144D-06
 -0.15829894D-07 -0.33989680D-04  0.55627151D-06  0.87718345D-06 -0.13698966D-03
  0.12200314D-10  0.22809716D-10  0.39421969D-10  0.63763410D-10  0.96376260D-10
  0.13273006D-09  0.15514528D-09  0.13408704D-09  0.62579122D-10  0.84780978D-11
 -0.62010029D-13  0.12096042D-12  0.15549340D-11  0.56721759D-11  0.19137781D-10
  0.42035154D-10  0.54297953D-10 -0.87261431D-11 -0.73201969D-10 -0.40172296D-10
  0.68859240D-15  0.78434955D-14  0.16285924D-13  0.44782155D-13 -0.58065207D-14
 -0.20248451D-12 -0.50502853D-12  0.41805530D-12 -0.23550903D-11 -0.10732841D-12
 -0.59261692D-14 -0.20259704D-08 -0.26579579D-08 -0.29152046D-08 -0.23985425D-08
 -0.12643752D-08 -0.32896665D-09  0.81800221D-02  0.10731724D-01  0.11770378D-01
  0.96843128D-02  0.51050191D-02  0.13282299D-02  0.27509895D-09  0.36091418D-09
  0.39584474D-09  0.32568913D-09  0.17168479D-09  0.44669153D-10 -0.30184532D-13
 -0.10834928D-11 -0.17189885D-11 -0.20412461D-11 -0.30889434D-12  0.22480751D-11
  0.14403420D-06  0.51701987D-05  0.82026498D-05  0.97403950D-05  0.14739785D-05