 Entering Gaussian System, Link 0=/home/bruns/programas/chemistry/gaussian/g09/g09
 Input=GAUSSIAN.com
 Output=GAUSSIAN.log
 Initial command:
 /home/bruns/programas/chemistry/gaussian/g09/l1.exe /home/bruns/programas/chemistry/gaussian/work/Gau-58024.inp -scrdir=/home/bruns/programas/chemistry/gaussian/work/
 Entering Link 1 = /home/bruns/programas/chemistry/gaussian/g09/l1.exe PID=     58026.
  
 Copyright (c) 1988,1990,1992,1993,1995,1998,2003,2009,2010,
            Gaussian, Inc.  All Rights Reserved.
  
 This is part of the Gaussian(R) 09 program.  It is based on
 the Gaussian(R) 03 system (copyright 2003, Gaussian, Inc.),
 the Gaussian(R) 98 system (copyright 1998, Gaussian, Inc.),
 the Gaussian(R) 94 system (copyright 1995, Gaussian, Inc.),
 the Gaussian 92(TM) system (copyright 1992, Gaussian, Inc.),
 the Gaussian 90(TM) system (copyright 1990, Gaussian, Inc.),
 the Gaussian 88(TM) system (copyright 1988, Gaussian, Inc.),
 the Gaussian 86(TM) system (copyright 1986, Carnegie Mellon
 University), and the Gaussian 82(TM) system (copyright 1983,
 Carnegie Mellon University). Gaussian is a federally registered
 trademark of Gaussian, Inc.
  
 This software contains proprietary and confidential information,
 including trade secrets, belonging to Gaussian, Inc.
  
 This software is provided under written license and may be
 used, copied, transmitted, or stored only in accord with that
 written license.
  
 The following legend is applicable only to US Government
 contracts under FAR:
  
                    RESTRICTED RIGHTS LEGEND
  
 Use, reproduction and disclosure by the US Government is
 subject to restrictions as set forth in subparagraphs (a)
 and (c) of the Commercial Computer Software - Restricted
 Rights clause in FAR 52.227-19.
  
 Gaussian, Inc.
 340 Quinnipiac St., Bldg. 40, Wallingford CT 06492
  
  
 ---------------------------------------------------------------
 Warning -- This program may not be used in any manner that
 competes with the business of Gaussian, Inc. or will provide
 assistance to any competitor of Gaussian, Inc.  The licensee
 of this program is prohibited from giving any competitor of
 Gaussian, Inc. access to this program.  By using this program,
 the user acknowledges that Gaussian, Inc. is engaged in the
 business of creating and licensing software in the field of
 computational chemistry and represents and warrants to the
 licensee that it is not a competitor of Gaussian, Inc. and that
 it will not use this program in any manner prohibited above.
 ---------------------------------------------------------------
  

 Cite this work as:
 Gaussian 09, Revision B.01,
 M. J. Frisch, G. W. Trucks, H. B. Schlegel, G. E. Scuseria, 
 M. A. Robb, J. R. Cheeseman, G. Scalmani, V. Barone, B. Mennucci, 
 G. A. Petersson, H. Nakatsuji, M. Caricato, X. Li, H. P. Hratchian, 
 A. F. Izmaylov, J. Bloino, G. Zheng, J. L. Sonnenberg, M. Hada, 
 M. Ehara, K. Toyota, R. Fukuda, J. Hasegawa, M. Ishida, T. Nakajima, 
 Y. Honda, O. Kitao, H. Nakai, T. Vreven, J. A. Montgomery, Jr., 
 J. E. Peralta, F. Ogliaro, M. Bearpark, J. J. Heyd, E. Brothers, 
 K. N. Kudin, V. N. Staroverov, T. Keith, R. Kobayashi, J. Normand, 
 K. Raghavachari, A. Rendell, J. C. Burant, S. S. Iyengar, J. Tomasi, 
 M. Cossi, N. Rega, J. M. Millam, M. Klene, J. E. Knox, J. B. Cross, 
 V. Bakken, C. Adamo, J. Jaramillo, R. Gomperts, R. E. Stratmann, 
 O. Yazyev, A. J. Austin, R. Cammi, C. Pomelli, J. W. Ochterski, 
 R. L. Martin, K. Morokuma, V. G. Zakrzewski, G. A. Voth, 
 P. Salvador, J. J. Dannenberg, S. Dapprich, A. D. Daniels, 
 O. Farkas, J. B. Foresman, J. V. Ortiz, J. Cioslowski, 
 and D. J. Fox, Gaussian, Inc., Wallingford CT, 2010.
 
 ******************************************
 Gaussian 09:  EM64L-G09RevB.01 12-Aug-2010
                27-Nov-2021 
 ******************************************
 %nproc=8
 Will use up to    8 processors via shared memory.
 %mem=8GB
 -----------------------------------------------------
 # qcisd/aug-cc-pvtz nosymm density=current output=wfn
 -----------------------------------------------------
 1/30=1,38=1/1;
 2/12=2,15=1,17=6,18=5,40=1/2;
 3/5=16,6=1,7=10,11=9,16=1,25=1,30=1,71=1/1,2,3;
 4//1;
 5/5=2,38=5/2;
 8/6=4,9=120000,10=1/1,4;
 9/5=8,15=1/13;
 11/28=-7,31=1,32=3,42=3/11;
 10/5=6,13=10,31=1/2;
 6/7=2,8=2,9=2,10=2,22=-1,31=1/1;
 99/5=1,6=1100,9=1/99;
 ------------------
 cl2cs-wavefunction
 ------------------
 Symbolic Z-matrix:
 Charge =  0 Multiplicity = 1
 C                     0.        0.       -0.53291 
 Cl                    0.       -1.43074  -1.5009 
 Cl                    0.        1.43074  -1.5009 
 S                     0.        0.        1.08181 
 
                          Input orientation:                          
 ---------------------------------------------------------------------
 Center     Atomic      Atomic             Coordinates (Angstroms)
 Number     Number       Type             X           Y           Z
 ---------------------------------------------------------------------
      1          6           0        0.000000    0.000000   -0.532914
      2         17           0        0.000000   -1.430735   -1.500900
      3         17           0        0.000000    1.430735   -1.500900
      4         16           0        0.000000    0.000000    1.081815
 ---------------------------------------------------------------------
                    Distance matrix (angstroms):
                    1          2          3          4
     1  C    0.000000
     2  Cl   1.727426   0.000000
     3  Cl   1.727426   2.861470   0.000000
     4  S    1.614729   2.952528   2.952528   0.000000
 Symmetry turned off by external request.
 Stoichiometry    CCl2S
 Framework group  C2V[C2(CS),SGV(Cl2)]
 Deg. of freedom     3
 Full point group                 C2V     NOp   4
 Rotational constants (GHZ):      3.5301033      3.4467220      1.7439572
 Standard basis: Aug-CC-pVTZ (5D, 7F)
 Integral buffers will be    131072 words long.
 Raffenetti 1 integral format.
 Two-electron integral symmetry is turned off.
   196 basis functions,   414 primitive gaussians,   232 cartesian basis functions
    28 alpha electrons       28 beta electrons
       nuclear repulsion energy       244.8997492193 Hartrees.
 NAtoms=    4 NActive=    4 NUniq=    4 SFac= 1.00D+00 NAtFMM=   50 NAOKFM=F Big=F
 One-electron integrals computed using PRISM.
 NBasis=   196 RedAO= T  NBF=   196
 NBsUse=   196 1.00D-06 NBFU=   196
 Harris functional with IExCor=  205 diagonalized for initial guess.
 ExpMin= 3.51D-02 ExpMax= 4.56D+05 ExpMxC= 1.44D+03 IAcc=3 IRadAn=         0 AccDes= 0.00D+00
 HarFok:  IExCor=  205 AccDes= 0.00D+00 IRadAn=         0 IDoV= 1
 ScaDFX=  1.000000  1.000000  1.000000  1.000000
 FoFCou: FMM=F IPFlag=           0 FMFlag=      100000 FMFlg1=           0
         NFxFlg=           0 DoJE=T BraDBF=F KetDBF=T FulRan=T
         Omega=  0.000000  0.000000  1.000000  0.000000  0.000000 ICntrl=     500 IOpCl=  0
         NMat0=    1 NMatS0=    1 NMatT0=    0 NMatD0=    1 NMtDS0=    0 NMtDT0=    0
         I1Cent=           4 NGrid=           0.
 Symmetry not used in FoFCou.
 Requested convergence on RMS density matrix=1.00D-08 within 128 cycles.
 Requested convergence on MAX density matrix=1.00D-06.
 Requested convergence on             energy=1.00D-06.
 No special actions if energy rises.
 Keep R1 ints in memory in canonical form, NReq=371777346.
 SCF Done:  E(RHF) =  -1354.42579027     A.U. after   12 cycles
             Convg  =    0.9467D-08             -V/T =  2.0001
 ExpMin= 3.51D-02 ExpMax= 4.56D+05 ExpMxC= 1.44D+03 IAcc=3 IRadAn=         5 AccDes= 0.00D+00
 HarFok:  IExCor=  205 AccDes= 0.00D+00 IRadAn=         5 IDoV=-2
 ScaDFX=  1.000000  1.000000  1.000000  1.000000
 Range of M.O.s used for correlation:    17   196
 NBasis=   196 NAE=    28 NBE=    28 NFC=    16 NFV=     0
 NROrb=    180 NOA=    12 NOB=    12 NVA=   168 NVB=   168

 **** Warning!!: The largest alpha MO coefficient is  0.31558052D+02

 Semi-Direct transformation.
 ModeAB=           2 MOrb=            12 LenV=    1072679861
 LASXX=     33405819 LTotXX=    33405819 LenRXX=    33405819
 LTotAB=    33954012 MaxLAS=    58380480 LenRXY=    58380480
 NonZer=    66811638 LenScr=   100987392 LnRSAI=           0
 LnScr1=           0 LExtra=           0 Total=    192773691
 MaxDsk=          -1 SrtSym=           F ITran=            4
 JobTyp=0 Pass  1:  I=   1 to  12.
 (rs|ai) integrals will be sorted in core.
 Spin components of T(2) and E(2):
     alpha-alpha T2 =       0.3956859889D-01 E2=     -0.9369484807D-01
     alpha-beta  T2 =       0.2074731927D+00 E2=     -0.5371671338D+00
     beta-beta   T2 =       0.3956859889D-01 E2=     -0.9369484807D-01
 ANorm=    0.1134288495D+01
 E2 =    -0.7245568299D+00 EUMP2 =    -0.13551503470987D+04
 R2 and R3 integrals will be kept in memory, NReq=   736864364.
 Iterations=  50 Convergence= 0.100D-07
 Iteration Nr.   1
 **********************
 DD1Dir will call FoFMem   1 times, MxPair=       156
 NAB=    78 NAA=     0 NBB=     0.
 MP4(R+Q)=  0.24928546D-01
 E3=       -0.32519429D-01        EUMP3=      -0.13551828665D+04
 E4(DQ)=    0.31150160D-02        UMP4(DQ)=   -0.13551797515D+04
 E4(SDQ)=  -0.37591771D-02        UMP4(SDQ)=  -0.13551866257D+04
 DE(Corr)= -0.73214771     E(Corr)=     -1355.1579380    
 NORM(A)=   0.11381802D+01
 Iteration Nr.   2
 **********************
 DD1Dir will call FoFMem   1 times, MxPair=       156
 NAB=    78 NAA=     0 NBB=     0.
 DE(Corr)= -0.75657256     E(CORR)=     -1355.1823628     Delta=-2.44D-02
 NORM(A)=   0.11492252D+01
 Iteration Nr.   3
 **********************
 DD1Dir will call FoFMem   1 times, MxPair=       156
 NAB=    78 NAA=     0 NBB=     0.
 DE(Corr)= -0.75572664     E(CORR)=     -1355.1815169     Delta= 8.46D-04
 NORM(A)=   0.11520150D+01
 Iteration Nr.   4
 **********************
 DD1Dir will call FoFMem   1 times, MxPair=       156
 NAB=    78 NAA=     0 NBB=     0.
 DE(Corr)= -0.75801062     E(CORR)=     -1355.1838009     Delta=-2.28D-03
 NORM(A)=   0.11531230D+01
 Iteration Nr.   5
 **********************
 DD1Dir will call FoFMem   1 times, MxPair=       156
 NAB=    78 NAA=     0 NBB=     0.
 DE(Corr)= -0.75829508     E(CORR)=     -1355.1840853     Delta=-2.84D-04
 NORM(A)=   0.11536802D+01
 Iteration Nr.   6
 **********************
 DD1Dir will call FoFMem   1 times, MxPair=       156
 NAB=    78 NAA=     0 NBB=     0.
 DE(Corr)= -0.75834948     E(CORR)=     -1355.1841398     Delta=-5.44D-05
 NORM(A)=   0.11537472D+01
 Iteration Nr.   7
 **********************
 DD1Dir will call FoFMem   1 times, MxPair=       156
 NAB=    78 NAA=     0 NBB=     0.
 DE(Corr)= -0.75835705     E(CORR)=     -1355.1841473     Delta=-7.56D-06
 NORM(A)=   0.11537523D+01
 Iteration Nr.   8
 **********************
 DD1Dir will call FoFMem   1 times, MxPair=       156
 NAB=    78 NAA=     0 NBB=     0.
 DE(Corr)= -0.75835527     E(CORR)=     -1355.1841455     Delta= 1.78D-06
 NORM(A)=   0.11537592D+01
 Iteration Nr.   9
 **********************
 DD1Dir will call FoFMem   1 times, MxPair=       156
 NAB=    78 NAA=     0 NBB=     0.
 DE(Corr)= -0.75835510     E(CORR)=     -1355.1841454     Delta= 1.65D-07
 NORM(A)=   0.11537578D+01
 Iteration Nr.  10
 **********************
 DD1Dir will call FoFMem   1 times, MxPair=       156
 NAB=    78 NAA=     0 NBB=     0.
 DE(Corr)= -0.75835617     E(CORR)=     -1355.1841464     Delta=-1.07D-06
 NORM(A)=   0.11537596D+01
 Iteration Nr.  11
 **********************
 DD1Dir will call FoFMem   1 times, MxPair=       156
 NAB=    78 NAA=     0 NBB=     0.
 DE(Corr)= -0.75835684     E(CORR)=     -1355.1841471     Delta=-6.71D-07
 NORM(A)=   0.11537606D+01
 Iteration Nr.  12
 **********************
 DD1Dir will call FoFMem   1 times, MxPair=       156
 NAB=    78 NAA=     0 NBB=     0.
 DE(Corr)= -0.75835709     E(CORR)=     -1355.1841474     Delta=-2.46D-07
 NORM(A)=   0.11537614D+01
 Iteration Nr.  13
 **********************
 DD1Dir will call FoFMem   1 times, MxPair=       156
 NAB=    78 NAA=     0 NBB=     0.
 DE(Corr)= -0.75835739     E(CORR)=     -1355.1841477     Delta=-2.97D-07
 NORM(A)=   0.11537619D+01
 Iteration Nr.  14
 **********************
 DD1Dir will call FoFMem   1 times, MxPair=       156
 NAB=    78 NAA=     0 NBB=     0.
 DE(Corr)= -0.75835742     E(CORR)=     -1355.1841477     Delta=-2.96D-08
 NORM(A)=   0.11537621D+01
 Iteration Nr.  15
 **********************
 DD1Dir will call FoFMem   1 times, MxPair=       156
 NAB=    78 NAA=     0 NBB=     0.
 DE(Corr)= -0.75835748     E(CORR)=     -1355.1841477     Delta=-5.90D-08
 NORM(A)=   0.11537622D+01
 Iteration Nr.  16
 **********************
 DD1Dir will call FoFMem   1 times, MxPair=       156
 NAB=    78 NAA=     0 NBB=     0.
 DE(Corr)= -0.75835749     E(CORR)=     -1355.1841478     Delta=-1.19D-08
 NORM(A)=   0.11537623D+01
 Iteration Nr.  17
 **********************
 DD1Dir will call FoFMem   1 times, MxPair=       156
 NAB=    78 NAA=     0 NBB=     0.
 DE(Corr)= -0.75835749     E(CORR)=     -1355.1841478     Delta= 1.01D-09
 NORM(A)=   0.11537623D+01
 Iteration Nr.  18
 **********************
 DD1Dir will call FoFMem   1 times, MxPair=       156
 NAB=    78 NAA=     0 NBB=     0.
 DE(Corr)= -0.75835749     E(CORR)=     -1355.1841478     Delta=-4.37D-09
 NORM(A)=   0.11537623D+01
 Iteration Nr.  19
 **********************
 DD1Dir will call FoFMem   1 times, MxPair=       156
 NAB=    78 NAA=     0 NBB=     0.
 DE(Corr)= -0.75835749     E(CORR)=     -1355.1841478     Delta= 2.63D-09
 NORM(A)=   0.11537623D+01
 Largest amplitude= 9.09D-02

 Z-AMPLITUDE ITERATIONS

 Iteration Nr.   1
 **********************
 DD1Dir will call FoFMem   1 times, MxPair=       156
 NAB=    78 NAA=     0 NBB=     0.
 DE(Z)  -0.72643316D+00          E(Z)=    -0.13551522234D+04
 NORM(A)=   0.11537655D+01
 Iteration Nr.   2
 **********************
 DD1Dir will call FoFMem   1 times, MxPair=       156
 NAB=    78 NAA=     0 NBB=     0.
 DE(Z)  -0.72643324D+00          E(Z)=    -0.13551522235D+04
 NORM(A)=   0.11537624D+01
 Iteration Nr.   3
 **********************
 DD1Dir will call FoFMem   1 times, MxPair=       156
 NAB=    78 NAA=     0 NBB=     0.
 DE(Z)  -0.72643316D+00          E(Z)=    -0.13551522234D+04
 NORM(A)=   0.11537624D+01
 Iteration Nr.   4
 **********************
 DD1Dir will call FoFMem   1 times, MxPair=       156
 NAB=    78 NAA=     0 NBB=     0.
 DE(Z)  -0.72643316D+00          E(Z)=    -0.13551522234D+04
 NORM(A)=   0.11537624D+01
 Iteration Nr.   5
 **********************
 DD1Dir will call FoFMem   1 times, MxPair=       156
 NAB=    78 NAA=     0 NBB=     0.
 DE(Z)  -0.72643316D+00          E(Z)=    -0.13551522234D+04
 NORM(A)=   0.11406305D+01
 Iteration Nr.   6
 **********************
 DD1Dir will call FoFMem   1 times, MxPair=       156
 NAB=    78 NAA=     0 NBB=     0.
 DE(Z)  -0.72608837D+00          E(Z)=    -0.13551518786D+04
 NORM(A)=   0.11405292D+01
 Iteration Nr.   7
 **********************
 DD1Dir will call FoFMem   1 times, MxPair=       156
 NAB=    78 NAA=     0 NBB=     0.
 DE(Z)  -0.72607340D+00          E(Z)=    -0.13551518637D+04
 NORM(A)=   0.11404761D+01
 Iteration Nr.   8
 **********************
 DD1Dir will call FoFMem   1 times, MxPair=       156
 NAB=    78 NAA=     0 NBB=     0.
 DE(Z)  -0.72605848D+00          E(Z)=    -0.13551518487D+04
 NORM(A)=   0.11404519D+01
 Iteration Nr.   9
 **********************
 DD1Dir will call FoFMem   1 times, MxPair=       156
 NAB=    78 NAA=     0 NBB=     0.
 DE(Z)  -0.72606023D+00          E(Z)=    -0.13551518505D+04
 NORM(A)=   0.11404509D+01
 Iteration Nr.  10
 **********************
 DD1Dir will call FoFMem   1 times, MxPair=       156
 NAB=    78 NAA=     0 NBB=     0.
 DE(Z)  -0.72605849D+00          E(Z)=    -0.13551518488D+04
 NORM(A)=   0.11404505D+01
 Iteration Nr.  11
 **********************
 DD1Dir will call FoFMem   1 times, MxPair=       156
 NAB=    78 NAA=     0 NBB=     0.
 DE(Z)  -0.72605942D+00          E(Z)=    -0.13551518497D+04
 NORM(A)=   0.11404512D+01
 Iteration Nr.  12
 **********************
 DD1Dir will call FoFMem   1 times, MxPair=       156
 NAB=    78 NAA=     0 NBB=     0.
 DE(Z)  -0.72605942D+00          E(Z)=    -0.13551518497D+04
 NORM(A)=   0.11404516D+01
 Iteration Nr.  13
 **********************
 DD1Dir will call FoFMem   1 times, MxPair=       156
 NAB=    78 NAA=     0 NBB=     0.
 DE(Z)  -0.72605929D+00          E(Z)=    -0.13551518496D+04
 NORM(A)=   0.11404517D+01
 Iteration Nr.  14
 **********************
 DD1Dir will call FoFMem   1 times, MxPair=       156
 NAB=    78 NAA=     0 NBB=     0.
 DE(Z)  -0.72605946D+00          E(Z)=    -0.13551518497D+04
 NORM(A)=   0.11404517D+01
 Iteration Nr.  15
 **********************
 DD1Dir will call FoFMem   1 times, MxPair=       156
 NAB=    78 NAA=     0 NBB=     0.
 DE(Z)  -0.72605937D+00          E(Z)=    -0.13551518496D+04
 NORM(A)=   0.11404517D+01
 Iteration Nr.  16
 **********************
 DD1Dir will call FoFMem   1 times, MxPair=       156
 NAB=    78 NAA=     0 NBB=     0.
 DE(Z)  -0.72605940D+00          E(Z)=    -0.13551518497D+04
 NORM(A)=   0.11404517D+01
 Iteration Nr.  17
 **********************
 DD1Dir will call FoFMem   1 times, MxPair=       156
 NAB=    78 NAA=     0 NBB=     0.
 DE(Z)  -0.72605939D+00          E(Z)=    -0.13551518497D+04
 NORM(A)=   0.11404517D+01
 Iteration Nr.  18
 **********************
 DD1Dir will call FoFMem   1 times, MxPair=       156
 NAB=    78 NAA=     0 NBB=     0.
 DE(Z)  -0.72605939D+00          E(Z)=    -0.13551518497D+04
 NORM(A)=   0.11404516D+01
 Discarding MO integrals.
          Differentiating once with respect to electric field.
                with respect to dipole field.
          Electric field/nuclear overlap derivatives assumed to be zero.
          Keep R1 ints in memory in canonical form, NReq=367211061.
          There are     1 degrees of freedom in the 1st order CPHF.  IDoFFX=0.
 LinEq1:  Iter=  0 NonCon=     1 RMS=2.09D-03 Max=6.36D-02
 AX will form     1 AO Fock derivatives at one time.
 LinEq1:  Iter=  1 NonCon=     1 RMS=9.25D-04 Max=1.67D-02
 LinEq1:  Iter=  2 NonCon=     1 RMS=4.14D-04 Max=1.03D-02
 LinEq1:  Iter=  3 NonCon=     1 RMS=1.06D-04 Max=1.89D-03
 LinEq1:  Iter=  4 NonCon=     1 RMS=2.67D-05 Max=9.77D-04
 LinEq1:  Iter=  5 NonCon=     1 RMS=9.04D-06 Max=2.38D-04
 LinEq1:  Iter=  6 NonCon=     1 RMS=2.67D-06 Max=9.26D-05
 LinEq1:  Iter=  7 NonCon=     1 RMS=7.68D-07 Max=1.41D-05
 LinEq1:  Iter=  8 NonCon=     1 RMS=1.41D-07 Max=2.23D-06
 LinEq1:  Iter=  9 NonCon=     1 RMS=2.61D-08 Max=3.78D-07
 LinEq1:  Iter= 10 NonCon=     1 RMS=6.91D-09 Max=1.81D-07
 LinEq1:  Iter= 11 NonCon=     1 RMS=1.44D-09 Max=2.32D-08
 LinEq1:  Iter= 12 NonCon=     1 RMS=3.31D-10 Max=5.62D-09
 LinEq1:  Iter= 13 NonCon=     0 RMS=7.08D-11 Max=8.68D-10
 Linear equations converged to 1.000D-10 1.000D-09 after    13 iterations.
 End of Minotr Frequency-dependent properties file   721 does not exist.
 End of Minotr Frequency-dependent properties file   722 does not exist.

 **********************************************************************

            Population analysis using the QCI/CC density.

 **********************************************************************

     Natural Orbital Coefficients:
                           1         2         3         4         5
     Eigenvalues --     2.00004   2.00004   2.00003   2.00003   2.00003
   1 1   C  1S          0.00000  -0.00250   0.00000   0.00000   0.00000
   2        2S          0.00000   0.00038   0.00000   0.00000   0.00000
   3        3S          0.00000   0.00000   0.00000   0.00000   0.00000
   4        4S          0.00000  -0.00293   0.00000   0.00000   0.00000
   5        5S          0.00000  -0.00100   0.00000   0.00000   0.00000
   6        6PX         0.00000   0.00000   0.00000   0.00162   0.00000
   7        6PY         0.00035   0.00000   0.00000   0.00000  -0.00101
   8        6PZ         0.00000   0.00039   0.00000   0.00000   0.00000
   9        7PX         0.00000   0.00000   0.00000   0.00172   0.00000
  10        7PY         0.00047   0.00000   0.00000   0.00000  -0.00222
  11        7PZ         0.00000   0.00134   0.00000   0.00000   0.00000
  12        8PX         0.00000   0.00000   0.00000  -0.00089   0.00000
  13        8PY         0.00290   0.00000   0.00000   0.00000   0.00659
  14        8PZ         0.00000  -0.00482   0.00000   0.00000   0.00000
  15        9PX         0.00000   0.00000   0.00000  -0.00099   0.00000
  16        9PY        -0.00046   0.00000   0.00000   0.00000   0.00156
  17        9PZ         0.00000  -0.00208   0.00000   0.00000   0.00000
  18       10D 0        0.00000  -0.00034   0.00000   0.00000   0.00000
  19       10D+1        0.00000   0.00000   0.00000  -0.00028   0.00000
  20       10D-1        0.00009   0.00000   0.00000   0.00000  -0.00035
  21       10D+2        0.00000  -0.00023   0.00000   0.00000   0.00000
  22       10D-2        0.00000   0.00000   0.00036   0.00000   0.00000
  23       11D 0        0.00000   0.00024   0.00000   0.00000   0.00000
  24       11D+1        0.00000   0.00000   0.00000   0.00011   0.00000
  25       11D-1        0.00064   0.00000   0.00000   0.00000   0.00107
  26       11D+2        0.00000   0.00046   0.00000   0.00000   0.00000
  27       11D-2        0.00000   0.00000  -0.00029   0.00000   0.00000
  28       12D 0        0.00000  -0.00576   0.00000   0.00000   0.00000
  29       12D+1        0.00000   0.00000   0.00000  -0.00269   0.00000
  30       12D-1        0.00368   0.00000   0.00000   0.00000  -0.00336
  31       12D+2        0.00000  -0.00313   0.00000   0.00000   0.00000
  32       12D-2        0.00000   0.00000   0.00232   0.00000   0.00000
  33       13F 0        0.00000   0.00012   0.00000   0.00000   0.00000
  34       13F+1        0.00000   0.00000   0.00000   0.00004   0.00000
  35       13F-1       -0.00040   0.00000   0.00000   0.00000  -0.00029
  36       13F+2        0.00000  -0.00003   0.00000   0.00000   0.00000
  37       13F-2        0.00000   0.00000  -0.00015   0.00000   0.00000
  38       13F+3        0.00000   0.00000   0.00000  -0.00010   0.00000
  39       13F-3       -0.00009   0.00000   0.00000   0.00000   0.00009
  40       14F 0        0.00000  -0.00095   0.00000   0.00000   0.00000
  41       14F+1        0.00000   0.00000   0.00000   0.00006   0.00000
  42       14F-1        0.00506   0.00000   0.00000   0.00000   0.00167
  43       14F+2        0.00000  -0.00008   0.00000   0.00000   0.00000
  44       14F-2        0.00000   0.00000   0.00118   0.00000   0.00000
  45       14F+3        0.00000   0.00000   0.00000   0.00060   0.00000
  46       14F-3        0.00120   0.00000   0.00000   0.00000  -0.00012
  47 2   Cl 1S         -0.00255  -0.00109   0.00000   0.00000   0.02437
  48        2S          0.00901   0.00415   0.00000   0.00000  -0.08283
  49        3S          0.00029   0.00044   0.00000   0.00000   0.00228
  50        4S          0.00062   0.00014   0.00000   0.00000  -0.00614
  51        5S         -0.00117  -0.00191   0.00000   0.00000   0.00400
  52        6S         -0.00123  -0.00196   0.00000   0.00000   0.00410
  53        7PX         0.00000   0.00000   0.69246  -0.68714   0.00000
  54        7PY        -0.40649   0.34912   0.00000   0.00000   0.13848
  55        7PZ         0.55800  -0.59708   0.00000   0.00000   0.03025
  56        8PX         0.00000   0.00000  -0.01498   0.01336   0.00000
  57        8PY         0.01048  -0.00751   0.00000   0.00000  -0.00291
  58        8PZ        -0.01384   0.01387   0.00000   0.00000  -0.00141
  59        9PX         0.00000   0.00000   0.03673  -0.03692   0.00000
  60        9PY        -0.02119   0.01826   0.00000   0.00000   0.00765
  61        9PZ         0.02918  -0.03128   0.00000   0.00000   0.00174
  62       10PX         0.00000   0.00000  -0.00315   0.00276   0.00000
  63       10PY         0.00312  -0.00121   0.00000   0.00000   0.00068
  64       10PZ        -0.00460   0.00122   0.00000   0.00000   0.00011
  65       11PX         0.00000   0.00000  -0.00055   0.00078   0.00000
  66       11PY         0.00035  -0.00039   0.00000   0.00000   0.00030
  67       11PZ        -0.00071   0.00050   0.00000   0.00000   0.00020
  68       12D 0        0.00045  -0.00027   0.00000   0.00000   0.00008
  69       12D+1        0.00000   0.00000   0.00018  -0.00018   0.00000
  70       12D-1        0.00024  -0.00015   0.00000   0.00000   0.00010
  71       12D+2        0.00027  -0.00015   0.00000   0.00000  -0.00006
  72       12D-2        0.00000   0.00000   0.00032  -0.00020   0.00000
  73       13D 0       -0.00208   0.00102   0.00000   0.00000   0.00009
  74       13D+1        0.00000   0.00000  -0.00074   0.00058   0.00000
  75       13D-1       -0.00083   0.00095   0.00000   0.00000  -0.00048
  76       13D+2       -0.00102   0.00070   0.00000   0.00000   0.00016
  77       13D-2        0.00000   0.00000  -0.00110   0.00102   0.00000
  78       14D 0        0.00005  -0.00090   0.00000   0.00000   0.00000
  79       14D+1        0.00000   0.00000   0.00061   0.00007   0.00000
  80       14D-1        0.00003  -0.00032   0.00000   0.00000   0.00007
  81       14D+2       -0.00003  -0.00060   0.00000   0.00000   0.00015
  82       14D-2        0.00000   0.00000   0.00046  -0.00048   0.00000
  83       15F 0       -0.00002   0.00000   0.00000   0.00000   0.00004
  84       15F+1        0.00000   0.00000  -0.00007  -0.00005   0.00000
  85       15F-1        0.00001   0.00002   0.00000   0.00000   0.00003
  86       15F+2        0.00002   0.00002   0.00000   0.00000  -0.00003
  87       15F-2        0.00000   0.00000  -0.00001  -0.00003   0.00000
  88       15F+3        0.00000   0.00000  -0.00001  -0.00003   0.00000
  89       15F-3        0.00003   0.00004   0.00000   0.00000  -0.00005
  90       16F 0       -0.00037  -0.00011   0.00000   0.00000   0.00019
  91       16F+1        0.00000   0.00000   0.00013   0.00018   0.00000
  92       16F-1       -0.00095   0.00047   0.00000   0.00000  -0.00017
  93       16F+2       -0.00008  -0.00029   0.00000   0.00000   0.00030
  94       16F-2        0.00000   0.00000  -0.00033   0.00033   0.00000
  95       16F+3        0.00000   0.00000   0.00031  -0.00022   0.00000
  96       16F-3       -0.00029   0.00019   0.00000   0.00000   0.00021
  97 3   Cl 1S          0.00255  -0.00109   0.00000   0.00000  -0.02437
  98        2S         -0.00901   0.00415   0.00000   0.00000   0.08283
  99        3S         -0.00029   0.00044   0.00000   0.00000  -0.00228
 100        4S         -0.00062   0.00014   0.00000   0.00000   0.00614
 101        5S          0.00117  -0.00191   0.00000   0.00000  -0.00400
 102        6S          0.00123  -0.00196   0.00000   0.00000  -0.00410
 103        7PX         0.00000   0.00000  -0.69246  -0.68714   0.00000
 104        7PY        -0.40649  -0.34912   0.00000   0.00000   0.13848
 105        7PZ        -0.55800  -0.59708   0.00000   0.00000  -0.03025
 106        8PX         0.00000   0.00000   0.01498   0.01336   0.00000
 107        8PY         0.01048   0.00751   0.00000   0.00000  -0.00291
 108        8PZ         0.01384   0.01387   0.00000   0.00000   0.00141
 109        9PX         0.00000   0.00000  -0.03673  -0.03692   0.00000
 110        9PY        -0.02119  -0.01826   0.00000   0.00000   0.00765
 111        9PZ        -0.02918  -0.03128   0.00000   0.00000  -0.00174
 112       10PX         0.00000   0.00000   0.00315   0.00276   0.00000
 113       10PY         0.00312   0.00121   0.00000   0.00000   0.00068
 114       10PZ         0.00460   0.00122   0.00000   0.00000  -0.00011
 115       11PX         0.00000   0.00000   0.00055   0.00078   0.00000
 116       11PY         0.00035   0.00039   0.00000   0.00000   0.00030
 117       11PZ         0.00071   0.00050   0.00000   0.00000  -0.00020
 118       12D 0       -0.00045  -0.00027   0.00000   0.00000  -0.00008
 119       12D+1        0.00000   0.00000  -0.00018  -0.00018   0.00000
 120       12D-1        0.00024   0.00015   0.00000   0.00000   0.00010
 121       12D+2       -0.00027  -0.00015   0.00000   0.00000   0.00006
 122       12D-2        0.00000   0.00000   0.00032   0.00020   0.00000
 123       13D 0        0.00208   0.00102   0.00000   0.00000  -0.00009
 124       13D+1        0.00000   0.00000   0.00074   0.00058   0.00000
 125       13D-1       -0.00083  -0.00095   0.00000   0.00000  -0.00048
 126       13D+2        0.00102   0.00070   0.00000   0.00000  -0.00016
 127       13D-2        0.00000   0.00000  -0.00110  -0.00102   0.00000
 128       14D 0       -0.00005  -0.00090   0.00000   0.00000   0.00000
 129       14D+1        0.00000   0.00000  -0.00061   0.00007   0.00000
 130       14D-1        0.00003   0.00032   0.00000   0.00000   0.00007
 131       14D+2        0.00003  -0.00060   0.00000   0.00000  -0.00015
 132       14D-2        0.00000   0.00000   0.00046   0.00048   0.00000
 133       15F 0        0.00002   0.00000   0.00000   0.00000  -0.00004
 134       15F+1        0.00000   0.00000   0.00007  -0.00005   0.00000
 135       15F-1        0.00001  -0.00002   0.00000   0.00000   0.00003
 136       15F+2       -0.00002   0.00002   0.00000   0.00000   0.00003
 137       15F-2        0.00000   0.00000  -0.00001   0.00003   0.00000
 138       15F+3        0.00000   0.00000   0.00001  -0.00003   0.00000
 139       15F-3        0.00003  -0.00004   0.00000   0.00000  -0.00005
 140       16F 0        0.00037  -0.00011   0.00000   0.00000  -0.00019
 141       16F+1        0.00000   0.00000  -0.00013   0.00018   0.00000
 142       16F-1       -0.00095  -0.00047   0.00000   0.00000  -0.00017
 143       16F+2        0.00008  -0.00029   0.00000   0.00000  -0.00030
 144       16F-2        0.00000   0.00000  -0.00033  -0.00033   0.00000
 145       16F+3        0.00000   0.00000  -0.00031  -0.00022   0.00000
 146       16F-3       -0.00029  -0.00019   0.00000   0.00000   0.00021
 147 4   S  1S          0.00000   0.00079   0.00000   0.00000   0.00000
 148        2S          0.00000  -0.00274   0.00000   0.00000   0.00000
 149        3S          0.00000   0.00033   0.00000   0.00000   0.00000
 150        4S          0.00000  -0.00003   0.00000   0.00000   0.00000
 151        5S          0.00000   0.00742   0.00000   0.00000   0.00000
 152        6S          0.00000   0.00347   0.00000   0.00000   0.00000
 153        7PX         0.00000   0.00000   0.00000   0.11561   0.00000
 154        7PY         0.08423   0.00000   0.00000   0.00000   0.94885
 155        7PZ         0.00000  -0.05652   0.00000   0.00000   0.00000
 156        8PX         0.00000   0.00000   0.00000  -0.00356   0.00000
 157        8PY        -0.00485   0.00000   0.00000   0.00000  -0.01855
 158        8PZ         0.00000   0.00097   0.00000   0.00000   0.00000
 159        9PX         0.00000   0.00000   0.00000   0.00667   0.00000
 160        9PY         0.00496   0.00000   0.00000   0.00000   0.05476
 161        9PZ         0.00000  -0.00323   0.00000   0.00000   0.00000
 162       10PX         0.00000   0.00000   0.00000   0.00139   0.00000
 163       10PY        -0.00575   0.00000   0.00000   0.00000  -0.00510
 164       10PZ         0.00000  -0.00132   0.00000   0.00000   0.00000
 165       11PX         0.00000   0.00000   0.00000   0.00022   0.00000
 166       11PY        -0.00031   0.00000   0.00000   0.00000  -0.00115
 167       11PZ         0.00000  -0.00001   0.00000   0.00000   0.00000
 168       12D 0        0.00000  -0.00038   0.00000   0.00000   0.00000
 169       12D+1        0.00000   0.00000   0.00000   0.00000   0.00000
 170       12D-1        0.00242   0.00000   0.00000   0.00000   0.00266
 171       12D+2        0.00000  -0.00010   0.00000   0.00000   0.00000
 172       12D-2        0.00000   0.00000  -0.00032   0.00000   0.00000
 173       13D 0        0.00000   0.00000   0.00000   0.00000   0.00000
 174       13D+1        0.00000   0.00000   0.00000  -0.00006   0.00000
 175       13D-1       -0.00006   0.00000   0.00000   0.00000  -0.00035
 176       13D+2        0.00000  -0.00009   0.00000   0.00000   0.00000
 177       13D-2        0.00000   0.00000   0.00010   0.00000   0.00000
 178       14D 0        0.00000  -0.00004   0.00000   0.00000   0.00000
 179       14D+1        0.00000   0.00000   0.00000  -0.00139   0.00000
 180       14D-1        0.00148   0.00000   0.00000   0.00000  -0.00031
 181       14D+2        0.00000   0.00037   0.00000   0.00000   0.00000
 182       14D-2        0.00000   0.00000  -0.00061   0.00000   0.00000
 183       15F 0        0.00000   0.00008   0.00000   0.00000   0.00000
 184       15F+1        0.00000   0.00000   0.00000  -0.00008   0.00000
 185       15F-1       -0.00022   0.00000   0.00000   0.00000  -0.00018
 186       15F+2        0.00000   0.00012   0.00000   0.00000   0.00000
 187       15F-2        0.00000   0.00000  -0.00006   0.00000   0.00000
 188       15F+3        0.00000   0.00000   0.00000   0.00001   0.00000
 189       15F-3       -0.00003   0.00000   0.00000   0.00000   0.00009
 190       16F 0        0.00000   0.00021   0.00000   0.00000   0.00000
 191       16F+1        0.00000   0.00000   0.00000   0.00024   0.00000
 192       16F-1       -0.00073   0.00000   0.00000   0.00000  -0.00088
 193       16F+2        0.00000  -0.00005   0.00000   0.00000   0.00000
 194       16F-2        0.00000   0.00000   0.00051   0.00000   0.00000
 195       16F+3        0.00000   0.00000   0.00000  -0.00017   0.00000
 196       16F-3       -0.00016   0.00000   0.00000   0.00000  -0.00017
                           6         7         8         9        10
     Eigenvalues --     2.00003   2.00003   2.00002   2.00001   2.00001
   1 1   C  1S         -0.16113   0.00000  -0.15294   0.62733   0.00000
   2        2S          0.00333   0.00000   0.00295  -0.01103   0.00000
   3        3S         -0.00590   0.00000  -0.00598   0.02482   0.00000
   4        4S         -0.00866   0.00000  -0.00716   0.00700   0.00000
   5        5S         -0.00148   0.00000   0.00023   0.00395   0.00000
   6        6PX         0.00000   0.00000   0.00000   0.00000   0.00000
   7        6PY         0.00000  -0.00090   0.00000   0.00000   0.00272
   8        6PZ        -0.00014   0.00000   0.00109  -0.00191   0.00000
   9        7PX         0.00000   0.00000   0.00000   0.00000   0.00000
  10        7PY         0.00000  -0.00026   0.00000   0.00000  -0.00027
  11        7PZ        -0.00076   0.00000  -0.00061   0.00118   0.00000
  12        8PX         0.00000   0.00000   0.00000   0.00000   0.00000
  13        8PY         0.00000   0.00303   0.00000   0.00000  -0.00207
  14        8PZ         0.00151   0.00000  -0.00701   0.00468   0.00000
  15        9PX         0.00000   0.00000   0.00000   0.00000   0.00000
  16        9PY         0.00000  -0.00059   0.00000   0.00000   0.00064
  17        9PZ        -0.00055   0.00000   0.00018   0.00098   0.00000
  18       10D 0       -0.00003   0.00000  -0.00010   0.00009   0.00000
  19       10D+1        0.00000   0.00000   0.00000   0.00000   0.00000
  20       10D-1        0.00000  -0.00011   0.00000   0.00000   0.00000
  21       10D+2        0.00006   0.00000   0.00003  -0.00016   0.00000
  22       10D-2        0.00000   0.00000   0.00000   0.00000   0.00000
  23       11D 0       -0.00044   0.00000  -0.00093   0.00044   0.00000
  24       11D+1        0.00000   0.00000   0.00000   0.00000   0.00000
  25       11D-1        0.00000  -0.00119   0.00000   0.00000   0.00246
  26       11D+2        0.00084   0.00000  -0.00029   0.00066   0.00000
  27       11D-2        0.00000   0.00000   0.00000   0.00000   0.00000
  28       12D 0        0.00058   0.00000  -0.00175   0.00208   0.00000
  29       12D+1        0.00000   0.00000   0.00000   0.00000   0.00000
  30       12D-1        0.00000  -0.00448   0.00000   0.00000   0.00480
  31       12D+2        0.00140   0.00000  -0.00075   0.00002   0.00000
  32       12D-2        0.00000   0.00000   0.00000   0.00000   0.00000
  33       13F 0       -0.00012   0.00000  -0.00001  -0.00003   0.00000
  34       13F+1        0.00000   0.00000   0.00000   0.00000   0.00000
  35       13F-1        0.00000  -0.00003   0.00000   0.00000   0.00000
  36       13F+2       -0.00004   0.00000  -0.00006   0.00000   0.00000
  37       13F-2        0.00000   0.00000   0.00000   0.00000   0.00000
  38       13F+3        0.00000   0.00000   0.00000   0.00000   0.00000
  39       13F-3        0.00000   0.00003   0.00000   0.00000  -0.00009
  40       14F 0        0.00014   0.00000   0.00041  -0.00149   0.00000
  41       14F+1        0.00000   0.00000   0.00000   0.00000   0.00000
  42       14F-1        0.00000   0.00001   0.00000   0.00000   0.00129
  43       14F+2       -0.00017   0.00000   0.00054  -0.00102   0.00000
  44       14F-2        0.00000   0.00000   0.00000   0.00000   0.00000
  45       14F+3        0.00000   0.00000   0.00000   0.00000   0.00000
  46       14F-3        0.00000  -0.00036   0.00000   0.00000   0.00082
  47 2   Cl 1S         -0.17575  -0.17517   0.01470  -0.05154  -0.10611
  48        2S          0.59291   0.59118  -0.04990   0.17638   0.36058
  49        3S         -0.01767  -0.01743   0.00128  -0.00233  -0.00588
  50        4S          0.04608   0.04593  -0.00382   0.01410   0.03008
  51        5S         -0.00138   0.00019  -0.00140  -0.00025  -0.00800
  52        6S         -0.00052  -0.00074  -0.00009  -0.00017   0.00168
  53        7PX         0.00000   0.00000   0.00000   0.00000   0.00000
  54        7PY        -0.29764  -0.26493   0.05387   0.13499   0.47161
  55        7PZ        -0.17200  -0.21655   0.00104   0.09882   0.34535
  56        8PX         0.00000   0.00000   0.00000   0.00000   0.00000
  57        8PY         0.00543   0.00501  -0.00141  -0.00138  -0.00811
  58        8PZ         0.00309   0.00415  -0.00036  -0.00086  -0.00629
  59        9PX         0.00000   0.00000   0.00000   0.00000   0.00000
  60        9PY        -0.01696  -0.01511   0.00304   0.00817   0.02893
  61        9PZ        -0.00982  -0.01232   0.00007   0.00598   0.02131
  62       10PX         0.00000   0.00000   0.00000   0.00000   0.00000
  63       10PY         0.00187   0.00187  -0.00053  -0.00013  -0.00047
  64       10PZ         0.00151   0.00085  -0.00049   0.00072  -0.00035
  65       11PX         0.00000   0.00000   0.00000   0.00000   0.00000
  66       11PY        -0.00005   0.00012  -0.00003  -0.00003   0.00011
  67       11PZ         0.00009  -0.00009  -0.00013  -0.00009   0.00024
  68       12D 0       -0.00005  -0.00002   0.00002  -0.00001  -0.00001
  69       12D+1        0.00000   0.00000   0.00000   0.00000   0.00000
  70       12D-1        0.00018   0.00018   0.00002   0.00011   0.00040
  71       12D+2       -0.00008  -0.00007   0.00002  -0.00015  -0.00032
  72       12D-2        0.00000   0.00000   0.00000   0.00000   0.00000
  73       13D 0       -0.00007   0.00023   0.00015  -0.00011  -0.00052
  74       13D+1        0.00000   0.00000   0.00000   0.00000   0.00000
  75       13D-1        0.00041   0.00047  -0.00009  -0.00003  -0.00219
  76       13D+2       -0.00049  -0.00033   0.00014   0.00034   0.00121
  77       13D-2        0.00000   0.00000   0.00000   0.00000   0.00000
  78       14D 0        0.00000  -0.00025   0.00018  -0.00004   0.00007
  79       14D+1        0.00000   0.00000   0.00000   0.00000   0.00000
  80       14D-1        0.00030   0.00018   0.00004   0.00025   0.00018
  81       14D+2       -0.00020   0.00021  -0.00005   0.00007  -0.00080
  82       14D-2        0.00000   0.00000   0.00000   0.00000   0.00000
  83       15F 0        0.00001   0.00004   0.00001   0.00000  -0.00004
  84       15F+1        0.00000   0.00000   0.00000   0.00000   0.00000
  85       15F-1        0.00000   0.00003   0.00001   0.00000  -0.00009
  86       15F+2       -0.00001  -0.00001   0.00000   0.00000   0.00004
  87       15F-2        0.00000   0.00000   0.00000   0.00000   0.00000
  88       15F+3        0.00000   0.00000   0.00000   0.00000   0.00000
  89       15F-3       -0.00003  -0.00003   0.00002   0.00001   0.00003
  90       16F 0       -0.00007  -0.00012   0.00009  -0.00024   0.00031
  91       16F+1        0.00000   0.00000   0.00000   0.00000   0.00000
  92       16F-1        0.00002   0.00007   0.00003   0.00000  -0.00040
  93       16F+2       -0.00014  -0.00013   0.00005  -0.00004   0.00052
  94       16F-2        0.00000   0.00000   0.00000   0.00000   0.00000
  95       16F+3        0.00000   0.00000   0.00000   0.00000   0.00000
  96       16F-3       -0.00011   0.00001  -0.00004   0.00017   0.00012
  97 3   Cl 1S         -0.17575   0.17517   0.01470  -0.05154   0.10611
  98        2S          0.59291  -0.59118  -0.04990   0.17638  -0.36058
  99        3S         -0.01767   0.01743   0.00128  -0.00233   0.00588
 100        4S          0.04608  -0.04593  -0.00382   0.01410  -0.03008
 101        5S         -0.00138  -0.00019  -0.00140  -0.00025   0.00800
 102        6S         -0.00052   0.00074  -0.00009  -0.00017  -0.00168
 103        7PX         0.00000   0.00000   0.00000   0.00000   0.00000
 104        7PY         0.29764  -0.26493  -0.05387  -0.13499   0.47161
 105        7PZ        -0.17200   0.21655   0.00104   0.09882  -0.34535
 106        8PX         0.00000   0.00000   0.00000   0.00000   0.00000
 107        8PY        -0.00543   0.00501   0.00141   0.00138  -0.00811
 108        8PZ         0.00309  -0.00415  -0.00036  -0.00086   0.00629
 109        9PX         0.00000   0.00000   0.00000   0.00000   0.00000
 110        9PY         0.01696  -0.01511  -0.00304  -0.00817   0.02893
 111        9PZ        -0.00982   0.01232   0.00007   0.00598  -0.02131
 112       10PX         0.00000   0.00000   0.00000   0.00000   0.00000
 113       10PY        -0.00187   0.00187   0.00053   0.00013  -0.00047
 114       10PZ         0.00151  -0.00085  -0.00049   0.00072   0.00035
 115       11PX         0.00000   0.00000   0.00000   0.00000   0.00000
 116       11PY         0.00005   0.00012   0.00003   0.00003   0.00011
 117       11PZ         0.00009   0.00009  -0.00013  -0.00009  -0.00024
 118       12D 0       -0.00005   0.00002   0.00002  -0.00001   0.00001
 119       12D+1        0.00000   0.00000   0.00000   0.00000   0.00000
 120       12D-1       -0.00018   0.00018  -0.00002  -0.00011   0.00040
 121       12D+2       -0.00008   0.00007   0.00002  -0.00015   0.00032
 122       12D-2        0.00000   0.00000   0.00000   0.00000   0.00000
 123       13D 0       -0.00007  -0.00023   0.00015  -0.00011   0.00052
 124       13D+1        0.00000   0.00000   0.00000   0.00000   0.00000
 125       13D-1       -0.00041   0.00047   0.00009   0.00003  -0.00219
 126       13D+2       -0.00049   0.00033   0.00014   0.00034  -0.00121
 127       13D-2        0.00000   0.00000   0.00000   0.00000   0.00000
 128       14D 0        0.00000   0.00025   0.00018  -0.00004  -0.00007
 129       14D+1        0.00000   0.00000   0.00000   0.00000   0.00000
 130       14D-1       -0.00030   0.00018  -0.00004  -0.00025   0.00018
 131       14D+2       -0.00020  -0.00021  -0.00005   0.00007   0.00080
 132       14D-2        0.00000   0.00000   0.00000   0.00000   0.00000
 133       15F 0        0.00001  -0.00004   0.00001   0.00000   0.00004
 134       15F+1        0.00000   0.00000   0.00000   0.00000   0.00000
 135       15F-1        0.00000   0.00003  -0.00001   0.00000  -0.00009
 136       15F+2       -0.00001   0.00001   0.00000   0.00000  -0.00004
 137       15F-2        0.00000   0.00000   0.00000   0.00000   0.00000
 138       15F+3        0.00000   0.00000   0.00000   0.00000   0.00000
 139       15F-3        0.00003  -0.00003  -0.00002  -0.00001   0.00003
 140       16F 0       -0.00007   0.00012   0.00009  -0.00024  -0.00031
 141       16F+1        0.00000   0.00000   0.00000   0.00000   0.00000
 142       16F-1       -0.00002   0.00007  -0.00003   0.00000  -0.00040
 143       16F+2       -0.00014   0.00013   0.00005  -0.00004  -0.00052
 144       16F-2        0.00000   0.00000   0.00000   0.00000   0.00000
 145       16F+3        0.00000   0.00000   0.00000   0.00000   0.00000
 146       16F-3        0.00011   0.00001   0.00004  -0.00017   0.00012
 147 4   S  1S         -0.01655   0.00000  -0.22113  -0.14602   0.00000
 148        2S          0.05637   0.00000   0.75589   0.50432   0.00000
 149        3S         -0.00168   0.00000  -0.02085  -0.00741   0.00000
 150        4S          0.00363   0.00000   0.05069   0.03627   0.00000
 151        5S          0.00139   0.00000   0.00613  -0.01163   0.00000
 152        6S          0.00205   0.00000  -0.00088  -0.00387   0.00000
 153        7PX         0.00000   0.00000   0.00000   0.00000   0.00000
 154        7PY         0.00000   0.19119   0.00000   0.00000  -0.09781
 155        7PZ         0.04036   0.00000   0.60546  -0.44652   0.00000
 156        8PX         0.00000   0.00000   0.00000   0.00000   0.00000
 157        8PY         0.00000  -0.00309   0.00000   0.00000  -0.00019
 158        8PZ        -0.00130   0.00000  -0.01138   0.00783   0.00000
 159        9PX         0.00000   0.00000   0.00000   0.00000   0.00000
 160        9PY         0.00000   0.01118   0.00000   0.00000  -0.00593
 161        9PZ         0.00265   0.00000   0.03726  -0.02928   0.00000
 162       10PX         0.00000   0.00000   0.00000   0.00000   0.00000
 163       10PY         0.00000   0.00179   0.00000   0.00000  -0.00350
 164       10PZ        -0.00211   0.00000  -0.00644   0.00529   0.00000
 165       11PX         0.00000   0.00000   0.00000   0.00000   0.00000
 166       11PY         0.00000   0.00019   0.00000   0.00000  -0.00025
 167       11PZ        -0.00022   0.00000   0.00013   0.00028   0.00000
 168       12D 0        0.00078   0.00000   0.00206  -0.00260   0.00000
 169       12D+1        0.00000   0.00000   0.00000   0.00000   0.00000
 170       12D-1        0.00000   0.00020   0.00000   0.00000   0.00074
 171       12D+2       -0.00005   0.00000  -0.00044   0.00021   0.00000
 172       12D-2        0.00000   0.00000   0.00000   0.00000   0.00000
 173       13D 0        0.00006   0.00000   0.00014   0.00022   0.00000
 174       13D+1        0.00000   0.00000   0.00000   0.00000   0.00000
 175       13D-1        0.00000   0.00002   0.00000   0.00000  -0.00007
 176       13D+2        0.00004   0.00000   0.00031   0.00014   0.00000
 177       13D-2        0.00000   0.00000   0.00000   0.00000   0.00000
 178       14D 0        0.00053   0.00000   0.00101  -0.00075   0.00000
 179       14D+1        0.00000   0.00000   0.00000   0.00000   0.00000
 180       14D-1        0.00000  -0.00074   0.00000   0.00000   0.00091
 181       14D+2       -0.00032   0.00000   0.00039   0.00005   0.00000
 182       14D-2        0.00000   0.00000   0.00000   0.00000   0.00000
 183       15F 0       -0.00013   0.00000  -0.00016   0.00026   0.00000
 184       15F+1        0.00000   0.00000   0.00000   0.00000   0.00000
 185       15F-1        0.00000  -0.00001   0.00000   0.00000  -0.00005
 186       15F+2       -0.00001   0.00000   0.00012  -0.00015   0.00000
 187       15F-2        0.00000   0.00000   0.00000   0.00000   0.00000
 188       15F+3        0.00000   0.00000   0.00000   0.00000   0.00000
 189       15F-3        0.00000   0.00003   0.00000   0.00000  -0.00005
 190       16F 0       -0.00013   0.00000  -0.00045   0.00046   0.00000
 191       16F+1        0.00000   0.00000   0.00000   0.00000   0.00000
 192       16F-1        0.00000  -0.00004   0.00000   0.00000  -0.00029
 193       16F+2        0.00012   0.00000  -0.00008  -0.00014   0.00000
 194       16F-2        0.00000   0.00000   0.00000   0.00000   0.00000
 195       16F+3        0.00000   0.00000   0.00000   0.00000   0.00000
 196       16F-3        0.00000   0.00000   0.00000   0.00000  -0.00003
                          11        12        13        14        15
     Eigenvalues --     2.00001   2.00001   2.00000   2.00000   2.00000
   1 1   C  1S          0.17746   0.00000   0.69849   0.00216   0.00122
   2        2S         -0.00341   0.00000  -0.00705  -0.00004  -0.00005
   3        3S          0.00607   0.00000   0.03004   0.00013   0.00005
   4        4S          0.01054   0.00000  -0.02287  -0.00046  -0.00006
   5        5S          0.00448   0.00000  -0.00564  -0.00023  -0.00010
   6        6PX         0.00000  -0.00180   0.00000   0.00000   0.00000
   7        6PY         0.00000   0.00000   0.00000   0.00000   0.00000
   8        6PZ         0.00232   0.00000  -0.00125  -0.00001   0.00001
   9        7PX         0.00000  -0.00140   0.00000   0.00000   0.00000
  10        7PY         0.00000   0.00000   0.00000   0.00000   0.00000
  11        7PZ         0.00148   0.00000   0.00243  -0.00002  -0.00008
  12        8PX         0.00000   0.00072   0.00000   0.00000   0.00000
  13        8PY         0.00000   0.00000   0.00000   0.00000   0.00000
  14        8PZ        -0.00363   0.00000   0.00224  -0.00007   0.00000
  15        9PX         0.00000  -0.00103   0.00000   0.00000   0.00000
  16        9PY         0.00000   0.00000   0.00000   0.00000   0.00000
  17        9PZ         0.00019   0.00000   0.00048  -0.00004  -0.00004
  18       10D 0        0.00005   0.00000   0.00028   0.00000   0.00000
  19       10D+1        0.00000  -0.00018   0.00000   0.00000   0.00000
  20       10D-1        0.00000   0.00000   0.00000   0.00000   0.00000
  21       10D+2       -0.00002   0.00000  -0.00022   0.00000   0.00000
  22       10D-2        0.00000   0.00000   0.00000   0.00000   0.00000
  23       11D 0        0.00064   0.00000  -0.00033  -0.00005  -0.00004
  24       11D+1        0.00000   0.00115   0.00000   0.00000   0.00000
  25       11D-1        0.00000   0.00000   0.00000   0.00000   0.00000
  26       11D+2       -0.00131   0.00000   0.00313   0.00006  -0.00002
  27       11D-2        0.00000   0.00000   0.00000   0.00000   0.00000
  28       12D 0       -0.00212   0.00000  -0.00125  -0.00007  -0.00005
  29       12D+1        0.00000  -0.00104   0.00000   0.00000   0.00000
  30       12D-1        0.00000   0.00000   0.00000   0.00000   0.00000
  31       12D+2       -0.00277   0.00000   0.00172   0.00003  -0.00002
  32       12D-2        0.00000   0.00000   0.00000   0.00000   0.00000
  33       13F 0        0.00026   0.00000   0.00027   0.00000   0.00000
  34       13F+1        0.00000  -0.00018   0.00000   0.00000   0.00000
  35       13F-1        0.00000   0.00000   0.00000   0.00000   0.00000
  36       13F+2       -0.00009   0.00000  -0.00003  -0.00001   0.00000
  37       13F-2        0.00000   0.00000   0.00000   0.00000   0.00000
  38       13F+3        0.00000   0.00007   0.00000   0.00000   0.00000
  39       13F-3        0.00000   0.00000   0.00000   0.00000   0.00000
  40       14F 0        0.00040   0.00000  -0.00114  -0.00003   0.00001
  41       14F+1        0.00000   0.00118   0.00000   0.00000   0.00000
  42       14F-1        0.00000   0.00000   0.00000   0.00000   0.00000
  43       14F+2        0.00068   0.00000  -0.00137  -0.00003   0.00002
  44       14F-2        0.00000   0.00000   0.00000   0.00000   0.00000
  45       14F+3        0.00000  -0.00014   0.00000   0.00000   0.00000
  46       14F-3        0.00000   0.00000   0.00000   0.00000   0.00000
  47 2   Cl 1S         -0.08798   0.00000   0.03010   0.57642  -0.40426
  48        2S          0.29957   0.00000  -0.10773   0.00533  -0.00421
  49        3S         -0.00476   0.00000   0.00060   0.00008  -0.00008
  50        4S          0.02488   0.00000  -0.00972   0.00009  -0.00010
  51        5S         -0.00739   0.00000   0.00906   0.00009   0.00004
  52        6S         -0.00061   0.00000   0.00344   0.00007   0.00005
  53        7PX         0.00000   0.08137   0.00000   0.00000   0.00000
  54        7PY         0.40840   0.00000  -0.27851  -0.00168   0.00001
  55        7PZ         0.22028   0.00000  -0.18494  -0.00108  -0.00013
  56        8PX         0.00000  -0.00044   0.00000   0.00000   0.00000
  57        8PY        -0.00705   0.00000   0.00480   0.00008  -0.00004
  58        8PZ        -0.00403   0.00000   0.00341   0.00006  -0.00003
  59        9PX         0.00000   0.00476   0.00000   0.00000   0.00000
  60        9PY         0.02515   0.00000  -0.01800  -0.00013   0.00002
  61        9PZ         0.01358   0.00000  -0.01200  -0.00009   0.00000
  62       10PX         0.00000  -0.00070   0.00000   0.00000   0.00000
  63       10PY        -0.00092   0.00000   0.00356   0.00004   0.00006
  64       10PZ        -0.00170   0.00000   0.00242   0.00001   0.00002
  65       11PX         0.00000   0.00034   0.00000   0.00000   0.00000
  66       11PY         0.00005   0.00000   0.00028   0.00001   0.00001
  67       11PZ        -0.00003   0.00000   0.00011   0.00001   0.00002
  68       12D 0        0.00001   0.00000   0.00001   0.00000   0.00000
  69       12D+1        0.00000  -0.00006   0.00000   0.00000   0.00000
  70       12D-1        0.00033   0.00000  -0.00031   0.00000   0.00000
  71       12D+2       -0.00022   0.00000   0.00021   0.00000   0.00000
  72       12D-2        0.00000  -0.00005   0.00000   0.00000   0.00000
  73       13D 0        0.00036   0.00000   0.00004   0.00000   0.00000
  74       13D+1        0.00000  -0.00005   0.00000   0.00000   0.00000
  75       13D-1       -0.00142   0.00000   0.00193   0.00003  -0.00001
  76       13D+2        0.00138   0.00000  -0.00120  -0.00002   0.00000
  77       13D-2        0.00000  -0.00022   0.00000   0.00000   0.00000
  78       14D 0        0.00002   0.00000   0.00012   0.00000   0.00000
  79       14D+1        0.00000  -0.00023   0.00000   0.00000   0.00000
  80       14D-1        0.00013   0.00000   0.00067   0.00000   0.00002
  81       14D+2       -0.00025   0.00000  -0.00058   0.00000  -0.00002
  82       14D-2        0.00000  -0.00055   0.00000   0.00000   0.00000
  83       15F 0        0.00001   0.00000   0.00003   0.00000   0.00000
  84       15F+1        0.00000   0.00000   0.00000   0.00000   0.00000
  85       15F-1        0.00003   0.00000  -0.00001   0.00000   0.00000
  86       15F+2        0.00003   0.00000   0.00000   0.00000   0.00000
  87       15F-2        0.00000  -0.00001   0.00000   0.00000   0.00000
  88       15F+3        0.00000  -0.00003   0.00000   0.00000   0.00000
  89       15F-3        0.00010   0.00000  -0.00004   0.00000   0.00000
  90       16F 0        0.00026   0.00000  -0.00027   0.00000   0.00000
  91       16F+1        0.00000   0.00001   0.00000   0.00000   0.00000
  92       16F-1        0.00001   0.00000   0.00031   0.00000   0.00000
  93       16F+2        0.00032   0.00000  -0.00045   0.00000   0.00000
  94       16F-2        0.00000   0.00000   0.00000   0.00000   0.00000
  95       16F+3        0.00000   0.00021   0.00000   0.00000   0.00000
  96       16F-3        0.00016   0.00000  -0.00018   0.00000   0.00000
  97 3   Cl 1S         -0.08798   0.00000   0.03010   0.57878  -0.40490
  98        2S          0.29957   0.00000  -0.10773   0.00536  -0.00422
  99        3S         -0.00476   0.00000   0.00060   0.00008  -0.00008
 100        4S          0.02488   0.00000  -0.00972   0.00009  -0.00010
 101        5S         -0.00739   0.00000   0.00906   0.00009   0.00004
 102        6S         -0.00061   0.00000   0.00344   0.00007   0.00005
 103        7PX         0.00000   0.08137   0.00000   0.00000   0.00000
 104        7PY        -0.40840   0.00000   0.27851   0.00168  -0.00001
 105        7PZ         0.22028   0.00000  -0.18494  -0.00108  -0.00013
 106        8PX         0.00000  -0.00044   0.00000   0.00000   0.00000
 107        8PY         0.00705   0.00000  -0.00480  -0.00008   0.00004
 108        8PZ        -0.00403   0.00000   0.00341   0.00006  -0.00003
 109        9PX         0.00000   0.00476   0.00000   0.00000   0.00000
 110        9PY        -0.02515   0.00000   0.01800   0.00013  -0.00002
 111        9PZ         0.01358   0.00000  -0.01200  -0.00009   0.00000
 112       10PX         0.00000  -0.00070   0.00000   0.00000   0.00000
 113       10PY         0.00092   0.00000  -0.00356  -0.00004  -0.00006
 114       10PZ        -0.00170   0.00000   0.00242   0.00001   0.00002
 115       11PX         0.00000   0.00034   0.00000   0.00000   0.00000
 116       11PY        -0.00005   0.00000  -0.00028  -0.00001  -0.00001
 117       11PZ        -0.00003   0.00000   0.00011   0.00001   0.00002
 118       12D 0        0.00001   0.00000   0.00001   0.00000   0.00000
 119       12D+1        0.00000  -0.00006   0.00000   0.00000   0.00000
 120       12D-1       -0.00033   0.00000   0.00031   0.00000   0.00000
 121       12D+2       -0.00022   0.00000   0.00021   0.00000   0.00000
 122       12D-2        0.00000   0.00005   0.00000   0.00000   0.00000
 123       13D 0        0.00036   0.00000   0.00004   0.00000   0.00000
 124       13D+1        0.00000  -0.00005   0.00000   0.00000   0.00000
 125       13D-1        0.00142   0.00000  -0.00193  -0.00003   0.00001
 126       13D+2        0.00138   0.00000  -0.00120  -0.00002   0.00000
 127       13D-2        0.00000   0.00022   0.00000   0.00000   0.00000
 128       14D 0        0.00002   0.00000   0.00012   0.00000   0.00000
 129       14D+1        0.00000  -0.00023   0.00000   0.00000   0.00000
 130       14D-1       -0.00013   0.00000  -0.00067   0.00000  -0.00002
 131       14D+2       -0.00025   0.00000  -0.00058   0.00000  -0.00002
 132       14D-2        0.00000   0.00055   0.00000   0.00000   0.00000
 133       15F 0        0.00001   0.00000   0.00003   0.00000   0.00000
 134       15F+1        0.00000   0.00000   0.00000   0.00000   0.00000
 135       15F-1       -0.00003   0.00000   0.00001   0.00000   0.00000
 136       15F+2        0.00003   0.00000   0.00000   0.00000   0.00000
 137       15F-2        0.00000   0.00001   0.00000   0.00000   0.00000
 138       15F+3        0.00000  -0.00003   0.00000   0.00000   0.00000
 139       15F-3       -0.00010   0.00000   0.00004   0.00000   0.00000
 140       16F 0        0.00026   0.00000  -0.00027   0.00000   0.00000
 141       16F+1        0.00000   0.00001   0.00000   0.00000   0.00000
 142       16F-1       -0.00001   0.00000  -0.00031   0.00000   0.00000
 143       16F+2        0.00032   0.00000  -0.00045   0.00000   0.00000
 144       16F-2        0.00000   0.00000   0.00000   0.00000   0.00000
 145       16F+3        0.00000   0.00021   0.00000   0.00000   0.00000
 146       16F-3       -0.00016   0.00000   0.00018   0.00000   0.00000
 147 4   S  1S          0.10098   0.00000   0.04978   0.57190   0.81600
 148        2S         -0.34835   0.00000  -0.18422   0.00708   0.01089
 149        3S          0.00552   0.00000   0.00155   0.00020   0.00026
 150        4S         -0.02504   0.00000  -0.01368  -0.00005  -0.00001
 151        5S          0.00229   0.00000   0.00650   0.00018  -0.00003
 152        6S         -0.00449   0.00000   0.00126   0.00015   0.00004
 153        7PX         0.00000   0.96517   0.00000   0.00000   0.00000
 154        7PY         0.00000   0.00000   0.00000   0.00000   0.00000
 155        7PZ         0.43844   0.00000   0.42825   0.00250   0.00172
 156        8PX         0.00000  -0.01117   0.00000   0.00000   0.00000
 157        8PY         0.00000   0.00000   0.00000   0.00000   0.00000
 158        8PZ        -0.00538   0.00000  -0.00473  -0.00015  -0.00013
 159        9PX         0.00000   0.06173   0.00000   0.00000   0.00000
 160        9PY         0.00000   0.00000   0.00000   0.00000   0.00000
 161        9PZ         0.02822   0.00000   0.02844   0.00021   0.00017
 162       10PX         0.00000   0.00107   0.00000   0.00000   0.00000
 163       10PY         0.00000   0.00000   0.00000   0.00000   0.00000
 164       10PZ         0.00229   0.00000  -0.00202  -0.00008   0.00006
 165       11PX         0.00000  -0.00028   0.00000   0.00000   0.00000
 166       11PY         0.00000   0.00000   0.00000   0.00000   0.00000
 167       11PZ         0.00078   0.00000  -0.00016  -0.00001   0.00001
 168       12D 0        0.00061   0.00000   0.00120   0.00005   0.00004
 169       12D+1        0.00000   0.00213   0.00000   0.00000   0.00000
 170       12D-1        0.00000   0.00000   0.00000   0.00000   0.00000
 171       12D+2        0.00010   0.00000   0.00021   0.00000  -0.00001
 172       12D-2        0.00000   0.00000   0.00000   0.00000   0.00000
 173       13D 0       -0.00032   0.00000  -0.00061   0.00000   0.00001
 174       13D+1        0.00000  -0.00019   0.00000   0.00000   0.00000
 175       13D-1        0.00000   0.00000   0.00000   0.00000   0.00000
 176       13D+2       -0.00013   0.00000  -0.00007   0.00001   0.00001
 177       13D-2        0.00000   0.00000   0.00000   0.00000   0.00000
 178       14D 0       -0.00087   0.00000   0.00041  -0.00001  -0.00004
 179       14D+1        0.00000  -0.00049   0.00000   0.00000   0.00000
 180       14D-1        0.00000   0.00000   0.00000   0.00000   0.00000
 181       14D+2        0.00069   0.00000  -0.00014   0.00000   0.00001
 182       14D-2        0.00000   0.00000   0.00000   0.00000   0.00000
 183       15F 0        0.00015   0.00000   0.00037  -0.00001  -0.00001
 184       15F+1        0.00000  -0.00026   0.00000   0.00000   0.00000
 185       15F-1        0.00000   0.00000   0.00000   0.00000   0.00000
 186       15F+2        0.00009   0.00000   0.00009   0.00000   0.00000
 187       15F-2        0.00000   0.00000   0.00000   0.00000   0.00000
 188       15F+3        0.00000   0.00013   0.00000   0.00000   0.00000
 189       15F-3        0.00000   0.00000   0.00000   0.00000   0.00000
 190       16F 0       -0.00028   0.00000  -0.00037   0.00000   0.00000
 191       16F+1        0.00000  -0.00048   0.00000   0.00000   0.00000
 192       16F-1        0.00000   0.00000   0.00000   0.00000   0.00000
 193       16F+2       -0.00032   0.00000  -0.00019   0.00000   0.00000
 194       16F-2        0.00000   0.00000   0.00000   0.00000   0.00000
 195       16F+3        0.00000  -0.00012   0.00000   0.00000   0.00000
 196       16F-3        0.00000   0.00000   0.00000   0.00000   0.00000
                          16        17        18        19        20
     Eigenvalues --     2.00000   1.97699   1.97423   1.96985   1.95131
   1 1   C  1S          0.00000  -0.08551   0.00000  -0.06929  -0.04315
   2        2S          0.00000   0.22007   0.00000   0.18606   0.12009
   3        3S          0.00000   0.04796   0.00000   0.04434   0.02882
   4        4S          0.00000   0.04454   0.00000   0.06509   0.06179
   5        5S          0.00000   0.01149   0.00000   0.01701   0.00159
   6        6PX         0.00000   0.00000   0.00000   0.00000   0.00000
   7        6PY        -0.00001   0.00000   0.06172   0.00000   0.00000
   8        6PZ         0.00000  -0.01262   0.00000   0.10245  -0.05729
   9        7PX         0.00000   0.00000   0.00000   0.00000   0.00000
  10        7PY         0.00005   0.00000   0.08460   0.00000   0.00000
  11        7PZ         0.00000  -0.02316   0.00000   0.12853  -0.08011
  12        8PX         0.00000   0.00000   0.00000   0.00000   0.00000
  13        8PY        -0.00005   0.00000   0.00370   0.00000   0.00000
  14        8PZ         0.00000   0.00777   0.00000   0.00516  -0.04525
  15        9PX         0.00000   0.00000   0.00000   0.00000   0.00000
  16        9PY        -0.00001   0.00000   0.00831   0.00000   0.00000
  17        9PZ         0.00000  -0.00404   0.00000   0.00862  -0.02165
  18       10D 0        0.00000   0.00410   0.00000   0.00948   0.01023
  19       10D+1        0.00000   0.00000   0.00000   0.00000   0.00000
  20       10D-1        0.00000   0.00000  -0.00864   0.00000   0.00000
  21       10D+2        0.00000  -0.00725   0.00000   0.00114   0.00347
  22       10D-2        0.00000   0.00000   0.00000   0.00000   0.00000
  23       11D 0        0.00000   0.00578   0.00000   0.01124   0.03010
  24       11D+1        0.00000   0.00000   0.00000   0.00000   0.00000
  25       11D-1       -0.00006   0.00000  -0.01778   0.00000   0.00000
  26       11D+2        0.00000  -0.01132   0.00000   0.00277   0.01314
  27       11D-2        0.00000   0.00000   0.00000   0.00000   0.00000
  28       12D 0        0.00000   0.00376   0.00000   0.00439  -0.04152
  29       12D+1        0.00000   0.00000   0.00000   0.00000   0.00000
  30       12D-1       -0.00002   0.00000   0.01225   0.00000   0.00000
  31       12D+2        0.00000   0.00760   0.00000   0.00468  -0.02669
  32       12D-2        0.00000   0.00000   0.00000   0.00000   0.00000
  33       13F 0        0.00000   0.00399   0.00000   0.00468  -0.00098
  34       13F+1        0.00000   0.00000   0.00000   0.00000   0.00000
  35       13F-1        0.00000   0.00000   0.00183   0.00000   0.00000
  36       13F+2        0.00000   0.00467   0.00000  -0.00020   0.00185
  37       13F-2        0.00000   0.00000   0.00000   0.00000   0.00000
  38       13F+3        0.00000   0.00000   0.00000   0.00000   0.00000
  39       13F-3        0.00000   0.00000  -0.00246   0.00000   0.00000
  40       14F 0        0.00000   0.00138   0.00000  -0.00078  -0.00269
  41       14F+1        0.00000   0.00000   0.00000   0.00000   0.00000
  42       14F-1       -0.00001   0.00000   0.00063   0.00000   0.00000
  43       14F+2        0.00000   0.00184   0.00000   0.00002   0.00152
  44       14F-2        0.00000   0.00000   0.00000   0.00000   0.00000
  45       14F+3        0.00000   0.00000   0.00000   0.00000   0.00000
  46       14F-3       -0.00001   0.00000  -0.00066   0.00000   0.00000
  47 2   Cl 1S          0.70626   0.04547  -0.05310  -0.02100  -0.01200
  48        2S          0.00713  -0.16993   0.19859   0.07855   0.04554
  49        3S          0.00011   0.36348  -0.42564  -0.16957  -0.09936
  50        4S          0.00016   0.04406  -0.05346  -0.02222  -0.01559
  51        5S         -0.00004   0.21874  -0.26412  -0.11212  -0.10412
  52        6S         -0.00005  -0.00747   0.01032   0.00178  -0.02625
  53        7PX         0.00000   0.00000   0.00000   0.00000   0.00000
  54        7PY        -0.00052  -0.01686   0.00023   0.00061  -0.11233
  55        7PZ        -0.00043  -0.00737   0.00757  -0.01951   0.10043
  56        8PX         0.00000   0.00000   0.00000   0.00000   0.00000
  57        8PY         0.00007   0.02493   0.01575  -0.00134   0.25553
  58        8PZ         0.00004   0.00540  -0.01023   0.04948  -0.24134
  59        9PX         0.00000   0.00000   0.00000   0.00000   0.00000
  60        9PY        -0.00006   0.01100   0.00711   0.00012   0.12214
  61        9PZ        -0.00005   0.00287  -0.00433   0.02328  -0.11548
  62       10PX         0.00000   0.00000   0.00000   0.00000   0.00000
  63       10PY        -0.00006  -0.00102   0.01529  -0.00752   0.13075
  64       10PZ        -0.00003  -0.00357   0.00352   0.02676  -0.17574
  65       11PX         0.00000   0.00000   0.00000   0.00000   0.00000
  66       11PY        -0.00001  -0.00407   0.00287   0.00030   0.00038
  67       11PZ         0.00000  -0.00166   0.00319  -0.00025  -0.00585
  68       12D 0        0.00000  -0.00065  -0.00075   0.00280  -0.00700
  69       12D+1        0.00000   0.00000   0.00000   0.00000   0.00000
  70       12D-1        0.00001   0.00740  -0.00548   0.00283   0.00322
  71       12D+2        0.00000  -0.00615   0.00280   0.00050  -0.01060
  72       12D-2        0.00000   0.00000   0.00000   0.00000   0.00000
  73       13D 0        0.00000  -0.00135  -0.00177   0.00465  -0.00854
  74       13D+1        0.00000   0.00000   0.00000   0.00000   0.00000
  75       13D-1        0.00002   0.00703  -0.00473   0.00440   0.00224
  76       13D+2       -0.00001  -0.00637   0.00180   0.00143  -0.01246
  77       13D-2        0.00000   0.00000   0.00000   0.00000   0.00000
  78       14D 0        0.00000   0.00092   0.00104   0.00294  -0.00864
  79       14D+1        0.00000   0.00000   0.00000   0.00000   0.00000
  80       14D-1       -0.00002  -0.00207   0.00318   0.00202  -0.00378
  81       14D+2        0.00002   0.00183  -0.00263   0.00082  -0.00680
  82       14D-2        0.00000   0.00000   0.00000   0.00000   0.00000
  83       15F 0        0.00000  -0.00137   0.00093   0.00054  -0.00233
  84       15F+1        0.00000   0.00000   0.00000   0.00000   0.00000
  85       15F-1        0.00000   0.00066  -0.00153   0.00138  -0.00389
  86       15F+2        0.00000  -0.00257   0.00219  -0.00020  -0.00180
  87       15F-2        0.00000   0.00000   0.00000   0.00000   0.00000
  88       15F+3        0.00000   0.00000   0.00000   0.00000   0.00000
  89       15F-3        0.00000  -0.00193   0.00086   0.00063  -0.00355
  90       16F 0        0.00000  -0.00014  -0.00035  -0.00002  -0.00034
  91       16F+1        0.00000   0.00000   0.00000   0.00000   0.00000
  92       16F-1        0.00000  -0.00022   0.00003   0.00147  -0.00208
  93       16F+2        0.00000   0.00012  -0.00070  -0.00031  -0.00053
  94       16F-2        0.00000   0.00000   0.00000   0.00000   0.00000
  95       16F+3        0.00000   0.00000   0.00000   0.00000   0.00000
  96       16F-3        0.00000   0.00030  -0.00041   0.00021  -0.00129
  97 3   Cl 1S         -0.70396   0.04547   0.05310  -0.02100  -0.01200
  98        2S         -0.00711  -0.16993  -0.19859   0.07855   0.04554
  99        3S         -0.00011   0.36348   0.42564  -0.16957  -0.09936
 100        4S         -0.00016   0.04406   0.05346  -0.02222  -0.01559
 101        5S          0.00004   0.21874   0.26412  -0.11212  -0.10412
 102        6S          0.00005  -0.00747  -0.01032   0.00178  -0.02625
 103        7PX         0.00000   0.00000   0.00000   0.00000   0.00000
 104        7PY        -0.00052   0.01686   0.00023  -0.00061   0.11233
 105        7PZ         0.00042  -0.00737  -0.00757  -0.01951   0.10043
 106        8PX         0.00000   0.00000   0.00000   0.00000   0.00000
 107        8PY         0.00007  -0.02493   0.01575   0.00134  -0.25553
 108        8PZ        -0.00004   0.00540   0.01023   0.04948  -0.24134
 109        9PX         0.00000   0.00000   0.00000   0.00000   0.00000
 110        9PY        -0.00006  -0.01100   0.00711  -0.00012  -0.12214
 111        9PZ         0.00005   0.00287   0.00433   0.02328  -0.11548
 112       10PX         0.00000   0.00000   0.00000   0.00000   0.00000
 113       10PY        -0.00006   0.00102   0.01529   0.00752  -0.13075
 114       10PZ         0.00003  -0.00357  -0.00352   0.02676  -0.17574
 115       11PX         0.00000   0.00000   0.00000   0.00000   0.00000
 116       11PY        -0.00001   0.00407   0.00287  -0.00030  -0.00038
 117       11PZ         0.00000  -0.00166  -0.00319  -0.00025  -0.00585
 118       12D 0        0.00000  -0.00065   0.00075   0.00280  -0.00700
 119       12D+1        0.00000   0.00000   0.00000   0.00000   0.00000
 120       12D-1        0.00001  -0.00740  -0.00548  -0.00283  -0.00322
 121       12D+2        0.00000  -0.00615  -0.00280   0.00050  -0.01060
 122       12D-2        0.00000   0.00000   0.00000   0.00000   0.00000
 123       13D 0        0.00000  -0.00135   0.00177   0.00465  -0.00854
 124       13D+1        0.00000   0.00000   0.00000   0.00000   0.00000
 125       13D-1        0.00002  -0.00703  -0.00473  -0.00440  -0.00224
 126       13D+2        0.00001  -0.00637  -0.00180   0.00143  -0.01246
 127       13D-2        0.00000   0.00000   0.00000   0.00000   0.00000
 128       14D 0        0.00000   0.00092  -0.00104   0.00294  -0.00864
 129       14D+1        0.00000   0.00000   0.00000   0.00000   0.00000
 130       14D-1       -0.00002   0.00207   0.00318  -0.00202   0.00378
 131       14D+2       -0.00002   0.00183   0.00263   0.00082  -0.00680
 132       14D-2        0.00000   0.00000   0.00000   0.00000   0.00000
 133       15F 0        0.00000  -0.00137  -0.00093   0.00054  -0.00233
 134       15F+1        0.00000   0.00000   0.00000   0.00000   0.00000
 135       15F-1        0.00000  -0.00066  -0.00153  -0.00138   0.00389
 136       15F+2        0.00000  -0.00257  -0.00219  -0.00020  -0.00180
 137       15F-2        0.00000   0.00000   0.00000   0.00000   0.00000
 138       15F+3        0.00000   0.00000   0.00000   0.00000   0.00000
 139       15F-3        0.00000   0.00193   0.00086  -0.00063   0.00355
 140       16F 0        0.00000  -0.00014   0.00035  -0.00002  -0.00034
 141       16F+1        0.00000   0.00000   0.00000   0.00000   0.00000
 142       16F-1        0.00000   0.00022   0.00003  -0.00147   0.00208
 143       16F+2        0.00000   0.00012   0.00070  -0.00031  -0.00053
 144       16F-2        0.00000   0.00000   0.00000   0.00000   0.00000
 145       16F+3        0.00000   0.00000   0.00000   0.00000   0.00000
 146       16F-3        0.00000  -0.00030  -0.00041  -0.00021   0.00129
 147 4   S  1S          0.00058   0.01599   0.00000   0.05827   0.00401
 148        2S          0.00001  -0.06145   0.00000  -0.22295  -0.01545
 149        3S          0.00000   0.12745   0.00000   0.47220   0.03358
 150        4S          0.00000   0.01529   0.00000   0.06135   0.00470
 151        5S          0.00000   0.05379   0.00000   0.24544   0.07172
 152        6S          0.00000  -0.00234   0.00000  -0.03107   0.02508
 153        7PX         0.00000   0.00000   0.00000   0.00000   0.00000
 154        7PY         0.00024   0.00000  -0.01098   0.00000   0.00000
 155        7PZ         0.00000   0.02088   0.00000   0.04335   0.00272
 156        8PX         0.00000   0.00000   0.00000   0.00000   0.00000
 157        8PY         0.00002   0.00000   0.03215   0.00000   0.00000
 158        8PZ         0.00000  -0.03178   0.00000  -0.05431  -0.00801
 159        9PX         0.00000   0.00000   0.00000   0.00000   0.00000
 160        9PY         0.00001   0.00000   0.01219   0.00000   0.00000
 161        9PZ         0.00000  -0.01555   0.00000  -0.03001  -0.00256
 162       10PX         0.00000   0.00000   0.00000   0.00000   0.00000
 163       10PY         0.00002   0.00000   0.01002   0.00000   0.00000
 164       10PZ         0.00000   0.00041   0.00000   0.01610  -0.01768
 165       11PX         0.00000   0.00000   0.00000   0.00000   0.00000
 166       11PY         0.00000   0.00000  -0.00144   0.00000   0.00000
 167       11PZ         0.00000   0.00217   0.00000   0.00817   0.00038
 168       12D 0        0.00000   0.00671   0.00000   0.00995   0.00096
 169       12D+1        0.00000   0.00000   0.00000   0.00000   0.00000
 170       12D-1       -0.00002   0.00000  -0.00503   0.00000   0.00000
 171       12D+2        0.00000   0.00017   0.00000   0.00035   0.00325
 172       12D-2        0.00000   0.00000   0.00000   0.00000   0.00000
 173       13D 0        0.00000   0.00951   0.00000   0.02355   0.00135
 174       13D+1        0.00000   0.00000   0.00000   0.00000   0.00000
 175       13D-1        0.00000   0.00000  -0.00333   0.00000   0.00000
 176       13D+2        0.00000  -0.00001   0.00000   0.00099   0.00237
 177       13D-2        0.00000   0.00000   0.00000   0.00000   0.00000
 178       14D 0        0.00000  -0.00219   0.00000  -0.00855  -0.00080
 179       14D+1        0.00000   0.00000   0.00000   0.00000   0.00000
 180       14D-1       -0.00001   0.00000   0.00199   0.00000   0.00000
 181       14D+2        0.00000  -0.00175   0.00000  -0.00092   0.00534
 182       14D-2        0.00000   0.00000   0.00000   0.00000   0.00000
 183       15F 0        0.00000  -0.00286   0.00000  -0.00856  -0.00082
 184       15F+1        0.00000   0.00000   0.00000   0.00000   0.00000
 185       15F-1        0.00000   0.00000   0.00170   0.00000   0.00000
 186       15F+2        0.00000   0.00017   0.00000  -0.00030  -0.00043
 187       15F-2        0.00000   0.00000   0.00000   0.00000   0.00000
 188       15F+3        0.00000   0.00000   0.00000   0.00000   0.00000
 189       15F-3        0.00000   0.00000   0.00009   0.00000   0.00000
 190       16F 0        0.00000   0.00055   0.00000   0.00482  -0.00020
 191       16F+1        0.00000   0.00000   0.00000   0.00000   0.00000
 192       16F-1        0.00001   0.00000   0.00077   0.00000   0.00000
 193       16F+2        0.00000  -0.00059   0.00000  -0.00073  -0.00133
 194       16F-2        0.00000   0.00000   0.00000   0.00000   0.00000
 195       16F+3        0.00000   0.00000   0.00000   0.00000   0.00000
 196       16F-3        0.00000   0.00000   0.00034   0.00000   0.00000
                          21        22        23        24        25
     Eigenvalues --     1.94902   1.94881   1.94810   1.94657   1.94120
   1 1   C  1S          0.11890   0.00000   0.00000   0.00000   0.00000
   2        2S         -0.33242   0.00000   0.00000   0.00000   0.00000
   3        3S         -0.07965   0.00000   0.00000   0.00000   0.00000
   4        4S         -0.20924   0.00000   0.00000   0.00000   0.00000
   5        5S         -0.00944   0.00000   0.00000   0.00000   0.00000
   6        6PX         0.00000   0.00000   0.09697   0.00000   0.00000
   7        6PY         0.00000   0.08229   0.00000   0.00000   0.16863
   8        6PZ         0.03823   0.00000   0.00000   0.00000   0.00000
   9        7PX         0.00000   0.00000   0.13847   0.00000   0.00000
  10        7PY         0.00000   0.11269   0.00000   0.00000   0.23750
  11        7PZ         0.06378   0.00000   0.00000   0.00000   0.00000
  12        8PX         0.00000   0.00000   0.06151   0.00000   0.00000
  13        8PY         0.00000   0.03558   0.00000   0.00000   0.08175
  14        8PZ        -0.01807   0.00000   0.00000   0.00000   0.00000
  15        9PX         0.00000   0.00000   0.00625   0.00000   0.00000
  16        9PY         0.00000   0.01059   0.00000   0.00000  -0.00772
  17        9PZ        -0.00411   0.00000   0.00000   0.00000   0.00000
  18       10D 0        0.00250   0.00000   0.00000   0.00000   0.00000
  19       10D+1        0.00000   0.00000  -0.00738   0.00000   0.00000
  20       10D-1        0.00000   0.00485   0.00000   0.00000  -0.00771
  21       10D+2        0.00782   0.00000   0.00000   0.00000   0.00000
  22       10D-2        0.00000   0.00000   0.00000   0.01080   0.00000
  23       11D 0        0.00874   0.00000   0.00000   0.00000   0.00000
  24       11D+1        0.00000   0.00000  -0.02328   0.00000   0.00000
  25       11D-1        0.00000   0.01691   0.00000   0.00000  -0.01473
  26       11D+2        0.01797   0.00000   0.00000   0.00000   0.00000
  27       11D-2        0.00000   0.00000   0.00000   0.03265   0.00000
  28       12D 0       -0.02244   0.00000   0.00000   0.00000   0.00000
  29       12D+1        0.00000   0.00000   0.01599   0.00000   0.00000
  30       12D-1        0.00000  -0.03792   0.00000   0.00000   0.01160
  31       12D+2       -0.00699   0.00000   0.00000   0.00000   0.00000
  32       12D-2        0.00000   0.00000   0.00000  -0.01121   0.00000
  33       13F 0       -0.00365   0.00000   0.00000   0.00000   0.00000
  34       13F+1        0.00000   0.00000   0.00223   0.00000   0.00000
  35       13F-1        0.00000  -0.00270   0.00000   0.00000   0.00754
  36       13F+2       -0.00482   0.00000   0.00000   0.00000   0.00000
  37       13F-2        0.00000   0.00000   0.00000  -0.00449   0.00000
  38       13F+3        0.00000   0.00000  -0.00494   0.00000   0.00000
  39       13F-3        0.00000  -0.00305   0.00000   0.00000  -0.00305
  40       14F 0       -0.00700   0.00000   0.00000   0.00000   0.00000
  41       14F+1        0.00000   0.00000   0.00232   0.00000   0.00000
  42       14F-1        0.00000  -0.00817   0.00000   0.00000  -0.00026
  43       14F+2       -0.00198   0.00000   0.00000   0.00000   0.00000
  44       14F-2        0.00000   0.00000   0.00000  -0.00563   0.00000
  45       14F+3        0.00000   0.00000  -0.00331   0.00000   0.00000
  46       14F-3        0.00000  -0.00297   0.00000   0.00000   0.00125
  47 2   Cl 1S          0.01449   0.00873   0.00000   0.00000   0.00663
  48        2S         -0.05503  -0.03376   0.00000   0.00000  -0.02677
  49        3S          0.12223   0.07139   0.00000   0.00000   0.05752
  50        4S          0.01938   0.01149   0.00000   0.00000   0.01083
[...]
  52        6S        -13.81428   0.00000   7.20774   5.02357  10.11236
  53        7PX         0.00000  -0.01618   0.00000   0.00000   0.00000
  54        7PY         0.02343   0.00000  -0.01357   0.00434  -0.01646
  55        7PZ         0.00132   0.00000  -0.00373  -0.01067  -0.01490
  56        8PX         0.00000  -0.19224   0.00000   0.00000   0.00000
  57        8PY         0.38150   0.00000  -0.17154   0.05907  -0.26507
  58        8PZ         0.02777   0.00000  -0.03622  -0.13411  -0.24115
  59        9PX         0.00000   0.06189   0.00000   0.00000   0.00000
  60        9PY        -0.08612   0.00000   0.05274  -0.01595   0.06230
  61        9PZ        -0.00176   0.00000   0.01547   0.04200   0.05712
  62       10PX         0.00000   0.85900   0.00000   0.00000   0.00000
  63       10PY        -5.30041   0.00000   0.82448   0.50248   1.96898
  64       10PZ        -2.67466   0.00000   0.55987   1.37242   1.36489
  65       11PX         0.00000  -2.39632   0.00000   0.00000   0.00000
  66       11PY        -2.46828   0.00000  -1.71418   1.22914   1.50766
  67       11PZ        -1.42027   0.00000   0.99883  -2.80051   1.46200
  68       12D 0        0.01910   0.00000  -0.01044  -0.02300  -0.00563
  69       12D+1        0.00000  -0.01542   0.00000   0.00000   0.00000
  70       12D-1       -0.01950   0.00000   0.00221  -0.00202   0.01680
  71       12D+2        0.04239   0.00000   0.04317   0.00758   0.01307
  72       12D-2        0.00000  -0.02205   0.00000   0.00000   0.00000
  73       13D 0       -0.11327   0.00000   0.05688   0.08928   0.00335
  74       13D+1        0.00000   0.06420   0.00000   0.00000   0.00000
  75       13D-1        0.00242   0.00000   0.01833   0.04841  -0.09458
  76       13D+2       -0.13340   0.00000  -0.14862  -0.03721  -0.03381
  77       13D-2        0.00000   0.09177   0.00000   0.00000   0.00000
  78       14D 0        0.38383   0.00000  -0.03093  -0.18788   0.06099
  79       14D+1        0.00000  -0.09206   0.00000   0.00000   0.00000
  80       14D-1       -1.30466   0.00000   0.14925   0.30044   0.50784
  81       14D+2        1.07714   0.00000   0.31285  -0.00647  -0.33212
  82       14D-2        0.00000   0.11719   0.00000   0.00000   0.00000
  83       15F 0       -0.01713   0.00000   0.02948   0.00263   0.00790
  84       15F+1        0.00000  -0.01039   0.00000   0.00000   0.00000
  85       15F-1        0.03769   0.00000  -0.00606   0.01328  -0.00198
  86       15F+2       -0.02041   0.00000   0.00839   0.02632   0.02267
  87       15F-2        0.00000  -0.00527   0.00000   0.00000   0.00000
  88       15F+3        0.00000   0.05233   0.00000   0.00000   0.00000
  89       15F-3        0.01525   0.00000   0.01973  -0.00527   0.03329
  90       16F 0        0.07227   0.00000  -0.06388  -0.04702   0.00478
  91       16F+1        0.00000   0.00555   0.00000   0.00000   0.00000
  92       16F-1       -0.12940   0.00000   0.03396  -0.02600  -0.00530
  93       16F+2        0.10615   0.00000  -0.01797  -0.07554  -0.03905
  94       16F-2        0.00000   0.02401   0.00000   0.00000   0.00000
  95       16F+3        0.00000  -0.13485   0.00000   0.00000   0.00000
  96       16F-3       -0.00241   0.00000  -0.01893   0.01419  -0.07564
  97 3   Cl 1S         -0.01588   0.00000  -0.00974   0.00543   0.00340
  98        2S         -0.21396   0.00000  -0.18142   0.10221   0.07958
  99        3S         -0.60659   0.00000  -0.40862   0.22647   0.15481
 100        4S          0.02678   0.00000   0.16422  -0.10418  -0.10012
 101        5S          4.85625   0.00000   0.82523   0.04181  -0.10929
 102        6S         13.81428   0.00000  -7.20774   5.02357  10.11236
 103        7PX         0.00000  -0.01618   0.00000   0.00000   0.00000
 104        7PY         0.02343   0.00000  -0.01357  -0.00434   0.01646
 105        7PZ        -0.00132   0.00000   0.00373  -0.01067  -0.01490
 106        8PX         0.00000  -0.19224   0.00000   0.00000   0.00000
 107        8PY         0.38150   0.00000  -0.17154  -0.05907   0.26507
 108        8PZ        -0.02777   0.00000   0.03622  -0.13411  -0.24115
 109        9PX         0.00000   0.06189   0.00000   0.00000   0.00000
 110        9PY        -0.08612   0.00000   0.05274   0.01595  -0.06230
 111        9PZ         0.00176   0.00000  -0.01547   0.04200   0.05712
 112       10PX         0.00000   0.85900   0.00000   0.00000   0.00000
 113       10PY        -5.30041   0.00000   0.82448  -0.50248  -1.96898
 114       10PZ         2.67466   0.00000  -0.55987   1.37242   1.36489
 115       11PX         0.00000  -2.39632   0.00000   0.00000   0.00000
 116       11PY        -2.46828   0.00000  -1.71418  -1.22914  -1.50766
 117       11PZ         1.42027   0.00000  -0.99883  -2.80051   1.46200
 118       12D 0       -0.01910   0.00000   0.01044  -0.02300  -0.00563
 119       12D+1        0.00000  -0.01542   0.00000   0.00000   0.00000
 120       12D-1       -0.01950   0.00000   0.00221   0.00202  -0.01680
 121       12D+2       -0.04239   0.00000  -0.04317   0.00758   0.01307
 122       12D-2        0.00000   0.02205   0.00000   0.00000   0.00000
 123       13D 0        0.11327   0.00000  -0.05688   0.08928   0.00335
 124       13D+1        0.00000   0.06420   0.00000   0.00000   0.00000
 125       13D-1        0.00242   0.00000   0.01833  -0.04841   0.09458
 126       13D+2        0.13340   0.00000   0.14862  -0.03721  -0.03381
 127       13D-2        0.00000  -0.09177   0.00000   0.00000   0.00000
 128       14D 0       -0.38383   0.00000   0.03093  -0.18788   0.06099
 129       14D+1        0.00000  -0.09206   0.00000   0.00000   0.00000
 130       14D-1       -1.30466   0.00000   0.14925  -0.30044  -0.50784
 131       14D+2       -1.07714   0.00000  -0.31285  -0.00647  -0.33212
 132       14D-2        0.00000  -0.11719   0.00000   0.00000   0.00000
 133       15F 0        0.01713   0.00000  -0.02948   0.00263   0.00790
 134       15F+1        0.00000  -0.01039   0.00000   0.00000   0.00000
 135       15F-1        0.03769   0.00000  -0.00606  -0.01328   0.00198
 136       15F+2        0.02041   0.00000  -0.00839   0.02632   0.02267
 137       15F-2        0.00000   0.00527   0.00000   0.00000   0.00000
 138       15F+3        0.00000   0.05233   0.00000   0.00000   0.00000
 139       15F-3        0.01525   0.00000   0.01973   0.00527  -0.03329
 140       16F 0       -0.07227   0.00000   0.06388  -0.04702   0.00478
 141       16F+1        0.00000   0.00555   0.00000   0.00000   0.00000
 142       16F-1       -0.12940   0.00000   0.03396   0.02600   0.00530
 143       16F+2       -0.10615   0.00000   0.01797  -0.07554  -0.03905
 144       16F-2        0.00000  -0.02401   0.00000   0.00000   0.00000
 145       16F+3        0.00000  -0.13485   0.00000   0.00000   0.00000
 146       16F-3       -0.00241   0.00000  -0.01893  -0.01419   0.07564
 147 4   S  1S          0.00000   0.00000   0.00000   0.00219  -0.00392
 148        2S          0.00000   0.00000   0.00000   0.00410  -0.06737
 149        3S          0.00000   0.00000   0.00000   0.07178  -0.17831
 150        4S          0.00000   0.00000   0.00000   0.10115   0.02741
 151        5S          0.00000   0.00000   0.00000  -3.77106   2.23134
 152        6S          0.00000   0.00000   0.00000 -15.44384   3.34020
 153        7PX         0.00000  -0.01941   0.00000   0.00000   0.00000
 154        7PY         0.01733   0.00000   0.00327   0.00000   0.00000
 155        7PZ         0.00000   0.00000   0.00000  -0.00771  -0.00203
 156        8PX         0.00000  -0.08562   0.00000   0.00000   0.00000
 157        8PY         0.26308   0.00000   0.12814   0.00000   0.00000
 158        8PZ         0.00000   0.00000   0.00000  -0.01345  -0.14455
 159        9PX         0.00000   0.07269   0.00000   0.00000   0.00000
 160        9PY        -0.06482   0.00000  -0.01093   0.00000   0.00000
 161        9PZ         0.00000   0.00000   0.00000   0.02120   0.00408
 162       10PX         0.00000  -0.65454   0.00000   0.00000   0.00000
 163       10PY        -3.31208   0.00000  -0.31981   0.00000   0.00000
 164       10PZ         0.00000   0.00000   0.00000   3.53451  -0.17396
 165       11PX         0.00000  -4.08390   0.00000   0.00000   0.00000
 166       11PY        -0.03396   0.00000  -4.70120   0.00000   0.00000
 167       11PZ         0.00000   0.00000   0.00000  -1.08924   0.86105
 168       12D 0        0.00000   0.00000   0.00000  -0.46319   0.33009
 169       12D+1        0.00000  -0.34336   0.00000   0.00000   0.00000
 170       12D-1       -0.07995   0.00000  -0.36907   0.00000   0.00000
 171       12D+2        0.00000   0.00000   0.00000   0.11789  -0.14234
 172       12D-2        0.00000   0.00000   0.00000   0.00000   0.00000
 173       13D 0        0.00000   0.00000   0.00000   0.08849  -0.08072
 174       13D+1        0.00000   0.07120   0.00000   0.00000   0.00000
 175       13D-1        0.04103   0.00000   0.07137   0.00000   0.00000
 176       13D+2        0.00000   0.00000   0.00000  -0.03424   0.02941
 177       13D-2        0.00000   0.00000   0.00000   0.00000   0.00000
 178       14D 0        0.00000   0.00000   0.00000   0.22957  -1.18965
 179       14D+1        0.00000   1.24649   0.00000   0.00000   0.00000
 180       14D-1        1.38358   0.00000   0.88295   0.00000   0.00000
 181       14D+2        0.00000   0.00000   0.00000  -0.45274   0.17219
 182       14D-2        0.00000   0.00000   0.00000   0.00000   0.00000
 183       15F 0        0.00000   0.00000   0.00000  -0.01332  -0.01569
 184       15F+1        0.00000   0.01494   0.00000   0.00000   0.00000
 185       15F-1       -0.07009   0.00000   0.00471   0.00000   0.00000
 186       15F+2        0.00000   0.00000   0.00000  -0.01325   0.00212
 187       15F-2        0.00000   0.00000   0.00000   0.00000   0.00000
 188       15F+3        0.00000   0.02694   0.00000   0.00000   0.00000
 189       15F-3       -0.00201   0.00000   0.04038   0.00000   0.00000
 190       16F 0        0.00000   0.00000   0.00000   0.07506   0.13513
 191       16F+1        0.00000  -0.01711   0.00000   0.00000   0.00000
 192       16F-1        0.10948   0.00000   0.01881   0.00000   0.00000
 193       16F+2        0.00000   0.00000   0.00000   0.07215   0.01485
 194       16F-2        0.00000   0.00000   0.00000   0.00000   0.00000
 195       16F+3        0.00000  -0.06049   0.00000   0.00000   0.00000
 196       16F-3        0.01540   0.00000  -0.09379   0.00000   0.00000
                         196
     Eigenvalues --     0.00000
   1 1   C  1S         -0.03652
   2        2S         -0.13468
   3        3S          0.13633
   4        4S          2.62565
   5        5S         21.33580
   6        6PX         0.00000
   7        6PY         0.00000
   8        6PZ         0.02152
   9        7PX         0.00000
  10        7PY         0.00000
  11        7PZ        -0.18820
  12        8PX         0.00000
  13        8PY         0.00000
  14        8PZ         1.21328
  15        9PX         0.00000
  16        9PY         0.00000
  17        9PZ         3.43978
  18       10D 0        0.01351
  19       10D+1        0.00000
  20       10D-1        0.00000
  21       10D+2       -0.03561
  22       10D-2        0.00000
  23       11D 0       -0.32331
  24       11D+1        0.00000
  25       11D-1        0.00000
  26       11D+2        0.17580
  27       11D-2        0.00000
  28       12D 0       -0.95492
  29       12D+1        0.00000
  30       12D-1        0.00000
  31       12D+2       -0.76161
  32       12D-2        0.00000
  33       13F 0       -0.02550
  34       13F+1        0.00000
  35       13F-1        0.00000
  36       13F+2       -0.00175
  37       13F-2        0.00000
  38       13F+3        0.00000
  39       13F-3        0.00000
  40       14F 0       -0.14167
  41       14F+1        0.00000
  42       14F-1        0.00000
  43       14F+2       -0.11932
  44       14F-2        0.00000
  45       14F+3        0.00000
  46       14F-3        0.00000
  47 2   Cl 1S         -0.00107
  48        2S         -0.01515
  49        3S         -0.04142
  50        4S         -0.00008
  51        5S          0.38285
  52        6S         -3.63804
  53        7PX         0.00000
  54        7PY         0.00838
  55        7PZ         0.00380
  56        8PX         0.00000
  57        8PY         0.14872
  58        8PZ         0.09116
  59        9PX         0.00000
  60        9PY        -0.03043
  61        9PZ        -0.01205
  62       10PX         0.00000
  63       10PY         0.10694
  64       10PZ        -0.43796
  65       11PX         0.00000
  66       11PY        -0.76222
  67       11PZ        -1.06192
  68       12D 0        0.00866
  69       12D+1        0.00000
  70       12D-1       -0.01061
  71       12D+2       -0.00825
  72       12D-2        0.00000
  73       13D 0       -0.04246
  74       13D+1        0.00000
  75       13D-1        0.08982
  76       13D+2       -0.00852
  77       13D-2        0.00000
  78       14D 0       -0.05319
  79       14D+1        0.00000
  80       14D-1       -0.17961
  81       14D+2       -0.16550
  82       14D-2        0.00000
  83       15F 0       -0.00521
  84       15F+1        0.00000
  85       15F-1        0.00703
  86       15F+2       -0.00422
  87       15F-2        0.00000
  88       15F+3        0.00000
  89       15F-3       -0.00275
  90       16F 0        0.00413
  91       16F+1        0.00000
  92       16F-1       -0.02126
  93       16F+2       -0.00422
  94       16F-2        0.00000
  95       16F+3        0.00000
  96       16F-3       -0.00963
  97 3   Cl 1S         -0.00107
  98        2S         -0.01515
  99        3S         -0.04142
 100        4S         -0.00008
 101        5S          0.38285
 102        6S         -3.63804
 103        7PX         0.00000
 104        7PY        -0.00838
 105        7PZ         0.00380
 106        8PX         0.00000
 107        8PY        -0.14872
 108        8PZ         0.09116
 109        9PX         0.00000
 110        9PY         0.03043
 111        9PZ        -0.01205
 112       10PX         0.00000
 113       10PY        -0.10694
 114       10PZ        -0.43796
 115       11PX         0.00000
 116       11PY         0.76222
 117       11PZ        -1.06192
 118       12D 0        0.00866
 119       12D+1        0.00000
 120       12D-1        0.01061
 121       12D+2       -0.00825
 122       12D-2        0.00000
 123       13D 0       -0.04246
 124       13D+1        0.00000
 125       13D-1       -0.08982
 126       13D+2       -0.00852
 127       13D-2        0.00000
 128       14D 0       -0.05319
 129       14D+1        0.00000
 130       14D-1        0.17961
 131       14D+2       -0.16550
 132       14D-2        0.00000
 133       15F 0       -0.00521
 134       15F+1        0.00000
 135       15F-1       -0.00703
 136       15F+2       -0.00422
 137       15F-2        0.00000
 138       15F+3        0.00000
 139       15F-3        0.00275
 140       16F 0        0.00413
 141       16F+1        0.00000
 142       16F-1        0.02126
 143       16F+2       -0.00422
 144       16F-2        0.00000
 145       16F+3        0.00000
 146       16F-3        0.00963
 147 4   S  1S         -0.00479
 148        2S         -0.11719
 149        3S         -0.25116
 150        4S          0.11054
 151        5S          2.68708
 152        6S        -18.14608
 153        7PX         0.00000
 154        7PY         0.00000
 155        7PZ        -0.04440
 156        8PX         0.00000
 157        8PY         0.00000
 158        8PZ        -0.88587
 159        9PX         0.00000
 160        9PY         0.00000
 161        9PZ         0.14055
 162       10PX         0.00000
 163       10PY         0.00000
 164       10PZ         3.41779
 165       11PX         0.00000
 166       11PY         0.00000
 167       11PZ         4.71785
 168       12D 0        0.30477
 169       12D+1        0.00000
 170       12D-1        0.00000
 171       12D+2        0.09338
 172       12D-2        0.00000
 173       13D 0       -0.00721
 174       13D+1        0.00000
 175       13D-1        0.00000
 176       13D+2       -0.02176
 177       13D-2        0.00000
 178       14D 0       -1.67653
 179       14D+1        0.00000
 180       14D-1        0.00000
 181       14D+2        0.02836
 182       14D-2        0.00000
 183       15F 0       -0.08552
 184       15F+1        0.00000
 185       15F-1        0.00000
 186       15F+2        0.01191
 187       15F-2        0.00000
 188       15F+3        0.00000
 189       15F-3        0.00000
 190       16F 0        0.18392
 191       16F+1        0.00000
 192       16F-1        0.00000
 193       16F+2       -0.08337
 194       16F-2        0.00000
 195       16F+3        0.00000
 196       16F-3        0.00000
          Condensed to atoms (all electrons):
              1          2          3          4
     1  C    5.684799   0.065031   0.065031   0.182106
     2  Cl   0.065031  17.191856  -0.117697  -0.128071
     3  Cl   0.065031  -0.117697  17.191856  -0.128071
     4  S    0.182106  -0.128071  -0.128071  16.054832
 Mulliken atomic charges:
              1
     1  C    0.003034
     2  Cl  -0.011119
     3  Cl  -0.011119
     4  S    0.019204
 Sum of Mulliken atomic charges =   0.00000
 Mulliken charges with hydrogens summed into heavy atoms:
              1
     1  C    0.003034
     2  Cl  -0.011119
     3  Cl  -0.011119
     4  S    0.019204
 Sum of Mulliken charges with hydrogens summed into heavy atoms =   0.00000
 Electronic spatial extent (au):  <R**2>=            690.8460
 Charge=              0.0000 electrons
 Dipole moment (field-independent basis, Debye):
    X=              0.0000    Y=              0.0000    Z=             -0.5194  Tot=              0.5194
 Quadrupole moment (field-independent basis, Debye-Ang):
   XX=            -43.1686   YY=            -43.2116   ZZ=            -42.5258
   XY=              0.0000   XZ=              0.0000   YZ=              0.0000
 Traceless Quadrupole moment (field-independent basis, Debye-Ang):
   XX=             -0.1999   YY=             -0.2430   ZZ=              0.4429
   XY=              0.0000   XZ=              0.0000   YZ=              0.0000
 Octapole moment (field-independent basis, Debye-Ang**2):
  XXX=              0.0000  YYY=              0.0000  ZZZ=             81.6566  XYY=              0.0000
  XXY=              0.0000  XXZ=             27.0843  XZZ=              0.0000  YZZ=              0.0000
  YYZ=             18.8486  XYZ=              0.0000
 Hexadecapole moment (field-independent basis, Debye-Ang**3):
 XXXX=            -50.9555 YYYY=           -339.6985 ZZZZ=           -478.1363 XXXY=              0.0000
 XXXZ=              0.0000 YYYX=              0.0000 YYYZ=              0.0000 ZZZX=              0.0000
 ZZZY=              0.0000 XXYY=            -69.1608 XXZZ=            -89.8017 YYZZ=           -127.3114
 XXYZ=              0.0000 YYXZ=              0.0000 ZZXY=              0.0000
 N-N= 2.448997492193D+02 E-N=-3.713344082741D+03  KE= 1.355026599436D+03
 1\1\GINC-TRAPISTA\SP\RQCISD-FC\Aug-CC-pVTZ\C1Cl2S1\BRUNS\27-Nov-2021\0
 \\# qcisd/aug-cc-pvtz nosymm density=current output=wfn\\cl2cs-wavefun
 ction\\0,1\C,0,0.,0.,-0.532914\Cl,0,0.,-1.430735,-1.5009\Cl,0,0.,1.430
 735,-1.5009\S,0,0.,0.,1.081815\\Version=EM64L-G09RevB.01\HF=-1354.4257
 903\MP2=-1355.1503471\MP3=-1355.1828665\MP4D=-1355.2046801\MP4DQ=-1355
 .1797515\MP4SDQ=-1355.1866257\QCISD=-1355.1841478\RMSD=9.467e-09\Dipol
 e=0.,0.,-0.2043608\Quadrupole=-0.148629,-0.1806463,0.3292753,0.,0.,0.\
 PG=C02V [C2(C1S1),SGV(Cl2)]\\@

 Writing a WFN file to GAUSSIAN.wfn.


 My opinions may have changed, but not the fact that I am right.
                       -- Ashleigh Brilliant
 Job cpu time:  0 days  2 hours 14 minutes 55.1 seconds.
 File lengths (MBytes):  RWF=  18573 Int=      0 D2E=      0 Chk=      3 Scr=      1
 Normal termination of Gaussian 09 at Sat Nov 27 21:27:16 2021.
