 cl2cs-wavefunction
GAUSSIAN            196 MOL ORBITALS    414 PRIMITIVES        4 NUCLEI
  C    1    (CENTRE  1)   0.00000000  0.00000000 -0.98816425  CHARGE =  6.0
  Cl   2    (CENTRE  2)   0.00000000 -2.68480006 -2.83628995  CHARGE = 17.0
  Cl   3    (CENTRE  3)   0.00000000  2.70369732 -2.83628995  CHARGE = 17.0
  S    4    (CENTRE  4)   0.00000000  0.00000000  2.04433408  CHARGE = 16.0
CENTRE ASSIGNMENTS    1  1  1  1  1  1  1  1  1  1  1  1  1  1  1  1  1  1  1  1
CENTRE ASSIGNMENTS    1  1  1  1  1  1  1  1  1  1  1  1  1  1  1  1  1  1  1  1
CENTRE ASSIGNMENTS    1  1  1  1  1  1  1  1  1  1  1  1  1  1  1  1  1  1  1  1
CENTRE ASSIGNMENTS    1  1  1  1  1  1  1  1  1  1  1  1  2  2  2  2  2  2  2  2
CENTRE ASSIGNMENTS    2  2  2  2  2  2  2  2  2  2  2  2  2  2  2  2  2  2  2  2
CENTRE ASSIGNMENTS    2  2  2  2  2  2  2  2  2  2  2  2  2  2  2  2  2  2  2  2
CENTRE ASSIGNMENTS    2  2  2  2  2  2  2  2  2  2  2  2  2  2  2  2  2  2  2  2
CENTRE ASSIGNMENTS    2  2  2  2  2  2  2  2  2  2  2  2  2  2  2  2  2  2  2  2
CENTRE ASSIGNMENTS    2  2  2  2  2  2  2  2  2  2  2  2  2  2  2  2  2  2  2  2
CENTRE ASSIGNMENTS    2  2  2  2  2  2  3  3  3  3  3  3  3  3  3  3  3  3  3  3
CENTRE ASSIGNMENTS    3  3  3  3  3  3  3  3  3  3  3  3  3  3  3  3  3  3  3  3
CENTRE ASSIGNMENTS    3  3  3  3  3  3  3  3  3  3  3  3  3  3  3  3  3  3  3  3
CENTRE ASSIGNMENTS    3  3  3  3  3  3  3  3  3  3  3  3  3  3  3  3  3  3  3  3
CENTRE ASSIGNMENTS    3  3  3  3  3  3  3  3  3  3  3  3  3  3  3  3  3  3  3  3
CENTRE ASSIGNMENTS    3  3  3  3  3  3  3  3  3  3  3  3  3  3  3  3  3  3  3  3
CENTRE ASSIGNMENTS    4  4  4  4  4  4  4  4  4  4  4  4  4  4  4  4  4  4  4  4
CENTRE ASSIGNMENTS    4  4  4  4  4  4  4  4  4  4  4  4  4  4  4  4  4  4  4  4
CENTRE ASSIGNMENTS    4  4  4  4  4  4  4  4  4  4  4  4  4  4  4  4  4  4  4  4
CENTRE ASSIGNMENTS    4  4  4  4  4  4  4  4  4  4  4  4  4  4  4  4  4  4  4  4
CENTRE ASSIGNMENTS    4  4  4  4  4  4  4  4  4  4  4  4  4  4  4  4  4  4  4  4
CENTRE ASSIGNMENTS    4  4  4  4  4  4  4  4  4  4  4  4  4  4
TYPE ASSIGNMENTS      1  1  1  1  1  1  1  1  1  1  1  1  1  1  1  1  2  2  2  3
TYPE ASSIGNMENTS      3  3  4  4  4  2  3  4  2  3  4  2  3  4  5  6  7  8  9 10
TYPE ASSIGNMENTS      5  6  7  8  9 10  5  6  7  8  9 10 11 12 13 17 14 15 18 19
TYPE ASSIGNMENTS     16 20 11 12 13 17 14 15 18 19 16 20  1  1  1  1  1  1  1  1
TYPE ASSIGNMENTS      1  1  1  1  1  1  1  1  1  1  1  1  1  1  1  1  1  1  1  1
TYPE ASSIGNMENTS      1  1  1  2  2  2  2  2  2  3  3  3  3  3  3  4  4  4  4  4
TYPE ASSIGNMENTS      4  2  2  2  2  2  2  3  3  3  3  3  3  4  4  4  4  4  4  2
TYPE ASSIGNMENTS      3  4  2  3  4  2  3  4  5  6  7  8  9 10  5  6  7  8  9 10
TYPE ASSIGNMENTS      5  6  7  8  9 10 11 12 13 17 14 15 18 19 16 20 11 12 13 17
TYPE ASSIGNMENTS     14 15 18 19 16 20  1  1  1  1  1  1  1  1  1  1  1  1  1  1
TYPE ASSIGNMENTS      1  1  1  1  1  1  1  1  1  1  1  1  1  1  1  1  1  2  2  2
TYPE ASSIGNMENTS      2  2  2  3  3  3  3  3  3  4  4  4  4  4  4  2  2  2  2  2
TYPE ASSIGNMENTS      2  3  3  3  3  3  3  4  4  4  4  4  4  2  3  4  2  3  4  2
TYPE ASSIGNMENTS      3  4  5  6  7  8  9 10  5  6  7  8  9 10  5  6  7  8  9 10
TYPE ASSIGNMENTS     11 12 13 17 14 15 18 19 16 20 11 12 13 17 14 15 18 19 16 20
TYPE ASSIGNMENTS      1  1  1  1  1  1  1  1  1  1  1  1  1  1  1  1  1  1  1  1
TYPE ASSIGNMENTS      1  1  1  1  1  1  1  1  1  1  1  2  2  2  2  2  2  3  3  3
TYPE ASSIGNMENTS      3  3  3  4  4  4  4  4  4  2  2  2  2  2  2  3  3  3  3  3
TYPE ASSIGNMENTS      3  4  4  4  4  4  4  2  3  4  2  3  4  2  3  4  5  6  7  8
TYPE ASSIGNMENTS      9 10  5  6  7  8  9 10  5  6  7  8  9 10 11 12 13 17 14 15
TYPE ASSIGNMENTS     18 19 16 20 11 12 13 17 14 15 18 19 16 20
EXPONENTS  0.8236000D+04 0.1235000D+04 0.2808000D+03 0.7927000D+02 0.2559000D+02
EXPONENTS  0.8997000D+01 0.3319000D+01 0.2808000D+03 0.7927000D+02 0.2559000D+02
EXPONENTS  0.8997000D+01 0.3319000D+01 0.3643000D+00 0.9059000D+00 0.1285000D+00
EXPONENTS  0.4402000D-01 0.1871000D+02 0.4133000D+01 0.1200000D+01 0.1871000D+02
EXPONENTS  0.4133000D+01 0.1200000D+01 0.1871000D+02 0.4133000D+01 0.1200000D+01
EXPONENTS  0.3827000D+00 0.3827000D+00 0.3827000D+00 0.1209000D+00 0.1209000D+00
EXPONENTS  0.1209000D+00 0.3569000D-01 0.3569000D-01 0.3569000D-01 0.1097000D+01
EXPONENTS  0.1097000D+01 0.1097000D+01 0.1097000D+01 0.1097000D+01 0.1097000D+01
EXPONENTS  0.3180000D+00 0.3180000D+00 0.3180000D+00 0.3180000D+00 0.3180000D+00
EXPONENTS  0.3180000D+00 0.1000000D+00 0.1000000D+00 0.1000000D+00 0.1000000D+00
EXPONENTS  0.1000000D+00 0.1000000D+00 0.7610000D+00 0.7610000D+00 0.7610000D+00
EXPONENTS  0.7610000D+00 0.7610000D+00 0.7610000D+00 0.7610000D+00 0.7610000D+00
EXPONENTS  0.7610000D+00 0.7610000D+00 0.2680000D+00 0.2680000D+00 0.2680000D+00
EXPONENTS  0.2680000D+00 0.2680000D+00 0.2680000D+00 0.2680000D+00 0.2680000D+00
EXPONENTS  0.2680000D+00 0.2680000D+00 0.4561000D+06 0.6833000D+05 0.1555000D+05
EXPONENTS  0.4405000D+04 0.1439000D+04 0.5204000D+03 0.2031000D+03 0.8396000D+02
EXPONENTS  0.3620000D+02 0.1583000D+02 0.6334000D+01 0.4405000D+04 0.1439000D+04
EXPONENTS  0.5204000D+03 0.2031000D+03 0.8396000D+02 0.3620000D+02 0.1583000D+02
EXPONENTS  0.6334000D+01 0.2694000D+01 0.1439000D+04 0.2031000D+03 0.8396000D+02
EXPONENTS  0.3620000D+02 0.1583000D+02 0.6334000D+01 0.2694000D+01 0.4313000D+00
EXPONENTS  0.9768000D+00 0.1625000D+00 0.5910000D-01 0.6633000D+03 0.1568000D+03
EXPONENTS  0.4998000D+02 0.1842000D+02 0.7240000D+01 0.2922000D+01 0.6633000D+03
EXPONENTS  0.1568000D+03 0.4998000D+02 0.1842000D+02 0.7240000D+01 0.2922000D+01
EXPONENTS  0.6633000D+03 0.1568000D+03 0.4998000D+02 0.1842000D+02 0.7240000D+01
EXPONENTS  0.2922000D+01 0.1568000D+03 0.4998000D+02 0.1842000D+02 0.7240000D+01
EXPONENTS  0.2922000D+01 0.3818000D+00 0.1568000D+03 0.4998000D+02 0.1842000D+02
EXPONENTS  0.7240000D+01 0.2922000D+01 0.3818000D+00 0.1568000D+03 0.4998000D+02
EXPONENTS  0.1842000D+02 0.7240000D+01 0.2922000D+01 0.3818000D+00 0.1022000D+01
EXPONENTS  0.1022000D+01 0.1022000D+01 0.1301000D+00 0.1301000D+00 0.1301000D+00
EXPONENTS  0.4190000D-01 0.4190000D-01 0.4190000D-01 0.1046000D+01 0.1046000D+01
EXPONENTS  0.1046000D+01 0.1046000D+01 0.1046000D+01 0.1046000D+01 0.3440000D+00
EXPONENTS  0.3440000D+00 0.3440000D+00 0.3440000D+00 0.3440000D+00 0.3440000D+00
EXPONENTS  0.1350000D+00 0.1350000D+00 0.1350000D+00 0.1350000D+00 0.1350000D+00
EXPONENTS  0.1350000D+00 0.7060000D+00 0.7060000D+00 0.7060000D+00 0.7060000D+00
EXPONENTS  0.7060000D+00 0.7060000D+00 0.7060000D+00 0.7060000D+00 0.7060000D+00
EXPONENTS  0.7060000D+00 0.3120000D+00 0.3120000D+00 0.3120000D+00 0.3120000D+00
EXPONENTS  0.3120000D+00 0.3120000D+00 0.3120000D+00 0.3120000D+00 0.3120000D+00
EXPONENTS  0.3120000D+00 0.4561000D+06 0.6833000D+05 0.1555000D+05 0.4405000D+04
EXPONENTS  0.1439000D+04 0.5204000D+03 0.2031000D+03 0.8396000D+02 0.3620000D+02
EXPONENTS  0.1583000D+02 0.6334000D+01 0.4405000D+04 0.1439000D+04 0.5204000D+03
EXPONENTS  0.2031000D+03 0.8396000D+02 0.3620000D+02 0.1583000D+02 0.6334000D+01
EXPONENTS  0.2694000D+01 0.1439000D+04 0.2031000D+03 0.8396000D+02 0.3620000D+02
EXPONENTS  0.1583000D+02 0.6334000D+01 0.2694000D+01 0.4313000D+00 0.9768000D+00
EXPONENTS  0.1625000D+00 0.5910000D-01 0.6633000D+03 0.1568000D+03 0.4998000D+02
EXPONENTS  0.1842000D+02 0.7240000D+01 0.2922000D+01 0.6633000D+03 0.1568000D+03
EXPONENTS  0.4998000D+02 0.1842000D+02 0.7240000D+01 0.2922000D+01 0.6633000D+03
EXPONENTS  0.1568000D+03 0.4998000D+02 0.1842000D+02 0.7240000D+01 0.2922000D+01
EXPONENTS  0.1568000D+03 0.4998000D+02 0.1842000D+02 0.7240000D+01 0.2922000D+01
EXPONENTS  0.3818000D+00 0.1568000D+03 0.4998000D+02 0.1842000D+02 0.7240000D+01
EXPONENTS  0.2922000D+01 0.3818000D+00 0.1568000D+03 0.4998000D+02 0.1842000D+02
EXPONENTS  0.7240000D+01 0.2922000D+01 0.3818000D+00 0.1022000D+01 0.1022000D+01
EXPONENTS  0.1022000D+01 0.1301000D+00 0.1301000D+00 0.1301000D+00 0.4190000D-01
EXPONENTS  0.4190000D-01 0.4190000D-01 0.1046000D+01 0.1046000D+01 0.1046000D+01
EXPONENTS  0.1046000D+01 0.1046000D+01 0.1046000D+01 0.3440000D+00 0.3440000D+00
EXPONENTS  0.3440000D+00 0.3440000D+00 0.3440000D+00 0.3440000D+00 0.1350000D+00
EXPONENTS  0.1350000D+00 0.1350000D+00 0.1350000D+00 0.1350000D+00 0.1350000D+00
EXPONENTS  0.7060000D+00 0.7060000D+00 0.7060000D+00 0.7060000D+00 0.7060000D+00
EXPONENTS  0.7060000D+00 0.7060000D+00 0.7060000D+00 0.7060000D+00 0.7060000D+00
EXPONENTS  0.3120000D+00 0.3120000D+00 0.3120000D+00 0.3120000D+00 0.3120000D+00
EXPONENTS  0.3120000D+00 0.3120000D+00 0.3120000D+00 0.3120000D+00 0.3120000D+00
EXPONENTS  0.3741000D+06 0.5605000D+05 0.1276000D+05 0.3615000D+04 0.1183000D+04
EXPONENTS  0.4288000D+03 0.1678000D+03 0.6947000D+02 0.2984000D+02 0.1272000D+02
EXPONENTS  0.5244000D+01 0.3615000D+04 0.1183000D+04 0.4288000D+03 0.1678000D+03
EXPONENTS  0.6947000D+02 0.2984000D+02 0.1272000D+02 0.5244000D+01 0.2219000D+01
EXPONENTS  0.1183000D+04 0.1678000D+03 0.6947000D+02 0.2984000D+02 0.1272000D+02
EXPONENTS  0.5244000D+01 0.2219000D+01 0.3490000D+00 0.7767000D+00 0.1322000D+00
EXPONENTS  0.4970000D-01 0.5744000D+03 0.1358000D+03 0.4319000D+02 0.1587000D+02
EXPONENTS  0.6208000D+01 0.2483000D+01 0.5744000D+03 0.1358000D+03 0.4319000D+02
EXPONENTS  0.1587000D+02 0.6208000D+01 0.2483000D+01 0.5744000D+03 0.1358000D+03
EXPONENTS  0.4319000D+02 0.1587000D+02 0.6208000D+01 0.2483000D+01 0.1358000D+03
EXPONENTS  0.4319000D+02 0.1587000D+02 0.6208000D+01 0.2483000D+01 0.3229000D+00
EXPONENTS  0.1358000D+03 0.4319000D+02 0.1587000D+02 0.6208000D+01 0.2483000D+01
EXPONENTS  0.3229000D+00 0.1358000D+03 0.4319000D+02 0.1587000D+02 0.6208000D+01
EXPONENTS  0.2483000D+01 0.3229000D+00 0.8688000D+00 0.8688000D+00 0.8688000D+00
EXPONENTS  0.1098000D+00 0.1098000D+00 0.1098000D+00 0.3510000D-01 0.3510000D-01
EXPONENTS  0.3510000D-01 0.2690000D+00 0.2690000D+00 0.2690000D+00 0.2690000D+00
EXPONENTS  0.2690000D+00 0.2690000D+00 0.8190000D+00 0.8190000D+00 0.8190000D+00
EXPONENTS  0.8190000D+00 0.8190000D+00 0.8190000D+00 0.1010000D+00 0.1010000D+00
EXPONENTS  0.1010000D+00 0.1010000D+00 0.1010000D+00 0.1010000D+00 0.5570000D+00
EXPONENTS  0.5570000D+00 0.5570000D+00 0.5570000D+00 0.5570000D+00 0.5570000D+00
EXPONENTS  0.5570000D+00 0.5570000D+00 0.5570000D+00 0.5570000D+00 0.2180000D+00
EXPONENTS  0.2180000D+00 0.2180000D+00 0.2180000D+00 0.2180000D+00 0.2180000D+00
EXPONENTS  0.2180000D+00 0.2180000D+00 0.2180000D+00 0.2180000D+00
MO    1     MO 0.0        OCC NO =    2.0000386  ORB. ENERGY =    0.000000
  0.10525583D-04  0.19621807D-04  0.33163527D-04  0.49850966D-04  0.61232983D-04
  0.51678477D-04  0.19432457D-04  0.47007510D-07  0.35135201D-06  0.13130827D-05
  0.36632963D-05  0.49078070D-05 -0.57952050D-05 -0.15324764D-05  0.15806447D-04
  0.16425101D-05 -0.39229538D-12 -0.36780185D-12 -0.26189683D-12  0.73716682D-03
  0.69114075D-03  0.49213339D-03 -0.50676050D-04 -0.47512019D-04 -0.33831388D-04
 -0.86002337D-13  0.19528261D-03 -0.33065585D-04  0.21983736D-13  0.31020143D-03
  0.21933106D-04  0.41726360D-14 -0.10469234D-04  0.17354003D-05  0.28830947D-05
 -0.38446099D-04  0.35563004D-04 -0.47764722D-13  0.16252024D-12  0.27715402D-03
 -0.28193468D-05  0.14435270D-04 -0.11615923D-04 -0.12475164D-14 -0.21052690D-13
  0.27438715D-03 -0.16770362D-06 -0.66698780D-05  0.68375816D-05 -0.69215402D-14
  0.23660614D-13  0.18601529D-03  0.97206292D-14  0.24685631D-03 -0.60103211D-05
 -0.24929825D-13  0.27493827D-04  0.11438640D-04 -0.42320631D-14 -0.76806274D-03
  0.65923232D-05  0.19432170D-13 -0.41533011D-14 -0.30193149D-03  0.46514647D-05
  0.19097153D-13 -0.21528351D-04 -0.47756195D-05 -0.66372494D-14  0.92732282D-03
 -0.91787745D-05 -0.13259891D-13 -0.12959332D-02 -0.24245528D-02 -0.41890894D-02
 -0.67910061D-02 -0.10312794D-01 -0.14333814D-01 -0.17041807D-01 -0.15181433D-01
 -0.75394209D-02 -0.12137830D-02 -0.12806127D-04 -0.63811747D-05 -0.21286530D-03
 -0.74179297D-03 -0.26713166D-02 -0.58885850D-02 -0.82892271D-02  0.39542315D-03
  0.10847893D-01  0.64142914D-02  0.22612216D-06  0.27388916D-05  0.57116697D-05
  0.16380074D-04  0.85059445D-06 -0.70638824D-04 -0.18251716D-03  0.14870639D-03
  0.36425649D-03 -0.19220536D-03 -0.99425960D-04  0.82219486D-09  0.10830230D-08
  0.11947439D-08  0.99232833D-09  0.52695388D-09  0.13595685D-09 -0.50497186D+01
 -0.66516607D+01 -0.73378230D+01 -0.60946366D+01 -0.32364211D+01 -0.83501357D+00
  0.68484875D+01  0.90210602D+01  0.99516415D+01  0.82656174D+01  0.43892722D+01
  0.11324552D+01 -0.31549000D-13  0.30499543D-12  0.43007540D-12  0.61512159D-12
 -0.31148892D-14 -0.56412452D-12  0.26125391D-03 -0.25256347D-02 -0.35614085D-02
 -0.50937563D-02  0.25794065D-04  0.46714550D-02 -0.34254827D-03  0.33115363D-02
  0.46696119D-02  0.66787802D-02 -0.33820403D-04 -0.61250714D-02  0.54740931D-11
 -0.32490290D-01  0.44228145D-01 -0.32712615D-13  0.35573476D-03 -0.51406651D-03
 -0.27698911D-14  0.10161180D-04 -0.19945203D-04  0.93013529D-05 -0.84212993D-03
  0.83282858D-03  0.60918501D-13  0.69427461D-13  0.75024747D-03  0.42115778D-04
  0.49553084D-03 -0.53764662D-03 -0.47176081D-13 -0.26110390D-13 -0.36034449D-03
 -0.19844797D-05 -0.27987203D-05  0.47832000D-05  0.43362609D-14 -0.40571009D-14
  0.41521864D-05 -0.25242905D-14 -0.22764494D-04 -0.10159191D-04 -0.12418138D-13
  0.50169906D-04  0.36456683D-04  0.19991009D-13  0.18123576D-04 -0.59791104D-05
  0.18444293D-13  0.43363359D-14  0.86975986D-04 -0.41377548D-04 -0.34142063D-14
 -0.10320224D-04  0.45696643D-04 -0.95948014D-14 -0.25060773D-03  0.78436000D-04
 -0.18949230D-13  0.14207277D-02  0.26580300D-02  0.45924862D-02  0.74449597D-02
  0.11305886D-01  0.15714117D-01  0.18682882D-01  0.16643360D-01  0.82654446D-02
  0.13306667D-02  0.14039319D-04  0.69964961D-05  0.23339140D-03  0.81332229D-03
  0.29289053D-02  0.64564071D-02  0.90885374D-02 -0.43355286D-03 -0.11893930D-01
 -0.70328061D-02 -0.23808843D-06 -0.28838323D-05 -0.60139282D-05 -0.17246899D-04
 -0.89560746D-06  0.74376994D-04  0.19217587D-03 -0.15657585D-03 -0.38778632D-03
  0.21559243D-03  0.11213153D-03  0.15824721D-08  0.20844860D-08  0.22995143D-08
  0.19099267D-08  0.10142241D-08  0.26167511D-09 -0.47003163D+01 -0.61914162D+01
 -0.68301012D+01 -0.56729338D+01 -0.30124853D+01 -0.77723695D+00 -0.62975841D+01
 -0.82953915D+01 -0.91511154D+01 -0.76007178D+01 -0.40361921D+01 -0.10413587D+01
 -0.65179932D-13  0.63011764D-12  0.88853165D-12  0.12708353D-11 -0.64353311D-14
 -0.11654758D-11  0.24558581D-03 -0.23741656D-02 -0.33478213D-02 -0.47882701D-02
  0.24247126D-04  0.43912953D-02  0.31508740D-03 -0.30460622D-02 -0.42952657D-02
 -0.61433662D-02  0.31109141D-04  0.56340462D-02  0.10450896D-10 -0.30231275D-01
 -0.40650979D-01 -0.59681121D-13  0.34408509D-03  0.50088066D-03 -0.41476782D-14
  0.93490046D-05  0.19034957D-04 -0.10937631D-04  0.80027096D-03 -0.78933333D-03
 -0.14402502D-12  0.11647204D-12  0.71884822D-03 -0.41889434D-04 -0.46592293D-03
  0.50781237D-03  0.86752870D-13 -0.53054434D-13 -0.32305925D-03  0.24703159D-05
 -0.92600061D-06 -0.15443153D-05 -0.96841757D-14  0.23398216D-14  0.26892041D-05
  0.68395929D-15 -0.26355408D-04  0.98881586D-05 -0.98478001D-14  0.55068696D-04
 -0.37206083D-04  0.77959222D-14  0.23997528D-04  0.75416072D-05 -0.13113602D-13
  0.48650773D-14  0.82874669D-04  0.41527591D-04 -0.87886832D-14 -0.95803986D-05
 -0.41844507D-04 -0.58065486D-14 -0.23904361D-03 -0.82738267D-04  0.26832201D-13
 -0.44825545D-05 -0.83805871D-05 -0.14484146D-04 -0.23427508D-04 -0.35409895D-04
 -0.48766757D-04 -0.57002400D-04 -0.49265328D-04 -0.22992385D-04 -0.31149637D-05
  0.22783293D-07 -0.54646194D-07 -0.70247133D-06 -0.25625144D-05 -0.86458602D-05
 -0.18990188D-04 -0.24530144D-04  0.39422028D-05  0.33070396D-04  0.18148607D-04
 -0.11352217D-07 -0.12930881D-06 -0.26849169D-06 -0.73828397D-06  0.95726995D-07
  0.33381839D-05  0.83259608D-05 -0.68921098D-05 -0.60844018D-05 -0.41795497D-04
 -0.82020362D-05 -0.50692353D-09 -0.66505485D-09 -0.72942124D-09 -0.60014582D-09
 -0.31636275D-09 -0.82311638D-10  0.82564761D+00  0.10832027D+01  0.11880389D+01
  0.97748265D+00  0.51527328D+00  0.13406441D+00  0.24833650D-01  0.32580336D-01
  0.35733578D-01  0.29400511D-01  0.15498278D-01  0.40323604D-02 -0.43260616D-14
 -0.15528671D-12 -0.24636626D-12 -0.29255238D-12 -0.44270885D-13  0.32219521D-12
  0.22653980D-04  0.81317890D-03  0.12901287D-02  0.15319883D-02  0.23183020D-03
 -0.16872168D-02  0.29688941D-06  0.10657033D-04  0.16907650D-04  0.20077315D-04
  0.30382270D-05 -0.22111647D-04 -0.37425894D-11  0.58139021D-02  0.17390314D-03
 -0.27617503D-13 -0.51992651D-03  0.94007597D-06 -0.62177176D-15 -0.66949358D-05
 -0.10437187D-06 -0.24539178D-05 -0.29127922D-05  0.53667100D-05  0.41640587D-14
 -0.16650278D-13  0.69050866D-03  0.39625858D-05 -0.44450987D-05  0.48251292D-06
 -0.87538032D-14  0.26059033D-13 -0.10257654D-03 -0.67358171D-06  0.30502134D-06
  0.36856036D-06  0.18255591D-14  0.13253734D-13  0.76463572D-04 -0.64919511D-14
  0.62950565D-04 -0.22678111D-05 -0.98013994D-15  0.22445393D-04 -0.11944347D-05
  0.20455993D-13 -0.21129709D-03  0.79978681D-05  0.51571064D-14  0.20373971D-14
  0.27127146D-04 -0.57815749D-06 -0.25897703D-14  0.21758100D-05  0.14183166D-05
 -0.35224209D-14 -0.83557248D-04  0.31615590D-06 -0.46352167D-14
MO    2     MO 0.0        OCC NO =    2.0000377  ORB. ENERGY =    0.000000
 -0.57837662D-03 -0.10782105D-02 -0.18223227D-02 -0.27392909D-02 -0.33647282D-02
 -0.28397119D-02 -0.10678058D-02 -0.10990886D-05 -0.82150062D-05 -0.30701354D-04
 -0.85651997D-04 -0.11475006D-03  0.13549843D-03  0.17040939D-04 -0.44538970D-03
 -0.64079022D-04  0.72083057D-12  0.67582448D-12  0.48122729D-12  0.46283945D-05
  0.43394141D-05  0.30899213D-05  0.82568817D-03  0.77413514D-03  0.55123034D-03
  0.13824551D-12  0.91966084D-05  0.58513157D-03 -0.20258333D-13  0.77825538D-05
 -0.50876211D-03 -0.31657851D-14 -0.55814410D-06 -0.45842146D-04 -0.64611058D-04
  0.72225648D-03 -0.65764542D-03 -0.74147406D-13 -0.12769876D-12  0.14255090D-04
  0.63782202D-04 -0.11779932D-03  0.54017115D-04  0.11623136D-13 -0.13325851D-13
  0.10498233D-04  0.48374906D-05  0.16351568D-03 -0.16835317D-03 -0.54573214D-14
 -0.20789733D-13  0.97283788D-05 -0.18791629D-13  0.82890151D-05  0.10302074D-03
  0.26594542D-13  0.11052638D-05 -0.19523267D-03  0.29780344D-13 -0.25972309D-04
 -0.11382955D-03  0.30203372D-13  0.83597600D-14 -0.10646631D-04 -0.76395765D-04
 -0.15948878D-13 -0.34778635D-06  0.10004933D-03 -0.91304017D-14  0.32287679D-04
  0.12913797D-03 -0.22447676D-13 -0.87562623D-03 -0.16382032D-02 -0.28304518D-02
 -0.45884950D-02 -0.69680700D-02 -0.96849617D-02 -0.11514677D-01 -0.10257675D-01
 -0.50941782D-02 -0.82011959D-03 -0.86527460D-05 -0.45261626D-05 -0.15098521D-03
 -0.52615322D-03 -0.18947629D-02 -0.41767691D-02 -0.58795428D-02  0.28047335D-03
  0.76944028D-02  0.45496522D-02  0.30244049D-06  0.36632929D-05  0.76394112D-05
  0.21908501D-04  0.11376780D-05 -0.94480083D-04 -0.24411839D-03  0.19889617D-03
  0.16022926D-03 -0.36755115D-03 -0.17602697D-03 -0.18522569D-08 -0.24398556D-08
 -0.26915427D-08 -0.22355369D-08 -0.11871321D-08 -0.30628630D-09  0.40149251D+01
  0.52885956D+01  0.58341488D+01  0.48457174D+01  0.25732104D+01  0.66390173D+00
 -0.67699936D+01 -0.89176653D+01 -0.98375807D+01 -0.81708810D+01 -0.43389646D+01
 -0.11194755D+01  0.73219668D-13 -0.70784063D-12 -0.99812918D-12 -0.14275888D-11
  0.72291086D-14  0.13092335D-11 -0.17380143D-03  0.16802004D-02  0.23692580D-02
  0.33886656D-02 -0.17159726D-04 -0.31077260D-02  0.31825206D-03 -0.30766561D-02
 -0.43384063D-02 -0.62050687D-02  0.31421594D-04  0.56906332D-02 -0.12289041D-10
  0.25946519D-01 -0.43819374D-01  0.75149988D-13 -0.12782113D-03  0.11456868D-03
  0.41477644D-14 -0.10189338D-04  0.12343182D-04  0.16401572D-04  0.44403823D-03
 -0.46043980D-03 -0.15574237D-12 -0.11388068D-12 -0.40886621D-03  0.27325777D-04
 -0.27341065D-03  0.24608487D-03  0.10657387D-12  0.62185079D-13  0.40609088D-03
 -0.32913581D-05  0.47622366D-04 -0.44331008D-04 -0.61452157D-14 -0.39911054D-15
 -0.24897436D-04  0.99913384D-15 -0.33974238D-04  0.62702155D-06  0.44306877D-14
  0.65767684D-04  0.31120984D-04 -0.74280892D-14  0.36155031D-04 -0.33002049D-04
 -0.14079618D-13 -0.70668322D-14 -0.44461758D-04 -0.13358160D-04  0.15469885D-13
  0.17444905D-04 -0.40433284D-04  0.57306112D-14  0.11594037D-03  0.80507763D-04
  0.32090377D-13 -0.63854505D-03 -0.11946497D-02 -0.20640896D-02 -0.33461318D-02
 -0.50814222D-02 -0.70626988D-02 -0.83970077D-02 -0.74803462D-02 -0.37148981D-02
 -0.59806717D-03 -0.63099619D-05 -0.33924696D-05 -0.11316711D-03 -0.39436471D-03
 -0.14201712D-02 -0.31305906D-02 -0.44068612D-02  0.21022164D-03  0.57671432D-02
  0.34100757D-02  0.29963717D-06  0.36293379D-05  0.75686015D-05  0.21705431D-04
  0.11271328D-05 -0.93604347D-04 -0.24185566D-03  0.19705260D-03  0.93419126D-04
 -0.33738168D-03 -0.16443503D-03 -0.88209372D-09 -0.11619238D-08 -0.12817838D-08
 -0.10646218D-08 -0.56534373D-09 -0.14586164D-09 -0.43917584D+01 -0.57849732D+01
 -0.63817309D+01 -0.53005272D+01 -0.28147270D+01 -0.72621429D+00 -0.73043926D+01
 -0.96215938D+01 -0.10614124D+02 -0.88158611D+01 -0.46814669D+01 -0.12078429D+01
  0.31466604D-13 -0.30419888D-12 -0.42895217D-12 -0.61351508D-12  0.31067540D-14
  0.56265119D-12  0.19258234D-03 -0.18617621D-02 -0.26252790D-02 -0.37548434D-02
  0.19013998D-04  0.34435455D-02  0.34413502D-03 -0.33268760D-02 -0.46912424D-02
 -0.67097177D-02  0.33977066D-04  0.61534439D-02 -0.59185106D-11 -0.28369451D-01
 -0.47260984D-01  0.29420087D-13  0.15484270D-03  0.15574017D-03  0.23291051D-14
  0.11030213D-04  0.14121420D-04  0.15146588D-04  0.50361542D-03 -0.51876201D-03
  0.36319239D-13 -0.46926768D-13  0.47162466D-03  0.24248020D-04 -0.30486531D-03
  0.28061729D-03 -0.47762378D-13  0.21526804D-13 -0.42927010D-03 -0.27190532D-05
  0.47686525D-04 -0.44967471D-04  0.34491841D-14  0.39085945D-14  0.26633496D-04
  0.20317960D-14  0.31430237D-04  0.13936411D-05  0.12300855D-13 -0.60212566D-04
  0.27667542D-04 -0.18396242D-13 -0.34078145D-04 -0.31848465D-04  0.94441310D-14
 -0.43389608D-14  0.50072751D-04 -0.10608416D-04  0.37976896D-14 -0.18557682D-04
 -0.42884463D-04  0.92191926D-14 -0.13166057D-03  0.74709712D-04 -0.11879972D-13
  0.51050983D-03  0.95444954D-03  0.16495725D-02  0.26681155D-02  0.40327673D-02
  0.55539556D-02  0.64918978D-02  0.56107370D-02  0.26185602D-02  0.35475745D-03
 -0.25947471D-05  0.64256189D-05  0.82600685D-04  0.30131543D-03  0.10166308D-02
  0.22329774D-02  0.28843977D-02 -0.46354725D-03 -0.38886104D-02 -0.21340192D-02
  0.24219875D-06  0.27587943D-05  0.57282515D-05  0.15751237D-04 -0.20423288D-05
 -0.71219920D-04 -0.17763379D-03  0.14704268D-03 -0.22114258D-04  0.11711803D-02
  0.25690881D-03 -0.20615903D-09 -0.27046893D-09 -0.29664588D-09 -0.24407129D-09
 -0.12866051D-09 -0.33475044D-10  0.14874294D-01  0.19514227D-01  0.21402884D-01
  0.17609648D-01  0.92828054D-02  0.24152113D-02 -0.57459999D+00 -0.75384252D+00
 -0.82680209D+00 -0.68026785D+00 -0.35859853D+00 -0.93300593D-01  0.56572517D-15
  0.20307062D-13  0.32217663D-13  0.38257486D-13  0.57893661D-14 -0.42133921D-13
  0.64956733D-06  0.23316629D-04  0.36992417D-04  0.43927360D-04  0.66473674D-05
 -0.48378295D-04 -0.46279058D-05 -0.16612160D-03 -0.26355608D-03 -0.31296476D-03
 -0.47359818D-04  0.34467588D-03 -0.17238137D-11  0.10966016D-03 -0.39451959D-02
  0.18147580D-13 -0.20422372D-04 -0.11375772D-03  0.12931783D-14 -0.23366037D-06
  0.21982273D-07  0.21556574D-04  0.46840800D-04 -0.68397373D-04  0.53556069D-14
 -0.27363106D-13  0.23904923D-04 -0.92140047D-04  0.91982957D-04  0.15709007D-06
 -0.11116010D-13 -0.28700964D-14 -0.19946772D-05  0.10666337D-04 -0.89869651D-05
 -0.16793723D-05  0.16153023D-14 -0.11092981D-13  0.31432224D-05 -0.11996916D-14
  0.24611809D-05  0.34101748D-04  0.46669285D-14  0.11735368D-05  0.44335369D-04
 -0.10678537D-14 -0.85570796D-05 -0.14664061D-03  0.43437970D-14 -0.25684889D-14
  0.93418439D-06  0.99385779D-05  0.76123439D-15 -0.12151813D-06 -0.20430149D-04
  0.69442323D-14 -0.26810350D-05 -0.93855850D-05 -0.52013617D-14
MO    3     MO 0.0        OCC NO =    2.0000330  ORB. ENERGY =    0.000000
 -0.11088250D-10 -0.20670732D-10 -0.34936353D-10 -0.52515855D-10 -0.64506321D-10
 -0.54441059D-10 -0.20471260D-10 -0.26108471D-14 -0.19514464D-13 -0.72930009D-13
 -0.20346337D-12 -0.27258482D-12  0.32187184D-12 -0.73850430D-12 -0.62900658D-12
 -0.69340683D-13  0.30725461D-04  0.28807073D-04  0.20512352D-04 -0.15041834D-11
 -0.14102676D-11 -0.10041945D-11  0.92496724D-13  0.86721559D-13  0.61750916D-13
  0.23895877D-05 -0.32182903D-12 -0.75341032D-13  0.12827744D-06  0.23486245D-12
  0.76505057D-13  0.11794770D-06  0.54772729D-14  0.13953025D-14  0.13493487D-13
 -0.47485283D-13  0.33991796D-13 -0.11836566D-02 -0.70340748D-05 -0.47164566D-12
  0.78264475D-13 -0.37174833D-13 -0.41089642D-13  0.10949487D-03  0.42111511D-05
 -0.64367751D-13  0.10625194D-13 -0.18169028D-13  0.75438343D-14 -0.11698377D-03
 -0.24542724D-06 -0.14285601D-12 -0.82709401D-06  0.70143537D-14 -0.22618180D-13
  0.61867494D-06  0.11669488D-12  0.10698240D-13  0.18626071D-05 -0.13773794D-12
  0.57156299D-13  0.46828525D-03  0.41515788D-06  0.93170202D-14  0.84592941D-14
 -0.29293473D-06 -0.46454371D-13 -0.22192513D-13 -0.95253890D-06  0.18503310D-13
 -0.31853690D-14 -0.35300079D-03 -0.92464941D-10 -0.17299204D-09 -0.29889187D-09
 -0.48453884D-09 -0.73581872D-09 -0.10227188D-08 -0.12159343D-08 -0.10831965D-08
 -0.53793829D-09 -0.86603514D-10 -0.91371823D-12 -0.21841964D-12 -0.72861135D-11
 -0.25390647D-10 -0.91435831D-10 -0.20155891D-09 -0.28372989D-09  0.13534841D-10
  0.37130984D-09  0.21955318D-09 -0.54718324D-14 -0.66277253D-13 -0.13821422D-12
 -0.39637433D-12 -0.20583167D-13  0.17093583D-11  0.44166537D-11 -0.35984815D-11
  0.13927878D-10  0.35852271D-12  0.11897279D-12 -0.81922121D+01 -0.10791060D+02
 -0.11904228D+02 -0.98873935D+01 -0.52504803D+01 -0.13546514D+01 -0.15171932D-08
 -0.19984984D-08 -0.22046566D-08 -0.18311399D-08 -0.97238610D-09 -0.25088070D-09
 -0.12740508D-08 -0.16782230D-08 -0.18513426D-08 -0.15376850D-08 -0.81655340D-09
 -0.21067505D-09  0.35879908D-03 -0.34686386D-02 -0.48911425D-02 -0.69956277D-02
  0.35424874D-04  0.64156504D-02  0.51489514D-13 -0.49776749D-12 -0.70190412D-12
 -0.10039086D-11  0.50836517D-14  0.92067885D-12  0.42696866D-13 -0.41276583D-12
 -0.58204290D-12 -0.83247532D-12  0.42155378D-14  0.76345838D-12 -0.53679359D-01
 -0.11019547D-10 -0.91769843D-11  0.35110727D-03  0.15734273D-12  0.10378406D-12
  0.14690162D-04  0.42929814D-14  0.18440742D-14 -0.61505889D-13  0.51328484D-13
  0.10177406D-13 -0.99199876D-03 -0.56654687D-03  0.27526529D-12 -0.75645008D-13
  0.31372958D-13  0.44272050D-13  0.48394967D-03  0.33537947D-03  0.10920039D-12
  0.34420697D-14 -0.17729261D-14 -0.16691437D-14 -0.38884010D-04 -0.52500078D-04
  0.18439909D-13 -0.21835104D-04  0.91262470D-14  0.20510777D-13 -0.43850593D-04
 -0.69152852D-13 -0.53976814D-13  0.10935590D-03  0.41774111D-13 -0.75555175D-14
  0.19042026D-04 -0.17267583D-04 -0.40511255D-14  0.17386357D-14  0.85661878D-04
  0.30530596D-14 -0.37970761D-14 -0.33859128D-04  0.91003169D-14 -0.14188310D-14
  0.13992663D-03  0.35131992D-10  0.65728207D-10  0.11356376D-09  0.18410020D-09
  0.27957383D-09  0.38858131D-09  0.46199341D-09  0.41155978D-09  0.20438929D-09
  0.32904946D-10  0.34716662D-12 -0.56060659D-14 -0.18700897D-12 -0.65168883D-12
 -0.23468370D-11 -0.51733101D-11 -0.72823509D-11  0.34739187D-12  0.95302209D-11
  0.56351599D-11 -0.83418613D-16 -0.10104031D-14 -0.21070892D-14 -0.60427649D-14
 -0.31379237D-15  0.26059333D-13  0.67332311D-13 -0.54859198D-13  0.33586209D-12
 -0.21361882D-12 -0.42862370D-13  0.82348494D+01  0.10847223D+02  0.11966185D+02
  0.99388536D+01  0.52778070D+01  0.13617018D+01  0.68050240D-09  0.89638085D-09
  0.98884840D-09  0.82131602D-09  0.43614160D-09  0.11252681D-09  0.97468952D-09
  0.12838941D-08  0.14163362D-08  0.11763781D-08  0.62468941D-09  0.16117313D-09
 -0.36001208D-03  0.34803651D-02  0.49076781D-02  0.70192779D-02 -0.35544635D-04
 -0.64373399D-02 -0.33386652D-13  0.32276067D-12  0.45512624D-12  0.65095092D-12
 -0.32963238D-14 -0.59698339D-12 -0.39860211D-13  0.38534287D-12  0.54337368D-12
  0.77716810D-12 -0.39354698D-14 -0.71273644D-12  0.53934777D-01  0.43955085D-11
  0.64715127D-11 -0.35581503D-03 -0.36920901D-13 -0.77881188D-15 -0.15049489D-04
  0.11608797D-14 -0.14583027D-14  0.52621881D-13 -0.72368048D-13  0.19746167D-13
 -0.99382812D-03  0.56565504D-03  0.28167776D-13 -0.12386884D-14  0.75152960D-13
 -0.73914271D-13  0.47933639D-03 -0.32984153D-03  0.80639475D-14 -0.13273578D-13
  0.74076989D-14  0.58658790D-14 -0.38814042D-04  0.52153958D-04 -0.93848979D-14
  0.20826761D-04  0.26740626D-15 -0.14731536D-13  0.45866585D-04 -0.32182680D-13
  0.33278649D-13 -0.10834687D-03  0.31380462D-13  0.10915960D-13  0.16305450D-04
  0.17282189D-04 -0.14416293D-13 -0.45026380D-14 -0.85859996D-04  0.28475210D-13
 -0.64212542D-14  0.34013429D-04  0.14773671D-13  0.19929168D-13  0.13825203D-03
 -0.11503696D-10 -0.21507318D-10 -0.37171038D-10 -0.60122622D-10 -0.90873331D-10
 -0.12515139D-09 -0.14628674D-09 -0.12643089D-09 -0.59005955D-10 -0.79940121D-11
  0.58469356D-13 -0.32714792D-13 -0.42054536D-12 -0.15340890D-11 -0.51759784D-11
 -0.11368771D-10 -0.14685351D-10  0.23600609D-11  0.19798106D-10  0.10864945D-10
 -0.54319656D-15 -0.61873465D-14 -0.12847162D-13 -0.35326432D-13  0.45804776D-14
  0.15973004D-12  0.39839208D-12 -0.32978320D-12  0.49794779D-12  0.11412045D-12
  0.35657567D-13  0.78111186D-03  0.10247743D-02  0.11239557D-02  0.92475687D-03
  0.48747924D-03  0.12683293D-03  0.32790440D-08  0.43019193D-08  0.47182744D-08
  0.38820541D-08  0.20463982D-08  0.53243431D-09  0.73118185D-09  0.95926900D-09
  0.10521105D-08  0.86564482D-09  0.45631873D-09  0.11872555D-09  0.15698787D-07
  0.56351788D-06  0.89403524D-06  0.10616394D-05  0.16065403D-06 -0.11692099D-05
  0.27897546D-13  0.10014000D-11  0.15887462D-11  0.18865874D-11  0.28549040D-12