 cl2cs-wavefunction
GAUSSIAN            196 MOL ORBITALS    414 PRIMITIVES        4 NUCLEI
  C    1    (CENTRE  1)  -0.01889726  0.00000000 -0.98816425  CHARGE =  6.0
  Cl   2    (CENTRE  2)   0.00000000 -2.70369732 -2.83628995  CHARGE = 17.0
  Cl   3    (CENTRE  3)   0.00000000  2.70369732 -2.83628995  CHARGE = 17.0
  S    4    (CENTRE  4)   0.00000000  0.00000000  2.04433408  CHARGE = 16.0
CENTRE ASSIGNMENTS    1  1  1  1  1  1  1  1  1  1  1  1  1  1  1  1  1  1  1  1
CENTRE ASSIGNMENTS    1  1  1  1  1  1  1  1  1  1  1  1  1  1  1  1  1  1  1  1
CENTRE ASSIGNMENTS    1  1  1  1  1  1  1  1  1  1  1  1  1  1  1  1  1  1  1  1
CENTRE ASSIGNMENTS    1  1  1  1  1  1  1  1  1  1  1  1  2  2  2  2  2  2  2  2
CENTRE ASSIGNMENTS    2  2  2  2  2  2  2  2  2  2  2  2  2  2  2  2  2  2  2  2
CENTRE ASSIGNMENTS    2  2  2  2  2  2  2  2  2  2  2  2  2  2  2  2  2  2  2  2
CENTRE ASSIGNMENTS    2  2  2  2  2  2  2  2  2  2  2  2  2  2  2  2  2  2  2  2
CENTRE ASSIGNMENTS    2  2  2  2  2  2  2  2  2  2  2  2  2  2  2  2  2  2  2  2
CENTRE ASSIGNMENTS    2  2  2  2  2  2  2  2  2  2  2  2  2  2  2  2  2  2  2  2
CENTRE ASSIGNMENTS    2  2  2  2  2  2  3  3  3  3  3  3  3  3  3  3  3  3  3  3
CENTRE ASSIGNMENTS    3  3  3  3  3  3  3  3  3  3  3  3  3  3  3  3  3  3  3  3
CENTRE ASSIGNMENTS    3  3  3  3  3  3  3  3  3  3  3  3  3  3  3  3  3  3  3  3
CENTRE ASSIGNMENTS    3  3  3  3  3  3  3  3  3  3  3  3  3  3  3  3  3  3  3  3
CENTRE ASSIGNMENTS    3  3  3  3  3  3  3  3  3  3  3  3  3  3  3  3  3  3  3  3
CENTRE ASSIGNMENTS    3  3  3  3  3  3  3  3  3  3  3  3  3  3  3  3  3  3  3  3
CENTRE ASSIGNMENTS    4  4  4  4  4  4  4  4  4  4  4  4  4  4  4  4  4  4  4  4
CENTRE ASSIGNMENTS    4  4  4  4  4  4  4  4  4  4  4  4  4  4  4  4  4  4  4  4
CENTRE ASSIGNMENTS    4  4  4  4  4  4  4  4  4  4  4  4  4  4  4  4  4  4  4  4
CENTRE ASSIGNMENTS    4  4  4  4  4  4  4  4  4  4  4  4  4  4  4  4  4  4  4  4
CENTRE ASSIGNMENTS    4  4  4  4  4  4  4  4  4  4  4  4  4  4  4  4  4  4  4  4
CENTRE ASSIGNMENTS    4  4  4  4  4  4  4  4  4  4  4  4  4  4
TYPE ASSIGNMENTS      1  1  1  1  1  1  1  1  1  1  1  1  1  1  1  1  2  2  2  3
TYPE ASSIGNMENTS      3  3  4  4  4  2  3  4  2  3  4  2  3  4  5  6  7  8  9 10
TYPE ASSIGNMENTS      5  6  7  8  9 10  5  6  7  8  9 10 11 12 13 17 14 15 18 19
TYPE ASSIGNMENTS     16 20 11 12 13 17 14 15 18 19 16 20  1  1  1  1  1  1  1  1
TYPE ASSIGNMENTS      1  1  1  1  1  1  1  1  1  1  1  1  1  1  1  1  1  1  1  1
TYPE ASSIGNMENTS      1  1  1  2  2  2  2  2  2  3  3  3  3  3  3  4  4  4  4  4
TYPE ASSIGNMENTS      4  2  2  2  2  2  2  3  3  3  3  3  3  4  4  4  4  4  4  2
TYPE ASSIGNMENTS      3  4  2  3  4  2  3  4  5  6  7  8  9 10  5  6  7  8  9 10
TYPE ASSIGNMENTS      5  6  7  8  9 10 11 12 13 17 14 15 18 19 16 20 11 12 13 17
TYPE ASSIGNMENTS     14 15 18 19 16 20  1  1  1  1  1  1  1  1  1  1  1  1  1  1
TYPE ASSIGNMENTS      1  1  1  1  1  1  1  1  1  1  1  1  1  1  1  1  1  2  2  2
TYPE ASSIGNMENTS      2  2  2  3  3  3  3  3  3  4  4  4  4  4  4  2  2  2  2  2
TYPE ASSIGNMENTS      2  3  3  3  3  3  3  4  4  4  4  4  4  2  3  4  2  3  4  2
TYPE ASSIGNMENTS      3  4  5  6  7  8  9 10  5  6  7  8  9 10  5  6  7  8  9 10
TYPE ASSIGNMENTS     11 12 13 17 14 15 18 19 16 20 11 12 13 17 14 15 18 19 16 20
TYPE ASSIGNMENTS      1  1  1  1  1  1  1  1  1  1  1  1  1  1  1  1  1  1  1  1
TYPE ASSIGNMENTS      1  1  1  1  1  1  1  1  1  1  1  2  2  2  2  2  2  3  3  3
TYPE ASSIGNMENTS      3  3  3  4  4  4  4  4  4  2  2  2  2  2  2  3  3  3  3  3
TYPE ASSIGNMENTS      3  4  4  4  4  4  4  2  3  4  2  3  4  2  3  4  5  6  7  8
TYPE ASSIGNMENTS      9 10  5  6  7  8  9 10  5  6  7  8  9 10 11 12 13 17 14 15
TYPE ASSIGNMENTS     18 19 16 20 11 12 13 17 14 15 18 19 16 20
EXPONENTS  0.8236000D+04 0.1235000D+04 0.2808000D+03 0.7927000D+02 0.2559000D+02
EXPONENTS  0.8997000D+01 0.3319000D+01 0.2808000D+03 0.7927000D+02 0.2559000D+02
EXPONENTS  0.8997000D+01 0.3319000D+01 0.3643000D+00 0.9059000D+00 0.1285000D+00
EXPONENTS  0.4402000D-01 0.1871000D+02 0.4133000D+01 0.1200000D+01 0.1871000D+02
EXPONENTS  0.4133000D+01 0.1200000D+01 0.1871000D+02 0.4133000D+01 0.1200000D+01
EXPONENTS  0.3827000D+00 0.3827000D+00 0.3827000D+00 0.1209000D+00 0.1209000D+00
EXPONENTS  0.1209000D+00 0.3569000D-01 0.3569000D-01 0.3569000D-01 0.1097000D+01
EXPONENTS  0.1097000D+01 0.1097000D+01 0.1097000D+01 0.1097000D+01 0.1097000D+01
EXPONENTS  0.3180000D+00 0.3180000D+00 0.3180000D+00 0.3180000D+00 0.3180000D+00
EXPONENTS  0.3180000D+00 0.1000000D+00 0.1000000D+00 0.1000000D+00 0.1000000D+00
EXPONENTS  0.1000000D+00 0.1000000D+00 0.7610000D+00 0.7610000D+00 0.7610000D+00
EXPONENTS  0.7610000D+00 0.7610000D+00 0.7610000D+00 0.7610000D+00 0.7610000D+00
EXPONENTS  0.7610000D+00 0.7610000D+00 0.2680000D+00 0.2680000D+00 0.2680000D+00
EXPONENTS  0.2680000D+00 0.2680000D+00 0.2680000D+00 0.2680000D+00 0.2680000D+00
EXPONENTS  0.2680000D+00 0.2680000D+00 0.4561000D+06 0.6833000D+05 0.1555000D+05
EXPONENTS  0.4405000D+04 0.1439000D+04 0.5204000D+03 0.2031000D+03 0.8396000D+02
EXPONENTS  0.3620000D+02 0.1583000D+02 0.6334000D+01 0.4405000D+04 0.1439000D+04
EXPONENTS  0.5204000D+03 0.2031000D+03 0.8396000D+02 0.3620000D+02 0.1583000D+02
EXPONENTS  0.6334000D+01 0.2694000D+01 0.1439000D+04 0.2031000D+03 0.8396000D+02
EXPONENTS  0.3620000D+02 0.1583000D+02 0.6334000D+01 0.2694000D+01 0.4313000D+00
EXPONENTS  0.9768000D+00 0.1625000D+00 0.5910000D-01 0.6633000D+03 0.1568000D+03
EXPONENTS  0.4998000D+02 0.1842000D+02 0.7240000D+01 0.2922000D+01 0.6633000D+03
EXPONENTS  0.1568000D+03 0.4998000D+02 0.1842000D+02 0.7240000D+01 0.2922000D+01
EXPONENTS  0.6633000D+03 0.1568000D+03 0.4998000D+02 0.1842000D+02 0.7240000D+01
EXPONENTS  0.2922000D+01 0.1568000D+03 0.4998000D+02 0.1842000D+02 0.7240000D+01
EXPONENTS  0.2922000D+01 0.3818000D+00 0.1568000D+03 0.4998000D+02 0.1842000D+02
EXPONENTS  0.7240000D+01 0.2922000D+01 0.3818000D+00 0.1568000D+03 0.4998000D+02
EXPONENTS  0.1842000D+02 0.7240000D+01 0.2922000D+01 0.3818000D+00 0.1022000D+01
EXPONENTS  0.1022000D+01 0.1022000D+01 0.1301000D+00 0.1301000D+00 0.1301000D+00
EXPONENTS  0.4190000D-01 0.4190000D-01 0.4190000D-01 0.1046000D+01 0.1046000D+01
EXPONENTS  0.1046000D+01 0.1046000D+01 0.1046000D+01 0.1046000D+01 0.3440000D+00
EXPONENTS  0.3440000D+00 0.3440000D+00 0.3440000D+00 0.3440000D+00 0.3440000D+00
EXPONENTS  0.1350000D+00 0.1350000D+00 0.1350000D+00 0.1350000D+00 0.1350000D+00
EXPONENTS  0.1350000D+00 0.7060000D+00 0.7060000D+00 0.7060000D+00 0.7060000D+00
EXPONENTS  0.7060000D+00 0.7060000D+00 0.7060000D+00 0.7060000D+00 0.7060000D+00
EXPONENTS  0.7060000D+00 0.3120000D+00 0.3120000D+00 0.3120000D+00 0.3120000D+00
EXPONENTS  0.3120000D+00 0.3120000D+00 0.3120000D+00 0.3120000D+00 0.3120000D+00
EXPONENTS  0.3120000D+00 0.4561000D+06 0.6833000D+05 0.1555000D+05 0.4405000D+04
EXPONENTS  0.1439000D+04 0.5204000D+03 0.2031000D+03 0.8396000D+02 0.3620000D+02
EXPONENTS  0.1583000D+02 0.6334000D+01 0.4405000D+04 0.1439000D+04 0.5204000D+03
EXPONENTS  0.2031000D+03 0.8396000D+02 0.3620000D+02 0.1583000D+02 0.6334000D+01
EXPONENTS  0.2694000D+01 0.1439000D+04 0.2031000D+03 0.8396000D+02 0.3620000D+02
EXPONENTS  0.1583000D+02 0.6334000D+01 0.2694000D+01 0.4313000D+00 0.9768000D+00
EXPONENTS  0.1625000D+00 0.5910000D-01 0.6633000D+03 0.1568000D+03 0.4998000D+02
EXPONENTS  0.1842000D+02 0.7240000D+01 0.2922000D+01 0.6633000D+03 0.1568000D+03
EXPONENTS  0.4998000D+02 0.1842000D+02 0.7240000D+01 0.2922000D+01 0.6633000D+03
EXPONENTS  0.1568000D+03 0.4998000D+02 0.1842000D+02 0.7240000D+01 0.2922000D+01
EXPONENTS  0.1568000D+03 0.4998000D+02 0.1842000D+02 0.7240000D+01 0.2922000D+01
EXPONENTS  0.3818000D+00 0.1568000D+03 0.4998000D+02 0.1842000D+02 0.7240000D+01
EXPONENTS  0.2922000D+01 0.3818000D+00 0.1568000D+03 0.4998000D+02 0.1842000D+02
EXPONENTS  0.7240000D+01 0.2922000D+01 0.3818000D+00 0.1022000D+01 0.1022000D+01
EXPONENTS  0.1022000D+01 0.1301000D+00 0.1301000D+00 0.1301000D+00 0.4190000D-01
EXPONENTS  0.4190000D-01 0.4190000D-01 0.1046000D+01 0.1046000D+01 0.1046000D+01
EXPONENTS  0.1046000D+01 0.1046000D+01 0.1046000D+01 0.3440000D+00 0.3440000D+00
EXPONENTS  0.3440000D+00 0.3440000D+00 0.3440000D+00 0.3440000D+00 0.1350000D+00
EXPONENTS  0.1350000D+00 0.1350000D+00 0.1350000D+00 0.1350000D+00 0.1350000D+00
EXPONENTS  0.7060000D+00 0.7060000D+00 0.7060000D+00 0.7060000D+00 0.7060000D+00
EXPONENTS  0.7060000D+00 0.7060000D+00 0.7060000D+00 0.7060000D+00 0.7060000D+00
EXPONENTS  0.3120000D+00 0.3120000D+00 0.3120000D+00 0.3120000D+00 0.3120000D+00
EXPONENTS  0.3120000D+00 0.3120000D+00 0.3120000D+00 0.3120000D+00 0.3120000D+00
EXPONENTS  0.3741000D+06 0.5605000D+05 0.1276000D+05 0.3615000D+04 0.1183000D+04
EXPONENTS  0.4288000D+03 0.1678000D+03 0.6947000D+02 0.2984000D+02 0.1272000D+02
EXPONENTS  0.5244000D+01 0.3615000D+04 0.1183000D+04 0.4288000D+03 0.1678000D+03
EXPONENTS  0.6947000D+02 0.2984000D+02 0.1272000D+02 0.5244000D+01 0.2219000D+01
EXPONENTS  0.1183000D+04 0.1678000D+03 0.6947000D+02 0.2984000D+02 0.1272000D+02
EXPONENTS  0.5244000D+01 0.2219000D+01 0.3490000D+00 0.7767000D+00 0.1322000D+00
EXPONENTS  0.4970000D-01 0.5744000D+03 0.1358000D+03 0.4319000D+02 0.1587000D+02
EXPONENTS  0.6208000D+01 0.2483000D+01 0.5744000D+03 0.1358000D+03 0.4319000D+02
EXPONENTS  0.1587000D+02 0.6208000D+01 0.2483000D+01 0.5744000D+03 0.1358000D+03
EXPONENTS  0.4319000D+02 0.1587000D+02 0.6208000D+01 0.2483000D+01 0.1358000D+03
EXPONENTS  0.4319000D+02 0.1587000D+02 0.6208000D+01 0.2483000D+01 0.3229000D+00
EXPONENTS  0.1358000D+03 0.4319000D+02 0.1587000D+02 0.6208000D+01 0.2483000D+01
EXPONENTS  0.3229000D+00 0.1358000D+03 0.4319000D+02 0.1587000D+02 0.6208000D+01
EXPONENTS  0.2483000D+01 0.3229000D+00 0.8688000D+00 0.8688000D+00 0.8688000D+00
EXPONENTS  0.1098000D+00 0.1098000D+00 0.1098000D+00 0.3510000D-01 0.3510000D-01
EXPONENTS  0.3510000D-01 0.2690000D+00 0.2690000D+00 0.2690000D+00 0.2690000D+00
EXPONENTS  0.2690000D+00 0.2690000D+00 0.8190000D+00 0.8190000D+00 0.8190000D+00
EXPONENTS  0.8190000D+00 0.8190000D+00 0.8190000D+00 0.1010000D+00 0.1010000D+00
EXPONENTS  0.1010000D+00 0.1010000D+00 0.1010000D+00 0.1010000D+00 0.5570000D+00
EXPONENTS  0.5570000D+00 0.5570000D+00 0.5570000D+00 0.5570000D+00 0.5570000D+00
EXPONENTS  0.5570000D+00 0.5570000D+00 0.5570000D+00 0.5570000D+00 0.2180000D+00
EXPONENTS  0.2180000D+00 0.2180000D+00 0.2180000D+00 0.2180000D+00 0.2180000D+00
EXPONENTS  0.2180000D+00 0.2180000D+00 0.2180000D+00 0.2180000D+00
MO    1     MO 0.0        OCC NO =    2.0000385  ORB. ENERGY =    0.000000
 -0.21784714D-11 -0.40611095D-11 -0.68638284D-11 -0.10317614D-10 -0.12673341D-10
 -0.10695853D-10 -0.40219200D-11 -0.28400866D-14 -0.21227888D-13 -0.79333464D-13
 -0.22132801D-12 -0.29651852D-12  0.35013308D-12  0.57300050D-13 -0.11420645D-11
 -0.10841468D-12 -0.91453509D-13 -0.85743478D-13 -0.61054464D-13  0.74400678D-03
  0.69755365D-03  0.49669975D-03  0.11392129D-11  0.10680845D-11  0.76053976D-12
 -0.28963150D-13  0.19820353D-03  0.84082664D-12  0.57595552D-14  0.30934268D-03
 -0.65411588D-12  0.26571742D-14 -0.10508344D-04 -0.60914379D-13 -0.11366497D-12
  0.10294106D-11 -0.91574563D-12  0.19997510D-05  0.69378850D-13  0.26900217D-03
  0.17262579D-12 -0.21494571D-12  0.42319923D-13  0.34344731D-06  0.11494038D-14
  0.28086079D-03  0.16353818D-13  0.22459136D-12 -0.24094518D-12  0.18587571D-05
  0.16806497D-13  0.18755369D-03  0.16155695D-15  0.24691027D-03  0.13482162D-12
 -0.23166451D-14  0.26378538D-04 -0.28582913D-12  0.18319742D-14 -0.76710936D-03
 -0.11863574D-12  0.48295876D-05 -0.11638760D-15 -0.30040355D-03 -0.11112989D-12
  0.54903542D-15 -0.21453419D-04  0.13148461D-12 -0.19987262D-15  0.92266406D-03
  0.20190507D-12 -0.15293754D-06 -0.13943722D-02 -0.26087215D-02 -0.45072922D-02
 -0.73068502D-02 -0.11096153D-01 -0.15422609D-01 -0.18336300D-01 -0.16334613D-01
 -0.81121145D-02 -0.13059818D-02 -0.13778879D-04 -0.68569344D-05 -0.22873585D-03
 -0.79709865D-03 -0.28704813D-02 -0.63276188D-02 -0.89072451D-02  0.42490462D-03
  0.11656677D-01  0.68925202D-02  0.22685562D-06  0.27477756D-05  0.57301962D-05
  0.16433205D-04  0.85335346D-06 -0.70867950D-04 -0.18310917D-03  0.14918874D-03
  0.38475664D-03 -0.21111916D-03 -0.10728219D-03  0.25031872D-02  0.32972831D-02
  0.36374194D-02  0.30211616D-02  0.16043207D-02  0.41392312D-03 -0.48526736D+01
 -0.63921063D+01 -0.70514939D+01 -0.58568178D+01 -0.31101328D+01 -0.80243051D+00
  0.65964085D+01  0.86890131D+01  0.95853416D+01  0.79613767D+01  0.42277120D+01
  0.10907718D+01 -0.35784993D-06  0.34594629D-05  0.48782038D-05  0.69771219D-05
 -0.35331163D-07 -0.63986789D-05  0.25172825D-03 -0.24335468D-02 -0.34315550D-02
 -0.49080314D-02  0.24853580D-04  0.45011277D-02 -0.32932330D-03  0.31836858D-02
  0.44893293D-02  0.64209284D-02 -0.32514678D-04 -0.58885970D-02  0.19694295D-04
 -0.31215840D-01  0.42589968D-01  0.31606096D-05  0.34360717D-03 -0.50708091D-03
  0.14264181D-06  0.96062245D-05 -0.19524951D-04  0.76487669D-05 -0.81300883D-03
  0.80536007D-03  0.83653495D-05 -0.13186980D-04  0.73844373D-03  0.41779665D-04
  0.47668272D-03 -0.51846239D-03 -0.71840485D-05  0.78223283D-05 -0.34715260D-03
 -0.21188027D-05 -0.16109250D-05  0.37297276D-05  0.58100248D-06  0.84664607D-06
  0.35050678D-05  0.14591594D-06 -0.22309751D-04 -0.98557469D-05  0.96693645D-06
  0.49206085D-04  0.37160312D-04 -0.14046843D-05  0.17723167D-04 -0.75930718D-05
 -0.27510396D-05 -0.15722602D-06  0.84322638D-04 -0.40430627D-04 -0.36382933D-05
 -0.90589487D-05  0.43516409D-04  0.41099713D-05 -0.24390897D-03  0.77775473D-04
  0.33301293D-05  0.13943721D-02  0.26087214D-02  0.45072920D-02  0.73068499D-02
  0.11096153D-01  0.15422608D-01  0.18336300D-01  0.16334613D-01  0.81121141D-02
  0.13059817D-02  0.13778879D-04  0.68569342D-05  0.22873585D-03  0.79709863D-03
  0.28704812D-02  0.63276187D-02  0.89072449D-02 -0.42490461D-03 -0.11656677D-01
 -0.68925200D-02 -0.22685562D-06 -0.27477756D-05 -0.57301963D-05 -0.16433205D-04
 -0.85335347D-06  0.70867951D-04  0.18310918D-03 -0.14918874D-03 -0.38475663D-03
  0.21111916D-03  0.10728219D-03 -0.25031863D-02 -0.32972819D-02 -0.36374181D-02
 -0.30211605D-02 -0.16043201D-02 -0.41392296D-03 -0.48526736D+01 -0.63921063D+01
 -0.70514939D+01 -0.58568178D+01 -0.31101328D+01 -0.80243051D+00 -0.65964085D+01
 -0.86890132D+01 -0.95853417D+01 -0.79613768D+01 -0.42277120D+01 -0.10907718D+01
  0.35784989D-06 -0.34594625D-05 -0.48782033D-05 -0.69771212D-05  0.35331159D-07
  0.63986782D-05  0.25172825D-03 -0.24335468D-02 -0.34315550D-02 -0.49080314D-02
  0.24853580D-04  0.45011277D-02  0.32932330D-03 -0.31836858D-02 -0.44893293D-02
 -0.64209285D-02  0.32514678D-04  0.58885970D-02 -0.19694289D-04 -0.31215840D-01
 -0.42589968D-01 -0.31606096D-05  0.34360717D-03  0.50708091D-03 -0.14264181D-06
  0.96062245D-05  0.19524951D-04 -0.76487668D-05  0.81300883D-03 -0.80536007D-03
  0.83653495D-05  0.13186980D-04  0.73844373D-03 -0.41779665D-04 -0.47668272D-03
  0.51846239D-03 -0.71840484D-05 -0.78223284D-05 -0.34715260D-03  0.21188027D-05
  0.16109251D-05 -0.37297278D-05  0.58100247D-06 -0.84664606D-06  0.35050678D-05
 -0.14591594D-06 -0.22309751D-04  0.98557469D-05 -0.96693647D-06  0.49206085D-04
 -0.37160312D-04  0.14046843D-05  0.17723167D-04  0.75930717D-05 -0.27510396D-05
  0.15722602D-06  0.84322639D-04  0.40430627D-04  0.36382933D-05 -0.90589487D-05
 -0.43516409D-04 -0.41099713D-05 -0.24390897D-03 -0.77775472D-04  0.33301294D-05
  0.89251389D-11  0.16686446D-10  0.28839138D-10  0.46646118D-10  0.70504046D-10
  0.97098669D-10  0.11349652D-09  0.98091367D-10  0.45779752D-10  0.62021518D-11
 -0.45363432D-13  0.13952555D-13  0.17935868D-12  0.65427470D-12  0.22075066D-11
  0.48486751D-11  0.62631657D-11 -0.10065440D-11 -0.84437079D-11 -0.46337980D-11
  0.27483911D-15  0.31305883D-14  0.65002299D-14  0.17873981D-13 -0.23175670D-14
 -0.80818004D-13 -0.20157294D-12  0.16685916D-12 -0.20819675D-12  0.17783950D-11
  0.35196298D-12 -0.34259753D-09 -0.44946848D-09 -0.49296965D-09 -0.40560058D-09
 -0.21380956D-09 -0.55629226D-10  0.83875226D+00  0.11003953D+01  0.12068955D+01
  0.99299723D+00  0.52345168D+00  0.13619228D+00 -0.43180168D-09 -0.56649925D-09
 -0.62132708D-09 -0.51120920D-09 -0.26948042D-09 -0.70113738D-10 -0.23765545D-14
 -0.85307925D-13 -0.13534316D-12 -0.16071585D-12 -0.24320545D-13  0.17700037D-12
  0.22739520D-04  0.81624943D-03  0.12950002D-02  0.15377730D-02  0.23270559D-03
 -0.16935877D-02 -0.31342092D-14 -0.11250442D-12 -0.17849108D-12 -0.21195268D-12
 -0.32074027D-13  0.23342876D-12 -0.25512144D-11  0.59017109D-02 -0.25830179D-11
 -0.28965476D-13 -0.52184450D-03 -0.19099235D-12 -0.78721404D-15 -0.67227670D-05
  0.72067032D-15  0.10392174D-13  0.46867522D-13 -0.57259696D-13  0.93983814D-05
 -0.45038601D-14  0.68984074D-03 -0.12539545D-12  0.13620248D-12 -0.10807027D-13
 -0.24165248D-05  0.11443396D-13 -0.10487548D-03  0.12770076D-13 -0.11804506D-13
 -0.96557019D-15  0.50652536D-06  0.86866342D-14  0.76510231D-04 -0.25898268D-14
  0.63018164D-04  0.42999482D-13 -0.10946313D-15  0.22995672D-04  0.78882924D-13
  0.78789436D-14 -0.21205016D-03 -0.20788137D-12 -0.10426220D-04  0.70823124D-15
  0.27121229D-04  0.12655561D-13 -0.16423047D-15  0.20436469D-05 -0.26041646D-13
 -0.19604632D-14 -0.83407334D-04 -0.11925036D-13 -0.31863338D-05
MO    2     MO 0.0        OCC NO =    2.0000376  ORB. ENERGY =    0.000000
 -0.56171795D-03 -0.10471554D-02 -0.17698353D-02 -0.26603926D-02 -0.32678158D-02
 -0.27579213D-02 -0.10370504D-02 -0.10913917D-05 -0.81574766D-05 -0.30486353D-04
 -0.85052177D-04 -0.11394647D-03  0.13454953D-03  0.18402030D-04 -0.44432242D-03
 -0.64540772D-04  0.18092450D-05  0.16962822D-05  0.12078540D-05 -0.91310270D-12
 -0.85609183D-12 -0.60958838D-12  0.81738305D-03  0.76634856D-03  0.54568583D-03
  0.60989052D-06 -0.48576758D-12  0.57374496D-03  0.38477846D-05 -0.45052276D-12
 -0.50668436D-03  0.11866000D-06  0.21570172D-13 -0.46044291D-04 -0.63764694D-04
  0.71579399D-03 -0.65202930D-03  0.20353371D-13 -0.30744591D-05 -0.56340514D-12
  0.63288015D-04 -0.11214956D-03  0.48861549D-04 -0.47554612D-14  0.72213556D-05
 -0.93854761D-13  0.47820876D-05  0.16306725D-03 -0.16784934D-03  0.89912975D-15
  0.32179210D-05 -0.22268952D-12  0.48324906D-06 -0.33329090D-12  0.99928885D-04
  0.18960370D-05  0.22394484D-13 -0.19009439D-03 -0.33457841D-05  0.97747822D-12
 -0.10969226D-03 -0.17504103D-13 -0.58759899D-06  0.39719443D-12 -0.74357258D-04
 -0.30905389D-05  0.31944478D-13  0.98158703D-04  0.48533359D-05 -0.12235278D-11
  0.12491307D-03  0.95113912D-14 -0.80037064D-03 -0.14974081D-02 -0.25871890D-02
 -0.41941373D-02 -0.63692000D-02 -0.88525887D-02 -0.10525050D-01 -0.93760800D-02
 -0.46563596D-02 -0.74963450D-03 -0.79090868D-05 -0.41561623D-05 -0.13864262D-03
 -0.48314176D-03 -0.17398717D-02 -0.38353306D-02 -0.53989077D-02  0.25754549D-03
  0.70654083D-02  0.41777317D-02  0.29114114D-06  0.35264302D-05  0.73539984D-05
  0.21089987D-04  0.10951737D-05 -0.90950253D-04 -0.23499799D-03  0.19146530D-03
  0.13799413D-03 -0.35338893D-03 -0.17158619D-03 -0.10946051D-01 -0.14418510D-01
 -0.15905874D-01 -0.13211074D-01 -0.70154466D-02 -0.18100219D-02  0.41840812D+01
  0.55114137D+01  0.60799521D+01  0.50498762D+01  0.26816244D+01  0.69187311D+00
 -0.70562864D+01 -0.92947799D+01 -0.10253597D+02 -0.85164153D+01 -0.45224529D+01
 -0.11668165D+01  0.27336744D-06 -0.26427405D-05 -0.37265400D-05 -0.53299379D-05
  0.26990055D-07  0.48880558D-05 -0.18201766D-03  0.17596296D-02  0.24812614D-02
  0.35488602D-02 -0.17970928D-04 -0.32546395D-02  0.33136903D-03 -0.32034625D-02
 -0.45172166D-02 -0.64608146D-02  0.32716656D-04  0.59251764D-02 -0.65957956D-04
  0.27026173D-01 -0.45655769D-01  0.49733038D-05 -0.14319576D-03  0.13559879D-03
  0.21183141D-06 -0.10750813D-04  0.13333014D-04  0.14985839D-04  0.47415500D-03
 -0.48914084D-03 -0.56678874D-05  0.41952603D-05 -0.44614717D-03  0.24748518D-04
 -0.28453437D-03  0.25978585D-03  0.78470707D-06 -0.24338252D-05  0.41260505D-03
 -0.27945740D-05  0.47345258D-04 -0.44550684D-04  0.54562138D-06  0.14039958D-05
 -0.26994050D-04  0.23890927D-06 -0.30185811D-04  0.10836770D-05  0.12491935D-06
  0.59198769D-04  0.30248159D-04 -0.84164717D-06  0.31358663D-04 -0.33499190D-04
 -0.19771255D-05 -0.18274650D-06 -0.46857860D-04 -0.11811633D-04  0.31519377D-06
  0.18257325D-04 -0.41602326D-04  0.23304572D-06  0.12231626D-03  0.77037225D-04
  0.40295667D-06 -0.80037071D-03 -0.14974082D-02 -0.25871892D-02 -0.41941377D-02
 -0.63692006D-02 -0.88525896D-02 -0.10525051D-01 -0.93760808D-02 -0.46563600D-02
 -0.74963457D-03 -0.79090875D-05 -0.41561626D-05 -0.13864263D-03 -0.48314180D-03
 -0.17398718D-02 -0.38353310D-02 -0.53989081D-02  0.25754551D-03  0.70654089D-02
  0.41777320D-02  0.29114114D-06  0.35264301D-05  0.73539983D-05  0.21089987D-04
  0.10951736D-05 -0.90950251D-04 -0.23499798D-03  0.19146529D-03  0.13799416D-03
 -0.35338893D-03 -0.17158619D-03 -0.10946052D-01 -0.14418511D-01 -0.15905874D-01
 -0.13211074D-01 -0.70154468D-02 -0.18100219D-02 -0.41840812D+01 -0.55114137D+01
 -0.60799520D+01 -0.50498762D+01 -0.26816244D+01 -0.69187311D+00 -0.70562864D+01
 -0.92947799D+01 -0.10253597D+02 -0.85164153D+01 -0.45224529D+01 -0.11668165D+01
  0.27336745D-06 -0.26427406D-05 -0.37265401D-05 -0.53299382D-05  0.26990057D-07
  0.48880560D-05  0.18201766D-03 -0.17596296D-02 -0.24812614D-02 -0.35488602D-02
  0.17970928D-04  0.32546395D-02  0.33136902D-03 -0.32034625D-02 -0.45172165D-02
 -0.64608146D-02  0.32716656D-04  0.59251764D-02 -0.65957957D-04 -0.27026173D-01
 -0.45655769D-01  0.49733038D-05  0.14319576D-03  0.13559878D-03  0.21183141D-06
  0.10750813D-04  0.13333014D-04  0.14985839D-04  0.47415500D-03 -0.48914083D-03
  0.56678874D-05  0.41952602D-05  0.44614717D-03  0.24748518D-04 -0.28453436D-03
  0.25978585D-03 -0.78470707D-06 -0.24338252D-05 -0.41260505D-03 -0.27945740D-05
  0.47345258D-04 -0.44550684D-04 -0.54562138D-06  0.14039958D-05  0.26994050D-04
  0.23890927D-06  0.30185811D-04  0.10836770D-05  0.12491935D-06 -0.59198769D-04
  0.30248159D-04 -0.84164717D-06 -0.31358664D-04 -0.33499190D-04  0.19771255D-05
 -0.18274650D-06  0.46857860D-04 -0.11811633D-04  0.31519377D-06 -0.18257325D-04
 -0.41602325D-04  0.23304572D-06 -0.12231626D-03  0.77037225D-04 -0.40295668D-06
  0.51344231D-03  0.95993210D-03  0.16590480D-02  0.26834418D-02  0.40559324D-02
  0.55858587D-02  0.65291886D-02  0.56429663D-02  0.26336017D-02  0.35679525D-03
 -0.26096518D-05  0.64766402D-05  0.83256558D-04  0.30370796D-03  0.10247031D-02
  0.22507078D-02  0.29073006D-02 -0.46722795D-03 -0.39194871D-02 -0.21509640D-02
  0.23223775D-06  0.26453323D-05  0.54926635D-05  0.15103430D-04 -0.19583331D-05
 -0.68290831D-04 -0.17032818D-03  0.14099520D-03 -0.26507653D-04  0.11721916D-02
  0.25947966D-03 -0.13631600D-02 -0.17883884D-02 -0.19614750D-02 -0.16138426D-02
 -0.85072604D-03 -0.22134291D-03  0.14931667D-09  0.19589498D-09  0.21485440D-09
  0.17677572D-09  0.93186111D-10  0.24245273D-10 -0.57347844D+00 -0.75237109D+00
 -0.82518826D+00 -0.67894004D+00 -0.35789859D+00 -0.93118480D-01  0.11722828D-06
  0.42079830D-05  0.66760706D-05  0.79276290D-05  0.11996592D-05 -0.87308950D-05
 -0.18661092D-13 -0.66985166D-12 -0.10627364D-11 -0.12619669D-11 -0.19096886D-12
  0.13898356D-11 -0.45675748D-05 -0.16395598D-03 -0.26012027D-03 -0.30888485D-03
 -0.46742419D-04  0.34018256D-03 -0.62482869D-05  0.84848175D-12 -0.39328049D-02
 -0.11055711D-04  0.58535441D-12 -0.11710959D-03 -0.29137797D-06  0.42554114D-14
 -0.97202815D-07  0.20115971D-04  0.45766740D-04 -0.65882710D-04 -0.14283445D-13
  0.76129407D-05 -0.80500443D-12 -0.91816924D-04  0.92104838D-04 -0.28791354D-06
  0.56251038D-14 -0.24989718D-05  0.60134542D-14  0.10398774D-04 -0.90209421D-05
 -0.13778322D-05 -0.15664317D-14  0.18904649D-05 -0.97110566D-13  0.10027328D-05
 -0.77911873D-13  0.33045525D-04 -0.92379096D-06 -0.12269699D-13  0.45338725D-04
 -0.20844075D-05  0.24600532D-12 -0.14447530D-03  0.10499997D-13  0.69209295D-08
 -0.31053822D-13  0.97972002D-05  0.80546276D-06  0.19035179D-15 -0.19921389D-04
 -0.82622554D-06  0.92971115D-13 -0.94702112D-05  0.67672463D-14
MO    3     MO 0.0        OCC NO =    2.0000330  ORB. ENERGY =    0.000000
  0.27155874D-11  0.50624020D-11  0.85561491D-11  0.12861488D-10  0.15798034D-10
  0.13332984D-10  0.50135500D-11  0.57661533D-15  0.43098424D-14  0.16106865D-13
  0.44935645D-13  0.60201376D-13 -0.71086600D-13  0.19172966D-12 -0.20594391D-13
 -0.30985397D-13  0.17195271D-11  0.16121659D-11  0.11479582D-11  0.15874394D-04
  0.14883253D-04  0.10597763D-04  0.87654793D-13  0.82181940D-13  0.58518437D-13
  0.34758544D-12 -0.22982846D-05  0.11615205D-13 -0.28476245D-13  0.30219336D-04
  0.12742642D-13 -0.74456113D-14  0.13897966D-05  0.23342041D-15  0.43563895D-14
 -0.91894761D-14  0.48330865D-14  0.11746031D-02 -0.35767882D-12 -0.11160474D-04
 -0.11959094D-13  0.55398727D-14  0.64192215D-14 -0.10403141D-03 -0.53684582D-14
  0.17149875D-04 -0.95301761D-15 -0.47871241D-14  0.57401417D-14  0.11688358D-03
 -0.49633176D-13  0.16308681D-04 -0.40623974D-13  0.15326715D-07  0.29781212D-14
  0.65939606D-13  0.33856272D-05 -0.78240326D-14  0.55932316D-13 -0.34316073D-05
 -0.11103310D-14 -0.46321947D-03  0.16368614D-13 -0.12729552D-05  0.47123297D-14
 -0.42190314D-13 -0.30611784D-05 -0.13058969D-14 -0.69155274D-14  0.68800441D-05
 -0.12831092D-13  0.34829035D-03  0.11873303D-03  0.22213684D-03  0.38380319D-03
  0.62219006D-03  0.94485531D-03  0.13132600D-02  0.15613655D-02  0.13909186D-02
  0.69075960D-03  0.11120645D-03  0.11732938D-05  0.55548033D-06  0.18529894D-04
  0.64572970D-04  0.23253772D-03  0.51260047D-03  0.72157602D-03 -0.34421528D-04
 -0.94430753D-03 -0.55836313D-03  0.11963451D-07  0.14490661D-06  0.30218746D-06
  0.86662104D-06  0.45002424D-07 -0.37372902D-05 -0.96564401D-05  0.78676129D-05
 -0.31260363D-04 -0.13324159D-04  0.31160750D-05  0.82131632D+01  0.10818657D+02
  0.11934672D+02  0.99126800D+01  0.52639081D+01  0.13581158D+01  0.68952289D-01
  0.90826294D-01  0.10019562D+00  0.83220308D-01  0.44192293D-01  0.11401843D-01
  0.45741035D-01  0.60251644D-01  0.66466994D-01  0.55206043D-01  0.29315941D-01
  0.75636659D-02 -0.35896184D-03  0.34702121D-02  0.48933613D-02  0.69988012D-02
 -0.35440944D-04 -0.64185608D-02 -0.31493741D-05  0.30446123D-04  0.42932211D-04
  0.61404419D-04 -0.31094334D-06 -0.56313644D-04 -0.25789577D-05  0.24931704D-04
  0.35156305D-04  0.50282816D-04 -0.25462510D-06 -0.46114085D-04  0.53788338D-01
  0.45596382D-03  0.31029472D-03 -0.35362426D-03 -0.48240131D-05  0.89478393D-05
 -0.14917669D-04 -0.37654954D-06  0.12832750D-06 -0.79580037D-05  0.73869194D-05
  0.57108425D-06  0.99068627D-03  0.56251745D-03  0.42245875D-05  0.48967840D-05
 -0.31876140D-05 -0.17091700D-05 -0.47776676D-03 -0.32813318D-03 -0.85539836D-05
 -0.16027202D-05 -0.47763379D-06  0.20803540D-05  0.39033841D-04  0.52100996D-04
  0.21453601D-05  0.21099238D-04  0.11631488D-05 -0.14916297D-05  0.44223855D-04
  0.95013938D-06  0.34113955D-05 -0.10752157D-03 -0.44395856D-05  0.10634937D-05
 -0.17125683D-04  0.17144593D-04 -0.61070527D-06  0.11051722D-05 -0.85371722D-04
  0.17647312D-05 -0.12664073D-06  0.33937944D-04  0.67384651D-07 -0.31888759D-05
 -0.13693884D-03 -0.11873302D-03 -0.22213681D-03 -0.38380313D-03 -0.62218997D-03
 -0.94485517D-03 -0.13132598D-02 -0.15613653D-02 -0.13909184D-02 -0.69075951D-03
 -0.11120644D-03 -0.11732936D-05 -0.55548030D-06 -0.18529893D-04 -0.64572967D-04
 -0.23253771D-03 -0.51260044D-03 -0.72157598D-03  0.34421526D-04  0.94430748D-03
  0.55836310D-03 -0.11963451D-07 -0.14490661D-06 -0.30218745D-06 -0.86662099D-06
 -0.45002421D-07  0.37372900D-05  0.96564396D-05 -0.78676125D-05  0.31260361D-04
  0.13324159D-04 -0.31160749D-05 -0.82131632D+01 -0.10818657D+02 -0.11934673D+02
 -0.99126800D+01 -0.52639081D+01 -0.13581158D+01  0.68952288D-01  0.90826294D-01
  0.10019562D+00  0.83220307D-01  0.44192293D-01  0.11401842D-01 -0.45741035D-01
 -0.60251643D-01 -0.66466994D-01 -0.55206042D-01 -0.29315940D-01 -0.75636659D-02
  0.35896184D-03 -0.34702121D-02 -0.48933613D-02 -0.69988012D-02  0.35440944D-04
  0.64185608D-02 -0.31493741D-05  0.30446123D-04  0.42932211D-04  0.61404419D-04
 -0.31094334D-06 -0.56313644D-04  0.25789577D-05 -0.24931704D-04 -0.35156305D-04
 -0.50282816D-04  0.25462510D-06  0.46114084D-04 -0.53788338D-01  0.45596382D-03
 -0.31029471D-03  0.35362426D-03 -0.48240131D-05 -0.89478393D-05  0.14917669D-04
 -0.37654954D-06 -0.12832750D-06  0.79580037D-05 -0.73869194D-05 -0.57108422D-06
  0.99068627D-03 -0.56251745D-03  0.42245875D-05 -0.48967840D-05  0.31876140D-05
  0.17091700D-05 -0.47776676D-03  0.32813318D-03 -0.85539836D-05  0.16027202D-05
  0.47763379D-06 -0.20803540D-05  0.39033841D-04 -0.52100996D-04  0.21453601D-05
 -0.21099238D-04  0.11631488D-05  0.14916297D-05 -0.44223855D-04  0.95013937D-06
 -0.34113955D-05  0.10752157D-03 -0.44395857D-05 -0.10634937D-05 -0.17125683D-04
 -0.17144593D-04 -0.61070528D-06 -0.11051722D-05  0.85371722D-04  0.17647312D-05
  0.12664073D-06 -0.33937944D-04  0.67384654D-07  0.31888759D-05 -0.13693884D-03
 -0.10992939D-10 -0.20552407D-10 -0.35520669D-10 -0.57453218D-10 -0.86838616D-10
 -0.11959475D-09 -0.13979170D-09 -0.12081744D-09 -0.56386129D-10 -0.76390833D-11
  0.55873355D-13 -0.19691955D-13 -0.25313810D-12 -0.92341141D-12 -0.31155672D-11
 -0.68431835D-11 -0.88395266D-11  0.14205871D-11  0.11917038D-10  0.65399165D-11
 -0.23946172D-15 -0.27276178D-14 -0.56635178D-14 -0.15573236D-13  0.20192488D-14
  0.70415080D-13  0.17562639D-12 -0.14538098D-12  0.35850121D-12 -0.42918382D-13
  0.84274347D-14 -0.19041964D-09 -0.24981974D-09 -0.27399819D-09 -0.22543746D-09
 -0.11883781D-09 -0.30919363D-10  0.21595497D-01  0.28332064D-01  0.31074143D-01
  0.25566869D-01  0.13477399D-01  0.35065658D-02  0.18550506D-09  0.24337209D-09
  0.26692651D-09  0.21961909D-09  0.11577070D-09  0.30121358D-10  0.32600207D-14
  0.11702050D-12  0.18565596D-12  0.22046075D-12  0.33361523D-13 -0.24279891D-12
  0.38023418D-06  0.13648746D-04  0.21654077D-04  0.25713553D-04  0.38911383D-05