 Entering Gaussian System, Link 0=/home/bruns/programas/chemistry/gaussian/g09/g09
 Input=GAUSSIAN.com
 Output=GAUSSIAN.log
 Initial command:
 /home/bruns/programas/chemistry/gaussian/g09/l1.exe /home/bruns/programas/chemistry/gaussian/work/Gau-66458.inp -scrdir=/home/bruns/programas/chemistry/gaussian/work/
 Entering Link 1 = /home/bruns/programas/chemistry/gaussian/g09/l1.exe PID=     66460.
  
 Copyright (c) 1988,1990,1992,1993,1995,1998,2003,2009,2010,
            Gaussian, Inc.  All Rights Reserved.
  
 This is part of the Gaussian(R) 09 program.  It is based on
 the Gaussian(R) 03 system (copyright 2003, Gaussian, Inc.),
 the Gaussian(R) 98 system (copyright 1998, Gaussian, Inc.),
 the Gaussian(R) 94 system (copyright 1995, Gaussian, Inc.),
 the Gaussian 92(TM) system (copyright 1992, Gaussian, Inc.),
 the Gaussian 90(TM) system (copyright 1990, Gaussian, Inc.),
 the Gaussian 88(TM) system (copyright 1988, Gaussian, Inc.),
 the Gaussian 86(TM) system (copyright 1986, Carnegie Mellon
 University), and the Gaussian 82(TM) system (copyright 1983,
 Carnegie Mellon University). Gaussian is a federally registered
 trademark of Gaussian, Inc.
  
 This software contains proprietary and confidential information,
 including trade secrets, belonging to Gaussian, Inc.
  
 This software is provided under written license and may be
 used, copied, transmitted, or stored only in accord with that
 written license.
  
 The following legend is applicable only to US Government
 contracts under FAR:
  
                    RESTRICTED RIGHTS LEGEND
  
 Use, reproduction and disclosure by the US Government is
 subject to restrictions as set forth in subparagraphs (a)
 and (c) of the Commercial Computer Software - Restricted
 Rights clause in FAR 52.227-19.
  
 Gaussian, Inc.
 340 Quinnipiac St., Bldg. 40, Wallingford CT 06492
  
  
 ---------------------------------------------------------------
 Warning -- This program may not be used in any manner that
 competes with the business of Gaussian, Inc. or will provide
 assistance to any competitor of Gaussian, Inc.  The licensee
 of this program is prohibited from giving any competitor of
 Gaussian, Inc. access to this program.  By using this program,
 the user acknowledges that Gaussian, Inc. is engaged in the
 business of creating and licensing software in the field of
 computational chemistry and represents and warrants to the
 licensee that it is not a competitor of Gaussian, Inc. and that
 it will not use this program in any manner prohibited above.
 ---------------------------------------------------------------
  

 Cite this work as:
 Gaussian 09, Revision B.01,
 M. J. Frisch, G. W. Trucks, H. B. Schlegel, G. E. Scuseria, 
 M. A. Robb, J. R. Cheeseman, G. Scalmani, V. Barone, B. Mennucci, 
 G. A. Petersson, H. Nakatsuji, M. Caricato, X. Li, H. P. Hratchian, 
 A. F. Izmaylov, J. Bloino, G. Zheng, J. L. Sonnenberg, M. Hada, 
 M. Ehara, K. Toyota, R. Fukuda, J. Hasegawa, M. Ishida, T. Nakajima, 
 Y. Honda, O. Kitao, H. Nakai, T. Vreven, J. A. Montgomery, Jr., 
 J. E. Peralta, F. Ogliaro, M. Bearpark, J. J. Heyd, E. Brothers, 
 K. N. Kudin, V. N. Staroverov, T. Keith, R. Kobayashi, J. Normand, 
 K. Raghavachari, A. Rendell, J. C. Burant, S. S. Iyengar, J. Tomasi, 
 M. Cossi, N. Rega, J. M. Millam, M. Klene, J. E. Knox, J. B. Cross, 
 V. Bakken, C. Adamo, J. Jaramillo, R. Gomperts, R. E. Stratmann, 
 O. Yazyev, A. J. Austin, R. Cammi, C. Pomelli, J. W. Ochterski, 
 R. L. Martin, K. Morokuma, V. G. Zakrzewski, G. A. Voth, 
 P. Salvador, J. J. Dannenberg, S. Dapprich, A. D. Daniels, 
 O. Farkas, J. B. Foresman, J. V. Ortiz, J. Cioslowski, 
 and D. J. Fox, Gaussian, Inc., Wallingford CT, 2010.
 
 ******************************************
 Gaussian 09:  EM64L-G09RevB.01 12-Aug-2010
                28-Nov-2021 
 ******************************************
 %nproc=8
 Will use up to    8 processors via shared memory.
 %mem=8GB
 -----------------------------------------------------
 # qcisd/aug-cc-pvtz nosymm density=current output=wfn
 -----------------------------------------------------
 1/30=1,38=1/1;
 2/12=2,15=1,17=6,18=5,40=1/2;
 3/5=16,6=1,7=10,11=9,16=1,25=1,30=1,71=1/1,2,3;
 4//1;
 5/5=2,38=5/2;
 8/6=4,9=120000,10=1/1,4;
 9/5=8,15=1/13;
 11/28=-7,31=1,32=3,42=3/11;
 10/5=6,13=10,31=1/2;
 6/7=2,8=2,9=2,10=2,22=-1,31=1/1;
 99/5=1,6=1100,9=1/99;
 ------------------
 cl2cs-wavefunction
 ------------------
 Symbolic Z-matrix:
 Charge =  0 Multiplicity = 1
 C                     0.        0.       -0.52291 
 Cl                    0.       -1.43074  -1.5009 
 Cl                    0.        1.43074  -1.5009 
 S                     0.       -0.01      1.08181 
 
                          Input orientation:                          
 ---------------------------------------------------------------------
 Center     Atomic      Atomic             Coordinates (Angstroms)
 Number     Number       Type             X           Y           Z
 ---------------------------------------------------------------------
      1          6           0        0.000000    0.000000   -0.522914
      2         17           0        0.000000   -1.430735   -1.500900
      3         17           0        0.000000    1.430735   -1.500900
      4         16           0        0.000000   -0.010000    1.081815
 ---------------------------------------------------------------------
                    Distance matrix (angstroms):
                    1          2          3          4
     1  C    0.000000
     2  Cl   1.733049   0.000000
     3  Cl   1.733049   2.861470   0.000000
     4  S    1.604760   2.947695   2.957386   0.000000
 Symmetry turned off by external request.
 Stoichiometry    CCl2S
 Framework group  CS[SG(CCl2S)]
 Deg. of freedom     5
 Full point group                 CS      NOp   2
 Rotational constants (GHZ):      3.5322136      3.4438386      1.7437331
 Standard basis: Aug-CC-pVTZ (5D, 7F)
 Integral buffers will be    131072 words long.
 Raffenetti 1 integral format.
 Two-electron integral symmetry is turned off.
   196 basis functions,   414 primitive gaussians,   232 cartesian basis functions
    28 alpha electrons       28 beta electrons
       nuclear repulsion energy       244.8922426576 Hartrees.
 NAtoms=    4 NActive=    4 NUniq=    4 SFac= 1.00D+00 NAtFMM=   50 NAOKFM=F Big=F
 One-electron integrals computed using PRISM.
 NBasis=   196 RedAO= T  NBF=   196
 NBsUse=   196 1.00D-06 NBFU=   196
 Harris functional with IExCor=  205 diagonalized for initial guess.
 ExpMin= 3.51D-02 ExpMax= 4.56D+05 ExpMxC= 1.44D+03 IAcc=3 IRadAn=         0 AccDes= 0.00D+00
 HarFok:  IExCor=  205 AccDes= 0.00D+00 IRadAn=         0 IDoV= 1
 ScaDFX=  1.000000  1.000000  1.000000  1.000000
 FoFCou: FMM=F IPFlag=           0 FMFlag=      100000 FMFlg1=           0
         NFxFlg=           0 DoJE=T BraDBF=F KetDBF=T FulRan=T
         Omega=  0.000000  0.000000  1.000000  0.000000  0.000000 ICntrl=     500 IOpCl=  0
         NMat0=    1 NMatS0=    1 NMatT0=    0 NMatD0=    1 NMtDS0=    0 NMtDT0=    0
         I1Cent=           4 NGrid=           0.
 Symmetry not used in FoFCou.
 Requested convergence on RMS density matrix=1.00D-08 within 128 cycles.
 Requested convergence on MAX density matrix=1.00D-06.
 Requested convergence on             energy=1.00D-06.
 No special actions if energy rises.
 Keep R1 ints in memory in canonical form, NReq=371777346.
 SCF Done:  E(RHF) =  -1354.42601452     A.U. after   12 cycles
             Convg  =    0.9626D-08             -V/T =  2.0001
 ExpMin= 3.51D-02 ExpMax= 4.56D+05 ExpMxC= 1.44D+03 IAcc=3 IRadAn=         5 AccDes= 0.00D+00
 HarFok:  IExCor=  205 AccDes= 0.00D+00 IRadAn=         5 IDoV=-2
 ScaDFX=  1.000000  1.000000  1.000000  1.000000
 DSYEVD returned Info=         101 IAlg= 4 N=    50 NDim=    50 NE2=    21472333 trying DSYEV.
 Range of M.O.s used for correlation:    17   196
 NBasis=   196 NAE=    28 NBE=    28 NFC=    16 NFV=     0
 NROrb=    180 NOA=    12 NOB=    12 NVA=   168 NVB=   168

 **** Warning!!: The largest alpha MO coefficient is  0.31130946D+02

 Semi-Direct transformation.
 ModeAB=           2 MOrb=            12 LenV=    1072679889
 LASXX=     33405819 LTotXX=    33405819 LenRXX=    33405819
 LTotAB=    33954012 MaxLAS=    58380480 LenRXY=    58380480
 NonZer=    66811638 LenScr=   100987392 LnRSAI=           0
 LnScr1=           0 LExtra=           0 Total=    192773691
 MaxDsk=          -1 SrtSym=           F ITran=            4
 JobTyp=0 Pass  1:  I=   1 to  12.
 (rs|ai) integrals will be sorted in core.
 Spin components of T(2) and E(2):
     alpha-alpha T2 =       0.3953003980D-01 E2=     -0.9366384810D-01
     alpha-beta  T2 =       0.2072481735D+00 E2=     -0.5370482582D+00
     beta-beta   T2 =       0.3953003980D-01 E2=     -0.9366384810D-01
 ANorm=    0.1134155304D+01
 E2 =    -0.7243759544D+00 EUMP2 =    -0.13551503904711D+04
 R2 and R3 integrals will be kept in memory, NReq=   736864364.
 Iterations=  50 Convergence= 0.100D-07
 Iteration Nr.   1
 **********************
 DD1Dir will call FoFMem   1 times, MxPair=       156
 NAB=    78 NAA=     0 NBB=     0.
 MP4(R+Q)=  0.24886407D-01
 E3=       -0.32599563D-01        EUMP3=      -0.13551829900D+04
 E4(DQ)=    0.31061352D-02        UMP4(DQ)=   -0.13551798839D+04
 E4(SDQ)=  -0.37173506D-02        UMP4(SDQ)=  -0.13551867074D+04
 DE(Corr)= -0.73208911     E(Corr)=     -1355.1581036    
 NORM(A)=   0.11380826D+01
 Iteration Nr.   2
 **********************
 DD1Dir will call FoFMem   1 times, MxPair=       156
 NAB=    78 NAA=     0 NBB=     0.
 DE(Corr)= -0.75642191     E(CORR)=     -1355.1824364     Delta=-2.43D-02
 NORM(A)=   0.11490817D+01
 Iteration Nr.   3
 **********************
 DD1Dir will call FoFMem   1 times, MxPair=       156
 NAB=    78 NAA=     0 NBB=     0.
 DE(Corr)= -0.75560509     E(CORR)=     -1355.1816196     Delta= 8.17D-04
 NORM(A)=   0.11518252D+01
 Iteration Nr.   4
 **********************
 DD1Dir will call FoFMem   1 times, MxPair=       156
 NAB=    78 NAA=     0 NBB=     0.
 DE(Corr)= -0.75786801     E(CORR)=     -1355.1838825     Delta=-2.26D-03
 NORM(A)=   0.11529024D+01
 Iteration Nr.   5
 **********************
 DD1Dir will call FoFMem   1 times, MxPair=       156
 NAB=    78 NAA=     0 NBB=     0.
 DE(Corr)= -0.75814617     E(CORR)=     -1355.1841607     Delta=-2.78D-04
 NORM(A)=   0.11534397D+01
 Iteration Nr.   6
 **********************
 DD1Dir will call FoFMem   1 times, MxPair=       156
 NAB=    78 NAA=     0 NBB=     0.
 DE(Corr)= -0.75819909     E(CORR)=     -1355.1842136     Delta=-5.29D-05
 NORM(A)=   0.11535028D+01
 Iteration Nr.   7
 **********************
 DD1Dir will call FoFMem   1 times, MxPair=       156
 NAB=    78 NAA=     0 NBB=     0.
 DE(Corr)= -0.75820635     E(CORR)=     -1355.1842209     Delta=-7.26D-06
 NORM(A)=   0.11535082D+01
 Iteration Nr.   8
 **********************
 DD1Dir will call FoFMem   1 times, MxPair=       156
 NAB=    78 NAA=     0 NBB=     0.
 DE(Corr)= -0.75820446     E(CORR)=     -1355.1842190     Delta= 1.90D-06
 NORM(A)=   0.11535147D+01
 Iteration Nr.   9
 **********************
 DD1Dir will call FoFMem   1 times, MxPair=       156
 NAB=    78 NAA=     0 NBB=     0.
 DE(Corr)= -0.75820452     E(CORR)=     -1355.1842190     Delta=-6.18D-08
 NORM(A)=   0.11535136D+01
 Iteration Nr.  10
 **********************
 DD1Dir will call FoFMem   1 times, MxPair=       156
 NAB=    78 NAA=     0 NBB=     0.
 DE(Corr)= -0.75820550     E(CORR)=     -1355.1842200     Delta=-9.84D-07
 NORM(A)=   0.11535154D+01
 Iteration Nr.  11
 **********************
 DD1Dir will call FoFMem   1 times, MxPair=       156
 NAB=    78 NAA=     0 NBB=     0.
 DE(Corr)= -0.75820619     E(CORR)=     -1355.1842207     Delta=-6.89D-07
 NORM(A)=   0.11535164D+01
 Iteration Nr.  12
 **********************
 DD1Dir will call FoFMem   1 times, MxPair=       156
 NAB=    78 NAA=     0 NBB=     0.
 DE(Corr)= -0.75820642     E(CORR)=     -1355.1842209     Delta=-2.25D-07
 NORM(A)=   0.11535171D+01
 Iteration Nr.  13
 **********************
 DD1Dir will call FoFMem   1 times, MxPair=       156
 NAB=    78 NAA=     0 NBB=     0.
 DE(Corr)= -0.75820670     E(CORR)=     -1355.1842212     Delta=-2.88D-07
 NORM(A)=   0.11535176D+01
 Iteration Nr.  14
 **********************
 DD1Dir will call FoFMem   1 times, MxPair=       156
 NAB=    78 NAA=     0 NBB=     0.
 DE(Corr)= -0.75820673     E(CORR)=     -1355.1842212     Delta=-2.86D-08
 NORM(A)=   0.11535178D+01
 Iteration Nr.  15
 **********************
 DD1Dir will call FoFMem   1 times, MxPair=       156
 NAB=    78 NAA=     0 NBB=     0.
 DE(Corr)= -0.75820679     E(CORR)=     -1355.1842213     Delta=-5.54D-08
 NORM(A)=   0.11535179D+01
 Iteration Nr.  16
 **********************
 DD1Dir will call FoFMem   1 times, MxPair=       156
 NAB=    78 NAA=     0 NBB=     0.
 DE(Corr)= -0.75820680     E(CORR)=     -1355.1842213     Delta=-1.22D-08
 NORM(A)=   0.11535180D+01
 Iteration Nr.  17
 **********************
 DD1Dir will call FoFMem   1 times, MxPair=       156
 NAB=    78 NAA=     0 NBB=     0.
 DE(Corr)= -0.75820680     E(CORR)=     -1355.1842213     Delta= 1.72D-10
 NORM(A)=   0.11535179D+01
 Iteration Nr.  18
 **********************
 DD1Dir will call FoFMem   1 times, MxPair=       156
 NAB=    78 NAA=     0 NBB=     0.
 DE(Corr)= -0.75820680     E(CORR)=     -1355.1842213     Delta=-3.95D-09
 NORM(A)=   0.11535180D+01
 Iteration Nr.  19
 **********************
 DD1Dir will call FoFMem   1 times, MxPair=       156
 NAB=    78 NAA=     0 NBB=     0.
 DE(Corr)= -0.75820680     E(CORR)=     -1355.1842213     Delta= 1.34D-09
 NORM(A)=   0.11535180D+01
 Largest amplitude= 8.91D-02

 Z-AMPLITUDE ITERATIONS

 Iteration Nr.   1
 **********************
 DD1Dir will call FoFMem   1 times, MxPair=       156
 NAB=    78 NAA=     0 NBB=     0.
 DE(Z)  -0.72636208D+00          E(Z)=    -0.13551523766D+04
 NORM(A)=   0.11535355D+01
 Iteration Nr.   2
 **********************
 DD1Dir will call FoFMem   1 times, MxPair=       156
 NAB=    78 NAA=     0 NBB=     0.
 DE(Z)  -0.72636255D+00          E(Z)=    -0.13551523771D+04
 NORM(A)=   0.11535266D+01
 Iteration Nr.   3
 **********************
 DD1Dir will call FoFMem   1 times, MxPair=       156
 NAB=    78 NAA=     0 NBB=     0.
 DE(Z)  -0.72636232D+00          E(Z)=    -0.13551523768D+04
 NORM(A)=   0.11535285D+01
 Iteration Nr.   4
 **********************
 DD1Dir will call FoFMem   1 times, MxPair=       156
 NAB=    78 NAA=     0 NBB=     0.
 DE(Z)  -0.72636238D+00          E(Z)=    -0.13551523769D+04
 NORM(A)=   0.11535298D+01
 Iteration Nr.   5
 **********************
 DD1Dir will call FoFMem   1 times, MxPair=       156
 NAB=    78 NAA=     0 NBB=     0.
 DE(Z)  -0.72636242D+00          E(Z)=    -0.13551523769D+04
 NORM(A)=   0.11402950D+01
 Iteration Nr.   6
 **********************
 DD1Dir will call FoFMem   1 times, MxPair=       156
 NAB=    78 NAA=     0 NBB=     0.
 DE(Z)  -0.72597056D+00          E(Z)=    -0.13551519851D+04
 NORM(A)=   0.11402780D+01
 Iteration Nr.   7
 **********************
 DD1Dir will call FoFMem   1 times, MxPair=       156
 NAB=    78 NAA=     0 NBB=     0.
 DE(Z)  -0.72597536D+00          E(Z)=    -0.13551519899D+04
 NORM(A)=   0.11402751D+01
 Iteration Nr.   8
 **********************
 DD1Dir will call FoFMem   1 times, MxPair=       156
 NAB=    78 NAA=     0 NBB=     0.
 DE(Z)  -0.72597462D+00          E(Z)=    -0.13551519891D+04
 NORM(A)=   0.11402768D+01
 Iteration Nr.   9
 **********************
 DD1Dir will call FoFMem   1 times, MxPair=       156
 NAB=    78 NAA=     0 NBB=     0.
 DE(Z)  -0.72597514D+00          E(Z)=    -0.13551519897D+04
 NORM(A)=   0.11402782D+01
 Iteration Nr.  10
 **********************
 DD1Dir will call FoFMem   1 times, MxPair=       156
 NAB=    78 NAA=     0 NBB=     0.
 DE(Z)  -0.72597560D+00          E(Z)=    -0.13551519901D+04
 NORM(A)=   0.11402794D+01
 Iteration Nr.  11
 **********************
 DD1Dir will call FoFMem   1 times, MxPair=       156
 NAB=    78 NAA=     0 NBB=     0.
 DE(Z)  -0.72597536D+00          E(Z)=    -0.13551519899D+04
 NORM(A)=   0.11402796D+01
 Iteration Nr.  12
 **********************
 DD1Dir will call FoFMem   1 times, MxPair=       156
 NAB=    78 NAA=     0 NBB=     0.
 DE(Z)  -0.72597556D+00          E(Z)=    -0.13551519901D+04
 NORM(A)=   0.11402797D+01
 Iteration Nr.  13
 **********************
 DD1Dir will call FoFMem   1 times, MxPair=       156
 NAB=    78 NAA=     0 NBB=     0.
 DE(Z)  -0.72597544D+00          E(Z)=    -0.13551519900D+04
 NORM(A)=   0.11402796D+01
 Iteration Nr.  14
 **********************
 DD1Dir will call FoFMem   1 times, MxPair=       156
 NAB=    78 NAA=     0 NBB=     0.
 DE(Z)  -0.72597546D+00          E(Z)=    -0.13551519900D+04
 NORM(A)=   0.11402796D+01
 Iteration Nr.  15
 **********************
 DD1Dir will call FoFMem   1 times, MxPair=       156
 NAB=    78 NAA=     0 NBB=     0.
 DE(Z)  -0.72597546D+00          E(Z)=    -0.13551519900D+04
 NORM(A)=   0.11402797D+01
 Iteration Nr.  16
 **********************
 DD1Dir will call FoFMem   1 times, MxPair=       156
 NAB=    78 NAA=     0 NBB=     0.
 DE(Z)  -0.72597549D+00          E(Z)=    -0.13551519900D+04
 NORM(A)=   0.11402796D+01
 Iteration Nr.  17
 **********************
 DD1Dir will call FoFMem   1 times, MxPair=       156
 NAB=    78 NAA=     0 NBB=     0.
 DE(Z)  -0.72597546D+00          E(Z)=    -0.13551519900D+04
 NORM(A)=   0.11402796D+01
 Iteration Nr.  18
 **********************
 DD1Dir will call FoFMem   1 times, MxPair=       156
 NAB=    78 NAA=     0 NBB=     0.
 DE(Z)  -0.72597546D+00          E(Z)=    -0.13551519900D+04
 NORM(A)=   0.11402796D+01
 Discarding MO integrals.
          Differentiating once with respect to electric field.
                with respect to dipole field.
          Electric field/nuclear overlap derivatives assumed to be zero.
          Keep R1 ints in memory in canonical form, NReq=367211061.
          There are     1 degrees of freedom in the 1st order CPHF.  IDoFFX=0.
 LinEq1:  Iter=  0 NonCon=     1 RMS=2.08D-03 Max=6.35D-02
 AX will form     1 AO Fock derivatives at one time.
 LinEq1:  Iter=  1 NonCon=     1 RMS=9.28D-04 Max=1.77D-02
 LinEq1:  Iter=  2 NonCon=     1 RMS=4.11D-04 Max=1.02D-02
 LinEq1:  Iter=  3 NonCon=     1 RMS=1.04D-04 Max=1.79D-03
 LinEq1:  Iter=  4 NonCon=     1 RMS=2.44D-05 Max=8.02D-04
 LinEq1:  Iter=  5 NonCon=     1 RMS=7.99D-06 Max=1.96D-04
 LinEq1:  Iter=  6 NonCon=     1 RMS=2.41D-06 Max=8.99D-05
 LinEq1:  Iter=  7 NonCon=     1 RMS=7.34D-07 Max=1.30D-05
 LinEq1:  Iter=  8 NonCon=     1 RMS=1.36D-07 Max=2.08D-06
 LinEq1:  Iter=  9 NonCon=     1 RMS=2.58D-08 Max=3.74D-07
 LinEq1:  Iter= 10 NonCon=     1 RMS=6.84D-09 Max=1.66D-07
 LinEq1:  Iter= 11 NonCon=     1 RMS=1.41D-09 Max=2.15D-08
 LinEq1:  Iter= 12 NonCon=     1 RMS=3.22D-10 Max=5.24D-09
 LinEq1:  Iter= 13 NonCon=     0 RMS=6.98D-11 Max=8.85D-10
 Linear equations converged to 1.000D-10 1.000D-09 after    13 iterations.
 End of Minotr Frequency-dependent properties file   721 does not exist.
 End of Minotr Frequency-dependent properties file   722 does not exist.

 **********************************************************************

            Population analysis using the QCI/CC density.

 **********************************************************************

     Natural Orbital Coefficients:
                           1         2         3         4         5
     Eigenvalues --     2.00004   2.00004   2.00003   2.00003   2.00003
   1 1   C  1S         -0.00006  -0.00168   0.00000   0.00000  -0.00123
   2        2S          0.00001   0.00038   0.00000   0.00000   0.00004
   3        3S          0.00000   0.00003   0.00000   0.00000  -0.00005
   4        4S          0.00007  -0.00290   0.00000   0.00000  -0.00007
   5        5S          0.00005  -0.00094   0.00000   0.00000  -0.00002
   6        6PX         0.00000   0.00000   0.00000   0.00159   0.00000
   7        6PY         0.00034   0.00000   0.00000   0.00000  -0.00105
   8        6PZ         0.00000   0.00037   0.00000   0.00000   0.00001
   9        7PX         0.00000   0.00000   0.00000   0.00170   0.00000
  10        7PY         0.00046   0.00000   0.00000   0.00000  -0.00225
  11        7PZ         0.00002   0.00134   0.00000   0.00000   0.00001
  12        8PX         0.00000   0.00000   0.00002  -0.00093   0.00000
  13        8PY         0.00304   0.00008   0.00000   0.00000   0.00662
  14        8PZ         0.00001  -0.00499   0.00000   0.00000  -0.00007
  15        9PX         0.00000   0.00000   0.00000  -0.00100   0.00000
  16        9PY        -0.00048   0.00001   0.00000   0.00000   0.00157
  17        9PZ         0.00002  -0.00208   0.00000   0.00000  -0.00001
  18       10D 0        0.00000  -0.00034   0.00000   0.00000   0.00000
  19       10D+1        0.00000   0.00000   0.00000  -0.00028   0.00000
  20       10D-1        0.00008   0.00000   0.00000   0.00000  -0.00036
  21       10D+2        0.00000  -0.00023   0.00000   0.00000   0.00000
  22       10D-2        0.00000   0.00000  -0.00035   0.00000   0.00000
  23       11D 0        0.00001   0.00022   0.00000   0.00000   0.00000
  24       11D+1        0.00000   0.00000   0.00000   0.00010   0.00000
  25       11D-1        0.00073   0.00001   0.00000   0.00000   0.00113
  26       11D+2        0.00000   0.00046   0.00000   0.00000   0.00000
  27       11D-2        0.00000   0.00000   0.00027   0.00000   0.00000
  28       12D 0        0.00004  -0.00574   0.00000   0.00000  -0.00003
  29       12D+1        0.00000   0.00000   0.00002  -0.00272   0.00000
  30       12D-1        0.00370  -0.00001   0.00000   0.00000  -0.00335
  31       12D+2        0.00002  -0.00312   0.00000   0.00000  -0.00001
  32       12D-2        0.00000   0.00000  -0.00230   0.00002   0.00000
  33       13F 0        0.00000   0.00013   0.00000   0.00000   0.00000
  34       13F+1        0.00000   0.00000   0.00000   0.00004   0.00000
  35       13F-1       -0.00039   0.00000   0.00000   0.00000  -0.00029
  36       13F+2        0.00000  -0.00003   0.00000   0.00000   0.00000
  37       13F-2        0.00000   0.00000   0.00015   0.00000   0.00000
  38       13F+3        0.00000   0.00000   0.00000  -0.00009   0.00000
  39       13F-3       -0.00009   0.00000   0.00000   0.00000   0.00010
  40       14F 0        0.00002  -0.00098   0.00000   0.00000   0.00003
  41       14F+1        0.00000   0.00000   0.00000   0.00005   0.00000
  42       14F-1        0.00495   0.00006   0.00000   0.00000   0.00168
  43       14F+2        0.00001  -0.00009   0.00000   0.00000   0.00002
  44       14F-2        0.00000   0.00000  -0.00118   0.00001   0.00000
  45       14F+3        0.00000   0.00000  -0.00001   0.00058   0.00000
  46       14F-3        0.00116   0.00001   0.00000   0.00000  -0.00012
  47 2   Cl 1S         -0.00232  -0.00125   0.00000   0.00000   0.02417
  48        2S          0.00824   0.00469   0.00000   0.00000  -0.08215
  49        3S          0.00032   0.00044   0.00000   0.00000   0.00225
  50        4S          0.00057   0.00018   0.00000   0.00000  -0.00609
  51        5S         -0.00116  -0.00190   0.00000   0.00000   0.00394
  52        6S         -0.00125  -0.00199   0.00000   0.00000   0.00409
  53        7PX         0.00000   0.00000  -0.69202  -0.68761   0.00000
  54        7PY        -0.41082   0.34932   0.00000   0.00000   0.13859
  55        7PZ         0.56030  -0.59181   0.00000   0.00000   0.03044
  56        8PX         0.00000   0.00000   0.01495   0.01335   0.00000
  57        8PY         0.01052  -0.00749   0.00000   0.00000  -0.00293
  58        8PZ        -0.01382   0.01373   0.00000   0.00000  -0.00143
  59        9PX         0.00000   0.00000  -0.03670  -0.03694   0.00000
  60        9PY        -0.02140   0.01827   0.00000   0.00000   0.00766
  61        9PZ         0.02930  -0.03101   0.00000   0.00000   0.00175
  62       10PX         0.00000   0.00000   0.00318   0.00278   0.00000
  63       10PY         0.00309  -0.00124   0.00000   0.00000   0.00065
  64       10PZ        -0.00457   0.00119   0.00000   0.00000   0.00011
  65       11PX         0.00000   0.00000   0.00056   0.00078   0.00000
  66       11PY         0.00036  -0.00040   0.00000   0.00000   0.00030
  67       11PZ        -0.00073   0.00049   0.00000   0.00000   0.00020
  68       12D 0        0.00045  -0.00027   0.00000   0.00000   0.00008
  69       12D+1        0.00000   0.00000  -0.00018  -0.00018   0.00000
  70       12D-1        0.00024  -0.00014   0.00000   0.00000   0.00011
  71       12D+2        0.00027  -0.00015   0.00000   0.00000  -0.00007
  72       12D-2        0.00000   0.00000  -0.00032  -0.00020   0.00000
  73       13D 0       -0.00204   0.00100   0.00000   0.00000   0.00009
  74       13D+1        0.00000   0.00000   0.00074   0.00057   0.00000
  75       13D-1       -0.00080   0.00093   0.00000   0.00000  -0.00048
  76       13D+2       -0.00099   0.00069   0.00000   0.00000   0.00016
  77       13D-2        0.00000   0.00000   0.00108   0.00100   0.00000
  78       14D 0        0.00008  -0.00090   0.00000   0.00000   0.00000
  79       14D+1        0.00000   0.00000  -0.00061   0.00006   0.00000
  80       14D-1        0.00004  -0.00032   0.00000   0.00000   0.00008
  81       14D+2        0.00000  -0.00058   0.00000   0.00000   0.00016
  82       14D-2        0.00000   0.00000  -0.00045  -0.00047   0.00000
  83       15F 0       -0.00001   0.00000   0.00000   0.00000   0.00004
  84       15F+1        0.00000   0.00000   0.00007  -0.00005   0.00000
  85       15F-1        0.00001   0.00002   0.00000   0.00000   0.00003
  86       15F+2        0.00002   0.00002   0.00000   0.00000  -0.00003
  87       15F-2        0.00000   0.00000   0.00001  -0.00003   0.00000
  88       15F+3        0.00000   0.00000   0.00001  -0.00003   0.00000
  89       15F-3        0.00003   0.00004   0.00000   0.00000  -0.00005
  90       16F 0       -0.00038  -0.00011   0.00000   0.00000   0.00019
  91       16F+1        0.00000   0.00000  -0.00013   0.00018   0.00000
  92       16F-1       -0.00093   0.00046   0.00000   0.00000  -0.00017
  93       16F+2       -0.00008  -0.00029   0.00000   0.00000   0.00030
  94       16F-2        0.00000   0.00000   0.00033   0.00033   0.00000
  95       16F+3        0.00000   0.00000  -0.00030  -0.00022   0.00000
  96       16F-3       -0.00028   0.00019   0.00000   0.00000   0.00021
  97 3   Cl 1S          0.00220  -0.00135   0.00000   0.00000  -0.02467
  98        2S         -0.00782   0.00503   0.00000   0.00000   0.08385
  99        3S         -0.00035   0.00043   0.00000   0.00000  -0.00232
 100        4S         -0.00053   0.00021   0.00000   0.00000   0.00621
 101        5S          0.00115  -0.00198   0.00000   0.00000  -0.00401
 102        6S          0.00126  -0.00202   0.00000   0.00000  -0.00411
 103        7PX         0.00000   0.00000   0.69291  -0.68673   0.00000
 104        7PY        -0.40739  -0.35618   0.00000   0.00000   0.13841
 105        7PZ        -0.55193  -0.59795   0.00000   0.00000  -0.03197
 106        8PX         0.00000   0.00000  -0.01497   0.01334   0.00000
 107        8PY         0.01046   0.00768   0.00000   0.00000  -0.00291
 108        8PZ         0.01363   0.01389   0.00000   0.00000   0.00145
 109        9PX         0.00000   0.00000   0.03675  -0.03689   0.00000
 110        9PY        -0.02122  -0.01863   0.00000   0.00000   0.00765
 111        9PZ        -0.02886  -0.03133   0.00000   0.00000  -0.00183
 112       10PX         0.00000   0.00000  -0.00317   0.00275   0.00000
 113       10PY         0.00308   0.00133   0.00000   0.00000   0.00065
 114       10PZ         0.00454   0.00124   0.00000   0.00000  -0.00015
 115       11PX         0.00000   0.00000  -0.00055   0.00078   0.00000
 116       11PY         0.00035   0.00040   0.00000   0.00000   0.00030
 117       11PZ         0.00071   0.00049   0.00000   0.00000  -0.00021
 118       12D 0       -0.00045  -0.00028   0.00000   0.00000  -0.00008
 119       12D+1        0.00000   0.00000   0.00018  -0.00018   0.00000
 120       12D-1        0.00024   0.00015   0.00000   0.00000   0.00011
 121       12D+2       -0.00026  -0.00015   0.00000   0.00000   0.00007
 122       12D-2        0.00000   0.00000  -0.00032   0.00020   0.00000
 123       13D 0        0.00204   0.00104   0.00000   0.00000  -0.00008
 124       13D+1        0.00000   0.00000  -0.00075   0.00058   0.00000
 125       13D-1       -0.00078  -0.00094   0.00000   0.00000  -0.00048
 126       13D+2        0.00098   0.00071   0.00000   0.00000  -0.00016
 127       13D-2        0.00000   0.00000   0.00109  -0.00101   0.00000
 128       14D 0       -0.00007  -0.00090   0.00000   0.00000  -0.00001
 129       14D+1        0.00000   0.00000   0.00061   0.00006   0.00000
 130       14D-1        0.00004   0.00031   0.00000   0.00000   0.00009
 131       14D+2        0.00001  -0.00059   0.00000   0.00000  -0.00016
 132       14D-2        0.00000   0.00000  -0.00046   0.00048   0.00000
 133       15F 0        0.00002   0.00000   0.00000   0.00000  -0.00004
 134       15F+1        0.00000   0.00000  -0.00007  -0.00005   0.00000
 135       15F-1        0.00001  -0.00002   0.00000   0.00000   0.00003
 136       15F+2       -0.00002   0.00002   0.00000   0.00000   0.00003
 137       15F-2        0.00000   0.00000   0.00001   0.00003   0.00000
 138       15F+3        0.00000   0.00000  -0.00001  -0.00003   0.00000
 139       15F-3        0.00003  -0.00004   0.00000   0.00000  -0.00005
 140       16F 0        0.00038  -0.00011   0.00000   0.00000  -0.00018
 141       16F+1        0.00000   0.00000   0.00013   0.00018   0.00000
 142       16F-1       -0.00093  -0.00048   0.00000   0.00000  -0.00016
 143       16F+2        0.00008  -0.00029   0.00000   0.00000  -0.00030
 144       16F-2        0.00000   0.00000   0.00033  -0.00033   0.00000
 145       16F+3        0.00000   0.00000   0.00030  -0.00022   0.00000
 146       16F-3       -0.00027  -0.00019   0.00000   0.00000   0.00021
 147 4   S  1S          0.00003   0.00088   0.00000   0.00000  -0.00046
 148        2S         -0.00007  -0.00303   0.00000   0.00000   0.00154
 149        3S          0.00004   0.00038   0.00000   0.00000  -0.00006
 150        4S          0.00001  -0.00004   0.00000   0.00000   0.00010
 151        5S         -0.00005   0.00750   0.00000   0.00000   0.00010
 152        6S         -0.00007   0.00346   0.00000   0.00000   0.00003
 153        7PX         0.00000   0.00000   0.00000   0.11531   0.00000
 154        7PY         0.08386   0.00043   0.00000   0.00000   0.94865
 155        7PZ         0.00116  -0.05733   0.00000   0.00000   0.01139
 156        8PX         0.00000   0.00000  -0.00001  -0.00355   0.00000
 157        8PY        -0.00485  -0.00004   0.00000   0.00000  -0.01857
 158        8PZ        -0.00004   0.00097   0.00000   0.00000  -0.00023
 159        9PX         0.00000   0.00000   0.00000   0.00666   0.00000
 160        9PY         0.00494   0.00003   0.00000   0.00000   0.05481
 161        9PZ         0.00006  -0.00329   0.00000   0.00000   0.00067
 162       10PX         0.00000   0.00000  -0.00003   0.00145   0.00000
 163       10PY        -0.00579   0.00003   0.00000   0.00000  -0.00508
 164       10PZ         0.00002  -0.00130   0.00000   0.00000  -0.00011
 165       11PX         0.00000   0.00000   0.00000   0.00024   0.00000
 166       11PY        -0.00031   0.00000   0.00000   0.00000  -0.00114
 167       11PZ         0.00000   0.00000   0.00000   0.00000  -0.00001
 168       12D 0        0.00002  -0.00040   0.00000   0.00000   0.00005
 169       12D+1        0.00000   0.00000   0.00001  -0.00001   0.00000
 170       12D-1        0.00241   0.00004   0.00000   0.00000   0.00270
 171       12D+2        0.00003  -0.00009   0.00000   0.00000   0.00001
 172       12D-2        0.00000   0.00000   0.00033  -0.00001   0.00000
 173       13D 0        0.00000   0.00000   0.00000   0.00000   0.00000
 174       13D+1        0.00000   0.00000   0.00000  -0.00006   0.00000
 175       13D-1       -0.00005   0.00001   0.00000   0.00000  -0.00034
 176       13D+2        0.00000  -0.00009   0.00000   0.00000   0.00000
 177       13D-2        0.00000   0.00000  -0.00010   0.00000   0.00000
 178       14D 0        0.00000  -0.00005   0.00000   0.00000   0.00001
 179       14D+1        0.00000   0.00000   0.00001  -0.00141   0.00000
 180       14D-1        0.00148   0.00000   0.00000   0.00000  -0.00029
 181       14D+2        0.00001   0.00038   0.00000   0.00000   0.00000
 182       14D-2        0.00000   0.00000   0.00061   0.00001   0.00000
 183       15F 0        0.00000   0.00008   0.00000   0.00000   0.00000
 184       15F+1        0.00000   0.00000   0.00000  -0.00008   0.00000
 185       15F-1       -0.00022  -0.00001   0.00000   0.00000  -0.00018
 186       15F+2       -0.00001   0.00012   0.00000   0.00000   0.00000
 187       15F-2        0.00000   0.00000   0.00006   0.00000   0.00000
 188       15F+3        0.00000   0.00000   0.00000   0.00001   0.00000
 189       15F-3       -0.00003   0.00000   0.00000   0.00000   0.00009
 190       16F 0       -0.00001   0.00020   0.00000   0.00000  -0.00002
 191       16F+1        0.00000   0.00000  -0.00001   0.00024   0.00000
 192       16F-1       -0.00071  -0.00001   0.00000   0.00000  -0.00089
 193       16F+2       -0.00002  -0.00006   0.00000   0.00000  -0.00001
 194       16F-2        0.00000   0.00000  -0.00052   0.00000   0.00000
 195       16F+3        0.00000   0.00000  -0.00001  -0.00017   0.00000
 196       16F-3       -0.00017   0.00000   0.00000   0.00000  -0.00018
                           6         7         8         9        10
     Eigenvalues --     2.00003   2.00003   2.00002   2.00001   2.00001
   1 1   C  1S         -0.16308  -0.00485  -0.15445   0.60550   0.00360
   2        2S          0.00335   0.00010   0.00299  -0.01068  -0.00008
   3        3S         -0.00599  -0.00018  -0.00605   0.02403   0.00011
   4        4S         -0.00877  -0.00027  -0.00735   0.00624   0.00031
   5        5S         -0.00147  -0.00004   0.00014   0.00363   0.00014
   6        6PX         0.00000   0.00000   0.00000   0.00000   0.00000
   7        6PY         0.00002  -0.00089   0.00001   0.00002   0.00270
   8        6PZ        -0.00010   0.00001   0.00114  -0.00213   0.00007
   9        7PX         0.00000   0.00000   0.00000   0.00000   0.00000
  10        7PY         0.00001  -0.00028   0.00001  -0.00001  -0.00025
  11        7PZ        -0.00081  -0.00002  -0.00061   0.00102   0.00005
  12        8PX         0.00000   0.00000   0.00000   0.00000   0.00000
  13        8PY        -0.00003   0.00292  -0.00001  -0.00010  -0.00192
  14        8PZ         0.00136  -0.00008  -0.00721   0.00487  -0.00010
  15        9PX         0.00000   0.00000   0.00000   0.00000   0.00000
  16        9PY         0.00001  -0.00061   0.00001   0.00000   0.00067
  17        9PZ        -0.00056  -0.00002   0.00016   0.00098   0.00001
  18       10D 0       -0.00003   0.00000  -0.00010   0.00009   0.00000
  19       10D+1        0.00000   0.00000   0.00000   0.00000   0.00000
  20       10D-1        0.00000  -0.00011   0.00000   0.00000   0.00000
  21       10D+2        0.00006   0.00000   0.00002  -0.00015   0.00000
  22       10D-2        0.00000   0.00000   0.00000   0.00000   0.00000
  23       11D 0       -0.00048  -0.00002  -0.00091   0.00036   0.00002
  24       11D+1        0.00000   0.00000   0.00000   0.00000   0.00000
  25       11D-1        0.00003  -0.00119   0.00001   0.00000   0.00255
  26       11D+2        0.00082   0.00001  -0.00031   0.00075  -0.00003
  27       11D-2        0.00000   0.00000   0.00000   0.00000   0.00000
  28       12D 0        0.00051  -0.00002  -0.00177   0.00226  -0.00006
  29       12D+1        0.00000   0.00000   0.00000   0.00000   0.00000
  30       12D-1        0.00013  -0.00445   0.00005  -0.00008   0.00481
  31       12D+2        0.00135   0.00001  -0.00077   0.00025  -0.00008
  32       12D-2        0.00000   0.00000   0.00000   0.00000   0.00000
  33       13F 0       -0.00013   0.00000   0.00000  -0.00004   0.00001
  34       13F+1        0.00000   0.00000   0.00000   0.00000   0.00000
  35       13F-1        0.00000  -0.00003   0.00000   0.00000  -0.00001
  36       13F+2       -0.00004   0.00000  -0.00006   0.00001   0.00000
  37       13F-2        0.00000   0.00000   0.00000   0.00000   0.00000
  38       13F+3        0.00000   0.00000   0.00000   0.00000   0.00000
  39       13F-3        0.00000   0.00003   0.00000   0.00000  -0.00009
  40       14F 0        0.00014   0.00001   0.00044  -0.00152   0.00002
  41       14F+1        0.00000   0.00000   0.00000   0.00000   0.00000
  42       14F-1        0.00000   0.00000  -0.00004   0.00006   0.00137
  43       14F+2       -0.00016   0.00001   0.00056  -0.00105   0.00003
  44       14F-2        0.00000   0.00000   0.00000   0.00000   0.00000
  45       14F+3        0.00000   0.00000   0.00000   0.00000   0.00000
  46       14F-3        0.00001  -0.00036  -0.00001   0.00002   0.00084
  47 2   Cl 1S         -0.17272  -0.17880   0.01985  -0.04357  -0.10751
  48        2S          0.58268   0.60340  -0.06728   0.14919   0.36534
  49        3S         -0.01732  -0.01775   0.00179  -0.00192  -0.00592
  50        4S          0.04529   0.04690  -0.00517   0.01185   0.03049
  51        5S         -0.00150   0.00006  -0.00139   0.00033  -0.00816
  52        6S         -0.00054  -0.00076  -0.00007  -0.00010   0.00168
  53        7PX         0.00000   0.00000   0.00000   0.00000   0.00000
  54        7PY        -0.28853  -0.26673   0.06247   0.10008   0.48266
  55        7PZ        -0.16780  -0.21818   0.00589   0.08127   0.35440
  56        8PX         0.00000   0.00000   0.00000   0.00000   0.00000
  57        8PY         0.00524   0.00502  -0.00159  -0.00078  -0.00827
  58        8PZ         0.00299   0.00416  -0.00045  -0.00055  -0.00644
  59        9PX         0.00000   0.00000   0.00000   0.00000   0.00000
  60        9PY        -0.01644  -0.01521   0.00353   0.00603   0.02961
  61        9PZ        -0.00958  -0.01241   0.00034   0.00490   0.02187
  62       10PX         0.00000   0.00000   0.00000   0.00000   0.00000
  63       10PY         0.00180   0.00186  -0.00061  -0.00005  -0.00047
  64       10PZ         0.00146   0.00088  -0.00052   0.00085  -0.00046
  65       11PX         0.00000   0.00000   0.00000   0.00000   0.00000
  66       11PY        -0.00005   0.00012  -0.00003  -0.00003   0.00011
  67       11PZ         0.00009  -0.00009  -0.00013  -0.00009   0.00023
  68       12D 0       -0.00004  -0.00002   0.00002  -0.00001   0.00000
  69       12D+1        0.00000   0.00000   0.00000   0.00000   0.00000
  70       12D-1        0.00018   0.00018   0.00002   0.00008   0.00041
  71       12D+2       -0.00008  -0.00008   0.00003  -0.00013  -0.00032
  72       12D-2        0.00000   0.00000   0.00000   0.00000   0.00000
  73       13D 0       -0.00007   0.00023   0.00016  -0.00015  -0.00054
  74       13D+1        0.00000   0.00000   0.00000   0.00000   0.00000
  75       13D-1        0.00038   0.00046  -0.00011   0.00009  -0.00224
  76       13D+2       -0.00047  -0.00032   0.00015   0.00022   0.00123
  77       13D-2        0.00000   0.00000   0.00000   0.00000   0.00000
  78       14D 0        0.00001  -0.00024   0.00018  -0.00004   0.00005
  79       14D+1        0.00000   0.00000   0.00000   0.00000   0.00000
  80       14D-1        0.00029   0.00019   0.00003   0.00024   0.00017
  81       14D+2       -0.00021   0.00020  -0.00004   0.00009  -0.00082
  82       14D-2        0.00000   0.00000   0.00000   0.00000   0.00000
  83       15F 0        0.00001   0.00004   0.00001   0.00000  -0.00004
  84       15F+1        0.00000   0.00000   0.00000   0.00000   0.00000
  85       15F-1        0.00000   0.00003   0.00001   0.00000  -0.00009
  86       15F+2       -0.00001  -0.00001   0.00000   0.00000   0.00005
  87       15F-2        0.00000   0.00000   0.00000   0.00000   0.00000
  88       15F+3        0.00000   0.00000   0.00000   0.00000   0.00000
  89       15F-3       -0.00003  -0.00003   0.00002   0.00000   0.00003
  90       16F 0       -0.00007  -0.00011   0.00010  -0.00026   0.00031
  91       16F+1        0.00000   0.00000   0.00000   0.00000   0.00000
  92       16F-1        0.00001   0.00007   0.00003   0.00000  -0.00042
  93       16F+2       -0.00013  -0.00013   0.00006  -0.00007   0.00053
  94       16F-2        0.00000   0.00000   0.00000   0.00000   0.00000
  95       16F+3        0.00000   0.00000   0.00000   0.00000   0.00000
  96       16F-3       -0.00011   0.00001  -0.00004   0.00015   0.00012
  97 3   Cl 1S         -0.17922   0.17259   0.01619  -0.04281   0.10280
  98        2S          0.60460  -0.58246  -0.05491   0.14662  -0.34931
  99        3S         -0.01797   0.01713   0.00143  -0.00187   0.00566
 100        4S          0.04700  -0.04526  -0.00420   0.01164  -0.02915
 101        5S         -0.00146  -0.00016  -0.00140   0.00035   0.00775
 102        6S         -0.00054   0.00075  -0.00008  -0.00013  -0.00173
 103        7PX         0.00000   0.00000   0.00000   0.00000   0.00000
 104        7PY         0.29772  -0.25687  -0.05855  -0.09731   0.45915
 105        7PZ        -0.17594   0.21214   0.00211   0.07963  -0.34345
 106        8PX         0.00000   0.00000   0.00000   0.00000   0.00000
 107        8PY        -0.00541   0.00485   0.00150   0.00075  -0.00786
 108        8PZ         0.00314  -0.00406  -0.00041  -0.00048   0.00624
 109        9PX         0.00000   0.00000   0.00000   0.00000   0.00000
 110        9PY         0.01697  -0.01465  -0.00331  -0.00586   0.02817
 111        9PZ        -0.01005   0.01207   0.00013   0.00479  -0.02119
 112       10PX         0.00000   0.00000   0.00000   0.00000   0.00000
 113       10PY        -0.00187   0.00180   0.00056   0.00008  -0.00042
 114       10PZ         0.00148  -0.00084  -0.00053   0.00094   0.00035
 115       11PX         0.00000   0.00000   0.00000   0.00000   0.00000
 116       11PY         0.00004   0.00012   0.00002   0.00004   0.00011
 117       11PZ         0.00009   0.00009  -0.00013  -0.00009  -0.00024
 118       12D 0       -0.00004   0.00002   0.00002  -0.00001   0.00000
 119       12D+1        0.00000   0.00000   0.00000   0.00000   0.00000
 120       12D-1       -0.00018   0.00017  -0.00002  -0.00008   0.00040
 121       12D+2       -0.00009   0.00007   0.00002  -0.00013   0.00031
 122       12D-2        0.00000   0.00000   0.00000   0.00000   0.00000
 123       13D 0       -0.00006  -0.00023   0.00015  -0.00011   0.00057
 124       13D+1        0.00000   0.00000   0.00000   0.00000   0.00000
 125       13D-1       -0.00040   0.00045   0.00011  -0.00012  -0.00216
 126       13D+2       -0.00048   0.00031   0.00014   0.00023  -0.00115
 127       13D-2        0.00000   0.00000   0.00000   0.00000   0.00000
 128       14D 0        0.00000   0.00024   0.00017  -0.00001  -0.00005
 129       14D+1        0.00000   0.00000   0.00000   0.00000   0.00000
 130       14D-1       -0.00030   0.00018  -0.00003  -0.00026   0.00016
 131       14D+2       -0.00020  -0.00021  -0.00005   0.00010   0.00080
 132       14D-2        0.00000   0.00000   0.00000   0.00000   0.00000
 133       15F 0        0.00001  -0.00004   0.00001   0.00000   0.00004
 134       15F+1        0.00000   0.00000   0.00000   0.00000   0.00000
 135       15F-1        0.00000   0.00003   0.00000   0.00000  -0.00009
 136       15F+2       -0.00001   0.00001   0.00000  -0.00001  -0.00004
 137       15F-2        0.00000   0.00000   0.00000   0.00000   0.00000
 138       15F+3        0.00000   0.00000   0.00000   0.00000   0.00000
 139       15F-3        0.00003  -0.00003  -0.00002   0.00000   0.00002
 140       16F 0       -0.00007   0.00011   0.00010  -0.00026  -0.00029
 141       16F+1        0.00000   0.00000   0.00000   0.00000   0.00000
 142       16F-1       -0.00002   0.00007  -0.00003  -0.00002  -0.00042
 143       16F+2       -0.00014   0.00012   0.00006  -0.00007  -0.00051
 144       16F-2        0.00000   0.00000   0.00000   0.00000   0.00000
 145       16F+3        0.00000   0.00000   0.00000   0.00000   0.00000
 146       16F-3        0.00010   0.00001   0.00004  -0.00015   0.00011
 147 4   S  1S         -0.02032  -0.00251  -0.21775  -0.15759   0.00262
 148        2S          0.06924   0.00857   0.74428   0.54428  -0.00902
 149        3S         -0.00203  -0.00026  -0.02070  -0.00819   0.00016
 150        4S          0.00449   0.00057   0.04989   0.03912  -0.00064
 151        5S          0.00160   0.00011   0.00652  -0.01189   0.00008
 152        6S          0.00206   0.00006  -0.00078  -0.00357  -0.00015
 153        7PX         0.00000   0.00000   0.00000   0.00000   0.00000
 154        7PY        -0.00568   0.19100  -0.01041   0.00525  -0.09912
 155        7PZ         0.05283   0.00965   0.61544  -0.47625   0.01081
 156        8PX         0.00000   0.00000   0.00000   0.00000   0.00000
 157        8PY         0.00009  -0.00307   0.00020  -0.00009  -0.00027
 158        8PZ        -0.00157  -0.00019  -0.01163   0.00826  -0.00014
 159        9PX         0.00000   0.00000   0.00000   0.00000   0.00000
 160        9PY        -0.00033   0.01118  -0.00063   0.00034  -0.00600
 161        9PZ         0.00341   0.00059   0.03787  -0.03117   0.00069
 162       10PX         0.00000   0.00000   0.00000   0.00000   0.00000
 163       10PY        -0.00006   0.00184   0.00007   0.00000  -0.00361
 164       10PZ        -0.00228  -0.00013  -0.00663   0.00510   0.00006
 165       11PX         0.00000   0.00000   0.00000   0.00000   0.00000
 166       11PY         0.00000   0.00020   0.00000   0.00000  -0.00026
 167       11PZ        -0.00022  -0.00001   0.00012   0.00022   0.00002
 168       12D 0        0.00084   0.00004   0.00211  -0.00265   0.00002
 169       12D+1        0.00000   0.00000   0.00000   0.00000   0.00000
 170       12D-1       -0.00001   0.00019  -0.00005   0.00004   0.00081
 171       12D+2       -0.00005  -0.00001  -0.00044   0.00019   0.00001
 172       12D-2        0.00000   0.00000   0.00000   0.00000   0.00000
 173       13D 0        0.00007   0.00000   0.00014   0.00022  -0.00001
 174       13D+1        0.00000   0.00000   0.00000   0.00000   0.00000
 175       13D-1        0.00000   0.00002   0.00000   0.00000  -0.00007
 176       13D+2        0.00004   0.00000   0.00030   0.00016   0.00000
 177       13D-2        0.00000   0.00000   0.00000   0.00000   0.00000
 178       14D 0        0.00055   0.00002   0.00104  -0.00068  -0.00002
 179       14D+1        0.00000   0.00000   0.00000   0.00000   0.00000
 180       14D-1        0.00003  -0.00074  -0.00002  -0.00001   0.00094
 181       14D+2       -0.00031  -0.00001   0.00039   0.00000   0.00003
 182       14D-2        0.00000   0.00000   0.00000   0.00000   0.00000
 183       15F 0       -0.00014   0.00000  -0.00016   0.00025   0.00000
 184       15F+1        0.00000   0.00000   0.00000   0.00000   0.00000
 185       15F-1        0.00000   0.00000   0.00000   0.00000  -0.00006
 186       15F+2        0.00000   0.00000   0.00012  -0.00016   0.00000
 187       15F-2        0.00000   0.00000   0.00000   0.00000   0.00000
 188       15F+3        0.00000   0.00000   0.00000   0.00000   0.00000
 189       15F-3        0.00000   0.00003   0.00000   0.00000  -0.00005
 190       16F 0       -0.00014  -0.00001  -0.00046   0.00048  -0.00002
 191       16F+1        0.00000   0.00000   0.00000   0.00000   0.00000
 192       16F-1        0.00000  -0.00004   0.00002  -0.00001  -0.00031
 193       16F+2        0.00012   0.00000  -0.00008  -0.00012  -0.00001
 194       16F-2        0.00000   0.00000   0.00000   0.00000   0.00000
 195       16F+3        0.00000   0.00000   0.00000   0.00000   0.00000
 196       16F-3        0.00000   0.00000   0.00000   0.00000  -0.00004
                          11        12        13        14        15
     Eigenvalues --     2.00001   2.00001   2.00000   2.00000   2.00000
   1 1   C  1S          0.23603   0.00000   0.69962   0.00180   0.00171
   2        2S         -0.00440   0.00000  -0.00702  -0.00003  -0.00006
   3        3S          0.00838   0.00000   0.03009   0.00011   0.00008
   4        4S          0.01154   0.00000  -0.02257  -0.00042  -0.00015
   5        5S          0.00493   0.00000  -0.00551  -0.00020  -0.00015
   6        6PX         0.00000  -0.00182   0.00000   0.00000   0.00000
   7        6PY        -0.00007   0.00000   0.00001   0.00000   0.00000
   8        6PZ         0.00215   0.00000  -0.00126  -0.00001   0.00000
   9        7PX         0.00000  -0.00140   0.00000   0.00000   0.00000
  10        7PY         0.00000   0.00000  -0.00001   0.00000   0.00000
  11        7PZ         0.00168   0.00000   0.00252   0.00000  -0.00008
  12        8PX         0.00000   0.00073   0.00000   0.00000   0.00000
  13        8PY        -0.00005   0.00000   0.00002   0.00000   0.00000
  14        8PZ        -0.00308   0.00000   0.00246  -0.00007  -0.00001
  15        9PX         0.00000  -0.00103   0.00000   0.00000   0.00000
  16        9PY        -0.00002   0.00000   0.00000   0.00000   0.00000
  17        9PZ         0.00030   0.00000   0.00052  -0.00003  -0.00005
  18       10D 0        0.00007   0.00000   0.00030   0.00000   0.00000
  19       10D+1        0.00000  -0.00018   0.00000   0.00000   0.00000
  20       10D-1        0.00000   0.00000   0.00000   0.00000   0.00000
  21       10D+2       -0.00003   0.00000  -0.00021   0.00000   0.00000
  22       10D-2        0.00000   0.00000   0.00000   0.00000   0.00000
  23       11D 0        0.00075   0.00000  -0.00031  -0.00004  -0.00005
  24       11D+1        0.00000   0.00118   0.00000   0.00000   0.00000
  25       11D-1       -0.00011   0.00000   0.00001   0.00000   0.00000
  26       11D+2       -0.00126   0.00000   0.00312   0.00006  -0.00001
  27       11D-2        0.00000  -0.00001   0.00000   0.00000   0.00000
  28       12D 0       -0.00183   0.00000  -0.00124  -0.00006  -0.00007
  29       12D+1        0.00000  -0.00102   0.00000   0.00000   0.00000
  30       12D-1       -0.00020   0.00000   0.00008   0.00000   0.00000
  31       12D+2       -0.00273   0.00000   0.00171   0.00003  -0.00001
  32       12D-2        0.00000   0.00000   0.00000   0.00000   0.00000
  33       13F 0        0.00027   0.00000   0.00027   0.00000   0.00000
  34       13F+1        0.00000  -0.00018   0.00000   0.00000   0.00000
  35       13F-1        0.00000   0.00000   0.00000   0.00000   0.00000
  36       13F+2       -0.00008   0.00000  -0.00004  -0.00001   0.00000
  37       13F-2        0.00000   0.00000   0.00000   0.00000   0.00000
  38       13F+3        0.00000   0.00007   0.00000   0.00000   0.00000
  39       13F-3        0.00000   0.00000   0.00000   0.00000   0.00000
  40       14F 0        0.00029   0.00000  -0.00113  -0.00003   0.00001
  41       14F+1        0.00000   0.00119   0.00000   0.00000   0.00000
  42       14F-1       -0.00013   0.00000  -0.00001   0.00000   0.00000
  43       14F+2        0.00060   0.00000  -0.00139  -0.00003   0.00001
  44       14F-2        0.00000  -0.00001   0.00000   0.00000   0.00000
  45       14F+3        0.00000  -0.00014   0.00000   0.00000   0.00000
  46       14F-3       -0.00004   0.00000   0.00000   0.00000   0.00000
  47 2   Cl 1S         -0.08850   0.00000   0.02985   0.64885  -0.25169
  48        2S          0.30143   0.00000  -0.10678   0.00613  -0.00279
  49        3S         -0.00473   0.00000   0.00058   0.00009  -0.00006
  50        4S          0.02499   0.00000  -0.00964   0.00011  -0.00007
  51        5S         -0.00713   0.00000   0.00900   0.00007   0.00005
  52        6S         -0.00067   0.00000   0.00341   0.00005   0.00006
  53        7PX         0.00000   0.08121   0.00000   0.00000   0.00000
  54        7PY         0.40545   0.00000  -0.27809  -0.00161  -0.00040
  55        7PZ         0.22174   0.00000  -0.18627  -0.00101  -0.00039
  56        8PX         0.00000  -0.00044   0.00000   0.00000   0.00000
  57        8PY        -0.00692   0.00000   0.00477   0.00008  -0.00002
  58        8PZ        -0.00394   0.00000   0.00343   0.00006  -0.00001
  59        9PX         0.00000   0.00475   0.00000   0.00000   0.00000
  60        9PY         0.02496   0.00000  -0.01797  -0.00013  -0.00002
  61        9PZ         0.01366   0.00000  -0.01209  -0.00009  -0.00002
  62       10PX         0.00000  -0.00069   0.00000   0.00000   0.00000
  63       10PY        -0.00096   0.00000   0.00353   0.00003   0.00006
  64       10PZ        -0.00160   0.00000   0.00244   0.00001   0.00002
  65       11PX         0.00000   0.00034   0.00000   0.00000   0.00000
  66       11PY         0.00004   0.00000   0.00027   0.00000   0.00001
  67       11PZ        -0.00005   0.00000   0.00010   0.00001   0.00002
  68       12D 0        0.00001   0.00000   0.00001   0.00000   0.00000
  69       12D+1        0.00000  -0.00006   0.00000   0.00000   0.00000
  70       12D-1        0.00033   0.00000  -0.00031   0.00000   0.00000
  71       12D+2       -0.00023   0.00000   0.00021   0.00000   0.00000
  72       12D-2        0.00000  -0.00005   0.00000   0.00000   0.00000
  73       13D 0        0.00037   0.00000   0.00006   0.00000   0.00000
  74       13D+1        0.00000  -0.00005   0.00000   0.00000   0.00000
  75       13D-1       -0.00135   0.00000   0.00194   0.00003   0.00000
  76       13D+2        0.00137   0.00000  -0.00120  -0.00002   0.00000
  77       13D-2        0.00000  -0.00022   0.00000   0.00000   0.00000
  78       14D 0        0.00002   0.00000   0.00013   0.00000   0.00000
  79       14D+1        0.00000  -0.00023   0.00000   0.00000   0.00000
  80       14D-1        0.00015   0.00000   0.00067  -0.00001   0.00001
  81       14D+2       -0.00021   0.00000  -0.00057   0.00000  -0.00002
  82       14D-2        0.00000  -0.00055   0.00000   0.00000   0.00000
  83       15F 0        0.00001   0.00000   0.00003   0.00000   0.00000
  84       15F+1        0.00000   0.00000   0.00000   0.00000   0.00000
  85       15F-1        0.00003   0.00000  -0.00001   0.00000   0.00000
  86       15F+2        0.00003   0.00000  -0.00001   0.00000   0.00000
  87       15F-2        0.00000  -0.00001   0.00000   0.00000   0.00000
  88       15F+3        0.00000  -0.00003   0.00000   0.00000   0.00000
  89       15F-3        0.00010   0.00000  -0.00004   0.00000   0.00000
  90       16F 0        0.00024   0.00000  -0.00026   0.00000   0.00000
  91       16F+1        0.00000   0.00000   0.00000   0.00000   0.00000
  92       16F-1        0.00002   0.00000   0.00032   0.00000   0.00000
  93       16F+2        0.00030   0.00000  -0.00045   0.00000   0.00000
  94       16F-2        0.00000   0.00000   0.00000   0.00000   0.00000
  95       16F+3        0.00000   0.00020   0.00000   0.00000   0.00000
  96       16F-3        0.00017   0.00000  -0.00018   0.00000   0.00000
  97 3   Cl 1S         -0.09422   0.00000   0.03006   0.66433  -0.26254
  98        2S          0.32088   0.00000  -0.10752   0.00628  -0.00290
  99        3S         -0.00503   0.00000   0.00058   0.00010  -0.00006
 100        4S          0.02662   0.00000  -0.00971   0.00011  -0.00008
 101        5S         -0.00759   0.00000   0.00910   0.00007   0.00006
 102        6S         -0.00061   0.00000   0.00344   0.00005   0.00006
 103        7PX         0.00000   0.08111   0.00000   0.00000   0.00000
 104        7PY        -0.43000   0.00000   0.27890   0.00162   0.00039
 105        7PZ         0.24126   0.00000  -0.18781  -0.00103  -0.00039
 106        8PX         0.00000  -0.00044   0.00000   0.00000   0.00000
 107        8PY         0.00732   0.00000  -0.00480  -0.00008   0.00002
 108        8PZ        -0.00434   0.00000   0.00345   0.00006  -0.00002
 109        9PX         0.00000   0.00474   0.00000   0.00000   0.00000
 110        9PY        -0.02646   0.00000   0.01803   0.00013   0.00001
 111        9PZ         0.01487   0.00000  -0.01219  -0.00009  -0.00002
 112       10PX         0.00000  -0.00069   0.00000   0.00000   0.00000
 113       10PY         0.00096   0.00000  -0.00357  -0.00003  -0.00006
 114       10PZ        -0.00165   0.00000   0.00241   0.00001   0.00002
 115       11PX         0.00000   0.00034   0.00000   0.00000   0.00000
 116       11PY        -0.00005   0.00000  -0.00028   0.00000  -0.00001
 117       11PZ        -0.00004   0.00000   0.00010   0.00001   0.00002
 118       12D 0        0.00002   0.00000   0.00001   0.00000   0.00000
 119       12D+1        0.00000  -0.00006   0.00000   0.00000   0.00000
 120       12D-1       -0.00035   0.00000   0.00032   0.00000   0.00000
 121       12D+2       -0.00024   0.00000   0.00021   0.00000   0.00000
 122       12D-2        0.00000   0.00004   0.00000   0.00000   0.00000
 123       13D 0        0.00029   0.00000   0.00005   0.00000   0.00000
 124       13D+1        0.00000  -0.00005   0.00000   0.00000   0.00000
 125       13D-1        0.00150   0.00000  -0.00195  -0.00003   0.00001
 126       13D+2        0.00141   0.00000  -0.00121  -0.00002   0.00000
 127       13D-2        0.00000   0.00023   0.00000   0.00000   0.00000
 128       14D 0        0.00001   0.00000   0.00011   0.00000   0.00000
 129       14D+1        0.00000  -0.00023   0.00000   0.00000   0.00000
 130       14D-1       -0.00015   0.00000  -0.00067   0.00001  -0.00001
 131       14D+2       -0.00026   0.00000  -0.00057   0.00000  -0.00002
 132       14D-2        0.00000   0.00055   0.00000   0.00000   0.00000
 133       15F 0        0.00001   0.00000   0.00002   0.00000   0.00000
 134       15F+1        0.00000   0.00000   0.00000   0.00000   0.00000
 135       15F-1       -0.00002   0.00000   0.00001   0.00000   0.00000
 136       15F+2        0.00004   0.00000  -0.00001   0.00000   0.00000
 137       15F-2        0.00000   0.00001   0.00000   0.00000   0.00000
 138       15F+3        0.00000  -0.00003   0.00000   0.00000   0.00000
 139       15F-3       -0.00010   0.00000   0.00005   0.00000   0.00000
 140       16F 0        0.00025   0.00000  -0.00027   0.00000   0.00000
 141       16F+1        0.00000   0.00001   0.00000   0.00000   0.00000
 142       16F-1        0.00002   0.00000  -0.00032   0.00000   0.00000
 143       16F+2        0.00033   0.00000  -0.00046   0.00000   0.00000
 144       16F-2        0.00000   0.00000   0.00000   0.00000   0.00000
 145       16F+3        0.00000   0.00020   0.00000   0.00000   0.00000
 146       16F-3       -0.00017   0.00000   0.00018   0.00000   0.00000
 147 4   S  1S          0.08927   0.00000   0.04993   0.36364   0.92775
 148        2S         -0.30793   0.00000  -0.18488   0.00431   0.01220
 149        3S          0.00493   0.00000   0.00154   0.00013   0.00030
 150        4S         -0.02211   0.00000  -0.01370  -0.00004  -0.00003
 151        5S          0.00092   0.00000   0.00627   0.00018   0.00000
 152        6S         -0.00494   0.00000   0.00114   0.00013   0.00007
 153        7PX         0.00000   0.96521   0.00000   0.00000   0.00000
 154        7PY        -0.00162   0.00000  -0.00409  -0.00002  -0.00002
 155        7PZ         0.39271   0.00000   0.42464   0.00201   0.00229
 156        8PX         0.00000  -0.01126   0.00000   0.00000   0.00000
 157        8PY         0.00012   0.00000   0.00005   0.00000   0.00000
 158        8PZ        -0.00451   0.00000  -0.00460  -0.00011  -0.00016
 159        9PX         0.00000   0.06175   0.00000   0.00000   0.00000
 160        9PY        -0.00012   0.00000  -0.00027   0.00000   0.00000
 161        9PZ         0.02521   0.00000   0.02819   0.00016   0.00022
 162       10PX         0.00000   0.00103   0.00000   0.00000   0.00000
 163       10PY         0.00021   0.00000  -0.00004   0.00000   0.00000
 164       10PZ         0.00292   0.00000  -0.00189  -0.00009   0.00004
 165       11PX         0.00000  -0.00028   0.00000   0.00000   0.00000
 166       11PY         0.00001   0.00000   0.00000   0.00000   0.00000
 167       11PZ         0.00081   0.00000  -0.00015  -0.00001   0.00001
 168       12D 0        0.00032   0.00000   0.00113   0.00004   0.00005
 169       12D+1        0.00000   0.00217   0.00000   0.00000   0.00000
 170       12D-1       -0.00009   0.00000  -0.00002   0.00000   0.00000
 171       12D+2        0.00012   0.00000   0.00022   0.00000  -0.00001
 172       12D-2        0.00000  -0.00001   0.00000   0.00000   0.00000
 173       13D 0       -0.00031   0.00000  -0.00062   0.00000   0.00001
 174       13D+1        0.00000  -0.00018   0.00000   0.00000   0.00000
 175       13D-1        0.00000   0.00000   0.00001   0.00000   0.00000
 176       13D+2       -0.00012   0.00000  -0.00008   0.00000   0.00001
 177       13D-2        0.00000   0.00000   0.00000   0.00000   0.00000
 178       14D 0       -0.00096   0.00000   0.00039   0.00000  -0.00004
 179       14D+1        0.00000  -0.00048   0.00000   0.00000   0.00000
 180       14D-1       -0.00007   0.00000   0.00001   0.00000   0.00000
 181       14D+2        0.00069   0.00000  -0.00015   0.00000   0.00001
 182       14D-2        0.00000   0.00000   0.00000   0.00000   0.00000
 183       15F 0        0.00019   0.00000   0.00039  -0.00001  -0.00002
 184       15F+1        0.00000  -0.00026   0.00000   0.00000   0.00000
 185       15F-1        0.00001   0.00000  -0.00001   0.00000   0.00000
 186       15F+2        0.00008   0.00000   0.00009   0.00000   0.00000
 187       15F-2        0.00000   0.00000   0.00000   0.00000   0.00000
 188       15F+3        0.00000   0.00013   0.00000   0.00000   0.00000
 189       15F-3        0.00000   0.00000   0.00000   0.00000   0.00000
 190       16F 0       -0.00023   0.00000  -0.00037   0.00000   0.00000
 191       16F+1        0.00000  -0.00048   0.00000   0.00000   0.00000
 192       16F-1        0.00003   0.00000   0.00001   0.00000   0.00000
 193       16F+2       -0.00033   0.00000  -0.00019   0.00000   0.00000
 194       16F-2        0.00000   0.00000   0.00000   0.00000   0.00000
 195       16F+3        0.00000  -0.00012   0.00000   0.00000   0.00000
 196       16F-3        0.00001   0.00000   0.00000   0.00000   0.00000
                          16        17        18        19        20
     Eigenvalues --     2.00000   1.97697   1.97419   1.97000   1.95130
   1 1   C  1S          0.00001  -0.08576  -0.00006  -0.06957  -0.04032
   2        2S          0.00000   0.22081   0.00016   0.18676   0.11221
   3        3S          0.00000   0.04816   0.00003   0.04467   0.02698
   4        4S          0.00000   0.04439   0.00020   0.06295   0.05610
   5        5S          0.00000   0.01148   0.00004   0.01605   0.00164
   6        6PX         0.00000   0.00000   0.00000   0.00000   0.00000
   7        6PY        -0.00001  -0.00022   0.06100  -0.00033   0.00022
   8        6PZ         0.00000  -0.01108  -0.00014   0.10386  -0.05488
   9        7PX         0.00000   0.00000   0.00000   0.00000   0.00000
  10        7PY         0.00004  -0.00030   0.08383  -0.00043   0.00026
  11        7PZ         0.00000  -0.02144  -0.00021   0.12974  -0.07662
  12        8PX         0.00000   0.00000   0.00000   0.00000   0.00000
  13        8PY        -0.00005  -0.00015   0.00398   0.00014   0.00027
  14        8PZ         0.00000   0.00803   0.00026   0.00452  -0.04647
  15        9PX         0.00000   0.00000   0.00000   0.00000   0.00000
  16        9PY        -0.00001   0.00002   0.00831   0.00006   0.00012
  17        9PZ         0.00000  -0.00385   0.00001   0.00844  -0.02170
  18       10D 0        0.00000   0.00433  -0.00001   0.00971   0.01023
  19       10D+1        0.00000   0.00000   0.00000   0.00000   0.00000
  20       10D-1        0.00000  -0.00003  -0.00851  -0.00013  -0.00001
  21       10D+2        0.00000  -0.00709  -0.00001   0.00121   0.00367
  22       10D-2        0.00000   0.00000   0.00000   0.00000   0.00000
  23       11D 0        0.00000   0.00606   0.00000   0.01114   0.03019
  24       11D+1        0.00000   0.00000   0.00000   0.00000   0.00000
  25       11D-1       -0.00006  -0.00003  -0.01777  -0.00023   0.00001
  26       11D+2        0.00000  -0.01104  -0.00002   0.00305   0.01364
  27       11D-2        0.00000   0.00000   0.00000   0.00000   0.00000
  28       12D 0        0.00000   0.00385   0.00010   0.00383  -0.04136
  29       12D+1        0.00000   0.00000   0.00000   0.00000   0.00000
  30       12D-1       -0.00002  -0.00020   0.01213  -0.00020  -0.00055
  31       12D+2        0.00000   0.00769   0.00008   0.00471  -0.02645
  32       12D-2        0.00000   0.00000   0.00000   0.00000   0.00000
  33       13F 0        0.00000   0.00400   0.00001   0.00470  -0.00111
  34       13F+1        0.00000   0.00000   0.00000   0.00000   0.00000
  35       13F-1        0.00000  -0.00003   0.00190  -0.00006   0.00000
  36       13F+2        0.00000   0.00461   0.00002  -0.00023   0.00164
  37       13F-2        0.00000   0.00000   0.00000   0.00000   0.00000
  38       13F+3        0.00000   0.00000   0.00000   0.00000   0.00000
  39       13F-3        0.00000   0.00000  -0.00242   0.00000   0.00000
  40       14F 0        0.00000   0.00133  -0.00001  -0.00094  -0.00298
  41       14F+1        0.00000   0.00000   0.00000   0.00000   0.00000
  42       14F-1       -0.00001   0.00000   0.00055  -0.00013   0.00005
  43       14F+2        0.00000   0.00182   0.00000  -0.00009   0.00149
  44       14F-2        0.00000   0.00000   0.00000   0.00000   0.00000
  45       14F+3        0.00000   0.00000   0.00000   0.00000   0.00000
  46       14F-3       -0.00001   0.00001  -0.00070  -0.00004  -0.00003
  47 2   Cl 1S          0.71423   0.04541  -0.05299  -0.02151  -0.01155
  48        2S          0.00722  -0.16974   0.19822   0.08045   0.04384
  49        3S          0.00012   0.36304  -0.42477  -0.17359  -0.09553
  50        4S          0.00016   0.04399  -0.05337  -0.02272  -0.01500
  51        5S         -0.00004   0.21921  -0.26381  -0.11397  -0.09957
  52        6S         -0.00005  -0.00691   0.01007   0.00242  -0.02592
  53        7PX         0.00000   0.00000   0.00000   0.00000   0.00000
  54        7PY        -0.00052  -0.01657  -0.00008   0.00087  -0.11138
  55        7PZ        -0.00043  -0.00738   0.00751  -0.01903   0.10268
  56        8PX         0.00000   0.00000   0.00000   0.00000   0.00000
  57        8PY         0.00006   0.02464   0.01616  -0.00175   0.25398
  58        8PZ         0.00004   0.00561  -0.01016   0.04859  -0.24620
  59        9PX         0.00000   0.00000   0.00000   0.00000   0.00000
  60        9PY        -0.00006   0.01075   0.00735  -0.00010   0.12128
  61        9PZ        -0.00005   0.00288  -0.00428   0.02277  -0.11789
  62       10PX         0.00000   0.00000   0.00000   0.00000   0.00000
  63       10PY        -0.00006  -0.00082   0.01529  -0.00727   0.13137
  64       10PZ        -0.00003  -0.00319   0.00339   0.02645  -0.17799
  65       11PX         0.00000   0.00000   0.00000   0.00000   0.00000
  66       11PY        -0.00001  -0.00401   0.00285   0.00037   0.00051
  67       11PZ         0.00000  -0.00166   0.00318  -0.00015  -0.00602
  68       12D 0        0.00000  -0.00056  -0.00080   0.00278  -0.00687
  69       12D+1        0.00000   0.00000   0.00000   0.00000   0.00000
  70       12D-1        0.00001   0.00734  -0.00538   0.00269   0.00281
  71       12D+2        0.00000  -0.00603   0.00270   0.00056  -0.01016
  72       12D-2        0.00000   0.00000   0.00000   0.00000   0.00000
  73       13D 0        0.00000  -0.00123  -0.00179   0.00471  -0.00841
  74       13D+1        0.00000   0.00000   0.00000   0.00000   0.00000
  75       13D-1        0.00002   0.00712  -0.00468   0.00431   0.00194
  76       13D+2       -0.00001  -0.00632   0.00175   0.00152  -0.01207
  77       13D-2        0.00000   0.00000   0.00000   0.00000   0.00000
  78       14D 0        0.00000   0.00095   0.00105   0.00298  -0.00870
  79       14D+1        0.00000   0.00000   0.00000   0.00000   0.00000
  80       14D-1       -0.00002  -0.00197   0.00313   0.00203  -0.00368
  81       14D+2        0.00002   0.00179  -0.00255   0.00078  -0.00671
  82       14D-2        0.00000   0.00000   0.00000   0.00000   0.00000
  83       15F 0        0.00000  -0.00134   0.00089   0.00056  -0.00226
  84       15F+1        0.00000   0.00000   0.00000   0.00000   0.00000
  85       15F-1        0.00000   0.00070  -0.00153   0.00134  -0.00387
  86       15F+2        0.00000  -0.00255   0.00213  -0.00017  -0.00168
  87       15F-2        0.00000   0.00000   0.00000   0.00000   0.00000
  88       15F+3        0.00000   0.00000   0.00000   0.00000   0.00000
  89       15F-3        0.00000  -0.00188   0.00082   0.00064  -0.00343
  90       16F 0        0.00000  -0.00016  -0.00035   0.00001  -0.00040
  91       16F+1        0.00000   0.00000   0.00000   0.00000   0.00000
  92       16F-1        0.00000  -0.00019   0.00004   0.00151  -0.00209
  93       16F+2        0.00000   0.00010  -0.00067  -0.00028  -0.00057
  94       16F-2        0.00000   0.00000   0.00000   0.00000   0.00000
  95       16F+3        0.00000   0.00000   0.00000   0.00000   0.00000
  96       16F-3        0.00000   0.00029  -0.00039   0.00023  -0.00130
  97 3   Cl 1S         -0.69586   0.04525   0.05323  -0.02126  -0.01157
  98        2S         -0.00704  -0.16914  -0.19908   0.07955   0.04395
  99        3S         -0.00011   0.36177   0.42665  -0.17162  -0.09573
 100        4S         -0.00016   0.04384   0.05362  -0.02247  -0.01504
 101        5S          0.00004   0.21830   0.26504  -0.11304  -0.10052
 102        6S          0.00005  -0.00697  -0.01012   0.00220  -0.02651
 103        7PX         0.00000   0.00000   0.00000   0.00000   0.00000
 104        7PY        -0.00049   0.01656  -0.00003  -0.00091   0.11156
 105        7PZ         0.00041  -0.00737  -0.00752  -0.01890   0.10233
 106        8PX         0.00000   0.00000   0.00000   0.00000   0.00000
 107        8PY         0.00006  -0.02469   0.01611   0.00183  -0.25434
 108        8PZ        -0.00004   0.00557   0.01007   0.04816  -0.24543
 109        9PX         0.00000   0.00000   0.00000   0.00000   0.00000
 110        9PY        -0.00006  -0.01077   0.00734   0.00017  -0.12149
 111        9PZ         0.00005   0.00286   0.00424   0.02265  -0.11751
 112       10PX         0.00000   0.00000   0.00000   0.00000   0.00000
 113       10PY        -0.00006   0.00079   0.01531   0.00736  -0.13123
 114       10PZ         0.00003  -0.00301  -0.00339   0.02624  -0.17750
 115       11PX         0.00000   0.00000   0.00000   0.00000   0.00000
 116       11PY        -0.00001   0.00399   0.00286  -0.00036  -0.00046
 117       11PZ         0.00000  -0.00164  -0.00319  -0.00017  -0.00602
 118       12D 0        0.00000  -0.00057   0.00079   0.00276  -0.00687
 119       12D+1        0.00000   0.00000   0.00000   0.00000   0.00000
 120       12D-1        0.00001  -0.00732  -0.00541  -0.00268  -0.00285
 121       12D+2        0.00000  -0.00602  -0.00272   0.00057  -0.01018
 122       12D-2        0.00000   0.00000   0.00000   0.00000   0.00000
 123       13D 0        0.00000  -0.00125   0.00177   0.00458  -0.00839
 124       13D+1        0.00000   0.00000   0.00000   0.00000   0.00000
 125       13D-1        0.00002  -0.00711  -0.00469  -0.00426  -0.00199
 126       13D+2        0.00001  -0.00632  -0.00177   0.00147  -0.01208
 127       13D-2        0.00000   0.00000   0.00000   0.00000   0.00000
 128       14D 0        0.00000   0.00101  -0.00107   0.00302  -0.00866
 129       14D+1        0.00000   0.00000   0.00000   0.00000   0.00000
 130       14D-1       -0.00002   0.00192   0.00315  -0.00201   0.00363
 131       14D+2       -0.00002   0.00177   0.00256   0.00075  -0.00677
 132       14D-2        0.00000   0.00000   0.00000   0.00000   0.00000
 133       15F 0        0.00000  -0.00134  -0.00089   0.00054  -0.00227
 134       15F+1        0.00000   0.00000   0.00000   0.00000   0.00000
 135       15F-1        0.00000  -0.00069  -0.00153  -0.00132   0.00386
 136       15F+2        0.00000  -0.00254  -0.00214  -0.00016  -0.00169
 137       15F-2        0.00000   0.00000   0.00000   0.00000   0.00000
 138       15F+3        0.00000   0.00000   0.00000   0.00000   0.00000
 139       15F-3        0.00000   0.00188   0.00082  -0.00064   0.00343
 140       16F 0        0.00000  -0.00016   0.00034   0.00001  -0.00042
 141       16F+1        0.00000   0.00000   0.00000   0.00000   0.00000
 142       16F-1        0.00000   0.00018   0.00005  -0.00149   0.00206
 143       16F+2        0.00000   0.00009   0.00068  -0.00029  -0.00059
 144       16F-2        0.00000   0.00000   0.00000   0.00000   0.00000
 145       16F+3        0.00000   0.00000   0.00000   0.00000   0.00000
 146       16F-3        0.00000  -0.00028  -0.00039  -0.00020   0.00131
 147 4   S  1S         -0.00315   0.01649  -0.00008   0.05805   0.00460
 148        2S         -0.00005  -0.06337   0.00031  -0.22212  -0.01763
 149        3S          0.00000   0.13133  -0.00067   0.47011   0.03869
 150        4S          0.00000   0.01580  -0.00009   0.06108   0.00542
 151        5S          0.00000   0.05492  -0.00052   0.24352   0.07680
 152        6S          0.00000  -0.00307  -0.00003  -0.03125   0.02511
 153        7PX         0.00000   0.00000   0.00000   0.00000   0.00000
 154        7PY         0.00024  -0.00009  -0.01106  -0.00034  -0.00035
 155        7PZ         0.00001   0.02164  -0.00015   0.04433   0.00199
 156        8PX         0.00000   0.00000   0.00000   0.00000   0.00000
 157        8PY         0.00002   0.00003   0.03238   0.00051   0.00075
 158        8PZ         0.00000  -0.03273   0.00034  -0.05565  -0.00652
 159        9PX         0.00000   0.00000   0.00000   0.00000   0.00000
 160        9PY         0.00001   0.00005   0.01227   0.00022   0.00034
 161        9PZ         0.00000  -0.01618   0.00014  -0.03098  -0.00186
 162       10PX         0.00000   0.00000   0.00000   0.00000   0.00000
 163       10PY         0.00002   0.00010   0.00998   0.00012   0.00112
 164       10PZ         0.00000   0.00084   0.00015   0.01616  -0.01739
 165       11PX         0.00000   0.00000   0.00000   0.00000   0.00000
 166       11PY         0.00000   0.00000  -0.00149  -0.00007   0.00002
 167       11PZ         0.00000   0.00231   0.00000   0.00823   0.00052
 168       12D 0        0.00000   0.00675  -0.00006   0.00985   0.00074
 169       12D+1        0.00000   0.00000   0.00000   0.00000   0.00000
 170       12D-1       -0.00002  -0.00005  -0.00509  -0.00020  -0.00011
 171       12D+2        0.00000   0.00017  -0.00003   0.00037   0.00325
 172       12D-2        0.00000   0.00000   0.00000   0.00000   0.00000
 173       13D 0        0.00000   0.00991  -0.00008   0.02409   0.00124
 174       13D+1        0.00000   0.00000   0.00000   0.00000   0.00000
 175       13D-1        0.00000  -0.00007  -0.00339  -0.00029  -0.00010
 176       13D+2        0.00000  -0.00001  -0.00001   0.00099   0.00241
 177       13D-2        0.00000   0.00000   0.00000   0.00000   0.00000
 178       14D 0        0.00000  -0.00238   0.00003  -0.00880  -0.00079
 179       14D+1        0.00000   0.00000   0.00000   0.00000   0.00000
 180       14D-1       -0.00001  -0.00006   0.00200   0.00006  -0.00025
 181       14D+2        0.00000  -0.00175   0.00001  -0.00088   0.00538
 182       14D-2        0.00000   0.00000   0.00000   0.00000   0.00000
 183       15F 0        0.00000  -0.00300   0.00004  -0.00874  -0.00079
 184       15F+1        0.00000   0.00000   0.00000   0.00000   0.00000
 185       15F-1        0.00000   0.00002   0.00171   0.00016   0.00002
 186       15F+2        0.00000   0.00018   0.00001  -0.00031  -0.00042
 187       15F-2        0.00000   0.00000   0.00000   0.00000   0.00000
 188       15F+3        0.00000   0.00000   0.00000   0.00000   0.00000
 189       15F-3        0.00000   0.00000   0.00009   0.00001  -0.00001
 190       16F 0        0.00000   0.00068  -0.00001   0.00505  -0.00015
 191       16F+1        0.00000   0.00000   0.00000   0.00000   0.00000
 192       16F-1        0.00001   0.00002   0.00077  -0.00005   0.00002
 193       16F+2        0.00000  -0.00061   0.00002  -0.00075  -0.00132
 194       16F-2        0.00000   0.00000   0.00000   0.00000   0.00000
 195       16F+3        0.00000   0.00000   0.00000   0.00000   0.00000
 196       16F-3        0.00000   0.00000   0.00035   0.00001   0.00003
                          21        22        23        24        25
     Eigenvalues --     1.94891   1.94878   1.94808   1.94659   1.94109
   1 1   C  1S          0.12002  -0.00442   0.00000   0.00000  -0.00009
   2        2S         -0.33552   0.01238   0.00000   0.00000   0.00021
   3        3S         -0.08044   0.00296   0.00000   0.00000   0.00001
   4        4S         -0.21021   0.00821   0.00000   0.00000   0.00035
   5        5S         -0.00823   0.00012   0.00000   0.00000   0.00009
   6        6PX         0.00000   0.00000   0.09636   0.00018   0.00000
   7        6PY         0.00317   0.08133   0.00000   0.00000   0.16849
   8        6PZ         0.03755  -0.00086   0.00000   0.00000  -0.00163
   9        7PX         0.00000   0.00000   0.13761   0.00026   0.00000
  10        7PY         0.00435   0.11143   0.00000   0.00000   0.23752
  11        7PZ         0.06336  -0.00158   0.00000   0.00000  -0.00228
  12        8PX         0.00000   0.00000   0.06220   0.00011   0.00000
  13        8PY         0.00172   0.03467   0.00000   0.00000   0.08312
  14        8PZ        -0.01869   0.00114   0.00000   0.00000   0.00039
  15        9PX         0.00000   0.00000   0.00653   0.00007   0.00000
  16        9PY         0.00039   0.01050   0.00000   0.00000  -0.00728
  17        9PZ        -0.00341   0.00013   0.00000   0.00000   0.00023
  18       10D 0        0.00200  -0.00005   0.00000   0.00000  -0.00008
  19       10D+1        0.00000   0.00000  -0.00724  -0.00002   0.00000
  20       10D-1        0.00018   0.00491   0.00000   0.00000  -0.00697
  21       10D+2        0.00751  -0.00025   0.00000   0.00000  -0.00006
  22       10D-2        0.00000   0.00000  -0.00002   0.01063   0.00000
  23       11D 0        0.00768  -0.00020   0.00000   0.00000  -0.00005
  24       11D+1        0.00000   0.00000  -0.02313  -0.00002   0.00000
  25       11D-1        0.00052   0.01660   0.00000   0.00000  -0.01383
  26       11D+2        0.01722  -0.00059   0.00000   0.00000  -0.00013
  27       11D-2        0.00000   0.00000  -0.00008   0.03235   0.00000
  28       12D 0       -0.02161   0.00070   0.00000   0.00000   0.00032
  29       12D+1        0.00000   0.00000   0.01639   0.00019   0.00000
  30       12D-1       -0.00090  -0.03732   0.00000   0.00000   0.01092
  31       12D+2       -0.00660   0.00017   0.00000   0.00000   0.00019
  32       12D-2        0.00000   0.00000  -0.00024  -0.01091   0.00000
  33       13F 0       -0.00361   0.00017   0.00000   0.00000   0.00005
  34       13F+1        0.00000   0.00000   0.00227   0.00000   0.00000
  35       13F-1       -0.00006  -0.00259   0.00000   0.00000   0.00771
  36       13F+2       -0.00478   0.00019   0.00000   0.00000   0.00011
  37       13F-2        0.00000   0.00000   0.00000  -0.00444   0.00000
  38       13F+3        0.00000   0.00000  -0.00484  -0.00001   0.00000
  39       13F-3       -0.00011  -0.00298   0.00000   0.00000  -0.00296
  40       14F 0       -0.00691   0.00025   0.00000   0.00000  -0.00001
  41       14F+1        0.00000   0.00000   0.00234   0.00001   0.00000
  42       14F-1       -0.00029  -0.00868   0.00000   0.00000  -0.00069
  43       14F+2       -0.00198   0.00007   0.00000   0.00000  -0.00011
  44       14F-2        0.00000   0.00000   0.00000  -0.00571   0.00000
  45       14F+3        0.00000   0.00000  -0.00335   0.00001   0.00000
  46       14F-3       -0.00010  -0.00306   0.00000   0.00000   0.00107
  47 2   Cl 1S          0.01497   0.00820   0.00000   0.00000   0.00666
  48        2S         -0.05688  -0.03174   0.00000   0.00000  -0.02687
  49        3S          0.12610   0.06693   0.00000   0.00000   0.05766
[...]
  52        6S        -13.86006   0.00000   7.27289   5.03864  10.00149
  53        7PX         0.00000  -0.01624   0.00000   0.00000   0.00000
  54        7PY         0.02331   0.00000  -0.01294   0.00443  -0.01624
  55        7PZ         0.00134   0.00000  -0.00393  -0.01094  -0.01448
  56        8PX         0.00000  -0.19207   0.00000   0.00000   0.00000
  57        8PY         0.37838   0.00000  -0.16278   0.05796  -0.26054
  58        8PZ         0.02883   0.00000  -0.03905  -0.13921  -0.23557
  59        9PX         0.00000   0.06218   0.00000   0.00000   0.00000
  60        9PY        -0.08578   0.00000   0.05056  -0.01642   0.06151
  61        9PZ        -0.00189   0.00000   0.01635   0.04295   0.05541
  62       10PX         0.00000   0.84190   0.00000   0.00000   0.00000
  63       10PY        -5.30121   0.00000   0.80782   0.52927   1.91710
  64       10PZ        -2.68952   0.00000   0.59386   1.37057   1.35153
  65       11PX         0.00000  -2.37432   0.00000   0.00000   0.00000
  66       11PY        -2.46536   0.00000  -1.66456   1.30820   1.47623
  67       11PZ        -1.44735   0.00000   0.95087  -2.76350   1.54522
  68       12D 0        0.01812   0.00000  -0.01110  -0.02289  -0.00542
  69       12D+1        0.00000  -0.01453   0.00000   0.00000   0.00000
  70       12D-1       -0.02021   0.00000   0.00318  -0.00127   0.01683
  71       12D+2        0.04230   0.00000   0.04304   0.00691   0.01312
  72       12D-2        0.00000  -0.02168   0.00000   0.00000   0.00000
  73       13D 0       -0.10866   0.00000   0.05840   0.08695   0.00275
  74       13D+1        0.00000   0.06118   0.00000   0.00000   0.00000
  75       13D-1        0.00379   0.00000   0.01638   0.04317  -0.09265
  76       13D+2       -0.13101   0.00000  -0.14957  -0.03495  -0.03488
  77       13D-2        0.00000   0.09022   0.00000   0.00000   0.00000
  78       14D 0        0.37816   0.00000  -0.02782  -0.18829   0.07452
  79       14D+1        0.00000  -0.08659   0.00000   0.00000   0.00000
  80       14D-1       -1.31321   0.00000   0.16245   0.30758   0.50392
  81       14D+2        1.07103   0.00000   0.31061  -0.03078  -0.31474
  82       14D-2        0.00000   0.10679   0.00000   0.00000   0.00000
  83       15F 0       -0.01713   0.00000   0.02888   0.00171   0.00787
  84       15F+1        0.00000  -0.01132   0.00000   0.00000   0.00000
  85       15F-1        0.03708   0.00000  -0.00623   0.01347  -0.00275
  86       15F+2       -0.01997   0.00000   0.00871   0.02633   0.02162
  87       15F-2        0.00000  -0.00523   0.00000   0.00000   0.00000
  88       15F+3        0.00000   0.05128   0.00000   0.00000   0.00000
  89       15F-3        0.01571   0.00000   0.01976  -0.00443   0.03286
  90       16F 0        0.07328   0.00000  -0.06313  -0.04419   0.00438
  91       16F+1        0.00000   0.00792   0.00000   0.00000   0.00000
  92       16F-1       -0.12807   0.00000   0.03428  -0.02827  -0.00220
  93       16F+2        0.10599   0.00000  -0.01911  -0.07512  -0.03801
  94       16F-2        0.00000   0.02336   0.00000   0.00000   0.00000
  95       16F+3        0.00000  -0.13094   0.00000   0.00000   0.00000
  96       16F-3       -0.00335   0.00000  -0.01938   0.01055  -0.07416
  97 3   Cl 1S         -0.01590   0.00000  -0.00978   0.00543   0.00343
  98        2S         -0.21406   0.00000  -0.18213   0.10350   0.07963
  99        3S         -0.60712   0.00000  -0.41045   0.22745   0.15559
 100        4S          0.02677   0.00000   0.16425  -0.10786  -0.09958
 101        5S          4.85139   0.00000   0.88585   0.05493  -0.12701
 102        6S         13.73969   0.00000  -7.04314   5.51842  10.05229
 103        7PX         0.00000  -0.01624   0.00000   0.00000   0.00000
 104        7PY         0.02362   0.00000  -0.01354  -0.00348   0.01640
 105        7PZ        -0.00119   0.00000   0.00361  -0.01087  -0.01461
 106        8PX         0.00000  -0.19126   0.00000   0.00000   0.00000
 107        8PY         0.38330   0.00000  -0.17219  -0.04430   0.26323
 108        8PZ        -0.02768   0.00000   0.03689  -0.13822  -0.23809
 109        9PX         0.00000   0.06222   0.00000   0.00000   0.00000
 110        9PY        -0.08667   0.00000   0.05246   0.01296  -0.06209
 111        9PZ         0.00102   0.00000  -0.01476   0.04254   0.05589
 112       10PX         0.00000   0.83581   0.00000   0.00000   0.00000
 113       10PY        -5.25447   0.00000   0.78619  -0.61968  -1.93717
 114       10PZ         2.65216   0.00000  -0.53957   1.42406   1.37208
 115       11PX         0.00000  -2.39869   0.00000   0.00000   0.00000
 116       11PY        -2.42673   0.00000  -1.74654  -1.23045  -1.49656
 117       11PZ         1.44355   0.00000  -1.09222  -2.69488   1.55962
 118       12D 0       -0.01907   0.00000   0.00925  -0.02376  -0.00513
 119       12D+1        0.00000  -0.01545   0.00000   0.00000   0.00000
 120       12D-1       -0.01925   0.00000   0.00253   0.00132  -0.01707
 121       12D+2       -0.04110   0.00000  -0.04288   0.00875   0.01286
 122       12D-2        0.00000   0.02215   0.00000   0.00000   0.00000
 123       13D 0        0.11227   0.00000  -0.05166   0.09328   0.00132
 124       13D+1        0.00000   0.06474   0.00000   0.00000   0.00000
 125       13D-1        0.00350   0.00000   0.01493  -0.04604   0.09424
 126       13D+2        0.12852   0.00000   0.14767  -0.04043  -0.03360
 127       13D-2        0.00000  -0.09259   0.00000   0.00000   0.00000
 128       14D 0       -0.38374   0.00000   0.01084  -0.19091   0.08066
 129       14D+1        0.00000  -0.09727   0.00000   0.00000   0.00000
 130       14D-1       -1.28814   0.00000   0.14684  -0.32726  -0.51644
 131       14D+2       -1.05110   0.00000  -0.31200  -0.02081  -0.32336
 132       14D-2        0.00000  -0.10106   0.00000   0.00000   0.00000
 133       15F 0        0.01754   0.00000  -0.02964   0.00326   0.00753
 134       15F+1        0.00000  -0.01099   0.00000   0.00000   0.00000
 135       15F-1        0.03780   0.00000  -0.00640  -0.01298   0.00307
 136       15F+2        0.01941   0.00000  -0.00787   0.02702   0.02189
 137       15F-2        0.00000   0.00531   0.00000   0.00000   0.00000
 138       15F+3        0.00000   0.05133   0.00000   0.00000   0.00000
 139       15F-3        0.01611   0.00000   0.02003   0.00394  -0.03309
 140       16F 0       -0.07287   0.00000   0.06228  -0.04742   0.00510
 141       16F+1        0.00000   0.00680   0.00000   0.00000   0.00000
 142       16F-1       -0.12855   0.00000   0.03454   0.02349   0.00110
 143       16F+2       -0.10321   0.00000   0.01660  -0.07746  -0.03901
 144       16F-2        0.00000  -0.02334   0.00000   0.00000   0.00000
 145       16F+3        0.00000  -0.13130   0.00000   0.00000   0.00000
 146       16F-3       -0.00431   0.00000  -0.02054  -0.01113   0.07499
 147 4   S  1S          0.00001   0.00000  -0.00005   0.00198  -0.00378
 148        2S          0.00099   0.00000  -0.00182   0.00013  -0.06318
 149        3S          0.00126   0.00000  -0.00326   0.06190  -0.16999
 150        4S         -0.00199   0.00000   0.00316   0.10444   0.02270
 151        5S          0.02594   0.00000  -0.04279  -3.77748   2.29631
 152        6S          0.18165   0.00000  -0.29443 -15.53596   4.09313
 153        7PX         0.00000  -0.01985   0.00000   0.00000   0.00000
 154        7PY         0.01747   0.00000   0.00357   0.00000  -0.00020
 155        7PZ         0.00065   0.00000  -0.00031  -0.00753  -0.00126
 156        8PX         0.00000  -0.08875   0.00000   0.00000   0.00000
 157        8PY         0.26687   0.00000   0.13291  -0.00227  -0.00250
 158        8PZ         0.01079   0.00000  -0.00361  -0.01136  -0.13119
 159        9PX         0.00000   0.07446   0.00000   0.00000   0.00000
 160        9PY        -0.06527   0.00000  -0.01184  -0.00004   0.00065
 161        9PZ        -0.00213   0.00000   0.00089   0.02084   0.00106
 162       10PX         0.00000  -0.63835   0.00000   0.00000   0.00000
 163       10PY        -3.47344   0.00000  -0.41150  -0.07192   0.03881
 164       10PZ        -0.05145   0.00000   0.05282   3.57537  -0.32906
 165       11PX         0.00000  -4.11368   0.00000   0.00000   0.00000
 166       11PY        -0.05650   0.00000  -4.74498   0.06138   0.01119
 167       11PZ        -0.02653   0.00000  -0.03977  -1.07937   0.78938
 168       12D 0       -0.00328   0.00000  -0.00930  -0.45697   0.32987
 169       12D+1        0.00000  -0.34339   0.00000   0.00000   0.00000
 170       12D-1       -0.07809   0.00000  -0.36422   0.01332  -0.00305
 171       12D+2       -0.00243   0.00000  -0.00055   0.11230  -0.14709
 172       12D-2        0.00000   0.00275   0.00000   0.00000   0.00000
 173       13D 0        0.00051   0.00000   0.00238   0.08599  -0.08191
 174       13D+1        0.00000   0.07023   0.00000   0.00000   0.00000
 175       13D-1        0.04205   0.00000   0.07056  -0.00160   0.00054
 176       13D+2        0.00073   0.00000   0.00009  -0.03296   0.03038
 177       13D-2        0.00000  -0.00073   0.00000   0.00000   0.00000
 178       14D 0        0.01714   0.00000   0.01535   0.19432  -1.16102
 179       14D+1        0.00000   1.23972   0.00000   0.00000   0.00000
 180       14D-1        1.45314   0.00000   0.92414   0.01340  -0.01240
 181       14D+2        0.01137   0.00000   0.00096  -0.44360   0.17428
 182       14D-2        0.00000  -0.01404   0.00000   0.00000   0.00000
 183       15F 0       -0.00027   0.00000  -0.00054  -0.01307  -0.01302
 184       15F+1        0.00000   0.01522   0.00000   0.00000   0.00000
 185       15F-1       -0.06905   0.00000   0.00564  -0.00019  -0.00036
 186       15F+2       -0.00040   0.00000  -0.00007  -0.01302   0.00189
 187       15F-2        0.00000  -0.00060   0.00000   0.00000   0.00000
 188       15F+3        0.00000   0.02671   0.00000   0.00000   0.00000
 189       15F-3       -0.00273   0.00000   0.04048  -0.00085   0.00006
 190       16F 0        0.00028   0.00000   0.00112   0.07771   0.13234
 191       16F+1        0.00000  -0.01684   0.00000   0.00000   0.00000
 192       16F-1        0.10221   0.00000   0.01302  -0.00436   0.00169
 193       16F+2        0.00119   0.00000   0.00037   0.07209   0.01712
 194       16F-2        0.00000   0.00227   0.00000   0.00000   0.00000
 195       16F+3        0.00000  -0.06014   0.00000   0.00000   0.00000
 196       16F-3        0.01677   0.00000  -0.09418   0.00163  -0.00053
                         196
     Eigenvalues --     0.00000
   1 1   C  1S         -0.03331
   2        2S         -0.12047
   3        3S          0.13355
   4        4S          2.58857
   5        5S         21.00557
   6        6PX         0.00000
   7        6PY        -0.00026
   8        6PZ         0.02244
   9        7PX         0.00000
  10        7PY         0.00138
  11        7PZ        -0.20353
  12        8PX         0.00000
  13        8PY        -0.01080
  14        8PZ         1.17552
  15        9PX         0.00000
  16        9PY        -0.05437
  17        9PZ         3.35539
  18       10D 0        0.01263
  19       10D+1        0.00000
  20       10D-1        0.00006
  21       10D+2       -0.03509
  22       10D-2        0.00000
  23       11D 0       -0.33370
  24       11D+1        0.00000
  25       11D-1        0.00362
  26       11D+2        0.17074
  27       11D-2        0.00000
  28       12D 0       -1.00156
  29       12D+1        0.00000
  30       12D-1        0.05589
  31       12D+2       -0.74320
  32       12D-2        0.00000
  33       13F 0       -0.02585
  34       13F+1        0.00000
  35       13F-1        0.00019
  36       13F+2       -0.00085
  37       13F-2        0.00000
  38       13F+3        0.00000
  39       13F-3        0.00026
  40       14F 0       -0.14230
  41       14F+1        0.00000
  42       14F-1        0.00143
  43       14F+2       -0.12000
  44       14F-2        0.00000
  45       14F+3        0.00000
  46       14F-3       -0.00040
  47 2   Cl 1S         -0.00096
  48        2S         -0.01319
  49        3S         -0.03688
  50        4S         -0.00150
  51        5S          0.35280
  52        6S         -3.50865
  53        7PX         0.00000
  54        7PY         0.00817
  55        7PZ         0.00358
  56        8PX         0.00000
  57        8PY         0.14470
  58        8PZ         0.08760
  59        9PX         0.00000
  60        9PY        -0.02961
  61        9PZ        -0.01121
  62       10PX         0.00000
  63       10PY         0.11427
  64       10PZ        -0.41892
  65       11PX         0.00000
  66       11PY        -0.73406
  67       11PZ        -1.02504
  68       12D 0        0.00840
  69       12D+1        0.00000
  70       12D-1       -0.01033
  71       12D+2       -0.00802
  72       12D-2        0.00000
  73       13D 0       -0.04128
  74       13D+1        0.00000
  75       13D-1        0.08772
  76       13D+2       -0.00831
  77       13D-2        0.00000
  78       14D 0       -0.04781
  79       14D+1        0.00000
  80       14D-1       -0.17307
  81       14D+2       -0.16750
  82       14D-2        0.00000
  83       15F 0       -0.00503
  84       15F+1        0.00000
  85       15F-1        0.00680
  86       15F+2       -0.00394
  87       15F-2        0.00000
  88       15F+3        0.00000
  89       15F-3       -0.00203
  90       16F 0        0.00474
  91       16F+1        0.00000
  92       16F-1       -0.02088
  93       16F+2       -0.00398
  94       16F-2        0.00000
  95       16F+3        0.00000
  96       16F-3       -0.01082
  97 3   Cl 1S         -0.00104
  98        2S         -0.01426
  99        3S         -0.04002
 100        4S         -0.00164
 101        5S          0.40200
 102        6S         -3.40748
 103        7PX         0.00000
 104        7PY        -0.00792
 105        7PZ         0.00371
 106        8PX         0.00000
 107        8PY        -0.14139
 108        8PZ         0.08990
 109        9PX         0.00000
 110        9PY         0.02867
 111        9PZ        -0.01167
 112       10PX         0.00000
 113       10PY        -0.15737
 114       10PZ        -0.42399
 115       11PX         0.00000
 116       11PY         0.73753
 117       11PZ        -1.01678
 118       12D 0        0.00841
 119       12D+1        0.00000
 120       12D-1        0.01035
 121       12D+2       -0.00802
 122       12D-2        0.00000
 123       13D 0       -0.04121
 124       13D+1        0.00000
 125       13D-1       -0.08833
 126       13D+2       -0.00868
 127       13D-2        0.00000
 128       14D 0       -0.05786
 129       14D+1        0.00000
 130       14D-1        0.16970
 131       14D+2       -0.17079
 132       14D-2        0.00000
 133       15F 0       -0.00511
 134       15F+1        0.00000
 135       15F-1       -0.00668
 136       15F+2       -0.00353
 137       15F-2        0.00000
 138       15F+3        0.00000
 139       15F-3        0.00220
 140       16F 0        0.00404
 141       16F+1        0.00000
 142       16F-1        0.02067
 143       16F+2       -0.00527
 144       16F-2        0.00000
 145       16F+3        0.00000
 146       16F-3        0.01033
 147 4   S  1S         -0.00436
 148        2S         -0.11021
 149        3S         -0.23203
 150        4S          0.10628
 151        5S          2.75852
 152        6S        -18.14036
 153        7PX         0.00000
 154        7PY         0.00048
 155        7PZ        -0.04534
 156        8PX         0.00000
 157        8PY         0.00917
 158        8PZ        -0.90996
 159        9PX         0.00000
 160        9PY        -0.00151
 161        9PZ         0.14223
 162       10PX         0.00000
 163       10PY        -0.05745
 164       10PZ         3.43839
 165       11PX         0.00000
 166       11PY        -0.03158
 167       11PZ         4.74829
 168       12D 0        0.31455
 169       12D+1        0.00000
 170       12D-1       -0.00452
 171       12D+2        0.09107
 172       12D-2        0.00000
 173       13D 0       -0.00637
 174       13D+1        0.00000
 175       13D-1        0.00026
 176       13D+2       -0.02095
 177       13D-2        0.00000
 178       14D 0       -1.71083
 179       14D+1        0.00000
 180       14D-1        0.03691
 181       14D+2        0.03794
 182       14D-2        0.00000
 183       15F 0       -0.08743
 184       15F+1        0.00000
 185       15F-1        0.00166
 186       15F+2        0.01204
 187       15F-2        0.00000
 188       15F+3        0.00000
 189       15F-3       -0.00002
 190       16F 0        0.18823
 191       16F+1        0.00000
 192       16F-1       -0.00393
 193       16F+2       -0.08516
 194       16F-2        0.00000
 195       16F+3        0.00000
 196       16F-3        0.00071
          Condensed to atoms (all electrons):
              1          2          3          4
     1  C    5.673205   0.071723   0.070849   0.179139
     2  Cl   0.071723  17.192395  -0.119027  -0.129254
     3  Cl   0.070849  -0.119027  17.191569  -0.127872
     4  S    0.179139  -0.129254  -0.127872  16.051715
 Mulliken atomic charges:
              1
     1  C    0.005085
     2  Cl  -0.015837
     3  Cl  -0.015519
     4  S    0.026272
 Sum of Mulliken atomic charges =   0.00000
 Mulliken charges with hydrogens summed into heavy atoms:
              1
     1  C    0.005085
     2  Cl  -0.015837
     3  Cl  -0.015519
     4  S    0.026272
 Sum of Mulliken charges with hydrogens summed into heavy atoms =   0.00000
 Electronic spatial extent (au):  <R**2>=            690.6827
 Charge=              0.0000 electrons
 Dipole moment (field-independent basis, Debye):
    X=              0.0000    Y=              0.0077    Z=             -0.4353  Tot=              0.4353
 Quadrupole moment (field-independent basis, Debye-Ang):
   XX=            -43.1531   YY=            -43.2922   ZZ=            -42.5377
   XY=              0.0000   XZ=              0.0000   YZ=             -0.0439
 Traceless Quadrupole moment (field-independent basis, Debye-Ang):
   XX=             -0.1588   YY=             -0.2979   ZZ=              0.4566
   XY=              0.0000   XZ=              0.0000   YZ=             -0.0439
 Octapole moment (field-independent basis, Debye-Ang**2):
  XXX=              0.0000  YYY=              0.4405  ZZZ=             81.6754  XYY=              0.0000
  XXY=              0.1268  XXZ=             27.1312  XZZ=              0.0000  YZZ=              0.1267
  YYZ=             18.9948  XYZ=              0.0000
 Hexadecapole moment (field-independent basis, Debye-Ang**3):
 XXXX=            -50.8943 YYYY=           -340.4887 ZZZZ=           -477.7209 XXXY=              0.0000
 XXXZ=              0.0000 YYYX=              0.0000 YYYZ=              0.3628 ZZZX=              0.0000
 ZZZY=              0.1168 XXYY=            -69.2266 XXZZ=            -89.7492 YYZZ=           -127.3448
 XXYZ=              0.1058 YYXZ=              0.0000 ZZXY=              0.0000
 N-N= 2.448922426576D+02 E-N=-3.713353311140D+03  KE= 1.355036299341D+03
 1\1\GINC-TRAPISTA\SP\RQCISD-FC\Aug-CC-pVTZ\C1Cl2S1\BRUNS\28-Nov-2021\0
 \\# qcisd/aug-cc-pvtz nosymm density=current output=wfn\\cl2cs-wavefun
 ction\\0,1\C,0,0.,0.,-0.522914\Cl,0,0.,-1.430735,-1.5009\Cl,0,0.,1.430
 735,-1.5009\S,0,0.,-0.01,1.081815\\Version=EM64L-G09RevB.01\HF=-1354.4
 260145\MP2=-1355.1503905\MP3=-1355.18299\MP4D=-1355.2047703\MP4DQ=-135
 5.1798839\MP4SDQ=-1355.1867074\QCISD=-1355.1842213\RMSD=9.626e-09\Dipo
 le=0.,0.003041,-0.1712438\Quadrupole=-0.1180524,-0.2214535,0.3395059,0
 .,0.,-0.0326576\PG=CS [SG(C1Cl2S1)]\\@

 Writing a WFN file to GAUSSIAN.wfn.


 GOOD SENSE ABOUT TRIVIALITIES IS BETTER THAN NONSENSE
 ABOUT THINGS THAT MATTER

                                       -- MAX BEERBOHM
 Job cpu time:  0 days  2 hours 14 minutes 13.6 seconds.
 File lengths (MBytes):  RWF=  18573 Int=      0 D2E=      0 Chk=      3 Scr=      1
 Normal termination of Gaussian 09 at Sun Nov 28 03:36:49 2021.
