 cl2cs-wavefunction
GAUSSIAN            196 MOL ORBITALS    414 PRIMITIVES        4 NUCLEI
  C    1    (CENTRE  1)   0.00000000  0.00000000 -0.98816425  CHARGE =  6.0
  Cl   2    (CENTRE  2)   0.00000000 -2.70369732 -2.83628995  CHARGE = 17.0
  Cl   3    (CENTRE  3)   0.00000000  2.70369732 -2.83628995  CHARGE = 17.0
  S    4    (CENTRE  4)   0.00000000  0.00000000  2.06323134  CHARGE = 16.0
CENTRE ASSIGNMENTS    1  1  1  1  1  1  1  1  1  1  1  1  1  1  1  1  1  1  1  1
CENTRE ASSIGNMENTS    1  1  1  1  1  1  1  1  1  1  1  1  1  1  1  1  1  1  1  1
CENTRE ASSIGNMENTS    1  1  1  1  1  1  1  1  1  1  1  1  1  1  1  1  1  1  1  1
CENTRE ASSIGNMENTS    1  1  1  1  1  1  1  1  1  1  1  1  2  2  2  2  2  2  2  2
CENTRE ASSIGNMENTS    2  2  2  2  2  2  2  2  2  2  2  2  2  2  2  2  2  2  2  2
CENTRE ASSIGNMENTS    2  2  2  2  2  2  2  2  2  2  2  2  2  2  2  2  2  2  2  2
CENTRE ASSIGNMENTS    2  2  2  2  2  2  2  2  2  2  2  2  2  2  2  2  2  2  2  2
CENTRE ASSIGNMENTS    2  2  2  2  2  2  2  2  2  2  2  2  2  2  2  2  2  2  2  2
CENTRE ASSIGNMENTS    2  2  2  2  2  2  2  2  2  2  2  2  2  2  2  2  2  2  2  2
CENTRE ASSIGNMENTS    2  2  2  2  2  2  3  3  3  3  3  3  3  3  3  3  3  3  3  3
CENTRE ASSIGNMENTS    3  3  3  3  3  3  3  3  3  3  3  3  3  3  3  3  3  3  3  3
CENTRE ASSIGNMENTS    3  3  3  3  3  3  3  3  3  3  3  3  3  3  3  3  3  3  3  3
CENTRE ASSIGNMENTS    3  3  3  3  3  3  3  3  3  3  3  3  3  3  3  3  3  3  3  3
CENTRE ASSIGNMENTS    3  3  3  3  3  3  3  3  3  3  3  3  3  3  3  3  3  3  3  3
CENTRE ASSIGNMENTS    3  3  3  3  3  3  3  3  3  3  3  3  3  3  3  3  3  3  3  3
CENTRE ASSIGNMENTS    4  4  4  4  4  4  4  4  4  4  4  4  4  4  4  4  4  4  4  4
CENTRE ASSIGNMENTS    4  4  4  4  4  4  4  4  4  4  4  4  4  4  4  4  4  4  4  4
CENTRE ASSIGNMENTS    4  4  4  4  4  4  4  4  4  4  4  4  4  4  4  4  4  4  4  4
CENTRE ASSIGNMENTS    4  4  4  4  4  4  4  4  4  4  4  4  4  4  4  4  4  4  4  4
CENTRE ASSIGNMENTS    4  4  4  4  4  4  4  4  4  4  4  4  4  4  4  4  4  4  4  4
CENTRE ASSIGNMENTS    4  4  4  4  4  4  4  4  4  4  4  4  4  4
TYPE ASSIGNMENTS      1  1  1  1  1  1  1  1  1  1  1  1  1  1  1  1  2  2  2  3
TYPE ASSIGNMENTS      3  3  4  4  4  2  3  4  2  3  4  2  3  4  5  6  7  8  9 10
TYPE ASSIGNMENTS      5  6  7  8  9 10  5  6  7  8  9 10 11 12 13 17 14 15 18 19
TYPE ASSIGNMENTS     16 20 11 12 13 17 14 15 18 19 16 20  1  1  1  1  1  1  1  1
TYPE ASSIGNMENTS      1  1  1  1  1  1  1  1  1  1  1  1  1  1  1  1  1  1  1  1
TYPE ASSIGNMENTS      1  1  1  2  2  2  2  2  2  3  3  3  3  3  3  4  4  4  4  4
TYPE ASSIGNMENTS      4  2  2  2  2  2  2  3  3  3  3  3  3  4  4  4  4  4  4  2
TYPE ASSIGNMENTS      3  4  2  3  4  2  3  4  5  6  7  8  9 10  5  6  7  8  9 10
TYPE ASSIGNMENTS      5  6  7  8  9 10 11 12 13 17 14 15 18 19 16 20 11 12 13 17
TYPE ASSIGNMENTS     14 15 18 19 16 20  1  1  1  1  1  1  1  1  1  1  1  1  1  1
TYPE ASSIGNMENTS      1  1  1  1  1  1  1  1  1  1  1  1  1  1  1  1  1  2  2  2
TYPE ASSIGNMENTS      2  2  2  3  3  3  3  3  3  4  4  4  4  4  4  2  2  2  2  2
TYPE ASSIGNMENTS      2  3  3  3  3  3  3  4  4  4  4  4  4  2  3  4  2  3  4  2
TYPE ASSIGNMENTS      3  4  5  6  7  8  9 10  5  6  7  8  9 10  5  6  7  8  9 10
TYPE ASSIGNMENTS     11 12 13 17 14 15 18 19 16 20 11 12 13 17 14 15 18 19 16 20
TYPE ASSIGNMENTS      1  1  1  1  1  1  1  1  1  1  1  1  1  1  1  1  1  1  1  1
TYPE ASSIGNMENTS      1  1  1  1  1  1  1  1  1  1  1  2  2  2  2  2  2  3  3  3
TYPE ASSIGNMENTS      3  3  3  4  4  4  4  4  4  2  2  2  2  2  2  3  3  3  3  3
TYPE ASSIGNMENTS      3  4  4  4  4  4  4  2  3  4  2  3  4  2  3  4  5  6  7  8
TYPE ASSIGNMENTS      9 10  5  6  7  8  9 10  5  6  7  8  9 10 11 12 13 17 14 15
TYPE ASSIGNMENTS     18 19 16 20 11 12 13 17 14 15 18 19 16 20
EXPONENTS  0.8236000D+04 0.1235000D+04 0.2808000D+03 0.7927000D+02 0.2559000D+02
EXPONENTS  0.8997000D+01 0.3319000D+01 0.2808000D+03 0.7927000D+02 0.2559000D+02
EXPONENTS  0.8997000D+01 0.3319000D+01 0.3643000D+00 0.9059000D+00 0.1285000D+00
EXPONENTS  0.4402000D-01 0.1871000D+02 0.4133000D+01 0.1200000D+01 0.1871000D+02
EXPONENTS  0.4133000D+01 0.1200000D+01 0.1871000D+02 0.4133000D+01 0.1200000D+01
EXPONENTS  0.3827000D+00 0.3827000D+00 0.3827000D+00 0.1209000D+00 0.1209000D+00
EXPONENTS  0.1209000D+00 0.3569000D-01 0.3569000D-01 0.3569000D-01 0.1097000D+01
EXPONENTS  0.1097000D+01 0.1097000D+01 0.1097000D+01 0.1097000D+01 0.1097000D+01
EXPONENTS  0.3180000D+00 0.3180000D+00 0.3180000D+00 0.3180000D+00 0.3180000D+00
EXPONENTS  0.3180000D+00 0.1000000D+00 0.1000000D+00 0.1000000D+00 0.1000000D+00
EXPONENTS  0.1000000D+00 0.1000000D+00 0.7610000D+00 0.7610000D+00 0.7610000D+00
EXPONENTS  0.7610000D+00 0.7610000D+00 0.7610000D+00 0.7610000D+00 0.7610000D+00
EXPONENTS  0.7610000D+00 0.7610000D+00 0.2680000D+00 0.2680000D+00 0.2680000D+00
EXPONENTS  0.2680000D+00 0.2680000D+00 0.2680000D+00 0.2680000D+00 0.2680000D+00
EXPONENTS  0.2680000D+00 0.2680000D+00 0.4561000D+06 0.6833000D+05 0.1555000D+05
EXPONENTS  0.4405000D+04 0.1439000D+04 0.5204000D+03 0.2031000D+03 0.8396000D+02
EXPONENTS  0.3620000D+02 0.1583000D+02 0.6334000D+01 0.4405000D+04 0.1439000D+04
EXPONENTS  0.5204000D+03 0.2031000D+03 0.8396000D+02 0.3620000D+02 0.1583000D+02
EXPONENTS  0.6334000D+01 0.2694000D+01 0.1439000D+04 0.2031000D+03 0.8396000D+02
EXPONENTS  0.3620000D+02 0.1583000D+02 0.6334000D+01 0.2694000D+01 0.4313000D+00
EXPONENTS  0.9768000D+00 0.1625000D+00 0.5910000D-01 0.6633000D+03 0.1568000D+03
EXPONENTS  0.4998000D+02 0.1842000D+02 0.7240000D+01 0.2922000D+01 0.6633000D+03
EXPONENTS  0.1568000D+03 0.4998000D+02 0.1842000D+02 0.7240000D+01 0.2922000D+01
EXPONENTS  0.6633000D+03 0.1568000D+03 0.4998000D+02 0.1842000D+02 0.7240000D+01
EXPONENTS  0.2922000D+01 0.1568000D+03 0.4998000D+02 0.1842000D+02 0.7240000D+01
EXPONENTS  0.2922000D+01 0.3818000D+00 0.1568000D+03 0.4998000D+02 0.1842000D+02
EXPONENTS  0.7240000D+01 0.2922000D+01 0.3818000D+00 0.1568000D+03 0.4998000D+02
EXPONENTS  0.1842000D+02 0.7240000D+01 0.2922000D+01 0.3818000D+00 0.1022000D+01
EXPONENTS  0.1022000D+01 0.1022000D+01 0.1301000D+00 0.1301000D+00 0.1301000D+00
EXPONENTS  0.4190000D-01 0.4190000D-01 0.4190000D-01 0.1046000D+01 0.1046000D+01
EXPONENTS  0.1046000D+01 0.1046000D+01 0.1046000D+01 0.1046000D+01 0.3440000D+00
EXPONENTS  0.3440000D+00 0.3440000D+00 0.3440000D+00 0.3440000D+00 0.3440000D+00
EXPONENTS  0.1350000D+00 0.1350000D+00 0.1350000D+00 0.1350000D+00 0.1350000D+00
EXPONENTS  0.1350000D+00 0.7060000D+00 0.7060000D+00 0.7060000D+00 0.7060000D+00
EXPONENTS  0.7060000D+00 0.7060000D+00 0.7060000D+00 0.7060000D+00 0.7060000D+00
EXPONENTS  0.7060000D+00 0.3120000D+00 0.3120000D+00 0.3120000D+00 0.3120000D+00
EXPONENTS  0.3120000D+00 0.3120000D+00 0.3120000D+00 0.3120000D+00 0.3120000D+00
EXPONENTS  0.3120000D+00 0.4561000D+06 0.6833000D+05 0.1555000D+05 0.4405000D+04
EXPONENTS  0.1439000D+04 0.5204000D+03 0.2031000D+03 0.8396000D+02 0.3620000D+02
EXPONENTS  0.1583000D+02 0.6334000D+01 0.4405000D+04 0.1439000D+04 0.5204000D+03
EXPONENTS  0.2031000D+03 0.8396000D+02 0.3620000D+02 0.1583000D+02 0.6334000D+01
EXPONENTS  0.2694000D+01 0.1439000D+04 0.2031000D+03 0.8396000D+02 0.3620000D+02
EXPONENTS  0.1583000D+02 0.6334000D+01 0.2694000D+01 0.4313000D+00 0.9768000D+00
EXPONENTS  0.1625000D+00 0.5910000D-01 0.6633000D+03 0.1568000D+03 0.4998000D+02
EXPONENTS  0.1842000D+02 0.7240000D+01 0.2922000D+01 0.6633000D+03 0.1568000D+03
EXPONENTS  0.4998000D+02 0.1842000D+02 0.7240000D+01 0.2922000D+01 0.6633000D+03
EXPONENTS  0.1568000D+03 0.4998000D+02 0.1842000D+02 0.7240000D+01 0.2922000D+01
EXPONENTS  0.1568000D+03 0.4998000D+02 0.1842000D+02 0.7240000D+01 0.2922000D+01
EXPONENTS  0.3818000D+00 0.1568000D+03 0.4998000D+02 0.1842000D+02 0.7240000D+01
EXPONENTS  0.2922000D+01 0.3818000D+00 0.1568000D+03 0.4998000D+02 0.1842000D+02
EXPONENTS  0.7240000D+01 0.2922000D+01 0.3818000D+00 0.1022000D+01 0.1022000D+01
EXPONENTS  0.1022000D+01 0.1301000D+00 0.1301000D+00 0.1301000D+00 0.4190000D-01
EXPONENTS  0.4190000D-01 0.4190000D-01 0.1046000D+01 0.1046000D+01 0.1046000D+01
EXPONENTS  0.1046000D+01 0.1046000D+01 0.1046000D+01 0.3440000D+00 0.3440000D+00
EXPONENTS  0.3440000D+00 0.3440000D+00 0.3440000D+00 0.3440000D+00 0.1350000D+00
EXPONENTS  0.1350000D+00 0.1350000D+00 0.1350000D+00 0.1350000D+00 0.1350000D+00
EXPONENTS  0.7060000D+00 0.7060000D+00 0.7060000D+00 0.7060000D+00 0.7060000D+00
EXPONENTS  0.7060000D+00 0.7060000D+00 0.7060000D+00 0.7060000D+00 0.7060000D+00
EXPONENTS  0.3120000D+00 0.3120000D+00 0.3120000D+00 0.3120000D+00 0.3120000D+00
EXPONENTS  0.3120000D+00 0.3120000D+00 0.3120000D+00 0.3120000D+00 0.3120000D+00
EXPONENTS  0.3741000D+06 0.5605000D+05 0.1276000D+05 0.3615000D+04 0.1183000D+04
EXPONENTS  0.4288000D+03 0.1678000D+03 0.6947000D+02 0.2984000D+02 0.1272000D+02
EXPONENTS  0.5244000D+01 0.3615000D+04 0.1183000D+04 0.4288000D+03 0.1678000D+03
EXPONENTS  0.6947000D+02 0.2984000D+02 0.1272000D+02 0.5244000D+01 0.2219000D+01
EXPONENTS  0.1183000D+04 0.1678000D+03 0.6947000D+02 0.2984000D+02 0.1272000D+02
EXPONENTS  0.5244000D+01 0.2219000D+01 0.3490000D+00 0.7767000D+00 0.1322000D+00
EXPONENTS  0.4970000D-01 0.5744000D+03 0.1358000D+03 0.4319000D+02 0.1587000D+02
EXPONENTS  0.6208000D+01 0.2483000D+01 0.5744000D+03 0.1358000D+03 0.4319000D+02
EXPONENTS  0.1587000D+02 0.6208000D+01 0.2483000D+01 0.5744000D+03 0.1358000D+03
EXPONENTS  0.4319000D+02 0.1587000D+02 0.6208000D+01 0.2483000D+01 0.1358000D+03
EXPONENTS  0.4319000D+02 0.1587000D+02 0.6208000D+01 0.2483000D+01 0.3229000D+00
EXPONENTS  0.1358000D+03 0.4319000D+02 0.1587000D+02 0.6208000D+01 0.2483000D+01
EXPONENTS  0.3229000D+00 0.1358000D+03 0.4319000D+02 0.1587000D+02 0.6208000D+01
EXPONENTS  0.2483000D+01 0.3229000D+00 0.8688000D+00 0.8688000D+00 0.8688000D+00
EXPONENTS  0.1098000D+00 0.1098000D+00 0.1098000D+00 0.3510000D-01 0.3510000D-01
EXPONENTS  0.3510000D-01 0.2690000D+00 0.2690000D+00 0.2690000D+00 0.2690000D+00
EXPONENTS  0.2690000D+00 0.2690000D+00 0.8190000D+00 0.8190000D+00 0.8190000D+00
EXPONENTS  0.8190000D+00 0.8190000D+00 0.8190000D+00 0.1010000D+00 0.1010000D+00
EXPONENTS  0.1010000D+00 0.1010000D+00 0.1010000D+00 0.1010000D+00 0.5570000D+00
EXPONENTS  0.5570000D+00 0.5570000D+00 0.5570000D+00 0.5570000D+00 0.5570000D+00
EXPONENTS  0.5570000D+00 0.5570000D+00 0.5570000D+00 0.5570000D+00 0.2180000D+00
EXPONENTS  0.2180000D+00 0.2180000D+00 0.2180000D+00 0.2180000D+00 0.2180000D+00
EXPONENTS  0.2180000D+00 0.2180000D+00 0.2180000D+00 0.2180000D+00
MO    1     MO 0.0        OCC NO =    2.0000385  ORB. ENERGY =    0.000000
 -0.31036631D-10 -0.57858532D-10 -0.97788802D-10 -0.14699481D-09 -0.18055679D-09
 -0.15238356D-09 -0.57300200D-10 -0.38315891D-14 -0.28638755D-13 -0.10702957D-12
 -0.29859582D-12 -0.40003608D-12  0.47236802D-12 -0.24829162D-11  0.14553771D-13
 -0.91318348D-14  0.42625802D-12  0.39964399D-12  0.28457033D-12  0.74845579D-03
  0.70172488D-03  0.49966992D-03 -0.60487002D-13 -0.56710409D-13 -0.40381190D-13
  0.86233617D-13  0.19763352D-03 -0.22252751D-12 -0.92024823D-14  0.30085734D-03
  0.69187165D-13 -0.18425751D-14 -0.10590193D-04 -0.19848660D-15  0.67691775D-13
 -0.91731311D-13  0.24039536D-13  0.60634006D-12 -0.10124709D-12  0.28118302D-03
 -0.17321577D-13  0.32648225D-13 -0.15326649D-13 -0.57645345D-13 -0.67670115D-16
  0.26123647D-03  0.12304157D-14 -0.25454188D-13  0.24223773D-13  0.58189675D-13
 -0.14808961D-13  0.18586535D-03 -0.99184749D-14  0.24792685D-03 -0.43126058D-13
  0.17776218D-13  0.25808114D-04  0.84695194D-13  0.11979207D-13 -0.76958867D-03
  0.44682979D-13 -0.23853395D-12  0.40779990D-14 -0.29879026D-03  0.14796395D-13
 -0.11289159D-13 -0.21301951D-04 -0.15326370D-13 -0.94483752D-15  0.91767274D-03
 -0.29062814D-13  0.17858829D-12 -0.14404993D-02 -0.26950204D-02 -0.46563975D-02
 -0.75485675D-02 -0.11463224D-01 -0.15932803D-01 -0.18942882D-01 -0.16874977D-01
 -0.83804706D-02 -0.13491849D-02 -0.14234697D-04 -0.70714797D-05 -0.23589273D-03
 -0.82203892D-03 -0.29602953D-02 -0.65256025D-02 -0.91859422D-02  0.43819938D-03
  0.12021401D-01  0.71081789D-02  0.21943243D-06  0.26578626D-05  0.55426922D-05
  0.15895476D-04  0.82542995D-06 -0.68549003D-04 -0.17711746D-03  0.14430697D-03
  0.39615543D-03 -0.20788530D-03 -0.10654741D-03  0.32605328D-08  0.42948844D-08
  0.47379298D-08  0.39352217D-08  0.20897119D-08  0.53915659D-09 -0.48633349D+01
 -0.64061498D+01 -0.70669860D+01 -0.58696852D+01 -0.31169657D+01 -0.80419344D+00
  0.65893030D+01  0.86796535D+01  0.95750165D+01  0.79528009D+01  0.42231580D+01
  0.10895968D+01 -0.14696407D-12  0.14207541D-11  0.20034116D-11  0.28654085D-11
 -0.14510026D-13 -0.26278499D-11  0.25238455D-03 -0.24398914D-02 -0.34405016D-02
 -0.49208274D-02  0.24918377D-04  0.45128628D-02 -0.32872116D-03  0.31778646D-02
  0.44811209D-02  0.64091882D-02 -0.32455227D-04 -0.58778301D-02  0.21265639D-10
 -0.31283697D-01  0.42535560D-01 -0.14781238D-12  0.34513253D-03 -0.50541385D-03
 -0.55777470D-14  0.96266472D-05 -0.19414169D-04  0.89182238D-05 -0.81342576D-03
  0.80450754D-03  0.44075887D-12  0.22895941D-12  0.73416774D-03  0.40442686D-04
  0.47710536D-03 -0.51754805D-03 -0.19489135D-12 -0.13957736D-12 -0.34257477D-03
 -0.22384837D-05 -0.15959561D-05  0.38344399D-05  0.14857344D-13  0.26526433D-13
  0.36215233D-05  0.11548353D-13 -0.22476323D-04 -0.10323168D-04  0.28439043D-13
  0.49351347D-04  0.37612614D-04 -0.63084101D-13  0.18077621D-04 -0.66431102D-05
 -0.12426946D-13  0.54473175D-14  0.84281285D-04 -0.40494891D-04 -0.38417844D-13
 -0.96877951D-05  0.42911680D-04  0.22075891D-13 -0.24315606D-03  0.78572994D-04
 -0.56698064D-13  0.14404992D-02  0.26950204D-02  0.46563974D-02  0.75485673D-02
  0.11463224D-01  0.15932803D-01  0.18942881D-01  0.16874977D-01  0.83804704D-02
  0.13491848D-02  0.14234697D-04  0.70714797D-05  0.23589272D-03  0.82203892D-03
  0.29602952D-02  0.65256025D-02  0.91859421D-02 -0.43819938D-03 -0.12021401D-01
 -0.71081789D-02 -0.21943243D-06 -0.26578626D-05 -0.55426923D-05 -0.15895476D-04
 -0.82542996D-06  0.68549003D-04  0.17711746D-03 -0.14430697D-03 -0.39615543D-03
  0.20788530D-03  0.10654741D-03 -0.51275808D-08 -0.67542234D-08 -0.74509657D-08
 -0.61886104D-08 -0.32863239D-08 -0.84788873D-09 -0.48633349D+01 -0.64061497D+01
 -0.70669860D+01 -0.58696852D+01 -0.31169657D+01 -0.80419344D+00 -0.65893030D+01
 -0.86796535D+01 -0.95750165D+01 -0.79528009D+01 -0.42231580D+01 -0.10895968D+01
  0.21953528D-12 -0.21223258D-11 -0.29927009D-11 -0.42803540D-11  0.21675110D-13
  0.39254883D-11  0.25238455D-03 -0.24398914D-02 -0.34405016D-02 -0.49208274D-02
  0.24918377D-04  0.45128628D-02  0.32872116D-03 -0.31778646D-02 -0.44811209D-02
 -0.64091882D-02  0.32455227D-04  0.58778301D-02 -0.33671505D-10 -0.31283697D-01
 -0.42535560D-01  0.21731446D-12  0.34513253D-03  0.50541385D-03  0.98714991D-14
  0.96266472D-05  0.19414169D-04 -0.89182238D-05  0.81342576D-03 -0.80450754D-03
  0.57276067D-12 -0.34330216D-12  0.73416774D-03 -0.40442686D-04 -0.47710536D-03
  0.51754805D-03 -0.29513133D-12  0.19514562D-12 -0.34257477D-03  0.22384837D-05
  0.15959561D-05 -0.38344399D-05  0.23482479D-13 -0.25128485D-13  0.36215233D-05
 -0.94204849D-14 -0.22476323D-04  0.10323168D-04 -0.17120693D-13  0.49351347D-04
 -0.37612614D-04  0.45382148D-13  0.18077621D-04  0.66431102D-05  0.18784955D-14
 -0.12585401D-13  0.84281285D-04  0.40494891D-04  0.49652692D-13 -0.96877951D-05
 -0.42911680D-04 -0.11896489D-13 -0.24315606D-03 -0.78572994D-04 -0.86446182D-13
 -0.12199598D-10 -0.22808377D-10 -0.39419656D-10 -0.63759668D-10 -0.96370605D-10
 -0.13272228D-09 -0.15513618D-09 -0.13407917D-09 -0.62575449D-10 -0.84776003D-11
  0.62006390D-13  0.11493312D-12  0.14774537D-11  0.53895387D-11  0.18184170D-10
  0.39940596D-10  0.51592356D-10 -0.82913306D-11 -0.69554409D-10 -0.38170562D-10
  0.90231153D-15  0.10277889D-13  0.21340603D-13  0.58681239D-13 -0.76086965D-14
 -0.26532984D-12 -0.66177475D-12  0.54780756D-12 -0.21134019D-11 -0.81726014D-13
  0.30995753D-13  0.50414189D-10  0.66140549D-10  0.72541867D-10  0.59685263D-10
  0.31462677D-10  0.81859968D-11  0.83029678D+00  0.10893022D+01  0.11947287D+01
  0.98298680D+00  0.51817475D+00  0.13481932D+00 -0.59396268D-09 -0.77924525D-09
 -0.85466340D-09 -0.70319130D-09 -0.37068247D-09 -0.96444606D-10  0.14386611D-14
  0.51641648D-13  0.81930770D-13  0.97290276D-13  0.14722583D-13 -0.10714820D-12
  0.22344604D-04  0.80207365D-03  0.12725100D-02  0.15110665D-02  0.22866420D-03
 -0.16641752D-02 -0.31022059D-14 -0.11135564D-12 -0.17666851D-12 -0.20978844D-12
 -0.31746520D-13  0.23104522D-12  0.28634137D-12  0.58416343D-02 -0.44810601D-11
  0.12488235D-13 -0.51334578D-03 -0.12625610D-13  0.37230631D-15 -0.65915688D-05
 -0.16733411D-14 -0.24333039D-14 -0.74016437D-14  0.98349476D-14 -0.46418615D-13
 -0.60359750D-14  0.68314975D-03 -0.32628320D-13 -0.13502153D-13  0.46130472D-13
  0.10339324D-12 -0.97829849D-14 -0.11057687D-03 -0.47452752D-14  0.16606264D-14
  0.30846488D-14 -0.15888403D-13 -0.74050774D-14  0.75507033D-04  0.15666449D-14
  0.63457501D-04 -0.24743717D-13  0.84979354D-15  0.25771512D-04  0.18189910D-13
 -0.55497283D-14 -0.21614402D-03  0.56041242D-13 -0.43952072D-13 -0.15597452D-14
  0.27046339D-04 -0.32267012D-15  0.11580872D-14  0.21813670D-05  0.52030212D-14
  0.35211485D-14 -0.83320383D-04 -0.42350108D-14  0.48746618D-13
MO    2     MO 0.0        OCC NO =    2.0000376  ORB. ENERGY =    0.000000
 -0.75615642D-03 -0.14096279D-02 -0.23824632D-02 -0.35812866D-02 -0.43989691D-02
 -0.37125747D-02 -0.13960250D-02 -0.11341616D-05 -0.84771549D-05 -0.31681064D-04
 -0.88385234D-04 -0.11841185D-03  0.13982231D-03  0.46850257D-05 -0.44913306D-03
 -0.66854024D-04 -0.60784837D-12 -0.56989649D-12 -0.40580025D-12 -0.68390768D-13
 -0.64120692D-13 -0.45657753D-13  0.85942830D-03  0.80576866D-03  0.57375529D-03
 -0.12176061D-12  0.24174079D-12  0.57373765D-03  0.39637304D-13 -0.76472488D-13
 -0.50349033D-03  0.53385310D-14 -0.97101676D-14 -0.46042397D-04 -0.63829748D-04
  0.71575010D-03 -0.65192035D-03  0.60947207D-13  0.14376509D-12  0.24446362D-12
  0.63870334D-04 -0.11091563D-03  0.47045300D-04 -0.80434279D-14  0.47415398D-14
 -0.16032431D-12  0.50096238D-05  0.16289996D-03 -0.16790958D-03  0.37075698D-14
  0.29554493D-13  0.27855201D-13  0.16439001D-13  0.52588292D-14  0.99397161D-04
 -0.26072493D-13 -0.53278159D-13 -0.18892829D-03 -0.23244511D-13  0.37501671D-13
 -0.10926319D-03 -0.22606334D-13 -0.77832335D-14 -0.78921431D-14 -0.74489618D-04
  0.18944437D-13  0.99869700D-14  0.97399409D-04  0.44052632D-14  0.13689459D-13
  0.12606944D-03  0.18479854D-13 -0.77067710D-03 -0.14418546D-02 -0.24912050D-02
 -0.40385360D-02 -0.61329044D-02 -0.85241601D-02 -0.10134573D-01 -0.90282300D-02
 -0.44836099D-02 -0.72182326D-03 -0.76156618D-05 -0.40204983D-05 -0.13411709D-03
 -0.46737121D-03 -0.16830794D-02 -0.37101391D-02 -0.52226784D-02  0.24913878D-03
  0.68347817D-02  0.40413636D-02  0.29838100D-06  0.36141226D-05  0.75368716D-05
  0.21614436D-04  0.11224075D-05 -0.93211929D-04 -0.24084172D-03  0.19622650D-03
  0.12944181D-03 -0.35141009D-03 -0.17102118D-03  0.17588084D-08  0.23167622D-08
  0.25557513D-08  0.21227516D-08  0.11272400D-08  0.29083381D-09  0.41936866D+01
  0.55240663D+01  0.60939098D+01  0.50614692D+01  0.26877806D+01  0.69346145D+00
 -0.70513444D+01 -0.92882701D+01 -0.10246416D+02 -0.85104506D+01 -0.45192854D+01
 -0.11659993D+01 -0.70987839D-13  0.68626475D-12  0.96770494D-12  0.13840740D-11
 -0.70087562D-14 -0.12693264D-11 -0.18235275D-03  0.17628691D-02  0.24858294D-02
  0.35553936D-02 -0.18004013D-04 -0.32606313D-02  0.33116506D-03 -0.32014907D-02
 -0.45144361D-02 -0.64568379D-02  0.32696518D-04  0.59215293D-02  0.11637459D-10
  0.27086948D-01 -0.45619700D-01 -0.71560826D-13 -0.14302620D-03  0.13415027D-03
 -0.48127576D-14 -0.10715117D-04  0.13290430D-04  0.14477199D-04  0.47376569D-03
 -0.48824288D-03  0.15452323D-12  0.11518910D-12 -0.44207741D-03  0.25237349D-04
 -0.28472028D-03  0.25948294D-03 -0.10132670D-12 -0.58375500D-13  0.41146199D-03
 -0.26769273D-05  0.47478300D-04 -0.44801373D-04  0.75035785D-14 -0.11897078D-14
 -0.27210937D-04 -0.50594730D-15 -0.30582543D-04  0.11911984D-05 -0.83849487D-14
  0.59107623D-04  0.29601495D-04  0.99027906D-14  0.32640005D-04 -0.33175090D-04
  0.21189172D-13  0.69114122D-14 -0.46754112D-04 -0.11856344D-04 -0.13398660D-13
  0.18573031D-04 -0.41094214D-04 -0.73355771D-14  0.12168931D-03  0.76663247D-04
 -0.34229519D-13 -0.77067710D-03 -0.14418546D-02 -0.24912050D-02 -0.40385359D-02
 -0.61329044D-02 -0.85241600D-02 -0.10134573D-01 -0.90282299D-02 -0.44836099D-02
 -0.72182326D-03 -0.76156617D-05 -0.40204983D-05 -0.13411709D-03 -0.46737121D-03
 -0.16830794D-02 -0.37101391D-02 -0.52226784D-02  0.24913878D-03  0.68347817D-02
  0.40413636D-02  0.29838100D-06  0.36141226D-05  0.75368716D-05  0.21614436D-04
  0.11224075D-05 -0.93211929D-04 -0.24084172D-03  0.19622650D-03  0.12944181D-03
 -0.35141009D-03 -0.17102118D-03  0.99734180D-09  0.13137325D-08  0.14492525D-08
  0.12037177D-08  0.63920751D-09  0.16491888D-09 -0.41936866D+01 -0.55240663D+01
 -0.60939098D+01 -0.50614692D+01 -0.26877806D+01 -0.69346145D+00 -0.70513444D+01
 -0.92882701D+01 -0.10246416D+02 -0.85104506D+01 -0.45192854D+01 -0.11659993D+01
 -0.37295484D-13  0.36054875D-12  0.50841137D-12  0.72716275D-12 -0.36822498D-14
 -0.66687682D-12  0.18235275D-03 -0.17628691D-02 -0.24858294D-02 -0.35553936D-02
  0.18004013D-04  0.32606313D-02  0.33116506D-03 -0.32014907D-02 -0.45144361D-02
 -0.64568379D-02  0.32696518D-04  0.59215293D-02  0.66663919D-11 -0.27086948D-01
 -0.45619700D-01 -0.31535368D-13  0.14302620D-03  0.13415027D-03 -0.32167182D-14
  0.10715117D-04  0.13290430D-04  0.14477198D-04  0.47376569D-03 -0.48824288D-03
 -0.59568905D-13  0.66073644D-13  0.44207741D-03  0.25237349D-04 -0.28472028D-03
  0.25948294D-03  0.54675853D-13 -0.26838024D-13 -0.41146199D-03 -0.26769273D-05
  0.47478300D-04 -0.44801373D-04 -0.57591653D-14 -0.42674942D-14  0.27210937D-04
 -0.19663911D-14  0.30582543D-04  0.11911984D-05 -0.15320414D-13 -0.59107623D-04
  0.29601495D-04  0.21219587D-13 -0.32640005D-04 -0.33175090D-04 -0.22823762D-13
  0.45618801D-14  0.46754112D-04 -0.11856344D-04 -0.34263445D-14 -0.18573031D-04
 -0.41094214D-04 -0.10259296D-13 -0.12168931D-03  0.76663247D-04  0.18548521D-13
  0.50541169D-03  0.94491805D-03  0.16330993D-02  0.26414707D-02  0.39924946D-02
  0.54984917D-02  0.64270672D-02  0.55547061D-02  0.25924103D-02  0.35121471D-03
 -0.25688349D-05  0.63906930D-05  0.82151716D-04  0.29967765D-03  0.10111050D-02
  0.22208402D-02  0.28687198D-02 -0.46102768D-03 -0.38674742D-02 -0.21224200D-02
  0.22430835D-06  0.25550115D-05  0.53051249D-05  0.14587746D-04 -0.18914688D-05
 -0.65959145D-04 -0.16451258D-03  0.13618113D-03 -0.27673198D-04  0.11712298D-02
  0.26192860D-03 -0.17240922D-09 -0.22619110D-09 -0.24808268D-09 -0.20411496D-09
 -0.10759780D-09 -0.27994923D-10 -0.16902280D-08 -0.22174830D-08 -0.24320989D-08
 -0.20010577D-08 -0.10548439D-08 -0.27445053D-09 -0.56053835D+00 -0.73539444D+00
 -0.80656854D+00 -0.66362030D+00 -0.34982289D+00 -0.91017335D-01 -0.26124096D-14
 -0.93774091D-13 -0.14877495D-12 -0.17666568D-12 -0.26734175D-13  0.19456631D-12
 -0.14867673D-13 -0.53368452D-12 -0.84670387D-12 -0.10054349D-11 -0.15214880D-12
  0.11073104D-11 -0.43561436D-05 -0.15636652D-03 -0.24807941D-03 -0.29458669D-03
 -0.44578731D-04  0.32443565D-03 -0.11758349D-11 -0.11617350D-10 -0.38351056D-02
 -0.41491682D-13  0.70507784D-13 -0.12329563D-03 -0.17505565D-14  0.48779400D-14
 -0.34416120D-06  0.18600007D-04  0.42932063D-04 -0.61532070D-04 -0.46869282D-14
  0.14576779D-13 -0.10166318D-12 -0.91486017D-04  0.87751603D-04  0.37344147D-05
  0.86498357D-14  0.99771478D-14  0.14594402D-12  0.10000422D-04 -0.91835275D-05
 -0.81689422D-06 -0.10329812D-14  0.17947082D-13  0.59991726D-14 -0.33706501D-14
  0.12526357D-14  0.31980532D-04 -0.47396691D-14 -0.20625078D-13  0.44707760D-04
  0.14851619D-13  0.16867171D-13 -0.14064936D-03 -0.29180370D-14  0.33893073D-14
 -0.46557697D-14  0.95936945D-05 -0.56738036D-15 -0.14213659D-14 -0.19700587D-04
 -0.96005416D-14  0.15388675D-13 -0.90804966D-05  0.38858759D-14
MO    3     MO 0.0        OCC NO =    2.0000330  ORB. ENERGY =    0.000000
  0.85189667D-11  0.15881070D-10  0.26841172D-10  0.40347288D-10  0.49559417D-10
  0.41826399D-10  0.15727818D-10  0.16348925D-14  0.12219808D-13  0.45668214D-13
  0.12740721D-12  0.17069053D-12 -0.20155369D-12  0.64109549D-12  0.46130721D-12
  0.61605781D-13 -0.43263154D-11 -0.40561957D-11 -0.28882530D-11 -0.57667590D-12
 -0.54067031D-12 -0.38498947D-12 -0.55502949D-12 -0.52037543D-12 -0.37053831D-12
 -0.93292246D-12 -0.45495157D-12  0.53775329D-14  0.13192430D-12  0.28251988D-13
  0.14832056D-12  0.34884779D-13  0.19950266D-13  0.28904301D-14  0.37927863D-14
 -0.32801454D-13  0.29008668D-13  0.11761409D-02  0.13788480D-11 -0.50912670D-12
 -0.35237717D-13 -0.26382624D-14  0.37875980D-13 -0.10553840D-03 -0.10918079D-12
  0.18232906D-12 -0.38771523D-14 -0.11068873D-13  0.14946026D-13  0.11593331D-03
  0.19860064D-12 -0.94588434D-13  0.95321844D-13 -0.92484758D-13 -0.26972815D-14
 -0.21277732D-12  0.96268424D-13  0.37667328D-13 -0.73188209D-13  0.18118585D-12
 -0.29575484D-13 -0.46004537D-03 -0.38353050D-13  0.11432051D-12  0.40806869D-14
  0.15473138D-12 -0.10689759D-13 -0.11895107D-13 -0.39672225D-13 -0.33227178D-12
 -0.34695410D-15  0.34405769D-03  0.89791448D-10  0.16799022D-09  0.29024984D-09
  0.47052909D-09  0.71454357D-09  0.99314833D-09  0.11807773D-08  0.10518774D-08
  0.52238457D-09  0.84099496D-10  0.88729936D-12  0.20219684D-12  0.67449481D-11
  0.23504794D-10  0.84644568D-10  0.18658842D-09  0.26265627D-09 -0.12529560D-10
 -0.34373134D-09 -0.20324619D-09  0.44295590D-14  0.53652776D-13  0.11188721D-12
  0.32087304D-12  0.16662490D-13 -0.13837601D-11 -0.35753705D-11  0.29130436D-11
 -0.12788604D-10  0.43178889D-12  0.17403184D-12  0.82135938D+01  0.10819225D+02
  0.11935298D+02  0.99131997D+01  0.52641841D+01  0.13581870D+01  0.38767551D-08
  0.51065934D-08  0.56333719D-08  0.46789565D-08  0.24846557D-08  0.64105416D-09
 -0.20827791D-08 -0.27435074D-08 -0.30265181D-08 -0.25137602D-08 -0.13348764D-08
 -0.34440510D-09 -0.35878373D-03  0.34684902D-02  0.48909333D-02  0.69953284D-02
 -0.35423359D-04 -0.64153759D-02 -0.18329185D-12  0.17719477D-11  0.24986312D-11
  0.35737036D-11 -0.18096732D-13 -0.32774233D-11  0.10826478D-12 -0.10466343D-11
 -0.14758636D-11 -0.21108753D-11  0.10689175D-13  0.19358718D-11  0.53790305D-01
  0.25713250D-10 -0.12879482D-10 -0.35368119D-03 -0.22867398D-12  0.20124008D-12
 -0.14906633D-04 -0.35252304D-14  0.10688513D-13 -0.40546149D-13  0.36242157D-12
 -0.32187542D-12  0.98916506D-03  0.56392098D-03 -0.41379339D-12  0.21641689D-13
 -0.25386924D-12  0.23222755D-12 -0.47623894D-03 -0.32772890D-03 -0.84068315D-14
  0.39655731D-14 -0.42629766D-14  0.29740350D-15  0.38933768D-04  0.52110898D-04
 -0.14278779D-13  0.21282457D-04  0.20725252D-13  0.69256872D-14  0.43990007D-04
 -0.57061621D-13 -0.35943750D-13 -0.10783738D-03 -0.51141353D-14  0.15166689D-13
 -0.16633530D-04  0.17023373D-04 -0.39976734D-13  0.32687059D-13 -0.84922765D-04
  0.35815756D-13  0.18684332D-15  0.33852647D-04  0.84114447D-13 -0.98248020D-13
 -0.13677515D-03 -0.13235022D-10 -0.24761314D-10 -0.42782058D-10 -0.69354743D-10
 -0.10532183D-09 -0.14638744D-09 -0.17404345D-09 -0.15504395D-09 -0.76998104D-10
 -0.12396043D-10 -0.13078558D-12 -0.10448022D-12 -0.34852851D-11 -0.12145521D-10
 -0.43737987D-10 -0.96414950D-10 -0.13572113D-09  0.64743403D-11  0.17761467D-09
  0.10502244D-09 -0.23572138D-14 -0.28551615D-13 -0.59541383D-13 -0.17075432D-12
 -0.88670341D-14  0.73637544D-12  0.19026527D-11 -0.15501919D-11  0.64531138D-11
 -0.26292071D-12 -0.21586134D-12 -0.82135938D+01 -0.10819224D+02 -0.11935298D+02
 -0.99131997D+01 -0.52641841D+01 -0.13581870D+01  0.42541288D-08  0.56036828D-08
  0.61817393D-08  0.51344185D-08  0.27265187D-08  0.70345608D-09  0.28148532D-08
  0.37078202D-08  0.40903061D-08  0.33973195D-08  0.18040709D-08  0.46545972D-09
  0.35878373D-03 -0.34684902D-02 -0.48909333D-02 -0.69953284D-02  0.35423358D-04
  0.64153759D-02 -0.19858827D-12  0.19198236D-11  0.27071517D-11  0.38719431D-11
 -0.19606975D-13 -0.35509370D-11 -0.14110685D-12  0.13641302D-11  0.19235660D-11
  0.27512082D-11 -0.13931731D-13 -0.25231174D-11 -0.53790305D-01  0.28389107D-10
  0.17548959D-10  0.35368119D-03 -0.18700790D-12 -0.26534742D-12  0.14906633D-04
 -0.16755831D-14 -0.13509906D-13  0.82768360D-13 -0.45551719D-12  0.37274883D-12
  0.98916506D-03 -0.56392098D-03 -0.29255612D-12 -0.26735252D-13  0.29768025D-12
 -0.27094500D-12 -0.47623894D-03  0.32772890D-03  0.29138600D-13  0.47980953D-14
 -0.31498431D-14 -0.16482522D-14  0.38933768D-04 -0.52110898D-04  0.51857916D-14
 -0.21282457D-04  0.16295988D-13 -0.10380727D-13 -0.43990007D-04 -0.35209816D-13
  0.35745557D-13  0.10783738D-03 -0.13678147D-13 -0.46033770D-14 -0.16633530D-04
 -0.17023373D-04 -0.46571441D-13 -0.32549725D-13  0.84922765D-04  0.30046756D-13
  0.94431730D-14 -0.33852647D-04  0.10966757D-12  0.88206002D-13 -0.13677515D-03
 -0.93901196D-12 -0.17555774D-11 -0.30341596D-11 -0.49076281D-11 -0.74177157D-11
 -0.10215730D-10 -0.11940945D-10 -0.10320172D-10 -0.48164779D-11 -0.65252707D-12
  0.47726770D-14  0.35905324D-13  0.46155933D-12  0.16837021D-11  0.56807692D-11
  0.12477518D-10  0.16117550D-10 -0.25902274D-11 -0.21728929D-10 -0.11924556D-10
  0.50551769D-15  0.57581608D-14  0.11956018D-13  0.32876012D-13 -0.42627525D-14
 -0.14865035D-12 -0.37075759D-12  0.30690776D-12 -0.55994688D-12 -0.36097251D-12
 -0.52851778D-13 -0.29531262D-08 -0.38743337D-08 -0.42493055D-08 -0.34962006D-08
 -0.18429982D-08 -0.47951345D-09  0.27365856D-08  0.35902447D-08  0.39377214D-08
  0.32398385D-08  0.17078587D-08  0.44435270D-09 -0.70210384D-09 -0.92112031D-09
 -0.10102696D-08 -0.83121941D-09 -0.43817161D-09 -0.11400401D-09 -0.30375859D-13
 -0.10903606D-11 -0.17298845D-11 -0.20541848D-11 -0.31085230D-12  0.22623248D-11
  0.18656624D-13  0.66969130D-12  0.10624820D-11  0.12616648D-11  0.19092314D-12