 cl2cs-wavefunction
GAUSSIAN            196 MOL ORBITALS    414 PRIMITIVES        4 NUCLEI
  C    1    (CENTRE  1)   0.00000000  0.00000000 -0.98816425  CHARGE =  6.0
  Cl   2    (CENTRE  2)   0.00000000 -2.70369732 -2.83628995  CHARGE = 17.0
  Cl   3    (CENTRE  3)   0.00000000  2.70369732 -2.81739269  CHARGE = 17.0
  S    4    (CENTRE  4)   0.00000000  0.00000000  2.04433408  CHARGE = 16.0
CENTRE ASSIGNMENTS    1  1  1  1  1  1  1  1  1  1  1  1  1  1  1  1  1  1  1  1
CENTRE ASSIGNMENTS    1  1  1  1  1  1  1  1  1  1  1  1  1  1  1  1  1  1  1  1
CENTRE ASSIGNMENTS    1  1  1  1  1  1  1  1  1  1  1  1  1  1  1  1  1  1  1  1
CENTRE ASSIGNMENTS    1  1  1  1  1  1  1  1  1  1  1  1  2  2  2  2  2  2  2  2
CENTRE ASSIGNMENTS    2  2  2  2  2  2  2  2  2  2  2  2  2  2  2  2  2  2  2  2
CENTRE ASSIGNMENTS    2  2  2  2  2  2  2  2  2  2  2  2  2  2  2  2  2  2  2  2
CENTRE ASSIGNMENTS    2  2  2  2  2  2  2  2  2  2  2  2  2  2  2  2  2  2  2  2
CENTRE ASSIGNMENTS    2  2  2  2  2  2  2  2  2  2  2  2  2  2  2  2  2  2  2  2
CENTRE ASSIGNMENTS    2  2  2  2  2  2  2  2  2  2  2  2  2  2  2  2  2  2  2  2
CENTRE ASSIGNMENTS    2  2  2  2  2  2  3  3  3  3  3  3  3  3  3  3  3  3  3  3
CENTRE ASSIGNMENTS    3  3  3  3  3  3  3  3  3  3  3  3  3  3  3  3  3  3  3  3
CENTRE ASSIGNMENTS    3  3  3  3  3  3  3  3  3  3  3  3  3  3  3  3  3  3  3  3
CENTRE ASSIGNMENTS    3  3  3  3  3  3  3  3  3  3  3  3  3  3  3  3  3  3  3  3
CENTRE ASSIGNMENTS    3  3  3  3  3  3  3  3  3  3  3  3  3  3  3  3  3  3  3  3
CENTRE ASSIGNMENTS    3  3  3  3  3  3  3  3  3  3  3  3  3  3  3  3  3  3  3  3
CENTRE ASSIGNMENTS    4  4  4  4  4  4  4  4  4  4  4  4  4  4  4  4  4  4  4  4
CENTRE ASSIGNMENTS    4  4  4  4  4  4  4  4  4  4  4  4  4  4  4  4  4  4  4  4
CENTRE ASSIGNMENTS    4  4  4  4  4  4  4  4  4  4  4  4  4  4  4  4  4  4  4  4
CENTRE ASSIGNMENTS    4  4  4  4  4  4  4  4  4  4  4  4  4  4  4  4  4  4  4  4
CENTRE ASSIGNMENTS    4  4  4  4  4  4  4  4  4  4  4  4  4  4  4  4  4  4  4  4
CENTRE ASSIGNMENTS    4  4  4  4  4  4  4  4  4  4  4  4  4  4
TYPE ASSIGNMENTS      1  1  1  1  1  1  1  1  1  1  1  1  1  1  1  1  2  2  2  3
TYPE ASSIGNMENTS      3  3  4  4  4  2  3  4  2  3  4  2  3  4  5  6  7  8  9 10
TYPE ASSIGNMENTS      5  6  7  8  9 10  5  6  7  8  9 10 11 12 13 17 14 15 18 19
TYPE ASSIGNMENTS     16 20 11 12 13 17 14 15 18 19 16 20  1  1  1  1  1  1  1  1
TYPE ASSIGNMENTS      1  1  1  1  1  1  1  1  1  1  1  1  1  1  1  1  1  1  1  1
TYPE ASSIGNMENTS      1  1  1  2  2  2  2  2  2  3  3  3  3  3  3  4  4  4  4  4
TYPE ASSIGNMENTS      4  2  2  2  2  2  2  3  3  3  3  3  3  4  4  4  4  4  4  2
TYPE ASSIGNMENTS      3  4  2  3  4  2  3  4  5  6  7  8  9 10  5  6  7  8  9 10
TYPE ASSIGNMENTS      5  6  7  8  9 10 11 12 13 17 14 15 18 19 16 20 11 12 13 17
TYPE ASSIGNMENTS     14 15 18 19 16 20  1  1  1  1  1  1  1  1  1  1  1  1  1  1
TYPE ASSIGNMENTS      1  1  1  1  1  1  1  1  1  1  1  1  1  1  1  1  1  2  2  2
TYPE ASSIGNMENTS      2  2  2  3  3  3  3  3  3  4  4  4  4  4  4  2  2  2  2  2
TYPE ASSIGNMENTS      2  3  3  3  3  3  3  4  4  4  4  4  4  2  3  4  2  3  4  2
TYPE ASSIGNMENTS      3  4  5  6  7  8  9 10  5  6  7  8  9 10  5  6  7  8  9 10
TYPE ASSIGNMENTS     11 12 13 17 14 15 18 19 16 20 11 12 13 17 14 15 18 19 16 20
TYPE ASSIGNMENTS      1  1  1  1  1  1  1  1  1  1  1  1  1  1  1  1  1  1  1  1
TYPE ASSIGNMENTS      1  1  1  1  1  1  1  1  1  1  1  2  2  2  2  2  2  3  3  3
TYPE ASSIGNMENTS      3  3  3  4  4  4  4  4  4  2  2  2  2  2  2  3  3  3  3  3
TYPE ASSIGNMENTS      3  4  4  4  4  4  4  2  3  4  2  3  4  2  3  4  5  6  7  8
TYPE ASSIGNMENTS      9 10  5  6  7  8  9 10  5  6  7  8  9 10 11 12 13 17 14 15
TYPE ASSIGNMENTS     18 19 16 20 11 12 13 17 14 15 18 19 16 20
EXPONENTS  0.8236000D+04 0.1235000D+04 0.2808000D+03 0.7927000D+02 0.2559000D+02
EXPONENTS  0.8997000D+01 0.3319000D+01 0.2808000D+03 0.7927000D+02 0.2559000D+02
EXPONENTS  0.8997000D+01 0.3319000D+01 0.3643000D+00 0.9059000D+00 0.1285000D+00
EXPONENTS  0.4402000D-01 0.1871000D+02 0.4133000D+01 0.1200000D+01 0.1871000D+02
EXPONENTS  0.4133000D+01 0.1200000D+01 0.1871000D+02 0.4133000D+01 0.1200000D+01
EXPONENTS  0.3827000D+00 0.3827000D+00 0.3827000D+00 0.1209000D+00 0.1209000D+00
EXPONENTS  0.1209000D+00 0.3569000D-01 0.3569000D-01 0.3569000D-01 0.1097000D+01
EXPONENTS  0.1097000D+01 0.1097000D+01 0.1097000D+01 0.1097000D+01 0.1097000D+01
EXPONENTS  0.3180000D+00 0.3180000D+00 0.3180000D+00 0.3180000D+00 0.3180000D+00
EXPONENTS  0.3180000D+00 0.1000000D+00 0.1000000D+00 0.1000000D+00 0.1000000D+00
EXPONENTS  0.1000000D+00 0.1000000D+00 0.7610000D+00 0.7610000D+00 0.7610000D+00
EXPONENTS  0.7610000D+00 0.7610000D+00 0.7610000D+00 0.7610000D+00 0.7610000D+00
EXPONENTS  0.7610000D+00 0.7610000D+00 0.2680000D+00 0.2680000D+00 0.2680000D+00
EXPONENTS  0.2680000D+00 0.2680000D+00 0.2680000D+00 0.2680000D+00 0.2680000D+00
EXPONENTS  0.2680000D+00 0.2680000D+00 0.4561000D+06 0.6833000D+05 0.1555000D+05
EXPONENTS  0.4405000D+04 0.1439000D+04 0.5204000D+03 0.2031000D+03 0.8396000D+02
EXPONENTS  0.3620000D+02 0.1583000D+02 0.6334000D+01 0.4405000D+04 0.1439000D+04
EXPONENTS  0.5204000D+03 0.2031000D+03 0.8396000D+02 0.3620000D+02 0.1583000D+02
EXPONENTS  0.6334000D+01 0.2694000D+01 0.1439000D+04 0.2031000D+03 0.8396000D+02
EXPONENTS  0.3620000D+02 0.1583000D+02 0.6334000D+01 0.2694000D+01 0.4313000D+00
EXPONENTS  0.9768000D+00 0.1625000D+00 0.5910000D-01 0.6633000D+03 0.1568000D+03
EXPONENTS  0.4998000D+02 0.1842000D+02 0.7240000D+01 0.2922000D+01 0.6633000D+03
EXPONENTS  0.1568000D+03 0.4998000D+02 0.1842000D+02 0.7240000D+01 0.2922000D+01
EXPONENTS  0.6633000D+03 0.1568000D+03 0.4998000D+02 0.1842000D+02 0.7240000D+01
EXPONENTS  0.2922000D+01 0.1568000D+03 0.4998000D+02 0.1842000D+02 0.7240000D+01
EXPONENTS  0.2922000D+01 0.3818000D+00 0.1568000D+03 0.4998000D+02 0.1842000D+02
EXPONENTS  0.7240000D+01 0.2922000D+01 0.3818000D+00 0.1568000D+03 0.4998000D+02
EXPONENTS  0.1842000D+02 0.7240000D+01 0.2922000D+01 0.3818000D+00 0.1022000D+01
EXPONENTS  0.1022000D+01 0.1022000D+01 0.1301000D+00 0.1301000D+00 0.1301000D+00
EXPONENTS  0.4190000D-01 0.4190000D-01 0.4190000D-01 0.1046000D+01 0.1046000D+01
EXPONENTS  0.1046000D+01 0.1046000D+01 0.1046000D+01 0.1046000D+01 0.3440000D+00
EXPONENTS  0.3440000D+00 0.3440000D+00 0.3440000D+00 0.3440000D+00 0.3440000D+00
EXPONENTS  0.1350000D+00 0.1350000D+00 0.1350000D+00 0.1350000D+00 0.1350000D+00
EXPONENTS  0.1350000D+00 0.7060000D+00 0.7060000D+00 0.7060000D+00 0.7060000D+00
EXPONENTS  0.7060000D+00 0.7060000D+00 0.7060000D+00 0.7060000D+00 0.7060000D+00
EXPONENTS  0.7060000D+00 0.3120000D+00 0.3120000D+00 0.3120000D+00 0.3120000D+00
EXPONENTS  0.3120000D+00 0.3120000D+00 0.3120000D+00 0.3120000D+00 0.3120000D+00
EXPONENTS  0.3120000D+00 0.4561000D+06 0.6833000D+05 0.1555000D+05 0.4405000D+04
EXPONENTS  0.1439000D+04 0.5204000D+03 0.2031000D+03 0.8396000D+02 0.3620000D+02
EXPONENTS  0.1583000D+02 0.6334000D+01 0.4405000D+04 0.1439000D+04 0.5204000D+03
EXPONENTS  0.2031000D+03 0.8396000D+02 0.3620000D+02 0.1583000D+02 0.6334000D+01
EXPONENTS  0.2694000D+01 0.1439000D+04 0.2031000D+03 0.8396000D+02 0.3620000D+02
EXPONENTS  0.1583000D+02 0.6334000D+01 0.2694000D+01 0.4313000D+00 0.9768000D+00
EXPONENTS  0.1625000D+00 0.5910000D-01 0.6633000D+03 0.1568000D+03 0.4998000D+02
EXPONENTS  0.1842000D+02 0.7240000D+01 0.2922000D+01 0.6633000D+03 0.1568000D+03
EXPONENTS  0.4998000D+02 0.1842000D+02 0.7240000D+01 0.2922000D+01 0.6633000D+03
EXPONENTS  0.1568000D+03 0.4998000D+02 0.1842000D+02 0.7240000D+01 0.2922000D+01
EXPONENTS  0.1568000D+03 0.4998000D+02 0.1842000D+02 0.7240000D+01 0.2922000D+01
EXPONENTS  0.3818000D+00 0.1568000D+03 0.4998000D+02 0.1842000D+02 0.7240000D+01
EXPONENTS  0.2922000D+01 0.3818000D+00 0.1568000D+03 0.4998000D+02 0.1842000D+02
EXPONENTS  0.7240000D+01 0.2922000D+01 0.3818000D+00 0.1022000D+01 0.1022000D+01
EXPONENTS  0.1022000D+01 0.1301000D+00 0.1301000D+00 0.1301000D+00 0.4190000D-01
EXPONENTS  0.4190000D-01 0.4190000D-01 0.1046000D+01 0.1046000D+01 0.1046000D+01
EXPONENTS  0.1046000D+01 0.1046000D+01 0.1046000D+01 0.3440000D+00 0.3440000D+00
EXPONENTS  0.3440000D+00 0.3440000D+00 0.3440000D+00 0.3440000D+00 0.1350000D+00
EXPONENTS  0.1350000D+00 0.1350000D+00 0.1350000D+00 0.1350000D+00 0.1350000D+00
EXPONENTS  0.7060000D+00 0.7060000D+00 0.7060000D+00 0.7060000D+00 0.7060000D+00
EXPONENTS  0.7060000D+00 0.7060000D+00 0.7060000D+00 0.7060000D+00 0.7060000D+00
EXPONENTS  0.3120000D+00 0.3120000D+00 0.3120000D+00 0.3120000D+00 0.3120000D+00
EXPONENTS  0.3120000D+00 0.3120000D+00 0.3120000D+00 0.3120000D+00 0.3120000D+00
EXPONENTS  0.3741000D+06 0.5605000D+05 0.1276000D+05 0.3615000D+04 0.1183000D+04
EXPONENTS  0.4288000D+03 0.1678000D+03 0.6947000D+02 0.2984000D+02 0.1272000D+02
EXPONENTS  0.5244000D+01 0.3615000D+04 0.1183000D+04 0.4288000D+03 0.1678000D+03
EXPONENTS  0.6947000D+02 0.2984000D+02 0.1272000D+02 0.5244000D+01 0.2219000D+01
EXPONENTS  0.1183000D+04 0.1678000D+03 0.6947000D+02 0.2984000D+02 0.1272000D+02
EXPONENTS  0.5244000D+01 0.2219000D+01 0.3490000D+00 0.7767000D+00 0.1322000D+00
EXPONENTS  0.4970000D-01 0.5744000D+03 0.1358000D+03 0.4319000D+02 0.1587000D+02
EXPONENTS  0.6208000D+01 0.2483000D+01 0.5744000D+03 0.1358000D+03 0.4319000D+02
EXPONENTS  0.1587000D+02 0.6208000D+01 0.2483000D+01 0.5744000D+03 0.1358000D+03
EXPONENTS  0.4319000D+02 0.1587000D+02 0.6208000D+01 0.2483000D+01 0.1358000D+03
EXPONENTS  0.4319000D+02 0.1587000D+02 0.6208000D+01 0.2483000D+01 0.3229000D+00
EXPONENTS  0.1358000D+03 0.4319000D+02 0.1587000D+02 0.6208000D+01 0.2483000D+01
EXPONENTS  0.3229000D+00 0.1358000D+03 0.4319000D+02 0.1587000D+02 0.6208000D+01
EXPONENTS  0.2483000D+01 0.3229000D+00 0.8688000D+00 0.8688000D+00 0.8688000D+00
EXPONENTS  0.1098000D+00 0.1098000D+00 0.1098000D+00 0.3510000D-01 0.3510000D-01
EXPONENTS  0.3510000D-01 0.2690000D+00 0.2690000D+00 0.2690000D+00 0.2690000D+00
EXPONENTS  0.2690000D+00 0.2690000D+00 0.8190000D+00 0.8190000D+00 0.8190000D+00
EXPONENTS  0.8190000D+00 0.8190000D+00 0.8190000D+00 0.1010000D+00 0.1010000D+00
EXPONENTS  0.1010000D+00 0.1010000D+00 0.1010000D+00 0.1010000D+00 0.5570000D+00
EXPONENTS  0.5570000D+00 0.5570000D+00 0.5570000D+00 0.5570000D+00 0.5570000D+00
EXPONENTS  0.5570000D+00 0.5570000D+00 0.5570000D+00 0.5570000D+00 0.2180000D+00
EXPONENTS  0.2180000D+00 0.2180000D+00 0.2180000D+00 0.2180000D+00 0.2180000D+00
EXPONENTS  0.2180000D+00 0.2180000D+00 0.2180000D+00 0.2180000D+00
MO    1     MO 0.0        OCC NO =    2.0000386  ORB. ENERGY =    0.000000
  0.27600298D-05  0.51452515D-05  0.86961761D-05  0.13071975D-04  0.16056579D-04
  0.13551187D-04  0.50956000D-05 -0.22029441D-07 -0.16465642D-06 -0.61535863D-06
 -0.17167548D-05 -0.22999781D-05  0.27158453D-05  0.22608791D-05 -0.16679498D-04
 -0.29555272D-05 -0.26765730D-13 -0.25094573D-13 -0.17868831D-13  0.75600690D-03
  0.70880453D-03  0.50471105D-03  0.31742303D-04  0.29760427D-04  0.21191197D-04
  0.61171799D-14  0.20035107D-03  0.18862829D-04  0.27822441D-14  0.30631304D-03
 -0.14584771D-04 -0.17737245D-14 -0.10337231D-04 -0.15039499D-05 -0.16726848D-05
  0.28420385D-04 -0.26747700D-04 -0.23437380D-12 -0.66046512D-13  0.27850049D-03
  0.22075652D-05 -0.98258205D-05  0.76182553D-05  0.27544898D-13  0.22331801D-13
  0.27403902D-03  0.13935976D-06  0.45985962D-05 -0.47379560D-05 -0.20929204D-13
 -0.59638044D-14  0.18789083D-03  0.19891384D-14  0.24934293D-03  0.14949441D-05
  0.64781850D-14  0.24454992D-04 -0.71166510D-05 -0.12445600D-13 -0.77248377D-03
  0.26318186D-05  0.90442335D-13 -0.16833063D-14 -0.30501187D-03 -0.57596987D-06
 -0.61143855D-14 -0.20320244D-04  0.31243953D-05  0.11164304D-13  0.93535587D-03
 -0.13964856D-05 -0.70797988D-13 -0.14811786D-02 -0.27711271D-02 -0.47878930D-02
 -0.77617372D-02 -0.11786943D-01 -0.16382741D-01 -0.19477824D-01 -0.17351523D-01
 -0.86171330D-02 -0.13872855D-02 -0.14636682D-04 -0.72736820D-05 -0.24263785D-03
 -0.84554434D-03 -0.30449421D-02 -0.67121959D-02 -0.94486054D-02  0.45072927D-03
  0.12365141D-01  0.73114305D-02  0.22545954D-06  0.27308656D-05  0.56949323D-05
  0.16332074D-04  0.84810188D-06 -0.70431826D-04 -0.18198231D-03  0.14827062D-03
  0.40531917D-03 -0.22209681D-03 -0.11078935D-03 -0.18442505D-08 -0.24293093D-08
 -0.26799085D-08 -0.22258738D-08 -0.11820008D-08 -0.30496237D-09 -0.47209471D+01
 -0.62185918D+01 -0.68600801D+01 -0.56978337D+01 -0.30257078D+01 -0.78064843D+00
  0.63721202D+01  0.83935729D+01  0.92594248D+01  0.76906773D+01  0.40839631D+01
  0.10536838D+01  0.80918456D-13 -0.78226757D-12 -0.11030789D-11 -0.15776947D-11
  0.79892238D-14  0.14468948D-11  0.24644725D-03 -0.23824934D-02 -0.33595644D-02
 -0.48050659D-02  0.24332177D-04  0.44066986D-02 -0.31918126D-03  0.30856390D-02
  0.43510731D-02  0.62231856D-02 -0.31513336D-04 -0.57072481D-02 -0.12074068D-10
 -0.30372242D-01  0.41147382D-01  0.80510218D-13  0.34201641D-03 -0.50349593D-03
  0.41652332D-14  0.92927001D-05 -0.18965984D-04  0.76956264D-05 -0.79989414D-03
  0.79219851D-03 -0.22054042D-12 -0.14156648D-12  0.72274557D-03  0.41829366D-04
  0.47346863D-03 -0.51529799D-03  0.10700818D-12  0.75080913D-13 -0.33658392D-03
 -0.24569050D-05  0.57816420D-06  0.18787408D-05 -0.96247987D-14 -0.10056380D-13
  0.23524851D-05 -0.42117384D-14 -0.22671644D-04 -0.10083173D-04 -0.41608145D-14
  0.50348420D-04  0.38114989D-04  0.16796030D-13  0.17666513D-04 -0.78654708D-05
 -0.31124943D-14 -0.43210819D-14  0.83715304D-04 -0.41121695D-04  0.17002393D-13
 -0.90347351D-05  0.42469577D-04 -0.40391470D-14 -0.24211118D-03  0.80895508D-04
  0.34589248D-13  0.14407559D-02  0.26955005D-02  0.46572270D-02  0.75499121D-02
  0.11465266D-01  0.15935641D-01  0.18946256D-01  0.16877983D-01  0.83819634D-02
  0.13494252D-02  0.14237233D-04  0.70602349D-05  0.23551762D-03  0.82073175D-03
  0.29555879D-02  0.65152257D-02  0.91713351D-02 -0.43750257D-03 -0.12002285D-01
 -0.70968758D-02 -0.20717684D-06 -0.25094175D-05 -0.52331257D-05 -0.15007693D-04
 -0.77932862D-06  0.64720452D-04  0.16722522D-03 -0.13624724D-03 -0.40256072D-03
  0.20668766D-03  0.10182744D-03  0.13010730D-08  0.17138175D-08  0.18906089D-08
  0.15702987D-08  0.83387221D-09  0.21514339D-09 -0.49361951D+01 -0.65021237D+01
 -0.71728603D+01 -0.59576221D+01 -0.31636627D+01 -0.81624150D+00 -0.68444667D+01
 -0.90157638D+01 -0.99457988D+01 -0.82607646D+01 -0.43866952D+01 -0.11317903D+01
 -0.56731230D-13  0.54844103D-12  0.77335910D-12  0.11061081D-11 -0.56011757D-14
 -0.10144054D-11  0.25573882D-03 -0.24723184D-02 -0.34862270D-02 -0.49862269D-02
  0.25249551D-04  0.45728403D-02  0.34259028D-03 -0.33119424D-02 -0.46701845D-02
 -0.66795993D-02  0.33824550D-04  0.61258225D-02  0.85301149D-11 -0.31764189D-01
 -0.44209512D-01 -0.60963073D-13  0.34662220D-03  0.51697899D-03 -0.16701786D-14
  0.97843652D-05  0.19904388D-04 -0.70053773D-05  0.82724074D-03 -0.82023537D-03
 -0.16581309D-12  0.79533939D-13  0.77223433D-03 -0.41575635D-04 -0.49237464D-03
  0.53395028D-03  0.83158646D-13 -0.54778629D-13 -0.38009366D-03  0.21294238D-05
  0.22592334D-05 -0.43886572D-05 -0.33429419D-14  0.84789489D-14  0.38517620D-05
  0.30228453D-14 -0.20562977D-04  0.99511370D-05  0.15544893D-13  0.47659255D-04
 -0.36197590D-04 -0.24613429D-13  0.14029677D-04  0.63441785D-05  0.73125680D-14
  0.34327867D-14  0.87451942D-04  0.39114171D-04 -0.18962345D-13 -0.98395354D-05
 -0.45416455D-04  0.86639854D-14 -0.25251629D-03 -0.71926058D-04  0.22999308D-13
 -0.58789103D-05 -0.10991215D-04 -0.18996086D-04 -0.30725387D-04 -0.46440394D-04
 -0.63958037D-04 -0.74759157D-04 -0.64611919D-04 -0.30154719D-04 -0.40853028D-05
  0.29880493D-07 -0.52503591D-07 -0.67492838D-06 -0.24620417D-05 -0.83068677D-05
 -0.18245609D-04 -0.23568350D-04  0.37876344D-05  0.31773750D-04  0.17437024D-04
 -0.79213879D-08 -0.90229532D-07 -0.18734904D-06 -0.51516226D-06  0.66796704D-07
  0.23293292D-05  0.58097168D-05 -0.48091995D-05  0.16119961D-05  0.33099902D-04
  0.85646115D-05  0.42172676D-09  0.55328152D-09  0.60683009D-09  0.49928152D-09
  0.26319283D-09  0.68477823D-10  0.84509787D+00  0.11087203D+01  0.12160263D+01
  0.10005098D+01  0.52741187D+00  0.13722265D+00 -0.20788441D-01 -0.27273252D-01
 -0.29912855D-01 -0.24611396D-01 -0.12973729D-01 -0.33755202D-02  0.27543286D-14
  0.98868363D-13  0.15685714D-12  0.18626304D-12  0.28186507D-13 -0.20513612D-12
  0.22933451D-04  0.82321071D-03  0.13060444D-02  0.15508877D-02  0.23469019D-03
 -0.17080312D-02 -0.23716227D-06 -0.85130894D-05 -0.13506230D-04 -0.16038234D-04
 -0.24270075D-05  0.17663306D-04  0.31940439D-11  0.59454938D-02 -0.13787383D-03
  0.50823357D-14 -0.52449771D-03 -0.33232398D-05 -0.86052916D-16 -0.68365954D-05
 -0.91641171D-08 -0.23517067D-06  0.31992599D-05 -0.29640893D-05  0.18499021D-13
  0.28114427D-13  0.69549176D-03 -0.26584528D-05  0.42830727D-05 -0.16246198D-05
 -0.39419521D-13 -0.18915226D-13 -0.10689666D-03  0.29704864D-06 -0.25310958D-06
 -0.43939064D-07  0.56997495D-14 -0.29172816D-14  0.76910953D-04  0.52715696D-14
  0.63344707D-04  0.14000361D-05 -0.18996756D-14  0.21773701D-04  0.37708865D-05
 -0.13915033D-13 -0.21180782D-03 -0.79709948D-05  0.15426622D-13  0.21380074D-16
  0.27380749D-04  0.47744374D-06  0.17627587D-14  0.23103450D-05 -0.57482417D-06
 -0.18268989D-14 -0.84452593D-04 -0.85750705D-06 -0.18182966D-13
MO    2     MO 0.0        OCC NO =    2.0000376  ORB. ENERGY =    0.000000
 -0.60136423D-03 -0.11210641D-02 -0.18947510D-02 -0.28481642D-02 -0.34984596D-02
 -0.29525765D-02 -0.11102459D-02 -0.10839161D-05 -0.81016014D-05 -0.30277534D-04
 -0.84469606D-04 -0.11316598D-03  0.13362793D-03  0.15134438D-04 -0.44322126D-03
 -0.65079358D-04  0.51706374D-12  0.48478013D-12  0.34519233D-12 -0.71238946D-05
 -0.66791040D-05 -0.47559199D-05  0.81839332D-03  0.76729576D-03  0.54636029D-03
  0.10468719D-12 -0.79934325D-05  0.57496598D-03 -0.29820741D-13 -0.79293251D-05
 -0.49944779D-03 -0.17755166D-14  0.38713923D-06 -0.45986616D-04 -0.62620132D-04
  0.71815267D-03 -0.65553254D-03  0.79806789D-13 -0.11368920D-12 -0.16686284D-05
  0.62287063D-04 -0.11445528D-03  0.52168217D-04 -0.13155747D-13 -0.39759748D-14
 -0.11633066D-04  0.47637002D-05  0.16342591D-03 -0.16818961D-03  0.56130795D-14
 -0.18336156D-13 -0.41389249D-05 -0.14523991D-13 -0.64451889D-05  0.98959409D-04
  0.21907233D-13 -0.14486323D-05 -0.18907182D-03  0.21664739D-13  0.20784199D-04
 -0.10780641D-03 -0.28183843D-13  0.72295316D-14  0.90506037D-05 -0.73101187D-04
 -0.14369418D-13  0.53373266D-06  0.97664788D-04 -0.73191763D-14 -0.27685544D-04
  0.12163877D-03  0.23722311D-13 -0.68365833D-03 -0.12790518D-02 -0.22099178D-02
 -0.35825364D-02 -0.54404253D-02 -0.75616793D-02 -0.89902573D-02 -0.80088336D-02
 -0.39773561D-02 -0.64032068D-03 -0.67557614D-05 -0.35962401D-05 -0.11996455D-03
 -0.41805244D-03 -0.15054745D-02 -0.33186312D-02 -0.46715617D-02  0.22284872D-03
  0.61135497D-02  0.36149037D-02  0.28765306D-06  0.34841810D-05  0.72658921D-05
  0.20837314D-04  0.10820527D-05 -0.89860602D-04 -0.23218254D-03  0.18917140D-03
  0.10500301D-03 -0.34519460D-03 -0.16659598D-03 -0.58791275D-09 -0.77441863D-09
 -0.85430497D-09 -0.70956717D-09 -0.37679986D-09 -0.97216333D-10  0.43330048D+01
  0.57075810D+01  0.62963553D+01  0.52296160D+01  0.27770712D+01  0.71649889D+00
 -0.72593305D+01 -0.95622365D+01 -0.10548644D+02 -0.87614745D+01 -0.46525861D+01
 -0.12003915D+01  0.20197786D-13 -0.19525920D-12 -0.27533585D-12 -0.39380311D-12
  0.19941635D-14  0.36115459D-12 -0.18974963D-03  0.18343773D-02  0.25866635D-02
  0.36996130D-02 -0.18734320D-04 -0.33928941D-02  0.34146670D-03 -0.33010804D-02
 -0.46548679D-02 -0.66576925D-02  0.33713618D-04  0.61057319D-02 -0.39583041D-11
  0.27984964D-01 -0.46966308D-01  0.20535158D-13 -0.15122125D-03  0.15188168D-03
  0.12292344D-14 -0.10960792D-04  0.14016547D-04  0.15174732D-04  0.49912476D-03
 -0.51429949D-03 -0.22051906D-13 -0.29733857D-13 -0.47186083D-03  0.22889390D-04
 -0.29873818D-03  0.27584879D-03  0.31964667D-13  0.12206292D-13  0.42269546D-03
 -0.29981732D-05  0.47708547D-04 -0.44710374D-04 -0.19686601D-14  0.46400756D-14
 -0.26919427D-04  0.25629667D-14 -0.29093688D-04  0.13091344D-05  0.83878770D-14
  0.56893818D-04  0.29805342D-04 -0.16076777D-13  0.30387247D-04 -0.33732745D-04
 -0.11179672D-13 -0.33452842D-14 -0.49506956D-04 -0.10296245D-04  0.21963796D-14
  0.18411675D-04 -0.43382921D-04  0.78394730D-14  0.13010919D-03  0.74271657D-04
  0.90029813D-14 -0.81703647D-03 -0.15285881D-02 -0.26410611D-02 -0.42814704D-02
 -0.65018236D-02 -0.90369231D-02 -0.10744209D-01 -0.95713148D-02 -0.47533173D-02
 -0.76524388D-03 -0.80737749D-05 -0.42376217D-05 -0.14135997D-03 -0.49261118D-03
 -0.17739726D-02 -0.39105019D-02 -0.55047246D-02  0.26259330D-03  0.72038881D-02
  0.42596139D-02  0.29368033D-06  0.35571860D-05  0.74181364D-05  0.21273924D-04
  0.11047252D-05 -0.91743477D-04 -0.23704752D-03  0.19313517D-03  0.14252736D-03
 -0.35863590D-03 -0.17327186D-03 -0.15541322D-08 -0.20471556D-08 -0.22583331D-08
 -0.18757225D-08 -0.99606068D-09 -0.25698886D-09 -0.39797963D+01 -0.52423228D+01
 -0.57831026D+01 -0.48033196D+01 -0.25506960D+01 -0.65809289D+00 -0.68761716D+01
 -0.90575266D+01 -0.99918697D+01 -0.82990301D+01 -0.44070153D+01 -0.11370330D+01
  0.62606195D-13 -0.60523641D-12 -0.85344652D-12 -0.12206543D-11  0.61812215D-14
  0.11194551D-11  0.17203477D-03 -0.16631214D-02 -0.23451748D-02 -0.33542204D-02
  0.16985300D-04  0.30761365D-02  0.32251224D-03 -0.31178408D-02 -0.43964810D-02
 -0.62881309D-02  0.31842210D-04  0.57668091D-02 -0.10285522D-10 -0.25709030D-01
 -0.44496399D-01  0.68137944D-13  0.12673689D-03  0.12111399D-03  0.31194547D-14
  0.10268964D-04  0.12848211D-04  0.16557809D-04  0.44806788D-03 -0.46462569D-03
  0.14124942D-12 -0.99726992D-13  0.43762184D-03  0.25087717D-04 -0.26786029D-03
  0.24277258D-03 -0.93182323D-13  0.54462787D-13 -0.40959320D-03 -0.32235674D-05
  0.47551990D-04 -0.44328423D-04  0.42876035D-14 -0.64932094D-16  0.27277440D-04
  0.14821258D-14  0.30623664D-04  0.45764888D-06 -0.70157645D-15 -0.60424668D-04
  0.31993991D-04 -0.37448009D-14 -0.31446324D-04 -0.33366937D-04  0.17012559D-13
 -0.65004151D-14  0.44089745D-04 -0.13412904D-04  0.15559917D-13 -0.17518959D-04
 -0.41212076D-04  0.39413286D-14 -0.11475028D-03  0.81450789D-04 -0.30899332D-13
  0.48984487D-03  0.91581432D-03  0.15827993D-02  0.25601127D-02  0.38695247D-02
  0.53291366D-02  0.62291118D-02  0.53836196D-02  0.25125633D-02  0.34039720D-03
 -0.24897141D-05  0.61951137D-05  0.79637563D-04  0.29050638D-03  0.98016133D-03
  0.21528741D-02  0.27809261D-02 -0.44691849D-03 -0.37491149D-02 -0.20574659D-02
  0.22145203D-06  0.25224763D-05  0.52375702D-05  0.14401988D-04 -0.18673831D-05
 -0.65119230D-04 -0.16241770D-03  0.13444702D-03 -0.22030514D-04  0.11662551D-02
  0.25837103D-03 -0.13408528D-10 -0.17591226D-10 -0.19293767D-10 -0.15874331D-10
 -0.83680445D-11 -0.21772078D-11 -0.11281891D-01 -0.14801199D-01 -0.16233712D-01
 -0.13356609D-01 -0.70408449D-02 -0.18318954D-02 -0.57549198D+00 -0.75501275D+00
 -0.82808558D+00 -0.68132387D+00 -0.35915521D+00 -0.93445429D-01  0.11583327D-14
  0.41579085D-13  0.65966261D-13  0.78332911D-13  0.11853834D-13 -0.86269983D-13
 -0.55249224D-06 -0.19832058D-04 -0.31464057D-04 -0.37362602D-04 -0.56539465D-05
  0.41148363D-04 -0.46578568D-05 -0.16719671D-03 -0.26526177D-03 -0.31499021D-03
 -0.47666322D-04  0.34690656D-03 -0.21805053D-12 -0.86879094D-04 -0.39452301D-02
  0.22965387D-13  0.12953551D-04 -0.11463307D-03  0.53071358D-15  0.11626587D-06
 -0.35860075D-07  0.19882592D-04  0.47031349D-04 -0.66913941D-04 -0.59033891D-14
 -0.18619829D-13 -0.21700607D-04 -0.92001993D-04  0.92943812D-04 -0.94181871D-06
  0.12700934D-13 -0.53191490D-14 -0.37274518D-05  0.10440657D-04 -0.88632299D-05
 -0.15774270D-05 -0.15890041D-14 -0.10965250D-13 -0.21359780D-05  0.57299589D-15
 -0.27196981D-05  0.33226680D-04  0.31171711D-14 -0.11267580D-05  0.46231751D-04
 -0.48361587D-14  0.92858525D-05 -0.14591179D-03 -0.46075795D-14 -0.23006688D-14
 -0.74012889D-06  0.99671799D-05  0.63273970D-15 -0.16994336D-06 -0.19867987D-04
  0.62692667D-14  0.23903300D-05 -0.10033553D-04  0.54206609D-14
MO    3     MO 0.0        OCC NO =    2.0000330  ORB. ENERGY =    0.000000
  0.44305009D-10  0.82593462D-10  0.13959420D-09  0.20983612D-09  0.25774610D-09
  0.21752861D-09  0.81796439D-10  0.78375650D-14  0.58580942D-13  0.21893036D-12
  0.61078161D-12  0.81827896D-12 -0.96623488D-12  0.32855031D-11  0.93815400D-12
  0.92038001D-13  0.18321961D-04  0.17178003D-04  0.12231761D-04  0.12008348D-11
  0.11258589D-11  0.80167864D-12 -0.29744410D-12 -0.27887275D-12 -0.19857401D-12
  0.10566576D-05  0.41414461D-12  0.20311172D-12  0.10585960D-05 -0.19800286D-12
  0.12199492D-12  0.47678404D-07 -0.11118122D-13  0.63385775D-14 -0.70025150D-13
 -0.11128269D-13  0.81153419D-13  0.11826863D-02 -0.12917800D-05  0.53879238D-12
 -0.10460361D-12  0.14077256D-13  0.90526353D-13 -0.10754026D-03  0.30935592D-05
 -0.46858052D-13 -0.16652890D-13 -0.75711197D-15  0.17410002D-13  0.11759047D-03
  0.80689684D-06  0.12945562D-12 -0.23612242D-06  0.21898690D-13  0.34792179D-13
  0.12597502D-05 -0.12579366D-12 -0.34501684D-13 -0.55138292D-06  0.60097588D-13
 -0.69874852D-13 -0.46559900D-03  0.11640420D-07 -0.37149439D-13 -0.99568486D-14
 -0.93076110D-06  0.40370747D-13  0.92979156D-14  0.89583984D-06  0.71077569D-13
  0.20572630D-13  0.35050774D-03  0.39661180D-10  0.74201835D-10  0.12820431D-09
  0.20783425D-09  0.31561626D-09  0.43867690D-09  0.52155323D-09  0.46461774D-09
  0.23073899D-09  0.37147026D-10  0.39192306D-12  0.13397614D-12  0.44692199D-11
  0.15574336D-10  0.56085707D-10  0.12363396D-09  0.17403672D-09 -0.83021186D-11
 -0.22775727D-09 -0.13467145D-09  0.36993510D-14  0.44808174D-13  0.93442723D-13
  0.26797746D-12  0.13915696D-13 -0.11556488D-11 -0.29859745D-11  0.24328315D-11
 -0.84705230D-11 -0.30948408D-12 -0.11199312D-12  0.82307718D+01  0.10841852D+02
  0.11960260D+02  0.99339322D+01  0.52751937D+01  0.13610275D+01  0.21875862D-09
  0.28815628D-09  0.31788148D-09  0.26402546D-09  0.14020484D-09  0.36173583D-10
  0.28478958D-08  0.37513449D-08  0.41383207D-08  0.34371993D-08  0.18252482D-08
  0.47092358D-09 -0.35986463D-03  0.34789397D-02  0.49056681D-02  0.70164032D-02
 -0.35530078D-04 -0.64347035D-02  0.15664876D-13 -0.15143795D-12 -0.21354331D-12
 -0.30542343D-12  0.15466212D-14  0.28010209D-12 -0.11454945D-12  0.11073904D-11
  0.15615360D-11  0.22334096D-11 -0.11309672D-13 -0.20482473D-11  0.53902780D-01
  0.27415292D-11  0.19327177D-10 -0.35365120D-03 -0.38835777D-13 -0.16003393D-12
 -0.14903378D-04 -0.25176021D-15 -0.58432261D-14  0.38777772D-13 -0.18610378D-12
  0.14732601D-12  0.99376957D-03  0.56416166D-03 -0.37762845D-13  0.71937999D-13
  0.54961504D-13 -0.12689950D-12 -0.48015989D-03 -0.32884649D-03 -0.15105182D-12
 -0.25018939D-14 -0.16040290D-14  0.41059228D-14  0.39286102D-04  0.52502495D-04
 -0.49354761D-14  0.21182848D-04 -0.17016957D-13 -0.19246347D-13  0.44477919D-04
  0.70642315D-13  0.52805728D-13 -0.10802646D-03 -0.19591445D-13  0.49333137D-14
 -0.17675096D-04  0.17234981D-04  0.17002146D-13 -0.11891420D-13 -0.85993337D-04
 -0.79363169D-14  0.10541293D-13  0.34288394D-04 -0.43070120D-13  0.25132966D-13
 -0.13705049D-03 -0.32984459D-10 -0.61710403D-10 -0.10662189D-09 -0.17284661D-09
 -0.26248416D-09 -0.36482829D-09 -0.43375288D-09 -0.38640214D-09 -0.19189547D-09
 -0.30893548D-10 -0.32594518D-12  0.31721577D-14  0.10581787D-12  0.36875409D-12
  0.13279432D-11  0.29272855D-11  0.41206732D-11 -0.19656954D-12 -0.53926165D-11
 -0.31886204D-11  0.54834700D-15  0.66418212D-14  0.13850818D-13  0.39721734D-13
  0.20626944D-14 -0.17129938D-12 -0.44260471D-12  0.36061348D-12  0.63342391D-13
  0.18159253D-12  0.12331742D-12 -0.81963727D+01 -0.10796540D+02 -0.11910274D+02
 -0.98924150D+01 -0.52531469D+01 -0.13553394D+01 -0.21870376D-08 -0.28808402D-08
 -0.31780177D-08 -0.26395925D-08 -0.14016969D-08 -0.36164512D-09 -0.31761936D-09
 -0.41837900D-09 -0.46153753D-09 -0.38334306D-09 -0.20356580D-09 -0.52521041D-10
  0.35870729D-03 -0.34677513D-02 -0.48898913D-02 -0.69938380D-02  0.35415811D-04
  0.64140091D-02  0.91534851D-13 -0.88490004D-12 -0.12478014D-11 -0.17846861D-11
  0.90373994D-14  0.16367255D-11  0.22003758D-13 -0.21271818D-12 -0.29995484D-12
 -0.42901476D-12  0.21724704D-14  0.39344700D-12 -0.53693990D-01 -0.15274932D-10
 -0.14047352D-11  0.35113377D-03  0.79865502D-13  0.57858728D-13  0.14759132D-04
 -0.17634999D-14  0.42174699D-14 -0.13035009D-12  0.20172085D-12 -0.71370759D-13
  0.99530461D-03 -0.55527564D-03 -0.11353755D-12  0.50022051D-13 -0.16023635D-12
  0.11021430D-12 -0.48442715D-03  0.32788335D-03  0.12229211D-12  0.96416501D-14
 -0.81499300D-14 -0.14917201D-14  0.39295165D-04 -0.52308673D-04  0.18172099D-14
 -0.21495878D-04 -0.57165909D-15  0.15492768D-13 -0.43594058D-04  0.26660606D-13
 -0.33004357D-13  0.10808169D-03 -0.24945628D-13 -0.13473948D-13 -0.21389919D-04
 -0.17281557D-04  0.22366924D-13  0.14532877D-13  0.86989340D-04 -0.42070567D-13
  0.15781440D-13 -0.35144668D-04 -0.25030205D-13 -0.59380070D-13 -0.13629474D-03
 -0.61009139D-11 -0.11406273D-10 -0.19713430D-10 -0.31885661D-10 -0.48194109D-10
 -0.66373266D-10 -0.77582266D-10 -0.67051840D-10 -0.31293443D-10 -0.42395749D-11
  0.31008861D-13  0.19423308D-12  0.24968467D-11  0.91081378D-11  0.30730631D-10
  0.67498255D-10  0.87189335D-10 -0.14012068D-10 -0.11754459D-09 -0.64506958D-10
  0.18448966D-14  0.21014519D-13  0.43633718D-13  0.11998164D-12 -0.15556998D-13
 -0.54250234D-12 -0.13530870D-11  0.11200658D-11 -0.34646499D-11 -0.52183277D-12
 -0.10655930D-12  0.56881399D-03  0.74625161D-03  0.81847651D-03  0.67341782D-03
  0.35498758D-03  0.92361092D-04 -0.34024128D-08 -0.44637721D-08 -0.48957919D-08
 -0.40281101D-08 -0.21233906D-08 -0.55246630D-09 -0.11820777D-08 -0.15508188D-08
 -0.17009126D-08 -0.13994596D-08 -0.73771554D-09 -0.19193971D-09  0.34772341D-07
  0.12481751D-05  0.19802611D-05  0.23514993D-05  0.35584383D-06 -0.25897647D-05
 -0.27762034D-13 -0.99653574D-12 -0.15810289D-11 -0.18774234D-11 -0.28410364D-12