 cl2cs-wavefunction
GAUSSIAN            196 MOL ORBITALS    414 PRIMITIVES        4 NUCLEI
  C    1    (CENTRE  1)   0.00000000  0.00000000 -0.98816425  CHARGE =  6.0
  Cl   2    (CENTRE  2)   0.00000000 -2.70369732 -2.83628995  CHARGE = 17.0
  Cl   3    (CENTRE  3)   0.00000000  2.70369732 -2.83628995  CHARGE = 17.0
  S    4    (CENTRE  4)   0.00000000 -0.01889726  2.04433408  CHARGE = 16.0
CENTRE ASSIGNMENTS    1  1  1  1  1  1  1  1  1  1  1  1  1  1  1  1  1  1  1  1
CENTRE ASSIGNMENTS    1  1  1  1  1  1  1  1  1  1  1  1  1  1  1  1  1  1  1  1
CENTRE ASSIGNMENTS    1  1  1  1  1  1  1  1  1  1  1  1  1  1  1  1  1  1  1  1
CENTRE ASSIGNMENTS    1  1  1  1  1  1  1  1  1  1  1  1  2  2  2  2  2  2  2  2
CENTRE ASSIGNMENTS    2  2  2  2  2  2  2  2  2  2  2  2  2  2  2  2  2  2  2  2
CENTRE ASSIGNMENTS    2  2  2  2  2  2  2  2  2  2  2  2  2  2  2  2  2  2  2  2
CENTRE ASSIGNMENTS    2  2  2  2  2  2  2  2  2  2  2  2  2  2  2  2  2  2  2  2
CENTRE ASSIGNMENTS    2  2  2  2  2  2  2  2  2  2  2  2  2  2  2  2  2  2  2  2
CENTRE ASSIGNMENTS    2  2  2  2  2  2  2  2  2  2  2  2  2  2  2  2  2  2  2  2
CENTRE ASSIGNMENTS    2  2  2  2  2  2  3  3  3  3  3  3  3  3  3  3  3  3  3  3
CENTRE ASSIGNMENTS    3  3  3  3  3  3  3  3  3  3  3  3  3  3  3  3  3  3  3  3
CENTRE ASSIGNMENTS    3  3  3  3  3  3  3  3  3  3  3  3  3  3  3  3  3  3  3  3
CENTRE ASSIGNMENTS    3  3  3  3  3  3  3  3  3  3  3  3  3  3  3  3  3  3  3  3
CENTRE ASSIGNMENTS    3  3  3  3  3  3  3  3  3  3  3  3  3  3  3  3  3  3  3  3
CENTRE ASSIGNMENTS    3  3  3  3  3  3  3  3  3  3  3  3  3  3  3  3  3  3  3  3
CENTRE ASSIGNMENTS    4  4  4  4  4  4  4  4  4  4  4  4  4  4  4  4  4  4  4  4
CENTRE ASSIGNMENTS    4  4  4  4  4  4  4  4  4  4  4  4  4  4  4  4  4  4  4  4
CENTRE ASSIGNMENTS    4  4  4  4  4  4  4  4  4  4  4  4  4  4  4  4  4  4  4  4
CENTRE ASSIGNMENTS    4  4  4  4  4  4  4  4  4  4  4  4  4  4  4  4  4  4  4  4
CENTRE ASSIGNMENTS    4  4  4  4  4  4  4  4  4  4  4  4  4  4  4  4  4  4  4  4
CENTRE ASSIGNMENTS    4  4  4  4  4  4  4  4  4  4  4  4  4  4
TYPE ASSIGNMENTS      1  1  1  1  1  1  1  1  1  1  1  1  1  1  1  1  2  2  2  3
TYPE ASSIGNMENTS      3  3  4  4  4  2  3  4  2  3  4  2  3  4  5  6  7  8  9 10
TYPE ASSIGNMENTS      5  6  7  8  9 10  5  6  7  8  9 10 11 12 13 17 14 15 18 19
TYPE ASSIGNMENTS     16 20 11 12 13 17 14 15 18 19 16 20  1  1  1  1  1  1  1  1
TYPE ASSIGNMENTS      1  1  1  1  1  1  1  1  1  1  1  1  1  1  1  1  1  1  1  1
TYPE ASSIGNMENTS      1  1  1  2  2  2  2  2  2  3  3  3  3  3  3  4  4  4  4  4
TYPE ASSIGNMENTS      4  2  2  2  2  2  2  3  3  3  3  3  3  4  4  4  4  4  4  2
TYPE ASSIGNMENTS      3  4  2  3  4  2  3  4  5  6  7  8  9 10  5  6  7  8  9 10
TYPE ASSIGNMENTS      5  6  7  8  9 10 11 12 13 17 14 15 18 19 16 20 11 12 13 17
TYPE ASSIGNMENTS     14 15 18 19 16 20  1  1  1  1  1  1  1  1  1  1  1  1  1  1
TYPE ASSIGNMENTS      1  1  1  1  1  1  1  1  1  1  1  1  1  1  1  1  1  2  2  2
TYPE ASSIGNMENTS      2  2  2  3  3  3  3  3  3  4  4  4  4  4  4  2  2  2  2  2
TYPE ASSIGNMENTS      2  3  3  3  3  3  3  4  4  4  4  4  4  2  3  4  2  3  4  2
TYPE ASSIGNMENTS      3  4  5  6  7  8  9 10  5  6  7  8  9 10  5  6  7  8  9 10
TYPE ASSIGNMENTS     11 12 13 17 14 15 18 19 16 20 11 12 13 17 14 15 18 19 16 20
TYPE ASSIGNMENTS      1  1  1  1  1  1  1  1  1  1  1  1  1  1  1  1  1  1  1  1
TYPE ASSIGNMENTS      1  1  1  1  1  1  1  1  1  1  1  2  2  2  2  2  2  3  3  3
TYPE ASSIGNMENTS      3  3  3  4  4  4  4  4  4  2  2  2  2  2  2  3  3  3  3  3
TYPE ASSIGNMENTS      3  4  4  4  4  4  4  2  3  4  2  3  4  2  3  4  5  6  7  8
TYPE ASSIGNMENTS      9 10  5  6  7  8  9 10  5  6  7  8  9 10 11 12 13 17 14 15
TYPE ASSIGNMENTS     18 19 16 20 11 12 13 17 14 15 18 19 16 20
EXPONENTS  0.8236000D+04 0.1235000D+04 0.2808000D+03 0.7927000D+02 0.2559000D+02
EXPONENTS  0.8997000D+01 0.3319000D+01 0.2808000D+03 0.7927000D+02 0.2559000D+02
EXPONENTS  0.8997000D+01 0.3319000D+01 0.3643000D+00 0.9059000D+00 0.1285000D+00
EXPONENTS  0.4402000D-01 0.1871000D+02 0.4133000D+01 0.1200000D+01 0.1871000D+02
EXPONENTS  0.4133000D+01 0.1200000D+01 0.1871000D+02 0.4133000D+01 0.1200000D+01
EXPONENTS  0.3827000D+00 0.3827000D+00 0.3827000D+00 0.1209000D+00 0.1209000D+00
EXPONENTS  0.1209000D+00 0.3569000D-01 0.3569000D-01 0.3569000D-01 0.1097000D+01
EXPONENTS  0.1097000D+01 0.1097000D+01 0.1097000D+01 0.1097000D+01 0.1097000D+01
EXPONENTS  0.3180000D+00 0.3180000D+00 0.3180000D+00 0.3180000D+00 0.3180000D+00
EXPONENTS  0.3180000D+00 0.1000000D+00 0.1000000D+00 0.1000000D+00 0.1000000D+00
EXPONENTS  0.1000000D+00 0.1000000D+00 0.7610000D+00 0.7610000D+00 0.7610000D+00
EXPONENTS  0.7610000D+00 0.7610000D+00 0.7610000D+00 0.7610000D+00 0.7610000D+00
EXPONENTS  0.7610000D+00 0.7610000D+00 0.2680000D+00 0.2680000D+00 0.2680000D+00
EXPONENTS  0.2680000D+00 0.2680000D+00 0.2680000D+00 0.2680000D+00 0.2680000D+00
EXPONENTS  0.2680000D+00 0.2680000D+00 0.4561000D+06 0.6833000D+05 0.1555000D+05
EXPONENTS  0.4405000D+04 0.1439000D+04 0.5204000D+03 0.2031000D+03 0.8396000D+02
EXPONENTS  0.3620000D+02 0.1583000D+02 0.6334000D+01 0.4405000D+04 0.1439000D+04
EXPONENTS  0.5204000D+03 0.2031000D+03 0.8396000D+02 0.3620000D+02 0.1583000D+02
EXPONENTS  0.6334000D+01 0.2694000D+01 0.1439000D+04 0.2031000D+03 0.8396000D+02
EXPONENTS  0.3620000D+02 0.1583000D+02 0.6334000D+01 0.2694000D+01 0.4313000D+00
EXPONENTS  0.9768000D+00 0.1625000D+00 0.5910000D-01 0.6633000D+03 0.1568000D+03
EXPONENTS  0.4998000D+02 0.1842000D+02 0.7240000D+01 0.2922000D+01 0.6633000D+03
EXPONENTS  0.1568000D+03 0.4998000D+02 0.1842000D+02 0.7240000D+01 0.2922000D+01
EXPONENTS  0.6633000D+03 0.1568000D+03 0.4998000D+02 0.1842000D+02 0.7240000D+01
EXPONENTS  0.2922000D+01 0.1568000D+03 0.4998000D+02 0.1842000D+02 0.7240000D+01
EXPONENTS  0.2922000D+01 0.3818000D+00 0.1568000D+03 0.4998000D+02 0.1842000D+02
EXPONENTS  0.7240000D+01 0.2922000D+01 0.3818000D+00 0.1568000D+03 0.4998000D+02
EXPONENTS  0.1842000D+02 0.7240000D+01 0.2922000D+01 0.3818000D+00 0.1022000D+01
EXPONENTS  0.1022000D+01 0.1022000D+01 0.1301000D+00 0.1301000D+00 0.1301000D+00
EXPONENTS  0.4190000D-01 0.4190000D-01 0.4190000D-01 0.1046000D+01 0.1046000D+01
EXPONENTS  0.1046000D+01 0.1046000D+01 0.1046000D+01 0.1046000D+01 0.3440000D+00
EXPONENTS  0.3440000D+00 0.3440000D+00 0.3440000D+00 0.3440000D+00 0.3440000D+00
EXPONENTS  0.1350000D+00 0.1350000D+00 0.1350000D+00 0.1350000D+00 0.1350000D+00
EXPONENTS  0.1350000D+00 0.7060000D+00 0.7060000D+00 0.7060000D+00 0.7060000D+00
EXPONENTS  0.7060000D+00 0.7060000D+00 0.7060000D+00 0.7060000D+00 0.7060000D+00
EXPONENTS  0.7060000D+00 0.3120000D+00 0.3120000D+00 0.3120000D+00 0.3120000D+00
EXPONENTS  0.3120000D+00 0.3120000D+00 0.3120000D+00 0.3120000D+00 0.3120000D+00
EXPONENTS  0.3120000D+00 0.4561000D+06 0.6833000D+05 0.1555000D+05 0.4405000D+04
EXPONENTS  0.1439000D+04 0.5204000D+03 0.2031000D+03 0.8396000D+02 0.3620000D+02
EXPONENTS  0.1583000D+02 0.6334000D+01 0.4405000D+04 0.1439000D+04 0.5204000D+03
EXPONENTS  0.2031000D+03 0.8396000D+02 0.3620000D+02 0.1583000D+02 0.6334000D+01
EXPONENTS  0.2694000D+01 0.1439000D+04 0.2031000D+03 0.8396000D+02 0.3620000D+02
EXPONENTS  0.1583000D+02 0.6334000D+01 0.2694000D+01 0.4313000D+00 0.9768000D+00
EXPONENTS  0.1625000D+00 0.5910000D-01 0.6633000D+03 0.1568000D+03 0.4998000D+02
EXPONENTS  0.1842000D+02 0.7240000D+01 0.2922000D+01 0.6633000D+03 0.1568000D+03
EXPONENTS  0.4998000D+02 0.1842000D+02 0.7240000D+01 0.2922000D+01 0.6633000D+03
EXPONENTS  0.1568000D+03 0.4998000D+02 0.1842000D+02 0.7240000D+01 0.2922000D+01
EXPONENTS  0.1568000D+03 0.4998000D+02 0.1842000D+02 0.7240000D+01 0.2922000D+01
EXPONENTS  0.3818000D+00 0.1568000D+03 0.4998000D+02 0.1842000D+02 0.7240000D+01
EXPONENTS  0.2922000D+01 0.3818000D+00 0.1568000D+03 0.4998000D+02 0.1842000D+02
EXPONENTS  0.7240000D+01 0.2922000D+01 0.3818000D+00 0.1022000D+01 0.1022000D+01
EXPONENTS  0.1022000D+01 0.1301000D+00 0.1301000D+00 0.1301000D+00 0.4190000D-01
EXPONENTS  0.4190000D-01 0.4190000D-01 0.1046000D+01 0.1046000D+01 0.1046000D+01
EXPONENTS  0.1046000D+01 0.1046000D+01 0.1046000D+01 0.3440000D+00 0.3440000D+00
EXPONENTS  0.3440000D+00 0.3440000D+00 0.3440000D+00 0.3440000D+00 0.1350000D+00
EXPONENTS  0.1350000D+00 0.1350000D+00 0.1350000D+00 0.1350000D+00 0.1350000D+00
EXPONENTS  0.7060000D+00 0.7060000D+00 0.7060000D+00 0.7060000D+00 0.7060000D+00
EXPONENTS  0.7060000D+00 0.7060000D+00 0.7060000D+00 0.7060000D+00 0.7060000D+00
EXPONENTS  0.3120000D+00 0.3120000D+00 0.3120000D+00 0.3120000D+00 0.3120000D+00
EXPONENTS  0.3120000D+00 0.3120000D+00 0.3120000D+00 0.3120000D+00 0.3120000D+00
EXPONENTS  0.3741000D+06 0.5605000D+05 0.1276000D+05 0.3615000D+04 0.1183000D+04
EXPONENTS  0.4288000D+03 0.1678000D+03 0.6947000D+02 0.2984000D+02 0.1272000D+02
EXPONENTS  0.5244000D+01 0.3615000D+04 0.1183000D+04 0.4288000D+03 0.1678000D+03
EXPONENTS  0.6947000D+02 0.2984000D+02 0.1272000D+02 0.5244000D+01 0.2219000D+01
EXPONENTS  0.1183000D+04 0.1678000D+03 0.6947000D+02 0.2984000D+02 0.1272000D+02
EXPONENTS  0.5244000D+01 0.2219000D+01 0.3490000D+00 0.7767000D+00 0.1322000D+00
EXPONENTS  0.4970000D-01 0.5744000D+03 0.1358000D+03 0.4319000D+02 0.1587000D+02
EXPONENTS  0.6208000D+01 0.2483000D+01 0.5744000D+03 0.1358000D+03 0.4319000D+02
EXPONENTS  0.1587000D+02 0.6208000D+01 0.2483000D+01 0.5744000D+03 0.1358000D+03
EXPONENTS  0.4319000D+02 0.1587000D+02 0.6208000D+01 0.2483000D+01 0.1358000D+03
EXPONENTS  0.4319000D+02 0.1587000D+02 0.6208000D+01 0.2483000D+01 0.3229000D+00
EXPONENTS  0.1358000D+03 0.4319000D+02 0.1587000D+02 0.6208000D+01 0.2483000D+01
EXPONENTS  0.3229000D+00 0.1358000D+03 0.4319000D+02 0.1587000D+02 0.6208000D+01
EXPONENTS  0.2483000D+01 0.3229000D+00 0.8688000D+00 0.8688000D+00 0.8688000D+00
EXPONENTS  0.1098000D+00 0.1098000D+00 0.1098000D+00 0.3510000D-01 0.3510000D-01
EXPONENTS  0.3510000D-01 0.2690000D+00 0.2690000D+00 0.2690000D+00 0.2690000D+00
EXPONENTS  0.2690000D+00 0.2690000D+00 0.8190000D+00 0.8190000D+00 0.8190000D+00
EXPONENTS  0.8190000D+00 0.8190000D+00 0.8190000D+00 0.1010000D+00 0.1010000D+00
EXPONENTS  0.1010000D+00 0.1010000D+00 0.1010000D+00 0.1010000D+00 0.5570000D+00
EXPONENTS  0.5570000D+00 0.5570000D+00 0.5570000D+00 0.5570000D+00 0.5570000D+00
EXPONENTS  0.5570000D+00 0.5570000D+00 0.5570000D+00 0.5570000D+00 0.2180000D+00
EXPONENTS  0.2180000D+00 0.2180000D+00 0.2180000D+00 0.2180000D+00 0.2180000D+00
EXPONENTS  0.2180000D+00 0.2180000D+00 0.2180000D+00 0.2180000D+00
MO    1     MO 0.0        OCC NO =    2.0000385  ORB. ENERGY =    0.000000
 -0.21321012D-04 -0.39746663D-04 -0.67177275D-04 -0.10097997D-03 -0.12403581D-03
 -0.10468185D-03 -0.39363109D-04 -0.18204003D-07 -0.13606364D-06 -0.50850091D-06
 -0.14186383D-05 -0.19005843D-05  0.22442356D-05 -0.24493910D-05  0.10613540D-04
  0.32318608D-05  0.25674184D-12  0.24071179D-12  0.17140113D-12  0.74404299D-03
  0.69758760D-03  0.49672393D-03  0.96072238D-05  0.90073830D-05  0.64137933D-05
  0.47974591D-13  0.19819092D-03  0.75367447D-05 -0.47369787D-14  0.30928509D-03
  0.13402809D-05  0.50393060D-15 -0.10512021D-04  0.46604125D-06 -0.46768257D-06
 -0.53428639D-05  0.58105465D-05  0.15071587D-12 -0.34699220D-13  0.26895921D-03
 -0.58944915D-06 -0.16824674D-05  0.22719165D-05 -0.18403417D-13 -0.17476780D-14
  0.28091841D-03 -0.49824802D-07 -0.11523005D-05  0.12021253D-05  0.11223965D-13
 -0.11776591D-14  0.18753614D-03 -0.73689229D-14  0.24698894D-03 -0.31788533D-06
  0.13423685D-13  0.26398386D-04 -0.79971171D-06  0.86830834D-14 -0.76736521D-03
  0.17533677D-05 -0.58764434D-13  0.34499959D-14 -0.30056085D-03  0.13331826D-05
 -0.71690966D-14 -0.21435567D-04  0.63647144D-07 -0.31808911D-14  0.92311811D-03
 -0.40631950D-05  0.44794253D-13 -0.14340620D-02 -0.26829769D-02 -0.46355890D-02
 -0.75148345D-02 -0.11411997D-01 -0.15861603D-01 -0.18858230D-01 -0.16799567D-01
 -0.83430200D-02 -0.13431556D-02 -0.14171085D-04 -0.70399365D-05 -0.23484050D-03
 -0.81837211D-03 -0.29470905D-02 -0.64964942D-02 -0.91449671D-02  0.43624474D-03
  0.11967778D-01  0.70764719D-02  0.21787643D-06  0.26390156D-05  0.55033889D-05
  0.15782761D-04  0.81957681D-06 -0.68062920D-04 -0.17586151D-03  0.14328368D-03
  0.39651381D-03 -0.21203852D-03 -0.10712650D-03  0.64384005D-09  0.84808796D-09
  0.93557377D-09  0.77706727D-09  0.41264428D-09  0.10646438D-09 -0.48729213D+01
 -0.64187773D+01 -0.70809161D+01 -0.58812553D+01 -0.31231098D+01 -0.80577864D+00
  0.66459112D+01  0.87542198D+01  0.96572748D+01  0.80211229D+01  0.42594388D+01
  0.10989575D+01 -0.30133356D-13  0.29130990D-12  0.41077736D-12  0.58752029D-12
 -0.29751201D-14 -0.53881152D-12  0.25255646D-03 -0.24415534D-02 -0.34428451D-02
 -0.49241793D-02  0.24935351D-04  0.45159368D-02 -0.33167884D-03  0.32064576D-02
  0.45214400D-02  0.64668552D-02 -0.32747245D-04 -0.59307162D-02  0.41656299D-11
 -0.31347159D-01  0.42909648D-01 -0.30409716D-13  0.34382957D-03 -0.50889911D-03
 -0.15355665D-14  0.96652473D-05 -0.19726180D-04  0.80090315D-05 -0.81638211D-03
  0.80837308D-03  0.10304747D-12  0.46919858D-13  0.74234584D-03  0.41386116D-04
  0.47807844D-03 -0.51946455D-03 -0.38557447D-13 -0.25779747D-13 -0.35058692D-03
 -0.21177776D-05 -0.18559651D-05  0.39737427D-05  0.42567228D-14  0.58487214D-14
  0.37937775D-05  0.30710866D-14 -0.22416737D-04 -0.94970834D-05  0.77704993D-14
  0.49393700D-04  0.36323029D-04 -0.16983759D-13  0.17856511D-04 -0.78317786D-05
 -0.34902325D-14  0.41539446D-15  0.84710996D-04 -0.40312853D-04 -0.76300283D-14
 -0.96034553D-05  0.43749684D-04  0.63838449D-14 -0.24452953D-03  0.77188875D-04
 -0.11063900D-13  0.13568360D-02  0.25384953D-02  0.43859569D-02  0.71101514D-02
  0.10797447D-01  0.15007436D-01  0.17842691D-01  0.15894889D-01  0.78937381D-02
  0.12708251D-02  0.13407955D-04  0.66842460D-05  0.22297526D-03  0.77702413D-03
  0.27981897D-02  0.61682610D-02  0.86829207D-02 -0.41420362D-03 -0.11363110D-01
 -0.67189356D-02 -0.23604495D-06 -0.28590807D-05 -0.59623114D-05 -0.17098871D-04
 -0.88792057D-06  0.73738625D-04  0.19052644D-03 -0.15523198D-03 -0.37362085D-03
  0.21047778D-03  0.10739724D-03 -0.13488054D-08 -0.17766922D-08 -0.19599696D-08
 -0.16279083D-08 -0.86446446D-09 -0.22303635D-09 -0.48321807D+01 -0.63651124D+01
 -0.70217154D+01 -0.58320844D+01 -0.30969986D+01 -0.79904184D+00 -0.65466496D+01
 -0.86234690D+01 -0.95130362D+01 -0.79013214D+01 -0.41958209D+01 -0.10825437D+01
  0.56784568D-13 -0.54895667D-12 -0.77408621D-12 -0.11071480D-11  0.56064419D-14
  0.10153592D-11  0.25091978D-03 -0.24257310D-02 -0.34205340D-02 -0.48922684D-02
  0.24773759D-04  0.44866715D-02  0.32700184D-03 -0.31612434D-02 -0.44576832D-02
 -0.63756662D-02  0.32285476D-04  0.58470872D-02 -0.88683082D-11 -0.31083197D-01
 -0.42269406D-01  0.66758545D-13  0.34345581D-03  0.50550035D-03  0.22522884D-14
  0.95512927D-05  0.19318460D-04 -0.71958051D-05  0.80984868D-03 -0.80265287D-03
  0.14204581D-12 -0.89495472D-13  0.73482420D-03 -0.42209056D-04 -0.47573150D-03
  0.51794056D-03 -0.81221864D-13  0.54618408D-13 -0.34406958D-03  0.20999733D-05
  0.13340628D-05 -0.34340361D-05  0.22342546D-14 -0.37300003D-14  0.31720612D-05
 -0.79558990D-15 -0.22157824D-04  0.10199030D-04 -0.50499528D-14  0.48996506D-04
 -0.37926162D-04  0.74367225D-14  0.17476966D-04  0.73290711D-05  0.58282080D-14
 -0.47923511D-14  0.84020514D-04  0.40616062D-04  0.15341057D-13 -0.85376057D-05
 -0.43429057D-04 -0.96400422D-15 -0.24352394D-03 -0.78419128D-04 -0.28133089D-13
  0.14835762D-04  0.27736951D-04  0.47937696D-04  0.77537248D-04  0.11719496D-03
  0.16140172D-03  0.18865895D-03  0.16305182D-03  0.76097136D-04  0.10309492D-04
 -0.75405110D-07  0.14810944D-06  0.19039320D-05  0.69452703D-05  0.23433170D-04
  0.51469755D-04  0.66484885D-04 -0.10684687D-04 -0.89631821D-04 -0.49188787D-04
  0.26747527D-07  0.30467096D-06  0.63260675D-06  0.17395079D-05 -0.22554718D-06
 -0.78652625D-05 -0.19617214D-04  0.16238845D-04  0.44610774D-05 -0.77292339D-05
 -0.50922797D-05 -0.23608336D-09 -0.30972794D-09 -0.33970452D-09 -0.27949864D-09
 -0.14733579D-09 -0.38334002D-10  0.83865204D+00  0.11002638D+01  0.12067513D+01
  0.99287858D+00  0.52338913D+00  0.13617601D+00  0.11614768D-01  0.15237916D-01
  0.16712696D-01  0.13750703D-01  0.72485885D-02  0.18859464D-02 -0.81696586D-15
 -0.29325505D-13 -0.46525649D-13 -0.55247781D-13 -0.83604455D-14  0.60845756D-13
  0.22743842D-04  0.81640458D-03  0.12952463D-02  0.15380653D-02  0.23274982D-03
 -0.16939095D-02  0.19745358D-06  0.70877208D-05  0.11244847D-04  0.13352911D-04
  0.20206473D-05 -0.14705892D-04 -0.18386456D-11  0.59012881D-02  0.68261208D-04
 -0.33532138D-14 -0.52191981D-03  0.14469797D-05 -0.14117048D-16 -0.67236023D-05
  0.10102926D-06  0.33102663D-05 -0.63683437D-05  0.30580774D-05 -0.11408817D-13
 -0.12916397D-13  0.69010661D-03 -0.17499591D-06 -0.14354695D-05  0.16104654D-05
  0.26099501D-13  0.44185624D-14 -0.10490393D-03  0.28883253D-06 -0.39792513D-06
  0.10909260D-06 -0.30518349D-14 -0.65584481D-15  0.76526566D-04 -0.20649189D-14
  0.63017938D-04 -0.10683462D-05  0.30174704D-14  0.23083644D-04 -0.49299467D-05
  0.31772863D-14 -0.21213746D-03  0.81349855D-05 -0.67962869D-14 -0.50103383D-15
  0.27119669D-04 -0.65660843D-06  0.21387103D-15  0.20781772D-05 -0.67351687D-06
  0.12892304D-14 -0.83437183D-04  0.26433421D-05  0.10533377D-13
MO    2     MO 0.0        OCC NO =    2.0000376  ORB. ENERGY =    0.000000
 -0.56248375D-03 -0.10485830D-02 -0.17722482D-02 -0.26640196D-02 -0.32722709D-02
 -0.27616812D-02 -0.10384642D-02 -0.10919845D-05 -0.81619078D-05 -0.30502913D-04
 -0.85098378D-04 -0.11400837D-03  0.13462262D-03  0.18346220D-04 -0.44409183D-03
 -0.64441352D-04  0.44585024D-12  0.41801294D-12  0.29765012D-12  0.34039348D-06
  0.31914053D-06  0.22724707D-06  0.81755826D-03  0.76651283D-03  0.54580280D-03
  0.79456415D-13 -0.71968015D-06  0.57401922D-03 -0.18896473D-13  0.77910523D-05
 -0.50673830D-03 -0.13975198D-14  0.27451282D-06 -0.46048701D-04 -0.63796899D-04
  0.71572471D-03 -0.65192781D-03 -0.15454268D-12 -0.31511762D-13  0.25075185D-05
  0.63267161D-04 -0.11215570D-03  0.48888537D-04  0.16484703D-13 -0.25806836D-13
  0.56270444D-05  0.47770706D-05  0.16312511D-03 -0.16790218D-03 -0.12770542D-13
 -0.12880368D-13 -0.51141590D-06 -0.11880554D-13  0.18387877D-05  0.99951230D-04
  0.96551081D-14  0.24576893D-05 -0.19011804D-03  0.25986554D-13 -0.79740526D-05
 -0.10973565D-03  0.58737161D-13  0.58883262D-14 -0.35595788D-05 -0.74343842D-04
 -0.48818404D-14 -0.11722054D-05  0.98170090D-04 -0.12783138D-13  0.11850942D-04
  0.12486143D-03 -0.44881407D-13 -0.76939695D-03 -0.14394596D-02 -0.24870669D-02
 -0.40318277D-02 -0.61227172D-02 -0.85100009D-02 -0.10117739D-01 -0.90132334D-02
 -0.44761623D-02 -0.72062426D-03 -0.76030116D-05 -0.40117527D-05 -0.13382536D-03
 -0.46635457D-03 -0.16794183D-02 -0.37020687D-02 -0.52113179D-02  0.24859685D-03
  0.68199145D-02  0.40325727D-02  0.29540353D-06  0.35780581D-05  0.74616630D-05
  0.21398750D-04  0.11112073D-05 -0.92281790D-04 -0.23843842D-03  0.19426840D-03
  0.12928133D-03 -0.34665962D-03 -0.17042336D-03 -0.17472949D-08 -0.23015961D-08
 -0.25390208D-08 -0.21088556D-08 -0.11198608D-08 -0.28892995D-09  0.41433873D+01
  0.54578104D+01  0.60208192D+01  0.50007617D+01  0.26555433D+01  0.68514404D+00
 -0.70196628D+01 -0.92465381D+01 -0.10200379D+02 -0.84722134D+01 -0.44989804D+01
 -0.11607605D+01  0.71976894D-13 -0.69582630D-12 -0.98118772D-12 -0.14033580D-11
  0.71064074D-14  0.12870116D-11 -0.17978916D-03  0.17380859D-02  0.24508826D-02
  0.35054105D-02 -0.17750905D-04 -0.32147920D-02  0.32940592D-03 -0.31844844D-02
 -0.44904555D-02 -0.64225392D-02  0.32522835D-04  0.58900742D-02 -0.11530255D-10
  0.26762406D-01 -0.45418114D-01  0.74330539D-13 -0.13857025D-03  0.13273611D-03
  0.34132010D-14 -0.10721295D-04  0.13314934D-04  0.15573860D-04  0.46784547D-03
 -0.48341933D-03 -0.17249868D-12 -0.10424568D-12 -0.44289410D-03  0.24826407D-04
 -0.27926079D-03  0.25443439D-03  0.10160557D-12  0.61196043D-13  0.40932841D-03
 -0.26408755D-05  0.47414550D-04 -0.44773674D-04 -0.62978062D-14 -0.39830478D-14
 -0.27186628D-04 -0.67742835D-15 -0.29911262D-04  0.10078505D-05 -0.41665745D-14
  0.58890137D-04  0.30426229D-04  0.61988595D-14  0.30843648D-04 -0.33449781D-04
 -0.59101072D-14 -0.56503474D-14 -0.46028890D-04 -0.12193001D-04  0.17428195D-13
  0.18389564D-04 -0.41082539D-04 -0.47715292D-15  0.11969711D-03  0.77661541D-04
  0.29336533D-13 -0.83059209D-03 -0.15539492D-02 -0.26848795D-02 -0.43525051D-02
 -0.66096967D-02 -0.91868566D-02 -0.10922469D-01 -0.97301145D-02 -0.48321806D-02
 -0.77794020D-03 -0.82077286D-05 -0.42970608D-05 -0.14334275D-03 -0.49952080D-03
 -0.17988553D-02 -0.39653526D-02 -0.55819366D-02  0.26627657D-03  0.73049335D-02
  0.43193614D-02  0.28693069D-06  0.34754313D-05  0.72476456D-05  0.20784986D-04
  0.10793354D-05 -0.89634939D-04 -0.23159947D-03  0.18869635D-03  0.14650131D-03
 -0.36057316D-03 -0.17277596D-03  0.40561791D-09  0.53429368D-09  0.58940956D-09
  0.48955079D-09  0.25996505D-09  0.67072343D-10 -0.42248165D+01 -0.55650716D+01
 -0.61391451D+01 -0.50990407D+01 -0.27077321D+01 -0.69860904D+00 -0.70924887D+01
 -0.93424667D+01 -0.10306203D+02 -0.85601087D+01 -0.45456553D+01 -0.11728028D+01
 -0.21833528D-13  0.21107250D-12  0.29763426D-12  0.42569572D-12 -0.21556632D-14
 -0.39040313D-12  0.18426230D-03 -0.17813293D-02 -0.25118603D-02 -0.35926247D-02
  0.18192546D-04  0.32947757D-02  0.33331506D-03 -0.32222755D-02 -0.45437449D-02
 -0.64987572D-02  0.32908791D-04  0.59599733D-02  0.25647145D-11 -0.27290332D-01
 -0.45890756D-01 -0.26464585D-13  0.14771692D-03  0.13823005D-03 -0.75584723D-15
  0.10776198D-04  0.13351141D-04  0.14410627D-04  0.48047431D-03 -0.49488493D-03
 -0.85565799D-13  0.44817431D-13  0.44942476D-03  0.24663971D-04 -0.28981888D-03
  0.26515491D-03  0.23027277D-13 -0.24196842D-13 -0.41584855D-03 -0.29418772D-05
  0.47304641D-04 -0.44362763D-04 -0.17766595D-14  0.71865939D-14  0.26802031D-04
  0.31459306D-14  0.30443147D-04  0.11901700D-05  0.92359020D-14 -0.59479830D-04
  0.30056028D-04 -0.18673694D-13 -0.31849611D-04 -0.33626538D-04  0.36730158D-14
 -0.43719414D-15  0.47687041D-04 -0.11440872D-04 -0.58146490D-14 -0.18126588D-04
 -0.42113478D-04  0.71262314D-14 -0.12493453D-03  0.76436096D-04  0.10037134D-13
  0.51307351D-03  0.95924261D-03  0.16578563D-02  0.26815143D-02  0.40530191D-02
  0.55818465D-02  0.65244988D-02  0.56389130D-02  0.26317101D-02  0.35653897D-03
 -0.26077774D-05  0.64709888D-05  0.83183910D-04  0.30344295D-03  0.10238090D-02
  0.22487439D-02  0.29047638D-02 -0.46682025D-03 -0.39160671D-02 -0.21490871D-02
  0.23298572D-06  0.26538522D-05  0.55103539D-05  0.15152074D-04 -0.19646404D-05
 -0.68510778D-04 -0.17087676D-03  0.14144931D-03 -0.26311825D-04  0.11723499D-02
  0.25933783D-03 -0.32935096D-09 -0.43208972D-09 -0.47390891D-09 -0.38991798D-09
 -0.20554259D-09 -0.53478315D-10  0.42665909D-02  0.55975246D-02  0.61392731D-02
  0.50512090D-02  0.26627102D-02  0.69278710D-03 -0.57338611D+00 -0.75224998D+00
 -0.82505542D+00 -0.67883075D+00 -0.35784097D+00 -0.93103490D-01 -0.10655437D-14
 -0.38248362D-13 -0.60681985D-13 -0.72057996D-13 -0.10904274D-13  0.79359264D-13
  0.19318486D-06  0.69344926D-05  0.11001746D-04  0.13064236D-04  0.19769633D-05
 -0.14387968D-04 -0.45632007D-05 -0.16379897D-03 -0.25987117D-03 -0.30858904D-03
 -0.46697656D-04  0.33985679D-03 -0.25857666D-11  0.36756578D-04 -0.39323406D-02
  0.16986584D-13  0.30120241D-05 -0.11700078D-03  0.10972691D-14  0.86656169D-07
 -0.86546279D-07  0.20110907D-04  0.45731837D-04 -0.65842744D-04  0.11562524D-13
 -0.35141303D-13  0.10176943D-04 -0.91865389D-04  0.91983126D-04 -0.11773716D-06
 -0.25147362D-13  0.11107456D-13  0.10235153D-04  0.10394576D-04 -0.90077814D-05
 -0.13867946D-05  0.34955879D-14 -0.74740620D-14 -0.17897848D-06 -0.30249107D-14
  0.26711767D-05  0.33011212D-04  0.31797461D-14  0.30706245D-06  0.45301792D-04
  0.58949860D-14 -0.83205925D-05 -0.14433543D-03  0.92758365D-14 -0.19885666D-14
  0.21033393D-06  0.97879515D-05 -0.84960731D-15  0.56692355D-06 -0.19903708D-04
  0.68153072D-14 -0.11979254D-05 -0.94601466D-05 -0.11265881D-13
MO    3     MO 0.0        OCC NO =    2.0000330  ORB. ENERGY =    0.000000
  0.89394725D-11  0.16664978D-10  0.28166083D-10  0.42338876D-10  0.52005726D-10
  0.43890998D-10  0.16504161D-10  0.10686700D-14  0.79876459D-14  0.29851657D-13
  0.83281474D-13  0.11157421D-12 -0.13174834D-12  0.71530507D-12  0.21038185D-12
  0.55945477D-13 -0.47289559D-05 -0.44336967D-05 -0.31570562D-05 -0.15277962D-12
 -0.14324061D-12 -0.10199585D-12 -0.19234982D-12 -0.18034018D-12 -0.12841295D-12
 -0.10597899D-05 -0.96911055D-13 -0.41633103D-13  0.17464194D-05  0.11979003D-12
  0.34319966D-14 -0.54718777D-07  0.23510768D-14  0.31479363D-14  0.62169012D-14
 -0.92869566D-13  0.86652664D-13 -0.11748237D-02 -0.11485533D-05 -0.12075216D-12
 -0.17013223D-13  0.13966782D-13  0.30464412D-14  0.10413071D-03  0.11397098D-05
  0.84022036D-13 -0.22350105D-14 -0.17939391D-13  0.20174401D-13 -0.11681357D-03
  0.10163604D-05  0.53414016D-15  0.58431085D-06  0.39143798D-13  0.60513552D-15
 -0.14344823D-05  0.37990638D-13  0.82908440D-14 -0.31845029D-06 -0.15542203D-12
 -0.10106251D-13  0.46334870D-03 -0.48444185D-06 -0.42826019D-13  0.11493673D-13
  0.88857049D-06 -0.14728597D-13 -0.10597422D-13  0.56475506D-06  0.14320665D-12
 -0.23883598D-13 -0.34832752D-03 -0.10301554D-10 -0.19273108D-10 -0.33299656D-10
 -0.53982655D-10 -0.81977842D-10 -0.11394149D-09 -0.13546770D-09 -0.12067933D-09
 -0.59931908D-10 -0.96485302D-11 -0.10179769D-12  0.38193601D-14  0.12740746D-12
  0.44398948D-12  0.15988780D-11  0.35245276D-11  0.49613973D-11 -0.23667482D-12
 -0.64928500D-11 -0.38391816D-11  0.93666766D-16  0.11345333D-14  0.23659495D-14
  0.67851313D-14  0.35234242D-15 -0.29260777D-13 -0.75604228D-13  0.61598766D-13
 -0.23004848D-12  0.32999095D-13  0.78800510D-14 -0.82083256D+01 -0.10812285D+02
 -0.11927643D+02 -0.99068413D+01 -0.52608076D+01 -0.13573159D+01 -0.10306218D-08
 -0.13575700D-08 -0.14976123D-08 -0.12438842D-08 -0.66053705D-09 -0.17042201D-09
  0.16763477D-08  0.22081421D-08  0.24359264D-08  0.20232276D-08  0.10743900D-08
  0.27719823D-09  0.35866480D-03 -0.34673405D-02 -0.48893121D-02 -0.69930097D-02
  0.35411617D-04  0.64132494D-02  0.46938467D-13 -0.45377090D-12 -0.63986433D-12
 -0.91517526D-12  0.46343187D-14  0.83930203D-12 -0.84758347D-13  0.81938916D-12
  0.11554243D-11  0.16525623D-11 -0.83683430D-14 -0.15155555D-11 -0.53757105D-01
 -0.66760936D-11  0.10778622D-10  0.35435007D-03  0.33137824D-13 -0.95694177D-13
  0.15004979D-04  0.19292810D-14 -0.38407474D-14 -0.20165804D-13 -0.15800949D-12
  0.17817529D-12 -0.98969016D-03 -0.56027921D-03  0.18173657D-12  0.57189956D-14
  0.82432358D-13 -0.88151353D-13  0.47678300D-03  0.32707535D-03 -0.12018697D-12
  0.27869826D-14 -0.11104070D-13  0.83170878D-14 -0.38640634D-04 -0.51992171D-04
 -0.90820777D-15 -0.20818952D-04  0.49794129D-14  0.22762044D-14 -0.44827916D-04
 -0.11054512D-13 -0.74997154D-14  0.10728477D-03 -0.38837272D-14  0.67110228D-15
  0.16956637D-04 -0.17189053D-04  0.13816689D-13  0.53138948D-15  0.85558304D-04
  0.48710761D-14  0.14429078D-13 -0.33991145D-04 -0.46321142D-13 -0.16023246D-13
  0.13681745D-03 -0.48670650D-11 -0.91057593D-11 -0.15732732D-10 -0.25504608D-10
 -0.38731194D-10 -0.53832716D-10 -0.64002974D-10 -0.57016074D-10 -0.28315388D-10
 -0.45585379D-11 -0.48095267D-13  0.50819652D-13  0.16952585D-11  0.59076365D-11
  0.21274356D-10  0.46896670D-10  0.66015375D-10 -0.31491485D-11 -0.86392582D-10
 -0.51083393D-10  0.97777939D-15  0.11843296D-13  0.24697946D-13  0.70829408D-13
  0.36780726D-14 -0.30545076D-12 -0.78922610D-12  0.64302428D-12 -0.32902743D-11
  0.75691583D-14 -0.42356932D-13  0.82188768D+01  0.10826183D+02  0.11942975D+02
  0.99195758D+01  0.52675700D+01  0.13590606D+01  0.10083256D-09  0.13282007D-09
  0.14652133D-09  0.12169743D-09  0.64624714D-10  0.16673514D-10  0.11655012D-09
  0.15352377D-09  0.16936075D-09  0.14066737D-09  0.74698275D-10  0.19272545D-10
 -0.35929105D-03  0.34733947D-02  0.48978491D-02  0.70052199D-02 -0.35473447D-04
 -0.64244473D-02  0.32503987D-14 -0.31422764D-13 -0.44309377D-13 -0.63374130D-13
  0.32091768D-15  0.58120055D-13 -0.24014331D-14  0.23215510D-13  0.32736293D-13
  0.46821559D-13 -0.23709778D-15 -0.42939785D-13  0.53825696D-01  0.89605299D-12
  0.63399434D-12 -0.35316171D-03  0.77499815D-13  0.11630708D-13 -0.14830262D-04
  0.25996760D-14 -0.60266812D-15  0.45278055D-13 -0.24312858D-14 -0.42846769D-13
 -0.99179785D-03  0.56494335D-03  0.16865903D-12 -0.13102401D-13 -0.12914241D-13
  0.26016643D-13  0.47895655D-03 -0.32945244D-03 -0.24505149D-13  0.18654579D-14
 -0.85355427D-14  0.66700848D-14 -0.39364577D-04  0.52267146D-04  0.61096597D-14
  0.21470367D-04 -0.49475929D-14 -0.26490123D-14  0.43681820D-04 -0.12479737D-14
  0.36548319D-16 -0.10809292D-03  0.16090752D-13  0.79104886D-14  0.17404707D-04
  0.17098799D-04  0.34476139D-14  0.48594621D-14 -0.85277804D-04  0.92807987D-14
 -0.29859399D-14  0.33981405D-04 -0.19623640D-13 -0.11592446D-13  0.13718566D-03
 -0.12528470D-10 -0.23423237D-10 -0.40482315D-10 -0.65478476D-10 -0.98968525D-10
 -0.13630015D-09 -0.15931828D-09 -0.13769363D-09 -0.64262333D-10 -0.87061361D-11
  0.63677933D-13 -0.94603557D-13 -0.12161192D-11 -0.44362280D-11 -0.14967723D-10
 -0.32875837D-10 -0.42466614D-10  0.68247462D-11  0.57251509D-10  0.31418889D-10
 -0.79968787D-15 -0.91089420D-14 -0.18913447D-13 -0.52007176D-13  0.67433277D-14
  0.23515277D-12  0.58650834D-12 -0.48550311D-12  0.17684634D-11 -0.15208061D-12
 -0.51562850D-13 -0.81054206D-05 -0.10633851D-04 -0.11663033D-04 -0.95959922D-05
 -0.50584615D-05 -0.13161165D-05  0.11983297D-08  0.15721405D-08  0.17242979D-08
  0.14187003D-08  0.74785815D-09  0.19457862D-09  0.42525242D-09  0.55790699D-09
  0.61190323D-09  0.50345554D-09  0.26539314D-09  0.69050302D-10  0.41858410D-07
  0.15025340D-05  0.23838079D-05  0.28306988D-05  0.42835933D-06 -0.31175190D-05
  0.12746558D-13  0.45754575D-12  0.72590780D-12  0.86199324D-12  0.13044230D-12