 Entering Gaussian System, Link 0=/home/bruns/programas/chemistry/gaussian/g09/g09
 Input=GAUSSIAN.com
 Output=GAUSSIAN.log
 Initial command:
 /home/bruns/programas/chemistry/gaussian/g09/l1.exe /home/bruns/programas/chemistry/gaussian/work/Gau-56473.inp -scrdir=/home/bruns/programas/chemistry/gaussian/work/
 Entering Link 1 = /home/bruns/programas/chemistry/gaussian/g09/l1.exe PID=     56475.
  
 Copyright (c) 1988,1990,1992,1993,1995,1998,2003,2009,2010,
            Gaussian, Inc.  All Rights Reserved.
  
 This is part of the Gaussian(R) 09 program.  It is based on
 the Gaussian(R) 03 system (copyright 2003, Gaussian, Inc.),
 the Gaussian(R) 98 system (copyright 1998, Gaussian, Inc.),
 the Gaussian(R) 94 system (copyright 1995, Gaussian, Inc.),
 the Gaussian 92(TM) system (copyright 1992, Gaussian, Inc.),
 the Gaussian 90(TM) system (copyright 1990, Gaussian, Inc.),
 the Gaussian 88(TM) system (copyright 1988, Gaussian, Inc.),
 the Gaussian 86(TM) system (copyright 1986, Carnegie Mellon
 University), and the Gaussian 82(TM) system (copyright 1983,
 Carnegie Mellon University). Gaussian is a federally registered
 trademark of Gaussian, Inc.
  
 This software contains proprietary and confidential information,
 including trade secrets, belonging to Gaussian, Inc.
  
 This software is provided under written license and may be
 used, copied, transmitted, or stored only in accord with that
 written license.
  
 The following legend is applicable only to US Government
 contracts under FAR:
  
                    RESTRICTED RIGHTS LEGEND
  
 Use, reproduction and disclosure by the US Government is
 subject to restrictions as set forth in subparagraphs (a)
 and (c) of the Commercial Computer Software - Restricted
 Rights clause in FAR 52.227-19.
  
 Gaussian, Inc.
 340 Quinnipiac St., Bldg. 40, Wallingford CT 06492
  
  
 ---------------------------------------------------------------
 Warning -- This program may not be used in any manner that
 competes with the business of Gaussian, Inc. or will provide
 assistance to any competitor of Gaussian, Inc.  The licensee
 of this program is prohibited from giving any competitor of
 Gaussian, Inc. access to this program.  By using this program,
 the user acknowledges that Gaussian, Inc. is engaged in the
 business of creating and licensing software in the field of
 computational chemistry and represents and warrants to the
 licensee that it is not a competitor of Gaussian, Inc. and that
 it will not use this program in any manner prohibited above.
 ---------------------------------------------------------------
  

 Cite this work as:
 Gaussian 09, Revision B.01,
 M. J. Frisch, G. W. Trucks, H. B. Schlegel, G. E. Scuseria, 
 M. A. Robb, J. R. Cheeseman, G. Scalmani, V. Barone, B. Mennucci, 
 G. A. Petersson, H. Nakatsuji, M. Caricato, X. Li, H. P. Hratchian, 
 A. F. Izmaylov, J. Bloino, G. Zheng, J. L. Sonnenberg, M. Hada, 
 M. Ehara, K. Toyota, R. Fukuda, J. Hasegawa, M. Ishida, T. Nakajima, 
 Y. Honda, O. Kitao, H. Nakai, T. Vreven, J. A. Montgomery, Jr., 
 J. E. Peralta, F. Ogliaro, M. Bearpark, J. J. Heyd, E. Brothers, 
 K. N. Kudin, V. N. Staroverov, T. Keith, R. Kobayashi, J. Normand, 
 K. Raghavachari, A. Rendell, J. C. Burant, S. S. Iyengar, J. Tomasi, 
 M. Cossi, N. Rega, J. M. Millam, M. Klene, J. E. Knox, J. B. Cross, 
 V. Bakken, C. Adamo, J. Jaramillo, R. Gomperts, R. E. Stratmann, 
 O. Yazyev, A. J. Austin, R. Cammi, C. Pomelli, J. W. Ochterski, 
 R. L. Martin, K. Morokuma, V. G. Zakrzewski, G. A. Voth, 
 P. Salvador, J. J. Dannenberg, S. Dapprich, A. D. Daniels, 
 O. Farkas, J. B. Foresman, J. V. Ortiz, J. Cioslowski, 
 and D. J. Fox, Gaussian, Inc., Wallingford CT, 2010.
 
 ******************************************
 Gaussian 09:  EM64L-G09RevB.01 12-Aug-2010
                27-Nov-2021 
 ******************************************
 %nproc=8
 Will use up to    8 processors via shared memory.
 %mem=8GB
 -----------------------------------------------------
 # qcisd/aug-cc-pvtz nosymm density=current output=wfn
 -----------------------------------------------------
 1/30=1,38=1/1;
 2/12=2,15=1,17=6,18=5,40=1/2;
 3/5=16,6=1,7=10,11=9,16=1,25=1,30=1,71=1/1,2,3;
 4//1;
 5/5=2,38=5/2;
 8/6=4,9=120000,10=1/1,4;
 9/5=8,15=1/13;
 11/28=-7,31=1,32=3,42=3/11;
 10/5=6,13=10,31=1/2;
 6/7=2,8=2,9=2,10=2,22=-1,31=1/1;
 99/5=1,6=1100,9=1/99;
 ------------------
 cl2cs-wavefunction
 ------------------
 Symbolic Z-matrix:
 Charge =  0 Multiplicity = 1
 C                     0.        0.01     -0.52291 
 Cl                    0.       -1.43074  -1.5009 
 Cl                    0.        1.43074  -1.5009 
 S                     0.        0.        1.08181 
 
                          Input orientation:                          
 ---------------------------------------------------------------------
 Center     Atomic      Atomic             Coordinates (Angstroms)
 Number     Number       Type             X           Y           Z
 ---------------------------------------------------------------------
      1          6           0        0.000000    0.010000   -0.522914
      2         17           0        0.000000   -1.430735   -1.500900
      3         17           0        0.000000    1.430735   -1.500900
      4         16           0        0.000000    0.000000    1.081815
 ---------------------------------------------------------------------
                    Distance matrix (angstroms):
                    1          2          3          4
     1  C    0.000000
     2  Cl   1.741314   0.000000
     3  Cl   1.724803   2.861470   0.000000
     4  S    1.604760   2.952528   2.952528   0.000000
 Symmetry turned off by external request.
 Stoichiometry    CCl2S
 Framework group  CS[SG(CCl2S)]
 Deg. of freedom     5
 Full point group                 CS      NOp   2
 Rotational constants (GHZ):      3.5300791      3.4458988      1.7437405
 Standard basis: Aug-CC-pVTZ (5D, 7F)
 Integral buffers will be    131072 words long.
 Raffenetti 1 integral format.
 Two-electron integral symmetry is turned off.
   196 basis functions,   414 primitive gaussians,   232 cartesian basis functions
    28 alpha electrons       28 beta electrons
       nuclear repulsion energy       244.8934912006 Hartrees.
 NAtoms=    4 NActive=    4 NUniq=    4 SFac= 1.00D+00 NAtFMM=   50 NAOKFM=F Big=F
 One-electron integrals computed using PRISM.
 NBasis=   196 RedAO= T  NBF=   196
 NBsUse=   196 1.00D-06 NBFU=   196
 Harris functional with IExCor=  205 diagonalized for initial guess.
 ExpMin= 3.51D-02 ExpMax= 4.56D+05 ExpMxC= 1.44D+03 IAcc=3 IRadAn=         0 AccDes= 0.00D+00
 HarFok:  IExCor=  205 AccDes= 0.00D+00 IRadAn=         0 IDoV= 1
 ScaDFX=  1.000000  1.000000  1.000000  1.000000
 FoFCou: FMM=F IPFlag=           0 FMFlag=      100000 FMFlg1=           0
         NFxFlg=           0 DoJE=T BraDBF=F KetDBF=T FulRan=T
         Omega=  0.000000  0.000000  1.000000  0.000000  0.000000 ICntrl=     500 IOpCl=  0
         NMat0=    1 NMatS0=    1 NMatT0=    0 NMatD0=    1 NMtDS0=    0 NMtDT0=    0
         I1Cent=           4 NGrid=           0.
 Symmetry not used in FoFCou.
 Requested convergence on RMS density matrix=1.00D-08 within 128 cycles.
 Requested convergence on MAX density matrix=1.00D-06.
 Requested convergence on             energy=1.00D-06.
 No special actions if energy rises.
 Keep R1 ints in memory in canonical form, NReq=371777346.
 SCF Done:  E(RHF) =  -1354.42596986     A.U. after   13 cycles
             Convg  =    0.4211D-08             -V/T =  2.0001
 ExpMin= 3.51D-02 ExpMax= 4.56D+05 ExpMxC= 1.44D+03 IAcc=3 IRadAn=         5 AccDes= 0.00D+00
 HarFok:  IExCor=  205 AccDes= 0.00D+00 IRadAn=         5 IDoV=-2
 ScaDFX=  1.000000  1.000000  1.000000  1.000000
 DSYEVD returned Info=         101 IAlg= 4 N=    50 NDim=    50 NE2=    21472333 trying DSYEV.
 Range of M.O.s used for correlation:    17   196
 NBasis=   196 NAE=    28 NBE=    28 NFC=    16 NFV=     0
 NROrb=    180 NOA=    12 NOB=    12 NVA=   168 NVB=   168

 **** Warning!!: The largest alpha MO coefficient is  0.31019606D+02

 Semi-Direct transformation.
 ModeAB=           2 MOrb=            12 LenV=    1072679847
 LASXX=     33405819 LTotXX=    33405819 LenRXX=    33405819
 LTotAB=    33954012 MaxLAS=    58380480 LenRXY=    58380480
 NonZer=    66811638 LenScr=   100987392 LnRSAI=           0
 LnScr1=           0 LExtra=           0 Total=    192773691
 MaxDsk=          -1 SrtSym=           F ITran=            4
 JobTyp=0 Pass  1:  I=   1 to  12.
 (rs|ai) integrals will be sorted in core.
 Spin components of T(2) and E(2):
     alpha-alpha T2 =       0.3953116726D-01 E2=     -0.9366557877D-01
     alpha-beta  T2 =       0.2072524066D+00 E2=     -0.5370521138D+00
     beta-beta   T2 =       0.3953116726D-01 E2=     -0.9366557877D-01
 ANorm=    0.1134158164D+01
 E2 =    -0.7243832713D+00 EUMP2 =    -0.13551503531282D+04
 R2 and R3 integrals will be kept in memory, NReq=   736864364.
 Iterations=  50 Convergence= 0.100D-07
 Iteration Nr.   1
 **********************
 DD1Dir will call FoFMem   1 times, MxPair=       156
 NAB=    78 NAA=     0 NBB=     0.
 MP4(R+Q)=  0.24887792D-01
 E3=       -0.32596978D-01        EUMP3=      -0.13551829501D+04
 E4(DQ)=    0.31072743D-02        UMP4(DQ)=   -0.13551798428D+04
 E4(SDQ)=  -0.37166797D-02        UMP4(SDQ)=  -0.13551866668D+04
 DE(Corr)= -0.73209246     E(Corr)=     -1355.1580623    
 NORM(A)=   0.11380839D+01
 Iteration Nr.   2
 **********************
 DD1Dir will call FoFMem   1 times, MxPair=       156
 NAB=    78 NAA=     0 NBB=     0.
 DE(Corr)= -0.75642630     E(CORR)=     -1355.1823962     Delta=-2.43D-02
 NORM(A)=   0.11490832D+01
 Iteration Nr.   3
 **********************
 DD1Dir will call FoFMem   1 times, MxPair=       156
 NAB=    78 NAA=     0 NBB=     0.
 DE(Corr)= -0.75560892     E(CORR)=     -1355.1815788     Delta= 8.17D-04
 NORM(A)=   0.11518269D+01
 Iteration Nr.   4
 **********************
 DD1Dir will call FoFMem   1 times, MxPair=       156
 NAB=    78 NAA=     0 NBB=     0.
 DE(Corr)= -0.75787200     E(CORR)=     -1355.1838419     Delta=-2.26D-03
 NORM(A)=   0.11529043D+01
 Iteration Nr.   5
 **********************
 DD1Dir will call FoFMem   1 times, MxPair=       156
 NAB=    78 NAA=     0 NBB=     0.
 DE(Corr)= -0.75815020     E(CORR)=     -1355.1841201     Delta=-2.78D-04
 NORM(A)=   0.11534419D+01
 Iteration Nr.   6
 **********************
 DD1Dir will call FoFMem   1 times, MxPair=       156
 NAB=    78 NAA=     0 NBB=     0.
 DE(Corr)= -0.75820314     E(CORR)=     -1355.1841730     Delta=-5.29D-05
 NORM(A)=   0.11535050D+01
 Iteration Nr.   7
 **********************
 DD1Dir will call FoFMem   1 times, MxPair=       156
 NAB=    78 NAA=     0 NBB=     0.
 DE(Corr)= -0.75821042     E(CORR)=     -1355.1841803     Delta=-7.27D-06
 NORM(A)=   0.11535105D+01
 Iteration Nr.   8
 **********************
 DD1Dir will call FoFMem   1 times, MxPair=       156
 NAB=    78 NAA=     0 NBB=     0.
 DE(Corr)= -0.75820852     E(CORR)=     -1355.1841784     Delta= 1.90D-06
 NORM(A)=   0.11535170D+01
 Iteration Nr.   9
 **********************
 DD1Dir will call FoFMem   1 times, MxPair=       156
 NAB=    78 NAA=     0 NBB=     0.
 DE(Corr)= -0.75820858     E(CORR)=     -1355.1841784     Delta=-6.36D-08
 NORM(A)=   0.11535159D+01
 Iteration Nr.  10
 **********************
 DD1Dir will call FoFMem   1 times, MxPair=       156
 NAB=    78 NAA=     0 NBB=     0.
 DE(Corr)= -0.75820956     E(CORR)=     -1355.1841794     Delta=-9.81D-07
 NORM(A)=   0.11535177D+01
 Iteration Nr.  11
 **********************
 DD1Dir will call FoFMem   1 times, MxPair=       156
 NAB=    78 NAA=     0 NBB=     0.
 DE(Corr)= -0.75821026     E(CORR)=     -1355.1841801     Delta=-6.97D-07
 NORM(A)=   0.11535187D+01
 Iteration Nr.  12
 **********************
 DD1Dir will call FoFMem   1 times, MxPair=       156
 NAB=    78 NAA=     0 NBB=     0.
 DE(Corr)= -0.75821048     E(CORR)=     -1355.1841803     Delta=-2.24D-07
 NORM(A)=   0.11535195D+01
 Iteration Nr.  13
 **********************
 DD1Dir will call FoFMem   1 times, MxPair=       156
 NAB=    78 NAA=     0 NBB=     0.
 DE(Corr)= -0.75821078     E(CORR)=     -1355.1841806     Delta=-2.94D-07
 NORM(A)=   0.11535200D+01
 Iteration Nr.  14
 **********************
 DD1Dir will call FoFMem   1 times, MxPair=       156
 NAB=    78 NAA=     0 NBB=     0.
 DE(Corr)= -0.75821080     E(CORR)=     -1355.1841807     Delta=-2.77D-08
 NORM(A)=   0.11535202D+01
 Iteration Nr.  15
 **********************
 DD1Dir will call FoFMem   1 times, MxPair=       156
 NAB=    78 NAA=     0 NBB=     0.
 DE(Corr)= -0.75821086     E(CORR)=     -1355.1841807     Delta=-5.65D-08
 NORM(A)=   0.11535203D+01
 Iteration Nr.  16
 **********************
 DD1Dir will call FoFMem   1 times, MxPair=       156
 NAB=    78 NAA=     0 NBB=     0.
 DE(Corr)= -0.75821087     E(CORR)=     -1355.1841807     Delta=-1.20D-08
 NORM(A)=   0.11535203D+01
 Iteration Nr.  17
 **********************
 DD1Dir will call FoFMem   1 times, MxPair=       156
 NAB=    78 NAA=     0 NBB=     0.
 DE(Corr)= -0.75821087     E(CORR)=     -1355.1841807     Delta= 1.43D-09
 NORM(A)=   0.11535203D+01
 Iteration Nr.  18
 **********************
 DD1Dir will call FoFMem   1 times, MxPair=       156
 NAB=    78 NAA=     0 NBB=     0.
 DE(Corr)= -0.75821087     E(CORR)=     -1355.1841807     Delta=-4.23D-09
 NORM(A)=   0.11535203D+01
 Iteration Nr.  19
 **********************
 DD1Dir will call FoFMem   1 times, MxPair=       156
 NAB=    78 NAA=     0 NBB=     0.
 DE(Corr)= -0.75821087     E(CORR)=     -1355.1841807     Delta= 1.95D-09
 NORM(A)=   0.11535203D+01
 Largest amplitude= 8.91D-02

 Z-AMPLITUDE ITERATIONS

 Iteration Nr.   1
 **********************
 DD1Dir will call FoFMem   1 times, MxPair=       156
 NAB=    78 NAA=     0 NBB=     0.
 DE(Z)  -0.72636474D+00          E(Z)=    -0.13551523346D+04
 NORM(A)=   0.11534971D+01
 Iteration Nr.   2
 **********************
 DD1Dir will call FoFMem   1 times, MxPair=       156
 NAB=    78 NAA=     0 NBB=     0.
 DE(Z)  -0.72636412D+00          E(Z)=    -0.13551523340D+04
 NORM(A)=   0.11534978D+01
 Iteration Nr.   3
 **********************
 DD1Dir will call FoFMem   1 times, MxPair=       156
 NAB=    78 NAA=     0 NBB=     0.
 DE(Z)  -0.72636413D+00          E(Z)=    -0.13551523340D+04
 NORM(A)=   0.11535065D+01
 Iteration Nr.   4
 **********************
 DD1Dir will call FoFMem   1 times, MxPair=       156
 NAB=    78 NAA=     0 NBB=     0.
 DE(Z)  -0.72636435D+00          E(Z)=    -0.13551523342D+04
 NORM(A)=   0.11535759D+01
 Iteration Nr.   5
 **********************
 DD1Dir will call FoFMem   1 times, MxPair=       156
 NAB=    78 NAA=     0 NBB=     0.
 DE(Z)  -0.72636632D+00          E(Z)=    -0.13551523362D+04
 NORM(A)=   0.11402843D+01
 Iteration Nr.   6
 **********************
 DD1Dir will call FoFMem   1 times, MxPair=       156
 NAB=    78 NAA=     0 NBB=     0.
 DE(Z)  -0.72597939D+00          E(Z)=    -0.13551519492D+04
 NORM(A)=   0.11402806D+01
 Iteration Nr.   7
 **********************
 DD1Dir will call FoFMem   1 times, MxPair=       156
 NAB=    78 NAA=     0 NBB=     0.
 DE(Z)  -0.72597757D+00          E(Z)=    -0.13551519474D+04
 NORM(A)=   0.11402795D+01
 Iteration Nr.   8
 **********************
 DD1Dir will call FoFMem   1 times, MxPair=       156
 NAB=    78 NAA=     0 NBB=     0.
 DE(Z)  -0.72597849D+00          E(Z)=    -0.13551519483D+04
 NORM(A)=   0.11402805D+01
 Iteration Nr.   9
 **********************
 DD1Dir will call FoFMem   1 times, MxPair=       156
 NAB=    78 NAA=     0 NBB=     0.
 DE(Z)  -0.72597838D+00          E(Z)=    -0.13551519482D+04
 NORM(A)=   0.11402811D+01
 Iteration Nr.  10
 **********************
 DD1Dir will call FoFMem   1 times, MxPair=       156
 NAB=    78 NAA=     0 NBB=     0.
 DE(Z)  -0.72597833D+00          E(Z)=    -0.13551519482D+04
 NORM(A)=   0.11402812D+01
 Iteration Nr.  11
 **********************
 DD1Dir will call FoFMem   1 times, MxPair=       156
 NAB=    78 NAA=     0 NBB=     0.
 DE(Z)  -0.72597844D+00          E(Z)=    -0.13551519483D+04
 NORM(A)=   0.11402813D+01
 Iteration Nr.  12
 **********************
 DD1Dir will call FoFMem   1 times, MxPair=       156
 NAB=    78 NAA=     0 NBB=     0.
 DE(Z)  -0.72597835D+00          E(Z)=    -0.13551519482D+04
 NORM(A)=   0.11402813D+01
 Iteration Nr.  13
 **********************
 DD1Dir will call FoFMem   1 times, MxPair=       156
 NAB=    78 NAA=     0 NBB=     0.
 DE(Z)  -0.72597838D+00          E(Z)=    -0.13551519482D+04
 NORM(A)=   0.11402813D+01
 Iteration Nr.  14
 **********************
 DD1Dir will call FoFMem   1 times, MxPair=       156
 NAB=    78 NAA=     0 NBB=     0.
 DE(Z)  -0.72597837D+00          E(Z)=    -0.13551519482D+04
 NORM(A)=   0.11402813D+01
 Iteration Nr.  15
 **********************
 DD1Dir will call FoFMem   1 times, MxPair=       156
 NAB=    78 NAA=     0 NBB=     0.
 DE(Z)  -0.72597837D+00          E(Z)=    -0.13551519482D+04
 NORM(A)=   0.11402813D+01
 Discarding MO integrals.
          Differentiating once with respect to electric field.
                with respect to dipole field.
          Electric field/nuclear overlap derivatives assumed to be zero.
          Keep R1 ints in memory in canonical form, NReq=367211061.
          There are     1 degrees of freedom in the 1st order CPHF.  IDoFFX=0.
 LinEq1:  Iter=  0 NonCon=     1 RMS=2.08D-03 Max=6.34D-02
 AX will form     1 AO Fock derivatives at one time.
 LinEq1:  Iter=  1 NonCon=     1 RMS=9.28D-04 Max=1.77D-02
 LinEq1:  Iter=  2 NonCon=     1 RMS=4.11D-04 Max=1.02D-02
 LinEq1:  Iter=  3 NonCon=     1 RMS=1.04D-04 Max=1.79D-03
 LinEq1:  Iter=  4 NonCon=     1 RMS=2.44D-05 Max=8.02D-04
 LinEq1:  Iter=  5 NonCon=     1 RMS=7.99D-06 Max=1.96D-04
 LinEq1:  Iter=  6 NonCon=     1 RMS=2.41D-06 Max=8.98D-05
 LinEq1:  Iter=  7 NonCon=     1 RMS=7.34D-07 Max=1.30D-05
 LinEq1:  Iter=  8 NonCon=     1 RMS=1.36D-07 Max=2.07D-06
 LinEq1:  Iter=  9 NonCon=     1 RMS=2.59D-08 Max=3.74D-07
 LinEq1:  Iter= 10 NonCon=     1 RMS=6.92D-09 Max=1.57D-07
 LinEq1:  Iter= 11 NonCon=     1 RMS=1.46D-09 Max=2.27D-08
 LinEq1:  Iter= 12 NonCon=     1 RMS=3.58D-10 Max=5.35D-09
 LinEq1:  Iter= 13 NonCon=     1 RMS=9.11D-11 Max=1.05D-09
 LinEq1:  Iter= 14 NonCon=     0 RMS=2.11D-11 Max=3.25D-10
 Linear equations converged to 1.000D-10 1.000D-09 after    14 iterations.
 End of Minotr Frequency-dependent properties file   721 does not exist.
 End of Minotr Frequency-dependent properties file   722 does not exist.

 **********************************************************************

            Population analysis using the QCI/CC density.

 **********************************************************************

     Natural Orbital Coefficients:
                           1         2         3         4         5
     Eigenvalues --     2.00004   2.00004   2.00003   2.00003   2.00003
   1 1   C  1S         -0.00013  -0.00169   0.00000   0.00000  -0.00072
   2        2S          0.00004   0.00037   0.00000   0.00000   0.00002
   3        3S          0.00000   0.00003   0.00000   0.00000  -0.00003
   4        4S         -0.00014  -0.00290   0.00000   0.00000  -0.00005
   5        5S          0.00000  -0.00094   0.00000   0.00000  -0.00006
   6        6PX         0.00000   0.00000  -0.00003   0.00159   0.00000
   7        6PY         0.00034   0.00000   0.00000   0.00000  -0.00105
   8        6PZ         0.00005   0.00037   0.00000   0.00000  -0.00002
   9        7PX         0.00000   0.00000  -0.00001   0.00170   0.00000
  10        7PY         0.00046  -0.00004   0.00000   0.00000  -0.00225
  11        7PZ         0.00017   0.00133   0.00000   0.00000   0.00001
  12        8PX         0.00000   0.00000   0.00001  -0.00093   0.00000
  13        8PY         0.00304  -0.00007   0.00000   0.00000   0.00661
  14        8PZ        -0.00042  -0.00497   0.00000   0.00000  -0.00004
  15        9PX         0.00000   0.00000  -0.00001  -0.00100   0.00000
  16        9PY        -0.00047   0.00006   0.00000   0.00000   0.00157
  17        9PZ        -0.00014  -0.00208   0.00000   0.00000   0.00000
  18       10D 0       -0.00003  -0.00034   0.00000   0.00000   0.00000
  19       10D+1        0.00000   0.00000   0.00000  -0.00028   0.00000
  20       10D-1        0.00008  -0.00001   0.00000   0.00000  -0.00036
  21       10D+2       -0.00002  -0.00023   0.00000   0.00000   0.00000
  22       10D-2        0.00000   0.00000  -0.00035   0.00001   0.00000
  23       11D 0        0.00011   0.00021   0.00000   0.00000   0.00001
  24       11D+1        0.00000   0.00000  -0.00002   0.00010   0.00000
  25       11D-1        0.00073  -0.00004   0.00000   0.00000   0.00113
  26       11D+2        0.00009   0.00045   0.00000   0.00000   0.00001
  27       11D-2        0.00000   0.00000   0.00027  -0.00002   0.00000
  28       12D 0       -0.00042  -0.00572   0.00000   0.00000   0.00001
  29       12D+1        0.00000   0.00000   0.00003  -0.00272   0.00000
  30       12D-1        0.00368  -0.00039   0.00000   0.00000  -0.00335
  31       12D+2       -0.00023  -0.00311   0.00000   0.00000   0.00002
  32       12D-2        0.00000   0.00000  -0.00230   0.00004   0.00000
  33       13F 0        0.00001   0.00012   0.00000   0.00000   0.00000
  34       13F+1        0.00000   0.00000   0.00000   0.00004   0.00000
  35       13F-1       -0.00039   0.00002   0.00000   0.00000  -0.00029
  36       13F+2        0.00000  -0.00003   0.00000   0.00000   0.00000
  37       13F-2        0.00000   0.00000   0.00015  -0.00001   0.00000
  38       13F+3        0.00000   0.00000   0.00000  -0.00009   0.00000
  39       13F-3       -0.00009   0.00001   0.00000   0.00000   0.00010
  40       14F 0       -0.00010  -0.00097   0.00000   0.00000   0.00002
  41       14F+1        0.00000   0.00000   0.00001   0.00005   0.00000
  42       14F-1        0.00495  -0.00028   0.00000   0.00000   0.00168
  43       14F+2       -0.00001  -0.00009   0.00000   0.00000   0.00002
  44       14F-2        0.00000   0.00000  -0.00118   0.00003   0.00000
  45       14F+3        0.00000   0.00000  -0.00001   0.00058   0.00000
  46       14F-3        0.00116  -0.00008   0.00000   0.00000  -0.00012
  47 2   Cl 1S         -0.00250  -0.00085   0.00000   0.00000   0.02427
  48        2S          0.00888   0.00331   0.00000   0.00000  -0.08251
  49        3S          0.00034   0.00044   0.00000   0.00000   0.00225
  50        4S          0.00059   0.00009   0.00000   0.00000  -0.00612
  51        5S         -0.00128  -0.00173   0.00000   0.00000   0.00397
  52        6S         -0.00140  -0.00185   0.00000   0.00000   0.00413
  53        7PX         0.00000   0.00000  -0.69552  -0.68415   0.00000
  54        7PY        -0.38064   0.37977   0.00000   0.00000   0.13722
  55        7PZ         0.51226  -0.63540   0.00000   0.00000   0.03273
  56        8PX         0.00000   0.00000   0.01499   0.01326   0.00000
  57        8PY         0.00986  -0.00824   0.00000   0.00000  -0.00290
  58        8PZ        -0.01264   0.01476   0.00000   0.00000  -0.00147
  59        9PX         0.00000   0.00000  -0.03687  -0.03674   0.00000
  60        9PY        -0.01982   0.01986   0.00000   0.00000   0.00758
  61        9PZ         0.02677  -0.03328   0.00000   0.00000   0.00187
  62       10PX         0.00000   0.00000   0.00322   0.00278   0.00000
  63       10PY         0.00298  -0.00148   0.00000   0.00000   0.00068
  64       10PZ        -0.00444   0.00156   0.00000   0.00000   0.00014
  65       11PX         0.00000   0.00000   0.00057   0.00078   0.00000
  66       11PY         0.00033  -0.00043   0.00000   0.00000   0.00030
  67       11PZ        -0.00069   0.00056   0.00000   0.00000   0.00021
  68       12D 0        0.00043  -0.00030   0.00000   0.00000   0.00008
  69       12D+1        0.00000   0.00000  -0.00018  -0.00017   0.00000
  70       12D-1        0.00023  -0.00016   0.00000   0.00000   0.00011
  71       12D+2        0.00025  -0.00017   0.00000   0.00000  -0.00007
  72       12D-2        0.00000   0.00000  -0.00032  -0.00020   0.00000
  73       13D 0       -0.00192   0.00113   0.00000   0.00000   0.00009
  74       13D+1        0.00000   0.00000   0.00073   0.00056   0.00000
  75       13D-1       -0.00071   0.00098   0.00000   0.00000  -0.00047
  76       13D+2       -0.00092   0.00075   0.00000   0.00000   0.00015
  77       13D-2        0.00000   0.00000   0.00107   0.00098   0.00000
  78       14D 0        0.00001  -0.00092   0.00000   0.00000   0.00001
  79       14D+1        0.00000   0.00000  -0.00060   0.00007   0.00000
  80       14D-1        0.00002  -0.00034   0.00000   0.00000   0.00010
  81       14D+2       -0.00005  -0.00058   0.00000   0.00000   0.00015
  82       14D-2        0.00000   0.00000  -0.00045  -0.00047   0.00000
  83       15F 0       -0.00001   0.00000   0.00000   0.00000   0.00004
  84       15F+1        0.00000   0.00000   0.00006  -0.00005   0.00000
  85       15F-1        0.00001   0.00002   0.00000   0.00000   0.00003
  86       15F+2        0.00002   0.00002   0.00000   0.00000  -0.00003
  87       15F-2        0.00000   0.00000   0.00001  -0.00003   0.00000
  88       15F+3        0.00000   0.00000   0.00001  -0.00003   0.00000
  89       15F-3        0.00004   0.00004   0.00000   0.00000  -0.00005
  90       16F 0       -0.00038  -0.00009   0.00000   0.00000   0.00019
  91       16F+1        0.00000   0.00000  -0.00013   0.00018   0.00000
  92       16F-1       -0.00089   0.00051   0.00000   0.00000  -0.00017
  93       16F+2       -0.00010  -0.00028   0.00000   0.00000   0.00030
  94       16F-2        0.00000   0.00000   0.00033   0.00032   0.00000
  95       16F+3        0.00000   0.00000  -0.00030  -0.00022   0.00000
  96       16F-3       -0.00026   0.00021   0.00000   0.00000   0.00020
  97 3   Cl 1S          0.00196  -0.00172   0.00000   0.00000  -0.02465
  98        2S         -0.00699   0.00632   0.00000   0.00000   0.08376
  99        3S         -0.00034   0.00043   0.00000   0.00000  -0.00233
 100        4S         -0.00049   0.00030   0.00000   0.00000   0.00620
 101        5S          0.00101  -0.00214   0.00000   0.00000  -0.00398
 102        6S          0.00110  -0.00215   0.00000   0.00000  -0.00407
 103        7PX         0.00000   0.00000   0.68939  -0.69017   0.00000
 104        7PY        -0.43568  -0.32356   0.00000   0.00000   0.13998
 105        7PZ        -0.59679  -0.55138   0.00000   0.00000  -0.02983
 106        8PX         0.00000   0.00000  -0.01492   0.01343   0.00000
 107        8PY         0.01108   0.00688   0.00000   0.00000  -0.00294
 108        8PZ         0.01473   0.01277   0.00000   0.00000   0.00142
 109        9PX         0.00000   0.00000   0.03658  -0.03709   0.00000
 110        9PY        -0.02270  -0.01693   0.00000   0.00000   0.00774
 111        9PZ        -0.03122  -0.02890   0.00000   0.00000  -0.00172
 112       10PX         0.00000   0.00000  -0.00313   0.00274   0.00000
 113       10PY         0.00318   0.00108   0.00000   0.00000   0.00062
 114       10PZ         0.00464   0.00087   0.00000   0.00000  -0.00013
 115       11PX         0.00000   0.00000  -0.00054   0.00078   0.00000
 116       11PY         0.00038   0.00037   0.00000   0.00000   0.00029
 117       11PZ         0.00075   0.00043   0.00000   0.00000  -0.00021
 118       12D 0       -0.00047  -0.00024   0.00000   0.00000  -0.00008
 119       12D+1        0.00000   0.00000   0.00018  -0.00018   0.00000
 120       12D-1        0.00025   0.00013   0.00000   0.00000   0.00010
 121       12D+2       -0.00028  -0.00013   0.00000   0.00000   0.00007
 122       12D-2        0.00000   0.00000  -0.00032   0.00020   0.00000
 123       13D 0        0.00215   0.00090   0.00000   0.00000  -0.00009
 124       13D+1        0.00000   0.00000  -0.00076   0.00059   0.00000
 125       13D-1       -0.00086  -0.00089   0.00000   0.00000  -0.00049
 126       13D+2        0.00105   0.00065   0.00000   0.00000  -0.00017
 127       13D-2        0.00000   0.00000   0.00110  -0.00103   0.00000
 128       14D 0       -0.00013  -0.00088   0.00000   0.00000  -0.00001
 129       14D+1        0.00000   0.00000   0.00061   0.00006   0.00000
 130       14D-1        0.00005   0.00029   0.00000   0.00000   0.00007
 131       14D+2       -0.00004  -0.00059   0.00000   0.00000  -0.00017
 132       14D-2        0.00000   0.00000  -0.00046   0.00049   0.00000
 133       15F 0        0.00002   0.00000   0.00000   0.00000  -0.00004
 134       15F+1        0.00000   0.00000  -0.00007  -0.00005   0.00000
 135       15F-1        0.00001  -0.00002   0.00000   0.00000   0.00003
 136       15F+2       -0.00002   0.00003   0.00000   0.00000   0.00003
 137       15F-2        0.00000   0.00000   0.00001   0.00003   0.00000
 138       15F+3        0.00000   0.00000  -0.00001  -0.00003   0.00000
 139       15F-3        0.00003  -0.00005   0.00000   0.00000  -0.00005
 140       16F 0        0.00038  -0.00013   0.00000   0.00000  -0.00018
 141       16F+1        0.00000   0.00000   0.00013   0.00018   0.00000
 142       16F-1       -0.00097  -0.00041   0.00000   0.00000  -0.00017
 143       16F+2        0.00006  -0.00029   0.00000   0.00000  -0.00030
 144       16F-2        0.00000   0.00000   0.00033  -0.00033   0.00000
 145       16F+3        0.00000   0.00000   0.00030  -0.00022   0.00000
 146       16F-3       -0.00029  -0.00017   0.00000   0.00000   0.00021
 147 4   S  1S          0.00004   0.00088   0.00000   0.00000   0.00120
 148        2S         -0.00013  -0.00304   0.00000   0.00000  -0.00410
 149        3S          0.00008   0.00037   0.00000   0.00000   0.00012
 150        4S          0.00003  -0.00005   0.00000   0.00000  -0.00027
 151        5S          0.00049   0.00749   0.00000   0.00000   0.00005
 152        6S          0.00015   0.00346   0.00000   0.00000   0.00002
 153        7PX         0.00000   0.00000  -0.00018   0.11531   0.00000
 154        7PY         0.08390  -0.00261   0.00000   0.00000   0.94864
 155        7PZ        -0.00379  -0.05718   0.00000   0.00000   0.00446
 156        8PX         0.00000   0.00000   0.00000  -0.00355   0.00000
 157        8PY        -0.00485   0.00024   0.00000   0.00000  -0.01857
 158        8PZ         0.00008   0.00097   0.00000   0.00000  -0.00009
 159        9PX         0.00000   0.00000  -0.00001   0.00666   0.00000
 160        9PY         0.00494  -0.00016   0.00000   0.00000   0.05481
 161        9PZ        -0.00023  -0.00328   0.00000   0.00000   0.00025
 162       10PX         0.00000   0.00000  -0.00003   0.00145   0.00000
 163       10PY        -0.00577   0.00049   0.00000   0.00000  -0.00508
 164       10PZ        -0.00001  -0.00130   0.00000   0.00000  -0.00004
 165       11PX         0.00000   0.00000   0.00000   0.00024   0.00000
 166       11PY        -0.00031   0.00003   0.00000   0.00000  -0.00114
 167       11PZ         0.00001  -0.00001   0.00000   0.00000  -0.00001
 168       12D 0       -0.00004  -0.00040   0.00000   0.00000   0.00002
 169       12D+1        0.00000   0.00000   0.00001  -0.00001   0.00000
 170       12D-1        0.00241  -0.00013   0.00000   0.00000   0.00270
 171       12D+2        0.00003  -0.00009   0.00000   0.00000   0.00002
 172       12D-2        0.00000   0.00000   0.00033  -0.00001   0.00000
 173       13D 0        0.00000   0.00000   0.00000   0.00000   0.00000
 174       13D+1        0.00000   0.00000   0.00000  -0.00006   0.00000
 175       13D-1       -0.00005   0.00001   0.00000   0.00000  -0.00034
 176       13D+2       -0.00001  -0.00009   0.00000   0.00000   0.00000
 177       13D-2        0.00000   0.00000  -0.00010   0.00000   0.00000
 178       14D 0       -0.00002  -0.00005   0.00000   0.00000   0.00000
 179       14D+1        0.00000   0.00000   0.00001  -0.00141   0.00000
 180       14D-1        0.00148  -0.00012   0.00000   0.00000  -0.00029
 181       14D+2        0.00005   0.00037   0.00000   0.00000   0.00000
 182       14D-2        0.00000   0.00000   0.00061   0.00000   0.00000
 183       15F 0        0.00001   0.00008   0.00000   0.00000   0.00000
 184       15F+1        0.00000   0.00000   0.00000  -0.00008   0.00000
 185       15F-1       -0.00022   0.00001   0.00000   0.00000  -0.00018
 186       15F+2        0.00000   0.00012   0.00000   0.00000   0.00000
 187       15F-2        0.00000   0.00000   0.00006   0.00000   0.00000
 188       15F+3        0.00000   0.00000   0.00000   0.00001   0.00000
 189       15F-3       -0.00003   0.00000   0.00000   0.00000   0.00009
 190       16F 0        0.00001   0.00020   0.00000   0.00000  -0.00001
 191       16F+1        0.00000   0.00000   0.00000   0.00024   0.00000
 192       16F-1       -0.00071   0.00004   0.00000   0.00000  -0.00089
 193       16F+2       -0.00003  -0.00005   0.00000   0.00000  -0.00001
 194       16F-2        0.00000   0.00000  -0.00052   0.00001   0.00000
 195       16F+3        0.00000   0.00000  -0.00001  -0.00017   0.00000
 196       16F-3       -0.00016   0.00002   0.00000   0.00000  -0.00018
                           6         7         8         9        10
     Eigenvalues --     2.00003   2.00002   2.00002   2.00001   2.00001
   1 1   C  1S         -0.15328  -0.05639  -0.15430   0.60572   0.08123
   2        2S          0.00315   0.00116   0.00299  -0.01068  -0.00151
   3        3S         -0.00563  -0.00208  -0.00605   0.02404   0.00283
   4        4S         -0.00826  -0.00298  -0.00735   0.00625   0.00434
   5        5S         -0.00139  -0.00047   0.00014   0.00364   0.00185
   6        6PX         0.00000   0.00000   0.00000   0.00000   0.00000
   7        6PY         0.00033  -0.00083   0.00000  -0.00008  -0.00246
   8        6PZ        -0.00011  -0.00001   0.00114  -0.00213   0.00097
   9        7PX         0.00000   0.00000   0.00000   0.00000   0.00000
  10        7PY         0.00007  -0.00027   0.00000  -0.00001   0.00023
  11        7PZ        -0.00075  -0.00029  -0.00061   0.00102   0.00062
  12        8PX         0.00000   0.00000   0.00000   0.00000   0.00000
  13        8PY        -0.00103   0.00273   0.00003  -0.00007   0.00170
  14        8PZ         0.00134   0.00027  -0.00721   0.00485  -0.00144
  15        9PX         0.00000   0.00000   0.00000   0.00000   0.00000
  16        9PY         0.00019  -0.00058   0.00003  -0.00001  -0.00060
  17        9PZ        -0.00052  -0.00021   0.00016   0.00098   0.00008
  18       10D 0       -0.00003  -0.00001  -0.00010   0.00009   0.00003
  19       10D+1        0.00000   0.00000   0.00000   0.00000   0.00000
  20       10D-1        0.00004  -0.00010   0.00000   0.00000   0.00000
  21       10D+2        0.00006   0.00002   0.00002  -0.00015  -0.00001
  22       10D-2        0.00000   0.00000   0.00000   0.00000   0.00000
  23       11D 0       -0.00044  -0.00017  -0.00091   0.00036   0.00026
  24       11D+1        0.00000   0.00000   0.00000   0.00000   0.00000
  25       11D-1        0.00046  -0.00110   0.00002  -0.00006  -0.00233
  26       11D+2        0.00077   0.00027  -0.00031   0.00075  -0.00052
  27       11D-2        0.00000   0.00000   0.00000   0.00000   0.00000
  28       12D 0        0.00049   0.00014  -0.00178   0.00226  -0.00082
  29       12D+1        0.00000   0.00000   0.00000   0.00000   0.00000
  30       12D-1        0.00165  -0.00414  -0.00004  -0.00022  -0.00443
  31       12D+2        0.00128   0.00043  -0.00077   0.00025  -0.00112
  32       12D-2        0.00000   0.00000   0.00000   0.00000   0.00000
  33       13F 0       -0.00012  -0.00004   0.00000  -0.00004   0.00010
  34       13F+1        0.00000   0.00000   0.00000   0.00000   0.00000
  35       13F-1        0.00001  -0.00003   0.00000   0.00000   0.00001
  36       13F+2       -0.00004  -0.00002  -0.00006   0.00001  -0.00005
  37       13F-2        0.00000   0.00000   0.00000   0.00000   0.00000
  38       13F+3        0.00000   0.00000   0.00000   0.00000   0.00000
  39       13F-3       -0.00001   0.00003   0.00000   0.00000   0.00008
  40       14F 0        0.00013   0.00005   0.00044  -0.00152   0.00015
  41       14F+1        0.00000   0.00000   0.00000   0.00000   0.00000
  42       14F-1        0.00002   0.00001  -0.00003   0.00000  -0.00130
  43       14F+2       -0.00016  -0.00005   0.00056  -0.00105   0.00025
  44       14F-2        0.00000   0.00000   0.00000   0.00000   0.00000
  45       14F+3        0.00000   0.00000   0.00000   0.00000   0.00000
  46       14F-3        0.00013  -0.00034  -0.00001  -0.00001  -0.00077
  47 2   Cl 1S         -0.10517  -0.22643   0.02056  -0.03979   0.05811
  48        2S          0.35472   0.76405  -0.06967   0.13631  -0.19720
  49        3S         -0.01056  -0.02246   0.00185  -0.00171   0.00322
  50        4S          0.02759   0.05940  -0.00535   0.01078  -0.01652
  51        5S         -0.00152  -0.00059  -0.00132   0.00058   0.00422
  52        6S         -0.00029  -0.00093  -0.00002  -0.00015  -0.00175
  53        7PX         0.00000   0.00000   0.00000   0.00000   0.00000
  54        7PY        -0.18306  -0.34213   0.06396   0.08629  -0.25997
  55        7PZ        -0.08509  -0.25763   0.00636   0.07038  -0.22276
  56        8PX         0.00000   0.00000   0.00000   0.00000   0.00000
  57        8PY         0.00324   0.00633  -0.00162  -0.00052   0.00443
  58        8PZ         0.00140   0.00481  -0.00045  -0.00035   0.00406
  59        9PX         0.00000   0.00000   0.00000   0.00000   0.00000
  60        9PY        -0.01043  -0.01951   0.00362   0.00518  -0.01591
  61        9PZ        -0.00487  -0.01467   0.00037   0.00423  -0.01376
  62       10PX         0.00000   0.00000   0.00000   0.00000   0.00000
  63       10PY         0.00105   0.00231  -0.00060  -0.00001   0.00004
  64       10PZ         0.00106   0.00127  -0.00053   0.00086  -0.00030
  65       11PX         0.00000   0.00000   0.00000   0.00000   0.00000
  66       11PY        -0.00009   0.00010  -0.00003  -0.00004  -0.00007
  67       11PZ         0.00011  -0.00005  -0.00012  -0.00010  -0.00022
  68       12D 0       -0.00004  -0.00003   0.00002  -0.00001   0.00001
  69       12D+1        0.00000   0.00000   0.00000   0.00000   0.00000
  70       12D-1        0.00011   0.00023   0.00002   0.00007  -0.00023
  71       12D+2       -0.00005  -0.00010   0.00002  -0.00012   0.00020
  72       12D-2        0.00000   0.00000   0.00000   0.00000   0.00000
  73       13D 0       -0.00015   0.00019   0.00016  -0.00013   0.00064
  74       13D+1        0.00000   0.00000   0.00000   0.00000   0.00000
  75       13D-1        0.00018   0.00053  -0.00011   0.00016   0.00142
  76       13D+2       -0.00033  -0.00044   0.00016   0.00017  -0.00051
  77       13D-2        0.00000   0.00000   0.00000   0.00000   0.00000
  78       14D 0        0.00008  -0.00022   0.00018  -0.00004  -0.00003
  79       14D+1        0.00000   0.00000   0.00000   0.00000   0.00000
  80       14D-1        0.00021   0.00027   0.00003   0.00023  -0.00009
  81       14D+2       -0.00026   0.00012  -0.00004   0.00011   0.00063
  82       14D-2        0.00000   0.00000   0.00000   0.00000   0.00000
  83       15F 0        0.00000   0.00004   0.00001   0.00000   0.00004
  84       15F+1        0.00000   0.00000   0.00000   0.00000   0.00000
  85       15F-1       -0.00001   0.00003   0.00001   0.00000   0.00010
  86       15F+2        0.00000  -0.00001   0.00000  -0.00001  -0.00003
  87       15F-2        0.00000   0.00000   0.00000   0.00000   0.00000
  88       15F+3        0.00000   0.00000   0.00000   0.00000   0.00000
  89       15F-3       -0.00002  -0.00004   0.00002  -0.00001   0.00001
  90       16F 0       -0.00003  -0.00013   0.00010  -0.00027  -0.00017
  91       16F+1        0.00000   0.00000   0.00000   0.00000   0.00000
  92       16F-1       -0.00002   0.00007   0.00004   0.00001   0.00038
  93       16F+2       -0.00008  -0.00016   0.00006  -0.00009  -0.00034
  94       16F-2        0.00000   0.00000   0.00000   0.00000   0.00000
  95       16F+3        0.00000   0.00000   0.00000   0.00000   0.00000
  96       16F-3       -0.00010  -0.00002  -0.00003   0.00014  -0.00003
  97 3   Cl 1S         -0.22478   0.10400   0.01585  -0.04703  -0.13407
  98        2S          0.75840  -0.35106  -0.05378   0.16099   0.45587
  99        3S         -0.02256   0.01029   0.00140  -0.00211  -0.00737
 100        4S          0.05893  -0.02727  -0.00412   0.01283   0.03798
 101        5S         -0.00116  -0.00069  -0.00147   0.00006  -0.01033
 102        6S         -0.00071   0.00051  -0.00013  -0.00009   0.00128
 103        7PX         0.00000   0.00000   0.00000   0.00000   0.00000
 104        7PY         0.36983  -0.14705  -0.05758  -0.11250  -0.59419
 105        7PZ        -0.23951   0.14419   0.00195   0.09143   0.41171
 106        8PX         0.00000   0.00000   0.00000   0.00000   0.00000
 107        8PY        -0.00683   0.00286   0.00148   0.00103   0.01021
 108        8PZ         0.00440  -0.00283  -0.00040  -0.00071  -0.00752
 109        9PX         0.00000   0.00000   0.00000   0.00000   0.00000
 110        9PY         0.02108  -0.00839  -0.00325  -0.00680  -0.03648
 111        9PZ        -0.01366   0.00819   0.00012   0.00552   0.02540
 112       10PX         0.00000   0.00000   0.00000   0.00000   0.00000
 113       10PY        -0.00241   0.00110   0.00056   0.00012   0.00076
 114       10PZ         0.00173  -0.00032  -0.00053   0.00092  -0.00108
 115       11PX         0.00000   0.00000   0.00000   0.00000   0.00000
 116       11PY         0.00000   0.00013   0.00003   0.00003  -0.00012
 117       11PZ         0.00006   0.00012  -0.00014  -0.00009   0.00020
 118       12D 0       -0.00005   0.00000   0.00002  -0.00001   0.00001
 119       12D+1        0.00000   0.00000   0.00000   0.00000   0.00000
 120       12D-1       -0.00023   0.00010  -0.00002  -0.00009  -0.00051
 121       12D+2       -0.00010   0.00004   0.00003  -0.00014  -0.00038
 122       12D-2        0.00000   0.00000   0.00000   0.00000   0.00000
 123       13D 0        0.00002  -0.00024   0.00014  -0.00013  -0.00040
 124       13D+1        0.00000   0.00000   0.00000   0.00000   0.00000
 125       13D-1       -0.00056   0.00030   0.00011  -0.00003   0.00262
 126       13D+2       -0.00058   0.00014   0.00014   0.00028   0.00164
 127       13D-2        0.00000   0.00000   0.00000   0.00000   0.00000
 128       14D 0       -0.00008   0.00023   0.00018  -0.00001   0.00004
 129       14D+1        0.00000   0.00000   0.00000   0.00000   0.00000
 130       14D-1       -0.00034   0.00007  -0.00004  -0.00027  -0.00020
 131       14D+2       -0.00011  -0.00027  -0.00005   0.00008  -0.00084
 132       14D-2        0.00000   0.00000   0.00000   0.00000   0.00000
 133       15F 0        0.00002  -0.00003   0.00001   0.00000  -0.00003
 134       15F+1        0.00000   0.00000   0.00000   0.00000   0.00000
 135       15F-1       -0.00001   0.00003   0.00000   0.00000   0.00007
 136       15F+2       -0.00001   0.00001   0.00000   0.00000   0.00005
 137       15F-2        0.00000   0.00000   0.00000   0.00000   0.00000
 138       15F+3        0.00000   0.00000   0.00000   0.00000   0.00000
 139       15F-3        0.00004  -0.00002  -0.00002   0.00000  -0.00006
 140       16F 0       -0.00011   0.00008   0.00010  -0.00025   0.00038
 141       16F+1        0.00000   0.00000   0.00000   0.00000   0.00000
 142       16F-1       -0.00005   0.00006  -0.00003   0.00000   0.00040
 143       16F+2       -0.00018   0.00007   0.00005  -0.00005   0.00061
 144       16F-2        0.00000   0.00000   0.00000   0.00000   0.00000
 145       16F+3        0.00000   0.00000   0.00000   0.00000   0.00000
 146       16F-3        0.00010   0.00004   0.00004  -0.00016  -0.00017
 147 4   S  1S         -0.01847  -0.00942  -0.21772  -0.15732   0.04182
 148        2S          0.06294   0.03211   0.74419   0.54335  -0.14429
 149        3S         -0.00185  -0.00094  -0.02070  -0.00818   0.00230
 150        4S          0.00407   0.00210   0.04988   0.03906  -0.01037
 151        5S          0.00148   0.00065   0.00652  -0.01188   0.00083
 152        6S          0.00194   0.00071  -0.00078  -0.00358  -0.00186
 153        7PX         0.00000   0.00000   0.00000   0.00000   0.00000
 154        7PY        -0.06777   0.17903  -0.00209   0.00720   0.08812
 155        7PZ         0.04705   0.02747   0.61543  -0.47519   0.17814
 156        8PX         0.00000   0.00000   0.00000   0.00000   0.00000
 157        8PY         0.00108  -0.00288   0.00005  -0.00007   0.00030
 158        8PZ        -0.00143  -0.00072  -0.01163   0.00824  -0.00217
 159        9PX         0.00000   0.00000   0.00000   0.00000   0.00000
 160        9PY        -0.00396   0.01048  -0.00014   0.00045   0.00533
 161        9PZ         0.00305   0.00174   0.03787  -0.03111   0.01146
 162       10PX         0.00000   0.00000   0.00000   0.00000   0.00000
 163       10PY        -0.00071   0.00170   0.00009   0.00012   0.00337
 164       10PZ        -0.00211  -0.00087  -0.00663   0.00510   0.00098
 165       11PX         0.00000   0.00000   0.00000   0.00000   0.00000
 166       11PY        -0.00006   0.00019  -0.00001   0.00000   0.00023
 167       11PZ        -0.00020  -0.00007   0.00012   0.00022   0.00032
 168       12D 0        0.00078   0.00032   0.00211  -0.00265   0.00024
 169       12D+1        0.00000   0.00000   0.00000   0.00000   0.00000
 170       12D-1       -0.00005   0.00018  -0.00003   0.00001  -0.00078
 171       12D+2       -0.00005  -0.00002  -0.00044   0.00019   0.00004
 172       12D-2        0.00000   0.00000   0.00000   0.00000   0.00000
 173       13D 0        0.00006   0.00003   0.00014   0.00022  -0.00013
 174       13D+1        0.00000   0.00000   0.00000   0.00000   0.00000
 175       13D-1       -0.00001   0.00002   0.00000   0.00000   0.00006
 176       13D+2        0.00004   0.00002   0.00030   0.00016  -0.00005
 177       13D-2        0.00000   0.00000   0.00000   0.00000   0.00000
 178       14D 0        0.00052   0.00019   0.00103  -0.00068  -0.00037
 179       14D+1        0.00000   0.00000   0.00000   0.00000   0.00000
 180       14D-1        0.00029  -0.00069  -0.00004  -0.00004  -0.00089
 181       14D+2       -0.00029  -0.00011   0.00039   0.00000   0.00027
 182       14D-2        0.00000   0.00000   0.00000   0.00000   0.00000
 183       15F 0       -0.00013  -0.00005  -0.00016   0.00025   0.00007
 184       15F+1        0.00000   0.00000   0.00000   0.00000   0.00000
 185       15F-1        0.00000   0.00000   0.00000   0.00000   0.00006
 186       15F+2        0.00000   0.00000   0.00012  -0.00016   0.00004
 187       15F-2        0.00000   0.00000   0.00000   0.00000   0.00000
 188       15F+3        0.00000   0.00000   0.00000   0.00000   0.00000
 189       15F-3       -0.00001   0.00003   0.00000   0.00000   0.00004
 190       16F 0       -0.00013  -0.00005  -0.00046   0.00048  -0.00011
 191       16F+1        0.00000   0.00000   0.00000   0.00000   0.00000
 192       16F-1        0.00001  -0.00004   0.00001   0.00000   0.00030
 193       16F+2        0.00011   0.00004  -0.00008  -0.00012  -0.00013
 194       16F-2        0.00000   0.00000   0.00000   0.00000   0.00000
 195       16F+3        0.00000   0.00000   0.00000   0.00000   0.00000
 196       16F-3        0.00000   0.00000   0.00000   0.00000   0.00003
                          11        12        13        14        15
     Eigenvalues --     2.00001   2.00001   2.00000   2.00000   2.00000
   1 1   C  1S          0.22094   0.00000   0.69964   0.00180   0.00172
   2        2S         -0.00412   0.00000  -0.00702  -0.00003  -0.00006
   3        3S          0.00786   0.00000   0.03009   0.00011   0.00008
   4        4S          0.01069   0.00000  -0.02256  -0.00042  -0.00015
   5        5S          0.00456   0.00000  -0.00551  -0.00020  -0.00016
   6        6PX         0.00000  -0.00182   0.00000   0.00000   0.00000
   7        6PY         0.00111   0.00000   0.00000   0.00000   0.00000
   8        6PZ         0.00193   0.00000  -0.00126  -0.00001   0.00000
   9        7PX         0.00000  -0.00140   0.00000   0.00000   0.00000
  10        7PY        -0.00008   0.00000  -0.00005   0.00000   0.00000
  11        7PZ         0.00156   0.00000   0.00251   0.00000  -0.00008
  12        8PX         0.00000   0.00073   0.00000   0.00000   0.00000
  13        8PY        -0.00090   0.00000   0.00004   0.00000   0.00000
  14        8PZ        -0.00274   0.00000   0.00246  -0.00006  -0.00001
  15        9PX         0.00000  -0.00103   0.00000   0.00000   0.00000
  16        9PY         0.00030   0.00000   0.00000   0.00000   0.00000
  17        9PZ         0.00029   0.00000   0.00052  -0.00003  -0.00005
  18       10D 0        0.00006   0.00000   0.00030   0.00000   0.00000
  19       10D+1        0.00000  -0.00018   0.00000   0.00000   0.00000
  20       10D-1        0.00000   0.00000   0.00000   0.00000   0.00000
  21       10D+2       -0.00003   0.00000  -0.00021   0.00000   0.00000
  22       10D-2        0.00000   0.00000   0.00000   0.00000   0.00000
  23       11D 0        0.00070   0.00000  -0.00031  -0.00004  -0.00005
  24       11D+1        0.00000   0.00118   0.00000   0.00000   0.00000
  25       11D-1        0.00102   0.00000   0.00002   0.00000   0.00000
  26       11D+2       -0.00115   0.00000   0.00312   0.00006  -0.00001
  27       11D-2        0.00000  -0.00001   0.00000   0.00000   0.00000
  28       12D 0       -0.00164   0.00000  -0.00124  -0.00006  -0.00007
  29       12D+1        0.00000  -0.00102   0.00000   0.00000   0.00000
  30       12D-1        0.00187   0.00000   0.00010   0.00001   0.00000
  31       12D+2       -0.00249   0.00000   0.00171   0.00003  -0.00001
  32       12D-2        0.00000   0.00000   0.00000   0.00000   0.00000
  33       13F 0        0.00025   0.00000   0.00027   0.00000   0.00000
  34       13F+1        0.00000  -0.00018   0.00000   0.00000   0.00000
  35       13F-1       -0.00001   0.00000   0.00000   0.00000   0.00000
  36       13F+2       -0.00007   0.00000  -0.00004  -0.00001   0.00000
  37       13F-2        0.00000   0.00000   0.00000   0.00000   0.00000
  38       13F+3        0.00000   0.00007   0.00000   0.00000   0.00000
  39       13F-3       -0.00003   0.00000  -0.00001   0.00000   0.00000
  40       14F 0        0.00026   0.00000  -0.00113  -0.00003   0.00001
  41       14F+1        0.00000   0.00119   0.00000   0.00000   0.00000
  42       14F-1        0.00045   0.00000  -0.00001   0.00000   0.00000
  43       14F+2        0.00055   0.00000  -0.00139  -0.00003   0.00001
  44       14F-2        0.00000  -0.00002   0.00000   0.00000   0.00000
  45       14F+3        0.00000  -0.00014   0.00000   0.00000   0.00000
  46       14F-3        0.00034   0.00000  -0.00001   0.00000   0.00000
  47 2   Cl 1S         -0.12573   0.00000   0.02950   0.69295  -0.27637
  48        2S          0.42784   0.00000  -0.10550   0.00659  -0.00304
  49        3S         -0.00675   0.00000   0.00054   0.00010  -0.00006
  50        4S          0.03556   0.00000  -0.00953   0.00012  -0.00008
  51        5S         -0.00992   0.00000   0.00893   0.00006   0.00006
  52        6S          0.00018   0.00000   0.00340   0.00005   0.00006
  53        7PX         0.00000   0.08068   0.00000   0.00000   0.00000
  54        7PY         0.58111   0.00000  -0.27859  -0.00163  -0.00039
  55        7PZ         0.35641   0.00000  -0.18571  -0.00103  -0.00038
  56        8PX         0.00000  -0.00043   0.00000   0.00000   0.00000
  57        8PY        -0.00988   0.00000   0.00477   0.00008  -0.00002
  58        8PZ        -0.00634   0.00000   0.00340   0.00006  -0.00001
  59        9PX         0.00000   0.00472   0.00000   0.00000   0.00000
  60        9PY         0.03573   0.00000  -0.01801  -0.00014  -0.00001
  61        9PZ         0.02197   0.00000  -0.01206  -0.00009  -0.00002
  62       10PX         0.00000  -0.00069   0.00000   0.00000   0.00000
  63       10PY        -0.00107   0.00000   0.00354   0.00002   0.00006
  64       10PZ        -0.00160   0.00000   0.00243   0.00001   0.00002
  65       11PX         0.00000   0.00033   0.00000   0.00000   0.00000
  66       11PY         0.00008   0.00000   0.00028   0.00000   0.00001
  67       11PZ         0.00006   0.00000   0.00010   0.00001   0.00002
  68       12D 0        0.00001   0.00000   0.00001   0.00000   0.00000
  69       12D+1        0.00000  -0.00006   0.00000   0.00000   0.00000
  70       12D-1        0.00048   0.00000  -0.00031   0.00000   0.00000
  71       12D+2       -0.00035   0.00000   0.00021   0.00000   0.00000
  72       12D-2        0.00000  -0.00004   0.00000   0.00000   0.00000
  73       13D 0        0.00011   0.00000   0.00005   0.00000   0.00000
  74       13D+1        0.00000  -0.00005   0.00000   0.00000   0.00000
  75       13D-1       -0.00218   0.00000   0.00194   0.00003   0.00000
  76       13D+2        0.00178   0.00000  -0.00121  -0.00002   0.00000
  77       13D-2        0.00000  -0.00022   0.00000   0.00000   0.00000
  78       14D 0        0.00005   0.00000   0.00012   0.00000   0.00000
  79       14D+1        0.00000  -0.00023   0.00000   0.00000   0.00000
  80       14D-1        0.00021   0.00000   0.00068  -0.00001   0.00002
  81       14D+2       -0.00054   0.00000  -0.00058   0.00000  -0.00002
  82       14D-2        0.00000  -0.00055   0.00000   0.00000   0.00000
  83       15F 0       -0.00001   0.00000   0.00002   0.00000   0.00000
  84       15F+1        0.00000   0.00000   0.00000   0.00000   0.00000
  85       15F-1       -0.00001   0.00000  -0.00001   0.00000   0.00000
  86       15F+2        0.00005   0.00000  -0.00001   0.00000   0.00000
  87       15F-2        0.00000  -0.00001   0.00000   0.00000   0.00000
  88       15F+3        0.00000  -0.00003   0.00000   0.00000   0.00000
  89       15F-3        0.00010   0.00000  -0.00005   0.00000   0.00000
  90       16F 0        0.00035   0.00000  -0.00027   0.00000   0.00000
  91       16F+1        0.00000   0.00000   0.00000   0.00000   0.00000
  92       16F-1       -0.00015   0.00000   0.00032   0.00000   0.00000
  93       16F+2        0.00049   0.00000  -0.00046   0.00000   0.00000
  94       16F-2        0.00000   0.00000   0.00000   0.00000   0.00000
  95       16F+3        0.00000   0.00020   0.00000   0.00000   0.00000
  96       16F-3        0.00021   0.00000  -0.00018   0.00000   0.00000
  97 3   Cl 1S         -0.04034   0.00000   0.03041   0.61949  -0.23318
  98        2S          0.13778   0.00000  -0.10878   0.00581  -0.00260
  99        3S         -0.00209   0.00000   0.00062   0.00009  -0.00006
 100        4S          0.01134   0.00000  -0.00981   0.00010  -0.00007
 101        5S         -0.00350   0.00000   0.00917   0.00008   0.00005
 102        6S         -0.00137   0.00000   0.00344   0.00006   0.00006
 103        7PX         0.00000   0.08164   0.00000   0.00000   0.00000
 104        7PY        -0.18458   0.00000   0.27833   0.00159   0.00041
 105        7PZ         0.06604   0.00000  -0.18833  -0.00101  -0.00040
 106        8PX         0.00000  -0.00045   0.00000   0.00000   0.00000
 107        8PY         0.00313   0.00000  -0.00480  -0.00008   0.00002
 108        8PZ        -0.00119   0.00000   0.00348   0.00006  -0.00001
 109        9PX         0.00000   0.00478   0.00000   0.00000   0.00000
 110        9PY        -0.01139   0.00000   0.01799   0.00013   0.00002
 111        9PZ         0.00406   0.00000  -0.01222  -0.00009  -0.00002
 112       10PX         0.00000  -0.00069   0.00000   0.00000   0.00000
 113       10PY         0.00071   0.00000  -0.00356  -0.00003  -0.00006
 114       10PZ        -0.00135   0.00000   0.00242   0.00001   0.00002
 115       11PX         0.00000   0.00034   0.00000   0.00000   0.00000
 116       11PY         0.00000   0.00000  -0.00027  -0.00001  -0.00001
 117       11PZ        -0.00015   0.00000   0.00010   0.00001   0.00002
 118       12D 0        0.00002   0.00000   0.00001   0.00000   0.00000
 119       12D+1        0.00000  -0.00007   0.00000   0.00000   0.00000
 120       12D-1       -0.00014   0.00000   0.00032   0.00000   0.00000
 121       12D+2       -0.00008   0.00000   0.00021   0.00000   0.00000
 122       12D-2        0.00000   0.00005   0.00000   0.00000   0.00000
 123       13D 0        0.00051   0.00000   0.00007   0.00000   0.00000
 124       13D+1        0.00000  -0.00006   0.00000   0.00000   0.00000
 125       13D-1        0.00041   0.00000  -0.00195  -0.00003   0.00001
 126       13D+2        0.00077   0.00000  -0.00120  -0.00002   0.00000
 127       13D-2        0.00000   0.00023   0.00000   0.00000   0.00000
 128       14D 0       -0.00002   0.00000   0.00012   0.00000   0.00000
 129       14D+1        0.00000  -0.00023   0.00000   0.00000   0.00000
 130       14D-1       -0.00007   0.00000  -0.00066   0.00001  -0.00001
 131       14D+2        0.00012   0.00000  -0.00057   0.00000  -0.00002
 132       14D-2        0.00000   0.00055   0.00000   0.00000   0.00000
 133       15F 0        0.00003   0.00000   0.00003   0.00000   0.00000
 134       15F+1        0.00000   0.00000   0.00000   0.00000   0.00000
 135       15F-1       -0.00006   0.00000   0.00002   0.00000   0.00000
 136       15F+2        0.00002   0.00000   0.00000   0.00000   0.00000
 137       15F-2        0.00000   0.00001   0.00000   0.00000   0.00000
 138       15F+3        0.00000  -0.00003   0.00000   0.00000   0.00000
 139       15F-3       -0.00008   0.00000   0.00004   0.00000   0.00000
 140       16F 0        0.00009   0.00000  -0.00026   0.00000   0.00000
 141       16F+1        0.00000   0.00001   0.00000   0.00000   0.00000
 142       16F-1       -0.00016   0.00000  -0.00032   0.00000   0.00000
 143       16F+2        0.00007   0.00000  -0.00045   0.00000   0.00000
 144       16F-2        0.00000   0.00000   0.00000   0.00000   0.00000
 145       16F+3        0.00000   0.00020   0.00000   0.00000   0.00000
 146       16F-3       -0.00010   0.00000   0.00017   0.00000   0.00000
 147 4   S  1S          0.07944   0.00000   0.04994   0.36143   0.92857
 148        2S         -0.27402   0.00000  -0.18488   0.00428   0.01220
 149        3S          0.00439   0.00000   0.00154   0.00013   0.00030
 150        4S         -0.01967   0.00000  -0.01370  -0.00004  -0.00003
 151        5S          0.00066   0.00000   0.00627   0.00018   0.00001
 152        6S         -0.00457   0.00000   0.00114   0.00013   0.00007
 153        7PX         0.00000   0.96521   0.00000   0.00000   0.00000
 154        7PY        -0.04504   0.00000  -0.00211   0.00000  -0.00002
 155        7PZ         0.35160   0.00000   0.42467   0.00200   0.00230
 156        8PX         0.00000  -0.01126   0.00000   0.00000   0.00000
 157        8PY        -0.00001   0.00000   0.00004   0.00000   0.00000
 158        8PZ        -0.00399   0.00000  -0.00460  -0.00011  -0.00016
 159        9PX         0.00000   0.06175   0.00000   0.00000   0.00000
 160        9PY        -0.00275   0.00000  -0.00014   0.00000   0.00000
 161        9PZ         0.02257   0.00000   0.02820   0.00016   0.00022
 162       10PX         0.00000   0.00103   0.00000   0.00000   0.00000
 163       10PY        -0.00132   0.00000  -0.00005   0.00000   0.00000
 164       10PZ         0.00275   0.00000  -0.00188  -0.00009   0.00004
 165       11PX         0.00000  -0.00028   0.00000   0.00000   0.00000
 166       11PY        -0.00011   0.00000   0.00000   0.00000   0.00000
 167       11PZ         0.00074   0.00000  -0.00015  -0.00001   0.00001
 168       12D 0        0.00025   0.00000   0.00113   0.00004   0.00005
 169       12D+1        0.00000   0.00217   0.00000   0.00000   0.00000
 170       12D-1        0.00025   0.00000  -0.00002   0.00000   0.00000
 171       12D+2        0.00011   0.00000   0.00022   0.00000  -0.00001
 172       12D-2        0.00000  -0.00001   0.00000   0.00000   0.00000
 173       13D 0       -0.00028   0.00000  -0.00062   0.00000   0.00001
 174       13D+1        0.00000  -0.00018   0.00000   0.00000   0.00000
 175       13D-1       -0.00002   0.00000   0.00001   0.00000   0.00000
 176       13D+2       -0.00010   0.00000  -0.00008   0.00000   0.00001
 177       13D-2        0.00000   0.00000   0.00000   0.00000   0.00000
 178       14D 0       -0.00088   0.00000   0.00039   0.00000  -0.00004
 179       14D+1        0.00000  -0.00047   0.00000   0.00000   0.00000
 180       14D-1        0.00032   0.00000   0.00002   0.00000   0.00000
 181       14D+2        0.00063   0.00000  -0.00015   0.00000   0.00001
 182       14D-2        0.00000   0.00000   0.00000   0.00000   0.00000
 183       15F 0        0.00018   0.00000   0.00039  -0.00001  -0.00002
 184       15F+1        0.00000  -0.00026   0.00000   0.00000   0.00000
 185       15F-1       -0.00002   0.00000  -0.00001   0.00000   0.00000
 186       15F+2        0.00007   0.00000   0.00009   0.00000   0.00000
 187       15F-2        0.00000   0.00000   0.00000   0.00000   0.00000
 188       15F+3        0.00000   0.00013   0.00000   0.00000   0.00000
 189       15F-3       -0.00002   0.00000   0.00000   0.00000   0.00000
 190       16F 0       -0.00021   0.00000  -0.00037   0.00000   0.00000
 191       16F+1        0.00000  -0.00048   0.00000   0.00000   0.00000
 192       16F-1       -0.00010   0.00000   0.00001   0.00000   0.00000
 193       16F+2       -0.00030   0.00000  -0.00019   0.00000   0.00000
 194       16F-2        0.00000   0.00000   0.00000   0.00000   0.00000
 195       16F+3        0.00000  -0.00012   0.00000   0.00000   0.00000
 196       16F-3       -0.00001   0.00000   0.00000   0.00000   0.00000
                          16        17        18        19        20
     Eigenvalues --     2.00000   1.97697   1.97419   1.97000   1.95130
   1 1   C  1S         -0.00006  -0.08577   0.00099  -0.06957  -0.04043
   2        2S          0.00000   0.22081  -0.00260   0.18677   0.11249
   3        3S          0.00000   0.04816  -0.00050   0.04467   0.02705
   4        4S          0.00002   0.04438  -0.00115   0.06295   0.05623
   5        5S          0.00001   0.01147  -0.00050   0.01605   0.00162
   6        6PX         0.00000   0.00000   0.00000   0.00000   0.00000
   7        6PY        -0.00001   0.00189   0.06098  -0.00042   0.00129
   8        6PZ         0.00000  -0.01111  -0.00079   0.10386  -0.05494
   9        7PX         0.00000   0.00000   0.00000   0.00000   0.00000
  10        7PY         0.00004   0.00244   0.08381  -0.00034   0.00169
  11        7PZ         0.00000  -0.02147  -0.00077   0.12974  -0.07671
  12        8PX         0.00000   0.00000   0.00000   0.00000   0.00000
  13        8PY        -0.00005   0.00006   0.00400   0.00028   0.00099
  14        8PZ         0.00000   0.00802   0.00025   0.00451  -0.04646
  15        9PX         0.00000   0.00000   0.00000   0.00000   0.00000
  16        9PY        -0.00001   0.00027   0.00831   0.00017   0.00004
  17        9PZ         0.00000  -0.00385   0.00011   0.00844  -0.02169
  18       10D 0        0.00000   0.00433  -0.00008   0.00970   0.01023
  19       10D+1        0.00000   0.00000   0.00000   0.00000   0.00000
  20       10D-1        0.00000  -0.00044  -0.00851  -0.00006  -0.00011
  21       10D+2        0.00000  -0.00710   0.00002   0.00121   0.00366
  22       10D-2        0.00000   0.00000   0.00000   0.00000   0.00000
  23       11D 0        0.00000   0.00606  -0.00009   0.01114   0.03017
  24       11D+1        0.00000   0.00000   0.00000   0.00000   0.00000
  25       11D-1       -0.00006  -0.00070  -0.01776  -0.00024   0.00006
  26       11D+2        0.00000  -0.01104   0.00019   0.00304   0.01362
  27       11D-2        0.00000   0.00000   0.00000   0.00000   0.00000
  28       12D 0        0.00000   0.00385  -0.00001   0.00383  -0.04133
  29       12D+1        0.00000   0.00000   0.00000   0.00000   0.00000
  30       12D-1       -0.00002   0.00010   0.01214  -0.00058  -0.00133
  31       12D+2        0.00000   0.00769   0.00009   0.00471  -0.02644
  32       12D-2        0.00000   0.00000   0.00000   0.00000   0.00000
  33       13F 0        0.00000   0.00400  -0.00004   0.00470  -0.00110
  34       13F+1        0.00000   0.00000   0.00000   0.00000   0.00000
  35       13F-1        0.00000   0.00009   0.00190  -0.00010   0.00013
  36       13F+2        0.00000   0.00461  -0.00001  -0.00023   0.00165
  37       13F-2        0.00000   0.00000   0.00000   0.00000   0.00000
  38       13F+3        0.00000   0.00000   0.00000   0.00000   0.00000
  39       13F-3        0.00000  -0.00007  -0.00242  -0.00002  -0.00002
  40       14F 0        0.00000   0.00133  -0.00008  -0.00094  -0.00298
  41       14F+1        0.00000   0.00000   0.00000   0.00000   0.00000
  42       14F-1       -0.00001   0.00006   0.00056  -0.00010  -0.00033
  43       14F+2        0.00000   0.00181  -0.00010  -0.00009   0.00149
  44       14F-2        0.00000   0.00000   0.00000   0.00000   0.00000
  45       14F+3        0.00000   0.00000   0.00000   0.00000   0.00000
  46       14F-3       -0.00001   0.00000  -0.00070  -0.00004  -0.00012
  47 2   Cl 1S          0.66174   0.04429  -0.05401  -0.02147  -0.01144
  48        2S          0.00673  -0.16556   0.20205   0.08031   0.04340
  49        3S          0.00011   0.35406  -0.43290  -0.17324  -0.09458
  50        4S          0.00015   0.04287  -0.05439  -0.02270  -0.01485
  51        5S         -0.00005   0.21448  -0.26904  -0.11337  -0.09760
  52        6S         -0.00005  -0.00609   0.01007   0.00263  -0.02543
  53        7PX         0.00000   0.00000   0.00000   0.00000   0.00000
  54        7PY        -0.00041  -0.01620   0.00009   0.00082  -0.11056
  55        7PZ        -0.00036  -0.00695   0.00742  -0.01886   0.10461
  56        8PX         0.00000   0.00000   0.00000   0.00000   0.00000
  57        8PY         0.00006   0.02452   0.01579  -0.00159   0.25231
  58        8PZ         0.00004   0.00509  -0.00994   0.04820  -0.25042
  59        9PX         0.00000   0.00000   0.00000   0.00000   0.00000
  60        9PY        -0.00005   0.01054   0.00727  -0.00006   0.12042
  61        9PZ        -0.00004   0.00255  -0.00414   0.02256  -0.11999
  62       10PX         0.00000   0.00000   0.00000   0.00000   0.00000
  63       10PY        -0.00006  -0.00014   0.01514  -0.00701   0.13103
  64       10PZ        -0.00003  -0.00294   0.00343   0.02635  -0.18022
  65       11PX         0.00000   0.00000   0.00000   0.00000   0.00000
  66       11PY        -0.00001  -0.00388   0.00294   0.00040   0.00064
  67       11PZ         0.00000  -0.00154   0.00318  -0.00011  -0.00619
  68       12D 0        0.00000  -0.00060  -0.00074   0.00271  -0.00684
  69       12D+1        0.00000   0.00000   0.00000   0.00000   0.00000
  70       12D-1        0.00001   0.00704  -0.00539   0.00268   0.00256
  71       12D+2        0.00000  -0.00587   0.00276   0.00053  -0.00996
  72       12D-2        0.00000   0.00000   0.00000   0.00000   0.00000
  73       13D 0        0.00000  -0.00133  -0.00173   0.00463  -0.00836
  74       13D+1        0.00000   0.00000   0.00000   0.00000   0.00000
  75       13D-1        0.00002   0.00698  -0.00478   0.00433   0.00175
  76       13D+2       -0.00001  -0.00632   0.00190   0.00147  -0.01193
  77       13D-2        0.00000   0.00000   0.00000   0.00000   0.00000
  78       14D 0        0.00000   0.00096   0.00102   0.00293  -0.00868
  79       14D+1        0.00000   0.00000   0.00000   0.00000   0.00000
  80       14D-1       -0.00002  -0.00179   0.00308   0.00203  -0.00380
  81       14D+2        0.00002   0.00161  -0.00252   0.00077  -0.00666
  82       14D-2        0.00000   0.00000   0.00000   0.00000   0.00000
  83       15F 0        0.00000  -0.00130   0.00090   0.00053  -0.00219
  84       15F+1        0.00000   0.00000   0.00000   0.00000   0.00000
  85       15F-1        0.00000   0.00062  -0.00149   0.00133  -0.00391
  86       15F+2        0.00000  -0.00244   0.00213  -0.00019  -0.00158
  87       15F-2        0.00000   0.00000   0.00000   0.00000   0.00000
  88       15F+3        0.00000   0.00000   0.00000   0.00000   0.00000
  89       15F-3        0.00000  -0.00184   0.00084   0.00062  -0.00339
  90       16F 0        0.00000  -0.00019  -0.00033   0.00000  -0.00040
  91       16F+1        0.00000   0.00000   0.00000   0.00000   0.00000
  92       16F-1        0.00000  -0.00019   0.00001   0.00153  -0.00212
  93       16F+2        0.00000   0.00003  -0.00063  -0.00029  -0.00056
  94       16F-2        0.00000   0.00000   0.00000   0.00000   0.00000
  95       16F+3        0.00000   0.00000   0.00000   0.00000   0.00000
  96       16F-3        0.00000   0.00023  -0.00037   0.00024  -0.00133
  97 3   Cl 1S         -0.74589   0.04636   0.05219  -0.02130  -0.01171
  98        2S         -0.00751  -0.17324  -0.19518   0.07968   0.04448
  99        3S         -0.00012   0.37059   0.41835  -0.17198  -0.09690
 100        4S         -0.00016   0.04494   0.05258  -0.02249  -0.01522
 101        5S          0.00004   0.22290   0.25972  -0.11365  -0.10271
 102        6S          0.00005  -0.00780  -0.01010   0.00199  -0.02699
 103        7PX         0.00000   0.00000   0.00000   0.00000   0.00000
 104        7PY        -0.00060   0.01693  -0.00021  -0.00096   0.11246
 105        7PZ         0.00048  -0.00782  -0.00760  -0.01907   0.10020
 106        8PX         0.00000   0.00000   0.00000   0.00000   0.00000
 107        8PY         0.00007  -0.02481   0.01649   0.00199  -0.25613
 108        8PZ        -0.00005   0.00610   0.01028   0.04854  -0.24076
 109        9PX         0.00000   0.00000   0.00000   0.00000   0.00000
 110        9PY        -0.00007  -0.01099   0.00742   0.00021  -0.12241
 111        9PZ         0.00005   0.00320   0.00439   0.02286  -0.11518
 112       10PX         0.00000   0.00000   0.00000   0.00000   0.00000
 113       10PY        -0.00006   0.00148   0.01545   0.00762  -0.13157
 114       10PZ         0.00003  -0.00327  -0.00336   0.02634  -0.17504
 115       11PX         0.00000   0.00000   0.00000   0.00000   0.00000
 116       11PY        -0.00001   0.00412   0.00276  -0.00034  -0.00032
 117       11PZ         0.00000  -0.00176  -0.00318  -0.00020  -0.00585
 118       12D 0        0.00000  -0.00052   0.00084   0.00284  -0.00690
 119       12D+1        0.00000   0.00000   0.00000   0.00000   0.00000
 120       12D-1        0.00001  -0.00762  -0.00540  -0.00269  -0.00314
 121       12D+2        0.00000  -0.00618  -0.00266   0.00060  -0.01041
 122       12D-2        0.00000   0.00000   0.00000   0.00000   0.00000
 123       13D 0        0.00000  -0.00115   0.00184   0.00466  -0.00844
 124       13D+1        0.00000   0.00000   0.00000   0.00000   0.00000
 125       13D-1        0.00002  -0.00724  -0.00458  -0.00424  -0.00221
 126       13D+2        0.00001  -0.00632  -0.00162   0.00151  -0.01224
 127       13D-2        0.00000   0.00000   0.00000   0.00000   0.00000
 128       14D 0        0.00000   0.00100  -0.00111   0.00307  -0.00867
 129       14D+1        0.00000   0.00000   0.00000   0.00000   0.00000
 130       14D-1       -0.00002   0.00211   0.00319  -0.00201   0.00351
 131       14D+2       -0.00002   0.00196   0.00258   0.00074  -0.00682
 132       14D-2        0.00000   0.00000   0.00000   0.00000   0.00000
 133       15F 0        0.00000  -0.00138  -0.00088   0.00057  -0.00235
 134       15F+1        0.00000   0.00000   0.00000   0.00000   0.00000
 135       15F-1        0.00000  -0.00076  -0.00157  -0.00133   0.00382
 136       15F+2        0.00000  -0.00265  -0.00214  -0.00014  -0.00181
 137       15F-2        0.00000   0.00000   0.00000   0.00000   0.00000
 138       15F+3        0.00000   0.00000   0.00000   0.00000   0.00000
 139       15F-3        0.00000   0.00193   0.00080  -0.00065   0.00348
 140       16F 0        0.00000  -0.00012   0.00035   0.00002  -0.00042
 141       16F+1        0.00000   0.00000   0.00000   0.00000   0.00000
 142       16F-1        0.00000   0.00018   0.00007  -0.00147   0.00204
 143       16F+2        0.00000   0.00016   0.00072  -0.00028  -0.00059
 144       16F-2        0.00000   0.00000   0.00000   0.00000   0.00000
 145       16F+3        0.00000   0.00000   0.00000   0.00000   0.00000
 146       16F-3        0.00000  -0.00034  -0.00041  -0.00019   0.00128
 147 4   S  1S          0.00962   0.01648  -0.00050   0.05805   0.00457
 148        2S          0.00016  -0.06335   0.00190  -0.22212  -0.01751
 149        3S          0.00000   0.13127  -0.00401   0.47011   0.03843
 150        4S          0.00000   0.01579  -0.00049   0.06108   0.00538
 151        5S         -0.00001   0.05490  -0.00184   0.24353   0.07657
 152        6S         -0.00001  -0.00306   0.00027  -0.03124   0.02511
 153        7PX         0.00000   0.00000   0.00000   0.00000   0.00000
 154        7PY         0.00024  -0.00029  -0.01106  -0.00045  -0.00121
 155        7PZ        -0.00005   0.02163  -0.00065   0.04433   0.00201
 156        8PX         0.00000   0.00000   0.00000   0.00000   0.00000
 157        8PY         0.00002   0.00060   0.03237   0.00081   0.00303
 158        8PZ         0.00000  -0.03271   0.00106  -0.05564  -0.00658
 159        9PX         0.00000   0.00000   0.00000   0.00000   0.00000
 160        9PY         0.00001   0.00027   0.01227   0.00035   0.00121
 161        9PZ         0.00000  -0.01617   0.00051  -0.03098  -0.00189
 162       10PX         0.00000   0.00000   0.00000   0.00000   0.00000
 163       10PY         0.00002   0.00028   0.00997   0.00062   0.00306
 164       10PZ         0.00001   0.00083   0.00000   0.01616  -0.01739
 165       11PX         0.00000   0.00000   0.00000   0.00000   0.00000
 166       11PY         0.00000  -0.00004  -0.00149  -0.00006   0.00011
 167       11PZ         0.00000   0.00231  -0.00010   0.00823   0.00052
 168       12D 0        0.00000   0.00675  -0.00018   0.00985   0.00075
 169       12D+1        0.00000   0.00000   0.00000   0.00000   0.00000
 170       12D-1       -0.00002  -0.00018  -0.00508  -0.00026  -0.00045
 171       12D+2        0.00000   0.00017  -0.00003   0.00037   0.00325
 172       12D-2        0.00000   0.00000   0.00000   0.00000   0.00000
 173       13D 0        0.00000   0.00990  -0.00031   0.02409   0.00125
 174       13D+1        0.00000   0.00000   0.00000   0.00000   0.00000
 175       13D-1        0.00000  -0.00015  -0.00339  -0.00030  -0.00024
 176       13D+2        0.00000  -0.00001  -0.00001   0.00099   0.00240
 177       13D-2        0.00000   0.00000   0.00000   0.00000   0.00000
 178       14D 0        0.00000  -0.00237   0.00011  -0.00880  -0.00078
 179       14D+1        0.00000   0.00000   0.00000   0.00000   0.00000
 180       14D-1       -0.00001  -0.00006   0.00200  -0.00006  -0.00056
 181       14D+2        0.00000  -0.00175   0.00001  -0.00088   0.00538
 182       14D-2        0.00000   0.00000   0.00000   0.00000   0.00000
 183       15F 0        0.00000  -0.00299   0.00012  -0.00874  -0.00079
 184       15F+1        0.00000   0.00000   0.00000   0.00000   0.00000
 185       15F-1        0.00000   0.00005   0.00170   0.00018   0.00008
 186       15F+2        0.00000   0.00018   0.00001  -0.00031  -0.00042
 187       15F-2        0.00000   0.00000   0.00000   0.00000   0.00000
 188       15F+3        0.00000   0.00000   0.00000   0.00000   0.00000
 189       15F-3        0.00000   0.00000   0.00009   0.00001   0.00000
 190       16F 0        0.00000   0.00068  -0.00003   0.00505  -0.00015
 191       16F+1        0.00000   0.00000   0.00000   0.00000   0.00000
 192       16F-1        0.00001   0.00005   0.00077  -0.00004   0.00009
 193       16F+2        0.00000  -0.00061   0.00004  -0.00075  -0.00131
 194       16F-2        0.00000   0.00000   0.00000   0.00000   0.00000
 195       16F+3        0.00000   0.00000   0.00000   0.00000   0.00000
 196       16F-3        0.00000   0.00001   0.00035   0.00000   0.00005
                          21        22        23        24        25
     Eigenvalues --     1.94894   1.94876   1.94808   1.94659   1.94109
   1 1   C  1S          0.11240   0.04203   0.00000   0.00000   0.00532
   2        2S         -0.31422  -0.11749   0.00000   0.00000  -0.01517
   3        3S         -0.07532  -0.02820   0.00000   0.00000  -0.00393
   4        4S         -0.19689  -0.07343   0.00000   0.00000  -0.01083
   5        5S         -0.00750  -0.00339   0.00000   0.00000   0.00015
   6        6PX         0.00000   0.00000   0.09635   0.00278   0.00000
   7        6PY        -0.03282   0.07461   0.00000   0.00000   0.16808
   8        6PZ         0.03486   0.01422   0.00000   0.00000  -0.01580
   9        7PX         0.00000   0.00000   0.13760   0.00383   0.00000
  10        7PY        -0.04502   0.10219   0.00000   0.00000   0.23692
  11        7PZ         0.05884   0.02384   0.00000   0.00000  -0.02063
  12        8PX         0.00000   0.00000   0.06219   0.00097   0.00000
  13        8PY        -0.01336   0.03207   0.00000   0.00000   0.08283
  14        8PZ        -0.01769  -0.00620   0.00000   0.00000  -0.00285
  15        9PX         0.00000   0.00000   0.00653   0.00010   0.00000
  16        9PY        -0.00338   0.00996   0.00000   0.00000  -0.00728
  17        9PZ        -0.00336  -0.00087   0.00000   0.00000   0.00145
  18       10D 0        0.00199   0.00041   0.00000   0.00000  -0.00078
  19       10D+1        0.00000   0.00000  -0.00724  -0.00022   0.00000
  20       10D-1       -0.00116   0.00481   0.00000   0.00000  -0.00698
  21       10D+2        0.00713   0.00243   0.00000   0.00000  -0.00050
  22       10D-2        0.00000   0.00000   0.00010   0.01063   0.00000
  23       11D 0        0.00744   0.00210   0.00000   0.00000  -0.00061
  24       11D+1        0.00000   0.00000  -0.02313  -0.00046   0.00000
  25       11D-1       -0.00490   0.01589   0.00000   0.00000  -0.01384
  26       11D+2        0.01630   0.00559   0.00000   0.00000  -0.00069
  27       11D-2        0.00000   0.00000  -0.00011   0.03235   0.00000
  28       12D 0       -0.02050  -0.00702   0.00000   0.00000   0.00000
  29       12D+1        0.00000   0.00000   0.01638   0.00069   0.00000
  30       12D-1        0.01297  -0.03496   0.00000   0.00000   0.01096
  31       12D+2       -0.00634  -0.00199   0.00000   0.00000   0.00018
  32       12D-2        0.00000   0.00000  -0.00024  -0.01091   0.00000
  33       13F 0       -0.00344  -0.00111   0.00000   0.00000  -0.00026
  34       13F+1        0.00000   0.00000   0.00228   0.00009   0.00000
  35       13F-1        0.00070  -0.00251   0.00000   0.00000   0.00769
  36       13F+2       -0.00451  -0.00160   0.00000   0.00000   0.00035
  37       13F-2        0.00000   0.00000  -0.00009  -0.00445   0.00000
  38       13F+3        0.00000   0.00000  -0.00484  -0.00012   0.00000
  39       13F-3        0.00116  -0.00275   0.00000   0.00000  -0.00296
  40       14F 0       -0.00649  -0.00238   0.00000   0.00000   0.00002
  41       14F+1        0.00000   0.00000   0.00233   0.00002   0.00000
  42       14F-1        0.00289  -0.00817   0.00000   0.00000  -0.00064
  43       14F+2       -0.00186  -0.00065   0.00000   0.00000  -0.00047
  44       14F-2        0.00000   0.00000   0.00016  -0.00570   0.00000
  45       14F+3        0.00000   0.00000  -0.00335   0.00004   0.00000
  46       14F-3        0.00094  -0.00291   0.00000   0.00000   0.00108
  47 2   Cl 1S          0.01038   0.01329   0.00000   0.00000   0.00696
  48        2S         -0.03917  -0.05102   0.00000   0.00000  -0.02786
  49        3S          0.08812   0.10985   0.00000   0.00000   0.06011
  50        4S          0.01393   0.01759   0.00000   0.00000   0.01112
  51        5S          0.07901   0.12518   0.00000   0.00000   0.08603
  52        6S          0.00153   0.03355   0.00000   0.00000   0.01560
  53        7PX         0.00000   0.00000  -0.15393   0.16754   0.00000
  54        7PY         0.06034  -0.04140   0.00000   0.00000   0.12813
  55        7PZ         0.03229   0.16360   0.00000   0.00000  -0.00950
  56        8PX         0.00000   0.00000   0.36089  -0.39172   0.00000
  57        8PY        -0.12868   0.10992   0.00000   0.00000  -0.28330
[...]
  52        6S        -13.89142   0.00000   7.46438   4.86337   9.76010
  53        7PX         0.00000  -0.01622   0.00000   0.00000   0.00000
  54        7PY         0.02373   0.00000  -0.01316   0.00457  -0.01550
  55        7PZ         0.00183   0.00000  -0.00411  -0.01088  -0.01412
  56        8PX         0.00000  -0.19154   0.00000   0.00000   0.00000
  57        8PY         0.38063   0.00000  -0.16605   0.05917  -0.24924
  58        8PZ         0.03331   0.00000  -0.04255  -0.13841  -0.22953
  59        9PX         0.00000   0.06217   0.00000   0.00000   0.00000
  60        9PY        -0.08739   0.00000   0.05152  -0.01705   0.05864
  61        9PZ        -0.00364   0.00000   0.01706   0.04264   0.05406
  62       10PX         0.00000   0.82653   0.00000   0.00000   0.00000
  63       10PY        -5.28457   0.00000   0.82920   0.48704   1.87326
  64       10PZ        -2.69631   0.00000   0.60487   1.33316   1.30491
  65       11PX         0.00000  -2.36385   0.00000   0.00000   0.00000
  66       11PY        -2.44964   0.00000  -1.59634   1.29240   1.50090
  67       11PZ        -1.36970   0.00000   0.97171  -2.76804   1.50993
  68       12D 0        0.01951   0.00000  -0.01160  -0.02296  -0.00524
  69       12D+1        0.00000  -0.01460   0.00000   0.00000   0.00000
  70       12D-1       -0.01835   0.00000   0.00420  -0.00193   0.01688
  71       12D+2        0.04005   0.00000   0.04306   0.00692   0.01264
  72       12D-2        0.00000  -0.02190   0.00000   0.00000   0.00000
  73       13D 0       -0.11328   0.00000   0.05926   0.08740   0.00087
  74       13D+1        0.00000   0.06116   0.00000   0.00000   0.00000
  75       13D-1       -0.00472   0.00000   0.01249   0.04453  -0.09055
  76       13D+2       -0.12237   0.00000  -0.14959  -0.03443  -0.03555
  77       13D-2        0.00000   0.09038   0.00000   0.00000   0.00000
  78       14D 0        0.37963   0.00000  -0.03076  -0.18853   0.06686
  79       14D+1        0.00000  -0.09095   0.00000   0.00000   0.00000
  80       14D-1       -1.28630   0.00000   0.17004   0.29387   0.49014
  81       14D+2        1.05271   0.00000   0.30587  -0.02581  -0.31230
  82       14D-2        0.00000   0.10052   0.00000   0.00000   0.00000
  83       15F 0       -0.01661   0.00000   0.02906   0.00149   0.00733
  84       15F+1        0.00000  -0.01128   0.00000   0.00000   0.00000
  85       15F-1        0.03715   0.00000  -0.00566   0.01365  -0.00205
  86       15F+2       -0.02046   0.00000   0.00901   0.02640   0.02057
  87       15F-2        0.00000  -0.00527   0.00000   0.00000   0.00000
  88       15F+3        0.00000   0.05163   0.00000   0.00000   0.00000
  89       15F-3        0.01648   0.00000   0.02032  -0.00441   0.03190
  90       16F 0        0.07153   0.00000  -0.06321  -0.04320   0.00399
  91       16F+1        0.00000   0.00768   0.00000   0.00000   0.00000
  92       16F-1       -0.12818   0.00000   0.03271  -0.02863  -0.00436
  93       16F+2        0.10615   0.00000  -0.01941  -0.07498  -0.03714
  94       16F-2        0.00000   0.02264   0.00000   0.00000   0.00000
  95       16F+3        0.00000  -0.13093   0.00000   0.00000   0.00000
  96       16F-3       -0.00507   0.00000  -0.02027   0.01040  -0.07327
  97 3   Cl 1S         -0.01595   0.00000  -0.00950   0.00542   0.00334
  98        2S         -0.21534   0.00000  -0.17683   0.10358   0.07837
  99        3S         -0.60954   0.00000  -0.39844   0.22713   0.15215
 100        4S          0.02847   0.00000   0.15973  -0.10886  -0.09881
 101        5S          4.87849   0.00000   0.85849   0.09369  -0.11752
 102        6S         13.69650   0.00000  -6.81775   5.67319  10.29512
 103        7PX         0.00000  -0.01625   0.00000   0.00000   0.00000
 104        7PY         0.02316   0.00000  -0.01325  -0.00338   0.01714
 105        7PZ        -0.00070   0.00000   0.00341  -0.01089  -0.01498
 106        8PX         0.00000  -0.19178   0.00000   0.00000   0.00000
 107        8PY         0.38071   0.00000  -0.16776  -0.04355   0.27472
 108        8PZ        -0.02329   0.00000   0.03302  -0.13848  -0.24444
 109        9PX         0.00000   0.06224   0.00000   0.00000   0.00000
 110        9PY        -0.08492   0.00000   0.05120   0.01245  -0.06495
 111        9PZ        -0.00075   0.00000  -0.01396   0.04274   0.05730
 112       10PX         0.00000   0.85154   0.00000   0.00000   0.00000
 113       10PY        -5.26268   0.00000   0.75527  -0.65913  -1.98252
 114       10PZ         2.64345   0.00000  -0.52212   1.45963   1.42089
 115       11PX         0.00000  -2.40933   0.00000   0.00000   0.00000
 116       11PY        -2.43993   0.00000  -1.81915  -1.24073  -1.47099
 117       11PZ         1.52163   0.00000  -1.06780  -2.69199   1.59288
 118       12D 0       -0.01771   0.00000   0.00875  -0.02365  -0.00529
 119       12D+1        0.00000  -0.01539   0.00000   0.00000   0.00000
 120       12D-1       -0.02119   0.00000   0.00142   0.00071  -0.01698
 121       12D+2       -0.04331   0.00000  -0.04292   0.00870   0.01335
 122       12D-2        0.00000   0.02194   0.00000   0.00000   0.00000
 123       13D 0        0.10765   0.00000  -0.05065   0.09276   0.00313
 124       13D+1        0.00000   0.06480   0.00000   0.00000   0.00000
 125       13D-1        0.01229   0.00000   0.01919  -0.04492   0.09632
 126       13D+2        0.13699   0.00000   0.14805  -0.04080  -0.03283
 127       13D-2        0.00000  -0.09245   0.00000   0.00000   0.00000
 128       14D 0       -0.38116   0.00000   0.00796  -0.19056   0.08856
 129       14D+1        0.00000  -0.09285   0.00000   0.00000   0.00000
 130       14D-1       -1.31494   0.00000   0.13624  -0.34020  -0.53091
 131       14D+2       -1.06911   0.00000  -0.31866  -0.02532  -0.32636
 132       14D-2        0.00000  -0.10744   0.00000   0.00000   0.00000
 133       15F 0        0.01807   0.00000  -0.02942   0.00347   0.00808
 134       15F+1        0.00000  -0.01103   0.00000   0.00000   0.00000
 135       15F-1        0.03770   0.00000  -0.00688  -0.01279   0.00378
 136       15F+2        0.01889   0.00000  -0.00748   0.02689   0.02300
 137       15F-2        0.00000   0.00528   0.00000   0.00000   0.00000
 138       15F+3        0.00000   0.05099   0.00000   0.00000   0.00000
 139       15F-3        0.01516   0.00000   0.01942   0.00402  -0.03405
 140       16F 0       -0.07460   0.00000   0.06214  -0.04840   0.00543
 141       16F+1        0.00000   0.00703   0.00000   0.00000   0.00000
 142       16F-1       -0.12837   0.00000   0.03585   0.02306  -0.00103
 143       16F+2       -0.10305   0.00000   0.01611  -0.07750  -0.04002
 144       16F-2        0.00000  -0.02408   0.00000   0.00000   0.00000
 145       16F+3        0.00000  -0.13131   0.00000   0.00000   0.00000
 146       16F-3       -0.00212   0.00000  -0.01960  -0.01139   0.07592
 147 4   S  1S          0.00084   0.00000  -0.00002   0.00198  -0.00378
 148        2S          0.01525   0.00000  -0.00134   0.00026  -0.06320
 149        3S          0.03874   0.00000  -0.00182   0.06221  -0.17000
 150        4S         -0.01140   0.00000   0.00289   0.10435   0.02276
 151        5S         -0.08154   0.00000  -0.00881  -3.78076   2.29429
 152        6S          0.02421   0.00000  -0.18727 -15.54213   4.07871
 153        7PX         0.00000  -0.01985   0.00000   0.00000   0.00000
 154        7PY         0.01744   0.00000   0.00359   0.00016  -0.00021
 155        7PZ        -0.00069   0.00000  -0.00033  -0.00753  -0.00128
 156        8PX         0.00000  -0.08871   0.00000   0.00000   0.00000
 157        8PY         0.26647   0.00000   0.13310   0.00045  -0.00471
 158        8PZ        -0.01133   0.00000  -0.00612  -0.01124  -0.13146
 159        9PX         0.00000   0.07445   0.00000   0.00000   0.00000
 160        9PY        -0.06519   0.00000  -0.01189  -0.00056   0.00052
 161        9PZ         0.00236   0.00000   0.00057   0.02086   0.00113
 162       10PX         0.00000  -0.63845   0.00000   0.00000   0.00000
 163       10PY        -3.46313   0.00000  -0.41225  -0.06624   0.07422
 164       10PZ         0.09449   0.00000   0.04141   3.57727  -0.32588
 165       11PX         0.00000  -4.11378   0.00000   0.00000   0.00000
 166       11PY        -0.05241   0.00000  -4.74377   0.07962   0.09988
 167       11PZ         0.04149   0.00000  -0.05705  -1.07874   0.79087
 168       12D 0       -0.00216   0.00000  -0.00745  -0.45726   0.32983
 169       12D+1        0.00000  -0.34342   0.00000   0.00000   0.00000
 170       12D-1       -0.07819   0.00000  -0.36439   0.01049   0.00011
 171       12D+2       -0.00019   0.00000  -0.00271   0.11242  -0.14692
 172       12D-2        0.00000   0.00228   0.00000   0.00000   0.00000
 173       13D 0        0.00253   0.00000   0.00214   0.08605  -0.08188
 174       13D+1        0.00000   0.07024   0.00000   0.00000   0.00000
 175       13D-1        0.04199   0.00000   0.07059  -0.00156  -0.00008
 176       13D+2        0.00049   0.00000   0.00059  -0.03299   0.03034
 177       13D-2        0.00000  -0.00066   0.00000   0.00000   0.00000
 178       14D 0       -0.01926   0.00000   0.00322   0.19481  -1.16144
 179       14D+1        0.00000   1.23975   0.00000   0.00000   0.00000
 180       14D-1        1.44819   0.00000   0.92442   0.00667  -0.04186
 181       14D+2        0.03459   0.00000   0.00080  -0.44356   0.17394
 182       14D-2        0.00000  -0.00919   0.00000   0.00000   0.00000
 183       15F 0       -0.00184   0.00000  -0.00077  -0.01307  -0.01306
 184       15F+1        0.00000   0.01521   0.00000   0.00000   0.00000
 185       15F-1       -0.06905   0.00000   0.00560  -0.00091  -0.00075
 186       15F+2        0.00092   0.00000  -0.00053  -0.01300   0.00188
 187       15F-2        0.00000  -0.00036   0.00000   0.00000   0.00000
 188       15F+3        0.00000   0.02671   0.00000   0.00000   0.00000
 189       15F-3       -0.00280   0.00000   0.04047  -0.00111  -0.00059
 190       16F 0       -0.00097   0.00000   0.00426   0.07759   0.13233
 191       16F+1        0.00000  -0.01681   0.00000   0.00000   0.00000
 192       16F-1        0.10260   0.00000   0.01317  -0.00065   0.00434
 193       16F+2       -0.00768   0.00000   0.00196   0.07202   0.01709
 194       16F-2        0.00000   0.00110   0.00000   0.00000   0.00000
 195       16F+3        0.00000  -0.06016   0.00000   0.00000   0.00000
 196       16F-3        0.01695   0.00000  -0.09415   0.00240   0.00093
                         196
     Eigenvalues --     0.00000
   1 1   C  1S         -0.03332
   2        2S         -0.12050
   3        3S          0.13359
   4        4S          2.59261
   5        5S         21.01107
   6        6PX         0.00000
   7        6PY         0.00002
   8        6PZ         0.02243
   9        7PX         0.00000
  10        7PY         0.00007
  11        7PZ        -0.20336
  12        8PX         0.00000
  13        8PY         0.06219
  14        8PZ         1.17688
  15        9PX         0.00000
  16        9PY         0.02496
  17        9PZ         3.35590
  18       10D 0        0.01264
  19       10D+1        0.00000
  20       10D-1        0.00017
  21       10D+2       -0.03509
  22       10D-2        0.00000
  23       11D 0       -0.33366
  24       11D+1        0.00000
  25       11D-1        0.00700
  26       11D+2        0.17077
  27       11D-2        0.00000
  28       12D 0       -1.00218
  29       12D+1        0.00000
  30       12D-1        0.10860
  31       12D+2       -0.74371
  32       12D-2        0.00000
  33       13F 0       -0.02586
  34       13F+1        0.00000
  35       13F-1       -0.00018
  36       13F+2       -0.00087
  37       13F-2        0.00000
  38       13F+3        0.00000
  39       13F-3        0.00064
  40       14F 0       -0.14238
  41       14F+1        0.00000
  42       14F-1        0.00120
  43       14F+2       -0.12003
  44       14F-2        0.00000
  45       14F+3        0.00000
  46       14F-3       -0.00196
  47 2   Cl 1S         -0.00096
  48        2S         -0.01300
  49        3S         -0.03680
  50        4S         -0.00204
  51        5S          0.33240
  52        6S         -3.43285
  53        7PX         0.00000
  54        7PY         0.00808
  55        7PZ         0.00348
  56        8PX         0.00000
  57        8PY         0.14249
  58        8PZ         0.08486
  59        9PX         0.00000
  60        9PY        -0.02942
  61        9PZ        -0.01096
  62       10PX         0.00000
  63       10PY         0.11649
  64       10PZ        -0.39471
  65       11PX         0.00000
  66       11PY        -0.74395
  67       11PZ        -1.00866
  68       12D 0        0.00831
  69       12D+1        0.00000
  70       12D-1       -0.01053
  71       12D+2       -0.00766
  72       12D-2        0.00000
  73       13D 0       -0.04102
  74       13D+1        0.00000
  75       13D-1        0.08774
  76       13D+2       -0.00937
  77       13D-2        0.00000
  78       14D 0       -0.04094
  79       14D+1        0.00000
  80       14D-1       -0.16623
  81       14D+2       -0.16829
  82       14D-2        0.00000
  83       15F 0       -0.00507
  84       15F+1        0.00000
  85       15F-1        0.00642
  86       15F+2       -0.00369
  87       15F-2        0.00000
  88       15F+3        0.00000
  89       15F-3       -0.00145
  90       16F 0        0.00506
  91       16F+1        0.00000
  92       16F-1       -0.01970
  93       16F+2       -0.00470
  94       16F-2        0.00000
  95       16F+3        0.00000
  96       16F-3       -0.01224
  97 3   Cl 1S         -0.00104
  98        2S         -0.01447
  99        3S         -0.04007
 100        4S         -0.00104
 101        5S          0.42334
 102        6S         -3.48976
 103        7PX         0.00000
 104        7PY        -0.00802
 105        7PZ         0.00383
 106        8PX         0.00000
 107        8PY        -0.14382
 108        8PZ         0.09299
 109        9PX         0.00000
 110        9PY         0.02890
 111        9PZ        -0.01198
 112       10PX         0.00000
 113       10PY        -0.15402
 114       10PZ        -0.45054
 115       11PX         0.00000
 116       11PY         0.72829
 117       11PZ        -1.03475
 118       12D 0        0.00849
 119       12D+1        0.00000
 120       12D-1        0.01015
 121       12D+2       -0.00839
 122       12D-2        0.00000
 123       13D 0       -0.04140
 124       13D+1        0.00000
 125       13D-1       -0.08842
 126       13D+2       -0.00763
 127       13D-2        0.00000
 128       14D 0       -0.06543
 129       14D+1        0.00000
 130       14D-1        0.17713
 131       14D+2       -0.16967
 132       14D-2        0.00000
 133       15F 0       -0.00507
 134       15F+1        0.00000
 135       15F-1       -0.00708
 136       15F+2       -0.00379
 137       15F-2        0.00000
 138       15F+3        0.00000
 139       15F-3        0.00280
 140       16F 0        0.00365
 141       16F+1        0.00000
 142       16F-1        0.02185
 143       16F+2       -0.00454
 144       16F-2        0.00000
 145       16F+3        0.00000
 146       16F-3        0.00885
 147 4   S  1S         -0.00435
 148        2S         -0.11003
 149        3S         -0.23156
 150        4S          0.10621
 151        5S          2.75737
 152        6S        -18.14233
 153        7PX         0.00000
 154        7PY         0.00055
 155        7PZ        -0.04534
 156        8PX         0.00000
 157        8PY         0.01044
 158        8PZ        -0.90994
 159        9PX         0.00000
 160        9PY        -0.00172
 161        9PZ         0.14222
 162       10PX         0.00000
 163       10PY        -0.11567
 164       10PZ         3.43968
 165       11PX         0.00000
 166       11PY        -0.06376
 167       11PZ         4.74813
 168       12D 0        0.31431
 169       12D+1        0.00000
 170       12D-1       -0.00083
 171       12D+2        0.09112
 172       12D-2        0.00000
 173       13D 0       -0.00632
 174       13D+1        0.00000
 175       13D-1       -0.00012
 176       13D+2       -0.02095
 177       13D-2        0.00000
 178       14D 0       -1.71076
 179       14D+1        0.00000
 180       14D-1        0.06592
 181       14D+2        0.03820
 182       14D-2        0.00000
 183       15F 0       -0.08740
 184       15F+1        0.00000
 185       15F-1        0.00206
 186       15F+2        0.01205
 187       15F-2        0.00000
 188       15F+3        0.00000
 189       15F-3        0.00041
 190       16F 0        0.18819
 191       16F+1        0.00000
 192       16F-1       -0.00810
 193       16F+2       -0.08523
 194       16F-2        0.00000
 195       16F+3        0.00000
 196       16F-3       -0.00026
          Condensed to atoms (all electrons):
              1          2          3          4
     1  C    5.673262   0.075945   0.066588   0.179225
     2  Cl   0.075945  17.193920  -0.119004  -0.128230
     3  Cl   0.066588  -0.119004  17.190029  -0.128953
     4  S    0.179225  -0.128230  -0.128953  16.051648
 Mulliken atomic charges:
              1
     1  C    0.004980
     2  Cl  -0.022631
     3  Cl  -0.008659
     4  S    0.026310
 Sum of Mulliken atomic charges =   0.00000
 Mulliken charges with hydrogens summed into heavy atoms:
              1
     1  C    0.004980
     2  Cl  -0.022631
     3  Cl  -0.008659
     4  S    0.026310
 Sum of Mulliken charges with hydrogens summed into heavy atoms =   0.00000
 Electronic spatial extent (au):  <R**2>=            690.6790
 Charge=              0.0000 electrons
 Dipole moment (field-independent basis, Debye):
    X=              0.0000    Y=              0.0686    Z=             -0.4352  Tot=              0.4405
 Quadrupole moment (field-independent basis, Debye-Ang):
   XX=            -43.1530   YY=            -43.2923   ZZ=            -42.5375
   XY=              0.0000   XZ=              0.0000   YZ=             -0.1477
 Traceless Quadrupole moment (field-independent basis, Debye-Ang):
   XX=             -0.1588   YY=             -0.2980   ZZ=              0.4568
   XY=              0.0000   XZ=              0.0000   YZ=             -0.1477
 Octapole moment (field-independent basis, Debye-Ang**2):
  XXX=              0.0000  YYY=              0.0623  ZZZ=             81.6757  XYY=              0.0000
  XXY=              0.0158  XXZ=             27.1310  XZZ=              0.0000  YZZ=              0.1615
  YYZ=             18.9953  XYZ=              0.0000
 Hexadecapole moment (field-independent basis, Debye-Ang**3):
 XXXX=            -50.8946 YYYY=           -340.4873 ZZZZ=           -477.7201 XXXY=              0.0000
 XXXZ=              0.0000 YYYX=              0.0000 YYYZ=             -0.3626 ZZZX=              0.0000
 ZZZY=             -0.7014 XXYY=            -69.2259 XXZZ=            -89.7492 YYZZ=           -127.3474
 XXYZ=             -0.1047 YYXZ=              0.0000 ZZXY=              0.0000
 N-N= 2.448934912006D+02 E-N=-3.713355952768D+03  KE= 1.355036622218D+03
 1\1\GINC-TRAPISTA\SP\RQCISD-FC\Aug-CC-pVTZ\C1Cl2S1\BRUNS\27-Nov-2021\0
 \\# qcisd/aug-cc-pvtz nosymm density=current output=wfn\\cl2cs-wavefun
 ction\\0,1\C,0,0.,0.01,-0.522914\Cl,0,0.,-1.430735,-1.5009\Cl,0,0.,1.4
 30735,-1.5009\S,0,0.,0.,1.081815\\Version=EM64L-G09RevB.01\HF=-1354.42
 59699\MP2=-1355.1503531\MP3=-1355.1829501\MP4D=-1355.2047306\MP4DQ=-13
 55.1798428\MP4SDQ=-1355.1866668\QCISD=-1355.1841807\RMSD=4.211e-09\Dip
 ole=0.,0.0269806,-0.1712114\Quadrupole=-0.1180365,-0.221578,0.3396145,
 0.,0.,-0.1098094\PG=CS [SG(C1Cl2S1)]\\@

 Writing a WFN file to GAUSSIAN.wfn.


 IN NATURE THERE ARE NEITHER REWARDS OR
 PUNISHMENTS -- THERE ARE CONSEQUENCES.

                            -- ROBERT GREEN INGERSOLL
 Job cpu time:  0 days  2 hours 16 minutes 15.3 seconds.
 File lengths (MBytes):  RWF=  18573 Int=      0 D2E=      0 Chk=      3 Scr=      1
 Normal termination of Gaussian 09 at Sat Nov 27 20:18:12 2021.
