 cl2cs-wavefunction
GAUSSIAN            196 MOL ORBITALS    414 PRIMITIVES        4 NUCLEI
  C    1    (CENTRE  1)   0.00000000  0.00000000 -0.96926699  CHARGE =  6.0
  Cl   2    (CENTRE  2)   0.00000000 -2.70369732 -2.83628995  CHARGE = 17.0
  Cl   3    (CENTRE  3)   0.00000000  2.70369732 -2.83628995  CHARGE = 17.0
  S    4    (CENTRE  4)   0.00000000  0.00000000  2.04433408  CHARGE = 16.0
CENTRE ASSIGNMENTS    1  1  1  1  1  1  1  1  1  1  1  1  1  1  1  1  1  1  1  1
CENTRE ASSIGNMENTS    1  1  1  1  1  1  1  1  1  1  1  1  1  1  1  1  1  1  1  1
CENTRE ASSIGNMENTS    1  1  1  1  1  1  1  1  1  1  1  1  1  1  1  1  1  1  1  1
CENTRE ASSIGNMENTS    1  1  1  1  1  1  1  1  1  1  1  1  2  2  2  2  2  2  2  2
CENTRE ASSIGNMENTS    2  2  2  2  2  2  2  2  2  2  2  2  2  2  2  2  2  2  2  2
CENTRE ASSIGNMENTS    2  2  2  2  2  2  2  2  2  2  2  2  2  2  2  2  2  2  2  2
CENTRE ASSIGNMENTS    2  2  2  2  2  2  2  2  2  2  2  2  2  2  2  2  2  2  2  2
CENTRE ASSIGNMENTS    2  2  2  2  2  2  2  2  2  2  2  2  2  2  2  2  2  2  2  2
CENTRE ASSIGNMENTS    2  2  2  2  2  2  2  2  2  2  2  2  2  2  2  2  2  2  2  2
CENTRE ASSIGNMENTS    2  2  2  2  2  2  3  3  3  3  3  3  3  3  3  3  3  3  3  3
CENTRE ASSIGNMENTS    3  3  3  3  3  3  3  3  3  3  3  3  3  3  3  3  3  3  3  3
CENTRE ASSIGNMENTS    3  3  3  3  3  3  3  3  3  3  3  3  3  3  3  3  3  3  3  3
CENTRE ASSIGNMENTS    3  3  3  3  3  3  3  3  3  3  3  3  3  3  3  3  3  3  3  3
CENTRE ASSIGNMENTS    3  3  3  3  3  3  3  3  3  3  3  3  3  3  3  3  3  3  3  3
CENTRE ASSIGNMENTS    3  3  3  3  3  3  3  3  3  3  3  3  3  3  3  3  3  3  3  3
CENTRE ASSIGNMENTS    4  4  4  4  4  4  4  4  4  4  4  4  4  4  4  4  4  4  4  4
CENTRE ASSIGNMENTS    4  4  4  4  4  4  4  4  4  4  4  4  4  4  4  4  4  4  4  4
CENTRE ASSIGNMENTS    4  4  4  4  4  4  4  4  4  4  4  4  4  4  4  4  4  4  4  4
CENTRE ASSIGNMENTS    4  4  4  4  4  4  4  4  4  4  4  4  4  4  4  4  4  4  4  4
CENTRE ASSIGNMENTS    4  4  4  4  4  4  4  4  4  4  4  4  4  4  4  4  4  4  4  4
CENTRE ASSIGNMENTS    4  4  4  4  4  4  4  4  4  4  4  4  4  4
TYPE ASSIGNMENTS      1  1  1  1  1  1  1  1  1  1  1  1  1  1  1  1  2  2  2  3
TYPE ASSIGNMENTS      3  3  4  4  4  2  3  4  2  3  4  2  3  4  5  6  7  8  9 10
TYPE ASSIGNMENTS      5  6  7  8  9 10  5  6  7  8  9 10 11 12 13 17 14 15 18 19
TYPE ASSIGNMENTS     16 20 11 12 13 17 14 15 18 19 16 20  1  1  1  1  1  1  1  1
TYPE ASSIGNMENTS      1  1  1  1  1  1  1  1  1  1  1  1  1  1  1  1  1  1  1  1
TYPE ASSIGNMENTS      1  1  1  2  2  2  2  2  2  3  3  3  3  3  3  4  4  4  4  4
TYPE ASSIGNMENTS      4  2  2  2  2  2  2  3  3  3  3  3  3  4  4  4  4  4  4  2
TYPE ASSIGNMENTS      3  4  2  3  4  2  3  4  5  6  7  8  9 10  5  6  7  8  9 10
TYPE ASSIGNMENTS      5  6  7  8  9 10 11 12 13 17 14 15 18 19 16 20 11 12 13 17
TYPE ASSIGNMENTS     14 15 18 19 16 20  1  1  1  1  1  1  1  1  1  1  1  1  1  1
TYPE ASSIGNMENTS      1  1  1  1  1  1  1  1  1  1  1  1  1  1  1  1  1  2  2  2
TYPE ASSIGNMENTS      2  2  2  3  3  3  3  3  3  4  4  4  4  4  4  2  2  2  2  2
TYPE ASSIGNMENTS      2  3  3  3  3  3  3  4  4  4  4  4  4  2  3  4  2  3  4  2
TYPE ASSIGNMENTS      3  4  5  6  7  8  9 10  5  6  7  8  9 10  5  6  7  8  9 10
TYPE ASSIGNMENTS     11 12 13 17 14 15 18 19 16 20 11 12 13 17 14 15 18 19 16 20
TYPE ASSIGNMENTS      1  1  1  1  1  1  1  1  1  1  1  1  1  1  1  1  1  1  1  1
TYPE ASSIGNMENTS      1  1  1  1  1  1  1  1  1  1  1  2  2  2  2  2  2  3  3  3
TYPE ASSIGNMENTS      3  3  3  4  4  4  4  4  4  2  2  2  2  2  2  3  3  3  3  3
TYPE ASSIGNMENTS      3  4  4  4  4  4  4  2  3  4  2  3  4  2  3  4  5  6  7  8
TYPE ASSIGNMENTS      9 10  5  6  7  8  9 10  5  6  7  8  9 10 11 12 13 17 14 15
TYPE ASSIGNMENTS     18 19 16 20 11 12 13 17 14 15 18 19 16 20
EXPONENTS  0.8236000D+04 0.1235000D+04 0.2808000D+03 0.7927000D+02 0.2559000D+02
EXPONENTS  0.8997000D+01 0.3319000D+01 0.2808000D+03 0.7927000D+02 0.2559000D+02
EXPONENTS  0.8997000D+01 0.3319000D+01 0.3643000D+00 0.9059000D+00 0.1285000D+00
EXPONENTS  0.4402000D-01 0.1871000D+02 0.4133000D+01 0.1200000D+01 0.1871000D+02
EXPONENTS  0.4133000D+01 0.1200000D+01 0.1871000D+02 0.4133000D+01 0.1200000D+01
EXPONENTS  0.3827000D+00 0.3827000D+00 0.3827000D+00 0.1209000D+00 0.1209000D+00
EXPONENTS  0.1209000D+00 0.3569000D-01 0.3569000D-01 0.3569000D-01 0.1097000D+01
EXPONENTS  0.1097000D+01 0.1097000D+01 0.1097000D+01 0.1097000D+01 0.1097000D+01
EXPONENTS  0.3180000D+00 0.3180000D+00 0.3180000D+00 0.3180000D+00 0.3180000D+00
EXPONENTS  0.3180000D+00 0.1000000D+00 0.1000000D+00 0.1000000D+00 0.1000000D+00
EXPONENTS  0.1000000D+00 0.1000000D+00 0.7610000D+00 0.7610000D+00 0.7610000D+00
EXPONENTS  0.7610000D+00 0.7610000D+00 0.7610000D+00 0.7610000D+00 0.7610000D+00
EXPONENTS  0.7610000D+00 0.7610000D+00 0.2680000D+00 0.2680000D+00 0.2680000D+00
EXPONENTS  0.2680000D+00 0.2680000D+00 0.2680000D+00 0.2680000D+00 0.2680000D+00
EXPONENTS  0.2680000D+00 0.2680000D+00 0.4561000D+06 0.6833000D+05 0.1555000D+05
EXPONENTS  0.4405000D+04 0.1439000D+04 0.5204000D+03 0.2031000D+03 0.8396000D+02
EXPONENTS  0.3620000D+02 0.1583000D+02 0.6334000D+01 0.4405000D+04 0.1439000D+04
EXPONENTS  0.5204000D+03 0.2031000D+03 0.8396000D+02 0.3620000D+02 0.1583000D+02
EXPONENTS  0.6334000D+01 0.2694000D+01 0.1439000D+04 0.2031000D+03 0.8396000D+02
EXPONENTS  0.3620000D+02 0.1583000D+02 0.6334000D+01 0.2694000D+01 0.4313000D+00
EXPONENTS  0.9768000D+00 0.1625000D+00 0.5910000D-01 0.6633000D+03 0.1568000D+03
EXPONENTS  0.4998000D+02 0.1842000D+02 0.7240000D+01 0.2922000D+01 0.6633000D+03
EXPONENTS  0.1568000D+03 0.4998000D+02 0.1842000D+02 0.7240000D+01 0.2922000D+01
EXPONENTS  0.6633000D+03 0.1568000D+03 0.4998000D+02 0.1842000D+02 0.7240000D+01
EXPONENTS  0.2922000D+01 0.1568000D+03 0.4998000D+02 0.1842000D+02 0.7240000D+01
EXPONENTS  0.2922000D+01 0.3818000D+00 0.1568000D+03 0.4998000D+02 0.1842000D+02
EXPONENTS  0.7240000D+01 0.2922000D+01 0.3818000D+00 0.1568000D+03 0.4998000D+02
EXPONENTS  0.1842000D+02 0.7240000D+01 0.2922000D+01 0.3818000D+00 0.1022000D+01
EXPONENTS  0.1022000D+01 0.1022000D+01 0.1301000D+00 0.1301000D+00 0.1301000D+00
EXPONENTS  0.4190000D-01 0.4190000D-01 0.4190000D-01 0.1046000D+01 0.1046000D+01
EXPONENTS  0.1046000D+01 0.1046000D+01 0.1046000D+01 0.1046000D+01 0.3440000D+00
EXPONENTS  0.3440000D+00 0.3440000D+00 0.3440000D+00 0.3440000D+00 0.3440000D+00
EXPONENTS  0.1350000D+00 0.1350000D+00 0.1350000D+00 0.1350000D+00 0.1350000D+00
EXPONENTS  0.1350000D+00 0.7060000D+00 0.7060000D+00 0.7060000D+00 0.7060000D+00
EXPONENTS  0.7060000D+00 0.7060000D+00 0.7060000D+00 0.7060000D+00 0.7060000D+00
EXPONENTS  0.7060000D+00 0.3120000D+00 0.3120000D+00 0.3120000D+00 0.3120000D+00
EXPONENTS  0.3120000D+00 0.3120000D+00 0.3120000D+00 0.3120000D+00 0.3120000D+00
EXPONENTS  0.3120000D+00 0.4561000D+06 0.6833000D+05 0.1555000D+05 0.4405000D+04
EXPONENTS  0.1439000D+04 0.5204000D+03 0.2031000D+03 0.8396000D+02 0.3620000D+02
EXPONENTS  0.1583000D+02 0.6334000D+01 0.4405000D+04 0.1439000D+04 0.5204000D+03
EXPONENTS  0.2031000D+03 0.8396000D+02 0.3620000D+02 0.1583000D+02 0.6334000D+01
EXPONENTS  0.2694000D+01 0.1439000D+04 0.2031000D+03 0.8396000D+02 0.3620000D+02
EXPONENTS  0.1583000D+02 0.6334000D+01 0.2694000D+01 0.4313000D+00 0.9768000D+00
EXPONENTS  0.1625000D+00 0.5910000D-01 0.6633000D+03 0.1568000D+03 0.4998000D+02
EXPONENTS  0.1842000D+02 0.7240000D+01 0.2922000D+01 0.6633000D+03 0.1568000D+03
EXPONENTS  0.4998000D+02 0.1842000D+02 0.7240000D+01 0.2922000D+01 0.6633000D+03
EXPONENTS  0.1568000D+03 0.4998000D+02 0.1842000D+02 0.7240000D+01 0.2922000D+01
EXPONENTS  0.1568000D+03 0.4998000D+02 0.1842000D+02 0.7240000D+01 0.2922000D+01
EXPONENTS  0.3818000D+00 0.1568000D+03 0.4998000D+02 0.1842000D+02 0.7240000D+01
EXPONENTS  0.2922000D+01 0.3818000D+00 0.1568000D+03 0.4998000D+02 0.1842000D+02
EXPONENTS  0.7240000D+01 0.2922000D+01 0.3818000D+00 0.1022000D+01 0.1022000D+01
EXPONENTS  0.1022000D+01 0.1301000D+00 0.1301000D+00 0.1301000D+00 0.4190000D-01
EXPONENTS  0.4190000D-01 0.4190000D-01 0.1046000D+01 0.1046000D+01 0.1046000D+01
EXPONENTS  0.1046000D+01 0.1046000D+01 0.1046000D+01 0.3440000D+00 0.3440000D+00
EXPONENTS  0.3440000D+00 0.3440000D+00 0.3440000D+00 0.3440000D+00 0.1350000D+00
EXPONENTS  0.1350000D+00 0.1350000D+00 0.1350000D+00 0.1350000D+00 0.1350000D+00
EXPONENTS  0.7060000D+00 0.7060000D+00 0.7060000D+00 0.7060000D+00 0.7060000D+00
EXPONENTS  0.7060000D+00 0.7060000D+00 0.7060000D+00 0.7060000D+00 0.7060000D+00
EXPONENTS  0.3120000D+00 0.3120000D+00 0.3120000D+00 0.3120000D+00 0.3120000D+00
EXPONENTS  0.3120000D+00 0.3120000D+00 0.3120000D+00 0.3120000D+00 0.3120000D+00
EXPONENTS  0.3741000D+06 0.5605000D+05 0.1276000D+05 0.3615000D+04 0.1183000D+04
EXPONENTS  0.4288000D+03 0.1678000D+03 0.6947000D+02 0.2984000D+02 0.1272000D+02
EXPONENTS  0.5244000D+01 0.3615000D+04 0.1183000D+04 0.4288000D+03 0.1678000D+03
EXPONENTS  0.6947000D+02 0.2984000D+02 0.1272000D+02 0.5244000D+01 0.2219000D+01
EXPONENTS  0.1183000D+04 0.1678000D+03 0.6947000D+02 0.2984000D+02 0.1272000D+02
EXPONENTS  0.5244000D+01 0.2219000D+01 0.3490000D+00 0.7767000D+00 0.1322000D+00
EXPONENTS  0.4970000D-01 0.5744000D+03 0.1358000D+03 0.4319000D+02 0.1587000D+02
EXPONENTS  0.6208000D+01 0.2483000D+01 0.5744000D+03 0.1358000D+03 0.4319000D+02
EXPONENTS  0.1587000D+02 0.6208000D+01 0.2483000D+01 0.5744000D+03 0.1358000D+03
EXPONENTS  0.4319000D+02 0.1587000D+02 0.6208000D+01 0.2483000D+01 0.1358000D+03
EXPONENTS  0.4319000D+02 0.1587000D+02 0.6208000D+01 0.2483000D+01 0.3229000D+00
EXPONENTS  0.1358000D+03 0.4319000D+02 0.1587000D+02 0.6208000D+01 0.2483000D+01
EXPONENTS  0.3229000D+00 0.1358000D+03 0.4319000D+02 0.1587000D+02 0.6208000D+01
EXPONENTS  0.2483000D+01 0.3229000D+00 0.8688000D+00 0.8688000D+00 0.8688000D+00
EXPONENTS  0.1098000D+00 0.1098000D+00 0.1098000D+00 0.3510000D-01 0.3510000D-01
EXPONENTS  0.3510000D-01 0.2690000D+00 0.2690000D+00 0.2690000D+00 0.2690000D+00
EXPONENTS  0.2690000D+00 0.2690000D+00 0.8190000D+00 0.8190000D+00 0.8190000D+00
EXPONENTS  0.8190000D+00 0.8190000D+00 0.8190000D+00 0.1010000D+00 0.1010000D+00
EXPONENTS  0.1010000D+00 0.1010000D+00 0.1010000D+00 0.1010000D+00 0.5570000D+00
EXPONENTS  0.5570000D+00 0.5570000D+00 0.5570000D+00 0.5570000D+00 0.5570000D+00
EXPONENTS  0.5570000D+00 0.5570000D+00 0.5570000D+00 0.5570000D+00 0.2180000D+00
EXPONENTS  0.2180000D+00 0.2180000D+00 0.2180000D+00 0.2180000D+00 0.2180000D+00
EXPONENTS  0.2180000D+00 0.2180000D+00 0.2180000D+00 0.2180000D+00
MO    1     MO 0.0        OCC NO =    2.0000385  ORB. ENERGY =    0.000000
  0.25747789D-11  0.47999065D-11  0.81124960D-11  0.12194595D-10  0.14978875D-10
  0.12641642D-10  0.47535876D-11 -0.22726369D-14 -0.16986553D-13 -0.63482626D-13
 -0.17710664D-12 -0.23727407D-12  0.28017644D-12  0.36060238D-12 -0.15203954D-11
 -0.28313173D-12  0.20322496D-12  0.19053632D-12  0.13567321D-12  0.71620785D-03
  0.67149038D-03  0.47814115D-03  0.19637284D-11  0.18411202D-11  0.13109873D-11
  0.54280563D-13  0.19496313D-03  0.13225031D-11 -0.77403623D-14  0.32398736D-03
 -0.13648010D-11 -0.40923140D-14 -0.10760772D-04 -0.11202211D-12 -0.18047612D-12
  0.16556765D-11 -0.14752004D-11 -0.72064515D-13 -0.12378254D-12  0.23834340D-03
  0.17898603D-12 -0.23664811D-12  0.57662084D-13  0.39371259D-14  0.21802126D-13
  0.31353148D-03  0.13182401D-13  0.37861723D-12 -0.39179963D-12 -0.76841753D-14
 -0.18933697D-13  0.18860762D-03 -0.23501793D-14  0.24113925D-03  0.23692812D-12
  0.85208740D-14  0.30672183D-04 -0.45774761D-12 -0.14703362D-14 -0.75408993D-03
 -0.25303674D-12  0.31510792D-13  0.37436915D-15 -0.29339466D-03 -0.18437283D-12
 -0.10546397D-13 -0.23799248D-04  0.24072316D-12  0.94232896D-14  0.90398321D-03
  0.31239532D-12 -0.21689907D-13 -0.12142719D-02 -0.22717731D-02 -0.39251200D-02
 -0.63630808D-02 -0.96629487D-02 -0.13430590D-01 -0.15967942D-01 -0.14224797D-01
 -0.70643352D-02 -0.11372982D-02 -0.11999168D-04 -0.60186329D-05 -0.20077152D-03
 -0.69964855D-03 -0.25195477D-02 -0.55540293D-02 -0.78182808D-02  0.37295747D-03
  0.10231578D-01  0.60498681D-02  0.25530840D-06  0.30924081D-05  0.64488912D-05
  0.18494297D-04  0.96038310D-06 -0.79756379D-04 -0.20607516D-03  0.16790034D-03
  0.33466367D-03 -0.20802055D-03 -0.10975994D-03 -0.13764511D-08 -0.18131081D-08
 -0.20001420D-08 -0.16612746D-08 -0.88218289D-09 -0.22760780D-09 -0.48833823D+01
 -0.64325569D+01 -0.70961171D+01 -0.58938809D+01 -0.31298143D+01 -0.80750845D+00
  0.65743028D+01  0.86598947D+01  0.95532195D+01  0.79346968D+01  0.42135442D+01
  0.10871164D+01  0.57357465D-13 -0.55449506D-12 -0.78189592D-12 -0.11183180D-11
  0.56630050D-14  0.10256031D-11  0.25209034D-03 -0.24370472D-02 -0.34364910D-02
 -0.49150912D-02  0.24889330D-04  0.45076022D-02 -0.32667866D-03  0.31581191D-02
  0.44532776D-02  0.63693650D-02 -0.32253568D-04 -0.58413085D-02 -0.90605591D-11
 -0.31400397D-01  0.42434672D-01  0.50508364D-13  0.34053381D-03 -0.50244977D-03
  0.38495750D-14  0.97160373D-05 -0.19787969D-04  0.69102924D-05 -0.81105256D-03
  0.80414227D-03 -0.12836367D-12 -0.10256128D-12  0.72496076D-03  0.43187953D-04
  0.46446948D-03 -0.50765743D-03  0.71441895D-13  0.45585566D-13 -0.33068095D-03
 -0.16279684D-05 -0.30653927D-05  0.46933611D-05 -0.96118756D-14 -0.40361444D-14
  0.41254408D-05 -0.19898912D-14 -0.23337977D-04 -0.90153302D-05  0.58705594D-14
  0.49304552D-04  0.36521850D-04  0.99114204D-16  0.20709378D-04 -0.94758596D-05
 -0.17168822D-14 -0.32893055D-14  0.81979209D-04 -0.41008478D-04  0.77852074D-14
 -0.77643789D-05  0.43510455D-04  0.20827090D-14 -0.23817325D-03  0.79514979D-04
  0.20850035D-13  0.12142719D-02  0.22717731D-02  0.39251201D-02  0.63630809D-02
  0.96629489D-02  0.13430590D-01  0.15967942D-01  0.14224798D-01  0.70643354D-02
  0.11372982D-02  0.11999168D-04  0.60186329D-05  0.20077152D-03  0.69964855D-03
  0.25195477D-02  0.55540294D-02  0.78182808D-02 -0.37295748D-03 -0.10231578D-01
 -0.60498681D-02 -0.25530839D-06 -0.30924081D-05 -0.64488911D-05 -0.18494297D-04
 -0.96038309D-06  0.79756378D-04  0.20607516D-03 -0.16790034D-03 -0.33466368D-03
  0.20802055D-03  0.10975994D-03 -0.32798793D-09 -0.43203684D-09 -0.47660426D-09
 -0.39585715D-09 -0.21021113D-09 -0.54235571D-10 -0.48833823D+01 -0.64325569D+01
 -0.70961172D+01 -0.58938809D+01 -0.31298143D+01 -0.80750845D+00 -0.65743028D+01
 -0.86598948D+01 -0.95532195D+01 -0.79346968D+01 -0.42135442D+01 -0.10871164D+01
  0.11479345D-13 -0.11097493D-12 -0.15648623D-12 -0.22381670D-12  0.11333763D-14
  0.20526103D-12  0.25209035D-03 -0.24370473D-02 -0.34364910D-02 -0.49150912D-02
  0.24889330D-04  0.45076022D-02  0.32667866D-03 -0.31581191D-02 -0.44532776D-02
 -0.63693651D-02  0.32253568D-04  0.58413085D-02 -0.22043738D-11 -0.31400397D-01
 -0.42434672D-01  0.55863561D-14  0.34053381D-03  0.50244977D-03  0.19749523D-14
  0.97160373D-05  0.19787969D-04 -0.69102924D-05  0.81105256D-03 -0.80414227D-03
  0.15788834D-13 -0.29615472D-13  0.72496076D-03 -0.43187953D-04 -0.46446948D-03
  0.50765743D-03 -0.14259203D-13  0.36717471D-14 -0.33068095D-03  0.16279684D-05
  0.30653930D-05 -0.46933613D-05  0.44484857D-14  0.30756593D-14  0.41254409D-05
  0.10525854D-14 -0.23337976D-04  0.90153302D-05  0.11136780D-13  0.49304551D-04
 -0.36521850D-04 -0.14294536D-13  0.20709378D-04  0.94758594D-05  0.97372895D-14
 -0.13875565D-14  0.81979210D-04  0.41008478D-04 -0.24153631D-14 -0.77643790D-05
 -0.43510455D-04  0.65780327D-14 -0.23817325D-03 -0.79514979D-04 -0.55944330D-14
 -0.29523104D-10 -0.55196417D-10 -0.95395815D-10 -0.15429880D-09 -0.23321747D-09
 -0.32118874D-09 -0.37543053D-09 -0.32447245D-09 -0.15143298D-09 -0.20515846D-10
  0.15005585D-12 -0.13113029D-12 -0.16856667D-11 -0.61490698D-11 -0.20746809D-10
 -0.45569302D-10 -0.58863108D-10  0.94598023D-11  0.79356497D-10  0.43549822D-10
 -0.52899800D-15 -0.60256161D-14 -0.12511351D-13 -0.34403038D-13  0.44607490D-14
  0.15555487D-12  0.38797855D-12 -0.32116303D-12  0.26916173D-11  0.30119216D-11
  0.70940906D-12  0.52645941D-09  0.69068480D-09  0.75753175D-09  0.62327430D-09
  0.32855477D-09  0.85483772D-10  0.83395414D+00  0.10941004D+01  0.11999914D+01
  0.98731674D+00  0.52045725D+00  0.13541319D+00 -0.90098506D-09 -0.11820412D-08
 -0.12964433D-08 -0.10666745D-08 -0.56229016D-09 -0.14629732D-09  0.40282712D-14
  0.14459734D-12  0.22940730D-12  0.27241413D-12  0.41223438D-13 -0.30001646D-12
  0.22767558D-04  0.81725585D-03  0.12965969D-02  0.15396690D-02  0.23299251D-03
 -0.16956758D-02 -0.56236856D-14 -0.20186574D-12 -0.32026506D-12 -0.38030493D-12
 -0.57550161D-13  0.41883928D-12  0.39403332D-11  0.58713185D-02 -0.60123333D-11
  0.21967416D-13 -0.52540350D-03 -0.40772381D-12  0.70739802D-15 -0.66206234D-05
 -0.45457956D-14  0.25573742D-13  0.89830776D-13 -0.11540452D-12  0.63395175D-14
  0.25529147D-13  0.68644706D-03 -0.19526575D-12  0.18496936D-12  0.10296390D-13
 -0.14729709D-13 -0.27331852D-13 -0.94742035D-04  0.22041569D-13 -0.27866662D-13
  0.58250928D-14  0.20466137D-14 -0.10027803D-13  0.76794049D-04  0.73612896D-14
  0.62030787D-04  0.74366145D-13 -0.18407728D-14  0.22860459D-04  0.11702856D-12
 -0.20243096D-13 -0.20895282D-03 -0.34012699D-12  0.54762084D-14 -0.11765140D-14
  0.26703488D-04  0.18926477D-13  0.23071335D-14  0.14767345D-05 -0.45198007D-13
  0.12224086D-14 -0.81587198D-04 -0.11581423D-13 -0.61157540D-14
MO    2     MO 0.0        OCC NO =    2.0000375  ORB. ENERGY =    0.000000
 -0.28174687D-03 -0.52523293D-03 -0.88771521D-03 -0.13344015D-02 -0.16390733D-02
 -0.13833200D-02 -0.52016445D-03 -0.10625847D-05 -0.79421620D-05 -0.29681673D-04
 -0.82807245D-04 -0.11093888D-03  0.13099813D-03  0.39100586D-04 -0.44048948D-03
 -0.60651243D-04 -0.70667231D-12 -0.66255021D-12 -0.47177522D-12 -0.18901738D-13
 -0.17721581D-13 -0.12618821D-13  0.77151876D-03  0.72334788D-03  0.51506678D-03
 -0.14113198D-12 -0.30742785D-12  0.57118011D-03  0.17490552D-13 -0.89684301D-12
 -0.52386775D-03  0.31988788D-14  0.25052855D-13 -0.46116115D-04 -0.66120264D-04
  0.70975886D-03 -0.64363859D-03  0.18188053D-12  0.15932616D-12 -0.36823373D-12
  0.64524306D-04 -0.10811618D-03  0.43591878D-04 -0.15649803D-13 -0.50368242D-14
 -0.59170692D-12  0.45549861D-05  0.16255891D-03 -0.16711390D-03  0.17249517D-13
  0.20448408D-13 -0.37213075D-12  0.18179918D-13 -0.55686248D-12  0.10250701D-03
 -0.28064406D-13 -0.15945642D-12 -0.19309878D-03 -0.26475348D-13  0.18300439D-11
 -0.11442224D-03 -0.68566249D-13 -0.75379136D-14  0.66459033D-12 -0.76730004D-04
  0.19538149D-13  0.88428237D-13  0.99812574D-04  0.30755918D-14 -0.20821992D-11
  0.13037744D-03  0.53985759D-13 -0.92809105D-03 -0.17363593D-02 -0.30000438D-02
 -0.48634235D-02 -0.73855752D-02 -0.10265255D-01 -0.12204601D-01 -0.10872283D-01
 -0.53994056D-02 -0.86925862D-03 -0.91711919D-05 -0.47602392D-05 -0.15879361D-03
 -0.55336394D-03 -0.19927532D-02 -0.43927764D-02 -0.61836114D-02  0.29497841D-03
  0.80923293D-02  0.47849437D-02  0.28439471D-06  0.34447145D-05  0.71835888D-05
  0.20601282D-04  0.10697959D-05 -0.88842720D-04 -0.22955253D-03  0.18702859D-03
  0.17463353D-03 -0.35879390D-03 -0.17527769D-03  0.26946484D-08  0.35494823D-08
  0.39156346D-08  0.32522411D-08  0.17270303D-08  0.44558284D-09  0.42266204D+01
  0.55674478D+01  0.61417664D+01  0.51012179D+01  0.27088882D+01  0.69890732D+00
 -0.70302529D+01 -0.92604877D+01 -0.10215768D+02 -0.84849948D+01 -0.45057677D+01
 -0.11625116D+01 -0.11094727D-12  0.10725669D-11  0.15124312D-11  0.21631768D-11
 -0.10954023D-13 -0.19838371D-11 -0.18381637D-03  0.17770184D-02  0.25057814D-02
  0.35839302D-02 -0.18148518D-04 -0.32868021D-02  0.32991769D-03 -0.31894320D-02
 -0.44974320D-02 -0.64325175D-02  0.32573363D-04  0.58992252D-02  0.17767779D-10
  0.27303160D-01 -0.45488716D-01 -0.11483590D-12 -0.15152460D-03  0.13465850D-03
 -0.57713297D-14 -0.11043705D-04  0.13164022D-04  0.13772846D-04  0.47517736D-03
 -0.48895021D-03  0.25569761D-12  0.17782469D-12 -0.43209397D-03  0.25742650D-04
 -0.28642013D-03  0.26067748D-03 -0.15300004D-12 -0.97099658D-13  0.40571038D-03
 -0.22633120D-05  0.46644892D-04 -0.44381580D-04  0.10386141D-13  0.59494298D-14
 -0.26566030D-04  0.89380438D-15 -0.30349390D-04  0.14149415D-05 -0.25934000D-15
  0.60278005D-04  0.29512998D-04 -0.24220731D-14  0.30770165D-04 -0.33757823D-04
  0.12292248D-13  0.89871440D-14 -0.46998564D-04 -0.11646561D-04 -0.23317472D-13
  0.18502508D-04 -0.40641710D-04 -0.36439605D-14  0.12249318D-03  0.75581392D-04
 -0.47393662D-13 -0.92809095D-03 -0.17363591D-02 -0.30000434D-02 -0.48634229D-02
 -0.73855744D-02 -0.10265254D-01 -0.12204600D-01 -0.10872282D-01 -0.53994050D-02
 -0.86925852D-03 -0.91711908D-05 -0.47602391D-05 -0.15879361D-03 -0.55336393D-03
 -0.19927531D-02 -0.43927762D-02 -0.61836112D-02  0.29497841D-03  0.80923291D-02
  0.47849435D-02  0.28439471D-06  0.34447145D-05  0.71835889D-05  0.20601282D-04
  0.10697959D-05 -0.88842721D-04 -0.22955253D-03  0.18702860D-03  0.17463353D-03
 -0.35879390D-03 -0.17527769D-03  0.15289051D-09  0.20139257D-09  0.22216753D-09
  0.18452753D-09  0.97989238D-10  0.25281736D-10 -0.42266203D+01 -0.55674477D+01
 -0.61417663D+01 -0.51012178D+01 -0.27088882D+01 -0.69890732D+00 -0.70302529D+01
 -0.92604877D+01 -0.10215768D+02 -0.84849948D+01 -0.45057677D+01 -0.11625116D+01
  0.16147201D-15 -0.15610075D-14 -0.22011835D-14 -0.31482747D-14  0.15942420D-16
  0.28872648D-14  0.18381637D-03 -0.17770183D-02 -0.25057814D-02 -0.35839302D-02
  0.18148518D-04  0.32868020D-02  0.32991769D-03 -0.31894320D-02 -0.44974320D-02
 -0.64325175D-02  0.32573363D-04  0.58992252D-02  0.11400030D-11 -0.27303160D-01
 -0.45488716D-01 -0.77787212D-15  0.15152460D-03  0.13465850D-03 -0.10754019D-14
  0.11043705D-04  0.13164022D-04  0.13772846D-04  0.47517736D-03 -0.48895020D-03
  0.50283378D-13  0.59513962D-14  0.43209397D-03  0.25742651D-04 -0.28642013D-03
  0.26067748D-03  0.65215507D-14  0.43239951D-14 -0.40571038D-03 -0.22633120D-05
  0.46644892D-04 -0.44381580D-04  0.85126727D-15 -0.92622832D-14  0.26566030D-04
 -0.52430271D-14  0.30349390D-04  0.14149415D-05 -0.16624316D-13 -0.60278005D-04
  0.29512999D-04  0.32353397D-13 -0.30770165D-04 -0.33757823D-04 -0.16986886D-13
  0.34054578D-14  0.46998563D-04 -0.11646561D-04  0.33539123D-14 -0.18502508D-04
 -0.40641710D-04 -0.13570286D-13 -0.12249318D-03  0.75581392D-04  0.38996523D-14
  0.57354198D-03  0.10722945D-02  0.18532436D-02  0.29975452D-02  0.45306892D-02
  0.62396971D-02  0.72934461D-02  0.63034893D-02  0.29418713D-02  0.39855901D-03
 -0.29151180D-05  0.71818089D-05  0.92321431D-04  0.33677531D-03  0.11362716D-02
  0.24957622D-02  0.32238440D-02 -0.51809916D-03 -0.43462361D-02 -0.23851583D-02
  0.26494029D-06  0.30178347D-05  0.62661126D-05  0.17230218D-04 -0.22340957D-05
 -0.77907200D-04 -0.19431293D-03  0.16084943D-03 -0.35066480D-04  0.11845293D-02
  0.25834086D-03  0.68533915D-10  0.89912599D-10  0.98614662D-10  0.81137173D-10
  0.42770904D-10  0.11128185D-10 -0.36237030D-08 -0.47540923D-08 -0.52142104D-08
 -0.42900952D-08 -0.22614943D-08 -0.58839827D-09 -0.58267580D+00 -0.76443751D+00
 -0.83842251D+00 -0.68982878D+00 -0.36363851D+00 -0.94611901D-01 -0.14217215D-14
 -0.51033591D-13 -0.80966072D-13 -0.96144727D-13 -0.14549231D-13  0.10588658D-12
 -0.65924435D-13 -0.23663992D-11 -0.37543517D-11 -0.44581774D-11 -0.67463975D-12
  0.49099017D-11 -0.45957122D-05 -0.16496599D-03 -0.26172268D-03 -0.31078765D-03
 -0.47030363D-04  0.34227817D-03  0.66571732D-12 -0.25366553D-10 -0.40085842D-02
 -0.16671312D-13  0.12325873D-11 -0.11530210D-03 -0.10285275D-14  0.17271443D-13
  0.67052880D-07  0.22038823D-04  0.46122773D-04 -0.68161596D-04 -0.14767019D-13
  0.12786499D-13 -0.16611948D-11 -0.91761624D-04  0.94615246D-04 -0.28536226D-05
  0.32885512D-13  0.11742416D-13  0.29849896D-12  0.10685117D-04 -0.91347989D-05
 -0.15503183D-05 -0.47476850D-14  0.10871726D-13 -0.16759249D-12 -0.13142703D-14
 -0.13869448D-12  0.33725516D-04 -0.50134005D-14 -0.81762751D-13  0.44051539D-04
  0.89562113D-14  0.49784620D-12 -0.14522809D-03 -0.11887753D-13  0.23291631D-14
 -0.64749821D-13  0.96148834D-05 -0.16915427D-14 -0.24486577D-14 -0.20124604D-04
 -0.52959466D-14  0.19669812D-12 -0.87200467D-05  0.14516062D-13
MO    3     MO 0.0        OCC NO =    2.0000330  ORB. ENERGY =    0.000000
  0.31432182D-10  0.58595920D-10  0.99035088D-10  0.14886821D-09  0.18285793D-09
  0.15432564D-09  0.58030472D-10  0.45129231D-14  0.33731304D-13  0.12606159D-12
  0.35169220D-12  0.47117058D-12 -0.55636460D-12  0.25092973D-11  0.13342981D-12
 -0.49187443D-14 -0.24770120D-11 -0.23223562D-11 -0.16536559D-11 -0.62265457D-14
 -0.58377824D-14 -0.41568488D-14 -0.12728703D-11 -0.11933968D-11 -0.84976961D-12
 -0.56346705D-12  0.49357436D-13  0.12529392D-13  0.84558143D-13 -0.10304068D-12
  0.23922257D-12  0.23533417D-13 -0.12261705D-13  0.11919481D-13 -0.91571702D-13
 -0.76647457D-13  0.16821916D-12  0.11578227D-02  0.96590288D-12  0.71239739D-13
  0.20211620D-13 -0.35833616D-13  0.15621996D-13 -0.95924948D-04 -0.11815417D-12
 -0.46386769D-13 -0.11340507D-14 -0.30369389D-13  0.31503439D-13  0.11618276D-03
  0.13490386D-12  0.23574816D-13  0.51644798D-13  0.44068989D-14 -0.10879944D-13
 -0.12756664D-12 -0.15821301D-13  0.54807327D-13 -0.27367756D-13  0.26006043D-14
 -0.22167496D-13 -0.46221969D-03 -0.20286045D-13 -0.52935485D-14 -0.13272522D-13
  0.10315784D-12  0.59805242D-14 -0.18130412D-13 -0.42299705D-13  0.99001214D-14
  0.57947977D-13  0.34832461D-03  0.67745599D-10  0.12674479D-09  0.21898688D-09
  0.35500346D-09  0.53910682D-09  0.74930776D-09  0.89086951D-09  0.79361751D-09
  0.39412724D-09  0.63451151D-10  0.66944712D-12  0.42859935D-13  0.14297357D-11
  0.49823426D-11  0.17942222D-10  0.39551396D-10  0.55675601D-10 -0.26559076D-11
 -0.72861192D-10 -0.43082367D-10  0.91888431D-15  0.11129933D-13  0.23210302D-13
  0.66563104D-13  0.34565293D-14 -0.28705239D-12 -0.74168824D-12  0.60429267D-12
 -0.29228710D-11  0.14541250D-12 -0.33222304D-13  0.82136356D+01  0.10819279D+02
  0.11935359D+02  0.99132501D+01  0.52642109D+01  0.13581939D+01 -0.14493215D-08
 -0.19090954D-08 -0.21060311D-08 -0.17492237D-08 -0.92888632D-09 -0.23965753D-09
  0.12553517D-08  0.16535919D-08  0.18241707D-08  0.15151166D-08  0.80456895D-09
  0.20758299D-09 -0.35855942D-03  0.34663218D-02  0.48878755D-02  0.69909550D-02
 -0.35401212D-04 -0.64113651D-02  0.64821176D-13 -0.62664942D-12 -0.88364109D-12
 -0.12638405D-11  0.63999105D-14  0.11590610D-11 -0.55986115D-13  0.54123774D-12
  0.76320170D-12  0.10915803D-11 -0.55276091D-14 -0.10010821D-11  0.53778751D-01
 -0.99140499D-11  0.77732034D-11 -0.35648500D-03  0.36648734D-13 -0.58813492D-13
 -0.15100803D-04  0.26612425D-14 -0.54755326D-14  0.40015880D-13 -0.15505531D-12
  0.11503943D-12  0.98460797D-03  0.56687079D-03 -0.73926747D-13 -0.22923723D-13
  0.95362704D-13 -0.72438981D-13 -0.47073686D-03 -0.32852012D-03  0.30291760D-13
  0.34224026D-14 -0.67158810D-14  0.32934784D-14  0.38507998D-04  0.51608788D-04
 -0.23172941D-14  0.20621350D-04  0.15199217D-14 -0.26064712D-14  0.44927389D-04
 -0.10255256D-13  0.48984699D-14 -0.10679144D-03  0.56954905D-14  0.29209439D-14
 -0.13057993D-04  0.17035889D-04  0.10785596D-13 -0.91043875D-14 -0.83790408D-04
 -0.57684703D-14  0.57298660D-14  0.32682740D-04 -0.26588316D-13  0.21583297D-13
 -0.13782897D-03  0.55790123D-10  0.10437737D-09  0.18034094D-09  0.29235385D-09
  0.44396738D-09  0.61707288D-09  0.73365237D-09  0.65356303D-09  0.32457322D-09
  0.52253542D-10  0.55130574D-12  0.17447244D-12  0.58201085D-11  0.20281913D-10
  0.73038453D-10  0.16100418D-09  0.22664192D-09 -0.10811558D-10 -0.29660031D-09
 -0.17537791D-09  0.37575221D-14  0.45512768D-13  0.94912080D-13  0.27219132D-12
  0.14134516D-13 -0.11738210D-11 -0.30329280D-11  0.24710870D-11 -0.11183889D-10
  0.56996900D-12  0.16245066D-12 -0.82136356D+01 -0.10819279D+02 -0.11935359D+02
 -0.99132500D+01 -0.52642109D+01 -0.13581939D+01 -0.36452795D-09 -0.48016859D-09
 -0.52970112D-09 -0.43995825D-09 -0.23363004D-09 -0.60277772D-10  0.12039492D-08
  0.15858828D-08  0.17494769D-08  0.14530776D-08  0.77162452D-09  0.19908316D-09
  0.35855942D-03 -0.34663218D-02 -0.48878755D-02 -0.69909550D-02  0.35401212D-04
  0.64113651D-02  0.97539932D-14 -0.94295330D-13 -0.13296626D-12 -0.19017692D-12
  0.96302917D-15  0.17441018D-12 -0.46985905D-13  0.45422950D-12  0.64051101D-12
  0.91610018D-12 -0.46390024D-14 -0.84015027D-12 -0.53778751D-01 -0.24124806D-11
  0.79132102D-11  0.35648500D-03 -0.43277453D-13  0.32933105D-13  0.15100803D-04
 -0.28536719D-14  0.10849166D-14  0.36930800D-13 -0.82917935D-13  0.45987135D-13
  0.98460797D-03 -0.56687079D-03  0.22967455D-12 -0.11836498D-13  0.40543044D-13
 -0.28706546D-13 -0.47073686D-03  0.32852012D-03  0.45248241D-14  0.64288935D-15
 -0.41792531D-14  0.35363638D-14  0.38507998D-04 -0.51608788D-04 -0.78411523D-14
 -0.20621350D-04 -0.17463608D-13 -0.35678402D-14 -0.44927389D-04  0.40513929D-13
 -0.14287957D-13  0.10679144D-03  0.11876894D-13  0.24991478D-13 -0.13057994D-04
 -0.17035889D-04 -0.62325420D-15  0.24367264D-15  0.83790408D-04 -0.95024368D-14
  0.99091179D-14 -0.32682740D-04  0.11372199D-13 -0.10640136D-13 -0.13782897D-03
  0.62817838D-11  0.11744427D-10  0.20297862D-10  0.32830954D-10  0.49622889D-10
  0.68340992D-10  0.79882298D-10  0.69039683D-10  0.32221180D-10  0.43652628D-11
 -0.31928161D-13  0.12049795D-12  0.15489890D-11  0.56504892D-11  0.19064610D-10
  0.41874439D-10  0.54090353D-10 -0.86927800D-11 -0.72922092D-10 -0.40018704D-10
  0.14025538D-14  0.15975960D-13  0.33171851D-13  0.91214166D-13 -0.11826964D-13
 -0.41242892D-12 -0.10286632D-11  0.85151252D-12 -0.20616644D-11 -0.42571771D-12
 -0.50603304D-13 -0.26021796D-08 -0.34139116D-08 -0.37443222D-08 -0.30807155D-08
 -0.16239781D-08 -0.42252854D-09 -0.60652931D-09 -0.79573196D-09 -0.87274575D-09
 -0.71806891D-09 -0.37852510D-09 -0.98485112D-10 -0.13934085D-08 -0.18280727D-08
 -0.20050001D-08 -0.16496537D-08 -0.86960362D-09 -0.22625450D-09 -0.23790054D-13
 -0.85395899D-12 -0.13548273D-11 -0.16088159D-11 -0.24345625D-12  0.17718290D-11
 -0.54748091D-14 -0.19652173D-12 -0.31178665D-12 -0.37023708D-12 -0.56026629D-13