 cl2cs-wavefunction
GAUSSIAN            196 MOL ORBITALS    414 PRIMITIVES        4 NUCLEI
  C    1    (CENTRE  1)   0.00000000  0.00000000 -0.98816425  CHARGE =  6.0
  Cl   2    (CENTRE  2)   0.00000000 -2.70369732 -2.83628995  CHARGE = 17.0
  Cl   3    (CENTRE  3)   0.00000000  2.70369732 -2.83628995  CHARGE = 17.0
  S    4    (CENTRE  4)  -0.01889726  0.00000000  2.04433408  CHARGE = 16.0
CENTRE ASSIGNMENTS    1  1  1  1  1  1  1  1  1  1  1  1  1  1  1  1  1  1  1  1
CENTRE ASSIGNMENTS    1  1  1  1  1  1  1  1  1  1  1  1  1  1  1  1  1  1  1  1
CENTRE ASSIGNMENTS    1  1  1  1  1  1  1  1  1  1  1  1  1  1  1  1  1  1  1  1
CENTRE ASSIGNMENTS    1  1  1  1  1  1  1  1  1  1  1  1  2  2  2  2  2  2  2  2
CENTRE ASSIGNMENTS    2  2  2  2  2  2  2  2  2  2  2  2  2  2  2  2  2  2  2  2
CENTRE ASSIGNMENTS    2  2  2  2  2  2  2  2  2  2  2  2  2  2  2  2  2  2  2  2
CENTRE ASSIGNMENTS    2  2  2  2  2  2  2  2  2  2  2  2  2  2  2  2  2  2  2  2
CENTRE ASSIGNMENTS    2  2  2  2  2  2  2  2  2  2  2  2  2  2  2  2  2  2  2  2
CENTRE ASSIGNMENTS    2  2  2  2  2  2  2  2  2  2  2  2  2  2  2  2  2  2  2  2
CENTRE ASSIGNMENTS    2  2  2  2  2  2  3  3  3  3  3  3  3  3  3  3  3  3  3  3
CENTRE ASSIGNMENTS    3  3  3  3  3  3  3  3  3  3  3  3  3  3  3  3  3  3  3  3
CENTRE ASSIGNMENTS    3  3  3  3  3  3  3  3  3  3  3  3  3  3  3  3  3  3  3  3
CENTRE ASSIGNMENTS    3  3  3  3  3  3  3  3  3  3  3  3  3  3  3  3  3  3  3  3
CENTRE ASSIGNMENTS    3  3  3  3  3  3  3  3  3  3  3  3  3  3  3  3  3  3  3  3
CENTRE ASSIGNMENTS    3  3  3  3  3  3  3  3  3  3  3  3  3  3  3  3  3  3  3  3
CENTRE ASSIGNMENTS    4  4  4  4  4  4  4  4  4  4  4  4  4  4  4  4  4  4  4  4
CENTRE ASSIGNMENTS    4  4  4  4  4  4  4  4  4  4  4  4  4  4  4  4  4  4  4  4
CENTRE ASSIGNMENTS    4  4  4  4  4  4  4  4  4  4  4  4  4  4  4  4  4  4  4  4
CENTRE ASSIGNMENTS    4  4  4  4  4  4  4  4  4  4  4  4  4  4  4  4  4  4  4  4
CENTRE ASSIGNMENTS    4  4  4  4  4  4  4  4  4  4  4  4  4  4  4  4  4  4  4  4
CENTRE ASSIGNMENTS    4  4  4  4  4  4  4  4  4  4  4  4  4  4
TYPE ASSIGNMENTS      1  1  1  1  1  1  1  1  1  1  1  1  1  1  1  1  2  2  2  3
TYPE ASSIGNMENTS      3  3  4  4  4  2  3  4  2  3  4  2  3  4  5  6  7  8  9 10
TYPE ASSIGNMENTS      5  6  7  8  9 10  5  6  7  8  9 10 11 12 13 17 14 15 18 19
TYPE ASSIGNMENTS     16 20 11 12 13 17 14 15 18 19 16 20  1  1  1  1  1  1  1  1
TYPE ASSIGNMENTS      1  1  1  1  1  1  1  1  1  1  1  1  1  1  1  1  1  1  1  1
TYPE ASSIGNMENTS      1  1  1  2  2  2  2  2  2  3  3  3  3  3  3  4  4  4  4  4
TYPE ASSIGNMENTS      4  2  2  2  2  2  2  3  3  3  3  3  3  4  4  4  4  4  4  2
TYPE ASSIGNMENTS      3  4  2  3  4  2  3  4  5  6  7  8  9 10  5  6  7  8  9 10
TYPE ASSIGNMENTS      5  6  7  8  9 10 11 12 13 17 14 15 18 19 16 20 11 12 13 17
TYPE ASSIGNMENTS     14 15 18 19 16 20  1  1  1  1  1  1  1  1  1  1  1  1  1  1
TYPE ASSIGNMENTS      1  1  1  1  1  1  1  1  1  1  1  1  1  1  1  1  1  2  2  2
TYPE ASSIGNMENTS      2  2  2  3  3  3  3  3  3  4  4  4  4  4  4  2  2  2  2  2
TYPE ASSIGNMENTS      2  3  3  3  3  3  3  4  4  4  4  4  4  2  3  4  2  3  4  2
TYPE ASSIGNMENTS      3  4  5  6  7  8  9 10  5  6  7  8  9 10  5  6  7  8  9 10
TYPE ASSIGNMENTS     11 12 13 17 14 15 18 19 16 20 11 12 13 17 14 15 18 19 16 20
TYPE ASSIGNMENTS      1  1  1  1  1  1  1  1  1  1  1  1  1  1  1  1  1  1  1  1
TYPE ASSIGNMENTS      1  1  1  1  1  1  1  1  1  1  1  2  2  2  2  2  2  3  3  3
TYPE ASSIGNMENTS      3  3  3  4  4  4  4  4  4  2  2  2  2  2  2  3  3  3  3  3
TYPE ASSIGNMENTS      3  4  4  4  4  4  4  2  3  4  2  3  4  2  3  4  5  6  7  8
TYPE ASSIGNMENTS      9 10  5  6  7  8  9 10  5  6  7  8  9 10 11 12 13 17 14 15
TYPE ASSIGNMENTS     18 19 16 20 11 12 13 17 14 15 18 19 16 20
EXPONENTS  0.8236000D+04 0.1235000D+04 0.2808000D+03 0.7927000D+02 0.2559000D+02
EXPONENTS  0.8997000D+01 0.3319000D+01 0.2808000D+03 0.7927000D+02 0.2559000D+02
EXPONENTS  0.8997000D+01 0.3319000D+01 0.3643000D+00 0.9059000D+00 0.1285000D+00
EXPONENTS  0.4402000D-01 0.1871000D+02 0.4133000D+01 0.1200000D+01 0.1871000D+02
EXPONENTS  0.4133000D+01 0.1200000D+01 0.1871000D+02 0.4133000D+01 0.1200000D+01
EXPONENTS  0.3827000D+00 0.3827000D+00 0.3827000D+00 0.1209000D+00 0.1209000D+00
EXPONENTS  0.1209000D+00 0.3569000D-01 0.3569000D-01 0.3569000D-01 0.1097000D+01
EXPONENTS  0.1097000D+01 0.1097000D+01 0.1097000D+01 0.1097000D+01 0.1097000D+01
EXPONENTS  0.3180000D+00 0.3180000D+00 0.3180000D+00 0.3180000D+00 0.3180000D+00
EXPONENTS  0.3180000D+00 0.1000000D+00 0.1000000D+00 0.1000000D+00 0.1000000D+00
EXPONENTS  0.1000000D+00 0.1000000D+00 0.7610000D+00 0.7610000D+00 0.7610000D+00
EXPONENTS  0.7610000D+00 0.7610000D+00 0.7610000D+00 0.7610000D+00 0.7610000D+00
EXPONENTS  0.7610000D+00 0.7610000D+00 0.2680000D+00 0.2680000D+00 0.2680000D+00
EXPONENTS  0.2680000D+00 0.2680000D+00 0.2680000D+00 0.2680000D+00 0.2680000D+00
EXPONENTS  0.2680000D+00 0.2680000D+00 0.4561000D+06 0.6833000D+05 0.1555000D+05
EXPONENTS  0.4405000D+04 0.1439000D+04 0.5204000D+03 0.2031000D+03 0.8396000D+02
EXPONENTS  0.3620000D+02 0.1583000D+02 0.6334000D+01 0.4405000D+04 0.1439000D+04
EXPONENTS  0.5204000D+03 0.2031000D+03 0.8396000D+02 0.3620000D+02 0.1583000D+02
EXPONENTS  0.6334000D+01 0.2694000D+01 0.1439000D+04 0.2031000D+03 0.8396000D+02
EXPONENTS  0.3620000D+02 0.1583000D+02 0.6334000D+01 0.2694000D+01 0.4313000D+00
EXPONENTS  0.9768000D+00 0.1625000D+00 0.5910000D-01 0.6633000D+03 0.1568000D+03
EXPONENTS  0.4998000D+02 0.1842000D+02 0.7240000D+01 0.2922000D+01 0.6633000D+03
EXPONENTS  0.1568000D+03 0.4998000D+02 0.1842000D+02 0.7240000D+01 0.2922000D+01
EXPONENTS  0.6633000D+03 0.1568000D+03 0.4998000D+02 0.1842000D+02 0.7240000D+01
EXPONENTS  0.2922000D+01 0.1568000D+03 0.4998000D+02 0.1842000D+02 0.7240000D+01
EXPONENTS  0.2922000D+01 0.3818000D+00 0.1568000D+03 0.4998000D+02 0.1842000D+02
EXPONENTS  0.7240000D+01 0.2922000D+01 0.3818000D+00 0.1568000D+03 0.4998000D+02
EXPONENTS  0.1842000D+02 0.7240000D+01 0.2922000D+01 0.3818000D+00 0.1022000D+01
EXPONENTS  0.1022000D+01 0.1022000D+01 0.1301000D+00 0.1301000D+00 0.1301000D+00
EXPONENTS  0.4190000D-01 0.4190000D-01 0.4190000D-01 0.1046000D+01 0.1046000D+01
EXPONENTS  0.1046000D+01 0.1046000D+01 0.1046000D+01 0.1046000D+01 0.3440000D+00
EXPONENTS  0.3440000D+00 0.3440000D+00 0.3440000D+00 0.3440000D+00 0.3440000D+00
EXPONENTS  0.1350000D+00 0.1350000D+00 0.1350000D+00 0.1350000D+00 0.1350000D+00
EXPONENTS  0.1350000D+00 0.7060000D+00 0.7060000D+00 0.7060000D+00 0.7060000D+00
EXPONENTS  0.7060000D+00 0.7060000D+00 0.7060000D+00 0.7060000D+00 0.7060000D+00
EXPONENTS  0.7060000D+00 0.3120000D+00 0.3120000D+00 0.3120000D+00 0.3120000D+00
EXPONENTS  0.3120000D+00 0.3120000D+00 0.3120000D+00 0.3120000D+00 0.3120000D+00
EXPONENTS  0.3120000D+00 0.4561000D+06 0.6833000D+05 0.1555000D+05 0.4405000D+04
EXPONENTS  0.1439000D+04 0.5204000D+03 0.2031000D+03 0.8396000D+02 0.3620000D+02
EXPONENTS  0.1583000D+02 0.6334000D+01 0.4405000D+04 0.1439000D+04 0.5204000D+03
EXPONENTS  0.2031000D+03 0.8396000D+02 0.3620000D+02 0.1583000D+02 0.6334000D+01
EXPONENTS  0.2694000D+01 0.1439000D+04 0.2031000D+03 0.8396000D+02 0.3620000D+02
EXPONENTS  0.1583000D+02 0.6334000D+01 0.2694000D+01 0.4313000D+00 0.9768000D+00
EXPONENTS  0.1625000D+00 0.5910000D-01 0.6633000D+03 0.1568000D+03 0.4998000D+02
EXPONENTS  0.1842000D+02 0.7240000D+01 0.2922000D+01 0.6633000D+03 0.1568000D+03
EXPONENTS  0.4998000D+02 0.1842000D+02 0.7240000D+01 0.2922000D+01 0.6633000D+03
EXPONENTS  0.1568000D+03 0.4998000D+02 0.1842000D+02 0.7240000D+01 0.2922000D+01
EXPONENTS  0.1568000D+03 0.4998000D+02 0.1842000D+02 0.7240000D+01 0.2922000D+01
EXPONENTS  0.3818000D+00 0.1568000D+03 0.4998000D+02 0.1842000D+02 0.7240000D+01
EXPONENTS  0.2922000D+01 0.3818000D+00 0.1568000D+03 0.4998000D+02 0.1842000D+02
EXPONENTS  0.7240000D+01 0.2922000D+01 0.3818000D+00 0.1022000D+01 0.1022000D+01
EXPONENTS  0.1022000D+01 0.1301000D+00 0.1301000D+00 0.1301000D+00 0.4190000D-01
EXPONENTS  0.4190000D-01 0.4190000D-01 0.1046000D+01 0.1046000D+01 0.1046000D+01
EXPONENTS  0.1046000D+01 0.1046000D+01 0.1046000D+01 0.3440000D+00 0.3440000D+00
EXPONENTS  0.3440000D+00 0.3440000D+00 0.3440000D+00 0.3440000D+00 0.1350000D+00
EXPONENTS  0.1350000D+00 0.1350000D+00 0.1350000D+00 0.1350000D+00 0.1350000D+00
EXPONENTS  0.7060000D+00 0.7060000D+00 0.7060000D+00 0.7060000D+00 0.7060000D+00
EXPONENTS  0.7060000D+00 0.7060000D+00 0.7060000D+00 0.7060000D+00 0.7060000D+00
EXPONENTS  0.3120000D+00 0.3120000D+00 0.3120000D+00 0.3120000D+00 0.3120000D+00
EXPONENTS  0.3120000D+00 0.3120000D+00 0.3120000D+00 0.3120000D+00 0.3120000D+00
EXPONENTS  0.3741000D+06 0.5605000D+05 0.1276000D+05 0.3615000D+04 0.1183000D+04
EXPONENTS  0.4288000D+03 0.1678000D+03 0.6947000D+02 0.2984000D+02 0.1272000D+02
EXPONENTS  0.5244000D+01 0.3615000D+04 0.1183000D+04 0.4288000D+03 0.1678000D+03
EXPONENTS  0.6947000D+02 0.2984000D+02 0.1272000D+02 0.5244000D+01 0.2219000D+01
EXPONENTS  0.1183000D+04 0.1678000D+03 0.6947000D+02 0.2984000D+02 0.1272000D+02
EXPONENTS  0.5244000D+01 0.2219000D+01 0.3490000D+00 0.7767000D+00 0.1322000D+00
EXPONENTS  0.4970000D-01 0.5744000D+03 0.1358000D+03 0.4319000D+02 0.1587000D+02
EXPONENTS  0.6208000D+01 0.2483000D+01 0.5744000D+03 0.1358000D+03 0.4319000D+02
EXPONENTS  0.1587000D+02 0.6208000D+01 0.2483000D+01 0.5744000D+03 0.1358000D+03
EXPONENTS  0.4319000D+02 0.1587000D+02 0.6208000D+01 0.2483000D+01 0.1358000D+03
EXPONENTS  0.4319000D+02 0.1587000D+02 0.6208000D+01 0.2483000D+01 0.3229000D+00
EXPONENTS  0.1358000D+03 0.4319000D+02 0.1587000D+02 0.6208000D+01 0.2483000D+01
EXPONENTS  0.3229000D+00 0.1358000D+03 0.4319000D+02 0.1587000D+02 0.6208000D+01
EXPONENTS  0.2483000D+01 0.3229000D+00 0.8688000D+00 0.8688000D+00 0.8688000D+00
EXPONENTS  0.1098000D+00 0.1098000D+00 0.1098000D+00 0.3510000D-01 0.3510000D-01
EXPONENTS  0.3510000D-01 0.2690000D+00 0.2690000D+00 0.2690000D+00 0.2690000D+00
EXPONENTS  0.2690000D+00 0.2690000D+00 0.8190000D+00 0.8190000D+00 0.8190000D+00
EXPONENTS  0.8190000D+00 0.8190000D+00 0.8190000D+00 0.1010000D+00 0.1010000D+00
EXPONENTS  0.1010000D+00 0.1010000D+00 0.1010000D+00 0.1010000D+00 0.5570000D+00
EXPONENTS  0.5570000D+00 0.5570000D+00 0.5570000D+00 0.5570000D+00 0.5570000D+00
EXPONENTS  0.5570000D+00 0.5570000D+00 0.5570000D+00 0.5570000D+00 0.2180000D+00
EXPONENTS  0.2180000D+00 0.2180000D+00 0.2180000D+00 0.2180000D+00 0.2180000D+00
EXPONENTS  0.2180000D+00 0.2180000D+00 0.2180000D+00 0.2180000D+00
MO    1     MO 0.0        OCC NO =    2.0000385  ORB. ENERGY =    0.000000
 -0.38213707D-11 -0.71238049D-11 -0.12040201D-10 -0.18098668D-10 -0.22230971D-10
 -0.18762156D-10 -0.70550605D-11 -0.13446801D-13 -0.10050651D-12 -0.37561577D-12
 -0.10479095D-11 -0.14039099D-11  0.16577558D-11  0.54527419D-12 -0.59763799D-11
 -0.91285430D-12  0.11440225D-12  0.10725938D-12  0.76375069D-13  0.74406211D-03
  0.69760552D-03  0.49673669D-03  0.99959158D-11  0.93718064D-11  0.66732845D-11
 -0.92091752D-14  0.19819407D-03  0.72337458D-11 -0.36966958D-14  0.30946901D-03
 -0.63652461D-11  0.32344758D-14 -0.10509757D-04 -0.58363305D-12 -0.83057385D-12
  0.90796115D-11 -0.82490376D-11 -0.17979967D-05  0.88615969D-13  0.26891803D-03
  0.84234084D-12 -0.14346672D-11  0.59232633D-12 -0.12185168D-05 -0.47484225D-13
  0.28110605D-03  0.64725977D-13  0.20662467D-11 -0.21309727D-11 -0.14306632D-05
  0.72441142D-14  0.18757773D-03 -0.26312078D-15  0.24698303D-03  0.12535498D-11
  0.23617362D-14  0.26452393D-04 -0.23764793D-11 -0.15723738D-14 -0.76740147D-03
 -0.13841701D-11  0.43174937D-05  0.18502877D-14 -0.30060410D-03 -0.95133310D-12
  0.80774848D-14 -0.21454837D-04  0.12364392D-11 -0.13628348D-13  0.92326713D-03
  0.16175601D-11 -0.72584176D-05 -0.13948682D-02 -0.26096495D-02 -0.45088956D-02
 -0.73094495D-02 -0.11100100D-01 -0.15428095D-01 -0.18342823D-01 -0.16340424D-01
 -0.81150002D-02 -0.13064464D-02 -0.13783781D-04 -0.68593716D-05 -0.22881715D-03
 -0.79738197D-03 -0.28715016D-02 -0.63298679D-02 -0.89104111D-02  0.42505565D-03
  0.11660820D-01  0.68949700D-02  0.22702820D-06  0.27498660D-05  0.57345556D-05
  0.16445707D-04  0.85400266D-06 -0.70921864D-04 -0.18324848D-03  0.14930223D-03
  0.38491360D-03 -0.21121996D-03 -0.10726371D-03 -0.26487243D-01 -0.34889895D-01
 -0.38489016D-01 -0.31968141D-01 -0.16975970D-01 -0.43798890D-02 -0.48526867D+01
 -0.63921236D+01 -0.70515130D+01 -0.58568336D+01 -0.31101412D+01 -0.80243268D+00
  0.65963474D+01  0.86889326D+01  0.95852527D+01  0.79613029D+01  0.42276728D+01
  0.10907617D+01  0.14107253D-05 -0.13637984D-04 -0.19230981D-04 -0.27505390D-04
  0.13928342D-06  0.25225037D-04  0.25174722D-03 -0.24337301D-02 -0.34318135D-02
 -0.49084012D-02  0.24855453D-04  0.45014668D-02 -0.32934762D-03  0.31839208D-02
  0.44896607D-02  0.64214025D-02 -0.32517079D-04 -0.58890318D-02 -0.17235618D-03
 -0.31216087D-01  0.42590018D-01  0.76610689D-06  0.34366048D-03 -0.50718847D-03
  0.21553911D-07  0.96077272D-05 -0.19522428D-04  0.76165869D-05 -0.81313118D-03
  0.80551460D-03 -0.60285287D-05 -0.11832106D-05  0.73858550D-03  0.41800160D-04
  0.47694235D-03 -0.51874251D-03  0.40670036D-05  0.13768027D-05 -0.34738123D-03
 -0.21094725D-05 -0.15935854D-05  0.37030579D-05 -0.23361920D-06 -0.36593204D-06
  0.34819297D-05 -0.19914845D-06 -0.22282350D-04 -0.98472872D-05 -0.33667278D-06
  0.49200460D-04  0.37124173D-04  0.93411815D-06  0.17646590D-04 -0.75823110D-05
  0.12866740D-05 -0.10915693D-06  0.84373502D-04 -0.40464948D-04  0.10772971D-05
 -0.90705148D-05  0.43595014D-04 -0.74982632D-06 -0.24404999D-03  0.77799830D-04
  0.55771435D-06  0.13948682D-02  0.26096496D-02  0.45088957D-02  0.73094497D-02
  0.11100101D-01  0.15428096D-01  0.18342824D-01  0.16340425D-01  0.81150004D-02
  0.13064464D-02  0.13783781D-04  0.68593716D-05  0.22881715D-03  0.79738196D-03
  0.28715016D-02  0.63298678D-02  0.89104110D-02 -0.42505564D-03 -0.11660820D-01
 -0.68949699D-02 -0.22702820D-06 -0.27498659D-05 -0.57345554D-05 -0.16445706D-04
 -0.85400263D-06  0.70921862D-04  0.18324847D-03 -0.14930223D-03 -0.38491359D-03
  0.21121995D-03  0.10726371D-03  0.26487244D-01  0.34889896D-01  0.38489017D-01
  0.31968142D-01  0.16975971D-01  0.43798892D-02 -0.48526868D+01 -0.63921238D+01
 -0.70515131D+01 -0.58568338D+01 -0.31101413D+01 -0.80243270D+00 -0.65963475D+01
 -0.86889328D+01 -0.95852530D+01 -0.79613031D+01 -0.42276729D+01 -0.10907617D+01
 -0.14107253D-05  0.13637984D-04  0.19230982D-04  0.27505391D-04 -0.13928343D-06
 -0.25225038D-04  0.25174722D-03 -0.24337302D-02 -0.34318136D-02 -0.49084013D-02
  0.24855453D-04  0.45014669D-02  0.32934762D-03 -0.31839209D-02 -0.44896609D-02
 -0.64214027D-02  0.32517079D-04  0.58890319D-02  0.17235619D-03 -0.31216088D-01
 -0.42590019D-01 -0.76610693D-06  0.34366048D-03  0.50718847D-03 -0.21553916D-07
  0.96077275D-05  0.19522429D-04 -0.76165865D-05  0.81313120D-03 -0.80551461D-03
 -0.60285288D-05  0.11832107D-05  0.73858551D-03 -0.41800159D-04 -0.47694236D-03
  0.51874252D-03  0.40670037D-05 -0.13768028D-05 -0.34738124D-03  0.21094724D-05
  0.15935866D-05 -0.37030590D-05 -0.23361921D-06  0.36593204D-06  0.34819304D-05
  0.19914845D-06 -0.22282349D-04  0.98472873D-05  0.33667278D-06  0.49200459D-04
 -0.37124172D-04 -0.93411813D-06  0.17646589D-04  0.75823101D-05  0.12866740D-05
  0.10915693D-06  0.84373503D-04  0.40464948D-04 -0.10772971D-05 -0.90705153D-05
 -0.43595015D-04  0.74982631D-06 -0.24404999D-03 -0.77799828D-04  0.55771437D-06
  0.86677508D-11  0.16205233D-10  0.28007459D-10  0.45300911D-10  0.68470811D-10
  0.94298484D-10  0.11022344D-09  0.95262554D-10  0.44459530D-10  0.60232908D-11
 -0.44055216D-13  0.82486151D-13  0.10603512D-11  0.38680086D-11  0.13050565D-10
  0.28664897D-10  0.37027229D-10 -0.59505907D-11 -0.49918383D-10 -0.27394565D-10
  0.31229828D-14  0.35572716D-13  0.73861781D-13  0.20310114D-12 -0.26334395D-13
 -0.91833086D-12 -0.22904630D-11  0.18960121D-11 -0.28628388D-12  0.14909953D-10
  0.33562830D-11 -0.30847940D-09 -0.40470744D-09 -0.44387647D-09 -0.36520819D-09
 -0.19251699D-09 -0.50089300D-10  0.83872038D+00  0.11003534D+01  0.12068496D+01
  0.99295948D+00  0.52343178D+00  0.13618710D+00 -0.77393813D-08 -0.10153628D-07
 -0.11136333D-07 -0.91626390D-08 -0.48300223D-08 -0.12566810D-08 -0.23026584D-14
 -0.82655378D-13 -0.13113483D-12 -0.15571859D-12 -0.23564327D-13  0.17149675D-12
  0.22748832D-04  0.81658366D-03  0.12955305D-02  0.15384027D-02  0.23280087D-03
 -0.16942811D-02 -0.60594319D-13 -0.21750713D-11 -0.34508052D-11 -0.40977253D-11
 -0.62009385D-12  0.45129268D-11 -0.24095877D-11  0.59018408D-02 -0.53387097D-10
  0.51284101D-13 -0.52199943D-03 -0.15199166D-11  0.12184558D-14 -0.67217181D-05
 -0.46784129D-14  0.26166688D-12  0.57559413D-12 -0.83726101D-12 -0.62339975D-05
 -0.53708042D-13  0.69035963D-03 -0.11776852D-11  0.11646430D-11  0.13042228D-13
  0.13201738D-05  0.14512376D-13 -0.10463110D-03  0.12868844D-12 -0.11587714D-12
 -0.12811295D-13 -0.48808561D-06 -0.59574523D-14  0.76545568D-04 -0.11968043D-13
  0.63084286D-04  0.41644895D-12  0.14945897D-13  0.23058258D-04  0.56809261D-12
  0.20958233D-13 -0.21231112D-03 -0.18174395D-11  0.57746639D-05  0.68187594D-15
  0.27136668D-04  0.12326896D-12 -0.45795656D-14  0.20631272D-05 -0.25159574D-12
  0.25339378D-14 -0.83473131D-04 -0.11821114D-12  0.18693989D-05
MO    2     MO 0.0        OCC NO =    2.0000376  ORB. ENERGY =    0.000000
 -0.56258801D-03 -0.10487774D-02 -0.17725767D-02 -0.26645133D-02 -0.32728774D-02
 -0.27621930D-02 -0.10386567D-02 -0.10917682D-05 -0.81602913D-05 -0.30496872D-04
 -0.85081523D-04 -0.11398578D-03  0.13459596D-03  0.18342212D-04 -0.44424727D-03
 -0.64471062D-04 -0.38500415D-05 -0.36096586D-05 -0.25702920D-05 -0.84775119D-11
 -0.79482063D-11 -0.56595964D-11  0.81750654D-03  0.76646434D-03  0.54576827D-03
 -0.24530613D-05 -0.24065428D-11  0.57387917D-03  0.50391147D-06 -0.39873866D-11
 -0.50669849D-03  0.13326045D-06  0.13802324D-12 -0.46047802D-04 -0.63803223D-04
  0.71576426D-03 -0.65196104D-03 -0.10990742D-12  0.57199483D-05 -0.32456814D-11
  0.63287267D-04 -0.11213336D-03  0.48846091D-04  0.22796471D-13 -0.26242814D-05
 -0.34749316D-11  0.47803829D-05  0.16311124D-03 -0.16789162D-03  0.25971977D-14
  0.11762247D-06 -0.23246737D-11  0.55323101D-06 -0.31273271D-11  0.99948334D-04
 -0.29359595D-06 -0.38859237D-12 -0.19010125D-03 -0.13660971D-05  0.97705735D-11
 -0.10974375D-03 -0.48420143D-14 -0.15748462D-06  0.38010096D-11 -0.74366751D-04
  0.68691152D-06  0.29246509D-12  0.98165743D-04 -0.21445765D-06 -0.11695494D-10
  0.12493451D-03  0.54934821D-13 -0.80019118D-03 -0.14970723D-02 -0.25866089D-02
 -0.41931969D-02 -0.63677719D-02 -0.88506038D-02 -0.10522690D-01 -0.93739777D-02
 -0.46553155D-02 -0.74946642D-03 -0.79073134D-05 -0.41553667D-05 -0.13861608D-03
 -0.48304928D-03 -0.17395387D-02 -0.38345965D-02 -0.53978742D-02  0.25749619D-03
  0.70640559D-02  0.41769320D-02  0.29122725D-06  0.35274732D-05  0.73561735D-05
  0.21096225D-04  0.10954976D-05 -0.90977153D-04 -0.23506749D-03  0.19152193D-03
  0.13794272D-03 -0.35354959D-03 -0.17159270D-03  0.31464443D-01  0.41446031D-01
  0.45721460D-01  0.37975253D-01  0.20165913D-01  0.52029110D-02  0.41841054D+01
  0.55114456D+01  0.60799872D+01  0.50499054D+01  0.26816399D+01  0.69187711D+00
 -0.70562124D+01 -0.92946824D+01 -0.10253490D+02 -0.85163259D+01 -0.45224054D+01
 -0.11668042D+01 -0.13864469D-05  0.13403276D-04  0.18900019D-04  0.27032026D-04
 -0.13688638D-06 -0.24790918D-04 -0.18202238D-03  0.17596753D-02  0.24813258D-02
  0.35489523D-02 -0.17971395D-04 -0.32547240D-02  0.33136752D-03 -0.32034480D-02
 -0.45171961D-02 -0.64607854D-02  0.32716508D-04  0.59251495D-02  0.20173922D-03
  0.27026390D-01 -0.45655315D-01 -0.24088183D-05 -0.14315282D-03  0.13550923D-03
 -0.13183458D-06 -0.10749270D-04  0.13333287D-04  0.14972173D-04  0.47416783D-03
 -0.48914000D-03  0.38731747D-05  0.23156297D-05 -0.44614594D-03  0.24751677D-04
 -0.28453830D-03  0.25978662D-03 -0.18944745D-05 -0.89881676D-06  0.41260837D-03
 -0.27893439D-05  0.47355565D-04 -0.44566221D-04 -0.10236964D-06 -0.20825052D-06
 -0.26995998D-04 -0.20757231D-06 -0.30174820D-04  0.10936895D-05  0.82650699D-07
  0.59179023D-04  0.30242464D-04  0.54006624D-06  0.31345438D-04 -0.33523532D-04
  0.96433228D-06  0.23027455D-06 -0.46860630D-04 -0.11819286D-04 -0.41767669D-06
  0.18267281D-04 -0.41592462D-04 -0.27314697D-06  0.12231461D-03  0.77050320D-04
 -0.95861309D-06 -0.80019125D-03 -0.14970724D-02 -0.25866091D-02 -0.41931973D-02
 -0.63677725D-02 -0.88506047D-02 -0.10522691D-01 -0.93739786D-02 -0.46553160D-02
 -0.74946649D-03 -0.79073142D-05 -0.41553670D-05 -0.13861609D-03 -0.48304931D-03
 -0.17395388D-02 -0.38345968D-02 -0.53978746D-02  0.25749621D-03  0.70640564D-02
  0.41769323D-02  0.29122725D-06  0.35274732D-05  0.73561735D-05  0.21096225D-04
  0.10954976D-05 -0.90977154D-04 -0.23506749D-03  0.19152193D-03  0.13794274D-03
 -0.35354959D-03 -0.17159270D-03  0.31464444D-01  0.41446033D-01  0.45721462D-01
  0.37975254D-01  0.20165914D-01  0.52029112D-02 -0.41841052D+01 -0.55114454D+01
 -0.60799870D+01 -0.50499053D+01 -0.26816398D+01 -0.69187709D+00 -0.70562122D+01
 -0.92946822D+01 -0.10253489D+02 -0.85163257D+01 -0.45224053D+01 -0.11668042D+01
 -0.13864469D-05  0.13403277D-04  0.18900019D-04  0.27032027D-04 -0.13688638D-06
 -0.24790918D-04  0.18202238D-03 -0.17596752D-02 -0.24813257D-02 -0.35489522D-02
  0.17971394D-04  0.32547239D-02  0.33136752D-03 -0.32034479D-02 -0.45171960D-02
 -0.64607852D-02  0.32716507D-04  0.59251494D-02  0.20173923D-03 -0.27026389D-01
 -0.45655314D-01 -0.24088183D-05  0.14315281D-03  0.13550922D-03 -0.13183458D-06
  0.10749270D-04  0.13333287D-04  0.14972174D-04  0.47416781D-03 -0.48913998D-03
 -0.38731748D-05  0.23156298D-05  0.44614592D-03  0.24751678D-04 -0.28453829D-03
  0.25978661D-03  0.18944745D-05 -0.89881680D-06 -0.41260836D-03 -0.27893439D-05
  0.47355565D-04 -0.44566221D-04  0.10236963D-06 -0.20825052D-06  0.26995998D-04
 -0.20757231D-06  0.30174821D-04  0.10936893D-05  0.82650699D-07 -0.59179024D-04
  0.30242465D-04  0.54006624D-06 -0.31345438D-04 -0.33523533D-04 -0.96433230D-06
  0.23027455D-06  0.46860628D-04 -0.11819287D-04 -0.41767668D-06 -0.18267281D-04
 -0.41592461D-04 -0.27314698D-06 -0.12231460D-03  0.77050322D-04  0.95861310D-06
  0.51324125D-03  0.95955622D-03  0.16583984D-02  0.26823910D-02  0.40543442D-02
  0.55836714D-02  0.65266319D-02  0.56407566D-02  0.26325705D-02  0.35665554D-03
 -0.26086300D-05  0.64735135D-05  0.83216365D-04  0.30356134D-03  0.10242084D-02
  0.22496213D-02  0.29058971D-02 -0.46700239D-03 -0.39175949D-02 -0.21499256D-02
  0.23265066D-06  0.26500357D-05  0.55024294D-05  0.15130283D-04 -0.19618150D-05
 -0.68412251D-04 -0.17063102D-03  0.14124589D-03 -0.26434314D-04  0.11723894D-02
  0.25937600D-03  0.27363298D-02  0.35899090D-02  0.39373533D-02  0.32395357D-02
  0.17076990D-02  0.44431116D-03 -0.11555665D-07 -0.15160376D-07 -0.16627651D-07
 -0.13680730D-07 -0.72117032D-08 -0.18763495D-08 -0.57344349D+00 -0.75232525D+00
 -0.82513798D+00 -0.67889867D+00 -0.35787678D+00 -0.93112806D-01 -0.26734505D-07
 -0.95965193D-06 -0.15225118D-05 -0.18079361D-05 -0.27358839D-06  0.19911250D-05
 -0.29533782D-12 -0.10601338D-10 -0.16819288D-10 -0.19972388D-10 -0.30223488D-11
  0.21996088D-10 -0.45653983D-05 -0.16387785D-03 -0.25999632D-03 -0.30873766D-03
 -0.46720145D-04  0.34002046D-03  0.17590931D-04 -0.81257875D-10 -0.39326100D-02
  0.46416822D-05  0.65992135D-11 -0.11705183D-03  0.11072891D-06  0.84774970D-13
 -0.89308850D-07  0.20095271D-04  0.45787087D-04 -0.65882358D-04  0.89589125D-13
 -0.22186992D-05 -0.87881381D-11 -0.91834942D-04  0.92066376D-04 -0.23143327D-06
 -0.40871755D-13  0.23694086D-06  0.13329321D-11  0.10395635D-04 -0.90150923D-05
 -0.13805423D-05  0.10131575D-13 -0.62511592D-06 -0.96139239D-12 -0.55543808D-06
 -0.79942081D-12  0.33053450D-04  0.90923482D-06 -0.30727928D-12  0.45335053D-04
  0.75707942D-06  0.27055417D-11 -0.14449540D-03 -0.60835154D-13  0.74349206D-07
 -0.34518063D-12  0.97919103D-05 -0.26839444D-06 -0.26315073D-13 -0.19899959D-04
  0.45346822D-07  0.10618570D-11 -0.94757720D-05 -0.35128139D-13
MO    3     MO 0.0        OCC NO =    2.0000330  ORB. ENERGY =    0.000000
 -0.91635659D-11 -0.17082733D-10 -0.28872146D-10 -0.43400221D-10 -0.53309398D-10
 -0.44991251D-10 -0.16917885D-10 -0.79896383D-15 -0.59717597D-14 -0.22317829D-13
 -0.62263269D-13 -0.83415614D-13  0.98498287D-13 -0.76593572D-12  0.75588515D-13
  0.13116425D-13 -0.73010938D-11 -0.68452395D-11 -0.48742183D-11 -0.60117894D-05
 -0.56364347D-05 -0.40134773D-05 -0.73007109D-14 -0.68448805D-14 -0.48739627D-14
 -0.15320155D-11  0.86989876D-06  0.10566322D-13  0.20172824D-12 -0.11449595D-04
 -0.12444972D-12  0.46269734D-13 -0.52632172D-06 -0.25684075D-14 -0.57944357D-14
  0.10515614D-12 -0.99361707D-13  0.11747797D-02  0.19494106D-11  0.87783629D-05
 -0.17204322D-13  0.20500907D-13 -0.32965847D-14 -0.10409628D-03 -0.76448245D-13
 -0.69020154D-05 -0.30824180D-14  0.18604557D-13 -0.15522139D-13  0.11685152D-03
  0.28795141D-12 -0.57289200D-05  0.16970821D-12 -0.55278735D-08  0.31971004D-14
 -0.32562746D-12  0.51083872D-06  0.71886751D-14 -0.18349718D-12 -0.49425510D-06
 -0.16779976D-13 -0.46335484D-03 -0.69040636D-13  0.48233912D-06 -0.10145825D-13
  0.22509637D-12 -0.18907052D-06  0.20602039D-13 -0.17974458D-13 -0.12579468D-05
  0.98354363D-14  0.34834725D-03 -0.44980150D-04 -0.84153060D-04 -0.14539782D-03
 -0.23570695D-03 -0.35794363D-03 -0.49750796D-03 -0.59149885D-03 -0.52692773D-03
 -0.26168345D-03 -0.42128822D-04 -0.44448395D-06 -0.21043439D-06 -0.70197390D-05
 -0.24462385D-04 -0.88093009D-04 -0.19419008D-03 -0.27335695D-03  0.13040018D-04
  0.35773504D-03  0.21152649D-03 -0.45336675D-08 -0.54913785D-07 -0.11451691D-06
 -0.32841456D-06 -0.17054111D-07  0.14162829D-05  0.36594029D-05 -0.29815092D-05
  0.11842583D-04  0.50539966D-05 -0.11795700D-05  0.82135453D+01  0.10819161D+02
  0.11935228D+02  0.99131411D+01  0.52641530D+01  0.13581790D+01 -0.26111363D-01
 -0.34394773D-01 -0.37942819D-01 -0.31514482D-01 -0.16735064D-01 -0.43177341D-02
  0.14479108D-01  0.19072373D-01  0.21039813D-01  0.17475212D-01  0.92798225D-02
  0.23942427D-02 -0.35897772D-03  0.34703657D-02  0.48935778D-02  0.69991108D-02
 -0.35442512D-04 -0.64188447D-02  0.11926828D-05 -0.11530090D-04 -0.16258630D-04
 -0.23254142D-04  0.11775570D-06  0.21326241D-04 -0.41305582D-06  0.39931579D-05
  0.56307695D-05  0.80534899D-05 -0.40781739D-07 -0.73858098D-05  0.53791048D-01
 -0.17266936D-03  0.90756606D-04 -0.35370948D-03  0.18279675D-05 -0.47608363D-05
 -0.14916933D-04  0.14260291D-06 -0.10637900D-06  0.83457465D-06 -0.27971206D-05
  0.19625460D-05  0.99073736D-03  0.56260122D-03  0.22368672D-05 -0.58358033D-06
  0.12072378D-05 -0.62365745D-06 -0.47787198D-03 -0.32825534D-03  0.13901165D-05
  0.40537312D-06  0.18111299D-06 -0.58648610D-06  0.39012205D-04  0.52139525D-04
 -0.66201096D-06  0.21144316D-04 -0.44056726D-06  0.14817319D-06  0.44253277D-04
 -0.29419051D-06 -0.21326803D-06 -0.10768623D-03  0.16158923D-05 -0.23125153D-06
 -0.17198915D-04  0.17142789D-04  0.23131120D-06 -0.28711791D-06 -0.85418045D-04
 -0.13766142D-06 -0.15829732D-07  0.33989678D-04 -0.55627217D-06  0.87718347D-06
 -0.13698967D-03  0.44980256D-04  0.84153259D-04  0.14539817D-03  0.23570751D-03
  0.35794447D-03  0.49750914D-03  0.59150025D-03  0.52692898D-03  0.26168407D-03
  0.42128922D-04  0.44448501D-06  0.21043465D-06  0.70197475D-05  0.24462415D-04
  0.88093116D-04  0.19419031D-03  0.27335728D-03 -0.13040033D-04 -0.35773548D-03
 -0.21152675D-03  0.45336732D-08  0.54913854D-07  0.11451705D-06  0.32841497D-06
  0.17054132D-07 -0.14162846D-05 -0.36594075D-05  0.29815130D-05 -0.11842600D-04
 -0.50539965D-05  0.11795700D-05 -0.82135452D+01 -0.10819160D+02 -0.11935228D+02
 -0.99131410D+01 -0.52641530D+01 -0.13581790D+01 -0.26111365D-01 -0.34394775D-01
 -0.37942821D-01 -0.31514484D-01 -0.16735065D-01 -0.43177344D-02 -0.14479109D-01
 -0.19072374D-01 -0.21039814D-01 -0.17475213D-01 -0.92798231D-02 -0.23942429D-02
  0.35897772D-03 -0.34703656D-02 -0.48935778D-02 -0.69991108D-02  0.35442512D-04
  0.64188447D-02  0.11926828D-05 -0.11530090D-04 -0.16258631D-04 -0.23254143D-04
  0.11775571D-06  0.21326243D-04  0.41305588D-06 -0.39931584D-05 -0.56307702D-05
 -0.80534909D-05  0.40781745D-07  0.73858108D-05 -0.53791048D-01 -0.17266937D-03
 -0.90756612D-04  0.35370948D-03  0.18279676D-05  0.47608363D-05  0.14916933D-04
  0.14260291D-06  0.10637901D-06 -0.83457457D-06  0.27971206D-05 -0.19625461D-05
  0.99073736D-03 -0.56260122D-03  0.22368677D-05  0.58358035D-06 -0.12072379D-05
  0.62365750D-06 -0.47787198D-03  0.32825534D-03  0.13901164D-05 -0.40537311D-06
 -0.18111299D-06  0.58648610D-06  0.39012205D-04 -0.52139525D-04 -0.66201094D-06
 -0.21144316D-04 -0.44056725D-06 -0.14817319D-06 -0.44253278D-04 -0.29419052D-06
  0.21326804D-06  0.10768623D-03  0.16158923D-05  0.23125154D-06 -0.17198915D-04
 -0.17142789D-04  0.23131121D-06  0.28711791D-06  0.85418044D-04 -0.13766144D-06
  0.15829729D-07 -0.33989678D-04 -0.55627220D-06 -0.87718346D-06 -0.13698967D-03
 -0.13162900D-10 -0.24609368D-10 -0.42532303D-10 -0.68794247D-10 -0.10398020D-09
 -0.14320227D-09 -0.16738601D-09 -0.14466631D-09 -0.67516520D-10 -0.91470070D-11
  0.66902526D-13 -0.11952580D-12 -0.15364921D-11 -0.56049025D-11 -0.18910802D-10
 -0.41536607D-10 -0.53653966D-10  0.86226489D-11  0.72333775D-10  0.39695843D-10
 -0.67279061D-15 -0.76635033D-14 -0.15912195D-13 -0.43754496D-13  0.56732729D-14
  0.19783790D-12  0.49343915D-12 -0.40846178D-12  0.23317827D-11  0.12828720D-12
  0.10653011D-13 -0.23315499D-08 -0.30588609D-08 -0.33549084D-08 -0.27603176D-08
 -0.14550825D-08 -0.37858509D-09 -0.81800332D-02 -0.10731738D-01 -0.11770394D-01
 -0.96843260D-02 -0.51050260D-02 -0.13282317D-02 -0.29827567D-09 -0.39132072D-09
 -0.42919413D-09 -0.35312800D-09 -0.18614901D-09 -0.48432470D-10 -0.34362894D-13
 -0.12334778D-11 -0.19569434D-11 -0.23238103D-11 -0.35165374D-12  0.25592700D-11
 -0.14403427D-06 -0.51702011D-05 -0.82026537D-05 -0.97403996D-05 -0.14739792D-05