 cl2cs-wavefunction
GAUSSIAN            196 MOL ORBITALS    414 PRIMITIVES        4 NUCLEI
  C    1    (CENTRE  1)   0.00000000  0.00000000 -0.98816425  CHARGE =  6.0
  Cl   2    (CENTRE  2)   0.00000000 -2.70369732 -2.83628995  CHARGE = 17.0
  Cl   3    (CENTRE  3)   0.00000000  2.70369732 -2.83628995  CHARGE = 17.0
  S    4    (CENTRE  4)   0.00000000  0.01889726  2.04433408  CHARGE = 16.0
CENTRE ASSIGNMENTS    1  1  1  1  1  1  1  1  1  1  1  1  1  1  1  1  1  1  1  1
CENTRE ASSIGNMENTS    1  1  1  1  1  1  1  1  1  1  1  1  1  1  1  1  1  1  1  1
CENTRE ASSIGNMENTS    1  1  1  1  1  1  1  1  1  1  1  1  1  1  1  1  1  1  1  1
CENTRE ASSIGNMENTS    1  1  1  1  1  1  1  1  1  1  1  1  2  2  2  2  2  2  2  2
CENTRE ASSIGNMENTS    2  2  2  2  2  2  2  2  2  2  2  2  2  2  2  2  2  2  2  2
CENTRE ASSIGNMENTS    2  2  2  2  2  2  2  2  2  2  2  2  2  2  2  2  2  2  2  2
CENTRE ASSIGNMENTS    2  2  2  2  2  2  2  2  2  2  2  2  2  2  2  2  2  2  2  2
CENTRE ASSIGNMENTS    2  2  2  2  2  2  2  2  2  2  2  2  2  2  2  2  2  2  2  2
CENTRE ASSIGNMENTS    2  2  2  2  2  2  2  2  2  2  2  2  2  2  2  2  2  2  2  2
CENTRE ASSIGNMENTS    2  2  2  2  2  2  3  3  3  3  3  3  3  3  3  3  3  3  3  3
CENTRE ASSIGNMENTS    3  3  3  3  3  3  3  3  3  3  3  3  3  3  3  3  3  3  3  3
CENTRE ASSIGNMENTS    3  3  3  3  3  3  3  3  3  3  3  3  3  3  3  3  3  3  3  3
CENTRE ASSIGNMENTS    3  3  3  3  3  3  3  3  3  3  3  3  3  3  3  3  3  3  3  3
CENTRE ASSIGNMENTS    3  3  3  3  3  3  3  3  3  3  3  3  3  3  3  3  3  3  3  3
CENTRE ASSIGNMENTS    3  3  3  3  3  3  3  3  3  3  3  3  3  3  3  3  3  3  3  3
CENTRE ASSIGNMENTS    4  4  4  4  4  4  4  4  4  4  4  4  4  4  4  4  4  4  4  4
CENTRE ASSIGNMENTS    4  4  4  4  4  4  4  4  4  4  4  4  4  4  4  4  4  4  4  4
CENTRE ASSIGNMENTS    4  4  4  4  4  4  4  4  4  4  4  4  4  4  4  4  4  4  4  4
CENTRE ASSIGNMENTS    4  4  4  4  4  4  4  4  4  4  4  4  4  4  4  4  4  4  4  4
CENTRE ASSIGNMENTS    4  4  4  4  4  4  4  4  4  4  4  4  4  4  4  4  4  4  4  4
CENTRE ASSIGNMENTS    4  4  4  4  4  4  4  4  4  4  4  4  4  4
TYPE ASSIGNMENTS      1  1  1  1  1  1  1  1  1  1  1  1  1  1  1  1  2  2  2  3
TYPE ASSIGNMENTS      3  3  4  4  4  2  3  4  2  3  4  2  3  4  5  6  7  8  9 10
TYPE ASSIGNMENTS      5  6  7  8  9 10  5  6  7  8  9 10 11 12 13 17 14 15 18 19
TYPE ASSIGNMENTS     16 20 11 12 13 17 14 15 18 19 16 20  1  1  1  1  1  1  1  1
TYPE ASSIGNMENTS      1  1  1  1  1  1  1  1  1  1  1  1  1  1  1  1  1  1  1  1
TYPE ASSIGNMENTS      1  1  1  2  2  2  2  2  2  3  3  3  3  3  3  4  4  4  4  4
TYPE ASSIGNMENTS      4  2  2  2  2  2  2  3  3  3  3  3  3  4  4  4  4  4  4  2
TYPE ASSIGNMENTS      3  4  2  3  4  2  3  4  5  6  7  8  9 10  5  6  7  8  9 10
TYPE ASSIGNMENTS      5  6  7  8  9 10 11 12 13 17 14 15 18 19 16 20 11 12 13 17
TYPE ASSIGNMENTS     14 15 18 19 16 20  1  1  1  1  1  1  1  1  1  1  1  1  1  1
TYPE ASSIGNMENTS      1  1  1  1  1  1  1  1  1  1  1  1  1  1  1  1  1  2  2  2
TYPE ASSIGNMENTS      2  2  2  3  3  3  3  3  3  4  4  4  4  4  4  2  2  2  2  2
TYPE ASSIGNMENTS      2  3  3  3  3  3  3  4  4  4  4  4  4  2  3  4  2  3  4  2
TYPE ASSIGNMENTS      3  4  5  6  7  8  9 10  5  6  7  8  9 10  5  6  7  8  9 10
TYPE ASSIGNMENTS     11 12 13 17 14 15 18 19 16 20 11 12 13 17 14 15 18 19 16 20
TYPE ASSIGNMENTS      1  1  1  1  1  1  1  1  1  1  1  1  1  1  1  1  1  1  1  1
TYPE ASSIGNMENTS      1  1  1  1  1  1  1  1  1  1  1  2  2  2  2  2  2  3  3  3
TYPE ASSIGNMENTS      3  3  3  4  4  4  4  4  4  2  2  2  2  2  2  3  3  3  3  3
TYPE ASSIGNMENTS      3  4  4  4  4  4  4  2  3  4  2  3  4  2  3  4  5  6  7  8
TYPE ASSIGNMENTS      9 10  5  6  7  8  9 10  5  6  7  8  9 10 11 12 13 17 14 15
TYPE ASSIGNMENTS     18 19 16 20 11 12 13 17 14 15 18 19 16 20
EXPONENTS  0.8236000D+04 0.1235000D+04 0.2808000D+03 0.7927000D+02 0.2559000D+02
EXPONENTS  0.8997000D+01 0.3319000D+01 0.2808000D+03 0.7927000D+02 0.2559000D+02
EXPONENTS  0.8997000D+01 0.3319000D+01 0.3643000D+00 0.9059000D+00 0.1285000D+00
EXPONENTS  0.4402000D-01 0.1871000D+02 0.4133000D+01 0.1200000D+01 0.1871000D+02
EXPONENTS  0.4133000D+01 0.1200000D+01 0.1871000D+02 0.4133000D+01 0.1200000D+01
EXPONENTS  0.3827000D+00 0.3827000D+00 0.3827000D+00 0.1209000D+00 0.1209000D+00
EXPONENTS  0.1209000D+00 0.3569000D-01 0.3569000D-01 0.3569000D-01 0.1097000D+01
EXPONENTS  0.1097000D+01 0.1097000D+01 0.1097000D+01 0.1097000D+01 0.1097000D+01
EXPONENTS  0.3180000D+00 0.3180000D+00 0.3180000D+00 0.3180000D+00 0.3180000D+00
EXPONENTS  0.3180000D+00 0.1000000D+00 0.1000000D+00 0.1000000D+00 0.1000000D+00
EXPONENTS  0.1000000D+00 0.1000000D+00 0.7610000D+00 0.7610000D+00 0.7610000D+00
EXPONENTS  0.7610000D+00 0.7610000D+00 0.7610000D+00 0.7610000D+00 0.7610000D+00
EXPONENTS  0.7610000D+00 0.7610000D+00 0.2680000D+00 0.2680000D+00 0.2680000D+00
EXPONENTS  0.2680000D+00 0.2680000D+00 0.2680000D+00 0.2680000D+00 0.2680000D+00
EXPONENTS  0.2680000D+00 0.2680000D+00 0.4561000D+06 0.6833000D+05 0.1555000D+05
EXPONENTS  0.4405000D+04 0.1439000D+04 0.5204000D+03 0.2031000D+03 0.8396000D+02
EXPONENTS  0.3620000D+02 0.1583000D+02 0.6334000D+01 0.4405000D+04 0.1439000D+04
EXPONENTS  0.5204000D+03 0.2031000D+03 0.8396000D+02 0.3620000D+02 0.1583000D+02
EXPONENTS  0.6334000D+01 0.2694000D+01 0.1439000D+04 0.2031000D+03 0.8396000D+02
EXPONENTS  0.3620000D+02 0.1583000D+02 0.6334000D+01 0.2694000D+01 0.4313000D+00
EXPONENTS  0.9768000D+00 0.1625000D+00 0.5910000D-01 0.6633000D+03 0.1568000D+03
EXPONENTS  0.4998000D+02 0.1842000D+02 0.7240000D+01 0.2922000D+01 0.6633000D+03
EXPONENTS  0.1568000D+03 0.4998000D+02 0.1842000D+02 0.7240000D+01 0.2922000D+01
EXPONENTS  0.6633000D+03 0.1568000D+03 0.4998000D+02 0.1842000D+02 0.7240000D+01
EXPONENTS  0.2922000D+01 0.1568000D+03 0.4998000D+02 0.1842000D+02 0.7240000D+01
EXPONENTS  0.2922000D+01 0.3818000D+00 0.1568000D+03 0.4998000D+02 0.1842000D+02
EXPONENTS  0.7240000D+01 0.2922000D+01 0.3818000D+00 0.1568000D+03 0.4998000D+02
EXPONENTS  0.1842000D+02 0.7240000D+01 0.2922000D+01 0.3818000D+00 0.1022000D+01
EXPONENTS  0.1022000D+01 0.1022000D+01 0.1301000D+00 0.1301000D+00 0.1301000D+00
EXPONENTS  0.4190000D-01 0.4190000D-01 0.4190000D-01 0.1046000D+01 0.1046000D+01
EXPONENTS  0.1046000D+01 0.1046000D+01 0.1046000D+01 0.1046000D+01 0.3440000D+00
EXPONENTS  0.3440000D+00 0.3440000D+00 0.3440000D+00 0.3440000D+00 0.3440000D+00
EXPONENTS  0.1350000D+00 0.1350000D+00 0.1350000D+00 0.1350000D+00 0.1350000D+00
EXPONENTS  0.1350000D+00 0.7060000D+00 0.7060000D+00 0.7060000D+00 0.7060000D+00
EXPONENTS  0.7060000D+00 0.7060000D+00 0.7060000D+00 0.7060000D+00 0.7060000D+00
EXPONENTS  0.7060000D+00 0.3120000D+00 0.3120000D+00 0.3120000D+00 0.3120000D+00
EXPONENTS  0.3120000D+00 0.3120000D+00 0.3120000D+00 0.3120000D+00 0.3120000D+00
EXPONENTS  0.3120000D+00 0.4561000D+06 0.6833000D+05 0.1555000D+05 0.4405000D+04
EXPONENTS  0.1439000D+04 0.5204000D+03 0.2031000D+03 0.8396000D+02 0.3620000D+02
EXPONENTS  0.1583000D+02 0.6334000D+01 0.4405000D+04 0.1439000D+04 0.5204000D+03
EXPONENTS  0.2031000D+03 0.8396000D+02 0.3620000D+02 0.1583000D+02 0.6334000D+01
EXPONENTS  0.2694000D+01 0.1439000D+04 0.2031000D+03 0.8396000D+02 0.3620000D+02
EXPONENTS  0.1583000D+02 0.6334000D+01 0.2694000D+01 0.4313000D+00 0.9768000D+00
EXPONENTS  0.1625000D+00 0.5910000D-01 0.6633000D+03 0.1568000D+03 0.4998000D+02
EXPONENTS  0.1842000D+02 0.7240000D+01 0.2922000D+01 0.6633000D+03 0.1568000D+03
EXPONENTS  0.4998000D+02 0.1842000D+02 0.7240000D+01 0.2922000D+01 0.6633000D+03
EXPONENTS  0.1568000D+03 0.4998000D+02 0.1842000D+02 0.7240000D+01 0.2922000D+01
EXPONENTS  0.1568000D+03 0.4998000D+02 0.1842000D+02 0.7240000D+01 0.2922000D+01
EXPONENTS  0.3818000D+00 0.1568000D+03 0.4998000D+02 0.1842000D+02 0.7240000D+01
EXPONENTS  0.2922000D+01 0.3818000D+00 0.1568000D+03 0.4998000D+02 0.1842000D+02
EXPONENTS  0.7240000D+01 0.2922000D+01 0.3818000D+00 0.1022000D+01 0.1022000D+01
EXPONENTS  0.1022000D+01 0.1301000D+00 0.1301000D+00 0.1301000D+00 0.4190000D-01
EXPONENTS  0.4190000D-01 0.4190000D-01 0.1046000D+01 0.1046000D+01 0.1046000D+01
EXPONENTS  0.1046000D+01 0.1046000D+01 0.1046000D+01 0.3440000D+00 0.3440000D+00
EXPONENTS  0.3440000D+00 0.3440000D+00 0.3440000D+00 0.3440000D+00 0.1350000D+00
EXPONENTS  0.1350000D+00 0.1350000D+00 0.1350000D+00 0.1350000D+00 0.1350000D+00
EXPONENTS  0.7060000D+00 0.7060000D+00 0.7060000D+00 0.7060000D+00 0.7060000D+00
EXPONENTS  0.7060000D+00 0.7060000D+00 0.7060000D+00 0.7060000D+00 0.7060000D+00
EXPONENTS  0.3120000D+00 0.3120000D+00 0.3120000D+00 0.3120000D+00 0.3120000D+00
EXPONENTS  0.3120000D+00 0.3120000D+00 0.3120000D+00 0.3120000D+00 0.3120000D+00
EXPONENTS  0.3741000D+06 0.5605000D+05 0.1276000D+05 0.3615000D+04 0.1183000D+04
EXPONENTS  0.4288000D+03 0.1678000D+03 0.6947000D+02 0.2984000D+02 0.1272000D+02
EXPONENTS  0.5244000D+01 0.3615000D+04 0.1183000D+04 0.4288000D+03 0.1678000D+03
EXPONENTS  0.6947000D+02 0.2984000D+02 0.1272000D+02 0.5244000D+01 0.2219000D+01
EXPONENTS  0.1183000D+04 0.1678000D+03 0.6947000D+02 0.2984000D+02 0.1272000D+02
EXPONENTS  0.5244000D+01 0.2219000D+01 0.3490000D+00 0.7767000D+00 0.1322000D+00
EXPONENTS  0.4970000D-01 0.5744000D+03 0.1358000D+03 0.4319000D+02 0.1587000D+02
EXPONENTS  0.6208000D+01 0.2483000D+01 0.5744000D+03 0.1358000D+03 0.4319000D+02
EXPONENTS  0.1587000D+02 0.6208000D+01 0.2483000D+01 0.5744000D+03 0.1358000D+03
EXPONENTS  0.4319000D+02 0.1587000D+02 0.6208000D+01 0.2483000D+01 0.1358000D+03
EXPONENTS  0.4319000D+02 0.1587000D+02 0.6208000D+01 0.2483000D+01 0.3229000D+00
EXPONENTS  0.1358000D+03 0.4319000D+02 0.1587000D+02 0.6208000D+01 0.2483000D+01
EXPONENTS  0.3229000D+00 0.1358000D+03 0.4319000D+02 0.1587000D+02 0.6208000D+01
EXPONENTS  0.2483000D+01 0.3229000D+00 0.8688000D+00 0.8688000D+00 0.8688000D+00
EXPONENTS  0.1098000D+00 0.1098000D+00 0.1098000D+00 0.3510000D-01 0.3510000D-01
EXPONENTS  0.3510000D-01 0.2690000D+00 0.2690000D+00 0.2690000D+00 0.2690000D+00
EXPONENTS  0.2690000D+00 0.2690000D+00 0.8190000D+00 0.8190000D+00 0.8190000D+00
EXPONENTS  0.8190000D+00 0.8190000D+00 0.8190000D+00 0.1010000D+00 0.1010000D+00
EXPONENTS  0.1010000D+00 0.1010000D+00 0.1010000D+00 0.1010000D+00 0.5570000D+00
EXPONENTS  0.5570000D+00 0.5570000D+00 0.5570000D+00 0.5570000D+00 0.5570000D+00
EXPONENTS  0.5570000D+00 0.5570000D+00 0.5570000D+00 0.5570000D+00 0.2180000D+00
EXPONENTS  0.2180000D+00 0.2180000D+00 0.2180000D+00 0.2180000D+00 0.2180000D+00
EXPONENTS  0.2180000D+00 0.2180000D+00 0.2180000D+00 0.2180000D+00
MO    1     MO 0.0        OCC NO =    2.0000385  ORB. ENERGY =    0.000000
  0.21321038D-04  0.39746710D-04  0.67177356D-04  0.10098009D-03  0.12403596D-03
  0.10468197D-03  0.39363156D-04  0.18203989D-07  0.13606354D-06  0.50850050D-06
  0.14186372D-05  0.19005828D-05 -0.22442339D-05  0.24493942D-05 -0.10613548D-04
 -0.32318620D-05 -0.32677978D-13 -0.30637682D-13 -0.21815855D-13  0.74404300D-03
  0.69758761D-03  0.49672394D-03 -0.96072093D-05 -0.90073694D-05 -0.64137836D-05
 -0.94742560D-14  0.19819092D-03 -0.75367339D-05 -0.94447722D-15  0.30928509D-03
 -0.13402904D-05  0.15937258D-15 -0.10512021D-04 -0.46604211D-06  0.46768136D-06
  0.53428774D-05 -0.58105588D-05 -0.26683151D-12  0.83713890D-14  0.26895920D-03
  0.58945034D-06  0.16824652D-05 -0.22719155D-05  0.17315812D-13  0.19138066D-14
  0.28091841D-03  0.49824886D-07  0.11523036D-05 -0.12021285D-05 -0.28672164D-13
  0.30180075D-14  0.18753614D-03  0.21037390D-15  0.24698894D-03  0.31788721D-06
  0.14482381D-14  0.26398385D-04  0.79970810D-06 -0.20793598D-14 -0.76736521D-03
 -0.17533697D-05  0.10184329D-12  0.14419292D-15 -0.30056085D-03 -0.13331840D-05
 -0.47290328D-15 -0.21435567D-04 -0.63645297D-07  0.40324530D-16  0.92311811D-03
  0.40631974D-05 -0.74742818D-13 -0.13568357D-02 -0.25384949D-02 -0.43859561D-02
 -0.71101501D-02 -0.10797445D-01 -0.15007433D-01 -0.17842688D-01 -0.15894886D-01
 -0.78937367D-02 -0.12708248D-02 -0.13407953D-04 -0.66842452D-05 -0.22297523D-03
 -0.77702403D-03 -0.27981894D-02 -0.61682602D-02 -0.86829196D-02  0.41420356D-03
  0.11363108D-01  0.67189347D-02  0.23604498D-06  0.28590811D-05  0.59623122D-05
  0.17098873D-04  0.88792068D-06 -0.73738634D-04 -0.19052647D-03  0.15523200D-03
  0.37362080D-03 -0.21047778D-03 -0.10739724D-03 -0.18587371D-08 -0.24483916D-08
 -0.27009591D-08 -0.22433580D-08 -0.11912854D-08 -0.30735785D-09 -0.48321806D+01
 -0.63651123D+01 -0.70217152D+01 -0.58320843D+01 -0.30969986D+01 -0.79904182D+00
  0.65466495D+01  0.86234689D+01  0.95130360D+01  0.79013213D+01  0.41958209D+01
  0.10825437D+01  0.81071288D-13 -0.78374505D-12 -0.11051623D-11 -0.15806745D-11
  0.80043131D-14  0.14496276D-11  0.25091978D-03 -0.24257310D-02 -0.34205339D-02
 -0.48922683D-02  0.24773758D-04  0.44866715D-02 -0.32700184D-03  0.31612434D-02
  0.44576831D-02  0.63756661D-02 -0.32285476D-04 -0.58470871D-02 -0.12167261D-10
 -0.31083197D-01  0.42269405D-01  0.79922891D-13  0.34345580D-03 -0.50550035D-03
  0.33119503D-14  0.95512924D-05 -0.19318460D-04  0.71958045D-05 -0.80984867D-03
  0.80265286D-03 -0.22361661D-12 -0.12814066D-12  0.73482420D-03  0.42209057D-04
  0.47573150D-03 -0.51794055D-03  0.10411961D-12  0.74635064D-13 -0.34406957D-03
 -0.20999734D-05 -0.13340620D-05  0.34340354D-05 -0.86846871D-14 -0.12733278D-13
  0.31720610D-05 -0.44723027D-14 -0.22157825D-04 -0.10199030D-04 -0.11648130D-13
  0.48996508D-04  0.37926163D-04  0.25065038D-13  0.17476966D-04 -0.73290717D-05
  0.24451444D-14 -0.35505139D-14  0.84020513D-04 -0.40616062D-04  0.18564784D-13
 -0.85376051D-05  0.43429057D-04 -0.79132429D-14 -0.24352393D-03  0.78419129D-04
  0.29963756D-13  0.14340618D-02  0.26829766D-02  0.46355884D-02  0.75148335D-02
  0.11411996D-01  0.15861600D-01  0.18858228D-01  0.16799564D-01  0.83430189D-02
  0.13431555D-02  0.14171084D-04  0.70399355D-05  0.23484046D-03  0.81837200D-03
  0.29470901D-02  0.64964933D-02  0.91449659D-02 -0.43624468D-03 -0.11967776D-01
 -0.70764710D-02 -0.21787645D-06 -0.26390158D-05 -0.55033893D-05 -0.15782762D-04
 -0.81957688D-06  0.68062926D-04  0.17586153D-03 -0.14328370D-03 -0.39651375D-03
  0.21203851D-03  0.10712650D-03  0.20393730D-08  0.26863313D-08  0.29634439D-08
  0.24613722D-08  0.13070569D-08  0.33722752D-09 -0.48729214D+01 -0.64187774D+01
 -0.70809162D+01 -0.58812554D+01 -0.31231098D+01 -0.80577865D+00 -0.66459114D+01
 -0.87542200D+01 -0.96572750D+01 -0.80211230D+01 -0.42594389D+01 -0.10989575D+01
 -0.88425370D-13  0.85483958D-12  0.12054130D-11  0.17240595D-11 -0.87303947D-14
 -0.15811252D-11  0.25255646D-03 -0.24415534D-02 -0.34428452D-02 -0.49241793D-02
  0.24935351D-04  0.45159369D-02  0.33167885D-03 -0.32064577D-02 -0.45214401D-02
 -0.64668554D-02  0.32747245D-04  0.59307163D-02  0.13360629D-10 -0.31347159D-01
 -0.42909649D-01 -0.82093470D-13  0.34382957D-03  0.50889911D-03 -0.36773808D-14
  0.96652474D-05  0.19726180D-04 -0.80090303D-05  0.81638212D-03 -0.80837309D-03
 -0.23672381D-12  0.13286458D-12  0.74234586D-03 -0.41386115D-04 -0.47807844D-03
  0.51946456D-03  0.11211144D-12 -0.76403162D-13 -0.35058693D-03  0.21177776D-05
  0.18559661D-05 -0.39737437D-05 -0.11553909D-13  0.13179818D-13  0.37937782D-05
  0.58851392D-14 -0.22416736D-04  0.94970836D-05  0.71492269D-14  0.49393699D-04
 -0.36323029D-04 -0.24804644D-13  0.17856510D-04  0.78317779D-05  0.73202369D-14
  0.35577196D-14  0.84710997D-04  0.40312853D-04 -0.18209638D-13 -0.96034554D-05
 -0.43749685D-04  0.75364792D-14 -0.24452954D-03 -0.77188873D-04  0.29308359D-13
 -0.14835715D-04 -0.27736864D-04 -0.47937545D-04 -0.77537003D-04 -0.11719459D-03
 -0.16140121D-03 -0.18865836D-03 -0.16305131D-03 -0.76096896D-04 -0.10309460D-04
  0.75404872D-07 -0.14810921D-06 -0.19039290D-05 -0.69452593D-05 -0.23433133D-04
 -0.51469674D-04 -0.66484780D-04  0.10684670D-04  0.89631680D-04  0.49188710D-04
 -0.26747522D-07 -0.30467090D-06 -0.63260662D-06 -0.17395075D-05  0.22554713D-06
  0.78652609D-05  0.19617210D-04 -0.16238842D-04 -0.44610799D-05  0.77292557D-05
  0.50922845D-05 -0.20903153D-10 -0.27423748D-10 -0.30077917D-10 -0.24747204D-10
 -0.13045319D-10 -0.33941466D-11  0.83865204D+00  0.11002638D+01  0.12067513D+01
  0.99287858D+00  0.52338913D+00  0.13617601D+00 -0.11614780D-01 -0.15237931D-01
 -0.16712713D-01 -0.13750716D-01 -0.72485958D-02 -0.18859483D-02 -0.25315734D-15
 -0.90872426D-14 -0.14417138D-13 -0.17119909D-13 -0.25906935D-14  0.18854582D-13
  0.22743842D-04  0.81640457D-03  0.12952463D-02  0.15380653D-02  0.23274982D-03
 -0.16939095D-02 -0.19745367D-06 -0.70877242D-05 -0.11244852D-04 -0.13352917D-04
 -0.20206483D-05  0.14705900D-04 -0.15107229D-12  0.59012882D-02 -0.68261289D-04
 -0.32261403D-14 -0.52191981D-03 -0.14469818D-05 -0.19490146D-16 -0.67236023D-05
 -0.10102926D-06 -0.33102659D-05  0.63683446D-05 -0.30580787D-05  0.19786398D-13
  0.47258537D-17  0.69010661D-03  0.17499422D-06  0.14354713D-05 -0.16104655D-05
 -0.46449787D-13  0.97510949D-15 -0.10490393D-03 -0.28883234D-06  0.39792497D-06
 -0.10909263D-06  0.76697688D-14  0.12074227D-14  0.76526566D-04 -0.42317027D-15
  0.63017938D-04  0.10683469D-05  0.89018442D-15  0.23083644D-04  0.49299475D-05
  0.37932640D-15 -0.21213746D-03 -0.81349882D-05  0.23968871D-13  0.24954076D-15
  0.27119669D-04  0.65660861D-06 -0.38956197D-15  0.20781771D-05  0.67351649D-06
 -0.35906033D-15 -0.83437183D-04 -0.26433423D-05 -0.21739227D-13
MO    2     MO 0.0        OCC NO =    2.0000376  ORB. ENERGY =    0.000000
 -0.56248380D-03 -0.10485831D-02 -0.17722483D-02 -0.26640198D-02 -0.32722711D-02
 -0.27616814D-02 -0.10384643D-02 -0.10919846D-05 -0.81619083D-05 -0.30502915D-04
 -0.85098382D-04 -0.11400837D-03  0.13462263D-03  0.18346222D-04 -0.44409185D-03
 -0.64441355D-04 -0.56017387D-12 -0.52519861D-12 -0.37397270D-12 -0.34040856D-06
 -0.31915467D-06 -0.22725714D-06  0.81755828D-03  0.76651285D-03  0.54580281D-03
 -0.11365036D-12  0.71967595D-06  0.57401923D-03  0.11767903D-13 -0.77910582D-05
 -0.50673830D-03  0.34688800D-14 -0.27451262D-06 -0.46048701D-04 -0.63796900D-04
  0.71572471D-03 -0.65192781D-03 -0.16563355D-12  0.13250582D-12 -0.25075236D-05
  0.63267163D-04 -0.11215570D-03  0.48888537D-04  0.19570482D-13  0.28566420D-14
 -0.56270495D-05  0.47770708D-05  0.16312511D-03 -0.16790218D-03 -0.15508418D-13
  0.21814463D-13  0.51141232D-06  0.12365554D-13 -0.18387924D-05  0.99951230D-04
 -0.21166687D-13 -0.24576898D-05 -0.19011804D-03 -0.15929974D-13  0.79740669D-05
 -0.10973565D-03  0.64943428D-13 -0.51289740D-14  0.35595845D-05 -0.74343842D-04
  0.14218416D-13  0.11722058D-05  0.98170090D-04  0.11685061D-14 -0.11850959D-04
  0.12486143D-03 -0.50732528D-13 -0.83059231D-03 -0.15539496D-02 -0.26848802D-02
 -0.43525063D-02 -0.66096984D-02 -0.91868590D-02 -0.10922471D-01 -0.97301170D-02
 -0.48321819D-02 -0.77794040D-03 -0.82077307D-05 -0.42970614D-05 -0.14334278D-03
 -0.49952087D-03 -0.17988556D-02 -0.39653532D-02 -0.55819375D-02  0.26627661D-03
  0.73049346D-02  0.43193621D-02  0.28693066D-06  0.34754309D-05  0.72476448D-05
  0.20784983D-04  0.10793353D-05 -0.89634929D-04 -0.23159944D-03  0.18869632D-03
  0.14650135D-03 -0.36057315D-03 -0.17277596D-03  0.14897388D-09  0.19623346D-09
  0.21647622D-09  0.17980045D-09  0.95479028D-10  0.24634088D-10  0.42248165D+01
  0.55650717D+01  0.61391452D+01  0.50990408D+01  0.27077322D+01  0.69860905D+00
 -0.70924888D+01 -0.93424669D+01 -0.10306203D+02 -0.85601089D+01 -0.45456554D+01
 -0.11728028D+01 -0.93557852D-15  0.90445712D-14  0.12753789D-13  0.18241293D-13
 -0.92371339D-16 -0.16728986D-13 -0.18426230D-03  0.17813294D-02  0.25118604D-02
  0.35926248D-02 -0.18192546D-04 -0.32947758D-02  0.33331507D-03 -0.32222756D-02
 -0.45437450D-02 -0.64987573D-02  0.32908792D-04  0.59599734D-02  0.10715520D-11
  0.27290332D-01 -0.45890757D-01  0.25447282D-14 -0.14771693D-03  0.13823006D-03
 -0.12296624D-14 -0.10776198D-04  0.13351142D-04  0.14410628D-04  0.48047432D-03
 -0.49488494D-03 -0.43108210D-13  0.19720959D-14 -0.44942478D-03  0.24663969D-04
 -0.28981889D-03  0.26515492D-03 -0.42924436D-15  0.89959724D-14  0.41584856D-03
 -0.29418773D-05  0.47304641D-04 -0.44362763D-04  0.21750458D-14 -0.73423230D-14
 -0.26802031D-04 -0.34595162D-14 -0.30443146D-04  0.11901705D-05 -0.18114672D-13
  0.59479829D-04  0.30056027D-04  0.28493220D-13  0.31849611D-04 -0.33626539D-04
  0.99921945D-14  0.18689482D-14 -0.47687042D-04 -0.11440872D-04  0.62253123D-14
  0.18126588D-04 -0.42113479D-04 -0.11832157D-13  0.12493454D-03  0.76436095D-04
  0.17098243D-14 -0.76939722D-03 -0.14394601D-02 -0.24870678D-02 -0.40318291D-02
 -0.61227193D-02 -0.85100038D-02 -0.10117742D-01 -0.90132365D-02 -0.44761638D-02
 -0.72062451D-03 -0.76030142D-05 -0.40117538D-05 -0.13382539D-03 -0.46635470D-03
 -0.16794188D-02 -0.37020697D-02 -0.52113193D-02  0.24859692D-03  0.68199163D-02
  0.40325738D-02  0.29540350D-06  0.35780578D-05  0.74616623D-05  0.21398748D-04
  0.11112072D-05 -0.92281781D-04 -0.23843840D-03  0.19426839D-03  0.12928140D-03
 -0.34665962D-03 -0.17042336D-03  0.23209504D-08  0.30572346D-08  0.33726083D-08
  0.28012153D-08  0.14875230D-08  0.38378872D-09 -0.41433872D+01 -0.54578102D+01
 -0.60208190D+01 -0.50007616D+01 -0.26555432D+01 -0.68514402D+00 -0.70196627D+01
 -0.92465379D+01 -0.10200379D+02 -0.84722132D+01 -0.44989803D+01 -0.11607604D+01
 -0.96325248D-13  0.93121052D-12  0.13131040D-11  0.18780861D-11 -0.95103638D-14
 -0.17223821D-11  0.17978916D-03 -0.17380859D-02 -0.24508825D-02 -0.35054104D-02
  0.17750905D-04  0.32147919D-02  0.32940591D-03 -0.31844844D-02 -0.44904554D-02
 -0.64225391D-02  0.32522834D-04  0.58900741D-02  0.15306629D-10 -0.26762405D-01
 -0.45418113D-01 -0.92490308D-13  0.13857025D-03  0.13273610D-03 -0.51372229D-14
  0.10721295D-04  0.13314933D-04  0.15573862D-04  0.46784545D-03 -0.48341931D-03
 -0.22491598D-12  0.15538528D-12  0.44289409D-03  0.24826406D-04 -0.27926078D-03
  0.25443438D-03  0.13392209D-12 -0.82695185D-13 -0.40932840D-03 -0.26408756D-05
  0.47414550D-04 -0.44773674D-04 -0.11744507D-13  0.63518230D-14  0.27186628D-04
  0.13069574D-14  0.29911262D-04  0.10078507D-05 -0.22268816D-14 -0.58890138D-04
  0.30426230D-04 -0.16939907D-14 -0.30843649D-04 -0.33449782D-04 -0.73104206D-14
  0.71411404D-14  0.46028888D-04 -0.12193002D-04 -0.19092337D-13 -0.18389564D-04
 -0.41082538D-04 -0.23310844D-14 -0.11969710D-03  0.77661543D-04  0.38569041D-13
  0.51307334D-03  0.95924228D-03  0.16578558D-02  0.26815134D-02  0.40530178D-02
  0.55818446D-02  0.65244966D-02  0.56389111D-02  0.26317092D-02  0.35653885D-03
 -0.26077765D-05  0.64709865D-05  0.83183880D-04  0.30344284D-03  0.10238086D-02
  0.22487431D-02  0.29047627D-02 -0.46682008D-03 -0.39160656D-02 -0.21490863D-02
  0.23298571D-06  0.26538520D-05  0.55103535D-05  0.15152073D-04 -0.19646402D-05
 -0.68510772D-04 -0.17087675D-03  0.14144930D-03 -0.26311782D-04  0.11723499D-02
  0.25933783D-03 -0.91291852D-10 -0.11976972D-09 -0.13136146D-09 -0.10808025D-09
 -0.56973763D-10 -0.14823502D-10 -0.42666053D-02 -0.55975435D-02 -0.61392938D-02
 -0.50512260D-02 -0.26627191D-02 -0.69278943D-03 -0.57338610D+00 -0.75224995D+00
 -0.82505540D+00 -0.67883073D+00 -0.35784096D+00 -0.93103487D-01 -0.20629876D-14
 -0.74052243D-13 -0.11748574D-12 -0.13951071D-12 -0.21111648D-13  0.15364662D-12
 -0.19318527D-06 -0.69345073D-05 -0.11001770D-04 -0.13064264D-04 -0.19769675D-05
  0.14387999D-04 -0.45632005D-05 -0.16379896D-03 -0.25987116D-03 -0.30858903D-03
 -0.46697654D-04  0.33985677D-03 -0.56326644D-12 -0.36756680D-04 -0.39323405D-02
 -0.19898328D-13 -0.30120143D-05 -0.11700079D-03 -0.10133883D-14 -0.86656046D-07
 -0.86546386D-07  0.20110906D-04  0.45731836D-04 -0.65842742D-04  0.13481625D-13
  0.69977592D-14 -0.10176956D-04 -0.91865389D-04  0.91983125D-04 -0.11773619D-06
 -0.27157153D-13  0.14076327D-13 -0.10235151D-04  0.10394576D-04 -0.90077815D-05
 -0.13867945D-05  0.44398054D-14  0.11030033D-13  0.17897702D-06 -0.18448598D-14
 -0.26711778D-05  0.33011212D-04 -0.16986560D-14 -0.30706288D-06  0.45301793D-04
  0.72332353D-14  0.83205964D-05 -0.14433543D-03  0.11831142D-13  0.21971756D-14
 -0.21033444D-06  0.97879514D-05 -0.17721334D-14 -0.56692359D-06 -0.19903708D-04
 -0.48193933D-14  0.11979269D-05 -0.94601464D-05 -0.13689913D-13
MO    3     MO 0.0        OCC NO =    2.0000330  ORB. ENERGY =    0.000000
 -0.37288752D-10 -0.69513746D-10 -0.11748770D-09 -0.17660593D-09 -0.21692875D-09
 -0.18308021D-09 -0.68842941D-10 -0.67430322D-14 -0.50399988D-13 -0.18835626D-12
 -0.52548465D-12 -0.70400455D-12  0.83129811D-12 -0.27683244D-11 -0.11674977D-11
 -0.16502418D-12 -0.47289490D-05 -0.44336903D-05 -0.31570516D-05  0.94021849D-12
  0.88151460D-12  0.62769091D-12  0.62355701D-12  0.58462433D-12  0.41628735D-12
 -0.10597885D-05  0.25396385D-12 -0.11384169D-12  0.17464190D-05 -0.47187328D-13
 -0.12642127D-12 -0.54718856D-07 -0.53477294D-14 -0.98711136D-14  0.44233524D-13
  0.89246374D-13 -0.13347990D-12  0.11748236D-02 -0.11485566D-05  0.32441374D-12
  0.12025360D-12 -0.33918294D-13 -0.86335304D-13 -0.10413071D-03  0.11397102D-05
  0.34364138D-13  0.17078917D-13  0.87861956D-14 -0.25865113D-13  0.11681357D-03
  0.10163600D-05  0.10029382D-12  0.58431069D-06  0.45799127D-13 -0.29391601D-13
 -0.14344818D-05 -0.67493906D-13 -0.79896030D-14 -0.31845025D-06 -0.69903476D-13
  0.96164406D-13 -0.46334870D-03 -0.48444179D-06 -0.64261592D-13 -0.51664220D-15
  0.88857015D-06  0.19495443D-13  0.50214806D-15  0.56475521D-06  0.17328933D-12
  0.10477785D-14  0.34832752D-03 -0.39172328D-10 -0.73287245D-10 -0.12662410D-09
 -0.20527255D-09 -0.31172607D-09 -0.43326990D-09 -0.51512472D-09 -0.45889100D-09
 -0.22789497D-09 -0.36689163D-10 -0.38709234D-12 -0.13091994D-12 -0.43672700D-11
 -0.15219062D-10 -0.54806305D-10 -0.12081368D-09 -0.17006667D-09  0.81127343D-11
  0.22256177D-09  0.13159938D-09 -0.30488513D-14 -0.36929034D-13 -0.77011608D-13
 -0.22085588D-12 -0.11468739D-13  0.95243768D-12  0.24609161D-11 -0.20050386D-11
  0.83093831D-11 -0.22149741D-12 -0.30313088D-13  0.82188768D+01  0.10826183D+02
  0.11942975D+02  0.99195758D+01  0.52675700D+01  0.13590606D+01 -0.16335057D-08
 -0.21517092D-08 -0.23736720D-08 -0.19715205D-08 -0.10469321D-08 -0.27011395D-09
  0.12510605D-09  0.16479394D-09  0.18179351D-09  0.15099374D-09  0.80181867D-10
  0.20687341D-10 -0.35929105D-03  0.34733947D-02  0.48978490D-02  0.70052198D-02
 -0.35473447D-04 -0.64244473D-02  0.75331108D-13 -0.72825268D-12 -0.10269123D-11
 -0.14687562D-11  0.74375749D-14  0.13469880D-11 -0.13497351D-13  0.13048370D-12
  0.18399564D-12  0.26316244D-12 -0.13326176D-14 -0.24134478D-12  0.53825696D-01
 -0.11080918D-10  0.51868261D-12 -0.35316170D-03  0.15706709D-12 -0.12140635D-13
 -0.14830262D-04  0.17244206D-14 -0.73543523D-15  0.28094410D-13 -0.10763474D-12
  0.79540334D-13  0.99179785D-03  0.56494335D-03  0.18848514D-12 -0.22950092D-13
  0.12461211D-12 -0.10166202D-12 -0.47895655D-03 -0.32945244D-03  0.57643182D-13
 -0.12878322D-13  0.14917641D-13 -0.20393190D-14  0.39364577D-04  0.52267146D-04
  0.18006151D-13  0.21470367D-04 -0.73331451D-14 -0.65447168D-14  0.43681822D-04
  0.28925116D-13  0.20351775D-13 -0.10809292D-03 -0.69256804D-14 -0.71762412D-15
 -0.17404705D-04  0.17098799D-04  0.20121643D-13 -0.15226321D-13 -0.85277803D-04
 -0.27930664D-13 -0.90818394D-14  0.33981406D-04 -0.32434266D-13  0.54760802D-13
 -0.13718566D-03 -0.86588971D-10 -0.16199873D-09 -0.27989787D-09 -0.45374733D-09
 -0.68905886D-09 -0.95772698D-09 -0.11386640D-08 -0.10143615D-08 -0.50375335D-09
 -0.81100027D-10 -0.85565319D-12 -0.14245980D-12 -0.47522204D-11 -0.16560537D-10
 -0.59637174D-10 -0.13146273D-09 -0.18505709D-09  0.88278265D-11  0.24217934D-09
  0.14319913D-09 -0.37495443D-14 -0.45416138D-13 -0.94710569D-13 -0.27161342D-12
 -0.14104507D-13  0.11713288D-11  0.30264887D-11 -0.24658405D-11  0.90695271D-11
  0.20272397D-12  0.98554245D-13 -0.82083256D+01 -0.10812285D+02 -0.11927643D+02
 -0.99068413D+01 -0.52608076D+01 -0.13573159D+01 -0.52189952D-09 -0.68746376D-09
 -0.75838014D-09 -0.62989409D-09 -0.33449124D-09 -0.86300488D-10 -0.34593026D-08
 -0.45567108D-08 -0.50267653D-08 -0.41751222D-08 -0.22171057D-08 -0.57202487D-09
  0.35866480D-03 -0.34673405D-02 -0.48893120D-02 -0.69930096D-02  0.35411616D-04
  0.64132494D-02  0.43518547D-13 -0.42070931D-12 -0.59324405D-12 -0.84849592D-12
  0.42966639D-14  0.77815079D-12  0.15179935D-12 -0.14674985D-11 -0.20693260D-11
 -0.29596836D-11  0.14987421D-13  0.27143090D-11 -0.53757105D-01 -0.23782844D-11
 -0.23052552D-10  0.35435006D-03 -0.23526130D-13  0.22390915D-12  0.15004979D-04
  0.30605273D-15  0.85872337D-14 -0.28451354D-13  0.27340100D-12 -0.24494964D-12
  0.98969016D-03 -0.56027921D-03  0.42798407D-13 -0.63726610D-13 -0.10957858D-12
  0.17330519D-12 -0.47678299D-03  0.32707535D-03 -0.22288924D-12 -0.29310020D-14
  0.90342382D-14 -0.61032362D-14  0.38640635D-04 -0.51992171D-04 -0.13747858D-13
 -0.20818952D-04 -0.63420575D-14  0.15750450D-13 -0.44827916D-04  0.44629882D-13
 -0.41248035D-13  0.10728477D-03 -0.25603709D-13 -0.60033148D-14 -0.16956634D-04
 -0.17189053D-04  0.24721921D-13  0.84547233D-14  0.85558304D-04  0.80654929D-15
 -0.20939697D-13 -0.33991145D-04 -0.74972312D-13 -0.44244732D-14 -0.13681745D-03
 -0.15326634D-10 -0.28654686D-10 -0.49523814D-10 -0.80102729D-10 -0.12107259D-09
 -0.16674203D-09 -0.19490113D-09 -0.16844673D-09 -0.78614967D-10 -0.10650603D-10
  0.77900045D-13 -0.21060674D-12 -0.27073285D-11 -0.98759452D-11 -0.33321194D-10
 -0.73188294D-10 -0.94539313D-10  0.15193272D-10  0.12745349D-09  0.69944833D-10
 -0.19155371D-14 -0.21819159D-13 -0.45304439D-13 -0.12457570D-12  0.16152670D-13
  0.56327459D-12  0.14048963D-11 -0.11629528D-11  0.37833286D-11  0.57275904D-12
  0.15319209D-12 -0.80969858D-05 -0.10622785D-04 -0.11650896D-04 -0.95860063D-05
 -0.50531974D-05 -0.13147469D-05 -0.18036704D-08 -0.23663130D-08 -0.25953332D-08
 -0.21353620D-08 -0.11256414D-08 -0.29287072D-09  0.12445494D-08  0.16327781D-08
  0.17908042D-08  0.14734197D-08  0.77670310D-09  0.20208354D-09  0.41858491D-07
  0.15025369D-05  0.23838125D-05  0.28307043D-05  0.42836016D-06 -0.31175250D-05
 -0.12328475D-13 -0.44253839D-12 -0.70209825D-12 -0.83372013D-12 -0.12616383D-12