 Entering Gaussian System, Link 0=/home/wagner/chemistry/gaussian/g16/g16
 Input=GAUSSIAN.com
 Output=GAUSSIAN.log
 Initial command:
 /home/wagner/chemistry/gaussian/g16/l1.exe "/home/wagner/chemistry/gaussian/work/Gau-26743.inp" -scrdir="/home/wagner/chemistry/gaussian/work/"
 Entering Link 1 = /home/wagner/chemistry/gaussian/g16/l1.exe PID=     26745.
  
 Copyright (c) 1988-2019, Gaussian, Inc.  All Rights Reserved.
  
 This is part of the Gaussian(R) 16 program.  It is based on
 the Gaussian(R) 09 system (copyright 2009, Gaussian, Inc.),
 the Gaussian(R) 03 system (copyright 2003, Gaussian, Inc.),
 the Gaussian(R) 98 system (copyright 1998, Gaussian, Inc.),
 the Gaussian(R) 94 system (copyright 1995, Gaussian, Inc.),
 the Gaussian 92(TM) system (copyright 1992, Gaussian, Inc.),
 the Gaussian 90(TM) system (copyright 1990, Gaussian, Inc.),
 the Gaussian 88(TM) system (copyright 1988, Gaussian, Inc.),
 the Gaussian 86(TM) system (copyright 1986, Carnegie Mellon
 University), and the Gaussian 82(TM) system (copyright 1983,
 Carnegie Mellon University). Gaussian is a federally registered
 trademark of Gaussian, Inc.
  
 This software contains proprietary and confidential information,
 including trade secrets, belonging to Gaussian, Inc.
  
 This software is provided under written license and may be
 used, copied, transmitted, or stored only in accord with that
 written license.
  
 The following legend is applicable only to US Government
 contracts under FAR:
  
                    RESTRICTED RIGHTS LEGEND
  
 Use, reproduction and disclosure by the US Government is
 subject to restrictions as set forth in subparagraphs (a)
 and (c) of the Commercial Computer Software - Restricted
 Rights clause in FAR 52.227-19.
  
 Gaussian, Inc.
 340 Quinnipiac St., Bldg. 40, Wallingford CT 06492
  
  
 ---------------------------------------------------------------
 Warning -- This program may not be used in any manner that
 competes with the business of Gaussian, Inc. or will provide
 assistance to any competitor of Gaussian, Inc.  The licensee
 of this program is prohibited from giving any competitor of
 Gaussian, Inc. access to this program.  By using this program,
 the user acknowledges that Gaussian, Inc. is engaged in the
 business of creating and licensing software in the field of
 computational chemistry and represents and warrants to the
 licensee that it is not a competitor of Gaussian, Inc. and that
 it will not use this program in any manner prohibited above.
 ---------------------------------------------------------------
  

 Cite this work as:
 Gaussian 16, Revision C.01,
 M. J. Frisch, G. W. Trucks, H. B. Schlegel, G. E. Scuseria, 
 M. A. Robb, J. R. Cheeseman, G. Scalmani, V. Barone, 
 G. A. Petersson, H. Nakatsuji, X. Li, M. Caricato, A. V. Marenich, 
 J. Bloino, B. G. Janesko, R. Gomperts, B. Mennucci, H. P. Hratchian, 
 J. V. Ortiz, A. F. Izmaylov, J. L. Sonnenberg, D. Williams-Young, 
 F. Ding, F. Lipparini, F. Egidi, J. Goings, B. Peng, A. Petrone, 
 T. Henderson, D. Ranasinghe, V. G. Zakrzewski, J. Gao, N. Rega, 
 G. Zheng, W. Liang, M. Hada, M. Ehara, K. Toyota, R. Fukuda, 
 J. Hasegawa, M. Ishida, T. Nakajima, Y. Honda, O. Kitao, H. Nakai, 
 T. Vreven, K. Throssell, J. A. Montgomery, Jr., J. E. Peralta, 
 F. Ogliaro, M. J. Bearpark, J. J. Heyd, E. N. Brothers, K. N. Kudin, 
 V. N. Staroverov, T. A. Keith, R. Kobayashi, J. Normand, 
 K. Raghavachari, A. P. Rendell, J. C. Burant, S. S. Iyengar, 
 J. Tomasi, M. Cossi, J. M. Millam, M. Klene, C. Adamo, R. Cammi, 
 J. W. Ochterski, R. L. Martin, K. Morokuma, O. Farkas, 
 J. B. Foresman, and D. J. Fox, Gaussian, Inc., Wallingford CT, 2019.
 
 ******************************************
 Gaussian 16:  EM64L-G16RevC.01  3-Jul-2019
                 3-Sep-2022 
 ******************************************
 %nproc=16
 Will use up to   16 processors via shared memory.
 %mem=16GB
 ----------------------------------------------------------------------
 # qcisd/aug-cc-pvtz nosymm density=current pop=(chelpg,hirshfeld,npa,d
 ipole)
 ----------------------------------------------------------------------
 1/30=1,38=1,172=1/1;
 2/12=2,15=1,17=6,18=5,40=1/2;
 3/5=16,6=1,7=10,11=9,25=1,30=1,71=1/1,2,3;
 4//1;
 5/5=2,38=5/2;
 8/6=4,9=120000,10=1/1,4;
 9/5=8,15=1/13;
 11/28=-7,31=1,32=3,42=3/11;
 10/5=6,13=10,31=1/2;
 6/7=2,8=2,9=2,10=2,15=24,20=3,22=-1,40=-1,79=1/1,2,7;
 99/5=1,9=1/99;
 ------------------
 cl2co-wavefunction
 ------------------
 Symbolic Z-matrix:
 Charge =  0 Multiplicity = 1
 O                     0.01      0.        0.6834 
 C                     0.        0.       -0.49469 
 Cl                    0.       -1.44687  -1.46981 
 Cl                    0.        1.44687  -1.46981 
 
                          Input orientation:                          
 ---------------------------------------------------------------------
 Center     Atomic      Atomic             Coordinates (Angstroms)
 Number     Number       Type             X           Y           Z
 ---------------------------------------------------------------------
      1          8           0        0.010000    0.000000    0.683397
      2          6           0        0.000000    0.000000   -0.494687
      3         17           0        0.000000   -1.446870   -1.469805
      4         17           0        0.000000    1.446870   -1.469805
 ---------------------------------------------------------------------
                    Distance matrix (angstroms):
                    1          2          3          4
     1  O    0.000000
     2  C    1.178126   0.000000
     3  Cl   2.594188   1.744789   0.000000
     4  Cl   2.594188   1.744789   2.893740   0.000000
 Symmetry turned off by external request.
 Stoichiometry    CCl2O
 Framework group  CS[SG(CO),X(Cl2)]
 Deg. of freedom     4
 Full point group                 CS      NOp   2
 Rotational constants (GHZ):           7.9177676           3.4518045           2.4038406
 Standard basis: Aug-CC-pVTZ (5D, 7F)
   192 basis functions,   372 primitive gaussians,   228 cartesian basis functions
    24 alpha electrons       24 beta electrons
       nuclear repulsion energy       191.7647031166 Hartrees.
 NAtoms=    4 NActive=    4 NUniq=    4 SFac= 1.00D+00 NAtFMM=   60 NAOKFM=F Big=F
 Integral buffers will be    131072 words long.
 Raffenetti 1 integral format.
 Two-electron integral symmetry is turned off.
 One-electron integrals computed using PRISM.
 NBasis=   192 RedAO= T EigKep=  1.43D-04  NBF=   192
 NBsUse=   192 1.00D-06 EigRej= -1.00D+00 NBFU=   192
 ExpMin= 3.57D-02 ExpMax= 4.56D+05 ExpMxC= 1.44D+03 IAcc=3 IRadAn=         5 AccDes= 0.00D+00
 Harris functional with IExCor=  205 and IRadAn=       5 diagonalized for initial guess.
 HarFok:  IExCor=  205 AccDes= 0.00D+00 IRadAn=         5 IDoV= 1 UseB2=F ITyADJ=14
 ICtDFT=  3500011 ScaDFX=  1.000000  1.000000  1.000000  1.000000
 FoFCou: FMM=F IPFlag=           0 FMFlag=      100000 FMFlg1=           0
         NFxFlg=           0 DoJE=T BraDBF=F KetDBF=T FulRan=T
         wScrn=  0.000000 ICntrl=       500 IOpCl=  0 I1Cent=   200000004 NGrid=           0
         NMat0=    1 NMatS0=      1 NMatT0=    0 NMatD0=    1 NMtDS0=    0 NMtDT0=    0
 Symmetry not used in FoFCou.
 Keep R1 ints in memory in canonical form, NReq=179712264.
 Requested convergence on RMS density matrix=1.00D-08 within 128 cycles.
 Requested convergence on MAX density matrix=1.00D-06.
 Requested convergence on             energy=1.00D-06.
 No special actions if energy rises.
 SCF Done:  E(RHF) =  -1031.80273352     A.U. after   12 cycles
            NFock= 12  Conv=0.66D-08     -V/T= 2.0003
 ExpMin= 3.57D-02 ExpMax= 4.56D+05 ExpMxC= 1.44D+03 IAcc=3 IRadAn=         5 AccDes= 0.00D+00
 HarFok:  IExCor=  205 AccDes= 0.00D+00 IRadAn=         5 IDoV=-2 UseB2=F ITyADJ=14
 ICtDFT= 12500011 ScaDFX=  1.000000  1.000000  1.000000  1.000000
 Range of M.O.s used for correlation:    13   192
 NBasis=   192 NAE=    24 NBE=    24 NFC=    12 NFV=     0
 NROrb=    180 NOA=    12 NOB=    12 NVA=   168 NVB=   168

 **** Warning!!: The largest alpha MO coefficient is  0.28781108D+02

 Semi-Direct transformation.
 ModeAB=           2 MOrb=            12 LenV=    2146443369
 LASXX=     33405819 LTotXX=    33405819 LenRXX=    33405819
 LTotAB=    33954012 MaxLAS=    56388960 LenRXY=    56388960
 NonZer=    66811638 LenScr=   100987392 LnRSAI=           0
 LnScr1=           0 LExtra=           0 Total=    190782171
 MaxDsk=          -1 SrtSym=           F ITran=            4
 JobTyp=0 Pass  1:  I=   1 to  12.
 (rs|ai) integrals will be sorted in core.
 Spin components of T(2) and E(2):
     alpha-alpha T2 =       0.3523675887D-01 E2=     -0.1018054514D+00
     alpha-beta  T2 =       0.1834180408D+00 E2=     -0.5758037321D+00
     beta-beta   T2 =       0.3523675887D-01 E2=     -0.1018054514D+00
 ANorm=    0.1119772994D+01
 E2 =    -0.7794146348D+00 EUMP2 =    -0.10325821481509D+04
 Keep R2 and R3 ints in memory in canonical form, NReq=351373742.
 CIDS: In Core Option IDoMem=           1.
 Iterations=  50 Convergence= 0.100D-07
 Produce multiple copies of IABC intergrals
 Iteration Nr.   1
 **********************
 DD1Dir will call FoFMem   1 times, MxPair=       156
 NAB=    78 NAA=     0 NBB=     0.
 MP4(R+Q)=  0.22520899D-01
 E3=       -0.19052547D-01        EUMP3=      -0.10326012007D+04
 E4(DQ)=    0.28536026D-02        UMP4(DQ)=   -0.10325983471D+04
 E4(SDQ)=  -0.61290681D-02        UMP4(SDQ)=  -0.10326073298D+04
 DE(Corr)= -0.77594628     E(Corr)=     -1032.5786798    
 NORM(A)=   0.11213551D+01
 Iteration Nr.   2
 **********************
 DD1Dir will call FoFMem   1 times, MxPair=       156
 NAB=    78 NAA=     0 NBB=     0.
 DE(Corr)= -0.80166103     E(CORR)=     -1032.6043945     Delta=-2.57D-02
 NORM(A)=   0.11307163D+01
 Iteration Nr.   3
 **********************
 DD1Dir will call FoFMem   1 times, MxPair=       156
 NAB=    78 NAA=     0 NBB=     0.
 DE(Corr)= -0.80005667     E(CORR)=     -1032.6027902     Delta= 1.60D-03
 NORM(A)=   0.11333206D+01
 Iteration Nr.   4
 **********************
 DD1Dir will call FoFMem   1 times, MxPair=       156
 NAB=    78 NAA=     0 NBB=     0.
 DE(Corr)= -0.80248681     E(CORR)=     -1032.6052203     Delta=-2.43D-03
 NORM(A)=   0.11343322D+01
 Iteration Nr.   5
 **********************
 DD1Dir will call FoFMem   1 times, MxPair=       156
 NAB=    78 NAA=     0 NBB=     0.
 DE(Corr)= -0.80280417     E(CORR)=     -1032.6055377     Delta=-3.17D-04
 NORM(A)=   0.11347227D+01
 Iteration Nr.   6
 **********************
 DD1Dir will call FoFMem   1 times, MxPair=       156
 NAB=    78 NAA=     0 NBB=     0.
 DE(Corr)= -0.80285484     E(CORR)=     -1032.6055884     Delta=-5.07D-05
 NORM(A)=   0.11347939D+01
 Iteration Nr.   7
 **********************
 DD1Dir will call FoFMem   1 times, MxPair=       156
 NAB=    78 NAA=     0 NBB=     0.
 DE(Corr)= -0.80286399     E(CORR)=     -1032.6055975     Delta=-9.15D-06
 NORM(A)=   0.11347951D+01
 Iteration Nr.   8
 **********************
 DD1Dir will call FoFMem   1 times, MxPair=       156
 NAB=    78 NAA=     0 NBB=     0.
 DE(Corr)= -0.80286357     E(CORR)=     -1032.6055971     Delta= 4.14D-07
 NORM(A)=   0.11348031D+01
 Iteration Nr.   9
 **********************
 DD1Dir will call FoFMem   1 times, MxPair=       156
 NAB=    78 NAA=     0 NBB=     0.
 DE(Corr)= -0.80286231     E(CORR)=     -1032.6055958     Delta= 1.26D-06
 NORM(A)=   0.11348027D+01
 Iteration Nr.  10
 **********************
 DD1Dir will call FoFMem   1 times, MxPair=       156
 NAB=    78 NAA=     0 NBB=     0.
 DE(Corr)= -0.80286350     E(CORR)=     -1032.6055970     Delta=-1.19D-06
 NORM(A)=   0.11348043D+01
 Iteration Nr.  11
 **********************
 DD1Dir will call FoFMem   1 times, MxPair=       156
 NAB=    78 NAA=     0 NBB=     0.
 DE(Corr)= -0.80286432     E(CORR)=     -1032.6055978     Delta=-8.18D-07
 NORM(A)=   0.11348055D+01
 Iteration Nr.  12
 **********************
 DD1Dir will call FoFMem   1 times, MxPair=       156
 NAB=    78 NAA=     0 NBB=     0.
 DE(Corr)= -0.80286456     E(CORR)=     -1032.6055981     Delta=-2.48D-07
 NORM(A)=   0.11348061D+01
 Iteration Nr.  13
 **********************
 DD1Dir will call FoFMem   1 times, MxPair=       156
 NAB=    78 NAA=     0 NBB=     0.
 DE(Corr)= -0.80286489     E(CORR)=     -1032.6055984     Delta=-3.25D-07
 NORM(A)=   0.11348066D+01
 Iteration Nr.  14
 **********************
 DD1Dir will call FoFMem   1 times, MxPair=       156
 NAB=    78 NAA=     0 NBB=     0.
 DE(Corr)= -0.80286495     E(CORR)=     -1032.6055985     Delta=-6.50D-08
 NORM(A)=   0.11348068D+01
 Iteration Nr.  15
 **********************
 DD1Dir will call FoFMem   1 times, MxPair=       156
 NAB=    78 NAA=     0 NBB=     0.
 DE(Corr)= -0.80286500     E(CORR)=     -1032.6055985     Delta=-4.76D-08
 NORM(A)=   0.11348068D+01
 Iteration Nr.  16
 **********************
 DD1Dir will call FoFMem   1 times, MxPair=       156
 NAB=    78 NAA=     0 NBB=     0.
 DE(Corr)= -0.80286502     E(CORR)=     -1032.6055985     Delta=-1.64D-08
 NORM(A)=   0.11348069D+01
 Iteration Nr.  17
 **********************
 DD1Dir will call FoFMem   1 times, MxPair=       156
 NAB=    78 NAA=     0 NBB=     0.
 DE(Corr)= -0.80286502     E(CORR)=     -1032.6055985     Delta= 1.73D-09
 NORM(A)=   0.11348069D+01
 Wavefunction amplitudes converged. E(Corr)=     -1032.6055985    
 Largest amplitude= 3.31D-02

 Z-amplitude iterations

 Iteration Nr.   1
 **********************
 DD1Dir will call FoFMem   1 times, MxPair=       156
 NAB=    78 NAA=     0 NBB=     0.
 DE(Z)= -0.77482806     E(Z)=     -1032.5775616     Delta= 2.80D-02
 NORM(A)=   0.11348121D+01
 Iteration Nr.   2
 **********************
 DD1Dir will call FoFMem   1 times, MxPair=       156
 NAB=    78 NAA=     0 NBB=     0.
 DE(Z)= -0.77482824     E(Z)=     -1032.5775618     Delta=-1.73D-07
 NORM(A)=   0.11348096D+01
 Iteration Nr.   3
 **********************
 DD1Dir will call FoFMem   1 times, MxPair=       156
 NAB=    78 NAA=     0 NBB=     0.
 DE(Z)= -0.77482814     E(Z)=     -1032.5775617     Delta= 9.07D-08
 NORM(A)=   0.11348598D+01
 Iteration Nr.   4
 **********************
 DD1Dir will call FoFMem   1 times, MxPair=       156
 NAB=    78 NAA=     0 NBB=     0.
 DE(Z)= -0.77482971     E(Z)=     -1032.5775632     Delta=-1.57D-06
 NORM(A)=   0.11348237D+01
 Iteration Nr.   5
 **********************
 DD1Dir will call FoFMem   1 times, MxPair=       156
 NAB=    78 NAA=     0 NBB=     0.
 DE(Z)= -0.77482860     E(Z)=     -1032.5775621     Delta= 1.11D-06
 NORM(A)=   0.11251407D+01
 Iteration Nr.   6
 **********************
 DD1Dir will call FoFMem   1 times, MxPair=       156
 NAB=    78 NAA=     0 NBB=     0.
 DE(Z)= -0.77450958     E(Z)=     -1032.5772431     Delta= 3.19D-04
 NORM(A)=   0.11251383D+01
 Iteration Nr.   7
 **********************
 DD1Dir will call FoFMem   1 times, MxPair=       156
 NAB=    78 NAA=     0 NBB=     0.
 DE(Z)= -0.77451001     E(Z)=     -1032.5772435     Delta=-4.30D-07
 NORM(A)=   0.11251395D+01
 Iteration Nr.   8
 **********************
 DD1Dir will call FoFMem   1 times, MxPair=       156
 NAB=    78 NAA=     0 NBB=     0.
 DE(Z)= -0.77450978     E(Z)=     -1032.5772433     Delta= 2.35D-07
 NORM(A)=   0.11251397D+01
 Iteration Nr.   9
 **********************
 DD1Dir will call FoFMem   1 times, MxPair=       156
 NAB=    78 NAA=     0 NBB=     0.
 DE(Z)= -0.77451020     E(Z)=     -1032.5772437     Delta=-4.26D-07
 NORM(A)=   0.11251401D+01
 Iteration Nr.  10
 **********************
 DD1Dir will call FoFMem   1 times, MxPair=       156
 NAB=    78 NAA=     0 NBB=     0.
 DE(Z)= -0.77451004     E(Z)=     -1032.5772436     Delta= 1.60D-07
 NORM(A)=   0.11251402D+01
 Iteration Nr.  11
 **********************
 DD1Dir will call FoFMem   1 times, MxPair=       156
 NAB=    78 NAA=     0 NBB=     0.
 DE(Z)= -0.77451008     E(Z)=     -1032.5772436     Delta=-3.98D-08
 NORM(A)=   0.11251402D+01
 Iteration Nr.  12
 **********************
 DD1Dir will call FoFMem   1 times, MxPair=       156
 NAB=    78 NAA=     0 NBB=     0.
 DE(Z)= -0.77451008     E(Z)=     -1032.5772436     Delta=-1.83D-09
 NORM(A)=   0.11251402D+01
 Z-amplitudes converged.
 Discarding MO integrals.
          Differentiating once with respect to electric field.
                with respect to dipole field.
          Electric field/nuclear overlap derivatives assumed to be zero.
 Keep R1 ints in memory in canonical form, NReq=179717427.
          There are     1 degrees of freedom in the 1st order CPHF.  IDoFFX=0 NUNeed=     1.
 LinEq1:  Iter=  0 NonCon=     1 RMS=2.34D-03 Max=5.59D-02 NDo=     1
 AX will form     1 AO Fock derivatives at one time.
 LinEq1:  Iter=  1 NonCon=     1 RMS=8.30D-04 Max=1.86D-02 NDo=     1
 LinEq1:  Iter=  2 NonCon=     1 RMS=3.10D-04 Max=5.63D-03 NDo=     1
 LinEq1:  Iter=  3 NonCon=     1 RMS=1.28D-04 Max=3.29D-03 NDo=     1
 LinEq1:  Iter=  4 NonCon=     1 RMS=5.11D-05 Max=1.23D-03 NDo=     1
 LinEq1:  Iter=  5 NonCon=     1 RMS=1.65D-05 Max=3.62D-04 NDo=     1
 LinEq1:  Iter=  6 NonCon=     1 RMS=4.17D-06 Max=5.73D-05 NDo=     1
 LinEq1:  Iter=  7 NonCon=     1 RMS=9.92D-07 Max=1.16D-05 NDo=     1
 LinEq1:  Iter=  8 NonCon=     1 RMS=2.10D-07 Max=3.14D-06 NDo=     1
 LinEq1:  Iter=  9 NonCon=     1 RMS=4.75D-08 Max=8.04D-07 NDo=     1
 LinEq1:  Iter= 10 NonCon=     1 RMS=1.20D-08 Max=2.23D-07 NDo=     1
 LinEq1:  Iter= 11 NonCon=     1 RMS=2.52D-09 Max=3.83D-08 NDo=     1
 LinEq1:  Iter= 12 NonCon=     1 RMS=4.62D-10 Max=1.16D-08 NDo=     1
 LinEq1:  Iter= 13 NonCon=     1 RMS=7.84D-11 Max=1.20D-09 NDo=     1
 LinEq1:  Iter= 14 NonCon=     0 RMS=1.18D-11 Max=1.30D-10 NDo=     1
 Linear equations converged to 1.000D-10 1.000D-09 after    14 iterations.
 End of Minotr F.D. properties file   721 does not exist.
 End of Minotr F.D. properties file   722 does not exist.
 End of Minotr F.D. properties file   788 does not exist.

 **********************************************************************

            Population analysis using the CC Density.

 **********************************************************************

 Alpha  occ. eigenvalues -- -104.89034-104.89034 -20.62385 -11.47629 -10.61474
 Alpha  occ. eigenvalues --  -10.61473  -8.08152  -8.08151  -8.07940  -8.07940
 Alpha  occ. eigenvalues --   -8.07923  -8.07923  -1.48584  -1.20280  -1.14053
 Alpha  occ. eigenvalues --   -0.81223  -0.70797  -0.70167  -0.64880  -0.53115
 Alpha  occ. eigenvalues --   -0.50174  -0.49903  -0.49524  -0.47705
 Alpha virt. eigenvalues --    0.04777   0.06608   0.07970   0.08606   0.09321
 Alpha virt. eigenvalues --    0.09842   0.11377   0.12504   0.12770   0.13446
 Alpha virt. eigenvalues --    0.15701   0.15883   0.22043   0.22150   0.23657
 Alpha virt. eigenvalues --    0.23889   0.25342   0.26288   0.27970   0.30447
 Alpha virt. eigenvalues --    0.30992   0.31677   0.36353   0.39568   0.43819
 Alpha virt. eigenvalues --    0.44185   0.44239   0.45725   0.47057   0.48397
 Alpha virt. eigenvalues --    0.50795   0.51321   0.52026   0.52361   0.54894
 Alpha virt. eigenvalues --    0.62240   0.64193   0.69238   0.69761   0.71364
 Alpha virt. eigenvalues --    0.71537   0.73597   0.75848   0.79499   0.81356
 Alpha virt. eigenvalues --    0.81591   0.83256   0.83437   0.87007   0.88593
 Alpha virt. eigenvalues --    0.89181   0.91502   0.93369   0.93788   0.94581
 Alpha virt. eigenvalues --    0.96135   0.96651   1.04969   1.06030   1.08837
 Alpha virt. eigenvalues --    1.09709   1.12917   1.14907   1.16000   1.17265
 Alpha virt. eigenvalues --    1.21204   1.23079   1.24233   1.26614   1.33633
 Alpha virt. eigenvalues --    1.36867   1.39731   1.42500   1.46420   1.46730
 Alpha virt. eigenvalues --    1.47088   1.47425   1.56247   1.58070   1.61939
 Alpha virt. eigenvalues --    1.67733   1.67924   1.69458   1.72872   1.80558
 Alpha virt. eigenvalues --    1.81217   1.82776   1.83210   1.85411   2.00855
 Alpha virt. eigenvalues --    2.07246   2.25991   2.28707   2.33590   2.34074
 Alpha virt. eigenvalues --    2.39499   2.44565   2.45214   2.49022   2.49374
 Alpha virt. eigenvalues --    2.52313   2.54232   2.57953   2.59039   2.60497
 Alpha virt. eigenvalues --    2.62152   2.63564   2.66302   2.70392   2.77065
 Alpha virt. eigenvalues --    2.77124   2.81473   2.88537   2.88940   2.91390
 Alpha virt. eigenvalues --    2.92383   2.94575   2.97542   2.99216   3.02332
 Alpha virt. eigenvalues --    3.02623   3.05311   3.06444   3.07225   3.07506
 Alpha virt. eigenvalues --    3.10599   3.13219   3.16255   3.20164   3.21646
 Alpha virt. eigenvalues --    3.25050   3.26580   3.51941   3.53038   3.60365
 Alpha virt. eigenvalues --    3.62880   3.64157   3.70184   3.82313   3.84391
 Alpha virt. eigenvalues --    3.95050   3.96221   4.03112   4.15480   4.19404
 Alpha virt. eigenvalues --    4.43892   4.50776   4.63114   4.75976   5.12342
 Alpha virt. eigenvalues --    5.46225   5.62122   6.56388   6.57770   6.86274
 Alpha virt. eigenvalues --    6.86900   7.04927   7.10224   7.18310   7.18714
 Alpha virt. eigenvalues --    7.19821   7.28400   7.50600   7.51969   7.66658
 Alpha virt. eigenvalues --    7.72784  13.31695  15.69540
          Condensed to atoms (all electrons):
               1          2          3          4
     1  O    8.034180   0.435572  -0.074459  -0.074459
     2  C    0.435572   4.966621   0.136367   0.136367
     3  Cl  -0.074459   0.136367  17.040646  -0.100436
     4  Cl  -0.074459   0.136367  -0.100436  17.040646
 Mulliken charges:
               1
     1  O   -0.320834
     2  C    0.325072
     3  Cl  -0.002119
     4  Cl  -0.002119
 Sum of Mulliken charges =  -0.00000
 Mulliken charges with hydrogens summed into heavy atoms:
               1
     1  O   -0.320834
     2  C    0.325072
     3  Cl  -0.002119
     4  Cl  -0.002119
 Electronic spatial extent (au):  <R**2>=            613.6891
 Charge=             -0.0000 electrons
 Dipole moment (field-independent basis, Debye):
    X=             -0.0104    Y=             -0.0000    Z=             -1.2394  Tot=              1.2395
 Quadrupole moment (field-independent basis, Debye-Ang):
   XX=            -35.0851   YY=            -34.3835   ZZ=            -36.2849
   XY=             -0.0000   XZ=             -0.0205   YZ=              0.0000
 Traceless Quadrupole moment (field-independent basis, Debye-Ang):
   XX=              0.1660   YY=              0.8677   ZZ=             -1.0337
   XY=             -0.0000   XZ=             -0.0205   YZ=              0.0000
 Octapole moment (field-independent basis, Debye-Ang**2):
  XXX=             -0.1472  YYY=             -0.0000  ZZZ=            106.2001  XYY=             -0.0381
  XXY=              0.0000  XXZ=             36.0664  XZZ=             -0.0381  YZZ=             -0.0000
  YYZ=             29.7038  XYZ=              0.0000
 Hexadecapole moment (field-independent basis, Debye-Ang**3):
 XXXX=            -37.1345 YYYY=           -329.2926 ZZZZ=           -383.0984 XXXY=              0.0000
 XXXZ=             -0.1230 YYYX=             -0.0000 YYYZ=              0.0000 ZZZX=             -0.1663
 ZZZY=              0.0000 XXYY=            -65.2568 XXZZ=            -71.0863 YYZZ=           -106.8868
 XXYZ=             -0.0000 YYXZ=             -0.0737 ZZXY=             -0.0000
 N-N= 1.917647031166D+02 E-N=-2.837758583608D+03  KE= 1.032421891896D+03
 There are a total of       90730 grid points.
 ElSum from          density=       48.0000001576
 ElSum from atomic densities=       48.0000007007

 Hirshfeld populations at iteration   1 (CX, CA, CB, DipXYZ):
               1          2          3          4          5          6
     1  O    0.000007   4.092975   4.092975   0.000141  -0.000000  -0.043428
     2  C    0.000001   2.894210   2.894210  -0.002512  -0.000000  -0.057472
     3  Cl   0.000011   8.506407   8.506407   0.000894  -0.065668  -0.009993
     4  Cl   0.000011   8.506407   8.506407   0.000894   0.065668  -0.009993
       Tot   0.000030  24.000000  24.000000  -0.000584   0.000000  -0.120887

 Dip from Atomic Chgs             -0.003514  -0.000000  -0.366745
         Total Dipole             -0.004098  -0.000000  -0.487631

 Hirshfeld charges, spin densities, dipoles, and CM5 charges using IRadAn=      5:
              Q-H        S-H        Dx         Dy         Dz        Q-CM5   
     1  O   -0.185950   0.000000   0.000141  -0.000000  -0.043428  -0.232230
     2  C    0.211580   0.000000  -0.002512  -0.000000  -0.057472   0.250699
     3  Cl  -0.012815   0.000000   0.000894  -0.065668  -0.009993  -0.009234
     4  Cl  -0.012815   0.000000   0.000894   0.065668  -0.009993  -0.009234
       Tot  -0.000000   0.000000  -0.000584   0.000000  -0.120887  -0.000000
 Hirshfeld charges with hydrogens summed into heavy atoms:
              Q-H       Q-CM5   
     1  O   -0.185950  -0.232230
     2  C    0.211580   0.250699
     3  Cl  -0.012815  -0.009234
     4  Cl  -0.012815  -0.009234
 
 EQQ= 0.000000000000E+00 EQD= 0.000000000000E+00 EDD= 0.239683377817E-03
 EQQ+QD+DD= 0.239683377817E-03
 
 Breneman (CHELPG) radii used.
 Generate Potential Derived Charges using the Breneman model, NDens= 1.
 Grid spacing= 0.300 Box extension= 2.800
 NStep X,Y,Z=   20     30     26   Total possible points=       15600
 Number of Points to Fit=    4536

 **********************************************************************

            Electrostatic Properties Using The CC Density.

 **********************************************************************

       Atomic Center    1 is at   0.010000  0.000000  0.683397
       Atomic Center    2 is at   0.000000  0.000000 -0.494687
       Atomic Center    3 is at   0.000000 -1.446870 -1.469805
       Atomic Center    4 is at   0.000000  1.446870 -1.469805
    4536 points will be used for fitting atomic charges
 Fitting point charges to electrostatic potential
 The dipole moment will be constrained to the correct value
 Charges from ESP fit, RMS=   0.00664 RRMS=   0.58824:
 ESP charges:
               1
     1  O   -0.216839
     2  C    0.214182
     3  Cl   0.001328
     4  Cl   0.001328
 Sum of ESP charges =  -0.00000
 ESP charges with hydrogens summed into heavy atoms:
               1
     1  O   -0.216839
     2  C    0.214182
     3  Cl   0.001328
     4  Cl   0.001328
 Charge=  -0.00000 Dipole=    -0.0104    -0.0000    -1.2394 Tot=     1.2395
 -----------------------------------------------------------------

              Electrostatic Properties (Atomic Units)

 -----------------------------------------------------------------
    Center     Electric         -------- Electric Field --------
               Potential          X             Y             Z
 -----------------------------------------------------------------
    1 Atom    -22.284597
    2 Atom    -14.536666
    3 Atom    -64.374482
    4 Atom    -64.374482
 -----------------------------------------------------------------
 ******************************Gaussian NBO Version 3.1******************************
             N A T U R A L   A T O M I C   O R B I T A L   A N D
          N A T U R A L   B O N D   O R B I T A L   A N A L Y S I S
 ******************************Gaussian NBO Version 3.1******************************
       /RESON  / : Allow strongly delocalized NBO set

 Analyzing the QCI/CC density

 Job title: cl2co-wavefunction                                              

 Storage needed:    111522 in NPA (2147483536 available)
 GSVD:  LWork=        6614 too small for GESVD, short by       52797 words or       52797 for optimal perf.


 NATURAL POPULATIONS:  Natural atomic orbital occupancies 
                                                          
   NAO  Atom  No  lang   Type(AO)    Occupancy
 --------------------------------------------
     1    O    1  S      Cor( 1S)     1.99951
     2    O    1  S      Val( 2S)     1.68009
     3    O    1  S      Ryd( 3S)     0.00630
     4    O    1  S      Ryd( 4S)     0.00039
     5    O    1  S      Ryd( 5S)     0.00029
     6    O    1  px     Val( 2p)     1.35791
     7    O    1  px     Ryd( 3p)     0.00703
     8    O    1  px     Ryd( 4p)     0.00050
     9    O    1  px     Ryd( 5p)     0.00007
    10    O    1  py     Val( 2p)     1.74353
    11    O    1  py     Ryd( 3p)     0.01326
    12    O    1  py     Ryd( 4p)     0.00065
    13    O    1  py     Ryd( 5p)     0.00014
    14    O    1  pz     Val( 2p)     1.58109
    15    O    1  pz     Ryd( 3p)     0.00648
    16    O    1  pz     Ryd( 4p)     0.00050
    17    O    1  pz     Ryd( 5p)     0.00010
    18    O    1  dxy    Ryd( 3d)     0.00545
    19    O    1  dxy    Ryd( 4d)     0.00037
    20    O    1  dxy    Ryd( 5d)     0.00009
    21    O    1  dxz    Ryd( 3d)     0.01157
    22    O    1  dxz    Ryd( 4d)     0.00031
    23    O    1  dxz    Ryd( 5d)     0.00010
    24    O    1  dyz    Ryd( 3d)     0.01194
    25    O    1  dyz    Ryd( 4d)     0.00046
    26    O    1  dyz    Ryd( 5d)     0.00013
    27    O    1  dx2y2  Ryd( 3d)     0.00537
    28    O    1  dx2y2  Ryd( 4d)     0.00037
    29    O    1  dx2y2  Ryd( 5d)     0.00009
    30    O    1  dz2    Ryd( 3d)     0.02063
    31    O    1  dz2    Ryd( 4d)     0.00043
    32    O    1  dz2    Ryd( 5d)     0.00021
    33    O    1  f(0)   Ryd( 4f)     0.00132
    34    O    1  f(0)   Ryd( 5f)     0.00013
    35    O    1  f(C1)  Ryd( 4f)     0.00067
    36    O    1  f(C1)  Ryd( 5f)     0.00010
    37    O    1  f(S1)  Ryd( 4f)     0.00079
    38    O    1  f(S1)  Ryd( 5f)     0.00013
    39    O    1  f(C2)  Ryd( 4f)     0.00046
    40    O    1  f(C2)  Ryd( 5f)     0.00008
    41    O    1  f(S2)  Ryd( 4f)     0.00047
    42    O    1  f(S2)  Ryd( 5f)     0.00008
    43    O    1  f(C3)  Ryd( 4f)     0.00044
    44    O    1  f(C3)  Ryd( 5f)     0.00006
    45    O    1  f(S3)  Ryd( 4f)     0.00045
    46    O    1  f(S3)  Ryd( 5f)     0.00007

    47    C    2  S      Cor( 1S)     1.99941
    48    C    2  S      Val( 2S)     0.94596
    49    C    2  S      Ryd( 3S)     0.00955
    50    C    2  S      Ryd( 4S)     0.00017
    51    C    2  S      Ryd( 5S)     0.00010
    52    C    2  px     Val( 2p)     0.80564
    53    C    2  px     Ryd( 3p)     0.00760
    54    C    2  px     Ryd( 4p)     0.00059
    55    C    2  px     Ryd( 5p)     0.00018
    56    C    2  py     Val( 2p)     0.90088
    57    C    2  py     Ryd( 3p)     0.01085
    58    C    2  py     Ryd( 4p)     0.00067
    59    C    2  py     Ryd( 5p)     0.00038
    60    C    2  pz     Val( 2p)     0.80671
    61    C    2  pz     Ryd( 3p)     0.02822
    62    C    2  pz     Ryd( 5p)     0.00032
    63    C    2  pz     Ryd( 4p)     0.00057
    64    C    2  dxy    Ryd( 3d)     0.00873
    65    C    2  dxy    Ryd( 4d)     0.00030
    66    C    2  dxy    Ryd( 5d)     0.00014
    67    C    2  dxz    Ryd( 3d)     0.00826
    68    C    2  dxz    Ryd( 4d)     0.00069
    69    C    2  dxz    Ryd( 5d)     0.00027
    70    C    2  dyz    Ryd( 3d)     0.01137
    71    C    2  dyz    Ryd( 4d)     0.00085
    72    C    2  dyz    Ryd( 5d)     0.00023
    73    C    2  dx2y2  Ryd( 3d)     0.00613
    74    C    2  dx2y2  Ryd( 5d)     0.00024
    75    C    2  dx2y2  Ryd( 4d)     0.00027
    76    C    2  dz2    Ryd( 3d)     0.00685
    77    C    2  dz2    Ryd( 4d)     0.00046
    78    C    2  dz2    Ryd( 5d)     0.00025
    79    C    2  f(0)   Ryd( 4f)     0.00280
    80    C    2  f(0)   Ryd( 5f)     0.00036
    81    C    2  f(C1)  Ryd( 4f)     0.00181
    82    C    2  f(C1)  Ryd( 5f)     0.00041
    83    C    2  f(S1)  Ryd( 4f)     0.00306
    84    C    2  f(S1)  Ryd( 5f)     0.00057
    85    C    2  f(C2)  Ryd( 4f)     0.00182
    86    C    2  f(C2)  Ryd( 5f)     0.00023
    87    C    2  f(S2)  Ryd( 4f)     0.00173
    88    C    2  f(S2)  Ryd( 5f)     0.00026
    89    C    2  f(C3)  Ryd( 4f)     0.00144
    90    C    2  f(C3)  Ryd( 5f)     0.00021
    91    C    2  f(S3)  Ryd( 4f)     0.00150
    92    C    2  f(S3)  Ryd( 5f)     0.00018

    93   Cl    3  S      Cor( 1S)     2.00000
    94   Cl    3  S      Cor( 2S)     1.99940
    95   Cl    3  S      Val( 3S)     1.84254
    96   Cl    3  S      Ryd( 4S)     0.00533
    97   Cl    3  S      Ryd( 5S)     0.00031
    98   Cl    3  S      Ryd( 6S)     0.00021
    99   Cl    3  px     Cor( 2p)     2.00003
   100   Cl    3  px     Val( 3p)     1.85113
   101   Cl    3  px     Ryd( 4p)     0.00799
   102   Cl    3  px     Ryd( 5p)     0.00046
   103   Cl    3  px     Ryd( 6p)     0.00007
   104   Cl    3  py     Cor( 2p)     1.99994
   105   Cl    3  py     Val( 3p)     1.43369
   106   Cl    3  py     Ryd( 4p)     0.00608
   107   Cl    3  py     Ryd( 5p)     0.00050
   108   Cl    3  py     Ryd( 6p)     0.00006
   109   Cl    3  pz     Cor( 2p)     1.99999
   110   Cl    3  pz     Val( 3p)     1.71371
   111   Cl    3  pz     Ryd( 4p)     0.00718
   112   Cl    3  pz     Ryd( 5p)     0.00046
   113   Cl    3  pz     Ryd( 6p)     0.00010
   114   Cl    3  dxy    Ryd( 3d)     0.01816
   115   Cl    3  dxy    Ryd( 4d)     0.00051
   116   Cl    3  dxy    Ryd( 5d)     0.00012
   117   Cl    3  dxz    Ryd( 3d)     0.01839
   118   Cl    3  dxz    Ryd( 4d)     0.00061
   119   Cl    3  dxz    Ryd( 5d)     0.00013
   120   Cl    3  dyz    Ryd( 3d)     0.02339
   121   Cl    3  dyz    Ryd( 4d)     0.00047
   122   Cl    3  dyz    Ryd( 5d)     0.00012
   123   Cl    3  dx2y2  Ryd( 3d)     0.02010
   124   Cl    3  dx2y2  Ryd( 4d)     0.00051
   125   Cl    3  dx2y2  Ryd( 5d)     0.00012
   126   Cl    3  dz2    Ryd( 3d)     0.01715
   127   Cl    3  dz2    Ryd( 4d)     0.00052
   128   Cl    3  dz2    Ryd( 5d)     0.00017
   129   Cl    3  f(0)   Ryd( 4f)     0.00132
   130   Cl    3  f(0)   Ryd( 5f)     0.00013
   131   Cl    3  f(C1)  Ryd( 4f)     0.00132
   132   Cl    3  f(C1)  Ryd( 5f)     0.00012
   133   Cl    3  f(S1)  Ryd( 4f)     0.00129
   134   Cl    3  f(S1)  Ryd( 5f)     0.00017
   135   Cl    3  f(C2)  Ryd( 4f)     0.00156
   136   Cl    3  f(C2)  Ryd( 5f)     0.00013
   137   Cl    3  f(S2)  Ryd( 4f)     0.00132
   138   Cl    3  f(S2)  Ryd( 5f)     0.00014
   139   Cl    3  f(C3)  Ryd( 4f)     0.00130
   140   Cl    3  f(C3)  Ryd( 5f)     0.00013
   141   Cl    3  f(S3)  Ryd( 4f)     0.00134
   142   Cl    3  f(S3)  Ryd( 5f)     0.00013

   143   Cl    4  S      Cor( 1S)     2.00000
   144   Cl    4  S      Cor( 2S)     1.99940
   145   Cl    4  S      Val( 3S)     1.84254
   146   Cl    4  S      Ryd( 4S)     0.00533
   147   Cl    4  S      Ryd( 5S)     0.00031
   148   Cl    4  S      Ryd( 6S)     0.00021
   149   Cl    4  px     Cor( 2p)     2.00003
   150   Cl    4  px     Val( 3p)     1.85113
   151   Cl    4  px     Ryd( 4p)     0.00799
   152   Cl    4  px     Ryd( 5p)     0.00046
   153   Cl    4  px     Ryd( 6p)     0.00007
   154   Cl    4  py     Cor( 2p)     1.99994
   155   Cl    4  py     Val( 3p)     1.43369
   156   Cl    4  py     Ryd( 4p)     0.00608
   157   Cl    4  py     Ryd( 5p)     0.00050
   158   Cl    4  py     Ryd( 6p)     0.00006
   159   Cl    4  pz     Cor( 2p)     1.99999
   160   Cl    4  pz     Val( 3p)     1.71371
   161   Cl    4  pz     Ryd( 4p)     0.00718
   162   Cl    4  pz     Ryd( 5p)     0.00046
   163   Cl    4  pz     Ryd( 6p)     0.00010
   164   Cl    4  dxy    Ryd( 3d)     0.01816
   165   Cl    4  dxy    Ryd( 4d)     0.00051
   166   Cl    4  dxy    Ryd( 5d)     0.00012
   167   Cl    4  dxz    Ryd( 3d)     0.01839
   168   Cl    4  dxz    Ryd( 4d)     0.00061
   169   Cl    4  dxz    Ryd( 5d)     0.00013
   170   Cl    4  dyz    Ryd( 3d)     0.02339
   171   Cl    4  dyz    Ryd( 4d)     0.00047
   172   Cl    4  dyz    Ryd( 5d)     0.00012
   173   Cl    4  dx2y2  Ryd( 3d)     0.02010
   174   Cl    4  dx2y2  Ryd( 4d)     0.00051
   175   Cl    4  dx2y2  Ryd( 5d)     0.00012
   176   Cl    4  dz2    Ryd( 3d)     0.01715
   177   Cl    4  dz2    Ryd( 4d)     0.00052
   178   Cl    4  dz2    Ryd( 5d)     0.00017
   179   Cl    4  f(0)   Ryd( 4f)     0.00132
   180   Cl    4  f(0)   Ryd( 5f)     0.00013
   181   Cl    4  f(C1)  Ryd( 4f)     0.00132
   182   Cl    4  f(C1)  Ryd( 5f)     0.00012
   183   Cl    4  f(S1)  Ryd( 4f)     0.00129
   184   Cl    4  f(S1)  Ryd( 5f)     0.00017
   185   Cl    4  f(C2)  Ryd( 4f)     0.00156
   186   Cl    4  f(C2)  Ryd( 5f)     0.00013
   187   Cl    4  f(S2)  Ryd( 4f)     0.00132
   188   Cl    4  f(S2)  Ryd( 5f)     0.00014
   189   Cl    4  f(C3)  Ryd( 4f)     0.00130
   190   Cl    4  f(C3)  Ryd( 5f)     0.00013
   191   Cl    4  f(S3)  Ryd( 4f)     0.00134
   192   Cl    4  f(S3)  Ryd( 5f)     0.00013


 Summary of Natural Population Analysis:                  
                                                          
                                       Natural Population 
                Natural  -----------------------------------------------
    Atom  No    Charge         Core      Valence    Rydberg      Total
 -----------------------------------------------------------------------
      O    1   -0.46062      1.99951     6.36262    0.09849     8.46062
      C    2    0.42079      1.99941     3.45919    0.12062     5.57921
     Cl    3    0.01991      9.99935     6.84108    0.13966    16.98009
     Cl    4    0.01991      9.99935     6.84108    0.13966    16.98009
 =======================================================================
   * Total *    0.00000     23.99762    23.50397    0.49841    48.00000

                                 Natural Population      
 --------------------------------------------------------
   Core                      23.99762 ( 99.9901% of  24)
   Valence                   23.50397 ( 97.9332% of  24)
   Natural Minimal Basis     47.50159 ( 98.9616% of  48)
   Natural Rydberg Basis      0.49841 (  1.0384% of  48)
 --------------------------------------------------------

    Atom  No          Natural Electron Configuration
 ----------------------------------------------------------------------------
      O    1      [core]2S( 1.68)2p( 4.68)3S( 0.01)3p( 0.03)3d( 0.05)
      C    2      [core]2S( 0.95)2p( 2.51)3S( 0.01)3p( 0.05)3d( 0.04)4f( 0.01)
     Cl    3      [core]3S( 1.84)3p( 5.00)4S( 0.01)3d( 0.10)4p( 0.02)4f( 0.01)
     Cl    4      [core]3S( 1.84)3p( 5.00)4S( 0.01)3d( 0.10)4p( 0.02)4f( 0.01)


 NBO analysis skipped by request.
 Unable to Open any file for archive entry.
 1\1\GINC-TRAPISTA\SP\RQCISD-FC\Aug-CC-pVTZ\C1Cl2O1\WAGNER\03-Sep-2022\
 0\\# qcisd/aug-cc-pvtz nosymm density=current pop=(chelpg,hirshfeld,np
 a,dipole)\\cl2co-wavefunction\\0,1\O,0,0.01,0.,0.683397\C,0,0.,0.,-0.4
 94687\Cl,0,0.,-1.44687,-1.469805\Cl,0,0.,1.44687,-1.469805\\Version=EM
 64L-G16RevC.01\HF=-1031.8027335\MP2=-1032.5821482\MP3=-1032.6012007\MP
 4D=-1032.620868\MP4DQ=-1032.5983471\MP4SDQ=-1032.6073298\QCISD=-1032.6
 055985\RMSD=6.605e-09\Dipole=-0.0040977,0.,-0.4876325\Quadrupole=0.123
 4363,0.6451189,-0.7685552,0.,-0.0152244,0.\PG=CS [SG(C1O1),X(Cl2)]\\@
 The archive entry for this job was punched.


 The impersonal hand of government can
 never replace the helping hand of a neighbor.
                        -- Hubert H. Humphrey
 Job cpu time:       0 days  7 hours 12 minutes  5.6 seconds.
 Elapsed time:       0 days  0 hours 27 minutes 23.0 seconds.
 File lengths (MBytes):  RWF=  22679 Int=      0 D2E=      0 Chk=      4 Scr=      1
 Normal termination of Gaussian 16 at Sat Sep  3 19:59:06 2022.
