 Entering Gaussian System, Link 0=/home/wagner/chemistry/gaussian/g16/g16
 Input=GAUSSIAN.com
 Output=GAUSSIAN.log
 Initial command:
 /home/wagner/chemistry/gaussian/g16/l1.exe "/home/wagner/chemistry/gaussian/work/Gau-34202.inp" -scrdir="/home/wagner/chemistry/gaussian/work/"
 Entering Link 1 = /home/wagner/chemistry/gaussian/g16/l1.exe PID=     34204.
  
 Copyright (c) 1988-2019, Gaussian, Inc.  All Rights Reserved.
  
 This is part of the Gaussian(R) 16 program.  It is based on
 the Gaussian(R) 09 system (copyright 2009, Gaussian, Inc.),
 the Gaussian(R) 03 system (copyright 2003, Gaussian, Inc.),
 the Gaussian(R) 98 system (copyright 1998, Gaussian, Inc.),
 the Gaussian(R) 94 system (copyright 1995, Gaussian, Inc.),
 the Gaussian 92(TM) system (copyright 1992, Gaussian, Inc.),
 the Gaussian 90(TM) system (copyright 1990, Gaussian, Inc.),
 the Gaussian 88(TM) system (copyright 1988, Gaussian, Inc.),
 the Gaussian 86(TM) system (copyright 1986, Carnegie Mellon
 University), and the Gaussian 82(TM) system (copyright 1983,
 Carnegie Mellon University). Gaussian is a federally registered
 trademark of Gaussian, Inc.
  
 This software contains proprietary and confidential information,
 including trade secrets, belonging to Gaussian, Inc.
  
 This software is provided under written license and may be
 used, copied, transmitted, or stored only in accord with that
 written license.
  
 The following legend is applicable only to US Government
 contracts under FAR:
  
                    RESTRICTED RIGHTS LEGEND
  
 Use, reproduction and disclosure by the US Government is
 subject to restrictions as set forth in subparagraphs (a)
 and (c) of the Commercial Computer Software - Restricted
 Rights clause in FAR 52.227-19.
  
 Gaussian, Inc.
 340 Quinnipiac St., Bldg. 40, Wallingford CT 06492
  
  
 ---------------------------------------------------------------
 Warning -- This program may not be used in any manner that
 competes with the business of Gaussian, Inc. or will provide
 assistance to any competitor of Gaussian, Inc.  The licensee
 of this program is prohibited from giving any competitor of
 Gaussian, Inc. access to this program.  By using this program,
 the user acknowledges that Gaussian, Inc. is engaged in the
 business of creating and licensing software in the field of
 computational chemistry and represents and warrants to the
 licensee that it is not a competitor of Gaussian, Inc. and that
 it will not use this program in any manner prohibited above.
 ---------------------------------------------------------------
  

 Cite this work as:
 Gaussian 16, Revision C.01,
 M. J. Frisch, G. W. Trucks, H. B. Schlegel, G. E. Scuseria, 
 M. A. Robb, J. R. Cheeseman, G. Scalmani, V. Barone, 
 G. A. Petersson, H. Nakatsuji, X. Li, M. Caricato, A. V. Marenich, 
 J. Bloino, B. G. Janesko, R. Gomperts, B. Mennucci, H. P. Hratchian, 
 J. V. Ortiz, A. F. Izmaylov, J. L. Sonnenberg, D. Williams-Young, 
 F. Ding, F. Lipparini, F. Egidi, J. Goings, B. Peng, A. Petrone, 
 T. Henderson, D. Ranasinghe, V. G. Zakrzewski, J. Gao, N. Rega, 
 G. Zheng, W. Liang, M. Hada, M. Ehara, K. Toyota, R. Fukuda, 
 J. Hasegawa, M. Ishida, T. Nakajima, Y. Honda, O. Kitao, H. Nakai, 
 T. Vreven, K. Throssell, J. A. Montgomery, Jr., J. E. Peralta, 
 F. Ogliaro, M. J. Bearpark, J. J. Heyd, E. N. Brothers, K. N. Kudin, 
 V. N. Staroverov, T. A. Keith, R. Kobayashi, J. Normand, 
 K. Raghavachari, A. P. Rendell, J. C. Burant, S. S. Iyengar, 
 J. Tomasi, M. Cossi, J. M. Millam, M. Klene, C. Adamo, R. Cammi, 
 J. W. Ochterski, R. L. Martin, K. Morokuma, O. Farkas, 
 J. B. Foresman, and D. J. Fox, Gaussian, Inc., Wallingford CT, 2019.
 
 ******************************************
 Gaussian 16:  EM64L-G16RevC.01  3-Jul-2019
                 4-Sep-2022 
 ******************************************
 %nproc=16
 Will use up to   16 processors via shared memory.
 %mem=16GB
 ----------------------------------------------------------------------
 # qcisd/aug-cc-pvtz nosymm density=current pop=(chelpg,hirshfeld,npa,d
 ipole)
 ----------------------------------------------------------------------
 1/30=1,38=1,172=1/1;
 2/12=2,15=1,17=6,18=5,40=1/2;
 3/5=16,6=1,7=10,11=9,25=1,30=1,71=1/1,2,3;
 4//1;
 5/5=2,38=5/2;
 8/6=4,9=120000,10=1/1,4;
 9/5=8,15=1/13;
 11/28=-7,31=1,32=3,42=3/11;
 10/5=6,13=10,31=1/2;
 6/7=2,8=2,9=2,10=2,15=24,20=3,22=-1,40=-1,79=1/1,2,7;
 99/5=1,9=1/99;
 ------------------
 cl2co-wavefunction
 ------------------
 Symbolic Z-matrix:
 Charge =  0 Multiplicity = 1
 O                     0.        0.        0.6834 
 C                     0.        0.       -0.49469 
 Cl                    0.       -1.43687  -1.46981 
 Cl                    0.        1.44687  -1.46981 
 
                          Input orientation:                          
 ---------------------------------------------------------------------
 Center     Atomic      Atomic             Coordinates (Angstroms)
 Number     Number       Type             X           Y           Z
 ---------------------------------------------------------------------
      1          8           0        0.000000    0.000000    0.683397
      2          6           0        0.000000    0.000000   -0.494687
      3         17           0        0.000000   -1.436870   -1.469805
      4         17           0        0.000000    1.446870   -1.469805
 ---------------------------------------------------------------------
                    Distance matrix (angstroms):
                    1          2          3          4
     1  O    0.000000
     2  C    1.178084   0.000000
     3  Cl   2.588605   1.736505   0.000000
     4  Cl   2.594169   1.744789   2.883740   0.000000
 Symmetry turned off by external request.
 Stoichiometry    CCl2O
 Framework group  CS[SG(CCl2O)]
 Deg. of freedom     5
 Full point group                 CS      NOp   2
 Rotational constants (GHZ):           7.9179749           3.4757707           2.4154537
 Standard basis: Aug-CC-pVTZ (5D, 7F)
   192 basis functions,   372 primitive gaussians,   228 cartesian basis functions
    24 alpha electrons       24 beta electrons
       nuclear repulsion energy       192.1563592682 Hartrees.
 NAtoms=    4 NActive=    4 NUniq=    4 SFac= 1.00D+00 NAtFMM=   60 NAOKFM=F Big=F
 Integral buffers will be    131072 words long.
 Raffenetti 1 integral format.
 Two-electron integral symmetry is turned off.
 One-electron integrals computed using PRISM.
 NBasis=   192 RedAO= T EigKep=  1.42D-04  NBF=   192
 NBsUse=   192 1.00D-06 EigRej= -1.00D+00 NBFU=   192
 ExpMin= 3.57D-02 ExpMax= 4.56D+05 ExpMxC= 1.44D+03 IAcc=3 IRadAn=         5 AccDes= 0.00D+00
 Harris functional with IExCor=  205 and IRadAn=       5 diagonalized for initial guess.
 HarFok:  IExCor=  205 AccDes= 0.00D+00 IRadAn=         5 IDoV= 1 UseB2=F ITyADJ=14
 ICtDFT=  3500011 ScaDFX=  1.000000  1.000000  1.000000  1.000000
 FoFCou: FMM=F IPFlag=           0 FMFlag=      100000 FMFlg1=           0
         NFxFlg=           0 DoJE=T BraDBF=F KetDBF=T FulRan=T
         wScrn=  0.000000 ICntrl=       500 IOpCl=  0 I1Cent=   200000004 NGrid=           0
         NMat0=    1 NMatS0=      1 NMatT0=    0 NMatD0=    1 NMtDS0=    0 NMtDT0=    0
 Symmetry not used in FoFCou.
 Keep R1 ints in memory in canonical form, NReq=179712351.
 Requested convergence on RMS density matrix=1.00D-08 within 128 cycles.
 Requested convergence on MAX density matrix=1.00D-06.
 Requested convergence on             energy=1.00D-06.
 No special actions if energy rises.
 SCF Done:  E(RHF) =  -1031.80281047     A.U. after   12 cycles
            NFock= 12  Conv=0.67D-08     -V/T= 2.0003
 ExpMin= 3.57D-02 ExpMax= 4.56D+05 ExpMxC= 1.44D+03 IAcc=3 IRadAn=         5 AccDes= 0.00D+00
 HarFok:  IExCor=  205 AccDes= 0.00D+00 IRadAn=         5 IDoV=-2 UseB2=F ITyADJ=14
 ICtDFT= 12500011 ScaDFX=  1.000000  1.000000  1.000000  1.000000
 Range of M.O.s used for correlation:    13   192
 NBasis=   192 NAE=    24 NBE=    24 NFC=    12 NFV=     0
 NROrb=    180 NOA=    12 NOB=    12 NVA=   168 NVB=   168

 **** Warning!!: The largest alpha MO coefficient is  0.28981918D+02

 Semi-Direct transformation.
 ModeAB=           2 MOrb=            12 LenV=    2146443271
 LASXX=     33405819 LTotXX=    33405819 LenRXX=    33405819
 LTotAB=    33954012 MaxLAS=    56388960 LenRXY=    56388960
 NonZer=    66811638 LenScr=   100987392 LnRSAI=           0
 LnScr1=           0 LExtra=           0 Total=    190782171
 MaxDsk=          -1 SrtSym=           F ITran=            4
 JobTyp=0 Pass  1:  I=   1 to  12.
 (rs|ai) integrals will be sorted in core.
 Spin components of T(2) and E(2):
     alpha-alpha T2 =       0.3521277500D-01 E2=     -0.1018238572D+00
     alpha-beta  T2 =       0.1831939673D+00 E2=     -0.5756903125D+00
     beta-beta   T2 =       0.3521277500D-01 E2=     -0.1018238572D+00
 ANorm=    0.1119651516D+01
 E2 =    -0.7793380270D+00 EUMP2 =    -0.10325821484992D+04
 Keep R2 and R3 ints in memory in canonical form, NReq=351373829.
 CIDS: In Core Option IDoMem=           1.
 Iterations=  50 Convergence= 0.100D-07
 Produce multiple copies of IABC intergrals
 Iteration Nr.   1
 **********************
 DD1Dir will call FoFMem   1 times, MxPair=       156
 NAB=    78 NAA=     0 NBB=     0.
 MP4(R+Q)=  0.22489525D-01
 E3=       -0.19049904D-01        EUMP3=      -0.10326011984D+04
 E4(DQ)=    0.28602634D-02        UMP4(DQ)=   -0.10325983381D+04
 E4(SDQ)=  -0.60932938D-02        UMP4(SDQ)=  -0.10326072917D+04
 DE(Corr)= -0.77589841     E(Corr)=     -1032.5787089    
 NORM(A)=   0.11212234D+01
 Iteration Nr.   2
 **********************
 DD1Dir will call FoFMem   1 times, MxPair=       156
 NAB=    78 NAA=     0 NBB=     0.
 DE(Corr)= -0.80155398     E(CORR)=     -1032.6043644     Delta=-2.57D-02
 NORM(A)=   0.11305564D+01
 Iteration Nr.   3
 **********************
 DD1Dir will call FoFMem   1 times, MxPair=       156
 NAB=    78 NAA=     0 NBB=     0.
 DE(Corr)= -0.79996075     E(CORR)=     -1032.6027712     Delta= 1.59D-03
 NORM(A)=   0.11331462D+01
 Iteration Nr.   4
 **********************
 DD1Dir will call FoFMem   1 times, MxPair=       156
 NAB=    78 NAA=     0 NBB=     0.
 DE(Corr)= -0.80238045     E(CORR)=     -1032.6051909     Delta=-2.42D-03
 NORM(A)=   0.11341518D+01
 Iteration Nr.   5
 **********************
 DD1Dir will call FoFMem   1 times, MxPair=       156
 NAB=    78 NAA=     0 NBB=     0.
 DE(Corr)= -0.80269611     E(CORR)=     -1032.6055066     Delta=-3.16D-04
 NORM(A)=   0.11345392D+01
 Iteration Nr.   6
 **********************
 DD1Dir will call FoFMem   1 times, MxPair=       156
 NAB=    78 NAA=     0 NBB=     0.
 DE(Corr)= -0.80274640     E(CORR)=     -1032.6055569     Delta=-5.03D-05
 NORM(A)=   0.11346098D+01
 Iteration Nr.   7
 **********************
 DD1Dir will call FoFMem   1 times, MxPair=       156
 NAB=    78 NAA=     0 NBB=     0.
 DE(Corr)= -0.80275545     E(CORR)=     -1032.6055659     Delta=-9.05D-06
 NORM(A)=   0.11346108D+01
 Iteration Nr.   8
 **********************
 DD1Dir will call FoFMem   1 times, MxPair=       156
 NAB=    78 NAA=     0 NBB=     0.
 DE(Corr)= -0.80275504     E(CORR)=     -1032.6055655     Delta= 4.05D-07
 NORM(A)=   0.11346188D+01
 Iteration Nr.   9
 **********************
 DD1Dir will call FoFMem   1 times, MxPair=       156
 NAB=    78 NAA=     0 NBB=     0.
 DE(Corr)= -0.80275377     E(CORR)=     -1032.6055642     Delta= 1.27D-06
 NORM(A)=   0.11346183D+01
 Iteration Nr.  10
 **********************
 DD1Dir will call FoFMem   1 times, MxPair=       156
 NAB=    78 NAA=     0 NBB=     0.
 DE(Corr)= -0.80275496     E(CORR)=     -1032.6055654     Delta=-1.19D-06
 NORM(A)=   0.11346199D+01
 Iteration Nr.  11
 **********************
 DD1Dir will call FoFMem   1 times, MxPair=       156
 NAB=    78 NAA=     0 NBB=     0.
 DE(Corr)= -0.80275576     E(CORR)=     -1032.6055662     Delta=-7.97D-07
 NORM(A)=   0.11346210D+01
 Iteration Nr.  12
 **********************
 DD1Dir will call FoFMem   1 times, MxPair=       156
 NAB=    78 NAA=     0 NBB=     0.
 DE(Corr)= -0.80275601     E(CORR)=     -1032.6055665     Delta=-2.52D-07
 NORM(A)=   0.11346217D+01
 Iteration Nr.  13
 **********************
 DD1Dir will call FoFMem   1 times, MxPair=       156
 NAB=    78 NAA=     0 NBB=     0.
 DE(Corr)= -0.80275633     E(CORR)=     -1032.6055668     Delta=-3.19D-07
 NORM(A)=   0.11346221D+01
 Iteration Nr.  14
 **********************
 DD1Dir will call FoFMem   1 times, MxPair=       156
 NAB=    78 NAA=     0 NBB=     0.
 DE(Corr)= -0.80275639     E(CORR)=     -1032.6055669     Delta=-6.60D-08
 NORM(A)=   0.11346223D+01
 Iteration Nr.  15
 **********************
 DD1Dir will call FoFMem   1 times, MxPair=       156
 NAB=    78 NAA=     0 NBB=     0.
 DE(Corr)= -0.80275644     E(CORR)=     -1032.6055669     Delta=-4.66D-08
 NORM(A)=   0.11346224D+01
 Iteration Nr.  16
 **********************
 DD1Dir will call FoFMem   1 times, MxPair=       156
 NAB=    78 NAA=     0 NBB=     0.
 DE(Corr)= -0.80275646     E(CORR)=     -1032.6055669     Delta=-1.58D-08
 NORM(A)=   0.11346224D+01
 Iteration Nr.  17
 **********************
 DD1Dir will call FoFMem   1 times, MxPair=       156
 NAB=    78 NAA=     0 NBB=     0.
 DE(Corr)= -0.80275645     E(CORR)=     -1032.6055669     Delta= 1.34D-09
 NORM(A)=   0.11346224D+01
 Wavefunction amplitudes converged. E(Corr)=     -1032.6055669    
 Largest amplitude= 3.36D-02

 Z-amplitude iterations

 Iteration Nr.   1
 **********************
 DD1Dir will call FoFMem   1 times, MxPair=       156
 NAB=    78 NAA=     0 NBB=     0.
 DE(Z)= -0.77477215     E(Z)=     -1032.5775826     Delta= 2.80D-02
 NORM(A)=   0.11346437D+01
 Iteration Nr.   2
 **********************
 DD1Dir will call FoFMem   1 times, MxPair=       156
 NAB=    78 NAA=     0 NBB=     0.
 DE(Z)= -0.77477285     E(Z)=     -1032.5775833     Delta=-7.05D-07
 NORM(A)=   0.11349644D+01
 Iteration Nr.   3
 **********************
 DD1Dir will call FoFMem   1 times, MxPair=       156
 NAB=    78 NAA=     0 NBB=     0.
 DE(Z)= -0.77478244     E(Z)=     -1032.5775929     Delta=-9.58D-06
 NORM(A)=   0.11346495D+01
 Iteration Nr.   4
 **********************
 DD1Dir will call FoFMem   1 times, MxPair=       156
 NAB=    78 NAA=     0 NBB=     0.
 DE(Z)= -0.77477301     E(Z)=     -1032.5775835     Delta= 9.43D-06
 NORM(A)=   0.11346499D+01
 Iteration Nr.   5
 **********************
 DD1Dir will call FoFMem   1 times, MxPair=       156
 NAB=    78 NAA=     0 NBB=     0.
 DE(Z)= -0.77477305     E(Z)=     -1032.5775835     Delta=-3.81D-08
 NORM(A)=   0.11249843D+01
 Iteration Nr.   6
 **********************
 DD1Dir will call FoFMem   1 times, MxPair=       156
 NAB=    78 NAA=     0 NBB=     0.
 DE(Z)= -0.77445358     E(Z)=     -1032.5772640     Delta= 3.19D-04
 NORM(A)=   0.11249855D+01
 Iteration Nr.   7
 **********************
 DD1Dir will call FoFMem   1 times, MxPair=       156
 NAB=    78 NAA=     0 NBB=     0.
 DE(Z)= -0.77445322     E(Z)=     -1032.5772637     Delta= 3.53D-07
 NORM(A)=   0.11249864D+01
 Iteration Nr.   8
 **********************
 DD1Dir will call FoFMem   1 times, MxPair=       156
 NAB=    78 NAA=     0 NBB=     0.
 DE(Z)= -0.77445292     E(Z)=     -1032.5772634     Delta= 3.06D-07
 NORM(A)=   0.11249867D+01
 Iteration Nr.   9
 **********************
 DD1Dir will call FoFMem   1 times, MxPair=       156
 NAB=    78 NAA=     0 NBB=     0.
 DE(Z)= -0.77445334     E(Z)=     -1032.5772638     Delta=-4.25D-07
 NORM(A)=   0.11249870D+01
 Iteration Nr.  10
 **********************
 DD1Dir will call FoFMem   1 times, MxPair=       156
 NAB=    78 NAA=     0 NBB=     0.
 DE(Z)= -0.77445315     E(Z)=     -1032.5772636     Delta= 1.91D-07
 NORM(A)=   0.11249871D+01
 Iteration Nr.  11
 **********************
 DD1Dir will call FoFMem   1 times, MxPair=       156
 NAB=    78 NAA=     0 NBB=     0.
 DE(Z)= -0.77445323     E(Z)=     -1032.5772637     Delta=-8.17D-08
 NORM(A)=   0.11249872D+01
 Iteration Nr.  12
 **********************
 DD1Dir will call FoFMem   1 times, MxPair=       156
 NAB=    78 NAA=     0 NBB=     0.
 DE(Z)= -0.77445322     E(Z)=     -1032.5772637     Delta= 1.14D-08
 NORM(A)=   0.11249872D+01
 Iteration Nr.  13
 **********************
 DD1Dir will call FoFMem   1 times, MxPair=       156
 NAB=    78 NAA=     0 NBB=     0.
 DE(Z)= -0.77445322     E(Z)=     -1032.5772637     Delta=-1.65D-09
 NORM(A)=   0.11249872D+01
 Z-amplitudes converged.
 Discarding MO integrals.
          Differentiating once with respect to electric field.
                with respect to dipole field.
          Electric field/nuclear overlap derivatives assumed to be zero.
 Keep R1 ints in memory in canonical form, NReq=179717456.
          There are     1 degrees of freedom in the 1st order CPHF.  IDoFFX=0 NUNeed=     1.
 LinEq1:  Iter=  0 NonCon=     1 RMS=2.34D-03 Max=5.66D-02 NDo=     1
 AX will form     1 AO Fock derivatives at one time.
 LinEq1:  Iter=  1 NonCon=     1 RMS=8.27D-04 Max=1.86D-02 NDo=     1
 LinEq1:  Iter=  2 NonCon=     1 RMS=3.09D-04 Max=5.58D-03 NDo=     1
 LinEq1:  Iter=  3 NonCon=     1 RMS=1.27D-04 Max=3.27D-03 NDo=     1
 LinEq1:  Iter=  4 NonCon=     1 RMS=5.08D-05 Max=1.23D-03 NDo=     1
 LinEq1:  Iter=  5 NonCon=     1 RMS=1.63D-05 Max=3.60D-04 NDo=     1
 LinEq1:  Iter=  6 NonCon=     1 RMS=4.15D-06 Max=5.62D-05 NDo=     1
 LinEq1:  Iter=  7 NonCon=     1 RMS=9.88D-07 Max=1.15D-05 NDo=     1
 LinEq1:  Iter=  8 NonCon=     1 RMS=2.10D-07 Max=3.15D-06 NDo=     1
 LinEq1:  Iter=  9 NonCon=     1 RMS=4.75D-08 Max=8.12D-07 NDo=     1
 LinEq1:  Iter= 10 NonCon=     1 RMS=1.20D-08 Max=2.26D-07 NDo=     1
 LinEq1:  Iter= 11 NonCon=     1 RMS=2.51D-09 Max=3.74D-08 NDo=     1
 LinEq1:  Iter= 12 NonCon=     1 RMS=4.60D-10 Max=1.14D-08 NDo=     1
 LinEq1:  Iter= 13 NonCon=     1 RMS=8.26D-11 Max=1.23D-09 NDo=     1
 LinEq1:  Iter= 14 NonCon=     0 RMS=2.00D-11 Max=3.23D-10 NDo=     1
 Linear equations converged to 1.000D-10 1.000D-09 after    14 iterations.
 End of Minotr F.D. properties file   721 does not exist.
 End of Minotr F.D. properties file   722 does not exist.
 End of Minotr F.D. properties file   788 does not exist.

 **********************************************************************

            Population analysis using the CC Density.

 **********************************************************************

 Alpha  occ. eigenvalues -- -104.89077-104.88955 -20.62316 -11.47557 -10.61536
 Alpha  occ. eigenvalues --  -10.61400  -8.08215  -8.08078  -8.08002  -8.07984
 Alpha  occ. eigenvalues --   -8.07867  -8.07850  -1.48558  -1.20446  -1.14104
 Alpha  occ. eigenvalues --   -0.81220  -0.70829  -0.70196  -0.64922  -0.53168
 Alpha  occ. eigenvalues --   -0.50178  -0.49892  -0.49534  -0.47671
 Alpha virt. eigenvalues --    0.04789   0.06608   0.07974   0.08592   0.09350
 Alpha virt. eigenvalues --    0.09914   0.11377   0.12497   0.12766   0.13448
 Alpha virt. eigenvalues --    0.15806   0.15888   0.22060   0.22168   0.23681
 Alpha virt. eigenvalues --    0.23869   0.25343   0.26363   0.27987   0.30437
 Alpha virt. eigenvalues --    0.30987   0.31687   0.36378   0.39598   0.43865
 Alpha virt. eigenvalues --    0.44179   0.44243   0.45766   0.47058   0.48425
 Alpha virt. eigenvalues --    0.50754   0.51351   0.52056   0.52387   0.54982
 Alpha virt. eigenvalues --    0.62307   0.64162   0.69273   0.69784   0.71321
 Alpha virt. eigenvalues --    0.71495   0.73561   0.75885   0.79489   0.81308
 Alpha virt. eigenvalues --    0.81545   0.83156   0.83446   0.87012   0.88632
 Alpha virt. eigenvalues --    0.89161   0.91514   0.93426   0.93831   0.94581
 Alpha virt. eigenvalues --    0.96156   0.96692   1.05156   1.06188   1.08950
 Alpha virt. eigenvalues --    1.09932   1.12973   1.14977   1.16071   1.17326
 Alpha virt. eigenvalues --    1.21315   1.23083   1.24207   1.26686   1.33926
 Alpha virt. eigenvalues --    1.36988   1.39749   1.42589   1.46367   1.47068
 Alpha virt. eigenvalues --    1.47140   1.47370   1.56347   1.58131   1.62027
 Alpha virt. eigenvalues --    1.67806   1.68085   1.69766   1.72970   1.80631
 Alpha virt. eigenvalues --    1.81130   1.82898   1.83293   1.85542   2.01220
 Alpha virt. eigenvalues --    2.07263   2.26041   2.28791   2.33616   2.34106
 Alpha virt. eigenvalues --    2.39640   2.44526   2.45265   2.49010   2.49388
 Alpha virt. eigenvalues --    2.52369   2.54113   2.57976   2.59132   2.60309
 Alpha virt. eigenvalues --    2.62188   2.63668   2.66350   2.70463   2.77095
 Alpha virt. eigenvalues --    2.77559   2.81556   2.88544   2.88992   2.91353
 Alpha virt. eigenvalues --    2.92860   2.94502   2.97544   2.99520   3.02414
 Alpha virt. eigenvalues --    3.02637   3.05518   3.06497   3.07250   3.07478
 Alpha virt. eigenvalues --    3.10620   3.13203   3.16673   3.20359   3.21766
 Alpha virt. eigenvalues --    3.25331   3.26298   3.52892   3.53126   3.60535
 Alpha virt. eigenvalues --    3.63021   3.64520   3.70375   3.82696   3.84721
 Alpha virt. eigenvalues --    3.95569   3.96459   4.03471   4.15658   4.19703
 Alpha virt. eigenvalues --    4.44266   4.50248   4.63545   4.76571   5.12419
 Alpha virt. eigenvalues --    5.46552   5.62673   6.56525   6.57828   6.86360
 Alpha virt. eigenvalues --    6.86988   7.05028   7.11000   7.18465   7.18887
 Alpha virt. eigenvalues --    7.20770   7.29207   7.50697   7.52509   7.66829
 Alpha virt. eigenvalues --    7.72927  13.32564  15.70870
          Condensed to atoms (all electrons):
               1          2          3          4
     1  O    8.035733   0.436395  -0.075959  -0.074661
     2  C    0.436395   4.971939   0.133040   0.137268
     3  Cl  -0.075959   0.133040  17.040160  -0.101552
     4  Cl  -0.074661   0.137268  -0.101552  17.043104
 Mulliken charges:
               1
     1  O   -0.321509
     2  C    0.321358
     3  Cl   0.004310
     4  Cl  -0.004160
 Sum of Mulliken charges =  -0.00000
 Mulliken charges with hydrogens summed into heavy atoms:
               1
     1  O   -0.321509
     2  C    0.321358
     3  Cl   0.004310
     4  Cl  -0.004160
 Electronic spatial extent (au):  <R**2>=            611.9027
 Charge=             -0.0000 electrons
 Dipole moment (field-independent basis, Debye):
    X=             -0.0000    Y=             -0.0370    Z=             -1.2551  Tot=              1.2557
 Quadrupole moment (field-independent basis, Debye-Ang):
   XX=            -35.0696   YY=            -34.3809   ZZ=            -36.2587
   XY=              0.0000   XZ=              0.0000   YZ=              0.0568
 Traceless Quadrupole moment (field-independent basis, Debye-Ang):
   XX=              0.1668   YY=              0.8555   ZZ=             -1.0223
   XY=              0.0000   XZ=              0.0000   YZ=              0.0568
 Octapole moment (field-independent basis, Debye-Ang**2):
  XXX=             -0.0000  YYY=             -0.4879  ZZZ=            106.0948  XYY=             -0.0000
  XXY=             -0.1638  XXZ=             36.0407  XZZ=             -0.0000  YZZ=             -0.2459
  YYZ=             29.7060  XYZ=             -0.0000
 Hexadecapole moment (field-independent basis, Debye-Ang**3):
 XXXX=            -37.0938 YYYY=           -327.3682 ZZZZ=           -382.8321 XXXY=              0.0000
 XXXZ=             -0.0000 YYYX=              0.0000 YYYZ=              0.6685 ZZZX=              0.0000
 ZZZY=              0.8413 XXYY=            -64.8642 XXZZ=            -71.0449 YYZZ=           -106.5250
 XXYZ=              0.2399 YYXZ=              0.0000 ZZXY=              0.0000
 N-N= 1.921563592682D+02 E-N=-2.838554905919D+03  KE= 1.032437948709D+03
 There are a total of       90730 grid points.
 ElSum from          density=       48.0000000473
 ElSum from atomic densities=       48.0000006079

 Hirshfeld populations at iteration   1 (CX, CA, CB, DipXYZ):
               1          2          3          4          5          6
     1  O    0.000008   4.093459   4.093459  -0.000000  -0.000003  -0.044177
     2  C    0.000001   2.894638   2.894638   0.000000   0.000139  -0.057124
     3  Cl   0.000011   8.504715   8.504715   0.000000  -0.065387  -0.010707
     4  Cl   0.000011   8.507189   8.507189   0.000000   0.064409  -0.009538
       Tot   0.000030  24.000000  24.000000   0.000000  -0.000842  -0.121545

 Dip from Atomic Chgs              0.000000  -0.013707  -0.372257
         Total Dipole              0.000000  -0.014549  -0.493803

 Hirshfeld charges, spin densities, dipoles, and CM5 charges using IRadAn=      5:
              Q-H        S-H        Dx         Dy         Dz        Q-CM5   
     1  O   -0.186917   0.000000  -0.000000  -0.000003  -0.044177  -0.233249
     2  C    0.210724   0.000000   0.000000   0.000139  -0.057124   0.249843
     3  Cl  -0.009429   0.000000   0.000000  -0.065387  -0.010707  -0.005798
     4  Cl  -0.014377   0.000000   0.000000   0.064409  -0.009538  -0.010796
       Tot  -0.000000   0.000000   0.000000  -0.000842  -0.121545  -0.000000
 Hirshfeld charges with hydrogens summed into heavy atoms:
              Q-H       Q-CM5   
     1  O   -0.186917  -0.233249
     2  C    0.210724   0.249843
     3  Cl  -0.009429  -0.005798
     4  Cl  -0.014377  -0.010796
 
 EQQ= 0.000000000000E+00 EQD= 0.000000000000E+00 EDD= 0.243436214470E-03
 EQQ+QD+DD= 0.243436214470E-03
 
 Breneman (CHELPG) radii used.
 Generate Potential Derived Charges using the Breneman model, NDens= 1.
 Grid spacing= 0.300 Box extension= 2.800
 NStep X,Y,Z=   20     30     26   Total possible points=       15600
 Number of Points to Fit=    4524

 **********************************************************************

            Electrostatic Properties Using The CC Density.

 **********************************************************************

       Atomic Center    1 is at   0.000000  0.000000  0.683397
       Atomic Center    2 is at   0.000000  0.000000 -0.494687
       Atomic Center    3 is at   0.000000 -1.436870 -1.469805
       Atomic Center    4 is at   0.000000  1.446870 -1.469805
    4524 points will be used for fitting atomic charges
 Fitting point charges to electrostatic potential
 The dipole moment will be constrained to the correct value
 Charges from ESP fit, RMS=   0.00563 RRMS=   0.49506:
 ESP charges:
               1
     1  O   -0.330792
     2  C    0.462460
     3  Cl  -0.063392
     4  Cl  -0.068275
 Sum of ESP charges =   0.00000
 ESP charges with hydrogens summed into heavy atoms:
               1
     1  O   -0.330792
     2  C    0.462460
     3  Cl  -0.063392
     4  Cl  -0.068275
 Charge=   0.00000 Dipole=     0.0000    -0.0370    -1.2551 Tot=     1.2557
 -----------------------------------------------------------------

              Electrostatic Properties (Atomic Units)

 -----------------------------------------------------------------
    Center     Electric         -------- Electric Field --------
               Potential          X             Y             Z
 -----------------------------------------------------------------
    1 Atom    -22.285245
    2 Atom    -14.537277
    3 Atom    -64.373977
    4 Atom    -64.375232
 -----------------------------------------------------------------
 ******************************Gaussian NBO Version 3.1******************************
             N A T U R A L   A T O M I C   O R B I T A L   A N D
          N A T U R A L   B O N D   O R B I T A L   A N A L Y S I S
 ******************************Gaussian NBO Version 3.1******************************
       /RESON  / : Allow strongly delocalized NBO set

 Analyzing the QCI/CC density

 Job title: cl2co-wavefunction                                              

 Storage needed:    111522 in NPA (2147483536 available)
 GSVD:  LWork=        6614 too small for GESVD, short by       52797 words or       52797 for optimal perf.


 NATURAL POPULATIONS:  Natural atomic orbital occupancies 
                                                          
   NAO  Atom  No  lang   Type(AO)    Occupancy
 --------------------------------------------
     1    O    1  S      Cor( 1S)     1.99951
     2    O    1  S      Val( 2S)     1.67984
     3    O    1  S      Ryd( 3S)     0.00630
     4    O    1  S      Ryd( 4S)     0.00039
     5    O    1  S      Ryd( 5S)     0.00029
     6    O    1  px     Val( 2p)     1.35821
     7    O    1  px     Ryd( 3p)     0.00705
     8    O    1  px     Ryd( 4p)     0.00050
     9    O    1  px     Ryd( 5p)     0.00007
    10    O    1  py     Val( 2p)     1.74441
    11    O    1  py     Ryd( 3p)     0.01325
    12    O    1  py     Ryd( 4p)     0.00065
    13    O    1  py     Ryd( 5p)     0.00014
    14    O    1  pz     Val( 2p)     1.58037
    15    O    1  pz     Ryd( 3p)     0.00648
    16    O    1  pz     Ryd( 4p)     0.00050
    17    O    1  pz     Ryd( 5p)     0.00011
    18    O    1  dxy    Ryd( 3d)     0.00545
    19    O    1  dxy    Ryd( 4d)     0.00037
    20    O    1  dxy    Ryd( 5d)     0.00009
    21    O    1  dxz    Ryd( 3d)     0.01154
    22    O    1  dxz    Ryd( 4d)     0.00031
    23    O    1  dxz    Ryd( 5d)     0.00010
    24    O    1  dyz    Ryd( 3d)     0.01191
    25    O    1  dyz    Ryd( 4d)     0.00046
    26    O    1  dyz    Ryd( 5d)     0.00013
    27    O    1  dx2y2  Ryd( 3d)     0.00537
    28    O    1  dx2y2  Ryd( 4d)     0.00037
    29    O    1  dx2y2  Ryd( 5d)     0.00009
    30    O    1  dz2    Ryd( 3d)     0.02060
    31    O    1  dz2    Ryd( 4d)     0.00043
    32    O    1  dz2    Ryd( 5d)     0.00021
    33    O    1  f(0)   Ryd( 4f)     0.00132
    34    O    1  f(0)   Ryd( 5f)     0.00013
    35    O    1  f(C1)  Ryd( 4f)     0.00066
    36    O    1  f(C1)  Ryd( 5f)     0.00010
    37    O    1  f(S1)  Ryd( 4f)     0.00079
    38    O    1  f(S1)  Ryd( 5f)     0.00013
    39    O    1  f(C2)  Ryd( 4f)     0.00046
    40    O    1  f(C2)  Ryd( 5f)     0.00009
    41    O    1  f(S2)  Ryd( 4f)     0.00047
    42    O    1  f(S2)  Ryd( 5f)     0.00009
    43    O    1  f(C3)  Ryd( 4f)     0.00044
    44    O    1  f(C3)  Ryd( 5f)     0.00006
    45    O    1  f(S3)  Ryd( 4f)     0.00045
    46    O    1  f(S3)  Ryd( 5f)     0.00007

    47    C    2  S      Cor( 1S)     1.99941
    48    C    2  S      Val( 2S)     0.94449
    49    C    2  S      Ryd( 3S)     0.00952
    50    C    2  S      Ryd( 4S)     0.00017
    51    C    2  S      Ryd( 5S)     0.00010
    52    C    2  px     Val( 2p)     0.80731
    53    C    2  px     Ryd( 3p)     0.00760
    54    C    2  px     Ryd( 4p)     0.00059
    55    C    2  px     Ryd( 5p)     0.00018
    56    C    2  py     Val( 2p)     0.90214
    57    C    2  py     Ryd( 3p)     0.01092
    58    C    2  py     Ryd( 4p)     0.00067
    59    C    2  py     Ryd( 5p)     0.00038
    60    C    2  pz     Val( 2p)     0.80816
    61    C    2  pz     Ryd( 3p)     0.02824
    62    C    2  pz     Ryd( 5p)     0.00032
    63    C    2  pz     Ryd( 4p)     0.00057
    64    C    2  dxy    Ryd( 3d)     0.00877
    65    C    2  dxy    Ryd( 4d)     0.00030
    66    C    2  dxy    Ryd( 5d)     0.00014
    67    C    2  dxz    Ryd( 3d)     0.00832
    68    C    2  dxz    Ryd( 4d)     0.00069
    69    C    2  dxz    Ryd( 5d)     0.00027
    70    C    2  dyz    Ryd( 3d)     0.01139
    71    C    2  dyz    Ryd( 4d)     0.00085
    72    C    2  dyz    Ryd( 5d)     0.00023
    73    C    2  dx2y2  Ryd( 3d)     0.00614
    74    C    2  dx2y2  Ryd( 5d)     0.00024
    75    C    2  dx2y2  Ryd( 4d)     0.00027
    76    C    2  dz2    Ryd( 3d)     0.00687
    77    C    2  dz2    Ryd( 4d)     0.00046
    78    C    2  dz2    Ryd( 5d)     0.00025
    79    C    2  f(0)   Ryd( 4f)     0.00282
    80    C    2  f(0)   Ryd( 5f)     0.00036
    81    C    2  f(C1)  Ryd( 4f)     0.00183
    82    C    2  f(C1)  Ryd( 5f)     0.00041
    83    C    2  f(S1)  Ryd( 4f)     0.00306
    84    C    2  f(S1)  Ryd( 5f)     0.00057
    85    C    2  f(C2)  Ryd( 4f)     0.00184
    86    C    2  f(C2)  Ryd( 5f)     0.00023
    87    C    2  f(S2)  Ryd( 4f)     0.00173
    88    C    2  f(S2)  Ryd( 5f)     0.00026
    89    C    2  f(C3)  Ryd( 4f)     0.00144
    90    C    2  f(C3)  Ryd( 5f)     0.00021
    91    C    2  f(S3)  Ryd( 4f)     0.00151
    92    C    2  f(S3)  Ryd( 5f)     0.00018

    93   Cl    3  S      Cor( 1S)     2.00000
    94   Cl    3  S      Cor( 2S)     1.99938
    95   Cl    3  S      Val( 3S)     1.83999
    96   Cl    3  S      Ryd( 4S)     0.00534
    97   Cl    3  S      Ryd( 5S)     0.00031
    98   Cl    3  S      Ryd( 6S)     0.00022
    99   Cl    3  px     Cor( 2p)     2.00002
   100   Cl    3  px     Val( 3p)     1.84891
   101   Cl    3  px     Ryd( 4p)     0.00796
   102   Cl    3  px     Ryd( 5p)     0.00046
   103   Cl    3  px     Ryd( 6p)     0.00007
   104   Cl    3  py     Cor( 2p)     1.99994
   105   Cl    3  py     Val( 3p)     1.43611
   106   Cl    3  py     Ryd( 4p)     0.00610
   107   Cl    3  py     Ryd( 5p)     0.00050
   108   Cl    3  py     Ryd( 6p)     0.00006
   109   Cl    3  pz     Cor( 2p)     1.99999
   110   Cl    3  pz     Val( 3p)     1.71080
   111   Cl    3  pz     Ryd( 4p)     0.00716
   112   Cl    3  pz     Ryd( 5p)     0.00046
   113   Cl    3  pz     Ryd( 6p)     0.00010
   114   Cl    3  dxy    Ryd( 3d)     0.01820
   115   Cl    3  dxy    Ryd( 4d)     0.00051
   116   Cl    3  dxy    Ryd( 5d)     0.00012
   117   Cl    3  dxz    Ryd( 3d)     0.01839
   118   Cl    3  dxz    Ryd( 4d)     0.00061
   119   Cl    3  dxz    Ryd( 5d)     0.00013
   120   Cl    3  dyz    Ryd( 3d)     0.02354
   121   Cl    3  dyz    Ryd( 4d)     0.00047
   122   Cl    3  dyz    Ryd( 5d)     0.00012
   123   Cl    3  dx2y2  Ryd( 3d)     0.02011
   124   Cl    3  dx2y2  Ryd( 4d)     0.00051
   125   Cl    3  dx2y2  Ryd( 5d)     0.00012
   126   Cl    3  dz2    Ryd( 3d)     0.01713
   127   Cl    3  dz2    Ryd( 4d)     0.00052
   128   Cl    3  dz2    Ryd( 5d)     0.00018
   129   Cl    3  f(0)   Ryd( 4f)     0.00132
   130   Cl    3  f(0)   Ryd( 5f)     0.00013
   131   Cl    3  f(C1)  Ryd( 4f)     0.00132
   132   Cl    3  f(C1)  Ryd( 5f)     0.00012
   133   Cl    3  f(S1)  Ryd( 4f)     0.00129
   134   Cl    3  f(S1)  Ryd( 5f)     0.00017
   135   Cl    3  f(C2)  Ryd( 4f)     0.00157
   136   Cl    3  f(C2)  Ryd( 5f)     0.00013
   137   Cl    3  f(S2)  Ryd( 4f)     0.00132
   138   Cl    3  f(S2)  Ryd( 5f)     0.00014
   139   Cl    3  f(C3)  Ryd( 4f)     0.00130
   140   Cl    3  f(C3)  Ryd( 5f)     0.00013
   141   Cl    3  f(S3)  Ryd( 4f)     0.00134
   142   Cl    3  f(S3)  Ryd( 5f)     0.00013

   143   Cl    4  S      Cor( 1S)     2.00000
   144   Cl    4  S      Cor( 2S)     1.99940
   145   Cl    4  S      Val( 3S)     1.84270
   146   Cl    4  S      Ryd( 4S)     0.00533
   147   Cl    4  S      Ryd( 5S)     0.00031
   148   Cl    4  S      Ryd( 6S)     0.00021
   149   Cl    4  px     Cor( 2p)     2.00003
   150   Cl    4  px     Val( 3p)     1.85126
   151   Cl    4  px     Ryd( 4p)     0.00800
   152   Cl    4  px     Ryd( 5p)     0.00046
   153   Cl    4  px     Ryd( 6p)     0.00007
   154   Cl    4  py     Cor( 2p)     1.99994
   155   Cl    4  py     Val( 3p)     1.43554
   156   Cl    4  py     Ryd( 4p)     0.00610
   157   Cl    4  py     Ryd( 5p)     0.00050
   158   Cl    4  py     Ryd( 6p)     0.00006
   159   Cl    4  pz     Cor( 2p)     1.99999
   160   Cl    4  pz     Val( 3p)     1.71337
   161   Cl    4  pz     Ryd( 4p)     0.00718
   162   Cl    4  pz     Ryd( 5p)     0.00046
   163   Cl    4  pz     Ryd( 6p)     0.00010
   164   Cl    4  dxy    Ryd( 3d)     0.01817
   165   Cl    4  dxy    Ryd( 4d)     0.00052
   166   Cl    4  dxy    Ryd( 5d)     0.00012
   167   Cl    4  dxz    Ryd( 3d)     0.01839
   168   Cl    4  dxz    Ryd( 4d)     0.00061
   169   Cl    4  dxz    Ryd( 5d)     0.00013
   170   Cl    4  dyz    Ryd( 3d)     0.02338
   171   Cl    4  dyz    Ryd( 4d)     0.00047
   172   Cl    4  dyz    Ryd( 5d)     0.00012
   173   Cl    4  dx2y2  Ryd( 3d)     0.02009
   174   Cl    4  dx2y2  Ryd( 4d)     0.00052
   175   Cl    4  dx2y2  Ryd( 5d)     0.00012
   176   Cl    4  dz2    Ryd( 3d)     0.01714
   177   Cl    4  dz2    Ryd( 4d)     0.00052
   178   Cl    4  dz2    Ryd( 5d)     0.00017
   179   Cl    4  f(0)   Ryd( 4f)     0.00132
   180   Cl    4  f(0)   Ryd( 5f)     0.00013
   181   Cl    4  f(C1)  Ryd( 4f)     0.00132
   182   Cl    4  f(C1)  Ryd( 5f)     0.00012
   183   Cl    4  f(S1)  Ryd( 4f)     0.00129
   184   Cl    4  f(S1)  Ryd( 5f)     0.00017
   185   Cl    4  f(C2)  Ryd( 4f)     0.00156
   186   Cl    4  f(C2)  Ryd( 5f)     0.00013
   187   Cl    4  f(S2)  Ryd( 4f)     0.00132
   188   Cl    4  f(S2)  Ryd( 5f)     0.00014
   189   Cl    4  f(C3)  Ryd( 4f)     0.00130
   190   Cl    4  f(C3)  Ryd( 5f)     0.00013
   191   Cl    4  f(S3)  Ryd( 4f)     0.00134
   192   Cl    4  f(S3)  Ryd( 5f)     0.00013


 Summary of Natural Population Analysis:                  
                                                          
                                       Natural Population 
                Natural  -----------------------------------------------
    Atom  No    Charge         Core      Valence    Rydberg      Total
 -----------------------------------------------------------------------
      O    1   -0.46074      1.99951     6.36283    0.09841     8.46074
      C    2    0.41757      1.99941     3.46211    0.12092     5.58243
     Cl    3    0.02505      9.99933     6.83581    0.13981    16.97495
     Cl    4    0.01813      9.99935     6.84287    0.13965    16.98187
 =======================================================================
   * Total *    0.00000     23.99761    23.50361    0.49878    48.00000

                                 Natural Population      
 --------------------------------------------------------
   Core                      23.99761 ( 99.9900% of  24)
   Valence                   23.50361 ( 97.9317% of  24)
   Natural Minimal Basis     47.50122 ( 98.9609% of  48)
   Natural Rydberg Basis      0.49878 (  1.0391% of  48)
 --------------------------------------------------------

    Atom  No          Natural Electron Configuration
 ----------------------------------------------------------------------------
      O    1      [core]2S( 1.68)2p( 4.68)3S( 0.01)3p( 0.03)3d( 0.05)
      C    2      [core]2S( 0.94)2p( 2.52)3S( 0.01)3p( 0.05)3d( 0.04)4f( 0.01)
     Cl    3      [core]3S( 1.84)3p( 5.00)4S( 0.01)3d( 0.10)4p( 0.02)4f( 0.01)
     Cl    4      [core]3S( 1.84)3p( 5.00)4S( 0.01)3d( 0.10)4p( 0.02)4f( 0.01)


 NBO analysis skipped by request.
 Unable to Open any file for archive entry.
 1\1\GINC-TRAPISTA\SP\RQCISD-FC\Aug-CC-pVTZ\C1Cl2O1\WAGNER\04-Sep-2022\
 0\\# qcisd/aug-cc-pvtz nosymm density=current pop=(chelpg,hirshfeld,np
 a,dipole)\\cl2co-wavefunction\\0,1\O,0,0.,0.,0.683397\C,0,0.,0.,-0.494
 687\Cl,0,0.,-1.43687,-1.469805\Cl,0,0.,1.44687,-1.469805\\Version=EM64
 L-G16RevC.01\HF=-1031.8028105\MP2=-1032.5821485\MP3=-1032.6011984\MP4D
 =-1032.6208277\MP4DQ=-1032.5983381\MP4SDQ=-1032.6072917\QCISD=-1032.60
 55669\RMSD=6.721e-09\Dipole=0.,-0.0145488,-0.4938036\Quadrupole=0.1240
 081,0.6360419,-0.76005,0.,0.,0.0422594\PG=CS [SG(C1Cl2O1)]\\@
 The archive entry for this job was punched.


 IT WAS AN ACT OF DESPARATION. FOR SIX YEARS I HAD STRUGGLED WITH THE
 BLACKBODY THEORY. I KNEW THE PROBLEM WAS FUNDAMENTAL, AND I KNEW
 THE ANSWER. I HAD TO FIND A THEORETICAL EXPLANATION AT ANY COST,
 EXCEPT FOR THE INVIOLABLITY OF THE TWO LAWS OF THERMODYNAMICS.
   -- MAX PLANCK, 1931
 Job cpu time:       0 days  7 hours  6 minutes 21.3 seconds.
 Elapsed time:       0 days  0 hours 27 minutes  2.6 seconds.
 File lengths (MBytes):  RWF=  22679 Int=      0 D2E=      0 Chk=      4 Scr=      1
 Normal termination of Gaussian 16 at Sun Sep  4 02:17:30 2022.
