 Entering Gaussian System, Link 0=/home/wagner/chemistry/gaussian/g16/g16
 Input=GAUSSIAN.com
 Output=GAUSSIAN.log
 Initial command:
 /home/wagner/chemistry/gaussian/g16/l1.exe "/home/wagner/chemistry/gaussian/work/Gau-29284.inp" -scrdir="/home/wagner/chemistry/gaussian/work/"
 Entering Link 1 = /home/wagner/chemistry/gaussian/g16/l1.exe PID=     29286.
  
 Copyright (c) 1988-2019, Gaussian, Inc.  All Rights Reserved.
  
 This is part of the Gaussian(R) 16 program.  It is based on
 the Gaussian(R) 09 system (copyright 2009, Gaussian, Inc.),
 the Gaussian(R) 03 system (copyright 2003, Gaussian, Inc.),
 the Gaussian(R) 98 system (copyright 1998, Gaussian, Inc.),
 the Gaussian(R) 94 system (copyright 1995, Gaussian, Inc.),
 the Gaussian 92(TM) system (copyright 1992, Gaussian, Inc.),
 the Gaussian 90(TM) system (copyright 1990, Gaussian, Inc.),
 the Gaussian 88(TM) system (copyright 1988, Gaussian, Inc.),
 the Gaussian 86(TM) system (copyright 1986, Carnegie Mellon
 University), and the Gaussian 82(TM) system (copyright 1983,
 Carnegie Mellon University). Gaussian is a federally registered
 trademark of Gaussian, Inc.
  
 This software contains proprietary and confidential information,
 including trade secrets, belonging to Gaussian, Inc.
  
 This software is provided under written license and may be
 used, copied, transmitted, or stored only in accord with that
 written license.
  
 The following legend is applicable only to US Government
 contracts under FAR:
  
                    RESTRICTED RIGHTS LEGEND
  
 Use, reproduction and disclosure by the US Government is
 subject to restrictions as set forth in subparagraphs (a)
 and (c) of the Commercial Computer Software - Restricted
 Rights clause in FAR 52.227-19.
  
 Gaussian, Inc.
 340 Quinnipiac St., Bldg. 40, Wallingford CT 06492
  
  
 ---------------------------------------------------------------
 Warning -- This program may not be used in any manner that
 competes with the business of Gaussian, Inc. or will provide
 assistance to any competitor of Gaussian, Inc.  The licensee
 of this program is prohibited from giving any competitor of
 Gaussian, Inc. access to this program.  By using this program,
 the user acknowledges that Gaussian, Inc. is engaged in the
 business of creating and licensing software in the field of
 computational chemistry and represents and warrants to the
 licensee that it is not a competitor of Gaussian, Inc. and that
 it will not use this program in any manner prohibited above.
 ---------------------------------------------------------------
  

 Cite this work as:
 Gaussian 16, Revision C.01,
 M. J. Frisch, G. W. Trucks, H. B. Schlegel, G. E. Scuseria, 
 M. A. Robb, J. R. Cheeseman, G. Scalmani, V. Barone, 
 G. A. Petersson, H. Nakatsuji, X. Li, M. Caricato, A. V. Marenich, 
 J. Bloino, B. G. Janesko, R. Gomperts, B. Mennucci, H. P. Hratchian, 
 J. V. Ortiz, A. F. Izmaylov, J. L. Sonnenberg, D. Williams-Young, 
 F. Ding, F. Lipparini, F. Egidi, J. Goings, B. Peng, A. Petrone, 
 T. Henderson, D. Ranasinghe, V. G. Zakrzewski, J. Gao, N. Rega, 
 G. Zheng, W. Liang, M. Hada, M. Ehara, K. Toyota, R. Fukuda, 
 J. Hasegawa, M. Ishida, T. Nakajima, Y. Honda, O. Kitao, H. Nakai, 
 T. Vreven, K. Throssell, J. A. Montgomery, Jr., J. E. Peralta, 
 F. Ogliaro, M. J. Bearpark, J. J. Heyd, E. N. Brothers, K. N. Kudin, 
 V. N. Staroverov, T. A. Keith, R. Kobayashi, J. Normand, 
 K. Raghavachari, A. P. Rendell, J. C. Burant, S. S. Iyengar, 
 J. Tomasi, M. Cossi, J. M. Millam, M. Klene, C. Adamo, R. Cammi, 
 J. W. Ochterski, R. L. Martin, K. Morokuma, O. Farkas, 
 J. B. Foresman, and D. J. Fox, Gaussian, Inc., Wallingford CT, 2019.
 
 ******************************************
 Gaussian 16:  EM64L-G16RevC.01  3-Jul-2019
                 3-Sep-2022 
 ******************************************
 %nproc=16
 Will use up to   16 processors via shared memory.
 %mem=16GB
 ----------------------------------------------------------------------
 # qcisd/aug-cc-pvtz nosymm density=current pop=(chelpg,hirshfeld,npa,d
 ipole)
 ----------------------------------------------------------------------
 1/30=1,38=1,172=1/1;
 2/12=2,15=1,17=6,18=5,40=1/2;
 3/5=16,6=1,7=10,11=9,25=1,30=1,71=1/1,2,3;
 4//1;
 5/5=2,38=5/2;
 8/6=4,9=120000,10=1/1,4;
 9/5=8,15=1/13;
 11/28=-7,31=1,32=3,42=3/11;
 10/5=6,13=10,31=1/2;
 6/7=2,8=2,9=2,10=2,15=24,20=3,22=-1,40=-1,79=1/1,2,7;
 99/5=1,9=1/99;
 ------------------
 cl2co-wavefunction
 ------------------
 Symbolic Z-matrix:
 Charge =  0 Multiplicity = 1
 O                     0.        0.        0.6734 
 C                     0.        0.       -0.49469 
 Cl                    0.       -1.44687  -1.46981 
 Cl                    0.        1.44687  -1.46981 
 
                          Input orientation:                          
 ---------------------------------------------------------------------
 Center     Atomic      Atomic             Coordinates (Angstroms)
 Number     Number       Type             X           Y           Z
 ---------------------------------------------------------------------
      1          8           0        0.000000    0.000000    0.673397
      2          6           0        0.000000    0.000000   -0.494687
      3         17           0        0.000000   -1.446870   -1.469805
      4         17           0        0.000000    1.446870   -1.469805
 ---------------------------------------------------------------------
                    Distance matrix (angstroms):
                    1          2          3          4
     1  O    0.000000
     2  C    1.168084   0.000000
     3  Cl   2.585875   1.744789   0.000000
     4  Cl   2.585875   1.744789   2.893740   0.000000
 Symmetry turned off by external request.
 Stoichiometry    CCl2O
 Framework group  C2V[C2(CO),SGV(Cl2)]
 Deg. of freedom     3
 Full point group                 C2V     NOp   4
 Rotational constants (GHZ):           7.9850830           3.4518093           2.4100064
 Standard basis: Aug-CC-pVTZ (5D, 7F)
   192 basis functions,   372 primitive gaussians,   228 cartesian basis functions
    24 alpha electrons       24 beta electrons
       nuclear repulsion energy       192.1284408003 Hartrees.
 NAtoms=    4 NActive=    4 NUniq=    4 SFac= 1.00D+00 NAtFMM=   60 NAOKFM=F Big=F
 Integral buffers will be    131072 words long.
 Raffenetti 1 integral format.
 Two-electron integral symmetry is turned off.
 One-electron integrals computed using PRISM.
 NBasis=   192 RedAO= T EigKep=  1.43D-04  NBF=   192
 NBsUse=   192 1.00D-06 EigRej= -1.00D+00 NBFU=   192
 ExpMin= 3.57D-02 ExpMax= 4.56D+05 ExpMxC= 1.44D+03 IAcc=3 IRadAn=         5 AccDes= 0.00D+00
 Harris functional with IExCor=  205 and IRadAn=       5 diagonalized for initial guess.
 HarFok:  IExCor=  205 AccDes= 0.00D+00 IRadAn=         5 IDoV= 1 UseB2=F ITyADJ=14
 ICtDFT=  3500011 ScaDFX=  1.000000  1.000000  1.000000  1.000000
 FoFCou: FMM=F IPFlag=           0 FMFlag=      100000 FMFlg1=           0
         NFxFlg=           0 DoJE=T BraDBF=F KetDBF=T FulRan=T
         wScrn=  0.000000 ICntrl=       500 IOpCl=  0 I1Cent=   200000004 NGrid=           0
         NMat0=    1 NMatS0=      1 NMatT0=    0 NMatD0=    1 NMtDS0=    0 NMtDT0=    0
 Symmetry not used in FoFCou.
 Keep R1 ints in memory in canonical form, NReq=179712467.
 Requested convergence on RMS density matrix=1.00D-08 within 128 cycles.
 Requested convergence on MAX density matrix=1.00D-06.
 Requested convergence on             energy=1.00D-06.
 No special actions if energy rises.
 SCF Done:  E(RHF) =  -1031.80359195     A.U. after   12 cycles
            NFock= 12  Conv=0.63D-08     -V/T= 2.0002
 ExpMin= 3.57D-02 ExpMax= 4.56D+05 ExpMxC= 1.44D+03 IAcc=3 IRadAn=         5 AccDes= 0.00D+00
 HarFok:  IExCor=  205 AccDes= 0.00D+00 IRadAn=         5 IDoV=-2 UseB2=F ITyADJ=14
 ICtDFT= 12500011 ScaDFX=  1.000000  1.000000  1.000000  1.000000
 Range of M.O.s used for correlation:    13   192
 NBasis=   192 NAE=    24 NBE=    24 NFC=    12 NFV=     0
 NROrb=    180 NOA=    12 NOB=    12 NVA=   168 NVB=   168

 **** Warning!!: The largest alpha MO coefficient is  0.27818629D+02

 Semi-Direct transformation.
 ModeAB=           2 MOrb=            12 LenV=    2146443341
 LASXX=     33405819 LTotXX=    33405819 LenRXX=    33405819
 LTotAB=    33954012 MaxLAS=    56388960 LenRXY=    56388960
 NonZer=    66811638 LenScr=   100987392 LnRSAI=           0
 LnScr1=           0 LExtra=           0 Total=    190782171
 MaxDsk=          -1 SrtSym=           F ITran=            4
 JobTyp=0 Pass  1:  I=   1 to  12.
 (rs|ai) integrals will be sorted in core.
 Spin components of T(2) and E(2):
     alpha-alpha T2 =       0.3507340136D-01 E2=     -0.1016390877D+00
     alpha-beta  T2 =       0.1825651660D+00 E2=     -0.5748753161D+00
     beta-beta   T2 =       0.3507340136D-01 E2=     -0.1016390877D+00
 ANorm=    0.1119246161D+01
 E2 =    -0.7781534916D+00 EUMP2 =    -0.10325817454435D+04
 Keep R2 and R3 ints in memory in canonical form, NReq=351373945.
 CIDS: In Core Option IDoMem=           1.
 Iterations=  50 Convergence= 0.100D-07
 Produce multiple copies of IABC intergrals
 Iteration Nr.   1
 **********************
 DD1Dir will call FoFMem   1 times, MxPair=       156
 NAB=    78 NAA=     0 NBB=     0.
 MP4(R+Q)=  0.22415086D-01
 E3=       -0.19573589D-01        EUMP3=      -0.10326013190D+04
 E4(DQ)=    0.29878833D-02        UMP4(DQ)=   -0.10325983311D+04
 E4(SDQ)=  -0.57950880D-02        UMP4(SDQ)=  -0.10326071141D+04
 DE(Corr)= -0.77531199     E(Corr)=     -1032.5789039    
 NORM(A)=   0.11209727D+01
 Iteration Nr.   2
 **********************
 DD1Dir will call FoFMem   1 times, MxPair=       156
 NAB=    78 NAA=     0 NBB=     0.
 DE(Corr)= -0.80059818     E(CORR)=     -1032.6041901     Delta=-2.53D-02
 NORM(A)=   0.11302096D+01
 Iteration Nr.   3
 **********************
 DD1Dir will call FoFMem   1 times, MxPair=       156
 NAB=    78 NAA=     0 NBB=     0.
 DE(Corr)= -0.79911265     E(CORR)=     -1032.6027046     Delta= 1.49D-03
 NORM(A)=   0.11327301D+01
 Iteration Nr.   4
 **********************
 DD1Dir will call FoFMem   1 times, MxPair=       156
 NAB=    78 NAA=     0 NBB=     0.
 DE(Corr)= -0.80147907     E(CORR)=     -1032.6050710     Delta=-2.37D-03
 NORM(A)=   0.11337019D+01
 Iteration Nr.   5
 **********************
 DD1Dir will call FoFMem   1 times, MxPair=       156
 NAB=    78 NAA=     0 NBB=     0.
 DE(Corr)= -0.80178297     E(CORR)=     -1032.6053749     Delta=-3.04D-04
 NORM(A)=   0.11340743D+01
 Iteration Nr.   6
 **********************
 DD1Dir will call FoFMem   1 times, MxPair=       156
 NAB=    78 NAA=     0 NBB=     0.
 DE(Corr)= -0.80183137     E(CORR)=     -1032.6054233     Delta=-4.84D-05
 NORM(A)=   0.11341414D+01
 Iteration Nr.   7
 **********************
 DD1Dir will call FoFMem   1 times, MxPair=       156
 NAB=    78 NAA=     0 NBB=     0.
 DE(Corr)= -0.80184005     E(CORR)=     -1032.6054320     Delta=-8.68D-06
 NORM(A)=   0.11341431D+01
 Iteration Nr.   8
 **********************
 DD1Dir will call FoFMem   1 times, MxPair=       156
 NAB=    78 NAA=     0 NBB=     0.
 DE(Corr)= -0.80183930     E(CORR)=     -1032.6054313     Delta= 7.44D-07
 NORM(A)=   0.11341509D+01
 Iteration Nr.   9
 **********************
 DD1Dir will call FoFMem   1 times, MxPair=       156
 NAB=    78 NAA=     0 NBB=     0.
 DE(Corr)= -0.80183839     E(CORR)=     -1032.6054303     Delta= 9.12D-07
 NORM(A)=   0.11341507D+01
 Iteration Nr.  10
 **********************
 DD1Dir will call FoFMem   1 times, MxPair=       156
 NAB=    78 NAA=     0 NBB=     0.
 DE(Corr)= -0.80183942     E(CORR)=     -1032.6054314     Delta=-1.03D-06
 NORM(A)=   0.11341522D+01
 Iteration Nr.  11
 **********************
 DD1Dir will call FoFMem   1 times, MxPair=       156
 NAB=    78 NAA=     0 NBB=     0.
 DE(Corr)= -0.80184029     E(CORR)=     -1032.6054322     Delta=-8.72D-07
 NORM(A)=   0.11341533D+01
 Iteration Nr.  12
 **********************
 DD1Dir will call FoFMem   1 times, MxPair=       156
 NAB=    78 NAA=     0 NBB=     0.
 DE(Corr)= -0.80184050     E(CORR)=     -1032.6054324     Delta=-2.06D-07
 NORM(A)=   0.11341540D+01
 Iteration Nr.  13
 **********************
 DD1Dir will call FoFMem   1 times, MxPair=       156
 NAB=    78 NAA=     0 NBB=     0.
 DE(Corr)= -0.80184081     E(CORR)=     -1032.6054328     Delta=-3.12D-07
 NORM(A)=   0.11341544D+01
 Iteration Nr.  14
 **********************
 DD1Dir will call FoFMem   1 times, MxPair=       156
 NAB=    78 NAA=     0 NBB=     0.
 DE(Corr)= -0.80184087     E(CORR)=     -1032.6054328     Delta=-6.05D-08
 NORM(A)=   0.11341545D+01
 Iteration Nr.  15
 **********************
 DD1Dir will call FoFMem   1 times, MxPair=       156
 NAB=    78 NAA=     0 NBB=     0.
 DE(Corr)= -0.80184091     E(CORR)=     -1032.6054329     Delta=-4.27D-08
 NORM(A)=   0.11341546D+01
 Iteration Nr.  16
 **********************
 DD1Dir will call FoFMem   1 times, MxPair=       156
 NAB=    78 NAA=     0 NBB=     0.
 DE(Corr)= -0.80184093     E(CORR)=     -1032.6054329     Delta=-1.62D-08
 NORM(A)=   0.11341546D+01
 Iteration Nr.  17
 **********************
 DD1Dir will call FoFMem   1 times, MxPair=       156
 NAB=    78 NAA=     0 NBB=     0.
 DE(Corr)= -0.80184093     E(CORR)=     -1032.6054329     Delta= 2.41D-09
 NORM(A)=   0.11341546D+01
 Wavefunction amplitudes converged. E(Corr)=     -1032.6054329    
 Largest amplitude= 4.26D-02

 Z-amplitude iterations

 Iteration Nr.   1
 **********************
 DD1Dir will call FoFMem   1 times, MxPair=       156
 NAB=    78 NAA=     0 NBB=     0.
 DE(Z)= -0.77399136     E(Z)=     -1032.5775833     Delta= 2.78D-02
 NORM(A)=   0.11341609D+01
 Iteration Nr.   2
 **********************
 DD1Dir will call FoFMem   1 times, MxPair=       156
 NAB=    78 NAA=     0 NBB=     0.
 DE(Z)= -0.77399158     E(Z)=     -1032.5775835     Delta=-2.17D-07
 NORM(A)=   0.11341570D+01
 Iteration Nr.   3
 **********************
 DD1Dir will call FoFMem   1 times, MxPair=       156
 NAB=    78 NAA=     0 NBB=     0.
 DE(Z)= -0.77399143     E(Z)=     -1032.5775834     Delta= 1.41D-07
 NORM(A)=   0.11341550D+01
 Iteration Nr.   4
 **********************
 DD1Dir will call FoFMem   1 times, MxPair=       156
 NAB=    78 NAA=     0 NBB=     0.
 DE(Z)= -0.77399137     E(Z)=     -1032.5775833     Delta= 6.21D-08
 NORM(A)=   0.11341545D+01
 Iteration Nr.   5
 **********************
 DD1Dir will call FoFMem   1 times, MxPair=       156
 NAB=    78 NAA=     0 NBB=     0.
 DE(Z)= -0.77399136     E(Z)=     -1032.5775833     Delta= 1.63D-08
 NORM(A)=   0.11246019D+01
 Iteration Nr.   6
 **********************
 DD1Dir will call FoFMem   1 times, MxPair=       156
 NAB=    78 NAA=     0 NBB=     0.
 DE(Z)= -0.77366624     E(Z)=     -1032.5772582     Delta= 3.25D-04
 NORM(A)=   0.11245741D+01
 Iteration Nr.   7
 **********************
 DD1Dir will call FoFMem   1 times, MxPair=       156
 NAB=    78 NAA=     0 NBB=     0.
 DE(Z)= -0.77365052     E(Z)=     -1032.5772425     Delta= 1.57D-05
 NORM(A)=   0.11245831D+01
 Iteration Nr.   8
 **********************
 DD1Dir will call FoFMem   1 times, MxPair=       156
 NAB=    78 NAA=     0 NBB=     0.
 DE(Z)= -0.77366284     E(Z)=     -1032.5772548     Delta=-1.23D-05
 NORM(A)=   0.11245772D+01
 Iteration Nr.   9
 **********************
 DD1Dir will call FoFMem   1 times, MxPair=       156
 NAB=    78 NAA=     0 NBB=     0.
 DE(Z)= -0.77366092     E(Z)=     -1032.5772529     Delta= 1.92D-06
 NORM(A)=   0.11245747D+01
 Iteration Nr.  10
 **********************
 DD1Dir will call FoFMem   1 times, MxPair=       156
 NAB=    78 NAA=     0 NBB=     0.
 DE(Z)= -0.77365990     E(Z)=     -1032.5772518     Delta= 1.02D-06
 NORM(A)=   0.11245744D+01
 Iteration Nr.  11
 **********************
 DD1Dir will call FoFMem   1 times, MxPair=       156
 NAB=    78 NAA=     0 NBB=     0.
 DE(Z)= -0.77366038     E(Z)=     -1032.5772523     Delta=-4.78D-07
 NORM(A)=   0.11245747D+01
 Iteration Nr.  12
 **********************
 DD1Dir will call FoFMem   1 times, MxPair=       156
 NAB=    78 NAA=     0 NBB=     0.
 DE(Z)= -0.77366013     E(Z)=     -1032.5772521     Delta= 2.43D-07
 NORM(A)=   0.11245748D+01
 Iteration Nr.  13
 **********************
 DD1Dir will call FoFMem   1 times, MxPair=       156
 NAB=    78 NAA=     0 NBB=     0.
 DE(Z)= -0.77366026     E(Z)=     -1032.5772522     Delta=-1.30D-07
 NORM(A)=   0.11245749D+01
 Iteration Nr.  14
 **********************
 DD1Dir will call FoFMem   1 times, MxPair=       156
 NAB=    78 NAA=     0 NBB=     0.
 DE(Z)= -0.77366026     E(Z)=     -1032.5772522     Delta=-1.04D-09
 NORM(A)=   0.11245750D+01
 Z-amplitudes converged.
 Discarding MO integrals.
          Differentiating once with respect to electric field.
                with respect to dipole field.
          Electric field/nuclear overlap derivatives assumed to be zero.
 Keep R1 ints in memory in canonical form, NReq=179717514.
          There are     1 degrees of freedom in the 1st order CPHF.  IDoFFX=0 NUNeed=     1.
 LinEq1:  Iter=  0 NonCon=     1 RMS=2.32D-03 Max=6.26D-02 NDo=     1
 AX will form     1 AO Fock derivatives at one time.
 LinEq1:  Iter=  1 NonCon=     1 RMS=8.23D-04 Max=1.92D-02 NDo=     1
 LinEq1:  Iter=  2 NonCon=     1 RMS=3.06D-04 Max=6.26D-03 NDo=     1
 LinEq1:  Iter=  3 NonCon=     1 RMS=1.25D-04 Max=3.58D-03 NDo=     1
 LinEq1:  Iter=  4 NonCon=     1 RMS=4.96D-05 Max=1.21D-03 NDo=     1
 LinEq1:  Iter=  5 NonCon=     1 RMS=1.63D-05 Max=3.87D-04 NDo=     1
 LinEq1:  Iter=  6 NonCon=     1 RMS=4.07D-06 Max=5.83D-05 NDo=     1
 LinEq1:  Iter=  7 NonCon=     1 RMS=9.60D-07 Max=1.10D-05 NDo=     1
 LinEq1:  Iter=  8 NonCon=     1 RMS=2.02D-07 Max=2.95D-06 NDo=     1
 LinEq1:  Iter=  9 NonCon=     1 RMS=4.55D-08 Max=8.12D-07 NDo=     1
 LinEq1:  Iter= 10 NonCon=     1 RMS=1.15D-08 Max=2.11D-07 NDo=     1
 LinEq1:  Iter= 11 NonCon=     1 RMS=2.41D-09 Max=3.66D-08 NDo=     1
 LinEq1:  Iter= 12 NonCon=     1 RMS=4.38D-10 Max=1.10D-08 NDo=     1
 LinEq1:  Iter= 13 NonCon=     1 RMS=7.40D-11 Max=1.17D-09 NDo=     1
 LinEq1:  Iter= 14 NonCon=     0 RMS=1.06D-11 Max=1.21D-10 NDo=     1
 Linear equations converged to 1.000D-10 1.000D-09 after    14 iterations.
 End of Minotr F.D. properties file   721 does not exist.
 End of Minotr F.D. properties file   722 does not exist.
 End of Minotr F.D. properties file   788 does not exist.

 **********************************************************************

            Population analysis using the CC Density.

 **********************************************************************

 Alpha  occ. eigenvalues -- -104.88920-104.88920 -20.62416 -11.47441 -10.61368
 Alpha  occ. eigenvalues --  -10.61367  -8.08046  -8.08045  -8.07834  -8.07834
 Alpha  occ. eigenvalues --   -8.07817  -8.07817  -1.49352  -1.20208  -1.13997
 Alpha  occ. eigenvalues --   -0.81187  -0.71075  -0.70378  -0.65244  -0.53076
 Alpha  occ. eigenvalues --   -0.50109  -0.49978  -0.49466  -0.47650
 Alpha virt. eigenvalues --    0.04798   0.06623   0.07943   0.08678   0.09494
 Alpha virt. eigenvalues --    0.09878   0.11374   0.12509   0.12783   0.13459
 Alpha virt. eigenvalues --    0.15739   0.15899   0.22022   0.22127   0.23629
 Alpha virt. eigenvalues --    0.23918   0.25351   0.26430   0.27940   0.30510
 Alpha virt. eigenvalues --    0.31006   0.31674   0.36419   0.39620   0.43862
 Alpha virt. eigenvalues --    0.44273   0.44287   0.45728   0.47064   0.48439
 Alpha virt. eigenvalues --    0.50759   0.51339   0.52109   0.52391   0.54913
 Alpha virt. eigenvalues --    0.62238   0.64130   0.69342   0.69786   0.71498
 Alpha virt. eigenvalues --    0.71600   0.73789   0.75786   0.79418   0.81472
 Alpha virt. eigenvalues --    0.81593   0.83312   0.83475   0.86988   0.88553
 Alpha virt. eigenvalues --    0.89317   0.91558   0.93426   0.93828   0.94556
 Alpha virt. eigenvalues --    0.96195   0.96854   1.05052   1.06148   1.08905
 Alpha virt. eigenvalues --    1.09916   1.13347   1.15021   1.15981   1.17165
 Alpha virt. eigenvalues --    1.21251   1.23086   1.24342   1.26561   1.33672
 Alpha virt. eigenvalues --    1.37001   1.40173   1.42499   1.46388   1.46772
 Alpha virt. eigenvalues --    1.47143   1.47283   1.56470   1.58250   1.62008
 Alpha virt. eigenvalues --    1.67793   1.67962   1.69565   1.73072   1.80598
 Alpha virt. eigenvalues --    1.80780   1.83119   1.83252   1.85343   2.01098
 Alpha virt. eigenvalues --    2.07503   2.26241   2.28976   2.33699   2.34026
 Alpha virt. eigenvalues --    2.39648   2.44586   2.45482   2.49458   2.49631
 Alpha virt. eigenvalues --    2.52517   2.54102   2.58025   2.59086   2.60729
 Alpha virt. eigenvalues --    2.62206   2.63735   2.66614   2.70683   2.77276
 Alpha virt. eigenvalues --    2.77855   2.81748   2.88625   2.89091   2.91632
 Alpha virt. eigenvalues --    2.92548   2.94299   2.97573   2.99306   3.02388
 Alpha virt. eigenvalues --    3.02738   3.05363   3.06532   3.07354   3.07423
 Alpha virt. eigenvalues --    3.10442   3.13323   3.16385   3.20289   3.21740
 Alpha virt. eigenvalues --    3.25109   3.26623   3.52458   3.52940   3.61089
 Alpha virt. eigenvalues --    3.63018   3.64268   3.70301   3.82386   3.85279
 Alpha virt. eigenvalues --    3.95753   3.96378   4.03598   4.16382   4.20112
 Alpha virt. eigenvalues --    4.45103   4.50620   4.65843   4.76505   5.14897
 Alpha virt. eigenvalues --    5.48391   5.62604   6.56442   6.57809   6.86539
 Alpha virt. eigenvalues --    6.87038   7.06421   7.10853   7.19031   7.19082
 Alpha virt. eigenvalues --    7.20370   7.29934   7.50464   7.53588   7.66420
 Alpha virt. eigenvalues --    7.74074  13.45015  15.90464
          Condensed to atoms (all electrons):
               1          2          3          4
     1  O    8.025016   0.441918  -0.075812  -0.075812
     2  C    0.441918   4.959553   0.136833   0.136833
     3  Cl  -0.075812   0.136833  17.045090  -0.101334
     4  Cl  -0.075812   0.136833  -0.101334  17.045090
 Mulliken charges:
               1
     1  O   -0.315309
     2  C    0.324863
     3  Cl  -0.004777
     4  Cl  -0.004777
 Sum of Mulliken charges =  -0.00000
 Mulliken charges with hydrogens summed into heavy atoms:
               1
     1  O   -0.315309
     2  C    0.324863
     3  Cl  -0.004777
     4  Cl  -0.004777
 Electronic spatial extent (au):  <R**2>=            613.3422
 Charge=             -0.0000 electrons
 Dipole moment (field-independent basis, Debye):
    X=              0.0000    Y=              0.0000    Z=             -1.1813  Tot=              1.1813
 Quadrupole moment (field-independent basis, Debye-Ang):
   XX=            -35.0658   YY=            -34.4330   ZZ=            -36.3134
   XY=              0.0000   XZ=              0.0000   YZ=             -0.0000
 Traceless Quadrupole moment (field-independent basis, Debye-Ang):
   XX=              0.2049   YY=              0.8378   ZZ=             -1.0427
   XY=              0.0000   XZ=              0.0000   YZ=             -0.0000
 Octapole moment (field-independent basis, Debye-Ang**2):
  XXX=              0.0000  YYY=              0.0000  ZZZ=            106.5473  XYY=              0.0000
  XXY=              0.0000  XXZ=             36.1563  XZZ=              0.0000  YZZ=              0.0000
  YYZ=             29.9017  XYZ=             -0.0000
 Hexadecapole moment (field-independent basis, Debye-Ang**3):
 XXXX=            -37.1090 YYYY=           -329.6761 ZZZZ=           -382.9882 XXXY=             -0.0000
 XXXZ=             -0.0000 YYYX=              0.0000 YYYZ=             -0.0000 ZZZX=             -0.0000
 ZZZY=             -0.0000 XXYY=            -65.2967 XXZZ=            -71.0424 YYZZ=           -107.0415
 XXYZ=             -0.0000 YYXZ=              0.0000 ZZXY=             -0.0000
 N-N= 1.921284408003D+02 E-N=-2.838528788553D+03  KE= 1.032469998023D+03
 There are a total of       90730 grid points.
 ElSum from          density=       48.0000002059
 ElSum from atomic densities=       48.0000007381

 Hirshfeld populations at iteration   1 (CX, CA, CB, DipXYZ):
               1          2          3          4          5          6
     1  O    0.000008   4.091523   4.091523   0.000000  -0.000000  -0.041266
     2  C    0.000001   2.893752   2.893752   0.000000  -0.000000  -0.056234
     3  Cl   0.000011   8.507363   8.507363   0.000000  -0.063682  -0.008740
     4  Cl   0.000011   8.507363   8.507363   0.000000   0.063682  -0.008740
       Tot   0.000030  24.000000  24.000000   0.000000   0.000000  -0.114981

 Dip from Atomic Chgs              0.000000   0.000000  -0.349778
         Total Dipole              0.000000   0.000000  -0.464759

 Hirshfeld charges, spin densities, dipoles, and CM5 charges using IRadAn=      5:
              Q-H        S-H        Dx         Dy         Dz        Q-CM5   
     1  O   -0.183045   0.000000   0.000000  -0.000000  -0.041266  -0.230460
     2  C    0.212496   0.000000   0.000000  -0.000000  -0.056234   0.252609
     3  Cl  -0.014725   0.000000   0.000000  -0.063682  -0.008740  -0.011074
     4  Cl  -0.014725   0.000000   0.000000   0.063682  -0.008740  -0.011074
       Tot  -0.000000   0.000000   0.000000   0.000000  -0.114981  -0.000000
 Hirshfeld charges with hydrogens summed into heavy atoms:
              Q-H       Q-CM5   
     1  O   -0.183045  -0.230460
     2  C    0.212496   0.252609
     3  Cl  -0.014725  -0.011074
     4  Cl  -0.014725  -0.011074
 
 EQQ= 0.000000000000E+00 EQD= 0.000000000000E+00 EDD= 0.225035355408E-03
 EQQ+QD+DD= 0.225035355408E-03
 
 Breneman (CHELPG) radii used.
 Generate Potential Derived Charges using the Breneman model, NDens= 1.
 Grid spacing= 0.300 Box extension= 2.800
 NStep X,Y,Z=   20     30     26   Total possible points=       15600
 Number of Points to Fit=    4540

 **********************************************************************

            Electrostatic Properties Using The CC Density.

 **********************************************************************

       Atomic Center    1 is at   0.000000  0.000000  0.673397
       Atomic Center    2 is at   0.000000  0.000000 -0.494687
       Atomic Center    3 is at   0.000000 -1.446870 -1.469805
       Atomic Center    4 is at   0.000000  1.446870 -1.469805
    4540 points will be used for fitting atomic charges
 Fitting point charges to electrostatic potential
 The dipole moment will be constrained to the correct value
 Charges from ESP fit, RMS=   0.00561 RRMS=   0.50796:
 ESP charges:
               1
     1  O   -0.326955
     2  C    0.466396
     3  Cl  -0.069720
     4  Cl  -0.069720
 Sum of ESP charges =   0.00000
 ESP charges with hydrogens summed into heavy atoms:
               1
     1  O   -0.326955
     2  C    0.466396
     3  Cl  -0.069720
     4  Cl  -0.069720
 Charge=   0.00000 Dipole=     0.0000     0.0000    -1.1813 Tot=     1.1813
 -----------------------------------------------------------------

              Electrostatic Properties (Atomic Units)

 -----------------------------------------------------------------
    Center     Electric         -------- Electric Field --------
               Potential          X             Y             Z
 -----------------------------------------------------------------
    1 Atom    -22.284490
    2 Atom    -14.538630
    3 Atom    -64.375418
    4 Atom    -64.375418
 -----------------------------------------------------------------
 ******************************Gaussian NBO Version 3.1******************************
             N A T U R A L   A T O M I C   O R B I T A L   A N D
          N A T U R A L   B O N D   O R B I T A L   A N A L Y S I S
 ******************************Gaussian NBO Version 3.1******************************
       /RESON  / : Allow strongly delocalized NBO set

 Analyzing the QCI/CC density

 Job title: cl2co-wavefunction                                              

 Storage needed:    111522 in NPA (2147483536 available)
 GSVD:  LWork=        6614 too small for GESVD, short by       52797 words or       52797 for optimal perf.


 NATURAL POPULATIONS:  Natural atomic orbital occupancies 
                                                          
   NAO  Atom  No  lang   Type(AO)    Occupancy
 --------------------------------------------
     1    O    1  S      Cor( 1S)     1.99950
     2    O    1  S      Val( 2S)     1.67469
     3    O    1  S      Ryd( 3S)     0.00624
     4    O    1  S      Ryd( 4S)     0.00039
     5    O    1  S      Ryd( 5S)     0.00029
     6    O    1  px     Val( 2p)     1.35657
     7    O    1  px     Ryd( 3p)     0.00696
     8    O    1  px     Ryd( 4p)     0.00049
     9    O    1  px     Ryd( 5p)     0.00007
    10    O    1  py     Val( 2p)     1.73863
    11    O    1  py     Ryd( 3p)     0.01329
    12    O    1  py     Ryd( 4p)     0.00065
    13    O    1  py     Ryd( 5p)     0.00014
    14    O    1  pz     Val( 2p)     1.59015
    15    O    1  pz     Ryd( 3p)     0.00649
    16    O    1  pz     Ryd( 4p)     0.00051
    17    O    1  pz     Ryd( 5p)     0.00010
    18    O    1  dxy    Ryd( 3d)     0.00546
    19    O    1  dxy    Ryd( 4d)     0.00037
    20    O    1  dxy    Ryd( 5d)     0.00009
    21    O    1  dxz    Ryd( 3d)     0.01177
    22    O    1  dxz    Ryd( 4d)     0.00031
    23    O    1  dxz    Ryd( 5d)     0.00010
    24    O    1  dyz    Ryd( 3d)     0.01210
    25    O    1  dyz    Ryd( 4d)     0.00046
    26    O    1  dyz    Ryd( 5d)     0.00013
    27    O    1  dx2y2  Ryd( 3d)     0.00537
    28    O    1  dx2y2  Ryd( 4d)     0.00037
    29    O    1  dx2y2  Ryd( 5d)     0.00010
    30    O    1  dz2    Ryd( 3d)     0.02125
    31    O    1  dz2    Ryd( 4d)     0.00043
    32    O    1  dz2    Ryd( 5d)     0.00021
    33    O    1  f(0)   Ryd( 4f)     0.00134
    34    O    1  f(0)   Ryd( 5f)     0.00013
    35    O    1  f(C1)  Ryd( 4f)     0.00068
    36    O    1  f(C1)  Ryd( 5f)     0.00010
    37    O    1  f(S1)  Ryd( 4f)     0.00080
    38    O    1  f(S1)  Ryd( 5f)     0.00013
    39    O    1  f(C2)  Ryd( 4f)     0.00046
    40    O    1  f(C2)  Ryd( 5f)     0.00008
    41    O    1  f(S2)  Ryd( 4f)     0.00047
    42    O    1  f(S2)  Ryd( 5f)     0.00008
    43    O    1  f(C3)  Ryd( 4f)     0.00044
    44    O    1  f(C3)  Ryd( 5f)     0.00006
    45    O    1  f(S3)  Ryd( 4f)     0.00045
    46    O    1  f(S3)  Ryd( 5f)     0.00007

    47    C    2  S      Cor( 1S)     1.99938
    48    C    2  S      Val( 2S)     0.94064
    49    C    2  S      Ryd( 3S)     0.00966
    50    C    2  S      Ryd( 4S)     0.00017
    51    C    2  S      Ryd( 5S)     0.00010
    52    C    2  px     Val( 2p)     0.80484
    53    C    2  px     Ryd( 3p)     0.00764
    54    C    2  px     Ryd( 4p)     0.00059
    55    C    2  px     Ryd( 5p)     0.00018
    56    C    2  py     Val( 2p)     0.90118
    57    C    2  py     Ryd( 3p)     0.01068
    58    C    2  py     Ryd( 4p)     0.00066
    59    C    2  py     Ryd( 5p)     0.00038
    60    C    2  pz     Val( 2p)     0.80700
    61    C    2  pz     Ryd( 3p)     0.02841
    62    C    2  pz     Ryd( 5p)     0.00032
    63    C    2  pz     Ryd( 4p)     0.00057
    64    C    2  dxy    Ryd( 3d)     0.00874
    65    C    2  dxy    Ryd( 4d)     0.00031
    66    C    2  dxy    Ryd( 5d)     0.00014
    67    C    2  dxz    Ryd( 3d)     0.00817
    68    C    2  dxz    Ryd( 4d)     0.00071
    69    C    2  dxz    Ryd( 5d)     0.00026
    70    C    2  dyz    Ryd( 3d)     0.01129
    71    C    2  dyz    Ryd( 4d)     0.00088
    72    C    2  dyz    Ryd( 5d)     0.00023
    73    C    2  dx2y2  Ryd( 3d)     0.00612
    74    C    2  dx2y2  Ryd( 5d)     0.00024
    75    C    2  dx2y2  Ryd( 4d)     0.00026
    76    C    2  dz2    Ryd( 3d)     0.00678
    77    C    2  dz2    Ryd( 4d)     0.00047
    78    C    2  dz2    Ryd( 5d)     0.00025
    79    C    2  f(0)   Ryd( 4f)     0.00283
    80    C    2  f(0)   Ryd( 5f)     0.00037
    81    C    2  f(C1)  Ryd( 4f)     0.00184
    82    C    2  f(C1)  Ryd( 5f)     0.00041
    83    C    2  f(S1)  Ryd( 4f)     0.00311
    84    C    2  f(S1)  Ryd( 5f)     0.00056
    85    C    2  f(C2)  Ryd( 4f)     0.00183
    86    C    2  f(C2)  Ryd( 5f)     0.00023
    87    C    2  f(S2)  Ryd( 4f)     0.00172
    88    C    2  f(S2)  Ryd( 5f)     0.00026
    89    C    2  f(C3)  Ryd( 4f)     0.00144
    90    C    2  f(C3)  Ryd( 5f)     0.00021
    91    C    2  f(S3)  Ryd( 4f)     0.00150
    92    C    2  f(S3)  Ryd( 5f)     0.00018

    93   Cl    3  S      Cor( 1S)     2.00000
    94   Cl    3  S      Cor( 2S)     1.99940
    95   Cl    3  S      Val( 3S)     1.84305
    96   Cl    3  S      Ryd( 4S)     0.00535
    97   Cl    3  S      Ryd( 5S)     0.00031
    98   Cl    3  S      Ryd( 6S)     0.00021
    99   Cl    3  px     Cor( 2p)     2.00003
   100   Cl    3  px     Val( 3p)     1.85211
   101   Cl    3  px     Ryd( 4p)     0.00800
   102   Cl    3  px     Ryd( 5p)     0.00046
   103   Cl    3  px     Ryd( 6p)     0.00007
   104   Cl    3  py     Cor( 2p)     1.99994
   105   Cl    3  py     Val( 3p)     1.43412
   106   Cl    3  py     Ryd( 4p)     0.00610
   107   Cl    3  py     Ryd( 5p)     0.00050
   108   Cl    3  py     Ryd( 6p)     0.00006
   109   Cl    3  pz     Cor( 2p)     1.99999
   110   Cl    3  pz     Val( 3p)     1.71528
   111   Cl    3  pz     Ryd( 4p)     0.00720
   112   Cl    3  pz     Ryd( 5p)     0.00046
   113   Cl    3  pz     Ryd( 6p)     0.00010
   114   Cl    3  dxy    Ryd( 3d)     0.01816
   115   Cl    3  dxy    Ryd( 4d)     0.00052
   116   Cl    3  dxy    Ryd( 5d)     0.00012
   117   Cl    3  dxz    Ryd( 3d)     0.01840
   118   Cl    3  dxz    Ryd( 4d)     0.00061
   119   Cl    3  dxz    Ryd( 5d)     0.00013
   120   Cl    3  dyz    Ryd( 3d)     0.02338
   121   Cl    3  dyz    Ryd( 4d)     0.00047
   122   Cl    3  dyz    Ryd( 5d)     0.00012
   123   Cl    3  dx2y2  Ryd( 3d)     0.02010
   124   Cl    3  dx2y2  Ryd( 4d)     0.00051
   125   Cl    3  dx2y2  Ryd( 5d)     0.00012
   126   Cl    3  dz2    Ryd( 3d)     0.01716
   127   Cl    3  dz2    Ryd( 4d)     0.00052
   128   Cl    3  dz2    Ryd( 5d)     0.00017
   129   Cl    3  f(0)   Ryd( 4f)     0.00132
   130   Cl    3  f(0)   Ryd( 5f)     0.00013
   131   Cl    3  f(C1)  Ryd( 4f)     0.00132
   132   Cl    3  f(C1)  Ryd( 5f)     0.00012
   133   Cl    3  f(S1)  Ryd( 4f)     0.00129
   134   Cl    3  f(S1)  Ryd( 5f)     0.00017
   135   Cl    3  f(C2)  Ryd( 4f)     0.00157
   136   Cl    3  f(C2)  Ryd( 5f)     0.00013
   137   Cl    3  f(S2)  Ryd( 4f)     0.00132
   138   Cl    3  f(S2)  Ryd( 5f)     0.00014
   139   Cl    3  f(C3)  Ryd( 4f)     0.00130
   140   Cl    3  f(C3)  Ryd( 5f)     0.00013
   141   Cl    3  f(S3)  Ryd( 4f)     0.00134
   142   Cl    3  f(S3)  Ryd( 5f)     0.00013

   143   Cl    4  S      Cor( 1S)     2.00000
   144   Cl    4  S      Cor( 2S)     1.99940
   145   Cl    4  S      Val( 3S)     1.84305
   146   Cl    4  S      Ryd( 4S)     0.00535
   147   Cl    4  S      Ryd( 5S)     0.00031
   148   Cl    4  S      Ryd( 6S)     0.00021
   149   Cl    4  px     Cor( 2p)     2.00003
   150   Cl    4  px     Val( 3p)     1.85211
   151   Cl    4  px     Ryd( 4p)     0.00800
   152   Cl    4  px     Ryd( 5p)     0.00046
   153   Cl    4  px     Ryd( 6p)     0.00007
   154   Cl    4  py     Cor( 2p)     1.99994
   155   Cl    4  py     Val( 3p)     1.43412
   156   Cl    4  py     Ryd( 4p)     0.00610
   157   Cl    4  py     Ryd( 5p)     0.00050
   158   Cl    4  py     Ryd( 6p)     0.00006
   159   Cl    4  pz     Cor( 2p)     1.99999
   160   Cl    4  pz     Val( 3p)     1.71528
   161   Cl    4  pz     Ryd( 4p)     0.00720
   162   Cl    4  pz     Ryd( 5p)     0.00046
   163   Cl    4  pz     Ryd( 6p)     0.00010
   164   Cl    4  dxy    Ryd( 3d)     0.01816
   165   Cl    4  dxy    Ryd( 4d)     0.00052
   166   Cl    4  dxy    Ryd( 5d)     0.00012
   167   Cl    4  dxz    Ryd( 3d)     0.01840
   168   Cl    4  dxz    Ryd( 4d)     0.00061
   169   Cl    4  dxz    Ryd( 5d)     0.00013
   170   Cl    4  dyz    Ryd( 3d)     0.02338
   171   Cl    4  dyz    Ryd( 4d)     0.00047
   172   Cl    4  dyz    Ryd( 5d)     0.00012
   173   Cl    4  dx2y2  Ryd( 3d)     0.02010
   174   Cl    4  dx2y2  Ryd( 4d)     0.00051
   175   Cl    4  dx2y2  Ryd( 5d)     0.00012
   176   Cl    4  dz2    Ryd( 3d)     0.01716
   177   Cl    4  dz2    Ryd( 4d)     0.00052
   178   Cl    4  dz2    Ryd( 5d)     0.00017
   179   Cl    4  f(0)   Ryd( 4f)     0.00132
   180   Cl    4  f(0)   Ryd( 5f)     0.00013
   181   Cl    4  f(C1)  Ryd( 4f)     0.00132
   182   Cl    4  f(C1)  Ryd( 5f)     0.00012
   183   Cl    4  f(S1)  Ryd( 4f)     0.00129
   184   Cl    4  f(S1)  Ryd( 5f)     0.00017
   185   Cl    4  f(C2)  Ryd( 4f)     0.00157
   186   Cl    4  f(C2)  Ryd( 5f)     0.00013
   187   Cl    4  f(S2)  Ryd( 4f)     0.00132
   188   Cl    4  f(S2)  Ryd( 5f)     0.00014
   189   Cl    4  f(C3)  Ryd( 4f)     0.00130
   190   Cl    4  f(C3)  Ryd( 5f)     0.00013
   191   Cl    4  f(S3)  Ryd( 4f)     0.00134
   192   Cl    4  f(S3)  Ryd( 5f)     0.00013


 Summary of Natural Population Analysis:                  
                                                          
                                       Natural Population 
                Natural  -----------------------------------------------
    Atom  No    Charge         Core      Valence    Rydberg      Total
 -----------------------------------------------------------------------
      O    1   -0.45896      1.99950     6.36005    0.09942     8.45896
      C    2    0.42627      1.99938     3.45365    0.12070     5.57373
     Cl    3    0.01635      9.99936     6.84456    0.13973    16.98365
     Cl    4    0.01635      9.99936     6.84456    0.13973    16.98365
 =======================================================================
   * Total *   -0.00000     23.99759    23.50283    0.49958    48.00000

                                 Natural Population      
 --------------------------------------------------------
   Core                      23.99759 ( 99.9900% of  24)
   Valence                   23.50283 ( 97.9285% of  24)
   Natural Minimal Basis     47.50042 ( 98.9592% of  48)
   Natural Rydberg Basis      0.49958 (  1.0408% of  48)
 --------------------------------------------------------

    Atom  No          Natural Electron Configuration
 ----------------------------------------------------------------------------
      O    1      [core]2S( 1.67)2p( 4.69)3S( 0.01)3p( 0.03)3d( 0.06)
      C    2      [core]2S( 0.94)2p( 2.51)3S( 0.01)3p( 0.05)3d( 0.04)4f( 0.01)
     Cl    3      [core]3S( 1.84)3p( 5.00)4S( 0.01)3d( 0.10)4p( 0.02)4f( 0.01)
     Cl    4      [core]3S( 1.84)3p( 5.00)4S( 0.01)3d( 0.10)4p( 0.02)4f( 0.01)


 NBO analysis skipped by request.
 Unable to Open any file for archive entry.
 1\1\GINC-TRAPISTA\SP\RQCISD-FC\Aug-CC-pVTZ\C1Cl2O1\WAGNER\03-Sep-2022\
 0\\# qcisd/aug-cc-pvtz nosymm density=current pop=(chelpg,hirshfeld,np
 a,dipole)\\cl2co-wavefunction\\0,1\O,0,0.,0.,0.673397\C,0,0.,0.,-0.494
 687\Cl,0,0.,-1.44687,-1.469805\Cl,0,0.,1.44687,-1.469805\\Version=EM64
 L-G16RevC.01\HF=-1031.803592\MP2=-1032.5817454\MP3=-1032.601319\MP4D=-
 1032.6207462\MP4DQ=-1032.5983311\MP4SDQ=-1032.6071141\QCISD=-1032.6054
 329\RMSD=6.257e-09\Dipole=0.,0.,-0.4647604\Quadrupole=0.1523433,0.6228
 528,-0.7751961,0.,0.,0.\PG=C02V [C2(C1O1),SGV(Cl2)]\\@
 The archive entry for this job was punched.


 SUPPORT THE RIGHT TO ARM BEARS!
 (ADD A CLAWS TO THE BILL OF RIGHTS)
 Job cpu time:       0 days  6 hours 59 minutes 45.3 seconds.
 Elapsed time:       0 days  0 hours 26 minutes 34.8 seconds.
 File lengths (MBytes):  RWF=  22679 Int=      0 D2E=      0 Chk=      4 Scr=      1
 Normal termination of Gaussian 16 at Sat Sep  3 22:12:41 2022.
