 Entering Gaussian System, Link 0=/home/wagner/chemistry/gaussian/g16/g16
 Input=GAUSSIAN.com
 Output=GAUSSIAN.log
 Initial command:
 /home/wagner/chemistry/gaussian/g16/l1.exe "/home/wagner/chemistry/gaussian/work/Gau-30828.inp" -scrdir="/home/wagner/chemistry/gaussian/work/"
 Entering Link 1 = /home/wagner/chemistry/gaussian/g16/l1.exe PID=     30830.
  
 Copyright (c) 1988-2019, Gaussian, Inc.  All Rights Reserved.
  
 This is part of the Gaussian(R) 16 program.  It is based on
 the Gaussian(R) 09 system (copyright 2009, Gaussian, Inc.),
 the Gaussian(R) 03 system (copyright 2003, Gaussian, Inc.),
 the Gaussian(R) 98 system (copyright 1998, Gaussian, Inc.),
 the Gaussian(R) 94 system (copyright 1995, Gaussian, Inc.),
 the Gaussian 92(TM) system (copyright 1992, Gaussian, Inc.),
 the Gaussian 90(TM) system (copyright 1990, Gaussian, Inc.),
 the Gaussian 88(TM) system (copyright 1988, Gaussian, Inc.),
 the Gaussian 86(TM) system (copyright 1986, Carnegie Mellon
 University), and the Gaussian 82(TM) system (copyright 1983,
 Carnegie Mellon University). Gaussian is a federally registered
 trademark of Gaussian, Inc.
  
 This software contains proprietary and confidential information,
 including trade secrets, belonging to Gaussian, Inc.
  
 This software is provided under written license and may be
 used, copied, transmitted, or stored only in accord with that
 written license.
  
 The following legend is applicable only to US Government
 contracts under FAR:
  
                    RESTRICTED RIGHTS LEGEND
  
 Use, reproduction and disclosure by the US Government is
 subject to restrictions as set forth in subparagraphs (a)
 and (c) of the Commercial Computer Software - Restricted
 Rights clause in FAR 52.227-19.
  
 Gaussian, Inc.
 340 Quinnipiac St., Bldg. 40, Wallingford CT 06492
  
  
 ---------------------------------------------------------------
 Warning -- This program may not be used in any manner that
 competes with the business of Gaussian, Inc. or will provide
 assistance to any competitor of Gaussian, Inc.  The licensee
 of this program is prohibited from giving any competitor of
 Gaussian, Inc. access to this program.  By using this program,
 the user acknowledges that Gaussian, Inc. is engaged in the
 business of creating and licensing software in the field of
 computational chemistry and represents and warrants to the
 licensee that it is not a competitor of Gaussian, Inc. and that
 it will not use this program in any manner prohibited above.
 ---------------------------------------------------------------
  

 Cite this work as:
 Gaussian 16, Revision C.01,
 M. J. Frisch, G. W. Trucks, H. B. Schlegel, G. E. Scuseria, 
 M. A. Robb, J. R. Cheeseman, G. Scalmani, V. Barone, 
 G. A. Petersson, H. Nakatsuji, X. Li, M. Caricato, A. V. Marenich, 
 J. Bloino, B. G. Janesko, R. Gomperts, B. Mennucci, H. P. Hratchian, 
 J. V. Ortiz, A. F. Izmaylov, J. L. Sonnenberg, D. Williams-Young, 
 F. Ding, F. Lipparini, F. Egidi, J. Goings, B. Peng, A. Petrone, 
 T. Henderson, D. Ranasinghe, V. G. Zakrzewski, J. Gao, N. Rega, 
 G. Zheng, W. Liang, M. Hada, M. Ehara, K. Toyota, R. Fukuda, 
 J. Hasegawa, M. Ishida, T. Nakajima, Y. Honda, O. Kitao, H. Nakai, 
 T. Vreven, K. Throssell, J. A. Montgomery, Jr., J. E. Peralta, 
 F. Ogliaro, M. J. Bearpark, J. J. Heyd, E. N. Brothers, K. N. Kudin, 
 V. N. Staroverov, T. A. Keith, R. Kobayashi, J. Normand, 
 K. Raghavachari, A. P. Rendell, J. C. Burant, S. S. Iyengar, 
 J. Tomasi, M. Cossi, J. M. Millam, M. Klene, C. Adamo, R. Cammi, 
 J. W. Ochterski, R. L. Martin, K. Morokuma, O. Farkas, 
 J. B. Foresman, and D. J. Fox, Gaussian, Inc., Wallingford CT, 2019.
 
 ******************************************
 Gaussian 16:  EM64L-G16RevC.01  3-Jul-2019
                 3-Sep-2022 
 ******************************************
 %nproc=16
 Will use up to   16 processors via shared memory.
 %mem=16GB
 ----------------------------------------------------------------------
 # qcisd/aug-cc-pvtz nosymm density=current pop=(chelpg,hirshfeld,npa,d
 ipole)
 ----------------------------------------------------------------------
 1/30=1,38=1,172=1/1;
 2/12=2,15=1,17=6,18=5,40=1/2;
 3/5=16,6=1,7=10,11=9,25=1,30=1,71=1/1,2,3;
 4//1;
 5/5=2,38=5/2;
 8/6=4,9=120000,10=1/1,4;
 9/5=8,15=1/13;
 11/28=-7,31=1,32=3,42=3/11;
 10/5=6,13=10,31=1/2;
 6/7=2,8=2,9=2,10=2,15=24,20=3,22=-1,40=-1,79=1/1,2,7;
 99/5=1,9=1/99;
 ------------------
 cl2co-wavefunction
 ------------------
 Symbolic Z-matrix:
 Charge =  0 Multiplicity = 1
 O                     0.        0.        0.6834 
 C                     0.        0.01     -0.49469 
 Cl                    0.       -1.44687  -1.46981 
 Cl                    0.        1.44687  -1.46981 
 
                          Input orientation:                          
 ---------------------------------------------------------------------
 Center     Atomic      Atomic             Coordinates (Angstroms)
 Number     Number       Type             X           Y           Z
 ---------------------------------------------------------------------
      1          8           0        0.000000    0.000000    0.683397
      2          6           0        0.000000    0.010000   -0.494687
      3         17           0        0.000000   -1.446870   -1.469805
      4         17           0        0.000000    1.446870   -1.469805
 ---------------------------------------------------------------------
                    Distance matrix (angstroms):
                    1          2          3          4
     1  O    0.000000
     2  C    1.178126   0.000000
     3  Cl   2.594169   1.753090   0.000000
     4  Cl   2.594169   1.736505   2.893740   0.000000
 Symmetry turned off by external request.
 Stoichiometry    CCl2O
 Framework group  CS[SG(CCl2O)]
 Deg. of freedom     5
 Full point group                 CS      NOp   2
 Rotational constants (GHZ):           7.9179391           3.4517834           2.4038415
 Standard basis: Aug-CC-pVTZ (5D, 7F)
   192 basis functions,   372 primitive gaussians,   228 cartesian basis functions
    24 alpha electrons       24 beta electrons
       nuclear repulsion energy       191.7661955205 Hartrees.
 NAtoms=    4 NActive=    4 NUniq=    4 SFac= 1.00D+00 NAtFMM=   60 NAOKFM=F Big=F
 Integral buffers will be    131072 words long.
 Raffenetti 1 integral format.
 Two-electron integral symmetry is turned off.
 One-electron integrals computed using PRISM.
 NBasis=   192 RedAO= T EigKep=  1.43D-04  NBF=   192
 NBsUse=   192 1.00D-06 EigRej= -1.00D+00 NBFU=   192
 ExpMin= 3.57D-02 ExpMax= 4.56D+05 ExpMxC= 1.44D+03 IAcc=3 IRadAn=         5 AccDes= 0.00D+00
 Harris functional with IExCor=  205 and IRadAn=       5 diagonalized for initial guess.
 HarFok:  IExCor=  205 AccDes= 0.00D+00 IRadAn=         5 IDoV= 1 UseB2=F ITyADJ=14
 ICtDFT=  3500011 ScaDFX=  1.000000  1.000000  1.000000  1.000000
 FoFCou: FMM=F IPFlag=           0 FMFlag=      100000 FMFlg1=           0
         NFxFlg=           0 DoJE=T BraDBF=F KetDBF=T FulRan=T
         wScrn=  0.000000 ICntrl=       500 IOpCl=  0 I1Cent=   200000004 NGrid=           0
         NMat0=    1 NMatS0=      1 NMatT0=    0 NMatD0=    1 NMtDS0=    0 NMtDT0=    0
 Symmetry not used in FoFCou.
 Keep R1 ints in memory in canonical form, NReq=179712119.
 Requested convergence on RMS density matrix=1.00D-08 within 128 cycles.
 Requested convergence on MAX density matrix=1.00D-06.
 Requested convergence on             energy=1.00D-06.
 No special actions if energy rises.
 SCF Done:  E(RHF) =  -1031.80267897     A.U. after   12 cycles
            NFock= 12  Conv=0.73D-08     -V/T= 2.0003
 ExpMin= 3.57D-02 ExpMax= 4.56D+05 ExpMxC= 1.44D+03 IAcc=3 IRadAn=         5 AccDes= 0.00D+00
 HarFok:  IExCor=  205 AccDes= 0.00D+00 IRadAn=         5 IDoV=-2 UseB2=F ITyADJ=14
 ICtDFT= 12500011 ScaDFX=  1.000000  1.000000  1.000000  1.000000
 Range of M.O.s used for correlation:    13   192
 NBasis=   192 NAE=    24 NBE=    24 NFC=    12 NFV=     0
 NROrb=    180 NOA=    12 NOB=    12 NVA=   168 NVB=   168

 **** Warning!!: The largest alpha MO coefficient is  0.28333800D+02

 Semi-Direct transformation.
 ModeAB=           2 MOrb=            12 LenV=    2146443397
 LASXX=     33405819 LTotXX=    33405819 LenRXX=    33405819
 LTotAB=    33954012 MaxLAS=    56388960 LenRXY=    56388960
 NonZer=    66811638 LenScr=   100987392 LnRSAI=           0
 LnScr1=           0 LExtra=           0 Total=    190782171
 MaxDsk=          -1 SrtSym=           F ITran=            4
 JobTyp=0 Pass  1:  I=   1 to  12.
 (rs|ai) integrals will be sorted in core.
 Spin components of T(2) and E(2):
     alpha-alpha T2 =       0.3523787465D-01 E2=     -0.1018074744D+00
     alpha-beta  T2 =       0.1834222587D+00 E2=     -0.5758086866D+00
     beta-beta   T2 =       0.3523787465D-01 E2=     -0.1018074744D+00
 ANorm=    0.1119775874D+01
 E2 =    -0.7794236354D+00 EUMP2 =    -0.10325821026055D+04
 Keep R2 and R3 ints in memory in canonical form, NReq=351373597.
 CIDS: In Core Option IDoMem=           1.
 Iterations=  50 Convergence= 0.100D-07
 Produce multiple copies of IABC intergrals
 Iteration Nr.   1
 **********************
 DD1Dir will call FoFMem   1 times, MxPair=       156
 NAB=    78 NAA=     0 NBB=     0.
 MP4(R+Q)=  0.22522096D-01
 E3=       -0.19048575D-01        EUMP3=      -0.10326011512D+04
 E4(DQ)=    0.28542434D-02        UMP4(DQ)=   -0.10325982969D+04
 E4(SDQ)=  -0.61292945D-02        UMP4(SDQ)=  -0.10326072805D+04
 DE(Corr)= -0.77595011     E(Corr)=     -1032.5786291    
 NORM(A)=   0.11213563D+01
 Iteration Nr.   2
 **********************
 DD1Dir will call FoFMem   1 times, MxPair=       156
 NAB=    78 NAA=     0 NBB=     0.
 DE(Corr)= -0.80166664     E(CORR)=     -1032.6043456     Delta=-2.57D-02
 NORM(A)=   0.11307178D+01
 Iteration Nr.   3
 **********************
 DD1Dir will call FoFMem   1 times, MxPair=       156
 NAB=    78 NAA=     0 NBB=     0.
 DE(Corr)= -0.80006144     E(CORR)=     -1032.6027404     Delta= 1.61D-03
 NORM(A)=   0.11333223D+01
 Iteration Nr.   4
 **********************
 DD1Dir will call FoFMem   1 times, MxPair=       156
 NAB=    78 NAA=     0 NBB=     0.
 DE(Corr)= -0.80249182     E(CORR)=     -1032.6051708     Delta=-2.43D-03
 NORM(A)=   0.11343340D+01
 Iteration Nr.   5
 **********************
 DD1Dir will call FoFMem   1 times, MxPair=       156
 NAB=    78 NAA=     0 NBB=     0.
 DE(Corr)= -0.80280922     E(CORR)=     -1032.6054882     Delta=-3.17D-04
 NORM(A)=   0.11347246D+01
 Iteration Nr.   6
 **********************
 DD1Dir will call FoFMem   1 times, MxPair=       156
 NAB=    78 NAA=     0 NBB=     0.
 DE(Corr)= -0.80285991     E(CORR)=     -1032.6055389     Delta=-5.07D-05
 NORM(A)=   0.11347959D+01
 Iteration Nr.   7
 **********************
 DD1Dir will call FoFMem   1 times, MxPair=       156
 NAB=    78 NAA=     0 NBB=     0.
 DE(Corr)= -0.80286907     E(CORR)=     -1032.6055480     Delta=-9.16D-06
 NORM(A)=   0.11347971D+01
 Iteration Nr.   8
 **********************
 DD1Dir will call FoFMem   1 times, MxPair=       156
 NAB=    78 NAA=     0 NBB=     0.
 DE(Corr)= -0.80286865     E(CORR)=     -1032.6055476     Delta= 4.15D-07
 NORM(A)=   0.11348052D+01
 Iteration Nr.   9
 **********************
 DD1Dir will call FoFMem   1 times, MxPair=       156
 NAB=    78 NAA=     0 NBB=     0.
 DE(Corr)= -0.80286739     E(CORR)=     -1032.6055464     Delta= 1.26D-06
 NORM(A)=   0.11348048D+01
 Iteration Nr.  10
 **********************
 DD1Dir will call FoFMem   1 times, MxPair=       156
 NAB=    78 NAA=     0 NBB=     0.
 DE(Corr)= -0.80286858     E(CORR)=     -1032.6055475     Delta=-1.19D-06
 NORM(A)=   0.11348064D+01
 Iteration Nr.  11
 **********************
 DD1Dir will call FoFMem   1 times, MxPair=       156
 NAB=    78 NAA=     0 NBB=     0.
 DE(Corr)= -0.80286940     E(CORR)=     -1032.6055484     Delta=-8.22D-07
 NORM(A)=   0.11348076D+01
 Iteration Nr.  12
 **********************
 DD1Dir will call FoFMem   1 times, MxPair=       156
 NAB=    78 NAA=     0 NBB=     0.
 DE(Corr)= -0.80286965     E(CORR)=     -1032.6055486     Delta=-2.49D-07
 NORM(A)=   0.11348082D+01
 Iteration Nr.  13
 **********************
 DD1Dir will call FoFMem   1 times, MxPair=       156
 NAB=    78 NAA=     0 NBB=     0.
 DE(Corr)= -0.80286998     E(CORR)=     -1032.6055489     Delta=-3.28D-07
 NORM(A)=   0.11348087D+01
 Iteration Nr.  14
 **********************
 DD1Dir will call FoFMem   1 times, MxPair=       156
 NAB=    78 NAA=     0 NBB=     0.
 DE(Corr)= -0.80287004     E(CORR)=     -1032.6055490     Delta=-6.52D-08
 NORM(A)=   0.11348089D+01
 Iteration Nr.  15
 **********************
 DD1Dir will call FoFMem   1 times, MxPair=       156
 NAB=    78 NAA=     0 NBB=     0.
 DE(Corr)= -0.80287009     E(CORR)=     -1032.6055491     Delta=-4.79D-08
 NORM(A)=   0.11348089D+01
 Iteration Nr.  16
 **********************
 DD1Dir will call FoFMem   1 times, MxPair=       156
 NAB=    78 NAA=     0 NBB=     0.
 DE(Corr)= -0.80287011     E(CORR)=     -1032.6055491     Delta=-1.58D-08
 NORM(A)=   0.11348090D+01
 Iteration Nr.  17
 **********************
 DD1Dir will call FoFMem   1 times, MxPair=       156
 NAB=    78 NAA=     0 NBB=     0.
 DE(Corr)= -0.80287010     E(CORR)=     -1032.6055491     Delta= 1.92D-09
 NORM(A)=   0.11348090D+01
 Wavefunction amplitudes converged. E(Corr)=     -1032.6055491    
 Largest amplitude= 3.32D-02

 Z-amplitude iterations

 Iteration Nr.   1
 **********************
 DD1Dir will call FoFMem   1 times, MxPair=       156
 NAB=    78 NAA=     0 NBB=     0.
 DE(Z)= -0.77483198     E(Z)=     -1032.5775110     Delta= 2.80D-02
 NORM(A)=   0.11348238D+01
 Iteration Nr.   2
 **********************
 DD1Dir will call FoFMem   1 times, MxPair=       156
 NAB=    78 NAA=     0 NBB=     0.
 DE(Z)= -0.77483247     E(Z)=     -1032.5775114     Delta=-4.89D-07
 NORM(A)=   0.11348181D+01
 Iteration Nr.   3
 **********************
 DD1Dir will call FoFMem   1 times, MxPair=       156
 NAB=    78 NAA=     0 NBB=     0.
 DE(Z)= -0.77483225     E(Z)=     -1032.5775112     Delta= 2.16D-07
 NORM(A)=   0.11348181D+01
 Iteration Nr.   4
 **********************
 DD1Dir will call FoFMem   1 times, MxPair=       156
 NAB=    78 NAA=     0 NBB=     0.
 DE(Z)= -0.77483227     E(Z)=     -1032.5775112     Delta=-1.44D-08
 NORM(A)=   0.11348152D+01
 Iteration Nr.   5
 **********************
 DD1Dir will call FoFMem   1 times, MxPair=       156
 NAB=    78 NAA=     0 NBB=     0.
 DE(Z)= -0.77483218     E(Z)=     -1032.5775112     Delta= 8.38D-08
 NORM(A)=   0.11251422D+01
 Iteration Nr.   6
 **********************
 DD1Dir will call FoFMem   1 times, MxPair=       156
 NAB=    78 NAA=     0 NBB=     0.
 DE(Z)= -0.77451846     E(Z)=     -1032.5771974     Delta= 3.14D-04
 NORM(A)=   0.11251426D+01
 Iteration Nr.   7
 **********************
 DD1Dir will call FoFMem   1 times, MxPair=       156
 NAB=    78 NAA=     0 NBB=     0.
 DE(Z)= -0.77451511     E(Z)=     -1032.5771941     Delta= 3.35D-06
 NORM(A)=   0.11251432D+01
 Iteration Nr.   8
 **********************
 DD1Dir will call FoFMem   1 times, MxPair=       156
 NAB=    78 NAA=     0 NBB=     0.
 DE(Z)= -0.77451549     E(Z)=     -1032.5771945     Delta=-3.82D-07
 NORM(A)=   0.11251415D+01
 Iteration Nr.   9
 **********************
 DD1Dir will call FoFMem   1 times, MxPair=       156
 NAB=    78 NAA=     0 NBB=     0.
 DE(Z)= -0.77451431     E(Z)=     -1032.5771933     Delta= 1.18D-06
 NORM(A)=   0.11251417D+01
 Iteration Nr.  10
 **********************
 DD1Dir will call FoFMem   1 times, MxPair=       156
 NAB=    78 NAA=     0 NBB=     0.
 DE(Z)= -0.77451413     E(Z)=     -1032.5771931     Delta= 1.81D-07
 NORM(A)=   0.11251417D+01
 Iteration Nr.  11
 **********************
 DD1Dir will call FoFMem   1 times, MxPair=       156
 NAB=    78 NAA=     0 NBB=     0.
 DE(Z)= -0.77451424     E(Z)=     -1032.5771932     Delta=-1.13D-07
 NORM(A)=   0.11251418D+01
 Iteration Nr.  12
 **********************
 DD1Dir will call FoFMem   1 times, MxPair=       156
 NAB=    78 NAA=     0 NBB=     0.
 DE(Z)= -0.77451422     E(Z)=     -1032.5771932     Delta= 2.61D-08
 NORM(A)=   0.11251418D+01
 Iteration Nr.  13
 **********************
 DD1Dir will call FoFMem   1 times, MxPair=       156
 NAB=    78 NAA=     0 NBB=     0.
 DE(Z)= -0.77451424     E(Z)=     -1032.5771932     Delta=-1.81D-08
 NORM(A)=   0.11251419D+01
 Iteration Nr.  14
 **********************
 DD1Dir will call FoFMem   1 times, MxPair=       156
 NAB=    78 NAA=     0 NBB=     0.
 DE(Z)= -0.77451424     E(Z)=     -1032.5771932     Delta=-2.92D-09
 NORM(A)=   0.11251419D+01
 Z-amplitudes converged.
 Discarding MO integrals.
          Differentiating once with respect to electric field.
                with respect to dipole field.
          Electric field/nuclear overlap derivatives assumed to be zero.
 Keep R1 ints in memory in canonical form, NReq=179717369.
          There are     1 degrees of freedom in the 1st order CPHF.  IDoFFX=0 NUNeed=     1.
 LinEq1:  Iter=  0 NonCon=     1 RMS=2.34D-03 Max=5.60D-02 NDo=     1
 AX will form     1 AO Fock derivatives at one time.
 LinEq1:  Iter=  1 NonCon=     1 RMS=8.30D-04 Max=1.86D-02 NDo=     1
 LinEq1:  Iter=  2 NonCon=     1 RMS=3.10D-04 Max=5.19D-03 NDo=     1
 LinEq1:  Iter=  3 NonCon=     1 RMS=1.28D-04 Max=3.02D-03 NDo=     1
 LinEq1:  Iter=  4 NonCon=     1 RMS=5.11D-05 Max=1.23D-03 NDo=     1
 LinEq1:  Iter=  5 NonCon=     1 RMS=1.65D-05 Max=3.34D-04 NDo=     1
 LinEq1:  Iter=  6 NonCon=     1 RMS=4.18D-06 Max=5.73D-05 NDo=     1
 LinEq1:  Iter=  7 NonCon=     1 RMS=9.92D-07 Max=1.09D-05 NDo=     1
 LinEq1:  Iter=  8 NonCon=     1 RMS=2.10D-07 Max=3.15D-06 NDo=     1
 LinEq1:  Iter=  9 NonCon=     1 RMS=4.76D-08 Max=8.06D-07 NDo=     1
 LinEq1:  Iter= 10 NonCon=     1 RMS=1.21D-08 Max=2.22D-07 NDo=     1
 LinEq1:  Iter= 11 NonCon=     1 RMS=2.54D-09 Max=3.43D-08 NDo=     1
 LinEq1:  Iter= 12 NonCon=     1 RMS=4.71D-10 Max=1.15D-08 NDo=     1
 LinEq1:  Iter= 13 NonCon=     1 RMS=9.07D-11 Max=1.26D-09 NDo=     1
 LinEq1:  Iter= 14 NonCon=     0 RMS=2.58D-11 Max=4.51D-10 NDo=     1
 Linear equations converged to 1.000D-10 1.000D-09 after    14 iterations.
 End of Minotr F.D. properties file   721 does not exist.
 End of Minotr F.D. properties file   722 does not exist.
 End of Minotr F.D. properties file   788 does not exist.

 **********************************************************************

            Population analysis using the CC Density.

 **********************************************************************

 Alpha  occ. eigenvalues -- -104.89224-104.88843 -20.62386 -11.47631 -10.61674
 Alpha  occ. eigenvalues --  -10.61273  -8.08353  -8.08139  -8.08121  -8.07949
 Alpha  occ. eigenvalues --   -8.07740  -8.07723  -1.48585  -1.20304  -1.14033
 Alpha  occ. eigenvalues --   -0.81226  -0.70809  -0.70158  -0.64883  -0.53122
 Alpha  occ. eigenvalues --   -0.50229  -0.49846  -0.49518  -0.47699
 Alpha virt. eigenvalues --    0.04777   0.06609   0.07970   0.08605   0.09322
 Alpha virt. eigenvalues --    0.09840   0.11377   0.12504   0.12769   0.13447
 Alpha virt. eigenvalues --    0.15699   0.15884   0.22033   0.22161   0.23662
 Alpha virt. eigenvalues --    0.23880   0.25344   0.26285   0.27970   0.30437
 Alpha virt. eigenvalues --    0.30990   0.31687   0.36357   0.39569   0.43818
 Alpha virt. eigenvalues --    0.44129   0.44296   0.45725   0.47056   0.48395
 Alpha virt. eigenvalues --    0.50798   0.51308   0.52036   0.52361   0.54896
 Alpha virt. eigenvalues --    0.62239   0.64190   0.69239   0.69763   0.71382
 Alpha virt. eigenvalues --    0.71521   0.73593   0.75849   0.79496   0.81359
 Alpha virt. eigenvalues --    0.81587   0.83243   0.83455   0.87005   0.88584
 Alpha virt. eigenvalues --    0.89191   0.91506   0.93365   0.93791   0.94583
 Alpha virt. eigenvalues --    0.96136   0.96649   1.04932   1.06065   1.08838
 Alpha virt. eigenvalues --    1.09710   1.12917   1.14901   1.16002   1.17268
 Alpha virt. eigenvalues --    1.21200   1.23089   1.24222   1.26622   1.33643
 Alpha virt. eigenvalues --    1.36867   1.39722   1.42495   1.46381   1.46729
 Alpha virt. eigenvalues --    1.47094   1.47448   1.56235   1.58076   1.61938
 Alpha virt. eigenvalues --    1.67750   1.67915   1.69462   1.72881   1.80554
 Alpha virt. eigenvalues --    1.81137   1.82776   1.83281   1.85404   2.00863
 Alpha virt. eigenvalues --    2.07261   2.25990   2.28707   2.33596   2.34066
 Alpha virt. eigenvalues --    2.39506   2.44537   2.45234   2.49016   2.49372
 Alpha virt. eigenvalues --    2.52313   2.54219   2.57952   2.59046   2.60513
 Alpha virt. eigenvalues --    2.62149   2.63571   2.66304   2.70375   2.77016
 Alpha virt. eigenvalues --    2.77173   2.81472   2.88526   2.88924   2.91375
 Alpha virt. eigenvalues --    2.92364   2.94591   2.97530   2.99243   3.02328
 Alpha virt. eigenvalues --    3.02601   3.05323   3.06401   3.07273   3.07523
 Alpha virt. eigenvalues --    3.10627   3.13212   3.16262   3.20198   3.21649
 Alpha virt. eigenvalues --    3.25052   3.26591   3.51922   3.53064   3.60363
 Alpha virt. eigenvalues --    3.62874   3.64162   3.70178   3.82290   3.84363
 Alpha virt. eigenvalues --    3.95103   3.96220   4.03114   4.15493   4.19422
 Alpha virt. eigenvalues --    4.43869   4.50790   4.63045   4.76015   5.12346
 Alpha virt. eigenvalues --    5.46226   5.62151   6.56379   6.57770   6.86271
 Alpha virt. eigenvalues --    6.86896   7.04932   7.10080   7.18213   7.18778
 Alpha virt. eigenvalues --    7.19924   7.28440   7.50606   7.52078   7.66666
 Alpha virt. eigenvalues --    7.72798  13.31745  15.69605
          Condensed to atoms (all electrons):
               1          2          3          4
     1  O    8.034164   0.435583  -0.073725  -0.075271
     2  C    0.435583   4.966916   0.141024   0.131565
     3  Cl  -0.073725   0.141024  17.044224  -0.100433
     4  Cl  -0.075271   0.131565  -0.100433  17.037212
 Mulliken charges:
               1
     1  O   -0.320750
     2  C    0.324913
     3  Cl  -0.011090
     4  Cl   0.006927
 Sum of Mulliken charges =  -0.00000
 Mulliken charges with hydrogens summed into heavy atoms:
               1
     1  O   -0.320750
     2  C    0.324913
     3  Cl  -0.011090
     4  Cl   0.006927
 Electronic spatial extent (au):  <R**2>=            613.6885
 Charge=             -0.0000 electrons
 Dipole moment (field-independent basis, Debye):
    X=              0.0000    Y=              0.1036    Z=             -1.2392  Tot=              1.2435
 Quadrupole moment (field-independent basis, Debye-Ang):
   XX=            -35.0850   YY=            -34.3836   ZZ=            -36.2851
   XY=              0.0000   XZ=             -0.0000   YZ=             -0.1610
 Traceless Quadrupole moment (field-independent basis, Debye-Ang):
   XX=              0.1663   YY=              0.8676   ZZ=             -1.0339
   XY=              0.0000   XZ=             -0.0000   YZ=             -0.1610
 Octapole moment (field-independent basis, Debye-Ang**2):
  XXX=              0.0000  YYY=              0.1613  ZZZ=            106.2008  XYY=              0.0000
  XXY=              0.0400  XXZ=             36.0665  XZZ=              0.0000  YZZ=              0.2778
  YYZ=             29.7052  XYZ=             -0.0000
 Hexadecapole moment (field-independent basis, Debye-Ang**3):
 XXXX=            -37.1318 YYYY=           -329.3005 ZZZZ=           -383.1007 XXXY=              0.0000
 XXXZ=             -0.0000 YYYX=              0.0000 YYYZ=             -0.4663 ZZZX=             -0.0000
 ZZZY=             -0.7743 XXYY=            -65.2568 XXZZ=            -71.0859 YYZZ=           -106.8905
 XXYZ=             -0.1122 YYXZ=             -0.0000 ZZXY=              0.0000
 N-N= 1.917661955205D+02 E-N=-2.837761686398D+03  KE= 1.032422214507D+03
 There are a total of       90730 grid points.
 ElSum from          density=       48.0000001156
 ElSum from atomic densities=       48.0000006587

 Hirshfeld populations at iteration   1 (CX, CA, CB, DipXYZ):
               1          2          3          4          5          6
     1  O    0.000007   4.092965   4.092965  -0.000000  -0.000644  -0.043424
     2  C    0.000001   2.894207   2.894207   0.000000   0.001759  -0.057462
     3  Cl   0.000011   8.509495   8.509495   0.000000  -0.064687  -0.007350
     4  Cl   0.000011   8.503333   8.503333  -0.000000   0.066656  -0.012645
       Tot   0.000030  24.000000  24.000000   0.000000   0.003085  -0.120882

 Dip from Atomic Chgs              0.000000   0.037691  -0.366652
         Total Dipole              0.000000   0.040776  -0.487534

 Hirshfeld charges, spin densities, dipoles, and CM5 charges using IRadAn=      5:
              Q-H        S-H        Dx         Dy         Dz        Q-CM5   
     1  O   -0.185930   0.000000  -0.000000  -0.000644  -0.043424  -0.232210
     2  C    0.211585   0.000000   0.000000   0.001759  -0.057462   0.250704
     3  Cl  -0.018989   0.000000   0.000000  -0.064687  -0.007350  -0.015412
     4  Cl  -0.006666   0.000000  -0.000000   0.066656  -0.012645  -0.003081
       Tot  -0.000000   0.000000   0.000000   0.003085  -0.120882  -0.000000
 Hirshfeld charges with hydrogens summed into heavy atoms:
              Q-H       Q-CM5   
     1  O   -0.185930  -0.232210
     2  C    0.211585   0.250704
     3  Cl  -0.018989  -0.015412
     4  Cl  -0.006666  -0.003081
 
 EQQ= 0.000000000000E+00 EQD= 0.000000000000E+00 EDD= 0.239945121972E-03
 EQQ+QD+DD= 0.239945121972E-03
 
 Breneman (CHELPG) radii used.
 Generate Potential Derived Charges using the Breneman model, NDens= 1.
 Grid spacing= 0.300 Box extension= 2.800
 NStep X,Y,Z=   20     30     26   Total possible points=       15600
 Number of Points to Fit=    4532

 **********************************************************************

            Electrostatic Properties Using The CC Density.

 **********************************************************************

       Atomic Center    1 is at   0.000000  0.000000  0.683397
       Atomic Center    2 is at   0.000000  0.010000 -0.494687
       Atomic Center    3 is at   0.000000 -1.446870 -1.469805
       Atomic Center    4 is at   0.000000  1.446870 -1.469805
    4532 points will be used for fitting atomic charges
 Fitting point charges to electrostatic potential
 The dipole moment will be constrained to the correct value
 Charges from ESP fit, RMS=   0.00562 RRMS=   0.49686:
 ESP charges:
               1
     1  O   -0.328582
     2  C    0.460981
     3  Cl  -0.072063
     4  Cl  -0.060336
 Sum of ESP charges =   0.00000
 ESP charges with hydrogens summed into heavy atoms:
               1
     1  O   -0.328582
     2  C    0.460981
     3  Cl  -0.072063
     4  Cl  -0.060336
 Charge=   0.00000 Dipole=     0.0000     0.1036    -1.2392 Tot=     1.2435
 -----------------------------------------------------------------

              Electrostatic Properties (Atomic Units)

 -----------------------------------------------------------------
    Center     Electric         -------- Electric Field --------
               Potential          X             Y             Z
 -----------------------------------------------------------------
    1 Atom    -22.284586
    2 Atom    -14.536665
    3 Atom    -64.376337
    4 Atom    -64.372639
 -----------------------------------------------------------------
 ******************************Gaussian NBO Version 3.1******************************
             N A T U R A L   A T O M I C   O R B I T A L   A N D
          N A T U R A L   B O N D   O R B I T A L   A N A L Y S I S
 ******************************Gaussian NBO Version 3.1******************************
       /RESON  / : Allow strongly delocalized NBO set

 Analyzing the QCI/CC density

 Job title: cl2co-wavefunction                                              

 Storage needed:    111522 in NPA (2147483536 available)
 GSVD:  LWork=        6614 too small for GESVD, short by       52797 words or       52797 for optimal perf.


 NATURAL POPULATIONS:  Natural atomic orbital occupancies 
                                                          
   NAO  Atom  No  lang   Type(AO)    Occupancy
 --------------------------------------------
     1    O    1  S      Cor( 1S)     1.99951
     2    O    1  S      Val( 2S)     1.68009
     3    O    1  S      Ryd( 3S)     0.00630
     4    O    1  S      Ryd( 4S)     0.00039
     5    O    1  S      Ryd( 5S)     0.00029
     6    O    1  px     Val( 2p)     1.35793
     7    O    1  px     Ryd( 3p)     0.00703
     8    O    1  px     Ryd( 4p)     0.00050
     9    O    1  px     Ryd( 5p)     0.00007
    10    O    1  py     Val( 2p)     1.74346
    11    O    1  py     Ryd( 3p)     0.01326
    12    O    1  py     Ryd( 4p)     0.00065
    13    O    1  py     Ryd( 5p)     0.00014
    14    O    1  pz     Val( 2p)     1.58110
    15    O    1  pz     Ryd( 3p)     0.00648
    16    O    1  pz     Ryd( 4p)     0.00050
    17    O    1  pz     Ryd( 5p)     0.00010
    18    O    1  dxy    Ryd( 3d)     0.00545
    19    O    1  dxy    Ryd( 4d)     0.00037
    20    O    1  dxy    Ryd( 5d)     0.00009
    21    O    1  dxz    Ryd( 3d)     0.01156
    22    O    1  dxz    Ryd( 4d)     0.00031
    23    O    1  dxz    Ryd( 5d)     0.00010
    24    O    1  dyz    Ryd( 3d)     0.01194
    25    O    1  dyz    Ryd( 4d)     0.00046
    26    O    1  dyz    Ryd( 5d)     0.00013
    27    O    1  dx2y2  Ryd( 3d)     0.00537
    28    O    1  dx2y2  Ryd( 4d)     0.00037
    29    O    1  dx2y2  Ryd( 5d)     0.00009
    30    O    1  dz2    Ryd( 3d)     0.02063
    31    O    1  dz2    Ryd( 4d)     0.00043
    32    O    1  dz2    Ryd( 5d)     0.00021
    33    O    1  f(0)   Ryd( 4f)     0.00132
    34    O    1  f(0)   Ryd( 5f)     0.00013
    35    O    1  f(C1)  Ryd( 4f)     0.00067
    36    O    1  f(C1)  Ryd( 5f)     0.00010
    37    O    1  f(S1)  Ryd( 4f)     0.00079
    38    O    1  f(S1)  Ryd( 5f)     0.00013
    39    O    1  f(C2)  Ryd( 4f)     0.00046
    40    O    1  f(C2)  Ryd( 5f)     0.00008
    41    O    1  f(S2)  Ryd( 4f)     0.00047
    42    O    1  f(S2)  Ryd( 5f)     0.00008
    43    O    1  f(C3)  Ryd( 4f)     0.00044
    44    O    1  f(C3)  Ryd( 5f)     0.00006
    45    O    1  f(S3)  Ryd( 4f)     0.00045
    46    O    1  f(S3)  Ryd( 5f)     0.00007

    47    C    2  S      Cor( 1S)     1.99941
    48    C    2  S      Val( 2S)     0.94589
    49    C    2  S      Ryd( 3S)     0.00956
    50    C    2  S      Ryd( 4S)     0.00017
    51    C    2  S      Ryd( 5S)     0.00010
    52    C    2  px     Val( 2p)     0.80566
    53    C    2  px     Ryd( 3p)     0.00760
    54    C    2  px     Ryd( 4p)     0.00059
    55    C    2  px     Ryd( 5p)     0.00018
    56    C    2  py     Val( 2p)     0.90089
    57    C    2  py     Ryd( 3p)     0.01085
    58    C    2  py     Ryd( 4p)     0.00067
    59    C    2  py     Ryd( 5p)     0.00038
    60    C    2  pz     Val( 2p)     0.80674
    61    C    2  pz     Ryd( 3p)     0.02822
    62    C    2  pz     Ryd( 5p)     0.00032
    63    C    2  pz     Ryd( 4p)     0.00057
    64    C    2  dxy    Ryd( 3d)     0.00873
    65    C    2  dxy    Ryd( 4d)     0.00030
    66    C    2  dxy    Ryd( 5d)     0.00014
    67    C    2  dxz    Ryd( 3d)     0.00826
    68    C    2  dxz    Ryd( 4d)     0.00069
    69    C    2  dxz    Ryd( 5d)     0.00027
    70    C    2  dyz    Ryd( 3d)     0.01137
    71    C    2  dyz    Ryd( 4d)     0.00085
    72    C    2  dyz    Ryd( 5d)     0.00023
    73    C    2  dx2y2  Ryd( 3d)     0.00613
    74    C    2  dx2y2  Ryd( 5d)     0.00024
    75    C    2  dx2y2  Ryd( 4d)     0.00027
    76    C    2  dz2    Ryd( 3d)     0.00685
    77    C    2  dz2    Ryd( 4d)     0.00046
    78    C    2  dz2    Ryd( 5d)     0.00025
    79    C    2  f(0)   Ryd( 4f)     0.00280
    80    C    2  f(0)   Ryd( 5f)     0.00036
    81    C    2  f(C1)  Ryd( 4f)     0.00181
    82    C    2  f(C1)  Ryd( 5f)     0.00041
    83    C    2  f(S1)  Ryd( 4f)     0.00306
    84    C    2  f(S1)  Ryd( 5f)     0.00057
    85    C    2  f(C2)  Ryd( 4f)     0.00182
    86    C    2  f(C2)  Ryd( 5f)     0.00023
    87    C    2  f(S2)  Ryd( 4f)     0.00173
    88    C    2  f(S2)  Ryd( 5f)     0.00026
    89    C    2  f(C3)  Ryd( 4f)     0.00144
    90    C    2  f(C3)  Ryd( 5f)     0.00021
    91    C    2  f(S3)  Ryd( 4f)     0.00150
    92    C    2  f(S3)  Ryd( 5f)     0.00018

    93   Cl    3  S      Cor( 1S)     2.00000
    94   Cl    3  S      Cor( 2S)     1.99941
    95   Cl    3  S      Val( 3S)     1.84532
    96   Cl    3  S      Ryd( 4S)     0.00533
    97   Cl    3  S      Ryd( 5S)     0.00031
    98   Cl    3  S      Ryd( 6S)     0.00021
    99   Cl    3  px     Cor( 2p)     2.00003
   100   Cl    3  px     Val( 3p)     1.85355
   101   Cl    3  px     Ryd( 4p)     0.00804
   102   Cl    3  px     Ryd( 5p)     0.00046
   103   Cl    3  px     Ryd( 6p)     0.00007
   104   Cl    3  py     Cor( 2p)     1.99995
   105   Cl    3  py     Val( 3p)     1.43285
   106   Cl    3  py     Ryd( 4p)     0.00608
   107   Cl    3  py     Ryd( 5p)     0.00050
   108   Cl    3  py     Ryd( 6p)     0.00006
   109   Cl    3  pz     Cor( 2p)     1.99999
   110   Cl    3  pz     Val( 3p)     1.71764
   111   Cl    3  pz     Ryd( 4p)     0.00722
   112   Cl    3  pz     Ryd( 5p)     0.00046
   113   Cl    3  pz     Ryd( 6p)     0.00010
   114   Cl    3  dxy    Ryd( 3d)     0.01814
   115   Cl    3  dxy    Ryd( 4d)     0.00052
   116   Cl    3  dxy    Ryd( 5d)     0.00012
   117   Cl    3  dxz    Ryd( 3d)     0.01840
   118   Cl    3  dxz    Ryd( 4d)     0.00062
   119   Cl    3  dxz    Ryd( 5d)     0.00013
   120   Cl    3  dyz    Ryd( 3d)     0.02323
   121   Cl    3  dyz    Ryd( 4d)     0.00047
   122   Cl    3  dyz    Ryd( 5d)     0.00012
   123   Cl    3  dx2y2  Ryd( 3d)     0.02009
   124   Cl    3  dx2y2  Ryd( 4d)     0.00052
   125   Cl    3  dx2y2  Ryd( 5d)     0.00012
   126   Cl    3  dz2    Ryd( 3d)     0.01717
   127   Cl    3  dz2    Ryd( 4d)     0.00053
   128   Cl    3  dz2    Ryd( 5d)     0.00017
   129   Cl    3  f(0)   Ryd( 4f)     0.00133
   130   Cl    3  f(0)   Ryd( 5f)     0.00013
   131   Cl    3  f(C1)  Ryd( 4f)     0.00133
   132   Cl    3  f(C1)  Ryd( 5f)     0.00012
   133   Cl    3  f(S1)  Ryd( 4f)     0.00128
   134   Cl    3  f(S1)  Ryd( 5f)     0.00017
   135   Cl    3  f(C2)  Ryd( 4f)     0.00156
   136   Cl    3  f(C2)  Ryd( 5f)     0.00013
   137   Cl    3  f(S2)  Ryd( 4f)     0.00132
   138   Cl    3  f(S2)  Ryd( 5f)     0.00014
   139   Cl    3  f(C3)  Ryd( 4f)     0.00130
   140   Cl    3  f(C3)  Ryd( 5f)     0.00013
   141   Cl    3  f(S3)  Ryd( 4f)     0.00134
   142   Cl    3  f(S3)  Ryd( 5f)     0.00013

   143   Cl    4  S      Cor( 1S)     2.00000
   144   Cl    4  S      Cor( 2S)     1.99938
   145   Cl    4  S      Val( 3S)     1.83973
   146   Cl    4  S      Ryd( 4S)     0.00534
   147   Cl    4  S      Ryd( 5S)     0.00031
   148   Cl    4  S      Ryd( 6S)     0.00022
   149   Cl    4  px     Cor( 2p)     2.00002
   150   Cl    4  px     Val( 3p)     1.84867
   151   Cl    4  px     Ryd( 4p)     0.00795
   152   Cl    4  px     Ryd( 5p)     0.00046
   153   Cl    4  px     Ryd( 6p)     0.00007
   154   Cl    4  py     Cor( 2p)     1.99994
   155   Cl    4  py     Val( 3p)     1.43464
   156   Cl    4  py     Ryd( 4p)     0.00609
   157   Cl    4  py     Ryd( 5p)     0.00050
   158   Cl    4  py     Ryd( 6p)     0.00006
   159   Cl    4  pz     Cor( 2p)     1.99999
   160   Cl    4  pz     Val( 3p)     1.70979
   161   Cl    4  pz     Ryd( 4p)     0.00714
   162   Cl    4  pz     Ryd( 5p)     0.00046
   163   Cl    4  pz     Ryd( 6p)     0.00010
   164   Cl    4  dxy    Ryd( 3d)     0.01819
   165   Cl    4  dxy    Ryd( 4d)     0.00051
   166   Cl    4  dxy    Ryd( 5d)     0.00012
   167   Cl    4  dxz    Ryd( 3d)     0.01839
   168   Cl    4  dxz    Ryd( 4d)     0.00061
   169   Cl    4  dxz    Ryd( 5d)     0.00013
   170   Cl    4  dyz    Ryd( 3d)     0.02355
   171   Cl    4  dyz    Ryd( 4d)     0.00047
   172   Cl    4  dyz    Ryd( 5d)     0.00012
   173   Cl    4  dx2y2  Ryd( 3d)     0.02011
   174   Cl    4  dx2y2  Ryd( 4d)     0.00051
   175   Cl    4  dx2y2  Ryd( 5d)     0.00012
   176   Cl    4  dz2    Ryd( 3d)     0.01714
   177   Cl    4  dz2    Ryd( 4d)     0.00052
   178   Cl    4  dz2    Ryd( 5d)     0.00018
   179   Cl    4  f(0)   Ryd( 4f)     0.00132
   180   Cl    4  f(0)   Ryd( 5f)     0.00013
   181   Cl    4  f(C1)  Ryd( 4f)     0.00132
   182   Cl    4  f(C1)  Ryd( 5f)     0.00012
   183   Cl    4  f(S1)  Ryd( 4f)     0.00129
   184   Cl    4  f(S1)  Ryd( 5f)     0.00017
   185   Cl    4  f(C2)  Ryd( 4f)     0.00157
   186   Cl    4  f(C2)  Ryd( 5f)     0.00013
   187   Cl    4  f(S2)  Ryd( 4f)     0.00132
   188   Cl    4  f(S2)  Ryd( 5f)     0.00014
   189   Cl    4  f(C3)  Ryd( 4f)     0.00130
   190   Cl    4  f(C3)  Ryd( 5f)     0.00013
   191   Cl    4  f(S3)  Ryd( 4f)     0.00134
   192   Cl    4  f(S3)  Ryd( 5f)     0.00013


 Summary of Natural Population Analysis:                  
                                                          
                                       Natural Population 
                Natural  -----------------------------------------------
    Atom  No    Charge         Core      Valence    Rydberg      Total
 -----------------------------------------------------------------------
      O    1   -0.46057      1.99951     6.36258    0.09848     8.46057
      C    2    0.42078      1.99941     3.45919    0.12063     5.57922
     Cl    3    0.01170      9.99937     6.84935    0.13958    16.98830
     Cl    4    0.02809      9.99933     6.83283    0.13975    16.97191
 =======================================================================
   * Total *    0.00000     23.99762    23.50395    0.49843    48.00000

                                 Natural Population      
 --------------------------------------------------------
   Core                      23.99762 ( 99.9901% of  24)
   Valence                   23.50395 ( 97.9331% of  24)
   Natural Minimal Basis     47.50157 ( 98.9616% of  48)
   Natural Rydberg Basis      0.49843 (  1.0384% of  48)
 --------------------------------------------------------

    Atom  No          Natural Electron Configuration
 ----------------------------------------------------------------------------
      O    1      [core]2S( 1.68)2p( 4.68)3S( 0.01)3p( 0.03)3d( 0.05)
      C    2      [core]2S( 0.95)2p( 2.51)3S( 0.01)3p( 0.05)3d( 0.04)4f( 0.01)
     Cl    3      [core]3S( 1.85)3p( 5.00)4S( 0.01)3d( 0.10)4p( 0.02)4f( 0.01)
     Cl    4      [core]3S( 1.84)3p( 4.99)4S( 0.01)3d( 0.10)4p( 0.02)4f( 0.01)


 NBO analysis skipped by request.
 Unable to Open any file for archive entry.
 1\1\GINC-TRAPISTA\SP\RQCISD-FC\Aug-CC-pVTZ\C1Cl2O1\WAGNER\03-Sep-2022\
 0\\# qcisd/aug-cc-pvtz nosymm density=current pop=(chelpg,hirshfeld,np
 a,dipole)\\cl2co-wavefunction\\0,1\O,0,0.,0.,0.683397\C,0,0.,0.01,-0.4
 94687\Cl,0,0.,-1.44687,-1.469805\Cl,0,0.,1.44687,-1.469805\\Version=EM
 64L-G16RevC.01\HF=-1031.802679\MP2=-1032.5821026\MP3=-1032.6011512\MP4
 D=-1032.620819\MP4DQ=-1032.5982969\MP4SDQ=-1032.6072805\QCISD=-1032.60
 55491\RMSD=7.345e-09\Dipole=0.,0.0407755,-0.4875353\Quadrupole=0.12361
 16,0.6450635,-0.7686751,0.,0.,-0.1197209\PG=CS [SG(C1Cl2O1)]\\@
 The archive entry for this job was punched.


 It takes a long time to grow an old friend.
                            -- John Leonard
 Job cpu time:       0 days  7 hours 30 minutes 12.3 seconds.
 Elapsed time:       0 days  0 hours 28 minutes 35.8 seconds.
 File lengths (MBytes):  RWF=  22679 Int=      0 D2E=      0 Chk=      4 Scr=      1
 Normal termination of Gaussian 16 at Sat Sep  3 23:35:27 2022.
