 Entering Gaussian System, Link 0=/home/wagner/chemistry/gaussian/g16/g16
 Input=GAUSSIAN.com
 Output=GAUSSIAN.log
 Initial command:
 /home/wagner/chemistry/gaussian/g16/l1.exe "/home/wagner/chemistry/gaussian/work/Gau-28751.inp" -scrdir="/home/wagner/chemistry/gaussian/work/"
 Entering Link 1 = /home/wagner/chemistry/gaussian/g16/l1.exe PID=     28753.
  
 Copyright (c) 1988-2019, Gaussian, Inc.  All Rights Reserved.
  
 This is part of the Gaussian(R) 16 program.  It is based on
 the Gaussian(R) 09 system (copyright 2009, Gaussian, Inc.),
 the Gaussian(R) 03 system (copyright 2003, Gaussian, Inc.),
 the Gaussian(R) 98 system (copyright 1998, Gaussian, Inc.),
 the Gaussian(R) 94 system (copyright 1995, Gaussian, Inc.),
 the Gaussian 92(TM) system (copyright 1992, Gaussian, Inc.),
 the Gaussian 90(TM) system (copyright 1990, Gaussian, Inc.),
 the Gaussian 88(TM) system (copyright 1988, Gaussian, Inc.),
 the Gaussian 86(TM) system (copyright 1986, Carnegie Mellon
 University), and the Gaussian 82(TM) system (copyright 1983,
 Carnegie Mellon University). Gaussian is a federally registered
 trademark of Gaussian, Inc.
  
 This software contains proprietary and confidential information,
 including trade secrets, belonging to Gaussian, Inc.
  
 This software is provided under written license and may be
 used, copied, transmitted, or stored only in accord with that
 written license.
  
 The following legend is applicable only to US Government
 contracts under FAR:
  
                    RESTRICTED RIGHTS LEGEND
  
 Use, reproduction and disclosure by the US Government is
 subject to restrictions as set forth in subparagraphs (a)
 and (c) of the Commercial Computer Software - Restricted
 Rights clause in FAR 52.227-19.
  
 Gaussian, Inc.
 340 Quinnipiac St., Bldg. 40, Wallingford CT 06492
  
  
 ---------------------------------------------------------------
 Warning -- This program may not be used in any manner that
 competes with the business of Gaussian, Inc. or will provide
 assistance to any competitor of Gaussian, Inc.  The licensee
 of this program is prohibited from giving any competitor of
 Gaussian, Inc. access to this program.  By using this program,
 the user acknowledges that Gaussian, Inc. is engaged in the
 business of creating and licensing software in the field of
 computational chemistry and represents and warrants to the
 licensee that it is not a competitor of Gaussian, Inc. and that
 it will not use this program in any manner prohibited above.
 ---------------------------------------------------------------
  

 Cite this work as:
 Gaussian 16, Revision C.01,
 M. J. Frisch, G. W. Trucks, H. B. Schlegel, G. E. Scuseria, 
 M. A. Robb, J. R. Cheeseman, G. Scalmani, V. Barone, 
 G. A. Petersson, H. Nakatsuji, X. Li, M. Caricato, A. V. Marenich, 
 J. Bloino, B. G. Janesko, R. Gomperts, B. Mennucci, H. P. Hratchian, 
 J. V. Ortiz, A. F. Izmaylov, J. L. Sonnenberg, D. Williams-Young, 
 F. Ding, F. Lipparini, F. Egidi, J. Goings, B. Peng, A. Petrone, 
 T. Henderson, D. Ranasinghe, V. G. Zakrzewski, J. Gao, N. Rega, 
 G. Zheng, W. Liang, M. Hada, M. Ehara, K. Toyota, R. Fukuda, 
 J. Hasegawa, M. Ishida, T. Nakajima, Y. Honda, O. Kitao, H. Nakai, 
 T. Vreven, K. Throssell, J. A. Montgomery, Jr., J. E. Peralta, 
 F. Ogliaro, M. J. Bearpark, J. J. Heyd, E. N. Brothers, K. N. Kudin, 
 V. N. Staroverov, T. A. Keith, R. Kobayashi, J. Normand, 
 K. Raghavachari, A. P. Rendell, J. C. Burant, S. S. Iyengar, 
 J. Tomasi, M. Cossi, J. M. Millam, M. Klene, C. Adamo, R. Cammi, 
 J. W. Ochterski, R. L. Martin, K. Morokuma, O. Farkas, 
 J. B. Foresman, and D. J. Fox, Gaussian, Inc., Wallingford CT, 2019.
 
 ******************************************
 Gaussian 16:  EM64L-G16RevC.01  3-Jul-2019
                 3-Sep-2022 
 ******************************************
 %nproc=16
 Will use up to   16 processors via shared memory.
 %mem=16GB
 ----------------------------------------------------------------------
 # qcisd/aug-cc-pvtz nosymm density=current pop=(chelpg,hirshfeld,npa,d
 ipole)
 ----------------------------------------------------------------------
 1/30=1,38=1,172=1/1;
 2/12=2,15=1,17=6,18=5,40=1/2;
 3/5=16,6=1,7=10,11=9,25=1,30=1,71=1/1,2,3;
 4//1;
 5/5=2,38=5/2;
 8/6=4,9=120000,10=1/1,4;
 9/5=8,15=1/13;
 11/28=-7,31=1,32=3,42=3/11;
 10/5=6,13=10,31=1/2;
 6/7=2,8=2,9=2,10=2,15=24,20=3,22=-1,40=-1,79=1/1,2,7;
 99/5=1,9=1/99;
 ------------------
 cl2co-wavefunction
 ------------------
 Symbolic Z-matrix:
 Charge =  0 Multiplicity = 1
 O                     0.        0.        0.6934 
 C                     0.        0.       -0.49469 
 Cl                    0.       -1.44687  -1.46981 
 Cl                    0.        1.44687  -1.46981 
 
                          Input orientation:                          
 ---------------------------------------------------------------------
 Center     Atomic      Atomic             Coordinates (Angstroms)
 Number     Number       Type             X           Y           Z
 ---------------------------------------------------------------------
      1          8           0        0.000000    0.000000    0.693397
      2          6           0        0.000000    0.000000   -0.494687
      3         17           0        0.000000   -1.446870   -1.469805
      4         17           0        0.000000    1.446870   -1.469805
 ---------------------------------------------------------------------
                    Distance matrix (angstroms):
                    1          2          3          4
     1  O    0.000000
     2  C    1.188084   0.000000
     3  Cl   2.602475   1.744789   0.000000
     4  Cl   2.602475   1.744789   2.893740   0.000000
 Symmetry turned off by external request.
 Stoichiometry    CCl2O
 Framework group  C2V[C2(CO),SGV(Cl2)]
 Deg. of freedom     3
 Full point group                 C2V     NOp   4
 Rotational constants (GHZ):           7.8515777           3.4518093           2.3977016
 Standard basis: Aug-CC-pVTZ (5D, 7F)
   192 basis functions,   372 primitive gaussians,   228 cartesian basis functions
    24 alpha electrons       24 beta electrons
       nuclear repulsion energy       191.4073300860 Hartrees.
 NAtoms=    4 NActive=    4 NUniq=    4 SFac= 1.00D+00 NAtFMM=   60 NAOKFM=F Big=F
 Integral buffers will be    131072 words long.
 Raffenetti 1 integral format.
 Two-electron integral symmetry is turned off.
 One-electron integrals computed using PRISM.
 NBasis=   192 RedAO= T EigKep=  1.44D-04  NBF=   192
 NBsUse=   192 1.00D-06 EigRej= -1.00D+00 NBFU=   192
 ExpMin= 3.57D-02 ExpMax= 4.56D+05 ExpMxC= 1.44D+03 IAcc=3 IRadAn=         5 AccDes= 0.00D+00
 Harris functional with IExCor=  205 and IRadAn=       5 diagonalized for initial guess.
 HarFok:  IExCor=  205 AccDes= 0.00D+00 IRadAn=         5 IDoV= 1 UseB2=F ITyADJ=14
 ICtDFT=  3500011 ScaDFX=  1.000000  1.000000  1.000000  1.000000
 FoFCou: FMM=F IPFlag=           0 FMFlag=      100000 FMFlg1=           0
         NFxFlg=           0 DoJE=T BraDBF=F KetDBF=T FulRan=T
         wScrn=  0.000000 ICntrl=       500 IOpCl=  0 I1Cent=   200000004 NGrid=           0
         NMat0=    1 NMatS0=      1 NMatT0=    0 NMatD0=    1 NMtDS0=    0 NMtDT0=    0
 Symmetry not used in FoFCou.
 Keep R1 ints in memory in canonical form, NReq=179712206.
 Requested convergence on RMS density matrix=1.00D-08 within 128 cycles.
 Requested convergence on MAX density matrix=1.00D-06.
 Requested convergence on             energy=1.00D-06.
 No special actions if energy rises.
 SCF Done:  E(RHF) =  -1031.80155472     A.U. after   12 cycles
            NFock= 12  Conv=0.69D-08     -V/T= 2.0003
 ExpMin= 3.57D-02 ExpMax= 4.56D+05 ExpMxC= 1.44D+03 IAcc=3 IRadAn=         5 AccDes= 0.00D+00
 HarFok:  IExCor=  205 AccDes= 0.00D+00 IRadAn=         5 IDoV=-2 UseB2=F ITyADJ=14
 ICtDFT= 12500011 ScaDFX=  1.000000  1.000000  1.000000  1.000000
 Range of M.O.s used for correlation:    13   192
 NBasis=   192 NAE=    24 NBE=    24 NFC=    12 NFV=     0
 NROrb=    180 NOA=    12 NOB=    12 NVA=   168 NVB=   168

 **** Warning!!: The largest alpha MO coefficient is  0.29817829D+02

 Semi-Direct transformation.
 ModeAB=           2 MOrb=            12 LenV=    2146443439
 LASXX=     33405819 LTotXX=    33405819 LenRXX=    33405819
 LTotAB=    33954012 MaxLAS=    56388960 LenRXY=    56388960
 NonZer=    66811638 LenScr=   100987392 LnRSAI=           0
 LnScr1=           0 LExtra=           0 Total=    190782171
 MaxDsk=          -1 SrtSym=           F ITran=            4
 JobTyp=0 Pass  1:  I=   1 to  12.
 (rs|ai) integrals will be sorted in core.
 Spin components of T(2) and E(2):
     alpha-alpha T2 =       0.3540074478D-01 E2=     -0.1019713644D+00
     alpha-beta  T2 =       0.1842725677D+00 E2=     -0.5767255192D+00
     beta-beta   T2 =       0.3540074478D-01 E2=     -0.1019713644D+00
 ANorm=    0.1120300878D+01
 E2 =    -0.7806682481D+00 EUMP2 =    -0.10325822229713D+04
 Keep R2 and R3 ints in memory in canonical form, NReq=351373684.
 CIDS: In Core Option IDoMem=           1.
 Iterations=  50 Convergence= 0.100D-07
 Produce multiple copies of IABC intergrals
 Iteration Nr.   1
 **********************
 DD1Dir will call FoFMem   1 times, MxPair=       156
 NAB=    78 NAA=     0 NBB=     0.
 MP4(R+Q)=  0.22627428D-01
 E3=       -0.18526893D-01        EUMP3=      -0.10326007499D+04
 E4(DQ)=    0.27170955D-02        UMP4(DQ)=   -0.10325980328D+04
 E4(SDQ)=  -0.64680846D-02        UMP4(SDQ)=  -0.10326072179D+04
 DE(Corr)= -0.77656771     E(Corr)=     -1032.5781224    
 NORM(A)=   0.11217369D+01
 Iteration Nr.   2
 **********************
 DD1Dir will call FoFMem   1 times, MxPair=       156
 NAB=    78 NAA=     0 NBB=     0.
 DE(Corr)= -0.80271685     E(CORR)=     -1032.6042716     Delta=-2.61D-02
 NORM(A)=   0.11312233D+01
 Iteration Nr.   3
 **********************
 DD1Dir will call FoFMem   1 times, MxPair=       156
 NAB=    78 NAA=     0 NBB=     0.
 DE(Corr)= -0.80099047     E(CORR)=     -1032.6025452     Delta= 1.73D-03
 NORM(A)=   0.11339139D+01
 Iteration Nr.   4
 **********************
 DD1Dir will call FoFMem   1 times, MxPair=       156
 NAB=    78 NAA=     0 NBB=     0.
 DE(Corr)= -0.80348557     E(CORR)=     -1032.6050403     Delta=-2.50D-03
 NORM(A)=   0.11349673D+01
 Iteration Nr.   5
 **********************
 DD1Dir will call FoFMem   1 times, MxPair=       156
 NAB=    78 NAA=     0 NBB=     0.
 DE(Corr)= -0.80381697     E(CORR)=     -1032.6053717     Delta=-3.31D-04
 NORM(A)=   0.11353770D+01
 Iteration Nr.   6
 **********************
 DD1Dir will call FoFMem   1 times, MxPair=       156
 NAB=    78 NAA=     0 NBB=     0.
 DE(Corr)= -0.80387005     E(CORR)=     -1032.6054248     Delta=-5.31D-05
 NORM(A)=   0.11354527D+01
 Iteration Nr.   7
 **********************
 DD1Dir will call FoFMem   1 times, MxPair=       156
 NAB=    78 NAA=     0 NBB=     0.
 DE(Corr)= -0.80387968     E(CORR)=     -1032.6054344     Delta=-9.63D-06
 NORM(A)=   0.11354533D+01
 Iteration Nr.   8
 **********************
 DD1Dir will call FoFMem   1 times, MxPair=       156
 NAB=    78 NAA=     0 NBB=     0.
 DE(Corr)= -0.80387963     E(CORR)=     -1032.6054343     Delta= 5.60D-08
 NORM(A)=   0.11354616D+01
 Iteration Nr.   9
 **********************
 DD1Dir will call FoFMem   1 times, MxPair=       156
 NAB=    78 NAA=     0 NBB=     0.
 DE(Corr)= -0.80387799     E(CORR)=     -1032.6054327     Delta= 1.64D-06
 NORM(A)=   0.11354609D+01
 Iteration Nr.  10
 **********************
 DD1Dir will call FoFMem   1 times, MxPair=       156
 NAB=    78 NAA=     0 NBB=     0.
 DE(Corr)= -0.80387936     E(CORR)=     -1032.6054341     Delta=-1.37D-06
 NORM(A)=   0.11354626D+01
 Iteration Nr.  11
 **********************
 DD1Dir will call FoFMem   1 times, MxPair=       156
 NAB=    78 NAA=     0 NBB=     0.
 DE(Corr)= -0.80388010     E(CORR)=     -1032.6054348     Delta=-7.44D-07
 NORM(A)=   0.11354638D+01
 Iteration Nr.  12
 **********************
 DD1Dir will call FoFMem   1 times, MxPair=       156
 NAB=    78 NAA=     0 NBB=     0.
 DE(Corr)= -0.80388040     E(CORR)=     -1032.6054351     Delta=-2.99D-07
 NORM(A)=   0.11354645D+01
 Iteration Nr.  13
 **********************
 DD1Dir will call FoFMem   1 times, MxPair=       156
 NAB=    78 NAA=     0 NBB=     0.
 DE(Corr)= -0.80388074     E(CORR)=     -1032.6054355     Delta=-3.36D-07
 NORM(A)=   0.11354650D+01
 Iteration Nr.  14
 **********************
 DD1Dir will call FoFMem   1 times, MxPair=       156
 NAB=    78 NAA=     0 NBB=     0.
 DE(Corr)= -0.80388081     E(CORR)=     -1032.6054355     Delta=-7.04D-08
 NORM(A)=   0.11354652D+01
 Iteration Nr.  15
 **********************
 DD1Dir will call FoFMem   1 times, MxPair=       156
 NAB=    78 NAA=     0 NBB=     0.
 DE(Corr)= -0.80388086     E(CORR)=     -1032.6054356     Delta=-5.30D-08
 NORM(A)=   0.11354653D+01
 Iteration Nr.  16
 **********************
 DD1Dir will call FoFMem   1 times, MxPair=       156
 NAB=    78 NAA=     0 NBB=     0.
 DE(Corr)= -0.80388088     E(CORR)=     -1032.6054356     Delta=-1.55D-08
 NORM(A)=   0.11354653D+01
 Iteration Nr.  17
 **********************
 DD1Dir will call FoFMem   1 times, MxPair=       156
 NAB=    78 NAA=     0 NBB=     0.
 DE(Corr)= -0.80388088     E(CORR)=     -1032.6054356     Delta= 1.36D-10
 NORM(A)=   0.11354653D+01
 Wavefunction amplitudes converged. E(Corr)=     -1032.6054356    
 Largest amplitude= 3.68D-02

 Z-amplitude iterations

 Iteration Nr.   1
 **********************
 DD1Dir will call FoFMem   1 times, MxPair=       156
 NAB=    78 NAA=     0 NBB=     0.
 DE(Z)= -0.77565387     E(Z)=     -1032.5772086     Delta= 2.82D-02
 NORM(A)=   0.11354859D+01
 Iteration Nr.   2
 **********************
 DD1Dir will call FoFMem   1 times, MxPair=       156
 NAB=    78 NAA=     0 NBB=     0.
 DE(Z)= -0.77565451     E(Z)=     -1032.5772092     Delta=-6.47D-07
 NORM(A)=   0.11354871D+01
 Iteration Nr.   3
 **********************
 DD1Dir will call FoFMem   1 times, MxPair=       156
 NAB=    78 NAA=     0 NBB=     0.
 DE(Z)= -0.77565448     E(Z)=     -1032.5772092     Delta= 2.99D-08
 NORM(A)=   0.11354983D+01
 Iteration Nr.   4
 **********************
 DD1Dir will call FoFMem   1 times, MxPair=       156
 NAB=    78 NAA=     0 NBB=     0.
 DE(Z)= -0.77565485     E(Z)=     -1032.5772096     Delta=-3.70D-07
 NORM(A)=   0.11355103D+01
 Iteration Nr.   5
 **********************
 DD1Dir will call FoFMem   1 times, MxPair=       156
 NAB=    78 NAA=     0 NBB=     0.
 DE(Z)= -0.77565525     E(Z)=     -1032.5772100     Delta=-4.00D-07
 NORM(A)=   0.11257073D+01
 Iteration Nr.   6
 **********************
 DD1Dir will call FoFMem   1 times, MxPair=       156
 NAB=    78 NAA=     0 NBB=     0.
 DE(Z)= -0.77534976     E(Z)=     -1032.5769045     Delta= 3.05D-04
 NORM(A)=   0.11257081D+01
 Iteration Nr.   7
 **********************
 DD1Dir will call FoFMem   1 times, MxPair=       156
 NAB=    78 NAA=     0 NBB=     0.
 DE(Z)= -0.77534968     E(Z)=     -1032.5769044     Delta= 7.40D-08
 NORM(A)=   0.11257091D+01
 Iteration Nr.   8
 **********************
 DD1Dir will call FoFMem   1 times, MxPair=       156
 NAB=    78 NAA=     0 NBB=     0.
 DE(Z)= -0.77534936     E(Z)=     -1032.5769041     Delta= 3.22D-07
 NORM(A)=   0.11257094D+01
 Iteration Nr.   9
 **********************
 DD1Dir will call FoFMem   1 times, MxPair=       156
 NAB=    78 NAA=     0 NBB=     0.
 DE(Z)= -0.77534976     E(Z)=     -1032.5769045     Delta=-3.96D-07
 NORM(A)=   0.11257098D+01
 Iteration Nr.  10
 **********************
 DD1Dir will call FoFMem   1 times, MxPair=       156
 NAB=    78 NAA=     0 NBB=     0.
 DE(Z)= -0.77534956     E(Z)=     -1032.5769043     Delta= 1.95D-07
 NORM(A)=   0.11257099D+01
 Iteration Nr.  11
 **********************
 DD1Dir will call FoFMem   1 times, MxPair=       156
 NAB=    78 NAA=     0 NBB=     0.
 DE(Z)= -0.77534968     E(Z)=     -1032.5769044     Delta=-1.17D-07
 NORM(A)=   0.11257099D+01
 Iteration Nr.  12
 **********************
 DD1Dir will call FoFMem   1 times, MxPair=       156
 NAB=    78 NAA=     0 NBB=     0.
 DE(Z)= -0.77534967     E(Z)=     -1032.5769044     Delta= 1.28D-08
 NORM(A)=   0.11257100D+01
 Iteration Nr.  13
 **********************
 DD1Dir will call FoFMem   1 times, MxPair=       156
 NAB=    78 NAA=     0 NBB=     0.
 DE(Z)= -0.77534967     E(Z)=     -1032.5769044     Delta=-6.03D-09
 NORM(A)=   0.11257100D+01
 Z-amplitudes converged.
 Discarding MO integrals.
          Differentiating once with respect to electric field.
                with respect to dipole field.
          Electric field/nuclear overlap derivatives assumed to be zero.
 Keep R1 ints in memory in canonical form, NReq=179717398.
          There are     1 degrees of freedom in the 1st order CPHF.  IDoFFX=0 NUNeed=     1.
 LinEq1:  Iter=  0 NonCon=     1 RMS=2.36D-03 Max=6.04D-02 NDo=     1
 AX will form     1 AO Fock derivatives at one time.
 LinEq1:  Iter=  1 NonCon=     1 RMS=8.36D-04 Max=1.77D-02 NDo=     1
 LinEq1:  Iter=  2 NonCon=     1 RMS=3.14D-04 Max=4.75D-03 NDo=     1
 LinEq1:  Iter=  3 NonCon=     1 RMS=1.30D-04 Max=3.43D-03 NDo=     1
 LinEq1:  Iter=  4 NonCon=     1 RMS=5.25D-05 Max=1.24D-03 NDo=     1
 LinEq1:  Iter=  5 NonCon=     1 RMS=1.66D-05 Max=3.32D-04 NDo=     1
 LinEq1:  Iter=  6 NonCon=     1 RMS=4.26D-06 Max=6.81D-05 NDo=     1
 LinEq1:  Iter=  7 NonCon=     1 RMS=1.02D-06 Max=1.21D-05 NDo=     1
 LinEq1:  Iter=  8 NonCon=     1 RMS=2.18D-07 Max=3.20D-06 NDo=     1
 LinEq1:  Iter=  9 NonCon=     1 RMS=4.95D-08 Max=7.50D-07 NDo=     1
 LinEq1:  Iter= 10 NonCon=     1 RMS=1.26D-08 Max=2.35D-07 NDo=     1
 LinEq1:  Iter= 11 NonCon=     1 RMS=2.64D-09 Max=3.99D-08 NDo=     1
 LinEq1:  Iter= 12 NonCon=     1 RMS=4.87D-10 Max=1.22D-08 NDo=     1
 LinEq1:  Iter= 13 NonCon=     1 RMS=8.22D-11 Max=1.40D-09 NDo=     1
 LinEq1:  Iter= 14 NonCon=     0 RMS=1.17D-11 Max=1.41D-10 NDo=     1
 Linear equations converged to 1.000D-10 1.000D-09 after    14 iterations.
 End of Minotr F.D. properties file   721 does not exist.
 End of Minotr F.D. properties file   722 does not exist.
 End of Minotr F.D. properties file   788 does not exist.

 **********************************************************************

            Population analysis using the CC Density.

 **********************************************************************

 Alpha  occ. eigenvalues -- -104.89145-104.89145 -20.62353 -11.47814 -10.61579
 Alpha  occ. eigenvalues --  -10.61577  -8.08256  -8.08256  -8.08044  -8.08044
 Alpha  occ. eigenvalues --   -8.08027  -8.08026  -1.47834  -1.20351  -1.14109
 Alpha  occ. eigenvalues --   -0.81262  -0.70532  -0.69955  -0.64535  -0.53152
 Alpha  occ. eigenvalues --   -0.50236  -0.49823  -0.49579  -0.47758
 Alpha virt. eigenvalues --    0.04758   0.06593   0.07997   0.08481   0.09207
 Alpha virt. eigenvalues --    0.09804   0.11380   0.12499   0.12756   0.13434
 Alpha virt. eigenvalues --    0.15660   0.15868   0.22064   0.22173   0.23695
 Alpha virt. eigenvalues --    0.23850   0.25322   0.26161   0.27999   0.30385
 Alpha virt. eigenvalues --    0.30979   0.31679   0.36287   0.39516   0.43777
 Alpha virt. eigenvalues --    0.44099   0.44189   0.45723   0.47051   0.48352
 Alpha virt. eigenvalues --    0.50837   0.51297   0.51944   0.52334   0.54878
 Alpha virt. eigenvalues --    0.62231   0.64255   0.69105   0.69736   0.71243
 Alpha virt. eigenvalues --    0.71444   0.73442   0.75908   0.79575   0.81250
 Alpha virt. eigenvalues --    0.81582   0.83201   0.83413   0.87020   0.88637
 Alpha virt. eigenvalues --    0.89040   0.91447   0.93312   0.93755   0.94617
 Alpha virt. eigenvalues --    0.96075   0.96443   1.04883   1.05915   1.08774
 Alpha virt. eigenvalues --    1.09471   1.12541   1.14793   1.16018   1.17358
 Alpha virt. eigenvalues --    1.21158   1.23077   1.24121   1.26665   1.33606
 Alpha virt. eigenvalues --    1.36741   1.39292   1.42497   1.46461   1.46686
 Alpha virt. eigenvalues --    1.47053   1.47550   1.56033   1.57896   1.61866
 Alpha virt. eigenvalues --    1.67705   1.67860   1.69337   1.72681   1.80518
 Alpha virt. eigenvalues --    1.81652   1.82440   1.83168   1.85500   2.00624
 Alpha virt. eigenvalues --    2.06997   2.25745   2.28445   2.33477   2.34117
 Alpha virt. eigenvalues --    2.39345   2.44549   2.44953   2.48596   2.49107
 Alpha virt. eigenvalues --    2.52112   2.54362   2.57885   2.58993   2.60288
 Alpha virt. eigenvalues --    2.62079   2.63397   2.66006   2.70100   2.76407
 Alpha virt. eigenvalues --    2.76847   2.81201   2.88446   2.88652   2.91161
 Alpha virt. eigenvalues --    2.92347   2.94692   2.97634   2.99150   3.02278
 Alpha virt. eigenvalues --    3.02510   3.05260   3.06356   3.07105   3.07594
 Alpha virt. eigenvalues --    3.10757   3.13116   3.16124   3.20052   3.21564
 Alpha virt. eigenvalues --    3.24990   3.26538   3.51407   3.53148   3.59656
 Alpha virt. eigenvalues --    3.62740   3.64044   3.70052   3.82310   3.83438
 Alpha virt. eigenvalues --    3.94365   3.96086   4.02651   4.14611   4.18734
 Alpha virt. eigenvalues --    4.42698   4.50923   4.60350   4.75479   5.09813
 Alpha virt. eigenvalues --    5.44085   5.61814   6.56339   6.57740   6.86012
 Alpha virt. eigenvalues --    6.86762   7.03509   7.09623   7.17635   7.18483
 Alpha virt. eigenvalues --    7.19085   7.27000   7.50477   7.50689   7.66853
 Alpha virt. eigenvalues --    7.71500  13.17894  15.50159
          Condensed to atoms (all electrons):
               1          2          3          4
     1  O    8.042766   0.429453  -0.073105  -0.073105
     2  C    0.429453   4.973764   0.135846   0.135846
     3  Cl  -0.073105   0.135846  17.036354  -0.099554
     4  Cl  -0.073105   0.135846  -0.099554  17.036354
 Mulliken charges:
               1
     1  O   -0.326009
     2  C    0.325090
     3  Cl   0.000459
     4  Cl   0.000459
 Sum of Mulliken charges =  -0.00000
 Mulliken charges with hydrogens summed into heavy atoms:
               1
     1  O   -0.326009
     2  C    0.325090
     3  Cl   0.000459
     4  Cl   0.000459
 Electronic spatial extent (au):  <R**2>=            614.0374
 Charge=             -0.0000 electrons
 Dipole moment (field-independent basis, Debye):
    X=             -0.0000    Y=              0.0000    Z=             -1.2965  Tot=              1.2965
 Quadrupole moment (field-independent basis, Debye-Ang):
   XX=            -35.1040   YY=            -34.3353   ZZ=            -36.2575
   XY=              0.0000   XZ=              0.0000   YZ=             -0.0000
 Traceless Quadrupole moment (field-independent basis, Debye-Ang):
   XX=              0.1283   YY=              0.8969   ZZ=             -1.0253
   XY=              0.0000   XZ=              0.0000   YZ=             -0.0000
 Octapole moment (field-independent basis, Debye-Ang**2):
  XXX=              0.0000  YYY=              0.0000  ZZZ=            105.8561  XYY=             -0.0000
  XXY=              0.0000  XXZ=             35.9772  XZZ=             -0.0000  YZZ=              0.0000
  YYZ=             29.5088  XYZ=             -0.0000
 Hexadecapole moment (field-independent basis, Debye-Ang**3):
 XXXX=            -37.1544 YYYY=           -328.9198 ZZZZ=           -383.2236 XXXY=              0.0000
 XXXZ=              0.0000 YYYX=              0.0000 YYYZ=             -0.0000 ZZZX=              0.0000
 ZZZY=             -0.0000 XXYY=            -65.2170 XXZZ=            -71.1311 YYZZ=           -106.7398
 XXYZ=             -0.0000 YYXZ=              0.0000 ZZXY=              0.0000
 N-N= 1.914073300860D+02 E-N=-2.837002455329D+03  KE= 1.032376112611D+03
 There are a total of       90730 grid points.
 ElSum from          density=       48.0000000982
 ElSum from atomic densities=       48.0000006554

 Hirshfeld populations at iteration   1 (CX, CA, CB, DipXYZ):
               1          2          3          4          5          6
     1  O    0.000007   4.094403   4.094403  -0.000000   0.000000  -0.045398
     2  C    0.000001   2.894652   2.894652   0.000000   0.000000  -0.058699
     3  Cl   0.000011   8.505473   8.505473  -0.000000  -0.067600  -0.011218
     4  Cl   0.000011   8.505473   8.505473   0.000000   0.067600  -0.011218
       Tot   0.000030  24.000000  24.000000   0.000000   0.000000  -0.126533

 Dip from Atomic Chgs              0.000000   0.000000  -0.383559
         Total Dipole              0.000000   0.000000  -0.510092

 Hirshfeld charges, spin densities, dipoles, and CM5 charges using IRadAn=      5:
              Q-H        S-H        Dx         Dy         Dz        Q-CM5   
     1  O   -0.188805   0.000000  -0.000000   0.000000  -0.045398  -0.233986
     2  C    0.210695   0.000000   0.000000   0.000000  -0.058699   0.248852
     3  Cl  -0.010945   0.000000  -0.000000  -0.067600  -0.011218  -0.007433
     4  Cl  -0.010945   0.000000   0.000000   0.067600  -0.011218  -0.007433
       Tot  -0.000000   0.000000   0.000000   0.000000  -0.126533  -0.000000
 Hirshfeld charges with hydrogens summed into heavy atoms:
              Q-H       Q-CM5   
     1  O   -0.188805  -0.233986
     2  C    0.210695   0.248852
     3  Cl  -0.010945  -0.007433
     4  Cl  -0.010945  -0.007433
 
 EQQ= 0.000000000000E+00 EQD= 0.000000000000E+00 EDD= 0.253593396501E-03
 EQQ+QD+DD= 0.253593396501E-03
 
 Breneman (CHELPG) radii used.
 Generate Potential Derived Charges using the Breneman model, NDens= 1.
 Grid spacing= 0.300 Box extension= 2.800
 NStep X,Y,Z=   20     30     27   Total possible points=       16200
 Number of Points to Fit=    4528

 **********************************************************************

            Electrostatic Properties Using The CC Density.

 **********************************************************************

       Atomic Center    1 is at   0.000000  0.000000  0.693397
       Atomic Center    2 is at   0.000000  0.000000 -0.494687
       Atomic Center    3 is at   0.000000 -1.446870 -1.469805
       Atomic Center    4 is at   0.000000  1.446870 -1.469805
    4528 points will be used for fitting atomic charges
 Fitting point charges to electrostatic potential
 The dipole moment will be constrained to the correct value
 Charges from ESP fit, RMS=   0.00563 RRMS=   0.48974:
 ESP charges:
               1
     1  O   -0.329871
     2  C    0.454968
     3  Cl  -0.062549
     4  Cl  -0.062549
 Sum of ESP charges =   0.00000
 ESP charges with hydrogens summed into heavy atoms:
               1
     1  O   -0.329871
     2  C    0.454968
     3  Cl  -0.062549
     4  Cl  -0.062549
 Charge=   0.00000 Dipole=     0.0000    -0.0000    -1.2965 Tot=     1.2965
 -----------------------------------------------------------------

              Electrostatic Properties (Atomic Units)

 -----------------------------------------------------------------
    Center     Electric         -------- Electric Field --------
               Potential          X             Y             Z
 -----------------------------------------------------------------
    1 Atom    -22.284729
    2 Atom    -14.534785
    3 Atom    -64.373566
    4 Atom    -64.373566
 -----------------------------------------------------------------
 ******************************Gaussian NBO Version 3.1******************************
             N A T U R A L   A T O M I C   O R B I T A L   A N D
          N A T U R A L   B O N D   O R B I T A L   A N A L Y S I S
 ******************************Gaussian NBO Version 3.1******************************
       /RESON  / : Allow strongly delocalized NBO set

 Analyzing the QCI/CC density

 Job title: cl2co-wavefunction                                              

 Storage needed:    111522 in NPA (2147483536 available)
 GSVD:  LWork=        6614 too small for GESVD, short by       52797 words or       52797 for optimal perf.


 NATURAL POPULATIONS:  Natural atomic orbital occupancies 
                                                          
   NAO  Atom  No  lang   Type(AO)    Occupancy
 --------------------------------------------
     1    O    1  S      Cor( 1S)     1.99952
     2    O    1  S      Val( 2S)     1.68542
     3    O    1  S      Ryd( 3S)     0.00635
     4    O    1  S      Ryd( 4S)     0.00039
     5    O    1  S      Ryd( 5S)     0.00029
     6    O    1  px     Val( 2p)     1.35925
     7    O    1  px     Ryd( 3p)     0.00710
     8    O    1  px     Ryd( 4p)     0.00050
     9    O    1  px     Ryd( 5p)     0.00007
    10    O    1  py     Val( 2p)     1.74830
    11    O    1  py     Ryd( 3p)     0.01324
    12    O    1  py     Ryd( 4p)     0.00065
    13    O    1  py     Ryd( 5p)     0.00014
    14    O    1  pz     Val( 2p)     1.57211
    15    O    1  pz     Ryd( 3p)     0.00648
    16    O    1  pz     Ryd( 4p)     0.00050
    17    O    1  pz     Ryd( 5p)     0.00011
    18    O    1  dxy    Ryd( 3d)     0.00545
    19    O    1  dxy    Ryd( 4d)     0.00038
    20    O    1  dxy    Ryd( 5d)     0.00008
    21    O    1  dxz    Ryd( 3d)     0.01137
    22    O    1  dxz    Ryd( 4d)     0.00031
    23    O    1  dxz    Ryd( 5d)     0.00010
    24    O    1  dyz    Ryd( 3d)     0.01177
    25    O    1  dyz    Ryd( 4d)     0.00046
    26    O    1  dyz    Ryd( 5d)     0.00013
    27    O    1  dx2y2  Ryd( 3d)     0.00536
    28    O    1  dx2y2  Ryd( 4d)     0.00037
    29    O    1  dx2y2  Ryd( 5d)     0.00009
    30    O    1  dz2    Ryd( 3d)     0.02003
    31    O    1  dz2    Ryd( 4d)     0.00043
    32    O    1  dz2    Ryd( 5d)     0.00021
    33    O    1  f(0)   Ryd( 4f)     0.00129
    34    O    1  f(0)   Ryd( 5f)     0.00013
    35    O    1  f(C1)  Ryd( 4f)     0.00065
    36    O    1  f(C1)  Ryd( 5f)     0.00010
    37    O    1  f(S1)  Ryd( 4f)     0.00078
    38    O    1  f(S1)  Ryd( 5f)     0.00013
    39    O    1  f(C2)  Ryd( 4f)     0.00046
    40    O    1  f(C2)  Ryd( 5f)     0.00009
    41    O    1  f(S2)  Ryd( 4f)     0.00047
    42    O    1  f(S2)  Ryd( 5f)     0.00009
    43    O    1  f(C3)  Ryd( 4f)     0.00044
    44    O    1  f(C3)  Ryd( 5f)     0.00006
    45    O    1  f(S3)  Ryd( 4f)     0.00045
    46    O    1  f(S3)  Ryd( 5f)     0.00007

    47    C    2  S      Cor( 1S)     1.99943
    48    C    2  S      Val( 2S)     0.95123
    49    C    2  S      Ryd( 3S)     0.00943
    50    C    2  S      Ryd( 4S)     0.00017
    51    C    2  S      Ryd( 5S)     0.00010
    52    C    2  px     Val( 2p)     0.80640
    53    C    2  px     Ryd( 3p)     0.00756
    54    C    2  px     Ryd( 4p)     0.00059
    55    C    2  px     Ryd( 5p)     0.00018
    56    C    2  py     Val( 2p)     0.90054
    57    C    2  py     Ryd( 3p)     0.01101
    58    C    2  py     Ryd( 4p)     0.00067
    59    C    2  py     Ryd( 5p)     0.00039
    60    C    2  pz     Val( 2p)     0.80646
    61    C    2  pz     Ryd( 3p)     0.02803
    62    C    2  pz     Ryd( 5p)     0.00032
    63    C    2  pz     Ryd( 4p)     0.00057
    64    C    2  dxy    Ryd( 3d)     0.00872
    65    C    2  dxy    Ryd( 4d)     0.00030
    66    C    2  dxy    Ryd( 5d)     0.00014
    67    C    2  dxz    Ryd( 3d)     0.00834
    68    C    2  dxz    Ryd( 4d)     0.00067
    69    C    2  dxz    Ryd( 5d)     0.00027
    70    C    2  dyz    Ryd( 3d)     0.01145
    71    C    2  dyz    Ryd( 4d)     0.00082
    72    C    2  dyz    Ryd( 5d)     0.00024
    73    C    2  dx2y2  Ryd( 3d)     0.00613
    74    C    2  dx2y2  Ryd( 5d)     0.00024
    75    C    2  dx2y2  Ryd( 4d)     0.00027
    76    C    2  dz2    Ryd( 3d)     0.00692
    77    C    2  dz2    Ryd( 4d)     0.00046
    78    C    2  dz2    Ryd( 5d)     0.00025
    79    C    2  f(0)   Ryd( 4f)     0.00277
    80    C    2  f(0)   Ryd( 5f)     0.00036
    81    C    2  f(C1)  Ryd( 4f)     0.00179
    82    C    2  f(C1)  Ryd( 5f)     0.00042
    83    C    2  f(S1)  Ryd( 4f)     0.00302
    84    C    2  f(S1)  Ryd( 5f)     0.00058
    85    C    2  f(C2)  Ryd( 4f)     0.00182
    86    C    2  f(C2)  Ryd( 5f)     0.00023
    87    C    2  f(S2)  Ryd( 4f)     0.00173
    88    C    2  f(S2)  Ryd( 5f)     0.00025
    89    C    2  f(C3)  Ryd( 4f)     0.00144
    90    C    2  f(C3)  Ryd( 5f)     0.00021
    91    C    2  f(S3)  Ryd( 4f)     0.00150
    92    C    2  f(S3)  Ryd( 5f)     0.00018

    93   Cl    3  S      Cor( 1S)     2.00000
    94   Cl    3  S      Cor( 2S)     1.99939
    95   Cl    3  S      Val( 3S)     1.84203
    96   Cl    3  S      Ryd( 4S)     0.00531
    97   Cl    3  S      Ryd( 5S)     0.00031
    98   Cl    3  S      Ryd( 6S)     0.00021
    99   Cl    3  px     Cor( 2p)     2.00002
   100   Cl    3  px     Val( 3p)     1.85017
   101   Cl    3  px     Ryd( 4p)     0.00798
   102   Cl    3  px     Ryd( 5p)     0.00046
   103   Cl    3  px     Ryd( 6p)     0.00007
   104   Cl    3  py     Cor( 2p)     1.99994
   105   Cl    3  py     Val( 3p)     1.43330
   106   Cl    3  py     Ryd( 4p)     0.00607
   107   Cl    3  py     Ryd( 5p)     0.00050
   108   Cl    3  py     Ryd( 6p)     0.00006
   109   Cl    3  pz     Cor( 2p)     1.99999
   110   Cl    3  pz     Val( 3p)     1.71219
   111   Cl    3  pz     Ryd( 4p)     0.00716
   112   Cl    3  pz     Ryd( 5p)     0.00046
   113   Cl    3  pz     Ryd( 6p)     0.00010
   114   Cl    3  dxy    Ryd( 3d)     0.01817
   115   Cl    3  dxy    Ryd( 4d)     0.00051
   116   Cl    3  dxy    Ryd( 5d)     0.00012
   117   Cl    3  dxz    Ryd( 3d)     0.01839
   118   Cl    3  dxz    Ryd( 4d)     0.00061
   119   Cl    3  dxz    Ryd( 5d)     0.00013
   120   Cl    3  dyz    Ryd( 3d)     0.02339
   121   Cl    3  dyz    Ryd( 4d)     0.00047
   122   Cl    3  dyz    Ryd( 5d)     0.00012
   123   Cl    3  dx2y2  Ryd( 3d)     0.02010
   124   Cl    3  dx2y2  Ryd( 4d)     0.00051
   125   Cl    3  dx2y2  Ryd( 5d)     0.00012
   126   Cl    3  dz2    Ryd( 3d)     0.01715
   127   Cl    3  dz2    Ryd( 4d)     0.00052
   128   Cl    3  dz2    Ryd( 5d)     0.00017
   129   Cl    3  f(0)   Ryd( 4f)     0.00132
   130   Cl    3  f(0)   Ryd( 5f)     0.00013
   131   Cl    3  f(C1)  Ryd( 4f)     0.00132
   132   Cl    3  f(C1)  Ryd( 5f)     0.00012
   133   Cl    3  f(S1)  Ryd( 4f)     0.00129
   134   Cl    3  f(S1)  Ryd( 5f)     0.00017
   135   Cl    3  f(C2)  Ryd( 4f)     0.00156
   136   Cl    3  f(C2)  Ryd( 5f)     0.00013
   137   Cl    3  f(S2)  Ryd( 4f)     0.00132
   138   Cl    3  f(S2)  Ryd( 5f)     0.00014
   139   Cl    3  f(C3)  Ryd( 4f)     0.00130
   140   Cl    3  f(C3)  Ryd( 5f)     0.00013
   141   Cl    3  f(S3)  Ryd( 4f)     0.00134
   142   Cl    3  f(S3)  Ryd( 5f)     0.00013

   143   Cl    4  S      Cor( 1S)     2.00000
   144   Cl    4  S      Cor( 2S)     1.99939
   145   Cl    4  S      Val( 3S)     1.84203
   146   Cl    4  S      Ryd( 4S)     0.00531
   147   Cl    4  S      Ryd( 5S)     0.00031
   148   Cl    4  S      Ryd( 6S)     0.00021
   149   Cl    4  px     Cor( 2p)     2.00002
   150   Cl    4  px     Val( 3p)     1.85017
   151   Cl    4  px     Ryd( 4p)     0.00798
   152   Cl    4  px     Ryd( 5p)     0.00046
   153   Cl    4  px     Ryd( 6p)     0.00007
   154   Cl    4  py     Cor( 2p)     1.99994
   155   Cl    4  py     Val( 3p)     1.43330
   156   Cl    4  py     Ryd( 4p)     0.00607
   157   Cl    4  py     Ryd( 5p)     0.00050
   158   Cl    4  py     Ryd( 6p)     0.00006
   159   Cl    4  pz     Cor( 2p)     1.99999
   160   Cl    4  pz     Val( 3p)     1.71219
   161   Cl    4  pz     Ryd( 4p)     0.00716
   162   Cl    4  pz     Ryd( 5p)     0.00046
   163   Cl    4  pz     Ryd( 6p)     0.00010
   164   Cl    4  dxy    Ryd( 3d)     0.01817
   165   Cl    4  dxy    Ryd( 4d)     0.00051
   166   Cl    4  dxy    Ryd( 5d)     0.00012
   167   Cl    4  dxz    Ryd( 3d)     0.01839
   168   Cl    4  dxz    Ryd( 4d)     0.00061
   169   Cl    4  dxz    Ryd( 5d)     0.00013
   170   Cl    4  dyz    Ryd( 3d)     0.02339
   171   Cl    4  dyz    Ryd( 4d)     0.00047
   172   Cl    4  dyz    Ryd( 5d)     0.00012
   173   Cl    4  dx2y2  Ryd( 3d)     0.02010
   174   Cl    4  dx2y2  Ryd( 4d)     0.00051
   175   Cl    4  dx2y2  Ryd( 5d)     0.00012
   176   Cl    4  dz2    Ryd( 3d)     0.01715
   177   Cl    4  dz2    Ryd( 4d)     0.00052
   178   Cl    4  dz2    Ryd( 5d)     0.00017
   179   Cl    4  f(0)   Ryd( 4f)     0.00132
   180   Cl    4  f(0)   Ryd( 5f)     0.00013
   181   Cl    4  f(C1)  Ryd( 4f)     0.00132
   182   Cl    4  f(C1)  Ryd( 5f)     0.00012
   183   Cl    4  f(S1)  Ryd( 4f)     0.00129
   184   Cl    4  f(S1)  Ryd( 5f)     0.00017
   185   Cl    4  f(C2)  Ryd( 4f)     0.00156
   186   Cl    4  f(C2)  Ryd( 5f)     0.00013
   187   Cl    4  f(S2)  Ryd( 4f)     0.00132
   188   Cl    4  f(S2)  Ryd( 5f)     0.00014
   189   Cl    4  f(C3)  Ryd( 4f)     0.00130
   190   Cl    4  f(C3)  Ryd( 5f)     0.00013
   191   Cl    4  f(S3)  Ryd( 4f)     0.00134
   192   Cl    4  f(S3)  Ryd( 5f)     0.00013


 Summary of Natural Population Analysis:                  
                                                          
                                       Natural Population 
                Natural  -----------------------------------------------
    Atom  No    Charge         Core      Valence    Rydberg      Total
 -----------------------------------------------------------------------
      O    1   -0.46217      1.99952     6.36508    0.09757     8.46217
      C    2    0.41543      1.99943     3.46462    0.12052     5.58457
     Cl    3    0.02337      9.99934     6.83769    0.13959    16.97663
     Cl    4    0.02337      9.99934     6.83769    0.13959    16.97663
 =======================================================================
   * Total *   -0.00000     23.99764    23.50509    0.49727    48.00000

                                 Natural Population      
 --------------------------------------------------------
   Core                      23.99764 ( 99.9902% of  24)
   Valence                   23.50509 ( 97.9379% of  24)
   Natural Minimal Basis     47.50273 ( 98.9640% of  48)
   Natural Rydberg Basis      0.49727 (  1.0360% of  48)
 --------------------------------------------------------

    Atom  No          Natural Electron Configuration
 ----------------------------------------------------------------------------
      O    1      [core]2S( 1.69)2p( 4.68)3S( 0.01)3p( 0.03)3d( 0.05)
      C    2      [core]2S( 0.95)2p( 2.51)3S( 0.01)3p( 0.05)3d( 0.04)4f( 0.01)
     Cl    3      [core]3S( 1.84)3p( 5.00)4S( 0.01)3d( 0.10)4p( 0.02)4f( 0.01)
     Cl    4      [core]3S( 1.84)3p( 5.00)4S( 0.01)3d( 0.10)4p( 0.02)4f( 0.01)


 NBO analysis skipped by request.
 Unable to Open any file for archive entry.
 1\1\GINC-TRAPISTA\SP\RQCISD-FC\Aug-CC-pVTZ\C1Cl2O1\WAGNER\03-Sep-2022\
 0\\# qcisd/aug-cc-pvtz nosymm density=current pop=(chelpg,hirshfeld,np
 a,dipole)\\cl2co-wavefunction\\0,1\O,0,0.,0.,0.693397\C,0,0.,0.,-0.494
 687\Cl,0,0.,-1.44687,-1.469805\Cl,0,0.,1.44687,-1.469805\\Version=EM64
 L-G16RevC.01\HF=-1031.8015547\MP2=-1032.582223\MP3=-1032.6007499\MP4D=
 -1032.6206602\MP4DQ=-1032.5980328\MP4SDQ=-1032.6072179\QCISD=-1032.605
 4356\RMSD=6.944e-09\Dipole=0.,0.,-0.5100935\Quadrupole=0.0953964,0.666
 8574,-0.7622538,0.,0.,0.\PG=C02V [C2(C1O1),SGV(Cl2)]\\@
 The archive entry for this job was punched.


 WERE I TO AWAIT PERFECTION, MY BOOK WOULD NEVER BE FINISHED.
                                    -- HISTORY OF CHINESE WRITING

                                       TAI T'UNG, 13TH CENTURY
 Job cpu time:       0 days  7 hours  3 minutes 26.0 seconds.
 Elapsed time:       0 days  0 hours 26 minutes 50.5 seconds.
 File lengths (MBytes):  RWF=  22679 Int=      0 D2E=      0 Chk=      4 Scr=      1
 Normal termination of Gaussian 16 at Sat Sep  3 21:45:59 2022.
