 Entering Gaussian System, Link 0=/home/wagner/chemistry/gaussian/g16/g16
 Input=GAUSSIAN.com
 Output=GAUSSIAN.log
 Initial command:
 /home/wagner/chemistry/gaussian/g16/l1.exe "/home/wagner/chemistry/gaussian/work/Gau-32565.inp" -scrdir="/home/wagner/chemistry/gaussian/work/"
 Entering Link 1 = /home/wagner/chemistry/gaussian/g16/l1.exe PID=     32567.
  
 Copyright (c) 1988-2019, Gaussian, Inc.  All Rights Reserved.
  
 This is part of the Gaussian(R) 16 program.  It is based on
 the Gaussian(R) 09 system (copyright 2009, Gaussian, Inc.),
 the Gaussian(R) 03 system (copyright 2003, Gaussian, Inc.),
 the Gaussian(R) 98 system (copyright 1998, Gaussian, Inc.),
 the Gaussian(R) 94 system (copyright 1995, Gaussian, Inc.),
 the Gaussian 92(TM) system (copyright 1992, Gaussian, Inc.),
 the Gaussian 90(TM) system (copyright 1990, Gaussian, Inc.),
 the Gaussian 88(TM) system (copyright 1988, Gaussian, Inc.),
 the Gaussian 86(TM) system (copyright 1986, Carnegie Mellon
 University), and the Gaussian 82(TM) system (copyright 1983,
 Carnegie Mellon University). Gaussian is a federally registered
 trademark of Gaussian, Inc.
  
 This software contains proprietary and confidential information,
 including trade secrets, belonging to Gaussian, Inc.
  
 This software is provided under written license and may be
 used, copied, transmitted, or stored only in accord with that
 written license.
  
 The following legend is applicable only to US Government
 contracts under FAR:
  
                    RESTRICTED RIGHTS LEGEND
  
 Use, reproduction and disclosure by the US Government is
 subject to restrictions as set forth in subparagraphs (a)
 and (c) of the Commercial Computer Software - Restricted
 Rights clause in FAR 52.227-19.
  
 Gaussian, Inc.
 340 Quinnipiac St., Bldg. 40, Wallingford CT 06492
  
  
 ---------------------------------------------------------------
 Warning -- This program may not be used in any manner that
 competes with the business of Gaussian, Inc. or will provide
 assistance to any competitor of Gaussian, Inc.  The licensee
 of this program is prohibited from giving any competitor of
 Gaussian, Inc. access to this program.  By using this program,
 the user acknowledges that Gaussian, Inc. is engaged in the
 business of creating and licensing software in the field of
 computational chemistry and represents and warrants to the
 licensee that it is not a competitor of Gaussian, Inc. and that
 it will not use this program in any manner prohibited above.
 ---------------------------------------------------------------
  

 Cite this work as:
 Gaussian 16, Revision C.01,
 M. J. Frisch, G. W. Trucks, H. B. Schlegel, G. E. Scuseria, 
 M. A. Robb, J. R. Cheeseman, G. Scalmani, V. Barone, 
 G. A. Petersson, H. Nakatsuji, X. Li, M. Caricato, A. V. Marenich, 
 J. Bloino, B. G. Janesko, R. Gomperts, B. Mennucci, H. P. Hratchian, 
 J. V. Ortiz, A. F. Izmaylov, J. L. Sonnenberg, D. Williams-Young, 
 F. Ding, F. Lipparini, F. Egidi, J. Goings, B. Peng, A. Petrone, 
 T. Henderson, D. Ranasinghe, V. G. Zakrzewski, J. Gao, N. Rega, 
 G. Zheng, W. Liang, M. Hada, M. Ehara, K. Toyota, R. Fukuda, 
 J. Hasegawa, M. Ishida, T. Nakajima, Y. Honda, O. Kitao, H. Nakai, 
 T. Vreven, K. Throssell, J. A. Montgomery, Jr., J. E. Peralta, 
 F. Ogliaro, M. J. Bearpark, J. J. Heyd, E. N. Brothers, K. N. Kudin, 
 V. N. Staroverov, T. A. Keith, R. Kobayashi, J. Normand, 
 K. Raghavachari, A. P. Rendell, J. C. Burant, S. S. Iyengar, 
 J. Tomasi, M. Cossi, J. M. Millam, M. Klene, C. Adamo, R. Cammi, 
 J. W. Ochterski, R. L. Martin, K. Morokuma, O. Farkas, 
 J. B. Foresman, and D. J. Fox, Gaussian, Inc., Wallingford CT, 2019.
 
 ******************************************
 Gaussian 16:  EM64L-G16RevC.01  3-Jul-2019
                 4-Sep-2022 
 ******************************************
 %nproc=16
 Will use up to   16 processors via shared memory.
 %mem=16GB
 ----------------------------------------------------------------------
 # qcisd/aug-cc-pvtz nosymm density=current pop=(chelpg,hirshfeld,npa,d
 ipole)
 ----------------------------------------------------------------------
 1/30=1,38=1,172=1/1;
 2/12=2,15=1,17=6,18=5,40=1/2;
 3/5=16,6=1,7=10,11=9,25=1,30=1,71=1/1,2,3;
 4//1;
 5/5=2,38=5/2;
 8/6=4,9=120000,10=1/1,4;
 9/5=8,15=1/13;
 11/28=-7,31=1,32=3,42=3/11;
 10/5=6,13=10,31=1/2;
 6/7=2,8=2,9=2,10=2,15=24,20=3,22=-1,40=-1,79=1/1,2,7;
 99/5=1,9=1/99;
 ------------------
 cl2co-wavefunction
 ------------------
 Symbolic Z-matrix:
 Charge =  0 Multiplicity = 1
 O                     0.        0.        0.6834 
 C                     0.        0.       -0.50469 
 Cl                    0.       -1.44687  -1.46981 
 Cl                    0.        1.44687  -1.46981 
 
                          Input orientation:                          
 ---------------------------------------------------------------------
 Center     Atomic      Atomic             Coordinates (Angstroms)
 Number     Number       Type             X           Y           Z
 ---------------------------------------------------------------------
      1          8           0        0.000000    0.000000    0.683397
      2          6           0        0.000000    0.000000   -0.504687
      3         17           0        0.000000   -1.446870   -1.469805
      4         17           0        0.000000    1.446870   -1.469805
 ---------------------------------------------------------------------
                    Distance matrix (angstroms):
                    1          2          3          4
     1  O    0.000000
     2  C    1.188084   0.000000
     3  Cl   2.594169   1.739220   0.000000
     4  Cl   2.594169   1.739220   2.893740   0.000000
 Symmetry turned off by external request.
 Stoichiometry    CCl2O
 Framework group  C2V[C2(CO),SGV(Cl2)]
 Deg. of freedom     3
 Full point group                 C2V     NOp   4
 Rotational constants (GHZ):           7.9328352           3.4518093           2.4052252
 Standard basis: Aug-CC-pVTZ (5D, 7F)
   192 basis functions,   372 primitive gaussians,   228 cartesian basis functions
    24 alpha electrons       24 beta electrons
       nuclear repulsion energy       191.7825274833 Hartrees.
 NAtoms=    4 NActive=    4 NUniq=    4 SFac= 1.00D+00 NAtFMM=   60 NAOKFM=F Big=F
 Integral buffers will be    131072 words long.
 Raffenetti 1 integral format.
 Two-electron integral symmetry is turned off.
 One-electron integrals computed using PRISM.
 NBasis=   192 RedAO= T EigKep=  1.42D-04  NBF=   192
 NBsUse=   192 1.00D-06 EigRej= -1.00D+00 NBFU=   192
 ExpMin= 3.57D-02 ExpMax= 4.56D+05 ExpMxC= 1.44D+03 IAcc=3 IRadAn=         5 AccDes= 0.00D+00
 Harris functional with IExCor=  205 and IRadAn=       5 diagonalized for initial guess.
 HarFok:  IExCor=  205 AccDes= 0.00D+00 IRadAn=         5 IDoV= 1 UseB2=F ITyADJ=14
 ICtDFT=  3500011 ScaDFX=  1.000000  1.000000  1.000000  1.000000
 FoFCou: FMM=F IPFlag=           0 FMFlag=      100000 FMFlg1=           0
         NFxFlg=           0 DoJE=T BraDBF=F KetDBF=T FulRan=T
         wScrn=  0.000000 ICntrl=       500 IOpCl=  0 I1Cent=   200000004 NGrid=           0
         NMat0=    1 NMatS0=      1 NMatT0=    0 NMatD0=    1 NMtDS0=    0 NMtDT0=    0
 Symmetry not used in FoFCou.
 Keep R1 ints in memory in canonical form, NReq=179712206.
 Requested convergence on RMS density matrix=1.00D-08 within 128 cycles.
 Requested convergence on MAX density matrix=1.00D-06.
 Requested convergence on             energy=1.00D-06.
 No special actions if energy rises.
 SCF Done:  E(RHF) =  -1031.80177641     A.U. after   12 cycles
            NFock= 12  Conv=0.69D-08     -V/T= 2.0003
 ExpMin= 3.57D-02 ExpMax= 4.56D+05 ExpMxC= 1.44D+03 IAcc=3 IRadAn=         5 AccDes= 0.00D+00
 HarFok:  IExCor=  205 AccDes= 0.00D+00 IRadAn=         5 IDoV=-2 UseB2=F ITyADJ=14
 ICtDFT= 12500011 ScaDFX=  1.000000  1.000000  1.000000  1.000000
 Range of M.O.s used for correlation:    13   192
 NBasis=   192 NAE=    24 NBE=    24 NFC=    12 NFV=     0
 NROrb=    180 NOA=    12 NOB=    12 NVA=   168 NVB=   168

 **** Warning!!: The largest alpha MO coefficient is  0.30145738D+02

 Semi-Direct transformation.
 ModeAB=           2 MOrb=            12 LenV=    2146443383
 LASXX=     33405819 LTotXX=    33405819 LenRXX=    33405819
 LTotAB=    33954012 MaxLAS=    56388960 LenRXY=    56388960
 NonZer=    66811638 LenScr=   100987392 LnRSAI=           0
 LnScr1=           0 LExtra=           0 Total=    190782171
 MaxDsk=          -1 SrtSym=           F ITran=            4
 JobTyp=0 Pass  1:  I=   1 to  12.
 (rs|ai) integrals will be sorted in core.
 Spin components of T(2) and E(2):
     alpha-alpha T2 =       0.3535010180D-01 E2=     -0.1019624272D+00
     alpha-beta  T2 =       0.1839369900D+00 E2=     -0.5764981830D+00
     beta-beta   T2 =       0.3535010180D-01 E2=     -0.1019624272D+00
 ANorm=    0.1120105885D+01
 E2 =    -0.7804230375D+00 EUMP2 =    -0.10325821994444D+04
 Keep R2 and R3 ints in memory in canonical form, NReq=351373684.
 CIDS: In Core Option IDoMem=           1.
 Iterations=  50 Convergence= 0.100D-07
 Produce multiple copies of IABC intergrals
 Iteration Nr.   1
 **********************
 DD1Dir will call FoFMem   1 times, MxPair=       156
 NAB=    78 NAA=     0 NBB=     0.
 MP4(R+Q)=  0.22581361D-01
 E3=       -0.18598020D-01        EUMP3=      -0.10326007975D+04
 E4(DQ)=    0.27330728D-02        UMP4(DQ)=   -0.10325980644D+04
 E4(SDQ)=  -0.63957201D-02        UMP4(SDQ)=  -0.10326071932D+04
 DE(Corr)= -0.77643970     E(Corr)=     -1032.5782161    
 NORM(A)=   0.11215532D+01
 Iteration Nr.   2
 **********************
 DD1Dir will call FoFMem   1 times, MxPair=       156
 NAB=    78 NAA=     0 NBB=     0.
 DE(Corr)= -0.80247916     E(CORR)=     -1032.6042556     Delta=-2.60D-02
 NORM(A)=   0.11310003D+01
 Iteration Nr.   3
 **********************
 DD1Dir will call FoFMem   1 times, MxPair=       156
 NAB=    78 NAA=     0 NBB=     0.
 DE(Corr)= -0.80078085     E(CORR)=     -1032.6025573     Delta= 1.70D-03
 NORM(A)=   0.11336682D+01
 Iteration Nr.   4
 **********************
 DD1Dir will call FoFMem   1 times, MxPair=       156
 NAB=    78 NAA=     0 NBB=     0.
 DE(Corr)= -0.80325824     E(CORR)=     -1032.6050346     Delta=-2.48D-03
 NORM(A)=   0.11347125D+01
 Iteration Nr.   5
 **********************
 DD1Dir will call FoFMem   1 times, MxPair=       156
 NAB=    78 NAA=     0 NBB=     0.
 DE(Corr)= -0.80358686     E(CORR)=     -1032.6053633     Delta=-3.29D-04
 NORM(A)=   0.11351182D+01
 Iteration Nr.   6
 **********************
 DD1Dir will call FoFMem   1 times, MxPair=       156
 NAB=    78 NAA=     0 NBB=     0.
 DE(Corr)= -0.80363944     E(CORR)=     -1032.6054158     Delta=-5.26D-05
 NORM(A)=   0.11351929D+01
 Iteration Nr.   7
 **********************
 DD1Dir will call FoFMem   1 times, MxPair=       156
 NAB=    78 NAA=     0 NBB=     0.
 DE(Corr)= -0.80364894     E(CORR)=     -1032.6054253     Delta=-9.50D-06
 NORM(A)=   0.11351933D+01
 Iteration Nr.   8
 **********************
 DD1Dir will call FoFMem   1 times, MxPair=       156
 NAB=    78 NAA=     0 NBB=     0.
 DE(Corr)= -0.80364887     E(CORR)=     -1032.6054253     Delta= 6.99D-08
 NORM(A)=   0.11352015D+01
 Iteration Nr.   9
 **********************
 DD1Dir will call FoFMem   1 times, MxPair=       156
 NAB=    78 NAA=     0 NBB=     0.
 DE(Corr)= -0.80364725     E(CORR)=     -1032.6054237     Delta= 1.62D-06
 NORM(A)=   0.11352008D+01
 Iteration Nr.  10
 **********************
 DD1Dir will call FoFMem   1 times, MxPair=       156
 NAB=    78 NAA=     0 NBB=     0.
 DE(Corr)= -0.80364861     E(CORR)=     -1032.6054250     Delta=-1.36D-06
 NORM(A)=   0.11352024D+01
 Iteration Nr.  11
 **********************
 DD1Dir will call FoFMem   1 times, MxPair=       156
 NAB=    78 NAA=     0 NBB=     0.
 DE(Corr)= -0.80364933     E(CORR)=     -1032.6054257     Delta=-7.22D-07
 NORM(A)=   0.11352036D+01
 Iteration Nr.  12
 **********************
 DD1Dir will call FoFMem   1 times, MxPair=       156
 NAB=    78 NAA=     0 NBB=     0.
 DE(Corr)= -0.80364964     E(CORR)=     -1032.6054260     Delta=-3.04D-07
 NORM(A)=   0.11352043D+01
 Iteration Nr.  13
 **********************
 DD1Dir will call FoFMem   1 times, MxPair=       156
 NAB=    78 NAA=     0 NBB=     0.
 DE(Corr)= -0.80364996     E(CORR)=     -1032.6054264     Delta=-3.26D-07
 NORM(A)=   0.11352048D+01
 Iteration Nr.  14
 **********************
 DD1Dir will call FoFMem   1 times, MxPair=       156
 NAB=    78 NAA=     0 NBB=     0.
 DE(Corr)= -0.80365004     E(CORR)=     -1032.6054264     Delta=-7.29D-08
 NORM(A)=   0.11352050D+01
 Iteration Nr.  15
 **********************
 DD1Dir will call FoFMem   1 times, MxPair=       156
 NAB=    78 NAA=     0 NBB=     0.
 DE(Corr)= -0.80365009     E(CORR)=     -1032.6054265     Delta=-5.10D-08
 NORM(A)=   0.11352050D+01
 Iteration Nr.  16
 **********************
 DD1Dir will call FoFMem   1 times, MxPair=       156
 NAB=    78 NAA=     0 NBB=     0.
 DE(Corr)= -0.80365010     E(CORR)=     -1032.6054265     Delta=-1.51D-08
 NORM(A)=   0.11352051D+01
 Iteration Nr.  17
 **********************
 DD1Dir will call FoFMem   1 times, MxPair=       156
 NAB=    78 NAA=     0 NBB=     0.
 DE(Corr)= -0.80365010     E(CORR)=     -1032.6054265     Delta=-1.20D-10
 NORM(A)=   0.11352051D+01
 Wavefunction amplitudes converged. E(Corr)=     -1032.6054265    
 Largest amplitude= 3.47D-02

 Z-amplitude iterations

 Iteration Nr.   1
 **********************
 DD1Dir will call FoFMem   1 times, MxPair=       156
 NAB=    78 NAA=     0 NBB=     0.
 DE(Z)= -0.77549587     E(Z)=     -1032.5772723     Delta= 2.82D-02
 NORM(A)=   0.11352217D+01
 Iteration Nr.   2
 **********************
 DD1Dir will call FoFMem   1 times, MxPair=       156
 NAB=    78 NAA=     0 NBB=     0.
 DE(Z)= -0.77549640     E(Z)=     -1032.5772728     Delta=-5.27D-07
 NORM(A)=   0.11352186D+01
 Iteration Nr.   3
 **********************
 DD1Dir will call FoFMem   1 times, MxPair=       156
 NAB=    78 NAA=     0 NBB=     0.
 DE(Z)= -0.77549626     E(Z)=     -1032.5772727     Delta= 1.41D-07
 NORM(A)=   0.11352143D+01
 Iteration Nr.   4
 **********************
 DD1Dir will call FoFMem   1 times, MxPair=       156
 NAB=    78 NAA=     0 NBB=     0.
 DE(Z)= -0.77549615     E(Z)=     -1032.5772726     Delta= 1.08D-07
 NORM(A)=   0.11352198D+01
 Iteration Nr.   5
 **********************
 DD1Dir will call FoFMem   1 times, MxPair=       156
 NAB=    78 NAA=     0 NBB=     0.
 DE(Z)= -0.77549633     E(Z)=     -1032.5772727     Delta=-1.81D-07
 NORM(A)=   0.11254912D+01
 Iteration Nr.   6
 **********************
 DD1Dir will call FoFMem   1 times, MxPair=       156
 NAB=    78 NAA=     0 NBB=     0.
 DE(Z)= -0.77518872     E(Z)=     -1032.5769651     Delta= 3.08D-04
 NORM(A)=   0.11254895D+01
 Iteration Nr.   7
 **********************
 DD1Dir will call FoFMem   1 times, MxPair=       156
 NAB=    78 NAA=     0 NBB=     0.
 DE(Z)= -0.77518913     E(Z)=     -1032.5769655     Delta=-4.19D-07
 NORM(A)=   0.11254904D+01
 Iteration Nr.   8
 **********************
 DD1Dir will call FoFMem   1 times, MxPair=       156
 NAB=    78 NAA=     0 NBB=     0.
 DE(Z)= -0.77518898     E(Z)=     -1032.5769654     Delta= 1.58D-07
 NORM(A)=   0.11254907D+01
 Iteration Nr.   9
 **********************
 DD1Dir will call FoFMem   1 times, MxPair=       156
 NAB=    78 NAA=     0 NBB=     0.
 DE(Z)= -0.77518944     E(Z)=     -1032.5769658     Delta=-4.66D-07
 NORM(A)=   0.11254911D+01
 Iteration Nr.  10
 **********************
 DD1Dir will call FoFMem   1 times, MxPair=       156
 NAB=    78 NAA=     0 NBB=     0.
 DE(Z)= -0.77518926     E(Z)=     -1032.5769657     Delta= 1.87D-07
 NORM(A)=   0.11254912D+01
 Iteration Nr.  11
 **********************
 DD1Dir will call FoFMem   1 times, MxPair=       156
 NAB=    78 NAA=     0 NBB=     0.
 DE(Z)= -0.77518930     E(Z)=     -1032.5769657     Delta=-4.19D-08
 NORM(A)=   0.11254913D+01
 Iteration Nr.  12
 **********************
 DD1Dir will call FoFMem   1 times, MxPair=       156
 NAB=    78 NAA=     0 NBB=     0.
 DE(Z)= -0.77518932     E(Z)=     -1032.5769657     Delta=-1.84D-08
 NORM(A)=   0.11254913D+01
 Iteration Nr.  13
 **********************
 DD1Dir will call FoFMem   1 times, MxPair=       156
 NAB=    78 NAA=     0 NBB=     0.
 DE(Z)= -0.77518931     E(Z)=     -1032.5769657     Delta= 8.67D-09
 NORM(A)=   0.11254913D+01
 Z-amplitudes converged.
 Discarding MO integrals.
          Differentiating once with respect to electric field.
                with respect to dipole field.
          Electric field/nuclear overlap derivatives assumed to be zero.
 Keep R1 ints in memory in canonical form, NReq=179717398.
          There are     1 degrees of freedom in the 1st order CPHF.  IDoFFX=0 NUNeed=     1.
 LinEq1:  Iter=  0 NonCon=     1 RMS=2.36D-03 Max=5.88D-02 NDo=     1
 AX will form     1 AO Fock derivatives at one time.
 LinEq1:  Iter=  1 NonCon=     1 RMS=8.32D-04 Max=1.78D-02 NDo=     1
 LinEq1:  Iter=  2 NonCon=     1 RMS=3.13D-04 Max=4.86D-03 NDo=     1
 LinEq1:  Iter=  3 NonCon=     1 RMS=1.29D-04 Max=3.31D-03 NDo=     1
 LinEq1:  Iter=  4 NonCon=     1 RMS=5.20D-05 Max=1.21D-03 NDo=     1
 LinEq1:  Iter=  5 NonCon=     1 RMS=1.64D-05 Max=3.21D-04 NDo=     1
 LinEq1:  Iter=  6 NonCon=     1 RMS=4.21D-06 Max=6.56D-05 NDo=     1
 LinEq1:  Iter=  7 NonCon=     1 RMS=1.01D-06 Max=1.20D-05 NDo=     1
 LinEq1:  Iter=  8 NonCon=     1 RMS=2.16D-07 Max=3.22D-06 NDo=     1
 LinEq1:  Iter=  9 NonCon=     1 RMS=4.91D-08 Max=7.63D-07 NDo=     1
 LinEq1:  Iter= 10 NonCon=     1 RMS=1.25D-08 Max=2.38D-07 NDo=     1
 LinEq1:  Iter= 11 NonCon=     1 RMS=2.61D-09 Max=3.99D-08 NDo=     1
 LinEq1:  Iter= 12 NonCon=     1 RMS=4.82D-10 Max=1.19D-08 NDo=     1
 LinEq1:  Iter= 13 NonCon=     1 RMS=8.12D-11 Max=1.35D-09 NDo=     1
 LinEq1:  Iter= 14 NonCon=     0 RMS=1.15D-11 Max=1.37D-10 NDo=     1
 Linear equations converged to 1.000D-10 1.000D-09 after    14 iterations.
 End of Minotr F.D. properties file   721 does not exist.
 End of Minotr F.D. properties file   722 does not exist.
 End of Minotr F.D. properties file   788 does not exist.

 **********************************************************************

            Population analysis using the CC Density.

 **********************************************************************

 Alpha  occ. eigenvalues -- -104.89147-104.89147 -20.62194 -11.47689 -10.61592
 Alpha  occ. eigenvalues --  -10.61591  -8.08271  -8.08271  -8.08058  -8.08058
 Alpha  occ. eigenvalues --   -8.08040  -8.08040  -1.47777  -1.20476  -1.14250
 Alpha  occ. eigenvalues --   -0.81245  -0.70606  -0.69931  -0.64572  -0.53149
 Alpha  occ. eigenvalues --   -0.50277  -0.49761  -0.49640  -0.47745
 Alpha virt. eigenvalues --    0.04770   0.06588   0.08021   0.08479   0.09241
 Alpha virt. eigenvalues --    0.09857   0.11389   0.12512   0.12743   0.13452
 Alpha virt. eigenvalues --    0.15799   0.15859   0.22092   0.22150   0.23714
 Alpha virt. eigenvalues --    0.23872   0.25337   0.26270   0.28029   0.30390
 Alpha virt. eigenvalues --    0.30994   0.31714   0.36267   0.39535   0.43732
 Alpha virt. eigenvalues --    0.44163   0.44189   0.45803   0.47042   0.48489
 Alpha virt. eigenvalues --    0.50803   0.51277   0.51950   0.52392   0.54989
 Alpha virt. eigenvalues --    0.62152   0.64239   0.69161   0.69831   0.71197
 Alpha virt. eigenvalues --    0.71513   0.73432   0.75940   0.79536   0.81224
 Alpha virt. eigenvalues --    0.81667   0.83113   0.83374   0.87047   0.88601
 Alpha virt. eigenvalues --    0.89068   0.91377   0.93389   0.93697   0.94682
 Alpha virt. eigenvalues --    0.96144   0.96669   1.05164   1.06180   1.08752
 Alpha virt. eigenvalues --    1.09521   1.12800   1.15100   1.15954   1.17358
 Alpha virt. eigenvalues --    1.21133   1.23251   1.24270   1.26686   1.33573
 Alpha virt. eigenvalues --    1.36967   1.39233   1.42695   1.46421   1.46590
 Alpha virt. eigenvalues --    1.47253   1.47511   1.56224   1.58202   1.62100
 Alpha virt. eigenvalues --    1.67778   1.68098   1.69180   1.73004   1.80787
 Alpha virt. eigenvalues --    1.81632   1.82658   1.83482   1.85613   2.00920
 Alpha virt. eigenvalues --    2.07010   2.25813   2.28586   2.33614   2.34206
 Alpha virt. eigenvalues --    2.39551   2.44591   2.44919   2.48610   2.49143
 Alpha virt. eigenvalues --    2.52236   2.54211   2.57848   2.58936   2.60305
 Alpha virt. eigenvalues --    2.61994   2.63259   2.66116   2.70157   2.76969
 Alpha virt. eigenvalues --    2.77440   2.81220   2.88455   2.88648   2.91495
 Alpha virt. eigenvalues --    2.92461   2.94539   2.97738   2.99293   3.02222
 Alpha virt. eigenvalues --    3.02646   3.05434   3.06310   3.07265   3.07745
 Alpha virt. eigenvalues --    3.10879   3.13103   3.16616   3.20241   3.21840
 Alpha virt. eigenvalues --    3.24989   3.26343   3.51637   3.54182   3.59836
 Alpha virt. eigenvalues --    3.62893   3.64784   3.70389   3.83075   3.84193
 Alpha virt. eigenvalues --    3.94680   3.96553   4.03376   4.14703   4.18700
 Alpha virt. eigenvalues --    4.43581   4.50421   4.60815   4.75555   5.09926
 Alpha virt. eigenvalues --    5.44561   5.62374   6.56468   6.57880   6.86131
 Alpha virt. eigenvalues --    6.86720   7.03647   7.11139   7.17879   7.18704
 Alpha virt. eigenvalues --    7.20140   7.27238   7.50801   7.51122   7.67077
 Alpha virt. eigenvalues --    7.71928  13.18406  15.51306
          Condensed to atoms (all electrons):
               1          2          3          4
     1  O    8.047598   0.429744  -0.074771  -0.074771
     2  C    0.429744   4.984634   0.132452   0.132452
     3  Cl  -0.074771   0.132452  17.037179  -0.098400
     4  Cl  -0.074771   0.132452  -0.098400  17.037179
 Mulliken charges:
               1
     1  O   -0.327800
     2  C    0.320718
     3  Cl   0.003541
     4  Cl   0.003541
 Sum of Mulliken charges =  -0.00000
 Mulliken charges with hydrogens summed into heavy atoms:
               1
     1  O   -0.327800
     2  C    0.320718
     3  Cl   0.003541
     4  Cl   0.003541
 Electronic spatial extent (au):  <R**2>=            613.7829
 Charge=             -0.0000 electrons
 Dipole moment (field-independent basis, Debye):
    X=             -0.0000    Y=              0.0000    Z=             -1.3207  Tot=              1.3207
 Quadrupole moment (field-independent basis, Debye-Ang):
   XX=            -35.0840   YY=            -34.2719   ZZ=            -36.2396
   XY=              0.0000   XZ=             -0.0000   YZ=             -0.0000
 Traceless Quadrupole moment (field-independent basis, Debye-Ang):
   XX=              0.1146   YY=              0.9266   ZZ=             -1.0411
   XY=              0.0000   XZ=             -0.0000   YZ=             -0.0000
 Octapole moment (field-independent basis, Debye-Ang**2):
  XXX=             -0.0000  YYY=              0.0000  ZZZ=            106.2269  XYY=              0.0000
  XXY=              0.0000  XXZ=             36.0459  XZZ=              0.0000  YZZ=              0.0000
  YYZ=             29.5695  XYZ=              0.0000
 Hexadecapole moment (field-independent basis, Debye-Ang**3):
 XXXX=            -37.1048 YYYY=           -328.3263 ZZZZ=           -383.3651 XXXY=              0.0000
 XXXZ=              0.0000 YYYX=             -0.0000 YYYZ=             -0.0000 ZZZX=             -0.0000
 ZZZY=              0.0000 XXYY=            -65.1578 XXZZ=            -71.0800 YYZZ=           -106.7630
 XXYZ=             -0.0000 YYXZ=             -0.0000 ZZXY=              0.0000
 N-N= 1.917825274833D+02 E-N=-2.837768259662D+03  KE= 1.032395916937D+03
 There are a total of       90730 grid points.
 ElSum from          density=       47.9999999717
 ElSum from atomic densities=       48.0000005302

 Hirshfeld populations at iteration   1 (CX, CA, CB, DipXYZ):
               1          2          3          4          5          6
     1  O    0.000008   4.095447   4.095447  -0.000000  -0.000000  -0.046746
     2  C    0.000001   2.895410   2.895410   0.000000  -0.000000  -0.059662
     3  Cl   0.000011   8.504572   8.504572  -0.000000  -0.068148  -0.008986
     4  Cl   0.000011   8.504572   8.504572   0.000000   0.068148  -0.008986
       Tot   0.000030  24.000000  24.000000   0.000000   0.000000  -0.124380

 Dip from Atomic Chgs              0.000000   0.000000  -0.395234
         Total Dipole              0.000000   0.000000  -0.519615

 Hirshfeld charges, spin densities, dipoles, and CM5 charges using IRadAn=      5:
              Q-H        S-H        Dx         Dy         Dz        Q-CM5   
     1  O   -0.190894   0.000000  -0.000000  -0.000000  -0.046746  -0.236212
     2  C    0.209180   0.000000   0.000000  -0.000000  -0.059662   0.247332
     3  Cl  -0.009143   0.000000  -0.000000  -0.068148  -0.008986  -0.005560
     4  Cl  -0.009143   0.000000   0.000000   0.068148  -0.008986  -0.005560
       Tot   0.000000   0.000000   0.000000   0.000000  -0.124380   0.000000
 Hirshfeld charges with hydrogens summed into heavy atoms:
              Q-H       Q-CM5   
     1  O   -0.190894  -0.236212
     2  C    0.209180   0.247332
     3  Cl  -0.009143  -0.005560
     4  Cl  -0.009143  -0.005560
 
 EQQ= 0.000000000000E+00 EQD= 0.000000000000E+00 EDD= 0.255861807248E-03
 EQQ+QD+DD= 0.255861807248E-03
 
 Breneman (CHELPG) radii used.
 Generate Potential Derived Charges using the Breneman model, NDens= 1.
 Grid spacing= 0.300 Box extension= 2.800
 NStep X,Y,Z=   20     30     26   Total possible points=       15600
 Number of Points to Fit=    4532

 **********************************************************************

            Electrostatic Properties Using The CC Density.

 **********************************************************************

       Atomic Center    1 is at   0.000000  0.000000  0.683397
       Atomic Center    2 is at   0.000000  0.000000 -0.504687
       Atomic Center    3 is at   0.000000 -1.446870 -1.469805
       Atomic Center    4 is at   0.000000  1.446870 -1.469805
    4532 points will be used for fitting atomic charges
 Fitting point charges to electrostatic potential
 The dipole moment will be constrained to the correct value
 Charges from ESP fit, RMS=   0.00561 RRMS=   0.48167:
 ESP charges:
               1
     1  O   -0.332272
     2  C    0.456401
     3  Cl  -0.062064
     4  Cl  -0.062064
 Sum of ESP charges =  -0.00000
 ESP charges with hydrogens summed into heavy atoms:
               1
     1  O   -0.332272
     2  C    0.456401
     3  Cl  -0.062064
     4  Cl  -0.062064
 Charge=  -0.00000 Dipole=     0.0000     0.0000    -1.3207 Tot=     1.3207
 -----------------------------------------------------------------

              Electrostatic Properties (Atomic Units)

 -----------------------------------------------------------------
    Center     Electric         -------- Electric Field --------
               Potential          X             Y             Z
 -----------------------------------------------------------------
    1 Atom    -22.286259
    2 Atom    -14.535808
    3 Atom    -64.373479
    4 Atom    -64.373479
 -----------------------------------------------------------------
 ******************************Gaussian NBO Version 3.1******************************
             N A T U R A L   A T O M I C   O R B I T A L   A N D
          N A T U R A L   B O N D   O R B I T A L   A N A L Y S I S
 ******************************Gaussian NBO Version 3.1******************************
       /RESON  / : Allow strongly delocalized NBO set

 Analyzing the QCI/CC density

 Job title: cl2co-wavefunction                                              

 Storage needed:    111522 in NPA (2147483536 available)
 GSVD:  LWork=        6614 too small for GESVD, short by       52797 words or       52797 for optimal perf.


 NATURAL POPULATIONS:  Natural atomic orbital occupancies 
                                                          
   NAO  Atom  No  lang   Type(AO)    Occupancy
 --------------------------------------------
     1    O    1  S      Cor( 1S)     1.99952
     2    O    1  S      Val( 2S)     1.68522
     3    O    1  S      Ryd( 3S)     0.00635
     4    O    1  S      Ryd( 4S)     0.00038
     5    O    1  S      Ryd( 5S)     0.00029
     6    O    1  px     Val( 2p)     1.35879
     7    O    1  px     Ryd( 3p)     0.00712
     8    O    1  px     Ryd( 4p)     0.00050
     9    O    1  px     Ryd( 5p)     0.00007
    10    O    1  py     Val( 2p)     1.75077
    11    O    1  py     Ryd( 3p)     0.01328
    12    O    1  py     Ryd( 4p)     0.00065
    13    O    1  py     Ryd( 5p)     0.00014
    14    O    1  pz     Val( 2p)     1.57133
    15    O    1  pz     Ryd( 3p)     0.00649
    16    O    1  pz     Ryd( 4p)     0.00050
    17    O    1  pz     Ryd( 5p)     0.00011
    18    O    1  dxy    Ryd( 3d)     0.00545
    19    O    1  dxy    Ryd( 4d)     0.00038
    20    O    1  dxy    Ryd( 5d)     0.00008
    21    O    1  dxz    Ryd( 3d)     0.01133
    22    O    1  dxz    Ryd( 4d)     0.00031
    23    O    1  dxz    Ryd( 5d)     0.00011
    24    O    1  dyz    Ryd( 3d)     0.01173
    25    O    1  dyz    Ryd( 4d)     0.00046
    26    O    1  dyz    Ryd( 5d)     0.00013
    27    O    1  dx2y2  Ryd( 3d)     0.00537
    28    O    1  dx2y2  Ryd( 4d)     0.00038
    29    O    1  dx2y2  Ryd( 5d)     0.00009
    30    O    1  dz2    Ryd( 3d)     0.01999
    31    O    1  dz2    Ryd( 4d)     0.00043
    32    O    1  dz2    Ryd( 5d)     0.00021
    33    O    1  f(0)   Ryd( 4f)     0.00129
    34    O    1  f(0)   Ryd( 5f)     0.00013
    35    O    1  f(C1)  Ryd( 4f)     0.00065
    36    O    1  f(C1)  Ryd( 5f)     0.00010
    37    O    1  f(S1)  Ryd( 4f)     0.00078
    38    O    1  f(S1)  Ryd( 5f)     0.00013
    39    O    1  f(C2)  Ryd( 4f)     0.00046
    40    O    1  f(C2)  Ryd( 5f)     0.00009
    41    O    1  f(S2)  Ryd( 4f)     0.00047
    42    O    1  f(S2)  Ryd( 5f)     0.00009
    43    O    1  f(C3)  Ryd( 4f)     0.00044
    44    O    1  f(C3)  Ryd( 5f)     0.00006
    45    O    1  f(S3)  Ryd( 4f)     0.00045
    46    O    1  f(S3)  Ryd( 5f)     0.00007

    47    C    2  S      Cor( 1S)     1.99943
    48    C    2  S      Val( 2S)     0.94991
    49    C    2  S      Ryd( 3S)     0.00937
    50    C    2  S      Ryd( 4S)     0.00017
    51    C    2  S      Ryd( 5S)     0.00010
    52    C    2  px     Val( 2p)     0.80904
    53    C    2  px     Ryd( 3p)     0.00756
    54    C    2  px     Ryd( 4p)     0.00059
    55    C    2  px     Ryd( 5p)     0.00018
    56    C    2  py     Val( 2p)     0.90267
    57    C    2  py     Ryd( 3p)     0.01113
    58    C    2  py     Ryd( 4p)     0.00067
    59    C    2  py     Ryd( 5p)     0.00039
    60    C    2  pz     Val( 2p)     0.80790
    61    C    2  pz     Ryd( 3p)     0.02809
    62    C    2  pz     Ryd( 5p)     0.00032
    63    C    2  pz     Ryd( 4p)     0.00056
    64    C    2  dxy    Ryd( 3d)     0.00880
    65    C    2  dxy    Ryd( 4d)     0.00030
    66    C    2  dxy    Ryd( 5d)     0.00014
    67    C    2  dxz    Ryd( 3d)     0.00839
    68    C    2  dxz    Ryd( 4d)     0.00067
    69    C    2  dxz    Ryd( 5d)     0.00027
    70    C    2  dyz    Ryd( 3d)     0.01149
    71    C    2  dyz    Ryd( 4d)     0.00082
    72    C    2  dyz    Ryd( 5d)     0.00024
    73    C    2  dx2y2  Ryd( 3d)     0.00616
    74    C    2  dx2y2  Ryd( 5d)     0.00024
    75    C    2  dx2y2  Ryd( 4d)     0.00027
    76    C    2  dz2    Ryd( 3d)     0.00693
    77    C    2  dz2    Ryd( 4d)     0.00046
    78    C    2  dz2    Ryd( 5d)     0.00025
    79    C    2  f(0)   Ryd( 4f)     0.00278
    80    C    2  f(0)   Ryd( 5f)     0.00036
    81    C    2  f(C1)  Ryd( 4f)     0.00179
    82    C    2  f(C1)  Ryd( 5f)     0.00042
    83    C    2  f(S1)  Ryd( 4f)     0.00301
    84    C    2  f(S1)  Ryd( 5f)     0.00058
    85    C    2  f(C2)  Ryd( 4f)     0.00184
    86    C    2  f(C2)  Ryd( 5f)     0.00023
    87    C    2  f(S2)  Ryd( 4f)     0.00174
    88    C    2  f(S2)  Ryd( 5f)     0.00026
    89    C    2  f(C3)  Ryd( 4f)     0.00145
    90    C    2  f(C3)  Ryd( 5f)     0.00022
    91    C    2  f(S3)  Ryd( 4f)     0.00152
    92    C    2  f(S3)  Ryd( 5f)     0.00019

    93   Cl    3  S      Cor( 1S)     2.00000
    94   Cl    3  S      Cor( 2S)     1.99938
    95   Cl    3  S      Val( 3S)     1.84028
    96   Cl    3  S      Ryd( 4S)     0.00532
    97   Cl    3  S      Ryd( 5S)     0.00031
    98   Cl    3  S      Ryd( 6S)     0.00021
    99   Cl    3  px     Cor( 2p)     2.00002
   100   Cl    3  px     Val( 3p)     1.84902
   101   Cl    3  px     Ryd( 4p)     0.00797
   102   Cl    3  px     Ryd( 5p)     0.00046
   103   Cl    3  px     Ryd( 6p)     0.00007
   104   Cl    3  py     Cor( 2p)     1.99994
   105   Cl    3  py     Val( 3p)     1.42919
   106   Cl    3  py     Ryd( 4p)     0.00603
   107   Cl    3  py     Ryd( 5p)     0.00050
   108   Cl    3  py     Ryd( 6p)     0.00006
   109   Cl    3  pz     Cor( 2p)     1.99999
   110   Cl    3  pz     Val( 3p)     1.71604
   111   Cl    3  pz     Ryd( 4p)     0.00717
   112   Cl    3  pz     Ryd( 5p)     0.00046
   113   Cl    3  pz     Ryd( 6p)     0.00010
   114   Cl    3  dxy    Ryd( 3d)     0.01817
   115   Cl    3  dxy    Ryd( 4d)     0.00051
   116   Cl    3  dxy    Ryd( 5d)     0.00012
   117   Cl    3  dxz    Ryd( 3d)     0.01840
   118   Cl    3  dxz    Ryd( 4d)     0.00061
   119   Cl    3  dxz    Ryd( 5d)     0.00013
   120   Cl    3  dyz    Ryd( 3d)     0.02336
   121   Cl    3  dyz    Ryd( 4d)     0.00047
   122   Cl    3  dyz    Ryd( 5d)     0.00012
   123   Cl    3  dx2y2  Ryd( 3d)     0.02015
   124   Cl    3  dx2y2  Ryd( 4d)     0.00051
   125   Cl    3  dx2y2  Ryd( 5d)     0.00012
   126   Cl    3  dz2    Ryd( 3d)     0.01717
   127   Cl    3  dz2    Ryd( 4d)     0.00052
   128   Cl    3  dz2    Ryd( 5d)     0.00018
   129   Cl    3  f(0)   Ryd( 4f)     0.00132
   130   Cl    3  f(0)   Ryd( 5f)     0.00013
   131   Cl    3  f(C1)  Ryd( 4f)     0.00132
   132   Cl    3  f(C1)  Ryd( 5f)     0.00012
   133   Cl    3  f(S1)  Ryd( 4f)     0.00129
   134   Cl    3  f(S1)  Ryd( 5f)     0.00017
   135   Cl    3  f(C2)  Ryd( 4f)     0.00157
   136   Cl    3  f(C2)  Ryd( 5f)     0.00013
   137   Cl    3  f(S2)  Ryd( 4f)     0.00132
   138   Cl    3  f(S2)  Ryd( 5f)     0.00014
   139   Cl    3  f(C3)  Ryd( 4f)     0.00130
   140   Cl    3  f(C3)  Ryd( 5f)     0.00013
   141   Cl    3  f(S3)  Ryd( 4f)     0.00134
   142   Cl    3  f(S3)  Ryd( 5f)     0.00013

   143   Cl    4  S      Cor( 1S)     2.00000
   144   Cl    4  S      Cor( 2S)     1.99938
   145   Cl    4  S      Val( 3S)     1.84028
   146   Cl    4  S      Ryd( 4S)     0.00532
   147   Cl    4  S      Ryd( 5S)     0.00031
   148   Cl    4  S      Ryd( 6S)     0.00021
   149   Cl    4  px     Cor( 2p)     2.00002
   150   Cl    4  px     Val( 3p)     1.84902
   151   Cl    4  px     Ryd( 4p)     0.00797
   152   Cl    4  px     Ryd( 5p)     0.00046
   153   Cl    4  px     Ryd( 6p)     0.00007
   154   Cl    4  py     Cor( 2p)     1.99994
   155   Cl    4  py     Val( 3p)     1.42919
   156   Cl    4  py     Ryd( 4p)     0.00603
   157   Cl    4  py     Ryd( 5p)     0.00050
   158   Cl    4  py     Ryd( 6p)     0.00006
   159   Cl    4  pz     Cor( 2p)     1.99999
   160   Cl    4  pz     Val( 3p)     1.71604
   161   Cl    4  pz     Ryd( 4p)     0.00717
   162   Cl    4  pz     Ryd( 5p)     0.00046
   163   Cl    4  pz     Ryd( 6p)     0.00010
   164   Cl    4  dxy    Ryd( 3d)     0.01817
   165   Cl    4  dxy    Ryd( 4d)     0.00051
   166   Cl    4  dxy    Ryd( 5d)     0.00012
   167   Cl    4  dxz    Ryd( 3d)     0.01840
   168   Cl    4  dxz    Ryd( 4d)     0.00061
   169   Cl    4  dxz    Ryd( 5d)     0.00013
   170   Cl    4  dyz    Ryd( 3d)     0.02336
   171   Cl    4  dyz    Ryd( 4d)     0.00047
   172   Cl    4  dyz    Ryd( 5d)     0.00012
   173   Cl    4  dx2y2  Ryd( 3d)     0.02015
   174   Cl    4  dx2y2  Ryd( 4d)     0.00051
   175   Cl    4  dx2y2  Ryd( 5d)     0.00012
   176   Cl    4  dz2    Ryd( 3d)     0.01717
   177   Cl    4  dz2    Ryd( 4d)     0.00052
   178   Cl    4  dz2    Ryd( 5d)     0.00018
   179   Cl    4  f(0)   Ryd( 4f)     0.00132
   180   Cl    4  f(0)   Ryd( 5f)     0.00013
   181   Cl    4  f(C1)  Ryd( 4f)     0.00132
   182   Cl    4  f(C1)  Ryd( 5f)     0.00012
   183   Cl    4  f(S1)  Ryd( 4f)     0.00129
   184   Cl    4  f(S1)  Ryd( 5f)     0.00017
   185   Cl    4  f(C2)  Ryd( 4f)     0.00157
   186   Cl    4  f(C2)  Ryd( 5f)     0.00013
   187   Cl    4  f(S2)  Ryd( 4f)     0.00132
   188   Cl    4  f(S2)  Ryd( 5f)     0.00014
   189   Cl    4  f(C3)  Ryd( 4f)     0.00130
   190   Cl    4  f(C3)  Ryd( 5f)     0.00013
   191   Cl    4  f(S3)  Ryd( 4f)     0.00134
   192   Cl    4  f(S3)  Ryd( 5f)     0.00013


 Summary of Natural Population Analysis:                  
                                                          
                                       Natural Population 
                Natural  -----------------------------------------------
    Atom  No    Charge         Core      Valence    Rydberg      Total
 -----------------------------------------------------------------------
      O    1   -0.46317      1.99952     6.36612    0.09753     8.46317
      C    2    0.41011      1.99943     3.46952    0.12094     5.58989
     Cl    3    0.02653      9.99934     6.83453    0.13961    16.97347
     Cl    4    0.02653      9.99934     6.83453    0.13961    16.97347
 =======================================================================
   * Total *    0.00000     23.99762    23.50468    0.49769    48.00000

                                 Natural Population      
 --------------------------------------------------------
   Core                      23.99762 ( 99.9901% of  24)
   Valence                   23.50468 ( 97.9362% of  24)
   Natural Minimal Basis     47.50231 ( 98.9631% of  48)
   Natural Rydberg Basis      0.49769 (  1.0369% of  48)
 --------------------------------------------------------

    Atom  No          Natural Electron Configuration
 ----------------------------------------------------------------------------
      O    1      [core]2S( 1.69)2p( 4.68)3S( 0.01)3p( 0.03)3d( 0.05)
      C    2      [core]2S( 0.95)2p( 2.52)3S( 0.01)3p( 0.05)3d( 0.04)4f( 0.01)
     Cl    3      [core]3S( 1.84)3p( 4.99)4S( 0.01)3d( 0.10)4p( 0.02)4f( 0.01)
     Cl    4      [core]3S( 1.84)3p( 4.99)4S( 0.01)3d( 0.10)4p( 0.02)4f( 0.01)


 NBO analysis skipped by request.
 Unable to Open any file for archive entry.
 1\1\GINC-TRAPISTA\SP\RQCISD-FC\Aug-CC-pVTZ\C1Cl2O1\WAGNER\04-Sep-2022\
 0\\# qcisd/aug-cc-pvtz nosymm density=current pop=(chelpg,hirshfeld,np
 a,dipole)\\cl2co-wavefunction\\0,1\O,0,0.,0.,0.683397\C,0,0.,0.,-0.504
 687\Cl,0,0.,-1.44687,-1.469805\Cl,0,0.,1.44687,-1.469805\\Version=EM64
 L-G16RevC.01\HF=-1031.8017764\MP2=-1032.5821994\MP3=-1032.6007975\MP4D
 =-1032.6206458\MP4DQ=-1032.5980644\MP4SDQ=-1032.6071932\QCISD=-1032.60
 54265\RMSD=6.880e-09\Dipole=0.,0.,-0.5196157\Quadrupole=0.0851689,0.68
 8882,-0.7740509,0.,0.,0.\PG=C02V [C2(C1O1),SGV(Cl2)]\\@
 The archive entry for this job was punched.


 THE MOST SERIOUS THREAT TO THE SURVIVAL OF MANKIND IS NOT NOW
 IGNORANCE IN THE TRADITIONAL SENSE,
 BUT A MORALLY NEUTRAL, AN INSENSITIVE OR INHIBITED HUMAN INTELLIGENCE.

                     -- MARGO JEFFERSON IN NEWSWEEK, SEPTEMBER 2, 1974
 Job cpu time:       0 days  7 hours  3 minutes  3.6 seconds.
 Elapsed time:       0 days  0 hours 26 minutes 47.5 seconds.
 File lengths (MBytes):  RWF=  22679 Int=      0 D2E=      0 Chk=      4 Scr=      1
 Normal termination of Gaussian 16 at Sun Sep  4 00:57:04 2022.
