 Entering Gaussian System, Link 0=/home/wagner/chemistry/gaussian/g16/g16
 Input=GAUSSIAN.com
 Output=GAUSSIAN.log
 Initial command:
 /home/wagner/chemistry/gaussian/g16/l1.exe "/home/wagner/chemistry/gaussian/work/Gau-33532.inp" -scrdir="/home/wagner/chemistry/gaussian/work/"
 Entering Link 1 = /home/wagner/chemistry/gaussian/g16/l1.exe PID=     33534.
  
 Copyright (c) 1988-2019, Gaussian, Inc.  All Rights Reserved.
  
 This is part of the Gaussian(R) 16 program.  It is based on
 the Gaussian(R) 09 system (copyright 2009, Gaussian, Inc.),
 the Gaussian(R) 03 system (copyright 2003, Gaussian, Inc.),
 the Gaussian(R) 98 system (copyright 1998, Gaussian, Inc.),
 the Gaussian(R) 94 system (copyright 1995, Gaussian, Inc.),
 the Gaussian 92(TM) system (copyright 1992, Gaussian, Inc.),
 the Gaussian 90(TM) system (copyright 1990, Gaussian, Inc.),
 the Gaussian 88(TM) system (copyright 1988, Gaussian, Inc.),
 the Gaussian 86(TM) system (copyright 1986, Carnegie Mellon
 University), and the Gaussian 82(TM) system (copyright 1983,
 Carnegie Mellon University). Gaussian is a federally registered
 trademark of Gaussian, Inc.
  
 This software contains proprietary and confidential information,
 including trade secrets, belonging to Gaussian, Inc.
  
 This software is provided under written license and may be
 used, copied, transmitted, or stored only in accord with that
 written license.
  
 The following legend is applicable only to US Government
 contracts under FAR:
  
                    RESTRICTED RIGHTS LEGEND
  
 Use, reproduction and disclosure by the US Government is
 subject to restrictions as set forth in subparagraphs (a)
 and (c) of the Commercial Computer Software - Restricted
 Rights clause in FAR 52.227-19.
  
 Gaussian, Inc.
 340 Quinnipiac St., Bldg. 40, Wallingford CT 06492
  
  
 ---------------------------------------------------------------
 Warning -- This program may not be used in any manner that
 competes with the business of Gaussian, Inc. or will provide
 assistance to any competitor of Gaussian, Inc.  The licensee
 of this program is prohibited from giving any competitor of
 Gaussian, Inc. access to this program.  By using this program,
 the user acknowledges that Gaussian, Inc. is engaged in the
 business of creating and licensing software in the field of
 computational chemistry and represents and warrants to the
 licensee that it is not a competitor of Gaussian, Inc. and that
 it will not use this program in any manner prohibited above.
 ---------------------------------------------------------------
  

 Cite this work as:
 Gaussian 16, Revision C.01,
 M. J. Frisch, G. W. Trucks, H. B. Schlegel, G. E. Scuseria, 
 M. A. Robb, J. R. Cheeseman, G. Scalmani, V. Barone, 
 G. A. Petersson, H. Nakatsuji, X. Li, M. Caricato, A. V. Marenich, 
 J. Bloino, B. G. Janesko, R. Gomperts, B. Mennucci, H. P. Hratchian, 
 J. V. Ortiz, A. F. Izmaylov, J. L. Sonnenberg, D. Williams-Young, 
 F. Ding, F. Lipparini, F. Egidi, J. Goings, B. Peng, A. Petrone, 
 T. Henderson, D. Ranasinghe, V. G. Zakrzewski, J. Gao, N. Rega, 
 G. Zheng, W. Liang, M. Hada, M. Ehara, K. Toyota, R. Fukuda, 
 J. Hasegawa, M. Ishida, T. Nakajima, Y. Honda, O. Kitao, H. Nakai, 
 T. Vreven, K. Throssell, J. A. Montgomery, Jr., J. E. Peralta, 
 F. Ogliaro, M. J. Bearpark, J. J. Heyd, E. N. Brothers, K. N. Kudin, 
 V. N. Staroverov, T. A. Keith, R. Kobayashi, J. Normand, 
 K. Raghavachari, A. P. Rendell, J. C. Burant, S. S. Iyengar, 
 J. Tomasi, M. Cossi, J. M. Millam, M. Klene, C. Adamo, R. Cammi, 
 J. W. Ochterski, R. L. Martin, K. Morokuma, O. Farkas, 
 J. B. Foresman, and D. J. Fox, Gaussian, Inc., Wallingford CT, 2019.
 
 ******************************************
 Gaussian 16:  EM64L-G16RevC.01  3-Jul-2019
                 4-Sep-2022 
 ******************************************
 %nproc=16
 Will use up to   16 processors via shared memory.
 %mem=16GB
 ----------------------------------------------------------------------
 # qcisd/aug-cc-pvtz nosymm density=current pop=(chelpg,hirshfeld,npa,d
 ipole)
 ----------------------------------------------------------------------
 1/30=1,38=1,172=1/1;
 2/12=2,15=1,17=6,18=5,40=1/2;
 3/5=16,6=1,7=10,11=9,25=1,30=1,71=1/1,2,3;
 4//1;
 5/5=2,38=5/2;
 8/6=4,9=120000,10=1/1,4;
 9/5=8,15=1/13;
 11/28=-7,31=1,32=3,42=3/11;
 10/5=6,13=10,31=1/2;
 6/7=2,8=2,9=2,10=2,15=24,20=3,22=-1,40=-1,79=1/1,2,7;
 99/5=1,9=1/99;
 ------------------
 cl2co-wavefunction
 ------------------
 Symbolic Z-matrix:
 Charge =  0 Multiplicity = 1
 O                     0.        0.        0.6834 
 C                     0.        0.       -0.49469 
 Cl                   -0.01     -1.44687  -1.46981 
 Cl                    0.        1.44687  -1.46981 
 
                          Input orientation:                          
 ---------------------------------------------------------------------
 Center     Atomic      Atomic             Coordinates (Angstroms)
 Number     Number       Type             X           Y           Z
 ---------------------------------------------------------------------
      1          8           0        0.000000    0.000000    0.683397
      2          6           0        0.000000    0.000000   -0.494687
      3         17           0       -0.010000   -1.446870   -1.469805
      4         17           0        0.000000    1.446870   -1.469805
 ---------------------------------------------------------------------
                    Distance matrix (angstroms):
                    1          2          3          4
     1  O    0.000000
     2  C    1.178084   0.000000
     3  Cl   2.594188   1.744817   0.000000
     4  Cl   2.594169   1.744789   2.893757   0.000000
 Symmetry turned off by external request.
 Stoichiometry    CCl2O
 Framework group  C1[X(CCl2O)]
 Deg. of freedom     6
 Full point group                 C1      NOp   1
 Rotational constants (GHZ):           7.9178716           3.4517663           2.4038287
 Standard basis: Aug-CC-pVTZ (5D, 7F)
   192 basis functions,   372 primitive gaussians,   228 cartesian basis functions
    24 alpha electrons       24 beta electrons
       nuclear repulsion energy       191.7648623010 Hartrees.
 NAtoms=    4 NActive=    4 NUniq=    4 SFac= 1.00D+00 NAtFMM=   60 NAOKFM=F Big=F
 Integral buffers will be    131072 words long.
 Raffenetti 1 integral format.
 Two-electron integral symmetry is turned off.
 One-electron integrals computed using PRISM.
 NBasis=   192 RedAO= T EigKep=  1.43D-04  NBF=   192
 NBsUse=   192 1.00D-06 EigRej= -1.00D+00 NBFU=   192
 ExpMin= 3.57D-02 ExpMax= 4.56D+05 ExpMxC= 1.44D+03 IAcc=3 IRadAn=         5 AccDes= 0.00D+00
 Harris functional with IExCor=  205 and IRadAn=       5 diagonalized for initial guess.
 HarFok:  IExCor=  205 AccDes= 0.00D+00 IRadAn=         5 IDoV= 1 UseB2=F ITyADJ=14
 ICtDFT=  3500011 ScaDFX=  1.000000  1.000000  1.000000  1.000000
 FoFCou: FMM=F IPFlag=           0 FMFlag=      100000 FMFlg1=           0
         NFxFlg=           0 DoJE=T BraDBF=F KetDBF=T FulRan=T
         wScrn=  0.000000 ICntrl=       500 IOpCl=  0 I1Cent=   200000004 NGrid=           0
         NMat0=    1 NMatS0=      1 NMatT0=    0 NMatD0=    1 NMtDS0=    0 NMtDT0=    0
 Symmetry not used in FoFCou.
 Keep R1 ints in memory in canonical form, NReq=179712264.
 Requested convergence on RMS density matrix=1.00D-08 within 128 cycles.
 Requested convergence on MAX density matrix=1.00D-06.
 Requested convergence on             energy=1.00D-06.
 No special actions if energy rises.
 SCF Done:  E(RHF) =  -1031.80274087     A.U. after   12 cycles
            NFock= 12  Conv=0.66D-08     -V/T= 2.0003
 ExpMin= 3.57D-02 ExpMax= 4.56D+05 ExpMxC= 1.44D+03 IAcc=3 IRadAn=         5 AccDes= 0.00D+00
 HarFok:  IExCor=  205 AccDes= 0.00D+00 IRadAn=         5 IDoV=-2 UseB2=F ITyADJ=14
 ICtDFT= 12500011 ScaDFX=  1.000000  1.000000  1.000000  1.000000
 Range of M.O.s used for correlation:    13   192
 NBasis=   192 NAE=    24 NBE=    24 NFC=    12 NFV=     0
 NROrb=    180 NOA=    12 NOB=    12 NVA=   168 NVB=   168

 **** Warning!!: The largest alpha MO coefficient is  0.28788225D+02

 Semi-Direct transformation.
 ModeAB=           2 MOrb=            12 LenV=    2146443369
 LASXX=     33405819 LTotXX=    33405819 LenRXX=    33405819
 LTotAB=    33954012 MaxLAS=    56388960 LenRXY=    56388960
 NonZer=    66811638 LenScr=   100987392 LnRSAI=           0
 LnScr1=           0 LExtra=           0 Total=    190782171
 MaxDsk=          -1 SrtSym=           F ITran=            4
 JobTyp=0 Pass  1:  I=   1 to  12.
 (rs|ai) integrals will be sorted in core.
 Spin components of T(2) and E(2):
     alpha-alpha T2 =       0.3523615262D-01 E2=     -0.1018046924D+00
     alpha-beta  T2 =       0.1834149526D+00 E2=     -0.5757999834D+00
     beta-beta   T2 =       0.3523615262D-01 E2=     -0.1018046924D+00
 ANorm=    0.1119771074D+01
 E2 =    -0.7794093682D+00 EUMP2 =    -0.10325821502372D+04
 Keep R2 and R3 ints in memory in canonical form, NReq=351373742.
 CIDS: In Core Option IDoMem=           1.
 Iterations=  50 Convergence= 0.100D-07
 Produce multiple copies of IABC intergrals
 Iteration Nr.   1
 **********************
 DD1Dir will call FoFMem   1 times, MxPair=       156
 NAB=    78 NAA=     0 NBB=     0.
 MP4(R+Q)=  0.22520501D-01
 E3=       -0.19054699D-01        EUMP3=      -0.10326012049D+04
 E4(DQ)=    0.28541445D-02        UMP4(DQ)=   -0.10325983508D+04
 E4(SDQ)=  -0.61277812D-02        UMP4(SDQ)=  -0.10326073327D+04
 DE(Corr)= -0.77594357     E(Corr)=     -1032.5786844    
 NORM(A)=   0.11213538D+01
 Iteration Nr.   2
 **********************
 DD1Dir will call FoFMem   1 times, MxPair=       156
 NAB=    78 NAA=     0 NBB=     0.
 DE(Corr)= -0.80165666     E(CORR)=     -1032.6043975     Delta=-2.57D-02
 NORM(A)=   0.11307146D+01
 Iteration Nr.   3
 **********************
 DD1Dir will call FoFMem   1 times, MxPair=       156
 NAB=    78 NAA=     0 NBB=     0.
 DE(Corr)= -0.80005276     E(CORR)=     -1032.6027936     Delta= 1.60D-03
 NORM(A)=   0.11333185D+01
 Iteration Nr.   4
 **********************
 DD1Dir will call FoFMem   1 times, MxPair=       156
 NAB=    78 NAA=     0 NBB=     0.
 DE(Corr)= -0.80248266     E(CORR)=     -1032.6052235     Delta=-2.43D-03
 NORM(A)=   0.11343299D+01
 Iteration Nr.   5
 **********************
 DD1Dir will call FoFMem   1 times, MxPair=       156
 NAB=    78 NAA=     0 NBB=     0.
 DE(Corr)= -0.80279996     E(CORR)=     -1032.6055408     Delta=-3.17D-04
 NORM(A)=   0.11347203D+01
 Iteration Nr.   6
 **********************
 DD1Dir will call FoFMem   1 times, MxPair=       156
 NAB=    78 NAA=     0 NBB=     0.
 DE(Corr)= -0.80285062     E(CORR)=     -1032.6055915     Delta=-5.07D-05
 NORM(A)=   0.11347915D+01
 Iteration Nr.   7
 **********************
 DD1Dir will call FoFMem   1 times, MxPair=       156
 NAB=    78 NAA=     0 NBB=     0.
 DE(Corr)= -0.80285977     E(CORR)=     -1032.6056006     Delta=-9.15D-06
 NORM(A)=   0.11347927D+01
 Iteration Nr.   8
 **********************
 DD1Dir will call FoFMem   1 times, MxPair=       156
 NAB=    78 NAA=     0 NBB=     0.
 DE(Corr)= -0.80285935     E(CORR)=     -1032.6056002     Delta= 4.16D-07
 NORM(A)=   0.11348008D+01
 Iteration Nr.   9
 **********************
 DD1Dir will call FoFMem   1 times, MxPair=       156
 NAB=    78 NAA=     0 NBB=     0.
 DE(Corr)= -0.80285809     E(CORR)=     -1032.6055990     Delta= 1.26D-06
 NORM(A)=   0.11348003D+01
 Iteration Nr.  10
 **********************
 DD1Dir will call FoFMem   1 times, MxPair=       156
 NAB=    78 NAA=     0 NBB=     0.
 DE(Corr)= -0.80285928     E(CORR)=     -1032.6056001     Delta=-1.19D-06
 NORM(A)=   0.11348020D+01
 Iteration Nr.  11
 **********************
 DD1Dir will call FoFMem   1 times, MxPair=       156
 NAB=    78 NAA=     0 NBB=     0.
 DE(Corr)= -0.80286010     E(CORR)=     -1032.6056010     Delta=-8.18D-07
 NORM(A)=   0.11348031D+01
 Iteration Nr.  12
 **********************
 DD1Dir will call FoFMem   1 times, MxPair=       156
 NAB=    78 NAA=     0 NBB=     0.
 DE(Corr)= -0.80286034     E(CORR)=     -1032.6056012     Delta=-2.48D-07
 NORM(A)=   0.11348038D+01
 Iteration Nr.  13
 **********************
 DD1Dir will call FoFMem   1 times, MxPair=       156
 NAB=    78 NAA=     0 NBB=     0.
 DE(Corr)= -0.80286067     E(CORR)=     -1032.6056015     Delta=-3.25D-07
 NORM(A)=   0.11348042D+01
 Iteration Nr.  14
 **********************
 DD1Dir will call FoFMem   1 times, MxPair=       156
 NAB=    78 NAA=     0 NBB=     0.
 DE(Corr)= -0.80286073     E(CORR)=     -1032.6056016     Delta=-6.49D-08
 NORM(A)=   0.11348044D+01
 Iteration Nr.  15
 **********************
 DD1Dir will call FoFMem   1 times, MxPair=       156
 NAB=    78 NAA=     0 NBB=     0.
 DE(Corr)= -0.80286078     E(CORR)=     -1032.6056017     Delta=-4.78D-08
 NORM(A)=   0.11348045D+01
 Iteration Nr.  16
 **********************
 DD1Dir will call FoFMem   1 times, MxPair=       156
 NAB=    78 NAA=     0 NBB=     0.
 DE(Corr)= -0.80286080     E(CORR)=     -1032.6056017     Delta=-1.64D-08
 NORM(A)=   0.11348045D+01
 Iteration Nr.  17
 **********************
 DD1Dir will call FoFMem   1 times, MxPair=       156
 NAB=    78 NAA=     0 NBB=     0.
 DE(Corr)= -0.80286080     E(CORR)=     -1032.6056017     Delta= 1.74D-09
 NORM(A)=   0.11348045D+01
 Wavefunction amplitudes converged. E(Corr)=     -1032.6056017    
 Largest amplitude= 3.32D-02

 Z-amplitude iterations

 Iteration Nr.   1
 **********************
 DD1Dir will call FoFMem   1 times, MxPair=       156
 NAB=    78 NAA=     0 NBB=     0.
 DE(Z)= -0.77482456     E(Z)=     -1032.5775654     Delta= 2.80D-02
 NORM(A)=   0.11348107D+01
 Iteration Nr.   2
 **********************
 DD1Dir will call FoFMem   1 times, MxPair=       156
 NAB=    78 NAA=     0 NBB=     0.
 DE(Z)= -0.77482476     E(Z)=     -1032.5775656     Delta=-2.03D-07
 NORM(A)=   0.11348084D+01
 Iteration Nr.   3
 **********************
 DD1Dir will call FoFMem   1 times, MxPair=       156
 NAB=    78 NAA=     0 NBB=     0.
 DE(Z)= -0.77482468     E(Z)=     -1032.5775655     Delta= 8.72D-08
 NORM(A)=   0.11348088D+01
 Iteration Nr.   4
 **********************
 DD1Dir will call FoFMem   1 times, MxPair=       156
 NAB=    78 NAA=     0 NBB=     0.
 DE(Z)= -0.77482469     E(Z)=     -1032.5775656     Delta=-1.31D-08
 NORM(A)=   0.11348216D+01
 Iteration Nr.   5
 **********************
 DD1Dir will call FoFMem   1 times, MxPair=       156
 NAB=    78 NAA=     0 NBB=     0.
 DE(Z)= -0.77482508     E(Z)=     -1032.5775659     Delta=-3.91D-07
 NORM(A)=   0.11251683D+01
 Iteration Nr.   6
 **********************
 DD1Dir will call FoFMem   1 times, MxPair=       156
 NAB=    78 NAA=     0 NBB=     0.
 DE(Z)= -0.77451532     E(Z)=     -1032.5772562     Delta= 3.10D-04
 NORM(A)=   0.11251563D+01
 Iteration Nr.   7
 **********************
 DD1Dir will call FoFMem   1 times, MxPair=       156
 NAB=    78 NAA=     0 NBB=     0.
 DE(Z)= -0.77451044     E(Z)=     -1032.5772513     Delta= 4.88D-06
 NORM(A)=   0.11251399D+01
 Iteration Nr.   8
 **********************
 DD1Dir will call FoFMem   1 times, MxPair=       156
 NAB=    78 NAA=     0 NBB=     0.
 DE(Z)= -0.77450845     E(Z)=     -1032.5772493     Delta= 1.99D-06
 NORM(A)=   0.11251367D+01
 Iteration Nr.   9
 **********************
 DD1Dir will call FoFMem   1 times, MxPair=       156
 NAB=    78 NAA=     0 NBB=     0.
 DE(Z)= -0.77450626     E(Z)=     -1032.5772471     Delta= 2.19D-06
 NORM(A)=   0.11251375D+01
 Iteration Nr.  10
 **********************
 DD1Dir will call FoFMem   1 times, MxPair=       156
 NAB=    78 NAA=     0 NBB=     0.
 DE(Z)= -0.77450627     E(Z)=     -1032.5772471     Delta=-1.05D-08
 NORM(A)=   0.11251378D+01
 Iteration Nr.  11
 **********************
 DD1Dir will call FoFMem   1 times, MxPair=       156
 NAB=    78 NAA=     0 NBB=     0.
 DE(Z)= -0.77450658     E(Z)=     -1032.5772474     Delta=-3.01D-07
 NORM(A)=   0.11251380D+01
 Iteration Nr.  12
 **********************
 DD1Dir will call FoFMem   1 times, MxPair=       156
 NAB=    78 NAA=     0 NBB=     0.
 DE(Z)= -0.77450648     E(Z)=     -1032.5772473     Delta= 9.57D-08
 NORM(A)=   0.11251381D+01
 Iteration Nr.  13
 **********************
 DD1Dir will call FoFMem   1 times, MxPair=       156
 NAB=    78 NAA=     0 NBB=     0.
 DE(Z)= -0.77450655     E(Z)=     -1032.5772474     Delta=-6.76D-08
 NORM(A)=   0.11251382D+01
 Iteration Nr.  14
 **********************
 DD1Dir will call FoFMem   1 times, MxPair=       156
 NAB=    78 NAA=     0 NBB=     0.
 DE(Z)= -0.77450653     E(Z)=     -1032.5772474     Delta= 2.18D-08
 NORM(A)=   0.11251382D+01
 Iteration Nr.  15
 **********************
 DD1Dir will call FoFMem   1 times, MxPair=       156
 NAB=    78 NAA=     0 NBB=     0.
 DE(Z)= -0.77450652     E(Z)=     -1032.5772474     Delta= 3.28D-09
 NORM(A)=   0.11251382D+01
 Z-amplitudes converged.
 Discarding MO integrals.
          Differentiating once with respect to electric field.
                with respect to dipole field.
          Electric field/nuclear overlap derivatives assumed to be zero.
 Keep R1 ints in memory in canonical form, NReq=179717427.
          There are     1 degrees of freedom in the 1st order CPHF.  IDoFFX=0 NUNeed=     1.
 LinEq1:  Iter=  0 NonCon=     1 RMS=2.34D-03 Max=5.60D-02 NDo=     1
 AX will form     1 AO Fock derivatives at one time.
 LinEq1:  Iter=  1 NonCon=     1 RMS=8.29D-04 Max=1.86D-02 NDo=     1
 LinEq1:  Iter=  2 NonCon=     1 RMS=3.10D-04 Max=5.63D-03 NDo=     1
 LinEq1:  Iter=  3 NonCon=     1 RMS=1.28D-04 Max=3.30D-03 NDo=     1
 LinEq1:  Iter=  4 NonCon=     1 RMS=5.11D-05 Max=1.23D-03 NDo=     1
 LinEq1:  Iter=  5 NonCon=     1 RMS=1.65D-05 Max=3.62D-04 NDo=     1
 LinEq1:  Iter=  6 NonCon=     1 RMS=4.17D-06 Max=5.72D-05 NDo=     1
 LinEq1:  Iter=  7 NonCon=     1 RMS=9.92D-07 Max=1.16D-05 NDo=     1
 LinEq1:  Iter=  8 NonCon=     1 RMS=2.10D-07 Max=3.15D-06 NDo=     1
 LinEq1:  Iter=  9 NonCon=     1 RMS=4.75D-08 Max=8.05D-07 NDo=     1
 LinEq1:  Iter= 10 NonCon=     1 RMS=1.20D-08 Max=2.23D-07 NDo=     1
 LinEq1:  Iter= 11 NonCon=     1 RMS=2.52D-09 Max=3.83D-08 NDo=     1
 LinEq1:  Iter= 12 NonCon=     1 RMS=4.62D-10 Max=1.16D-08 NDo=     1
 LinEq1:  Iter= 13 NonCon=     1 RMS=7.82D-11 Max=1.20D-09 NDo=     1
 LinEq1:  Iter= 14 NonCon=     0 RMS=1.14D-11 Max=1.28D-10 NDo=     1
 Linear equations converged to 1.000D-10 1.000D-09 after    14 iterations.
 End of Minotr F.D. properties file   721 does not exist.
 End of Minotr F.D. properties file   722 does not exist.
 End of Minotr F.D. properties file   788 does not exist.

 **********************************************************************

            Population analysis using the CC Density.

 **********************************************************************

 Alpha  occ. eigenvalues -- -104.89034-104.89033 -20.62385 -11.47629 -10.61474
 Alpha  occ. eigenvalues --  -10.61472  -8.08151  -8.08151  -8.07940  -8.07939
 Alpha  occ. eigenvalues --   -8.07923  -8.07922  -1.48588  -1.20279  -1.14052
 Alpha  occ. eigenvalues --   -0.81223  -0.70798  -0.70168  -0.64881  -0.53115
 Alpha  occ. eigenvalues --   -0.50173  -0.49904  -0.49524  -0.47705
 Alpha virt. eigenvalues --    0.04778   0.06608   0.07970   0.08607   0.09322
 Alpha virt. eigenvalues --    0.09841   0.11377   0.12504   0.12770   0.13446
 Alpha virt. eigenvalues --    0.15700   0.15883   0.22043   0.22150   0.23660
 Alpha virt. eigenvalues --    0.23885   0.25342   0.26288   0.27970   0.30447
 Alpha virt. eigenvalues --    0.30992   0.31677   0.36353   0.39568   0.43819
 Alpha virt. eigenvalues --    0.44186   0.44239   0.45726   0.47057   0.48397
 Alpha virt. eigenvalues --    0.50797   0.51320   0.52026   0.52362   0.54894
 Alpha virt. eigenvalues --    0.62240   0.64192   0.69239   0.69761   0.71374
 Alpha virt. eigenvalues --    0.71527   0.73596   0.75848   0.79498   0.81359
 Alpha virt. eigenvalues --    0.81590   0.83257   0.83438   0.87005   0.88594
 Alpha virt. eigenvalues --    0.89181   0.91503   0.93369   0.93790   0.94581
 Alpha virt. eigenvalues --    0.96135   0.96650   1.04968   1.06030   1.08839
 Alpha virt. eigenvalues --    1.09708   1.12919   1.14906   1.15999   1.17265
 Alpha virt. eigenvalues --    1.21204   1.23079   1.24231   1.26613   1.33636
 Alpha virt. eigenvalues --    1.36867   1.39729   1.42500   1.46422   1.46729
 Alpha virt. eigenvalues --    1.47094   1.47418   1.56246   1.58071   1.61938
 Alpha virt. eigenvalues --    1.67743   1.67915   1.69458   1.72871   1.80557
 Alpha virt. eigenvalues --    1.81215   1.82778   1.83209   1.85410   2.00855
 Alpha virt. eigenvalues --    2.07250   2.25991   2.28708   2.33590   2.34072
 Alpha virt. eigenvalues --    2.39498   2.44564   2.45215   2.49024   2.49374
 Alpha virt. eigenvalues --    2.52314   2.54232   2.57954   2.59039   2.60506
 Alpha virt. eigenvalues --    2.62146   2.63564   2.66305   2.70390   2.77065
 Alpha virt. eigenvalues --    2.77125   2.81475   2.88537   2.88940   2.91391
 Alpha virt. eigenvalues --    2.92382   2.94576   2.97544   2.99219   3.02331
 Alpha virt. eigenvalues --    3.02624   3.05310   3.06444   3.07227   3.07501
 Alpha virt. eigenvalues --    3.10598   3.13219   3.16252   3.20167   3.21644
 Alpha virt. eigenvalues --    3.25050   3.26581   3.51945   3.53041   3.60367
 Alpha virt. eigenvalues --    3.62876   3.64159   3.70178   3.82333   3.84371
 Alpha virt. eigenvalues --    3.95048   3.96222   4.03114   4.15485   4.19404
 Alpha virt. eigenvalues --    4.43895   4.50778   4.63125   4.75979   5.12352
 Alpha virt. eigenvalues --    5.46238   5.62123   6.56387   6.57772   6.86275
 Alpha virt. eigenvalues --    6.86901   7.04932   7.10221   7.18311   7.18754
 Alpha virt. eigenvalues --    7.19777   7.28404   7.50601   7.51975   7.66654
 Alpha virt. eigenvalues --    7.72790  13.31751  15.69629
          Condensed to atoms (all electrons):
               1          2          3          4
     1  O    8.034130   0.435602  -0.074461  -0.074466
     2  C    0.435602   4.966563   0.136386   0.136371
     3  Cl  -0.074461   0.136386  17.040668  -0.100441
     4  Cl  -0.074466   0.136371  -0.100441  17.040658
 Mulliken charges:
               1
     1  O   -0.320805
     2  C    0.325078
     3  Cl  -0.002151
     4  Cl  -0.002122
 Sum of Mulliken charges =  -0.00000
 Mulliken charges with hydrogens summed into heavy atoms:
               1
     1  O   -0.320805
     2  C    0.325078
     3  Cl  -0.002151
     4  Cl  -0.002122
 Electronic spatial extent (au):  <R**2>=            613.6925
 Charge=             -0.0000 electrons
 Dipole moment (field-independent basis, Debye):
    X=             -0.0001    Y=              0.0001    Z=             -1.2392  Tot=              1.2392
 Quadrupole moment (field-independent basis, Debye-Ang):
   XX=            -35.0849   YY=            -34.3837   ZZ=            -36.2852
   XY=              0.0024   XZ=              0.0031   YZ=             -0.0002
 Traceless Quadrupole moment (field-independent basis, Debye-Ang):
   XX=              0.1664   YY=              0.8676   ZZ=             -1.0339
   XY=              0.0024   XZ=              0.0031   YZ=             -0.0002
 Octapole moment (field-independent basis, Debye-Ang**2):
  XXX=              0.3767  YYY=              0.0008  ZZZ=            106.2012  XYY=              0.0881
  XXY=             -0.0001  XXZ=             36.0666  XZZ=              0.1057  YZZ=              0.0005
  YYZ=             29.7046  XYZ=             -0.0220
 Hexadecapole moment (field-independent basis, Debye-Ang**3):
 XXXX=            -37.1390 YYYY=           -329.2948 ZZZZ=           -383.1008 XXXY=             -0.5482
 XXXZ=             -0.5543 YYYX=             -0.4614 YYYZ=             -0.0013 ZZZX=             -0.5010
 ZZZY=             -0.0012 XXYY=            -65.2570 XXZZ=            -71.0867 YYZZ=           -106.8882
 XXYZ=              0.0004 YYXZ=             -0.0936 ZZXY=             -0.1237
 N-N= 1.917648623010D+02 E-N=-2.837759022314D+03  KE= 1.032422029088D+03
 There are a total of       90730 grid points.
 ElSum from          density=       48.0000001592
 ElSum from atomic densities=       48.0000007009

 Hirshfeld populations at iteration   1 (CX, CA, CB, DipXYZ):
               1          2          3          4          5          6
     1  O    0.000007   4.092967   4.092967  -0.000308   0.000001  -0.043414
     2  C    0.000001   2.894207   2.894207   0.001223  -0.000005  -0.057481
     3  Cl   0.000011   8.506417   8.506417  -0.000818  -0.065658  -0.009985
     4  Cl   0.000011   8.506409   8.506409  -0.000364   0.065665  -0.009989
       Tot   0.000030  24.000000  24.000000  -0.000267   0.000004  -0.120869

 Dip from Atomic Chgs              0.000243   0.000047  -0.366668
         Total Dipole             -0.000025   0.000050  -0.487537

 Hirshfeld charges, spin densities, dipoles, and CM5 charges using IRadAn=      5:
              Q-H        S-H        Dx         Dy         Dz        Q-CM5   
     1  O   -0.185935   0.000000  -0.000308   0.000001  -0.043414  -0.232219
     2  C    0.211587   0.000000   0.001223  -0.000005  -0.057481   0.250710
     3  Cl  -0.012835   0.000000  -0.000818  -0.065658  -0.009985  -0.009254
     4  Cl  -0.012818   0.000000  -0.000364   0.065665  -0.009989  -0.009237
       Tot  -0.000000   0.000000  -0.000267   0.000004  -0.120869  -0.000000
 Hirshfeld charges with hydrogens summed into heavy atoms:
              Q-H       Q-CM5   
     1  O   -0.185935  -0.232219
     2  C    0.211587   0.250710
     3  Cl  -0.012835  -0.009254
     4  Cl  -0.012818  -0.009237
 
 EQQ= 0.000000000000E+00 EQD= 0.000000000000E+00 EDD= 0.239731226977E-03
 EQQ+QD+DD= 0.239731226977E-03
 
 Breneman (CHELPG) radii used.
 Generate Potential Derived Charges using the Breneman model, NDens= 1.
 Grid spacing= 0.300 Box extension= 2.800
 NStep X,Y,Z=   20     30     26   Total possible points=       15600
 Number of Points to Fit=    4536

 **********************************************************************

            Electrostatic Properties Using The CC Density.

 **********************************************************************

       Atomic Center    1 is at   0.000000  0.000000  0.683397
       Atomic Center    2 is at   0.000000  0.000000 -0.494687
       Atomic Center    3 is at  -0.010000 -1.446870 -1.469805
       Atomic Center    4 is at   0.000000  1.446870 -1.469805
    4536 points will be used for fitting atomic charges
 Fitting point charges to electrostatic potential
 The dipole moment will be constrained to the correct value
 Charges from ESP fit, RMS=   0.00664 RRMS=   0.58830:
 ESP charges:
               1
     1  O   -0.216824
     2  C    0.214203
     3  Cl   0.001302
     4  Cl   0.001320
 Sum of ESP charges =   0.00000
 ESP charges with hydrogens summed into heavy atoms:
               1
     1  O   -0.216824
     2  C    0.214203
     3  Cl   0.001302
     4  Cl   0.001320
 Charge=   0.00000 Dipole=    -0.0001     0.0001    -1.2392 Tot=     1.2392
 -----------------------------------------------------------------

              Electrostatic Properties (Atomic Units)

 -----------------------------------------------------------------
    Center     Electric         -------- Electric Field --------
               Potential          X             Y             Z
 -----------------------------------------------------------------
    1 Atom    -22.284593
    2 Atom    -14.536672
    3 Atom    -64.374488
    4 Atom    -64.374483
 -----------------------------------------------------------------
 ******************************Gaussian NBO Version 3.1******************************
             N A T U R A L   A T O M I C   O R B I T A L   A N D
          N A T U R A L   B O N D   O R B I T A L   A N A L Y S I S
 ******************************Gaussian NBO Version 3.1******************************
       /RESON  / : Allow strongly delocalized NBO set

 Analyzing the QCI/CC density

 Job title: cl2co-wavefunction                                              

 Storage needed:    111522 in NPA (2147483536 available)
 GSVD:  LWork=        6614 too small for GESVD, short by       52797 words or       52797 for optimal perf.


 NATURAL POPULATIONS:  Natural atomic orbital occupancies 
                                                          
   NAO  Atom  No  lang   Type(AO)    Occupancy
 --------------------------------------------
     1    O    1  S      Cor( 1S)     1.99951
     2    O    1  S      Val( 2S)     1.68007
     3    O    1  S      Ryd( 3S)     0.00630
     4    O    1  S      Ryd( 4S)     0.00039
     5    O    1  S      Ryd( 5S)     0.00029
     6    O    1  px     Val( 2p)     1.35790
     7    O    1  px     Ryd( 3p)     0.00703
     8    O    1  px     Ryd( 4p)     0.00050
     9    O    1  px     Ryd( 5p)     0.00007
    10    O    1  py     Val( 2p)     1.74350
    11    O    1  py     Ryd( 3p)     0.01326
    12    O    1  py     Ryd( 4p)     0.00065
    13    O    1  py     Ryd( 5p)     0.00014
    14    O    1  pz     Val( 2p)     1.58114
    15    O    1  pz     Ryd( 3p)     0.00648
    16    O    1  pz     Ryd( 4p)     0.00050
    17    O    1  pz     Ryd( 5p)     0.00010
    18    O    1  dxy    Ryd( 3d)     0.00545
    19    O    1  dxy    Ryd( 4d)     0.00037
    20    O    1  dxy    Ryd( 5d)     0.00009
    21    O    1  dxz    Ryd( 3d)     0.01157
    22    O    1  dxz    Ryd( 4d)     0.00031
    23    O    1  dxz    Ryd( 5d)     0.00010
    24    O    1  dyz    Ryd( 3d)     0.01194
    25    O    1  dyz    Ryd( 4d)     0.00046
    26    O    1  dyz    Ryd( 5d)     0.00013
    27    O    1  dx2y2  Ryd( 3d)     0.00537
    28    O    1  dx2y2  Ryd( 4d)     0.00037
    29    O    1  dx2y2  Ryd( 5d)     0.00009
    30    O    1  dz2    Ryd( 3d)     0.02064
    31    O    1  dz2    Ryd( 4d)     0.00043
    32    O    1  dz2    Ryd( 5d)     0.00021
    33    O    1  f(0)   Ryd( 4f)     0.00132
    34    O    1  f(0)   Ryd( 5f)     0.00013
    35    O    1  f(C1)  Ryd( 4f)     0.00067
    36    O    1  f(C1)  Ryd( 5f)     0.00010
    37    O    1  f(S1)  Ryd( 4f)     0.00079
    38    O    1  f(S1)  Ryd( 5f)     0.00013
    39    O    1  f(C2)  Ryd( 4f)     0.00046
    40    O    1  f(C2)  Ryd( 5f)     0.00008
    41    O    1  f(S2)  Ryd( 4f)     0.00047
    42    O    1  f(S2)  Ryd( 5f)     0.00008
    43    O    1  f(C3)  Ryd( 4f)     0.00044
    44    O    1  f(C3)  Ryd( 5f)     0.00006
    45    O    1  f(S3)  Ryd( 4f)     0.00045
    46    O    1  f(S3)  Ryd( 5f)     0.00007

    47    C    2  S      Cor( 1S)     1.99941
    48    C    2  S      Val( 2S)     0.94594
    49    C    2  S      Ryd( 3S)     0.00955
    50    C    2  S      Ryd( 4S)     0.00017
    51    C    2  S      Ryd( 5S)     0.00010
    52    C    2  px     Val( 2p)     0.80563
    53    C    2  px     Ryd( 3p)     0.00760
    54    C    2  px     Ryd( 4p)     0.00059
    55    C    2  px     Ryd( 5p)     0.00018
    56    C    2  py     Val( 2p)     0.90088
    57    C    2  py     Ryd( 3p)     0.01084
    58    C    2  py     Ryd( 4p)     0.00067
    59    C    2  py     Ryd( 5p)     0.00038
    60    C    2  pz     Val( 2p)     0.80670
    61    C    2  pz     Ryd( 3p)     0.02822
    62    C    2  pz     Ryd( 5p)     0.00032
    63    C    2  pz     Ryd( 4p)     0.00057
    64    C    2  dxy    Ryd( 3d)     0.00873
    65    C    2  dxy    Ryd( 4d)     0.00030
    66    C    2  dxy    Ryd( 5d)     0.00014
    67    C    2  dxz    Ryd( 3d)     0.00826
    68    C    2  dxz    Ryd( 4d)     0.00069
    69    C    2  dxz    Ryd( 5d)     0.00027
    70    C    2  dyz    Ryd( 3d)     0.01137
    71    C    2  dyz    Ryd( 4d)     0.00085
    72    C    2  dyz    Ryd( 5d)     0.00023
    73    C    2  dx2y2  Ryd( 3d)     0.00613
    74    C    2  dx2y2  Ryd( 5d)     0.00024
    75    C    2  dx2y2  Ryd( 4d)     0.00027
    76    C    2  dz2    Ryd( 3d)     0.00685
    77    C    2  dz2    Ryd( 4d)     0.00046
    78    C    2  dz2    Ryd( 5d)     0.00025
    79    C    2  f(0)   Ryd( 4f)     0.00280
    80    C    2  f(0)   Ryd( 5f)     0.00036
    81    C    2  f(C1)  Ryd( 4f)     0.00181
    82    C    2  f(C1)  Ryd( 5f)     0.00041
    83    C    2  f(S1)  Ryd( 4f)     0.00306
    84    C    2  f(S1)  Ryd( 5f)     0.00057
    85    C    2  f(C2)  Ryd( 4f)     0.00182
    86    C    2  f(C2)  Ryd( 5f)     0.00023
    87    C    2  f(S2)  Ryd( 4f)     0.00173
    88    C    2  f(S2)  Ryd( 5f)     0.00026
    89    C    2  f(C3)  Ryd( 4f)     0.00144
    90    C    2  f(C3)  Ryd( 5f)     0.00021
    91    C    2  f(S3)  Ryd( 4f)     0.00150
    92    C    2  f(S3)  Ryd( 5f)     0.00018

    93   Cl    3  S      Cor( 1S)     2.00000
    94   Cl    3  S      Cor( 2S)     1.99940
    95   Cl    3  S      Val( 3S)     1.84255
    96   Cl    3  S      Ryd( 4S)     0.00533
    97   Cl    3  S      Ryd( 5S)     0.00031
    98   Cl    3  S      Ryd( 6S)     0.00021
    99   Cl    3  px     Cor( 2p)     2.00003
   100   Cl    3  px     Val( 3p)     1.85112
   101   Cl    3  px     Ryd( 4p)     0.00799
   102   Cl    3  px     Ryd( 5p)     0.00046
   103   Cl    3  px     Ryd( 6p)     0.00007
   104   Cl    3  py     Cor( 2p)     1.99994
   105   Cl    3  py     Val( 3p)     1.43371
   106   Cl    3  py     Ryd( 4p)     0.00608
   107   Cl    3  py     Ryd( 5p)     0.00050
   108   Cl    3  py     Ryd( 6p)     0.00006
   109   Cl    3  pz     Cor( 2p)     1.99999
   110   Cl    3  pz     Val( 3p)     1.71373
   111   Cl    3  pz     Ryd( 4p)     0.00718
   112   Cl    3  pz     Ryd( 5p)     0.00046
   113   Cl    3  pz     Ryd( 6p)     0.00010
   114   Cl    3  dxy    Ryd( 3d)     0.01816
   115   Cl    3  dxy    Ryd( 4d)     0.00051
   116   Cl    3  dxy    Ryd( 5d)     0.00012
   117   Cl    3  dxz    Ryd( 3d)     0.01840
   118   Cl    3  dxz    Ryd( 4d)     0.00061
   119   Cl    3  dxz    Ryd( 5d)     0.00013
   120   Cl    3  dyz    Ryd( 3d)     0.02339
   121   Cl    3  dyz    Ryd( 4d)     0.00047
   122   Cl    3  dyz    Ryd( 5d)     0.00012
   123   Cl    3  dx2y2  Ryd( 3d)     0.02010
   124   Cl    3  dx2y2  Ryd( 4d)     0.00051
   125   Cl    3  dx2y2  Ryd( 5d)     0.00012
   126   Cl    3  dz2    Ryd( 3d)     0.01715
   127   Cl    3  dz2    Ryd( 4d)     0.00052
   128   Cl    3  dz2    Ryd( 5d)     0.00017
   129   Cl    3  f(0)   Ryd( 4f)     0.00132
   130   Cl    3  f(0)   Ryd( 5f)     0.00013
   131   Cl    3  f(C1)  Ryd( 4f)     0.00132
   132   Cl    3  f(C1)  Ryd( 5f)     0.00012
   133   Cl    3  f(S1)  Ryd( 4f)     0.00129
   134   Cl    3  f(S1)  Ryd( 5f)     0.00017
   135   Cl    3  f(C2)  Ryd( 4f)     0.00156
   136   Cl    3  f(C2)  Ryd( 5f)     0.00013
   137   Cl    3  f(S2)  Ryd( 4f)     0.00132
   138   Cl    3  f(S2)  Ryd( 5f)     0.00014
   139   Cl    3  f(C3)  Ryd( 4f)     0.00130
   140   Cl    3  f(C3)  Ryd( 5f)     0.00013
   141   Cl    3  f(S3)  Ryd( 4f)     0.00134
   142   Cl    3  f(S3)  Ryd( 5f)     0.00013

   143   Cl    4  S      Cor( 1S)     2.00000
   144   Cl    4  S      Cor( 2S)     1.99940
   145   Cl    4  S      Val( 3S)     1.84254
   146   Cl    4  S      Ryd( 4S)     0.00533
   147   Cl    4  S      Ryd( 5S)     0.00031
   148   Cl    4  S      Ryd( 6S)     0.00021
   149   Cl    4  px     Cor( 2p)     2.00003
   150   Cl    4  px     Val( 3p)     1.85114
   151   Cl    4  px     Ryd( 4p)     0.00799
   152   Cl    4  px     Ryd( 5p)     0.00046
   153   Cl    4  px     Ryd( 6p)     0.00007
   154   Cl    4  py     Cor( 2p)     1.99994
   155   Cl    4  py     Val( 3p)     1.43369
   156   Cl    4  py     Ryd( 4p)     0.00608
   157   Cl    4  py     Ryd( 5p)     0.00050
   158   Cl    4  py     Ryd( 6p)     0.00006
   159   Cl    4  pz     Cor( 2p)     1.99999
   160   Cl    4  pz     Val( 3p)     1.71373
   161   Cl    4  pz     Ryd( 4p)     0.00718
   162   Cl    4  pz     Ryd( 5p)     0.00046
   163   Cl    4  pz     Ryd( 6p)     0.00010
   164   Cl    4  dxy    Ryd( 3d)     0.01816
   165   Cl    4  dxy    Ryd( 4d)     0.00051
   166   Cl    4  dxy    Ryd( 5d)     0.00012
   167   Cl    4  dxz    Ryd( 3d)     0.01839
   168   Cl    4  dxz    Ryd( 4d)     0.00061
   169   Cl    4  dxz    Ryd( 5d)     0.00013
   170   Cl    4  dyz    Ryd( 3d)     0.02339
   171   Cl    4  dyz    Ryd( 4d)     0.00047
   172   Cl    4  dyz    Ryd( 5d)     0.00012
   173   Cl    4  dx2y2  Ryd( 3d)     0.02010
   174   Cl    4  dx2y2  Ryd( 4d)     0.00051
   175   Cl    4  dx2y2  Ryd( 5d)     0.00012
   176   Cl    4  dz2    Ryd( 3d)     0.01715
   177   Cl    4  dz2    Ryd( 4d)     0.00052
   178   Cl    4  dz2    Ryd( 5d)     0.00017
   179   Cl    4  f(0)   Ryd( 4f)     0.00132
   180   Cl    4  f(0)   Ryd( 5f)     0.00013
   181   Cl    4  f(C1)  Ryd( 4f)     0.00132
   182   Cl    4  f(C1)  Ryd( 5f)     0.00012
   183   Cl    4  f(S1)  Ryd( 4f)     0.00129
   184   Cl    4  f(S1)  Ryd( 5f)     0.00017
   185   Cl    4  f(C2)  Ryd( 4f)     0.00156
   186   Cl    4  f(C2)  Ryd( 5f)     0.00013
   187   Cl    4  f(S2)  Ryd( 4f)     0.00132
   188   Cl    4  f(S2)  Ryd( 5f)     0.00014
   189   Cl    4  f(C3)  Ryd( 4f)     0.00130
   190   Cl    4  f(C3)  Ryd( 5f)     0.00013
   191   Cl    4  f(S3)  Ryd( 4f)     0.00134
   192   Cl    4  f(S3)  Ryd( 5f)     0.00013


 Summary of Natural Population Analysis:                  
                                                          
                                       Natural Population 
                Natural  -----------------------------------------------
    Atom  No    Charge         Core      Valence    Rydberg      Total
 -----------------------------------------------------------------------
      O    1   -0.46061      1.99951     6.36261    0.09849     8.46061
      C    2    0.42083      1.99941     3.45915    0.12061     5.57917
     Cl    3    0.01988      9.99935     6.84111    0.13966    16.98012
     Cl    4    0.01990      9.99935     6.84109    0.13966    16.98010
 =======================================================================
   * Total *    0.00000     23.99762    23.50396    0.49842    48.00000

                                 Natural Population      
 --------------------------------------------------------
   Core                      23.99762 ( 99.9901% of  24)
   Valence                   23.50396 ( 97.9332% of  24)
   Natural Minimal Basis     47.50158 ( 98.9616% of  48)
   Natural Rydberg Basis      0.49842 (  1.0384% of  48)
 --------------------------------------------------------

    Atom  No          Natural Electron Configuration
 ----------------------------------------------------------------------------
      O    1      [core]2S( 1.68)2p( 4.68)3S( 0.01)3p( 0.03)3d( 0.05)
      C    2      [core]2S( 0.95)2p( 2.51)3S( 0.01)3p( 0.05)3d( 0.04)4f( 0.01)
     Cl    3      [core]3S( 1.84)3p( 5.00)4S( 0.01)3d( 0.10)4p( 0.02)4f( 0.01)
     Cl    4      [core]3S( 1.84)3p( 5.00)4S( 0.01)3d( 0.10)4p( 0.02)4f( 0.01)


 NBO analysis skipped by request.
 Unable to Open any file for archive entry.
 1\1\GINC-TRAPISTA\SP\RQCISD-FC\Aug-CC-pVTZ\C1Cl2O1\WAGNER\04-Sep-2022\
 0\\# qcisd/aug-cc-pvtz nosymm density=current pop=(chelpg,hirshfeld,np
 a,dipole)\\cl2co-wavefunction\\0,1\O,0,0.,0.,0.683397\C,0,0.,0.,-0.494
 687\Cl,0,-0.01,-1.44687,-1.469805\Cl,0,0.,1.44687,-1.469805\\Version=E
 M64L-G16RevC.01\HF=-1031.8027409\MP2=-1032.5821502\MP3=-1032.6012049\M
 P4D=-1032.6208713\MP4DQ=-1032.5983508\MP4SDQ=-1032.6073327\QCISD=-1032
 .6056017\RMSD=6.603e-09\Dipole=-0.0000246,0.0000505,-0.4875379\Quadrup
 ole=0.1236772,0.6450037,-0.7686809,0.0018011,0.0022838,-0.0001543\PG=C
 01 [X(C1Cl2O1)]\\@
 The archive entry for this job was punched.


 ... IT CAN BE VERY DIFFICULT, IN THESE COMPLEX TIMES,
 TO UNDERSTAND JUST HOW SCIENTISTS DO WHAT THEY DO.

                     DON MOSER IN THE FEBRUARY 1979 SMITHSONIAN
 Job cpu time:       0 days  7 hours  1 minutes  3.7 seconds.
 Elapsed time:       0 days  0 hours 26 minutes 39.3 seconds.
 File lengths (MBytes):  RWF=  22679 Int=      0 D2E=      0 Chk=      4 Scr=      1
 Normal termination of Gaussian 16 at Sun Sep  4 01:50:21 2022.
