 Entering Gaussian System, Link 0=/home/wagner/chemistry/gaussian/g16/g16
 Input=GAUSSIAN.com
 Output=GAUSSIAN.log
 Initial command:
 /home/wagner/chemistry/gaussian/g16/l1.exe "/home/wagner/chemistry/gaussian/work/Gau-35700.inp" -scrdir="/home/wagner/chemistry/gaussian/work/"
 Entering Link 1 = /home/wagner/chemistry/gaussian/g16/l1.exe PID=     35702.
  
 Copyright (c) 1988-2019, Gaussian, Inc.  All Rights Reserved.
  
 This is part of the Gaussian(R) 16 program.  It is based on
 the Gaussian(R) 09 system (copyright 2009, Gaussian, Inc.),
 the Gaussian(R) 03 system (copyright 2003, Gaussian, Inc.),
 the Gaussian(R) 98 system (copyright 1998, Gaussian, Inc.),
 the Gaussian(R) 94 system (copyright 1995, Gaussian, Inc.),
 the Gaussian 92(TM) system (copyright 1992, Gaussian, Inc.),
 the Gaussian 90(TM) system (copyright 1990, Gaussian, Inc.),
 the Gaussian 88(TM) system (copyright 1988, Gaussian, Inc.),
 the Gaussian 86(TM) system (copyright 1986, Carnegie Mellon
 University), and the Gaussian 82(TM) system (copyright 1983,
 Carnegie Mellon University). Gaussian is a federally registered
 trademark of Gaussian, Inc.
  
 This software contains proprietary and confidential information,
 including trade secrets, belonging to Gaussian, Inc.
  
 This software is provided under written license and may be
 used, copied, transmitted, or stored only in accord with that
 written license.
  
 The following legend is applicable only to US Government
 contracts under FAR:
  
                    RESTRICTED RIGHTS LEGEND
  
 Use, reproduction and disclosure by the US Government is
 subject to restrictions as set forth in subparagraphs (a)
 and (c) of the Commercial Computer Software - Restricted
 Rights clause in FAR 52.227-19.
  
 Gaussian, Inc.
 340 Quinnipiac St., Bldg. 40, Wallingford CT 06492
  
  
 ---------------------------------------------------------------
 Warning -- This program may not be used in any manner that
 competes with the business of Gaussian, Inc. or will provide
 assistance to any competitor of Gaussian, Inc.  The licensee
 of this program is prohibited from giving any competitor of
 Gaussian, Inc. access to this program.  By using this program,
 the user acknowledges that Gaussian, Inc. is engaged in the
 business of creating and licensing software in the field of
 computational chemistry and represents and warrants to the
 licensee that it is not a competitor of Gaussian, Inc. and that
 it will not use this program in any manner prohibited above.
 ---------------------------------------------------------------
  

 Cite this work as:
 Gaussian 16, Revision C.01,
 M. J. Frisch, G. W. Trucks, H. B. Schlegel, G. E. Scuseria, 
 M. A. Robb, J. R. Cheeseman, G. Scalmani, V. Barone, 
 G. A. Petersson, H. Nakatsuji, X. Li, M. Caricato, A. V. Marenich, 
 J. Bloino, B. G. Janesko, R. Gomperts, B. Mennucci, H. P. Hratchian, 
 J. V. Ortiz, A. F. Izmaylov, J. L. Sonnenberg, D. Williams-Young, 
 F. Ding, F. Lipparini, F. Egidi, J. Goings, B. Peng, A. Petrone, 
 T. Henderson, D. Ranasinghe, V. G. Zakrzewski, J. Gao, N. Rega, 
 G. Zheng, W. Liang, M. Hada, M. Ehara, K. Toyota, R. Fukuda, 
 J. Hasegawa, M. Ishida, T. Nakajima, Y. Honda, O. Kitao, H. Nakai, 
 T. Vreven, K. Throssell, J. A. Montgomery, Jr., J. E. Peralta, 
 F. Ogliaro, M. J. Bearpark, J. J. Heyd, E. N. Brothers, K. N. Kudin, 
 V. N. Staroverov, T. A. Keith, R. Kobayashi, J. Normand, 
 K. Raghavachari, A. P. Rendell, J. C. Burant, S. S. Iyengar, 
 J. Tomasi, M. Cossi, J. M. Millam, M. Klene, C. Adamo, R. Cammi, 
 J. W. Ochterski, R. L. Martin, K. Morokuma, O. Farkas, 
 J. B. Foresman, and D. J. Fox, Gaussian, Inc., Wallingford CT, 2019.
 
 ******************************************
 Gaussian 16:  EM64L-G16RevC.01  3-Jul-2019
                 4-Sep-2022 
 ******************************************
 %nproc=16
 Will use up to   16 processors via shared memory.
 %mem=16GB
 ----------------------------------------------------------------------
 # qcisd/aug-cc-pvtz nosymm density=current pop=(chelpg,hirshfeld,npa,d
 ipole)
 ----------------------------------------------------------------------
 1/30=1,38=1,172=1/1;
 2/12=2,15=1,17=6,18=5,40=1/2;
 3/5=16,6=1,7=10,11=9,25=1,30=1,71=1/1,2,3;
 4//1;
 5/5=2,38=5/2;
 8/6=4,9=120000,10=1/1,4;
 9/5=8,15=1/13;
 11/28=-7,31=1,32=3,42=3/11;
 10/5=6,13=10,31=1/2;
 6/7=2,8=2,9=2,10=2,15=24,20=3,22=-1,40=-1,79=1/1,2,7;
 99/5=1,9=1/99;
 ------------------
 cl2co-wavefunction
 ------------------
 Symbolic Z-matrix:
 Charge =  0 Multiplicity = 1
 O                     0.        0.        0.6834 
 C                     0.        0.       -0.49469 
 Cl                    0.       -1.44687  -1.45981 
 Cl                    0.        1.44687  -1.46981 
 
                          Input orientation:                          
 ---------------------------------------------------------------------
 Center     Atomic      Atomic             Coordinates (Angstroms)
 Number     Number       Type             X           Y           Z
 ---------------------------------------------------------------------
      1          8           0        0.000000    0.000000    0.683397
      2          6           0        0.000000    0.000000   -0.494687
      3         17           0        0.000000   -1.446870   -1.459805
      4         17           0        0.000000    1.446870   -1.469805
 ---------------------------------------------------------------------
                    Distance matrix (angstroms):
                    1          2          3          4
     1  O    0.000000
     2  C    1.178084   0.000000
     3  Cl   2.585875   1.739220   0.000000
     4  Cl   2.594169   1.744789   2.893757   0.000000
 Symmetry turned off by external request.
 Stoichiometry    CCl2O
 Framework group  CS[SG(CCl2O)]
 Deg. of freedom     5
 Full point group                 CS      NOp   2
 Rotational constants (GHZ):           7.9591284           3.4517365           2.4076014
 Standard basis: Aug-CC-pVTZ (5D, 7F)
   192 basis functions,   372 primitive gaussians,   228 cartesian basis functions
    24 alpha electrons       24 beta electrons
       nuclear repulsion energy       191.9536149581 Hartrees.
 NAtoms=    4 NActive=    4 NUniq=    4 SFac= 1.00D+00 NAtFMM=   60 NAOKFM=F Big=F
 Integral buffers will be    131072 words long.
 Raffenetti 1 integral format.
 Two-electron integral symmetry is turned off.
 One-electron integrals computed using PRISM.
 NBasis=   192 RedAO= T EigKep=  1.43D-04  NBF=   192
 NBsUse=   192 1.00D-06 EigRej= -1.00D+00 NBFU=   192
 ExpMin= 3.57D-02 ExpMax= 4.56D+05 ExpMxC= 1.44D+03 IAcc=3 IRadAn=         5 AccDes= 0.00D+00
 Harris functional with IExCor=  205 and IRadAn=       5 diagonalized for initial guess.
 HarFok:  IExCor=  205 AccDes= 0.00D+00 IRadAn=         5 IDoV= 1 UseB2=F ITyADJ=14
 ICtDFT=  3500011 ScaDFX=  1.000000  1.000000  1.000000  1.000000
 FoFCou: FMM=F IPFlag=           0 FMFlag=      100000 FMFlg1=           0
         NFxFlg=           0 DoJE=T BraDBF=F KetDBF=T FulRan=T
         wScrn=  0.000000 ICntrl=       500 IOpCl=  0 I1Cent=   200000004 NGrid=           0
         NMat0=    1 NMatS0=      1 NMatT0=    0 NMatD0=    1 NMtDS0=    0 NMtDT0=    0
 Symmetry not used in FoFCou.
 Keep R1 ints in memory in canonical form, NReq=179712351.
 Requested convergence on RMS density matrix=1.00D-08 within 128 cycles.
 Requested convergence on MAX density matrix=1.00D-06.
 Requested convergence on             energy=1.00D-06.
 No special actions if energy rises.
 SCF Done:  E(RHF) =  -1031.80283603     A.U. after   12 cycles
            NFock= 12  Conv=0.66D-08     -V/T= 2.0003
 ExpMin= 3.57D-02 ExpMax= 4.56D+05 ExpMxC= 1.44D+03 IAcc=3 IRadAn=         5 AccDes= 0.00D+00
 HarFok:  IExCor=  205 AccDes= 0.00D+00 IRadAn=         5 IDoV=-2 UseB2=F ITyADJ=14
 ICtDFT= 12500011 ScaDFX=  1.000000  1.000000  1.000000  1.000000
 Range of M.O.s used for correlation:    13   192
 NBasis=   192 NAE=    24 NBE=    24 NFC=    12 NFV=     0
 NROrb=    180 NOA=    12 NOB=    12 NVA=   168 NVB=   168

 **** Warning!!: The largest alpha MO coefficient is  0.28898666D+02

 Semi-Direct transformation.
 ModeAB=           2 MOrb=            12 LenV=    2146443355
 LASXX=     33405819 LTotXX=    33405819 LenRXX=    33405819
 LTotAB=    33954012 MaxLAS=    56388960 LenRXY=    56388960
 NonZer=    66811638 LenScr=   100987392 LnRSAI=           0
 LnScr1=           0 LExtra=           0 Total=    190782171
 MaxDsk=          -1 SrtSym=           F ITran=            4
 JobTyp=0 Pass  1:  I=   1 to  12.
 (rs|ai) integrals will be sorted in core.
 Spin components of T(2) and E(2):
     alpha-alpha T2 =       0.3521102864D-01 E2=     -0.1018005323D+00
     alpha-beta  T2 =       0.1832475026D+00 E2=     -0.5756871124D+00
     beta-beta   T2 =       0.3521102864D-01 E2=     -0.1018005323D+00
 ANorm=    0.1119673863D+01
 E2 =    -0.7792881769D+00 EUMP2 =    -0.10325821242028D+04
 Keep R2 and R3 ints in memory in canonical form, NReq=351373829.
 CIDS: In Core Option IDoMem=           1.
 Iterations=  50 Convergence= 0.100D-07
 Produce multiple copies of IABC intergrals
 Iteration Nr.   1
 **********************
 DD1Dir will call FoFMem   1 times, MxPair=       156
 NAB=    78 NAA=     0 NBB=     0.
 MP4(R+Q)=  0.22497273D-01
 E3=       -0.19088651D-01        EUMP3=      -0.10326012129D+04
 E4(DQ)=    0.28610913D-02        UMP4(DQ)=   -0.10325983518D+04
 E4(SDQ)=  -0.60936761D-02        UMP4(SDQ)=  -0.10326073065D+04
 DE(Corr)= -0.77587955     E(Corr)=     -1032.5787156    
 NORM(A)=   0.11212622D+01
 Iteration Nr.   2
 **********************
 DD1Dir will call FoFMem   1 times, MxPair=       156
 NAB=    78 NAA=     0 NBB=     0.
 DE(Corr)= -0.80153958     E(CORR)=     -1032.6043756     Delta=-2.57D-02
 NORM(A)=   0.11306035D+01
 Iteration Nr.   3
 **********************
 DD1Dir will call FoFMem   1 times, MxPair=       156
 NAB=    78 NAA=     0 NBB=     0.
 DE(Corr)= -0.79994896     E(CORR)=     -1032.6027850     Delta= 1.59D-03
 NORM(A)=   0.11331966D+01
 Iteration Nr.   4
 **********************
 DD1Dir will call FoFMem   1 times, MxPair=       156
 NAB=    78 NAA=     0 NBB=     0.
 DE(Corr)= -0.80237037     E(CORR)=     -1032.6052064     Delta=-2.42D-03
 NORM(A)=   0.11342038D+01
 Iteration Nr.   5
 **********************
 DD1Dir will call FoFMem   1 times, MxPair=       156
 NAB=    78 NAA=     0 NBB=     0.
 DE(Corr)= -0.80268639     E(CORR)=     -1032.6055224     Delta=-3.16D-04
 NORM(A)=   0.11345924D+01
 Iteration Nr.   6
 **********************
 DD1Dir will call FoFMem   1 times, MxPair=       156
 NAB=    78 NAA=     0 NBB=     0.
 DE(Corr)= -0.80273682     E(CORR)=     -1032.6055728     Delta=-5.04D-05
 NORM(A)=   0.11346632D+01
 Iteration Nr.   7
 **********************
 DD1Dir will call FoFMem   1 times, MxPair=       156
 NAB=    78 NAA=     0 NBB=     0.
 DE(Corr)= -0.80274591     E(CORR)=     -1032.6055819     Delta=-9.09D-06
 NORM(A)=   0.11346643D+01
 Iteration Nr.   8
 **********************
 DD1Dir will call FoFMem   1 times, MxPair=       156
 NAB=    78 NAA=     0 NBB=     0.
 DE(Corr)= -0.80274550     E(CORR)=     -1032.6055815     Delta= 4.17D-07
 NORM(A)=   0.11346723D+01
 Iteration Nr.   9
 **********************
 DD1Dir will call FoFMem   1 times, MxPair=       156
 NAB=    78 NAA=     0 NBB=     0.
 DE(Corr)= -0.80274424     E(CORR)=     -1032.6055803     Delta= 1.26D-06
 NORM(A)=   0.11346718D+01
 Iteration Nr.  10
 **********************
 DD1Dir will call FoFMem   1 times, MxPair=       156
 NAB=    78 NAA=     0 NBB=     0.
 DE(Corr)= -0.80274543     E(CORR)=     -1032.6055815     Delta=-1.19D-06
 NORM(A)=   0.11346734D+01
 Iteration Nr.  11
 **********************
 DD1Dir will call FoFMem   1 times, MxPair=       156
 NAB=    78 NAA=     0 NBB=     0.
 DE(Corr)= -0.80274623     E(CORR)=     -1032.6055823     Delta=-8.07D-07
 NORM(A)=   0.11346746D+01
 Iteration Nr.  12
 **********************
 DD1Dir will call FoFMem   1 times, MxPair=       156
 NAB=    78 NAA=     0 NBB=     0.
 DE(Corr)= -0.80274648     E(CORR)=     -1032.6055825     Delta=-2.52D-07
 NORM(A)=   0.11346752D+01
 Iteration Nr.  13
 **********************
 DD1Dir will call FoFMem   1 times, MxPair=       156
 NAB=    78 NAA=     0 NBB=     0.
 DE(Corr)= -0.80274681     E(CORR)=     -1032.6055828     Delta=-3.21D-07
 NORM(A)=   0.11346757D+01
 Iteration Nr.  14
 **********************
 DD1Dir will call FoFMem   1 times, MxPair=       156
 NAB=    78 NAA=     0 NBB=     0.
 DE(Corr)= -0.80274687     E(CORR)=     -1032.6055829     Delta=-6.65D-08
 NORM(A)=   0.11346758D+01
 Iteration Nr.  15
 **********************
 DD1Dir will call FoFMem   1 times, MxPair=       156
 NAB=    78 NAA=     0 NBB=     0.
 DE(Corr)= -0.80274692     E(CORR)=     -1032.6055829     Delta=-4.68D-08
 NORM(A)=   0.11346759D+01
 Iteration Nr.  16
 **********************
 DD1Dir will call FoFMem   1 times, MxPair=       156
 NAB=    78 NAA=     0 NBB=     0.
 DE(Corr)= -0.80274693     E(CORR)=     -1032.6055830     Delta=-1.58D-08
 NORM(A)=   0.11346759D+01
 Iteration Nr.  17
 **********************
 DD1Dir will call FoFMem   1 times, MxPair=       156
 NAB=    78 NAA=     0 NBB=     0.
 DE(Corr)= -0.80274693     E(CORR)=     -1032.6055830     Delta= 1.38D-09
 NORM(A)=   0.11346759D+01
 Wavefunction amplitudes converged. E(Corr)=     -1032.6055830    
 Largest amplitude= 3.37D-02

 Z-amplitude iterations

 Iteration Nr.   1
 **********************
 DD1Dir will call FoFMem   1 times, MxPair=       156
 NAB=    78 NAA=     0 NBB=     0.
 DE(Z)= -0.77474687     E(Z)=     -1032.5775829     Delta= 2.80D-02
 NORM(A)=   0.11347038D+01
 Iteration Nr.   2
 **********************
 DD1Dir will call FoFMem   1 times, MxPair=       156
 NAB=    78 NAA=     0 NBB=     0.
 DE(Z)= -0.77474779     E(Z)=     -1032.5775838     Delta=-9.24D-07
 NORM(A)=   0.11347073D+01
 Iteration Nr.   3
 **********************
 DD1Dir will call FoFMem   1 times, MxPair=       156
 NAB=    78 NAA=     0 NBB=     0.
 DE(Z)= -0.77474781     E(Z)=     -1032.5775838     Delta=-1.98D-08
 NORM(A)=   0.11347268D+01
 Iteration Nr.   4
 **********************
 DD1Dir will call FoFMem   1 times, MxPair=       156
 NAB=    78 NAA=     0 NBB=     0.
 DE(Z)= -0.77474848     E(Z)=     -1032.5775845     Delta=-6.70D-07
 NORM(A)=   0.11347334D+01
 Iteration Nr.   5
 **********************
 DD1Dir will call FoFMem   1 times, MxPair=       156
 NAB=    78 NAA=     0 NBB=     0.
 DE(Z)= -0.77474874     E(Z)=     -1032.5775848     Delta=-2.62D-07
 NORM(A)=   0.11250280D+01
 Iteration Nr.   6
 **********************
 DD1Dir will call FoFMem   1 times, MxPair=       156
 NAB=    78 NAA=     0 NBB=     0.
 DE(Z)= -0.77442793     E(Z)=     -1032.5772640     Delta= 3.21D-04
 NORM(A)=   0.11250288D+01
 Iteration Nr.   7
 **********************
 DD1Dir will call FoFMem   1 times, MxPair=       156
 NAB=    78 NAA=     0 NBB=     0.
 DE(Z)= -0.77442764     E(Z)=     -1032.5772637     Delta= 2.85D-07
 NORM(A)=   0.11250296D+01
 Iteration Nr.   8
 **********************
 DD1Dir will call FoFMem   1 times, MxPair=       156
 NAB=    78 NAA=     0 NBB=     0.
 DE(Z)= -0.77442735     E(Z)=     -1032.5772634     Delta= 2.91D-07
 NORM(A)=   0.11250299D+01
 Iteration Nr.   9
 **********************
 DD1Dir will call FoFMem   1 times, MxPair=       156
 NAB=    78 NAA=     0 NBB=     0.
 DE(Z)= -0.77442772     E(Z)=     -1032.5772637     Delta=-3.65D-07
 NORM(A)=   0.11250302D+01
 Iteration Nr.  10
 **********************
 DD1Dir will call FoFMem   1 times, MxPair=       156
 NAB=    78 NAA=     0 NBB=     0.
 DE(Z)= -0.77442753     E(Z)=     -1032.5772636     Delta= 1.85D-07
 NORM(A)=   0.11250303D+01
 Iteration Nr.  11
 **********************
 DD1Dir will call FoFMem   1 times, MxPair=       156
 NAB=    78 NAA=     0 NBB=     0.
 DE(Z)= -0.77442763     E(Z)=     -1032.5772637     Delta=-9.44D-08
 NORM(A)=   0.11250303D+01
 Iteration Nr.  12
 **********************
 DD1Dir will call FoFMem   1 times, MxPair=       156
 NAB=    78 NAA=     0 NBB=     0.
 DE(Z)= -0.77442762     E(Z)=     -1032.5772636     Delta= 8.65D-09
 NORM(A)=   0.11250303D+01
 Z-amplitudes converged.
 Discarding MO integrals.
          Differentiating once with respect to electric field.
                with respect to dipole field.
          Electric field/nuclear overlap derivatives assumed to be zero.
 Keep R1 ints in memory in canonical form, NReq=179717427.
          There are     1 degrees of freedom in the 1st order CPHF.  IDoFFX=0 NUNeed=     1.
 LinEq1:  Iter=  0 NonCon=     1 RMS=2.34D-03 Max=5.66D-02 NDo=     1
 AX will form     1 AO Fock derivatives at one time.
 LinEq1:  Iter=  1 NonCon=     1 RMS=8.28D-04 Max=1.86D-02 NDo=     1
 LinEq1:  Iter=  2 NonCon=     1 RMS=3.09D-04 Max=5.65D-03 NDo=     1
 LinEq1:  Iter=  3 NonCon=     1 RMS=1.27D-04 Max=3.31D-03 NDo=     1
 LinEq1:  Iter=  4 NonCon=     1 RMS=5.08D-05 Max=1.21D-03 NDo=     1
 LinEq1:  Iter=  5 NonCon=     1 RMS=1.64D-05 Max=3.64D-04 NDo=     1
 LinEq1:  Iter=  6 NonCon=     1 RMS=4.15D-06 Max=5.63D-05 NDo=     1
 LinEq1:  Iter=  7 NonCon=     1 RMS=9.86D-07 Max=1.15D-05 NDo=     1
 LinEq1:  Iter=  8 NonCon=     1 RMS=2.09D-07 Max=3.15D-06 NDo=     1
 LinEq1:  Iter=  9 NonCon=     1 RMS=4.73D-08 Max=8.07D-07 NDo=     1
 LinEq1:  Iter= 10 NonCon=     1 RMS=1.20D-08 Max=2.25D-07 NDo=     1
 LinEq1:  Iter= 11 NonCon=     1 RMS=2.51D-09 Max=3.82D-08 NDo=     1
 LinEq1:  Iter= 12 NonCon=     1 RMS=4.63D-10 Max=1.15D-08 NDo=     1
 LinEq1:  Iter= 13 NonCon=     1 RMS=8.24D-11 Max=1.23D-09 NDo=     1
 LinEq1:  Iter= 14 NonCon=     0 RMS=1.90D-11 Max=2.90D-10 NDo=     1
 Linear equations converged to 1.000D-10 1.000D-09 after    14 iterations.
 End of Minotr F.D. properties file   721 does not exist.
 End of Minotr F.D. properties file   722 does not exist.
 End of Minotr F.D. properties file   788 does not exist.

 **********************************************************************

            Population analysis using the CC Density.

 **********************************************************************

 Alpha  occ. eigenvalues -- -104.89048-104.89021 -20.62305 -11.47566 -10.61500
 Alpha  occ. eigenvalues --  -10.61461  -8.08178  -8.08139  -8.07966  -8.07948
 Alpha  occ. eigenvalues --   -8.07927  -8.07910  -1.48558  -1.20344  -1.14122
 Alpha  occ. eigenvalues --   -0.81213  -0.70833  -0.70156  -0.64898  -0.53114
 Alpha  occ. eigenvalues --   -0.50193  -0.49875  -0.49553  -0.47700
 Alpha virt. eigenvalues --    0.04784   0.06605   0.07982   0.08602   0.09343
 Alpha virt. eigenvalues --    0.09867   0.11381   0.12510   0.12763   0.13455
 Alpha virt. eigenvalues --    0.15769   0.15879   0.22055   0.22141   0.23672
 Alpha virt. eigenvalues --    0.23894   0.25347   0.26345   0.27986   0.30450
 Alpha virt. eigenvalues --    0.31000   0.31694   0.36343   0.39577   0.43796
 Alpha virt. eigenvalues --    0.44210   0.44247   0.45765   0.47053   0.48465
 Alpha virt. eigenvalues --    0.50780   0.51308   0.52029   0.52391   0.54950
 Alpha virt. eigenvalues --    0.62201   0.64185   0.69266   0.69808   0.71351
 Alpha virt. eigenvalues --    0.71556   0.73598   0.75864   0.79478   0.81348
 Alpha virt. eigenvalues --    0.81628   0.83212   0.83421   0.87018   0.88576
 Alpha virt. eigenvalues --    0.89196   0.91467   0.93407   0.93762   0.94614
 Alpha virt. eigenvalues --    0.96169   0.96762   1.05100   1.06172   1.08828
 Alpha virt. eigenvalues --    1.09734   1.13049   1.15059   1.15971   1.17267
 Alpha virt. eigenvalues --    1.21192   1.23166   1.24305   1.26624   1.33621
 Alpha virt. eigenvalues --    1.36982   1.39695   1.42599   1.46402   1.46679
 Alpha virt. eigenvalues --    1.47200   1.47400   1.56337   1.58229   1.62054
 Alpha virt. eigenvalues --    1.67788   1.68024   1.69380   1.73035   1.80689
 Alpha virt. eigenvalues --    1.81213   1.82889   1.83372   1.85457   2.01003
 Alpha virt. eigenvalues --    2.07255   2.26025   2.28779   2.33661   2.34118
 Alpha virt. eigenvalues --    2.39601   2.44588   2.45197   2.49031   2.49392
 Alpha virt. eigenvalues --    2.52378   2.54151   2.57936   2.59010   2.60521
 Alpha virt. eigenvalues --    2.62101   2.63495   2.66359   2.70417   2.77020
 Alpha virt. eigenvalues --    2.77762   2.81482   2.88542   2.88899   2.91558
 Alpha virt. eigenvalues --    2.92467   2.94490   2.97612   2.99292   3.02299
 Alpha virt. eigenvalues --    3.02692   3.05398   3.06422   3.07311   3.07573
 Alpha virt. eigenvalues --    3.10667   3.13213   3.16495   3.20266   3.21781
 Alpha virt. eigenvalues --    3.25049   3.26481   3.52067   3.53550   3.60453
 Alpha virt. eigenvalues --    3.62952   3.64528   3.70345   3.82729   3.84742
 Alpha virt. eigenvalues --    3.95206   3.96463   4.03487   4.15533   4.19381
 Alpha virt. eigenvalues --    4.44348   4.50539   4.63366   4.75993   5.12408
 Alpha virt. eigenvalues --    5.46472   5.62398   6.56453   6.57843   6.86335
 Alpha virt. eigenvalues --    6.86884   7.05001   7.10950   7.18419   7.18891
 Alpha virt. eigenvalues --    7.20367   7.28498   7.50659   7.52289   7.66765
 Alpha virt. eigenvalues --    7.73005  13.31966  15.70258
          Condensed to atoms (all electrons):
               1          2          3          4
     1  O    8.036580   0.435737  -0.075955  -0.074667
     2  C    0.435737   4.972050   0.133473   0.135874
     3  Cl  -0.075955   0.133473  17.040336  -0.099856
     4  Cl  -0.074667   0.135874  -0.099856  17.041825
 Mulliken charges:
               1
     1  O   -0.321694
     2  C    0.322866
     3  Cl   0.002003
     4  Cl  -0.003175
 Sum of Mulliken charges =  -0.00000
 Mulliken charges with hydrogens summed into heavy atoms:
               1
     1  O   -0.321694
     2  C    0.322866
     3  Cl   0.002003
     4  Cl  -0.003175
 Electronic spatial extent (au):  <R**2>=            611.8798
 Charge=             -0.0000 electrons
 Dipole moment (field-independent basis, Debye):
    X=              0.0000    Y=             -0.0172    Z=             -1.2514  Tot=              1.2515
 Quadrupole moment (field-independent basis, Debye-Ang):
   XX=            -35.0749   YY=            -34.3519   ZZ=            -36.2891
   XY=             -0.0000   XZ=             -0.0000   YZ=              0.0151
 Traceless Quadrupole moment (field-independent basis, Debye-Ang):
   XX=              0.1637   YY=              0.8867   ZZ=             -1.0504
   XY=             -0.0000   XZ=             -0.0000   YZ=              0.0151
 Octapole moment (field-independent basis, Debye-Ang**2):
  XXX=              0.0000  YYY=             -0.1095  ZZZ=            105.8423  XYY=              0.0000
  XXY=             -0.0201  XXZ=             35.9256  XZZ=              0.0000  YZZ=             -0.0052
  YYZ=             29.5631  XYZ=             -0.0000
 Hexadecapole moment (field-independent basis, Debye-Ang**3):
 XXXX=            -37.1065 YYYY=           -328.9965 ZZZZ=           -381.0553 XXXY=             -0.0000
 XXXZ=             -0.0000 YYYX=              0.0000 YYYZ=              0.6236 ZZZX=             -0.0000
 ZZZY=              0.4701 XXYY=            -65.2267 XXZZ=            -70.7013 YYZZ=           -106.6043
 XXYZ=              0.2058 YYXZ=             -0.0000 ZZXY=              0.0000
 N-N= 1.919536149581D+02 E-N=-2.838144306210D+03  KE= 1.032432030094D+03
 There are a total of       90730 grid points.
 ElSum from          density=       48.0000000961
 ElSum from atomic densities=       48.0000006397

 Hirshfeld populations at iteration   1 (CX, CA, CB, DipXYZ):
               1          2          3          4          5          6
     1  O    0.000008   4.093492   4.093492  -0.000000  -0.000424  -0.044086
     2  C    0.000001   2.894588   2.894588   0.000000   0.000719  -0.057964
     3  Cl   0.000011   8.505379   8.505379  -0.000000  -0.066279  -0.008412
     4  Cl   0.000011   8.506541   8.506541   0.000000   0.065591  -0.009313
       Tot   0.000030  24.000000  24.000000   0.000000  -0.000393  -0.119775

 Dip from Atomic Chgs              0.000000  -0.006357  -0.372544
         Total Dipole              0.000000  -0.006750  -0.492319

 Hirshfeld charges, spin densities, dipoles, and CM5 charges using IRadAn=      5:
              Q-H        S-H        Dx         Dy         Dz        Q-CM5   
     1  O   -0.186983   0.000000  -0.000000  -0.000424  -0.044086  -0.233338
     2  C    0.210824   0.000000   0.000000   0.000719  -0.057964   0.249944
     3  Cl  -0.010758   0.000000  -0.000000  -0.066279  -0.008412  -0.007104
     4  Cl  -0.013083   0.000000   0.000000   0.065591  -0.009313  -0.009502
       Tot  -0.000000   0.000000   0.000000  -0.000393  -0.119775  -0.000000
 Hirshfeld charges with hydrogens summed into heavy atoms:
              Q-H       Q-CM5   
     1  O   -0.186983  -0.233338
     2  C    0.210824   0.249944
     3  Cl  -0.010758  -0.007104
     4  Cl  -0.013083  -0.009502
 
 EQQ= 0.000000000000E+00 EQD= 0.000000000000E+00 EDD= 0.240897725388E-03
 EQQ+QD+DD= 0.240897725388E-03
 
 Breneman (CHELPG) radii used.
 Generate Potential Derived Charges using the Breneman model, NDens= 1.
 Grid spacing= 0.300 Box extension= 2.800
 NStep X,Y,Z=   20     30     26   Total possible points=       15600
 Number of Points to Fit=    4538

 **********************************************************************

            Electrostatic Properties Using The CC Density.

 **********************************************************************

       Atomic Center    1 is at   0.000000  0.000000  0.683397
       Atomic Center    2 is at   0.000000  0.000000 -0.494687
       Atomic Center    3 is at   0.000000 -1.446870 -1.459805
       Atomic Center    4 is at   0.000000  1.446870 -1.469805
    4538 points will be used for fitting atomic charges
 Fitting point charges to electrostatic potential
 The dipole moment will be constrained to the correct value
 Charges from ESP fit, RMS=   0.00563 RRMS=   0.49557:
 ESP charges:
               1
     1  O   -0.329392
     2  C    0.460833
     3  Cl  -0.064486
     4  Cl  -0.066955
 Sum of ESP charges =   0.00000
 ESP charges with hydrogens summed into heavy atoms:
               1
     1  O   -0.329392
     2  C    0.460833
     3  Cl  -0.064486
     4  Cl  -0.066955
 Charge=   0.00000 Dipole=     0.0000    -0.0172    -1.2514 Tot=     1.2515
 -----------------------------------------------------------------

              Electrostatic Properties (Atomic Units)

 -----------------------------------------------------------------
    Center     Electric         -------- Electric Field --------
               Potential          X             Y             Z
 -----------------------------------------------------------------
    1 Atom    -22.285364
    2 Atom    -14.537184
    3 Atom    -64.374264
    4 Atom    -64.374622
 -----------------------------------------------------------------
 ******************************Gaussian NBO Version 3.1******************************
             N A T U R A L   A T O M I C   O R B I T A L   A N D
          N A T U R A L   B O N D   O R B I T A L   A N A L Y S I S
 ******************************Gaussian NBO Version 3.1******************************
       /RESON  / : Allow strongly delocalized NBO set

 Analyzing the QCI/CC density

 Job title: cl2co-wavefunction                                              

 Storage needed:    111522 in NPA (2147483536 available)
 GSVD:  LWork=        6614 too small for GESVD, short by       52797 words or       52797 for optimal perf.


 NATURAL POPULATIONS:  Natural atomic orbital occupancies 
                                                          
   NAO  Atom  No  lang   Type(AO)    Occupancy
 --------------------------------------------
     1    O    1  S      Cor( 1S)     1.99951
     2    O    1  S      Val( 2S)     1.67996
     3    O    1  S      Ryd( 3S)     0.00630
     4    O    1  S      Ryd( 4S)     0.00039
     5    O    1  S      Ryd( 5S)     0.00029
     6    O    1  px     Val( 2p)     1.35767
     7    O    1  px     Ryd( 3p)     0.00704
     8    O    1  px     Ryd( 4p)     0.00050
     9    O    1  px     Ryd( 5p)     0.00007
    10    O    1  py     Val( 2p)     1.74475
    11    O    1  py     Ryd( 3p)     0.01328
    12    O    1  py     Ryd( 4p)     0.00065
    13    O    1  py     Ryd( 5p)     0.00014
    14    O    1  pz     Val( 2p)     1.58074
    15    O    1  pz     Ryd( 3p)     0.00648
    16    O    1  pz     Ryd( 4p)     0.00050
    17    O    1  pz     Ryd( 5p)     0.00010
    18    O    1  dxy    Ryd( 3d)     0.00545
    19    O    1  dxy    Ryd( 4d)     0.00037
    20    O    1  dxy    Ryd( 5d)     0.00009
    21    O    1  dxz    Ryd( 3d)     0.01155
    22    O    1  dxz    Ryd( 4d)     0.00031
    23    O    1  dxz    Ryd( 5d)     0.00010
    24    O    1  dyz    Ryd( 3d)     0.01192
    25    O    1  dyz    Ryd( 4d)     0.00046
    26    O    1  dyz    Ryd( 5d)     0.00013
    27    O    1  dx2y2  Ryd( 3d)     0.00537
    28    O    1  dx2y2  Ryd( 4d)     0.00037
    29    O    1  dx2y2  Ryd( 5d)     0.00009
    30    O    1  dz2    Ryd( 3d)     0.02062
    31    O    1  dz2    Ryd( 4d)     0.00043
    32    O    1  dz2    Ryd( 5d)     0.00021
    33    O    1  f(0)   Ryd( 4f)     0.00132
    34    O    1  f(0)   Ryd( 5f)     0.00013
    35    O    1  f(C1)  Ryd( 4f)     0.00066
    36    O    1  f(C1)  Ryd( 5f)     0.00010
    37    O    1  f(S1)  Ryd( 4f)     0.00079
    38    O    1  f(S1)  Ryd( 5f)     0.00013
    39    O    1  f(C2)  Ryd( 4f)     0.00046
    40    O    1  f(C2)  Ryd( 5f)     0.00008
    41    O    1  f(S2)  Ryd( 4f)     0.00047
    42    O    1  f(S2)  Ryd( 5f)     0.00009
    43    O    1  f(C3)  Ryd( 4f)     0.00044
    44    O    1  f(C3)  Ryd( 5f)     0.00006
    45    O    1  f(S3)  Ryd( 4f)     0.00045
    46    O    1  f(S3)  Ryd( 5f)     0.00007

    47    C    2  S      Cor( 1S)     1.99941
    48    C    2  S      Val( 2S)     0.94528
    49    C    2  S      Ryd( 3S)     0.00952
    50    C    2  S      Ryd( 4S)     0.00017
    51    C    2  S      Ryd( 5S)     0.00010
    52    C    2  px     Val( 2p)     0.80695
    53    C    2  px     Ryd( 3p)     0.00760
    54    C    2  px     Ryd( 4p)     0.00059
    55    C    2  px     Ryd( 5p)     0.00018
    56    C    2  py     Val( 2p)     0.90196
    57    C    2  py     Ryd( 3p)     0.01090
    58    C    2  py     Ryd( 4p)     0.00067
    59    C    2  py     Ryd( 5p)     0.00038
    60    C    2  pz     Val( 2p)     0.80742
    61    C    2  pz     Ryd( 3p)     0.02825
    62    C    2  pz     Ryd( 5p)     0.00032
    63    C    2  pz     Ryd( 4p)     0.00057
    64    C    2  dxy    Ryd( 3d)     0.00877
    65    C    2  dxy    Ryd( 4d)     0.00030
    66    C    2  dxy    Ryd( 5d)     0.00014
    67    C    2  dxz    Ryd( 3d)     0.00828
    68    C    2  dxz    Ryd( 4d)     0.00069
    69    C    2  dxz    Ryd( 5d)     0.00027
    70    C    2  dyz    Ryd( 3d)     0.01139
    71    C    2  dyz    Ryd( 4d)     0.00085
    72    C    2  dyz    Ryd( 5d)     0.00023
    73    C    2  dx2y2  Ryd( 3d)     0.00614
    74    C    2  dx2y2  Ryd( 5d)     0.00024
    75    C    2  dx2y2  Ryd( 4d)     0.00027
    76    C    2  dz2    Ryd( 3d)     0.00685
    77    C    2  dz2    Ryd( 4d)     0.00046
    78    C    2  dz2    Ryd( 5d)     0.00025
    79    C    2  f(0)   Ryd( 4f)     0.00281
    80    C    2  f(0)   Ryd( 5f)     0.00036
    81    C    2  f(C1)  Ryd( 4f)     0.00181
    82    C    2  f(C1)  Ryd( 5f)     0.00041
    83    C    2  f(S1)  Ryd( 4f)     0.00306
    84    C    2  f(S1)  Ryd( 5f)     0.00057
    85    C    2  f(C2)  Ryd( 4f)     0.00183
    86    C    2  f(C2)  Ryd( 5f)     0.00023
    87    C    2  f(S2)  Ryd( 4f)     0.00173
    88    C    2  f(S2)  Ryd( 5f)     0.00026
    89    C    2  f(C3)  Ryd( 4f)     0.00145
    90    C    2  f(C3)  Ryd( 5f)     0.00021
    91    C    2  f(S3)  Ryd( 4f)     0.00151
    92    C    2  f(S3)  Ryd( 5f)     0.00018

    93   Cl    3  S      Cor( 1S)     2.00000
    94   Cl    3  S      Cor( 2S)     1.99939
    95   Cl    3  S      Val( 3S)     1.84080
    96   Cl    3  S      Ryd( 4S)     0.00535
    97   Cl    3  S      Ryd( 5S)     0.00031
    98   Cl    3  S      Ryd( 6S)     0.00021
    99   Cl    3  px     Cor( 2p)     2.00002
   100   Cl    3  px     Val( 3p)     1.84983
   101   Cl    3  px     Ryd( 4p)     0.00797
   102   Cl    3  px     Ryd( 5p)     0.00046
   103   Cl    3  px     Ryd( 6p)     0.00007
   104   Cl    3  py     Cor( 2p)     1.99994
   105   Cl    3  py     Val( 3p)     1.42954
   106   Cl    3  py     Ryd( 4p)     0.00605
   107   Cl    3  py     Ryd( 5p)     0.00050
   108   Cl    3  py     Ryd( 6p)     0.00006
   109   Cl    3  pz     Cor( 2p)     1.99999
   110   Cl    3  pz     Val( 3p)     1.71749
   111   Cl    3  pz     Ryd( 4p)     0.00719
   112   Cl    3  pz     Ryd( 5p)     0.00046
   113   Cl    3  pz     Ryd( 6p)     0.00010
   114   Cl    3  dxy    Ryd( 3d)     0.01817
   115   Cl    3  dxy    Ryd( 4d)     0.00051
   116   Cl    3  dxy    Ryd( 5d)     0.00012
   117   Cl    3  dxz    Ryd( 3d)     0.01841
   118   Cl    3  dxz    Ryd( 4d)     0.00061
   119   Cl    3  dxz    Ryd( 5d)     0.00013
   120   Cl    3  dyz    Ryd( 3d)     0.02338
   121   Cl    3  dyz    Ryd( 4d)     0.00047
   122   Cl    3  dyz    Ryd( 5d)     0.00012
   123   Cl    3  dx2y2  Ryd( 3d)     0.02016
   124   Cl    3  dx2y2  Ryd( 4d)     0.00051
   125   Cl    3  dx2y2  Ryd( 5d)     0.00012
   126   Cl    3  dz2    Ryd( 3d)     0.01719
   127   Cl    3  dz2    Ryd( 4d)     0.00052
   128   Cl    3  dz2    Ryd( 5d)     0.00017
   129   Cl    3  f(0)   Ryd( 4f)     0.00132
   130   Cl    3  f(0)   Ryd( 5f)     0.00013
   131   Cl    3  f(C1)  Ryd( 4f)     0.00132
   132   Cl    3  f(C1)  Ryd( 5f)     0.00012
   133   Cl    3  f(S1)  Ryd( 4f)     0.00129
   134   Cl    3  f(S1)  Ryd( 5f)     0.00017
   135   Cl    3  f(C2)  Ryd( 4f)     0.00157
   136   Cl    3  f(C2)  Ryd( 5f)     0.00013
   137   Cl    3  f(S2)  Ryd( 4f)     0.00132
   138   Cl    3  f(S2)  Ryd( 5f)     0.00014
   139   Cl    3  f(C3)  Ryd( 4f)     0.00130
   140   Cl    3  f(C3)  Ryd( 5f)     0.00013
   141   Cl    3  f(S3)  Ryd( 4f)     0.00134
   142   Cl    3  f(S3)  Ryd( 5f)     0.00013

   143   Cl    4  S      Cor( 1S)     2.00000
   144   Cl    4  S      Cor( 2S)     1.99940
   145   Cl    4  S      Val( 3S)     1.84253
   146   Cl    4  S      Ryd( 4S)     0.00533
   147   Cl    4  S      Ryd( 5S)     0.00031
   148   Cl    4  S      Ryd( 6S)     0.00021
   149   Cl    4  px     Cor( 2p)     2.00003
   150   Cl    4  px     Val( 3p)     1.85130
   151   Cl    4  px     Ryd( 4p)     0.00799
   152   Cl    4  px     Ryd( 5p)     0.00046
   153   Cl    4  px     Ryd( 6p)     0.00007
   154   Cl    4  py     Cor( 2p)     1.99994
   155   Cl    4  py     Val( 3p)     1.43373
   156   Cl    4  py     Ryd( 4p)     0.00608
   157   Cl    4  py     Ryd( 5p)     0.00050
   158   Cl    4  py     Ryd( 6p)     0.00006
   159   Cl    4  pz     Cor( 2p)     1.99999
   160   Cl    4  pz     Val( 3p)     1.71380
   161   Cl    4  pz     Ryd( 4p)     0.00717
   162   Cl    4  pz     Ryd( 5p)     0.00046
   163   Cl    4  pz     Ryd( 6p)     0.00010
   164   Cl    4  dxy    Ryd( 3d)     0.01816
   165   Cl    4  dxy    Ryd( 4d)     0.00051
   166   Cl    4  dxy    Ryd( 5d)     0.00012
   167   Cl    4  dxz    Ryd( 3d)     0.01839
   168   Cl    4  dxz    Ryd( 4d)     0.00061
   169   Cl    4  dxz    Ryd( 5d)     0.00013
   170   Cl    4  dyz    Ryd( 3d)     0.02336
   171   Cl    4  dyz    Ryd( 4d)     0.00047
   172   Cl    4  dyz    Ryd( 5d)     0.00012
   173   Cl    4  dx2y2  Ryd( 3d)     0.02009
   174   Cl    4  dx2y2  Ryd( 4d)     0.00051
   175   Cl    4  dx2y2  Ryd( 5d)     0.00012
   176   Cl    4  dz2    Ryd( 3d)     0.01715
   177   Cl    4  dz2    Ryd( 4d)     0.00052
   178   Cl    4  dz2    Ryd( 5d)     0.00017
   179   Cl    4  f(0)   Ryd( 4f)     0.00132
   180   Cl    4  f(0)   Ryd( 5f)     0.00013
   181   Cl    4  f(C1)  Ryd( 4f)     0.00132
   182   Cl    4  f(C1)  Ryd( 5f)     0.00012
   183   Cl    4  f(S1)  Ryd( 4f)     0.00129
   184   Cl    4  f(S1)  Ryd( 5f)     0.00017
   185   Cl    4  f(C2)  Ryd( 4f)     0.00156
   186   Cl    4  f(C2)  Ryd( 5f)     0.00013
   187   Cl    4  f(S2)  Ryd( 4f)     0.00132
   188   Cl    4  f(S2)  Ryd( 5f)     0.00014
   189   Cl    4  f(C3)  Ryd( 4f)     0.00130
   190   Cl    4  f(C3)  Ryd( 5f)     0.00013
   191   Cl    4  f(S3)  Ryd( 4f)     0.00134
   192   Cl    4  f(S3)  Ryd( 5f)     0.00013


 Summary of Natural Population Analysis:                  
                                                          
                                       Natural Population 
                Natural  -----------------------------------------------
    Atom  No    Charge         Core      Valence    Rydberg      Total
 -----------------------------------------------------------------------
      O    1   -0.46110      1.99951     6.36312    0.09847     8.46110
      C    2    0.41815      1.99941     3.46162    0.12083     5.58185
     Cl    3    0.02326      9.99934     6.83766    0.13974    16.97674
     Cl    4    0.01969      9.99935     6.84137    0.13959    16.98031
 =======================================================================
   * Total *   -0.00000     23.99761    23.50376    0.49863    48.00000

                                 Natural Population      
 --------------------------------------------------------
   Core                      23.99761 ( 99.9900% of  24)
   Valence                   23.50376 ( 97.9324% of  24)
   Natural Minimal Basis     47.50137 ( 98.9612% of  48)
   Natural Rydberg Basis      0.49863 (  1.0388% of  48)
 --------------------------------------------------------

    Atom  No          Natural Electron Configuration
 ----------------------------------------------------------------------------
      O    1      [core]2S( 1.68)2p( 4.68)3S( 0.01)3p( 0.03)3d( 0.05)
      C    2      [core]2S( 0.95)2p( 2.52)3S( 0.01)3p( 0.05)3d( 0.04)4f( 0.01)
     Cl    3      [core]3S( 1.84)3p( 5.00)4S( 0.01)3d( 0.10)4p( 0.02)4f( 0.01)
     Cl    4      [core]3S( 1.84)3p( 5.00)4S( 0.01)3d( 0.10)4p( 0.02)4f( 0.01)


 NBO analysis skipped by request.
 Unable to Open any file for archive entry.
 1\1\GINC-TRAPISTA\SP\RQCISD-FC\Aug-CC-pVTZ\C1Cl2O1\WAGNER\04-Sep-2022\
 0\\# qcisd/aug-cc-pvtz nosymm density=current pop=(chelpg,hirshfeld,np
 a,dipole)\\cl2co-wavefunction\\0,1\O,0,0.,0.,0.683397\C,0,0.,0.,-0.494
 687\Cl,0,0.,-1.44687,-1.459805\Cl,0,0.,1.44687,-1.469805\\Version=EM64
 L-G16RevC.01\HF=-1031.802836\MP2=-1032.5821242\MP3=-1032.6012129\MP4D=
 -1032.620849\MP4DQ=-1032.5983518\MP4SDQ=-1032.6073065\QCISD=-1032.6055
 83\RMSD=6.595e-09\Dipole=0.,-0.0067502,-0.4923202\Quadrupole=0.1217194
 ,0.6592439,-0.7809633,0.,0.,0.0112469\PG=CS [SG(C1Cl2O1)]\\@
 The archive entry for this job was punched.


  ON THE CHOICE OF THE CORRECT LANGUAGE -
 I SPEAK SPANISH TO GOD, ITALIAN TO WOMEN,
 FRENCH TO MEN, AND GERMAN TO MY HORSE.
          -- CHARLES V
 Job cpu time:       0 days  6 hours 42 minutes 51.6 seconds.
 Elapsed time:       0 days  0 hours 25 minutes 28.9 seconds.
 File lengths (MBytes):  RWF=  22679 Int=      0 D2E=      0 Chk=      4 Scr=      1
 Normal termination of Gaussian 16 at Sun Sep  4 03:10:40 2022.
