 Entering Gaussian System, Link 0=/home/wagner/chemistry/gaussian/g16/g16
 Input=GAUSSIAN.com
 Output=GAUSSIAN.log
 Initial command:
 /home/wagner/chemistry/gaussian/g16/l1.exe "/home/wagner/chemistry/gaussian/work/Gau-31886.inp" -scrdir="/home/wagner/chemistry/gaussian/work/"
 Entering Link 1 = /home/wagner/chemistry/gaussian/g16/l1.exe PID=     31888.
  
 Copyright (c) 1988-2019, Gaussian, Inc.  All Rights Reserved.
  
 This is part of the Gaussian(R) 16 program.  It is based on
 the Gaussian(R) 09 system (copyright 2009, Gaussian, Inc.),
 the Gaussian(R) 03 system (copyright 2003, Gaussian, Inc.),
 the Gaussian(R) 98 system (copyright 1998, Gaussian, Inc.),
 the Gaussian(R) 94 system (copyright 1995, Gaussian, Inc.),
 the Gaussian 92(TM) system (copyright 1992, Gaussian, Inc.),
 the Gaussian 90(TM) system (copyright 1990, Gaussian, Inc.),
 the Gaussian 88(TM) system (copyright 1988, Gaussian, Inc.),
 the Gaussian 86(TM) system (copyright 1986, Carnegie Mellon
 University), and the Gaussian 82(TM) system (copyright 1983,
 Carnegie Mellon University). Gaussian is a federally registered
 trademark of Gaussian, Inc.
  
 This software contains proprietary and confidential information,
 including trade secrets, belonging to Gaussian, Inc.
  
 This software is provided under written license and may be
 used, copied, transmitted, or stored only in accord with that
 written license.
  
 The following legend is applicable only to US Government
 contracts under FAR:
  
                    RESTRICTED RIGHTS LEGEND
  
 Use, reproduction and disclosure by the US Government is
 subject to restrictions as set forth in subparagraphs (a)
 and (c) of the Commercial Computer Software - Restricted
 Rights clause in FAR 52.227-19.
  
 Gaussian, Inc.
 340 Quinnipiac St., Bldg. 40, Wallingford CT 06492
  
  
 ---------------------------------------------------------------
 Warning -- This program may not be used in any manner that
 competes with the business of Gaussian, Inc. or will provide
 assistance to any competitor of Gaussian, Inc.  The licensee
 of this program is prohibited from giving any competitor of
 Gaussian, Inc. access to this program.  By using this program,
 the user acknowledges that Gaussian, Inc. is engaged in the
 business of creating and licensing software in the field of
 computational chemistry and represents and warrants to the
 licensee that it is not a competitor of Gaussian, Inc. and that
 it will not use this program in any manner prohibited above.
 ---------------------------------------------------------------
  

 Cite this work as:
 Gaussian 16, Revision C.01,
 M. J. Frisch, G. W. Trucks, H. B. Schlegel, G. E. Scuseria, 
 M. A. Robb, J. R. Cheeseman, G. Scalmani, V. Barone, 
 G. A. Petersson, H. Nakatsuji, X. Li, M. Caricato, A. V. Marenich, 
 J. Bloino, B. G. Janesko, R. Gomperts, B. Mennucci, H. P. Hratchian, 
 J. V. Ortiz, A. F. Izmaylov, J. L. Sonnenberg, D. Williams-Young, 
 F. Ding, F. Lipparini, F. Egidi, J. Goings, B. Peng, A. Petrone, 
 T. Henderson, D. Ranasinghe, V. G. Zakrzewski, J. Gao, N. Rega, 
 G. Zheng, W. Liang, M. Hada, M. Ehara, K. Toyota, R. Fukuda, 
 J. Hasegawa, M. Ishida, T. Nakajima, Y. Honda, O. Kitao, H. Nakai, 
 T. Vreven, K. Throssell, J. A. Montgomery, Jr., J. E. Peralta, 
 F. Ogliaro, M. J. Bearpark, J. J. Heyd, E. N. Brothers, K. N. Kudin, 
 V. N. Staroverov, T. A. Keith, R. Kobayashi, J. Normand, 
 K. Raghavachari, A. P. Rendell, J. C. Burant, S. S. Iyengar, 
 J. Tomasi, M. Cossi, J. M. Millam, M. Klene, C. Adamo, R. Cammi, 
 J. W. Ochterski, R. L. Martin, K. Morokuma, O. Farkas, 
 J. B. Foresman, and D. J. Fox, Gaussian, Inc., Wallingford CT, 2019.
 
 ******************************************
 Gaussian 16:  EM64L-G16RevC.01  3-Jul-2019
                 4-Sep-2022 
 ******************************************
 %nproc=16
 Will use up to   16 processors via shared memory.
 %mem=16GB
 ----------------------------------------------------------------------
 # qcisd/aug-cc-pvtz nosymm density=current pop=(chelpg,hirshfeld,npa,d
 ipole)
 ----------------------------------------------------------------------
 1/30=1,38=1,172=1/1;
 2/12=2,15=1,17=6,18=5,40=1/2;
 3/5=16,6=1,7=10,11=9,25=1,30=1,71=1/1,2,3;
 4//1;
 5/5=2,38=5/2;
 8/6=4,9=120000,10=1/1,4;
 9/5=8,15=1/13;
 11/28=-7,31=1,32=3,42=3/11;
 10/5=6,13=10,31=1/2;
 6/7=2,8=2,9=2,10=2,15=24,20=3,22=-1,40=-1,79=1/1,2,7;
 99/5=1,9=1/99;
 ------------------
 cl2co-wavefunction
 ------------------
 Symbolic Z-matrix:
 Charge =  0 Multiplicity = 1
 O                     0.        0.        0.6834 
 C                     0.        0.       -0.48469 
 Cl                    0.       -1.44687  -1.46981 
 Cl                    0.        1.44687  -1.46981 
 
                          Input orientation:                          
 ---------------------------------------------------------------------
 Center     Atomic      Atomic             Coordinates (Angstroms)
 Number     Number       Type             X           Y           Z
 ---------------------------------------------------------------------
      1          8           0        0.000000    0.000000    0.683397
      2          6           0        0.000000    0.000000   -0.484687
      3         17           0        0.000000   -1.446870   -1.469805
      4         17           0        0.000000    1.446870   -1.469805
 ---------------------------------------------------------------------
                    Distance matrix (angstroms):
                    1          2          3          4
     1  O    0.000000
     2  C    1.168084   0.000000
     3  Cl   2.594169   1.750397   0.000000
     4  Cl   2.594169   1.750397   2.893740   0.000000
 Symmetry turned off by external request.
 Stoichiometry    CCl2O
 Framework group  C2V[C2(CO),SGV(Cl2)]
 Deg. of freedom     3
 Full point group                 C2V     NOp   4
 Rotational constants (GHZ):           7.9028276           3.4518093           2.4024594
 Standard basis: Aug-CC-pVTZ (5D, 7F)
   192 basis functions,   372 primitive gaussians,   228 cartesian basis functions
    24 alpha electrons       24 beta electrons
       nuclear repulsion energy       191.7522358332 Hartrees.
 NAtoms=    4 NActive=    4 NUniq=    4 SFac= 1.00D+00 NAtFMM=   60 NAOKFM=F Big=F
 Integral buffers will be    131072 words long.
 Raffenetti 1 integral format.
 Two-electron integral symmetry is turned off.
 One-electron integrals computed using PRISM.
 NBasis=   192 RedAO= T EigKep=  1.44D-04  NBF=   192
 NBsUse=   192 1.00D-06 EigRej= -1.00D+00 NBFU=   192
 ExpMin= 3.57D-02 ExpMax= 4.56D+05 ExpMxC= 1.44D+03 IAcc=3 IRadAn=         5 AccDes= 0.00D+00
 Harris functional with IExCor=  205 and IRadAn=       5 diagonalized for initial guess.
 HarFok:  IExCor=  205 AccDes= 0.00D+00 IRadAn=         5 IDoV= 1 UseB2=F ITyADJ=14
 ICtDFT=  3500011 ScaDFX=  1.000000  1.000000  1.000000  1.000000
 FoFCou: FMM=F IPFlag=           0 FMFlag=      100000 FMFlg1=           0
         NFxFlg=           0 DoJE=T BraDBF=F KetDBF=T FulRan=T
         wScrn=  0.000000 ICntrl=       500 IOpCl=  0 I1Cent=   200000004 NGrid=           0
         NMat0=    1 NMatS0=      1 NMatT0=    0 NMatD0=    1 NMtDS0=    0 NMtDT0=    0
 Symmetry not used in FoFCou.
 Keep R1 ints in memory in canonical form, NReq=179712119.
 Requested convergence on RMS density matrix=1.00D-08 within 128 cycles.
 Requested convergence on MAX density matrix=1.00D-06.
 Requested convergence on             energy=1.00D-06.
 No special actions if energy rises.
 SCF Done:  E(RHF) =  -1031.80336713     A.U. after   12 cycles
            NFock= 12  Conv=0.63D-08     -V/T= 2.0002
 ExpMin= 3.57D-02 ExpMax= 4.56D+05 ExpMxC= 1.44D+03 IAcc=3 IRadAn=         5 AccDes= 0.00D+00
 HarFok:  IExCor=  205 AccDes= 0.00D+00 IRadAn=         5 IDoV=-2 UseB2=F ITyADJ=14
 ICtDFT= 12500011 ScaDFX=  1.000000  1.000000  1.000000  1.000000
 Range of M.O.s used for correlation:    13   192
 NBasis=   192 NAE=    24 NBE=    24 NFC=    12 NFV=     0
 NROrb=    180 NOA=    12 NOB=    12 NVA=   168 NVB=   168

 **** Warning!!: The largest alpha MO coefficient is  0.27426253D+02

 Semi-Direct transformation.
 ModeAB=           2 MOrb=            12 LenV=    2146443397
 LASXX=     33405819 LTotXX=    33405819 LenRXX=    33405819
 LTotAB=    33954012 MaxLAS=    56388960 LenRXY=    56388960
 NonZer=    66811638 LenScr=   100987392 LnRSAI=           0
 LnScr1=           0 LExtra=           0 Total=    190782171
 MaxDsk=          -1 SrtSym=           F ITran=            4
 JobTyp=0 Pass  1:  I=   1 to  12.
 (rs|ai) integrals will be sorted in core.
 Spin components of T(2) and E(2):
     alpha-alpha T2 =       0.3512355010D-01 E2=     -0.1016478035D+00
     alpha-beta  T2 =       0.1829010889D+00 E2=     -0.5751020934D+00
     beta-beta   T2 =       0.3512355010D-01 E2=     -0.1016478035D+00
 ANorm=    0.1119441016D+01
 E2 =    -0.7783977004D+00 EUMP2 =    -0.10325817648339D+04
 Keep R2 and R3 ints in memory in canonical form, NReq=351373597.
 CIDS: In Core Option IDoMem=           1.
 Iterations=  50 Convergence= 0.100D-07
 Produce multiple copies of IABC intergrals
 Iteration Nr.   1
 **********************
 DD1Dir will call FoFMem   1 times, MxPair=       156
 NAB=    78 NAA=     0 NBB=     0.
 MP4(R+Q)=  0.22462614D-01
 E3=       -0.19507297D-01        EUMP3=      -0.10326012721D+04
 E4(DQ)=    0.29763100D-02        UMP4(DQ)=   -0.10325982958D+04
 E4(SDQ)=  -0.58593036D-02        UMP4(SDQ)=  -0.10326071314D+04
 DE(Corr)= -0.77544238     E(Corr)=     -1032.5788095    
 NORM(A)=   0.11211557D+01
 Iteration Nr.   2
 **********************
 DD1Dir will call FoFMem   1 times, MxPair=       156
 NAB=    78 NAA=     0 NBB=     0.
 DE(Corr)= -0.80083215     E(CORR)=     -1032.6041993     Delta=-2.54D-02
 NORM(A)=   0.11304313D+01
 Iteration Nr.   3
 **********************
 DD1Dir will call FoFMem   1 times, MxPair=       156
 NAB=    78 NAA=     0 NBB=     0.
 DE(Corr)= -0.79932105     E(CORR)=     -1032.6026882     Delta= 1.51D-03
 NORM(A)=   0.11329727D+01
 Iteration Nr.   4
 **********************
 DD1Dir will call FoFMem   1 times, MxPair=       156
 NAB=    78 NAA=     0 NBB=     0.
 DE(Corr)= -0.80170388     E(CORR)=     -1032.6050710     Delta=-2.38D-03
 NORM(A)=   0.11339525D+01
 Iteration Nr.   5
 **********************
 DD1Dir will call FoFMem   1 times, MxPair=       156
 NAB=    78 NAA=     0 NBB=     0.
 DE(Corr)= -0.80201020     E(CORR)=     -1032.6053773     Delta=-3.06D-04
 NORM(A)=   0.11343286D+01
 Iteration Nr.   6
 **********************
 DD1Dir will call FoFMem   1 times, MxPair=       156
 NAB=    78 NAA=     0 NBB=     0.
 DE(Corr)= -0.80205903     E(CORR)=     -1032.6054262     Delta=-4.88D-05
 NORM(A)=   0.11343964D+01
 Iteration Nr.   7
 **********************
 DD1Dir will call FoFMem   1 times, MxPair=       156
 NAB=    78 NAA=     0 NBB=     0.
 DE(Corr)= -0.80206782     E(CORR)=     -1032.6054349     Delta=-8.79D-06
 NORM(A)=   0.11343983D+01
 Iteration Nr.   8
 **********************
 DD1Dir will call FoFMem   1 times, MxPair=       156
 NAB=    78 NAA=     0 NBB=     0.
 DE(Corr)= -0.80206707     E(CORR)=     -1032.6054342     Delta= 7.44D-07
 NORM(A)=   0.11344063D+01
 Iteration Nr.   9
 **********************
 DD1Dir will call FoFMem   1 times, MxPair=       156
 NAB=    78 NAA=     0 NBB=     0.
 DE(Corr)= -0.80206615     E(CORR)=     -1032.6054333     Delta= 9.17D-07
 NORM(A)=   0.11344061D+01
 Iteration Nr.  10
 **********************
 DD1Dir will call FoFMem   1 times, MxPair=       156
 NAB=    78 NAA=     0 NBB=     0.
 DE(Corr)= -0.80206718     E(CORR)=     -1032.6054343     Delta=-1.03D-06
 NORM(A)=   0.11344077D+01
 Iteration Nr.  11
 **********************
 DD1Dir will call FoFMem   1 times, MxPair=       156
 NAB=    78 NAA=     0 NBB=     0.
 DE(Corr)= -0.80206808     E(CORR)=     -1032.6054352     Delta=-8.93D-07
 NORM(A)=   0.11344088D+01
 Iteration Nr.  12
 **********************
 DD1Dir will call FoFMem   1 times, MxPair=       156
 NAB=    78 NAA=     0 NBB=     0.
 DE(Corr)= -0.80206828     E(CORR)=     -1032.6054354     Delta=-2.00D-07
 NORM(A)=   0.11344094D+01
 Iteration Nr.  13
 **********************
 DD1Dir will call FoFMem   1 times, MxPair=       156
 NAB=    78 NAA=     0 NBB=     0.
 DE(Corr)= -0.80206860     E(CORR)=     -1032.6054357     Delta=-3.21D-07
 NORM(A)=   0.11344098D+01
 Iteration Nr.  14
 **********************
 DD1Dir will call FoFMem   1 times, MxPair=       156
 NAB=    78 NAA=     0 NBB=     0.
 DE(Corr)= -0.80206866     E(CORR)=     -1032.6054358     Delta=-5.80D-08
 NORM(A)=   0.11344100D+01
 Iteration Nr.  15
 **********************
 DD1Dir will call FoFMem   1 times, MxPair=       156
 NAB=    78 NAA=     0 NBB=     0.
 DE(Corr)= -0.80206870     E(CORR)=     -1032.6054358     Delta=-4.43D-08
 NORM(A)=   0.11344101D+01
 Iteration Nr.  16
 **********************
 DD1Dir will call FoFMem   1 times, MxPair=       156
 NAB=    78 NAA=     0 NBB=     0.
 DE(Corr)= -0.80206872     E(CORR)=     -1032.6054359     Delta=-1.67D-08
 NORM(A)=   0.11344101D+01
 Iteration Nr.  17
 **********************
 DD1Dir will call FoFMem   1 times, MxPair=       156
 NAB=    78 NAA=     0 NBB=     0.
 DE(Corr)= -0.80206872     E(CORR)=     -1032.6054358     Delta= 2.57D-09
 NORM(A)=   0.11344101D+01
 Wavefunction amplitudes converged. E(Corr)=     -1032.6054358    
 Largest amplitude= 4.27D-02

 Z-amplitude iterations

 Iteration Nr.   1
 **********************
 DD1Dir will call FoFMem   1 times, MxPair=       156
 NAB=    78 NAA=     0 NBB=     0.
 DE(Z)= -0.77414632     E(Z)=     -1032.5775135     Delta= 2.79D-02
 NORM(A)=   0.11344138D+01
 Iteration Nr.   2
 **********************
 DD1Dir will call FoFMem   1 times, MxPair=       156
 NAB=    78 NAA=     0 NBB=     0.
 DE(Z)= -0.77414644     E(Z)=     -1032.5775136     Delta=-1.25D-07
 NORM(A)=   0.11344089D+01
 Iteration Nr.   3
 **********************
 DD1Dir will call FoFMem   1 times, MxPair=       156
 NAB=    78 NAA=     0 NBB=     0.
 DE(Z)= -0.77414628     E(Z)=     -1032.5775134     Delta= 1.62D-07
 NORM(A)=   0.11344103D+01
 Iteration Nr.   4
 **********************
 DD1Dir will call FoFMem   1 times, MxPair=       156
 NAB=    78 NAA=     0 NBB=     0.
 DE(Z)= -0.77414632     E(Z)=     -1032.5775135     Delta=-4.40D-08
 NORM(A)=   0.11344113D+01
 Iteration Nr.   5
 **********************
 DD1Dir will call FoFMem   1 times, MxPair=       156
 NAB=    78 NAA=     0 NBB=     0.
 DE(Z)= -0.77414636     E(Z)=     -1032.5775135     Delta=-3.09D-08
 NORM(A)=   0.11247707D+01
 Iteration Nr.   6
 **********************
 DD1Dir will call FoFMem   1 times, MxPair=       156
 NAB=    78 NAA=     0 NBB=     0.
 DE(Z)= -0.77380594     E(Z)=     -1032.5771731     Delta= 3.40D-04
 NORM(A)=   0.11247847D+01
 Iteration Nr.   7
 **********************
 DD1Dir will call FoFMem   1 times, MxPair=       156
 NAB=    78 NAA=     0 NBB=     0.
 DE(Z)= -0.77381331     E(Z)=     -1032.5771804     Delta=-7.37D-06
 NORM(A)=   0.11247839D+01
 Iteration Nr.   8
 **********************
 DD1Dir will call FoFMem   1 times, MxPair=       156
 NAB=    78 NAA=     0 NBB=     0.
 DE(Z)= -0.77381719     E(Z)=     -1032.5771843     Delta=-3.88D-06
 NORM(A)=   0.11247875D+01
 Iteration Nr.   9
 **********************
 DD1Dir will call FoFMem   1 times, MxPair=       156
 NAB=    78 NAA=     0 NBB=     0.
 DE(Z)= -0.77381751     E(Z)=     -1032.5771846     Delta=-3.17D-07
 NORM(A)=   0.11247882D+01
 Iteration Nr.  10
 **********************
 DD1Dir will call FoFMem   1 times, MxPair=       156
 NAB=    78 NAA=     0 NBB=     0.
 DE(Z)= -0.77381767     E(Z)=     -1032.5771848     Delta=-1.59D-07
 NORM(A)=   0.11247884D+01
 Iteration Nr.  11
 **********************
 DD1Dir will call FoFMem   1 times, MxPair=       156
 NAB=    78 NAA=     0 NBB=     0.
 DE(Z)= -0.77381794     E(Z)=     -1032.5771851     Delta=-2.73D-07
 NORM(A)=   0.11247886D+01
 Iteration Nr.  12
 **********************
 DD1Dir will call FoFMem   1 times, MxPair=       156
 NAB=    78 NAA=     0 NBB=     0.
 DE(Z)= -0.77381777     E(Z)=     -1032.5771849     Delta= 1.74D-07
 NORM(A)=   0.11247886D+01
 Iteration Nr.  13
 **********************
 DD1Dir will call FoFMem   1 times, MxPair=       156
 NAB=    78 NAA=     0 NBB=     0.
 DE(Z)= -0.77381785     E(Z)=     -1032.5771850     Delta=-7.91D-08
 NORM(A)=   0.11247886D+01
 Iteration Nr.  14
 **********************
 DD1Dir will call FoFMem   1 times, MxPair=       156
 NAB=    78 NAA=     0 NBB=     0.
 DE(Z)= -0.77381784     E(Z)=     -1032.5771850     Delta= 1.01D-08
 NORM(A)=   0.11247886D+01
 Iteration Nr.  15
 **********************
 DD1Dir will call FoFMem   1 times, MxPair=       156
 NAB=    78 NAA=     0 NBB=     0.
 DE(Z)= -0.77381784     E(Z)=     -1032.5771850     Delta=-1.39D-09
 NORM(A)=   0.11247887D+01
 Z-amplitudes converged.
 Discarding MO integrals.
          Differentiating once with respect to electric field.
                with respect to dipole field.
          Electric field/nuclear overlap derivatives assumed to be zero.
 Keep R1 ints in memory in canonical form, NReq=179717398.
          There are     1 degrees of freedom in the 1st order CPHF.  IDoFFX=0 NUNeed=     1.
 LinEq1:  Iter=  0 NonCon=     1 RMS=2.33D-03 Max=6.22D-02 NDo=     1
 AX will form     1 AO Fock derivatives at one time.
 LinEq1:  Iter=  1 NonCon=     1 RMS=8.26D-04 Max=1.93D-02 NDo=     1
 LinEq1:  Iter=  2 NonCon=     1 RMS=3.08D-04 Max=6.28D-03 NDo=     1
 LinEq1:  Iter=  3 NonCon=     1 RMS=1.26D-04 Max=3.59D-03 NDo=     1
 LinEq1:  Iter=  4 NonCon=     1 RMS=5.01D-05 Max=1.25D-03 NDo=     1
 LinEq1:  Iter=  5 NonCon=     1 RMS=1.65D-05 Max=3.86D-04 NDo=     1
 LinEq1:  Iter=  6 NonCon=     1 RMS=4.12D-06 Max=5.90D-05 NDo=     1
 LinEq1:  Iter=  7 NonCon=     1 RMS=9.71D-07 Max=1.11D-05 NDo=     1
 LinEq1:  Iter=  8 NonCon=     1 RMS=2.04D-07 Max=2.95D-06 NDo=     1
 LinEq1:  Iter=  9 NonCon=     1 RMS=4.59D-08 Max=8.14D-07 NDo=     1
 LinEq1:  Iter= 10 NonCon=     1 RMS=1.15D-08 Max=2.07D-07 NDo=     1
 LinEq1:  Iter= 11 NonCon=     1 RMS=2.43D-09 Max=3.64D-08 NDo=     1
 LinEq1:  Iter= 12 NonCon=     1 RMS=4.41D-10 Max=1.12D-08 NDo=     1
 LinEq1:  Iter= 13 NonCon=     1 RMS=7.47D-11 Max=1.18D-09 NDo=     1
 LinEq1:  Iter= 14 NonCon=     0 RMS=1.08D-11 Max=1.24D-10 NDo=     1
 Linear equations converged to 1.000D-10 1.000D-09 after    14 iterations.
 End of Minotr F.D. properties file   721 does not exist.
 End of Minotr F.D. properties file   722 does not exist.
 End of Minotr F.D. properties file   788 does not exist.

 **********************************************************************

            Population analysis using the CC Density.

 **********************************************************************

 Alpha  occ. eigenvalues -- -104.88918-104.88918 -20.62576 -11.47565 -10.61354
 Alpha  occ. eigenvalues --  -10.61353  -8.08030  -8.08030  -8.07820  -8.07820
 Alpha  occ. eigenvalues --   -8.07803  -8.07803  -1.49414  -1.20079  -1.13856
 Alpha  occ. eigenvalues --   -0.81210  -0.71010  -0.70398  -0.65217  -0.53076
 Alpha  occ. eigenvalues --   -0.50068  -0.50032  -0.49410  -0.47652
 Alpha virt. eigenvalues --    0.04785   0.06628   0.07918   0.08692   0.09449
 Alpha virt. eigenvalues --    0.09821   0.11366   0.12497   0.12797   0.13441
 Alpha virt. eigenvalues --    0.15601   0.15908   0.21995   0.22147   0.23608
 Alpha virt. eigenvalues --    0.23897   0.25344   0.26315   0.27907   0.30505
 Alpha virt. eigenvalues --    0.30990   0.31639   0.36441   0.39602   0.43907
 Alpha virt. eigenvalues --    0.44208   0.44285   0.45651   0.47072   0.48304
 Alpha virt. eigenvalues --    0.50793   0.51360   0.52104   0.52333   0.54801
 Alpha virt. eigenvalues --    0.62310   0.64145   0.69292   0.69693   0.71532
 Alpha virt. eigenvalues --    0.71566   0.73775   0.75758   0.79457   0.81494
 Alpha virt. eigenvalues --    0.81518   0.83397   0.83518   0.86965   0.88594
 Alpha virt. eigenvalues --    0.89289   0.91628   0.93351   0.93888   0.94488
 Alpha virt. eigenvalues --    0.96125   0.96626   1.04771   1.05887   1.08927
 Alpha virt. eigenvalues --    1.09857   1.13087   1.14714   1.16039   1.17158
 Alpha virt. eigenvalues --    1.21277   1.22922   1.24188   1.26540   1.33707
 Alpha virt. eigenvalues --    1.36768   1.40235   1.42309   1.46424   1.46867
 Alpha virt. eigenvalues --    1.46944   1.47313   1.56282   1.57943   1.61775
 Alpha virt. eigenvalues --    1.67715   1.67727   1.69730   1.72742   1.80333
 Alpha virt. eigenvalues --    1.80735   1.82899   1.82935   1.85278   2.00807
 Alpha virt. eigenvalues --    2.07494   2.26170   2.28833   2.33555   2.33934
 Alpha virt. eigenvalues --    2.39442   2.44538   2.45519   2.49440   2.49596
 Alpha virt. eigenvalues --    2.52393   2.54274   2.58061   2.59144   2.60705
 Alpha virt. eigenvalues --    2.62292   2.63866   2.66512   2.70622   2.76669
 Alpha virt. eigenvalues --    2.77257   2.81730   2.88610   2.89218   2.91300
 Alpha virt. eigenvalues --    2.92350   2.94481   2.97426   2.99170   3.02454
 Alpha virt. eigenvalues --    3.02611   3.05190   3.06581   3.07202   3.07271
 Alpha virt. eigenvalues --    3.10304   3.13328   3.15909   3.20113   3.21462
 Alpha virt. eigenvalues --    3.25109   3.26833   3.51924   3.52199   3.60943
 Alpha virt. eigenvalues --    3.62861   3.63547   3.69960   3.81626   3.84493
 Alpha virt. eigenvalues --    3.95437   3.95889   4.02849   4.16281   4.20163
 Alpha virt. eigenvalues --    4.44110   4.51097   4.65352   4.76540   5.14783
 Alpha virt. eigenvalues --    5.47909   5.62079   6.56309   6.57667   6.86420
 Alpha virt. eigenvalues --    6.87069   7.06284   7.09285   7.18800   7.18856
 Alpha virt. eigenvalues --    7.19236   7.29795   7.50351   7.53002   7.66196
 Alpha virt. eigenvalues --    7.73658  13.44715  15.89161
          Condensed to atoms (all electrons):
               1          2          3          4
     1  O    8.020106   0.441706  -0.074140  -0.074140
     2  C    0.441706   4.948764   0.140153   0.140153
     3  Cl  -0.074140   0.140153  17.044341  -0.102508
     4  Cl  -0.074140   0.140153  -0.102508  17.044341
 Mulliken charges:
               1
     1  O   -0.313532
     2  C    0.329223
     3  Cl  -0.007846
     4  Cl  -0.007846
 Sum of Mulliken charges =  -0.00000
 Mulliken charges with hydrogens summed into heavy atoms:
               1
     1  O   -0.313532
     2  C    0.329223
     3  Cl  -0.007846
     4  Cl  -0.007846
 Electronic spatial extent (au):  <R**2>=            613.5946
 Charge=             -0.0000 electrons
 Dipole moment (field-independent basis, Debye):
    X=             -0.0000    Y=             -0.0000    Z=             -1.1566  Tot=              1.1566
 Quadrupole moment (field-independent basis, Debye-Ang):
   XX=            -35.0858   YY=            -34.4963   ZZ=            -36.3303
   XY=             -0.0000   XZ=              0.0000   YZ=              0.0000
 Traceless Quadrupole moment (field-independent basis, Debye-Ang):
   XX=              0.2183   YY=              0.8078   ZZ=             -1.0262
   XY=             -0.0000   XZ=              0.0000   YZ=              0.0000
 Octapole moment (field-independent basis, Debye-Ang**2):
  XXX=              0.0000  YYY=             -0.0000  ZZZ=            106.1773  XYY=             -0.0000
  XXY=              0.0000  XXZ=             36.0881  XZZ=              0.0000  YZZ=             -0.0000
  YYZ=             29.8426  XYZ=              0.0000
 Hexadecapole moment (field-independent basis, Debye-Ang**3):
 XXXX=            -37.1591 YYYY=           -330.2727 ZZZZ=           -382.8443 XXXY=             -0.0000
 XXXZ=             -0.0000 YYYX=             -0.0000 YYYZ=              0.0000 ZZZX=             -0.0000
 ZZZY=              0.0000 XXYY=            -65.3561 XXZZ=            -71.0930 YYZZ=           -107.0205
 XXYZ=             -0.0000 YYXZ=              0.0000 ZZXY=             -0.0000
 N-N= 1.917522358332D+02 E-N=-2.837760983423D+03  KE= 1.032450271655D+03
 There are a total of       90730 grid points.
 ElSum from          density=       48.0000003023
 ElSum from atomic densities=       48.0000008375

 Hirshfeld populations at iteration   1 (CX, CA, CB, DipXYZ):
               1          2          3          4          5          6
     1  O    0.000007   4.090475   4.090475   0.000000  -0.000000  -0.039944
     2  C    0.000001   2.892991   2.892991   0.000000  -0.000000  -0.055262
     3  Cl   0.000011   8.508267   8.508267   0.000000  -0.063146  -0.010996
     4  Cl   0.000011   8.508267   8.508267   0.000000   0.063146  -0.010996
       Tot   0.000030  24.000000  24.000000   0.000000  -0.000000  -0.117197

 Dip from Atomic Chgs              0.000000   0.000000  -0.337863
         Total Dipole              0.000000  -0.000000  -0.455059

 Hirshfeld charges, spin densities, dipoles, and CM5 charges using IRadAn=      5:
              Q-H        S-H        Dx         Dy         Dz        Q-CM5   
     1  O   -0.180950   0.000000   0.000000  -0.000000  -0.039944  -0.228225
     2  C    0.214018   0.000000   0.000000  -0.000000  -0.055262   0.254137
     3  Cl  -0.016534   0.000000   0.000000  -0.063146  -0.010996  -0.012956
     4  Cl  -0.016534   0.000000   0.000000   0.063146  -0.010996  -0.012956
       Tot  -0.000000   0.000000   0.000000  -0.000000  -0.117197  -0.000000
 Hirshfeld charges with hydrogens summed into heavy atoms:
              Q-H       Q-CM5   
     1  O   -0.180950  -0.228225
     2  C    0.214018   0.254137
     3  Cl  -0.016534  -0.012956
     4  Cl  -0.016534  -0.012956
 
 EQQ= 0.000000000000E+00 EQD= 0.000000000000E+00 EDD= 0.222626770009E-03
 EQQ+QD+DD= 0.222626770009E-03
 
 Breneman (CHELPG) radii used.
 Generate Potential Derived Charges using the Breneman model, NDens= 1.
 Grid spacing= 0.300 Box extension= 2.800
 NStep X,Y,Z=   20     30     26   Total possible points=       15600
 Number of Points to Fit=    4532

 **********************************************************************

            Electrostatic Properties Using The CC Density.

 **********************************************************************

       Atomic Center    1 is at   0.000000  0.000000  0.683397
       Atomic Center    2 is at   0.000000  0.000000 -0.484687
       Atomic Center    3 is at   0.000000 -1.446870 -1.469805
       Atomic Center    4 is at   0.000000  1.446870 -1.469805
    4532 points will be used for fitting atomic charges
 Fitting point charges to electrostatic potential
 The dipole moment will be constrained to the correct value
 Charges from ESP fit, RMS=   0.00562 RRMS=   0.51392:
 ESP charges:
               1
     1  O   -0.324838
     2  C    0.465563
     3  Cl  -0.070362
     4  Cl  -0.070362
 Sum of ESP charges =  -0.00000
 ESP charges with hydrogens summed into heavy atoms:
               1
     1  O   -0.324838
     2  C    0.465563
     3  Cl  -0.070362
     4  Cl  -0.070362
 Charge=  -0.00000 Dipole=     0.0000     0.0000    -1.1566 Tot=     1.1566
 -----------------------------------------------------------------

              Electrostatic Properties (Atomic Units)

 -----------------------------------------------------------------
    Center     Electric         -------- Electric Field --------
               Potential          X             Y             Z
 -----------------------------------------------------------------
    1 Atom    -22.282948
    2 Atom    -14.537621
    3 Atom    -64.375505
    4 Atom    -64.375505
 -----------------------------------------------------------------
 ******************************Gaussian NBO Version 3.1******************************
             N A T U R A L   A T O M I C   O R B I T A L   A N D
          N A T U R A L   B O N D   O R B I T A L   A N A L Y S I S
 ******************************Gaussian NBO Version 3.1******************************
       /RESON  / : Allow strongly delocalized NBO set

 Analyzing the QCI/CC density

 Job title: cl2co-wavefunction                                              

 Storage needed:    111522 in NPA (2147483536 available)
 GSVD:  LWork=        6614 too small for GESVD, short by       52797 words or       52797 for optimal perf.


 NATURAL POPULATIONS:  Natural atomic orbital occupancies 
                                                          
   NAO  Atom  No  lang   Type(AO)    Occupancy
 --------------------------------------------
     1    O    1  S      Cor( 1S)     1.99950
     2    O    1  S      Val( 2S)     1.67493
     3    O    1  S      Ryd( 3S)     0.00625
     4    O    1  S      Ryd( 4S)     0.00040
     5    O    1  S      Ryd( 5S)     0.00029
     6    O    1  px     Val( 2p)     1.35707
     7    O    1  px     Ryd( 3p)     0.00693
     8    O    1  px     Ryd( 4p)     0.00049
     9    O    1  px     Ryd( 5p)     0.00007
    10    O    1  py     Val( 2p)     1.73613
    11    O    1  py     Ryd( 3p)     0.01325
    12    O    1  py     Ryd( 4p)     0.00065
    13    O    1  py     Ryd( 5p)     0.00014
    14    O    1  pz     Val( 2p)     1.59094
    15    O    1  pz     Ryd( 3p)     0.00648
    16    O    1  pz     Ryd( 4p)     0.00051
    17    O    1  pz     Ryd( 5p)     0.00010
    18    O    1  dxy    Ryd( 3d)     0.00545
    19    O    1  dxy    Ryd( 4d)     0.00037
    20    O    1  dxy    Ryd( 5d)     0.00009
    21    O    1  dxz    Ryd( 3d)     0.01181
    22    O    1  dxz    Ryd( 4d)     0.00031
    23    O    1  dxz    Ryd( 5d)     0.00010
    24    O    1  dyz    Ryd( 3d)     0.01214
    25    O    1  dyz    Ryd( 4d)     0.00046
    26    O    1  dyz    Ryd( 5d)     0.00013
    27    O    1  dx2y2  Ryd( 3d)     0.00537
    28    O    1  dx2y2  Ryd( 4d)     0.00037
    29    O    1  dx2y2  Ryd( 5d)     0.00009
    30    O    1  dz2    Ryd( 3d)     0.02128
    31    O    1  dz2    Ryd( 4d)     0.00043
    32    O    1  dz2    Ryd( 5d)     0.00021
    33    O    1  f(0)   Ryd( 4f)     0.00134
    34    O    1  f(0)   Ryd( 5f)     0.00013
    35    O    1  f(C1)  Ryd( 4f)     0.00068
    36    O    1  f(C1)  Ryd( 5f)     0.00010
    37    O    1  f(S1)  Ryd( 4f)     0.00080
    38    O    1  f(S1)  Ryd( 5f)     0.00013
    39    O    1  f(C2)  Ryd( 4f)     0.00046
    40    O    1  f(C2)  Ryd( 5f)     0.00008
    41    O    1  f(S2)  Ryd( 4f)     0.00047
    42    O    1  f(S2)  Ryd( 5f)     0.00008
    43    O    1  f(C3)  Ryd( 4f)     0.00044
    44    O    1  f(C3)  Ryd( 5f)     0.00006
    45    O    1  f(S3)  Ryd( 4f)     0.00045
    46    O    1  f(S3)  Ryd( 5f)     0.00007

    47    C    2  S      Cor( 1S)     1.99938
    48    C    2  S      Val( 2S)     0.94193
    49    C    2  S      Ryd( 3S)     0.00973
    50    C    2  S      Ryd( 4S)     0.00017
    51    C    2  S      Ryd( 5S)     0.00010
    52    C    2  px     Val( 2p)     0.80220
    53    C    2  px     Ryd( 3p)     0.00764
    54    C    2  px     Ryd( 4p)     0.00059
    55    C    2  px     Ryd( 5p)     0.00018
    56    C    2  py     Val( 2p)     0.89903
    57    C    2  py     Ryd( 3p)     0.01057
    58    C    2  py     Ryd( 4p)     0.00067
    59    C    2  py     Ryd( 5p)     0.00038
    60    C    2  pz     Val( 2p)     0.80559
    61    C    2  pz     Ryd( 3p)     0.02833
    62    C    2  pz     Ryd( 5p)     0.00032
    63    C    2  pz     Ryd( 4p)     0.00057
    64    C    2  dxy    Ryd( 3d)     0.00866
    65    C    2  dxy    Ryd( 4d)     0.00031
    66    C    2  dxy    Ryd( 5d)     0.00014
    67    C    2  dxz    Ryd( 3d)     0.00812
    68    C    2  dxz    Ryd( 4d)     0.00072
    69    C    2  dxz    Ryd( 5d)     0.00026
    70    C    2  dyz    Ryd( 3d)     0.01126
    71    C    2  dyz    Ryd( 4d)     0.00087
    72    C    2  dyz    Ryd( 5d)     0.00023
    73    C    2  dx2y2  Ryd( 3d)     0.00609
    74    C    2  dx2y2  Ryd( 5d)     0.00024
    75    C    2  dx2y2  Ryd( 4d)     0.00026
    76    C    2  dz2    Ryd( 3d)     0.00676
    77    C    2  dz2    Ryd( 4d)     0.00047
    78    C    2  dz2    Ryd( 5d)     0.00025
    79    C    2  f(0)   Ryd( 4f)     0.00281
    80    C    2  f(0)   Ryd( 5f)     0.00037
    81    C    2  f(C1)  Ryd( 4f)     0.00184
    82    C    2  f(C1)  Ryd( 5f)     0.00040
    83    C    2  f(S1)  Ryd( 4f)     0.00312
    84    C    2  f(S1)  Ryd( 5f)     0.00056
    85    C    2  f(C2)  Ryd( 4f)     0.00180
    86    C    2  f(C2)  Ryd( 5f)     0.00023
    87    C    2  f(S2)  Ryd( 4f)     0.00172
    88    C    2  f(S2)  Ryd( 5f)     0.00026
    89    C    2  f(C3)  Ryd( 4f)     0.00143
    90    C    2  f(C3)  Ryd( 5f)     0.00021
    91    C    2  f(S3)  Ryd( 4f)     0.00148
    92    C    2  f(S3)  Ryd( 5f)     0.00018

    93   Cl    3  S      Cor( 1S)     2.00000
    94   Cl    3  S      Cor( 2S)     1.99941
    95   Cl    3  S      Val( 3S)     1.84479
    96   Cl    3  S      Ryd( 4S)     0.00534
    97   Cl    3  S      Ryd( 5S)     0.00031
    98   Cl    3  S      Ryd( 6S)     0.00021
    99   Cl    3  px     Cor( 2p)     2.00003
   100   Cl    3  px     Val( 3p)     1.85324
   101   Cl    3  px     Ryd( 4p)     0.00802
   102   Cl    3  px     Ryd( 5p)     0.00046
   103   Cl    3  px     Ryd( 6p)     0.00006
   104   Cl    3  py     Cor( 2p)     1.99995
   105   Cl    3  py     Val( 3p)     1.43824
   106   Cl    3  py     Ryd( 4p)     0.00614
   107   Cl    3  py     Ryd( 5p)     0.00050
   108   Cl    3  py     Ryd( 6p)     0.00006
   109   Cl    3  pz     Cor( 2p)     1.99999
   110   Cl    3  pz     Val( 3p)     1.71143
   111   Cl    3  pz     Ryd( 4p)     0.00719
   112   Cl    3  pz     Ryd( 5p)     0.00046
   113   Cl    3  pz     Ryd( 6p)     0.00010
   114   Cl    3  dxy    Ryd( 3d)     0.01816
   115   Cl    3  dxy    Ryd( 4d)     0.00052
   116   Cl    3  dxy    Ryd( 5d)     0.00012
   117   Cl    3  dxz    Ryd( 3d)     0.01839
   118   Cl    3  dxz    Ryd( 4d)     0.00061
   119   Cl    3  dxz    Ryd( 5d)     0.00013
   120   Cl    3  dyz    Ryd( 3d)     0.02341
   121   Cl    3  dyz    Ryd( 4d)     0.00047
   122   Cl    3  dyz    Ryd( 5d)     0.00012
   123   Cl    3  dx2y2  Ryd( 3d)     0.02005
   124   Cl    3  dx2y2  Ryd( 4d)     0.00052
   125   Cl    3  dx2y2  Ryd( 5d)     0.00012
   126   Cl    3  dz2    Ryd( 3d)     0.01714
   127   Cl    3  dz2    Ryd( 4d)     0.00052
   128   Cl    3  dz2    Ryd( 5d)     0.00017
   129   Cl    3  f(0)   Ryd( 4f)     0.00132
   130   Cl    3  f(0)   Ryd( 5f)     0.00013
   131   Cl    3  f(C1)  Ryd( 4f)     0.00132
   132   Cl    3  f(C1)  Ryd( 5f)     0.00012
   133   Cl    3  f(S1)  Ryd( 4f)     0.00129
   134   Cl    3  f(S1)  Ryd( 5f)     0.00017
   135   Cl    3  f(C2)  Ryd( 4f)     0.00156
   136   Cl    3  f(C2)  Ryd( 5f)     0.00013
   137   Cl    3  f(S2)  Ryd( 4f)     0.00132
   138   Cl    3  f(S2)  Ryd( 5f)     0.00014
   139   Cl    3  f(C3)  Ryd( 4f)     0.00130
   140   Cl    3  f(C3)  Ryd( 5f)     0.00013
   141   Cl    3  f(S3)  Ryd( 4f)     0.00134
   142   Cl    3  f(S3)  Ryd( 5f)     0.00013

   143   Cl    4  S      Cor( 1S)     2.00000
   144   Cl    4  S      Cor( 2S)     1.99941
   145   Cl    4  S      Val( 3S)     1.84479
   146   Cl    4  S      Ryd( 4S)     0.00534
   147   Cl    4  S      Ryd( 5S)     0.00031
   148   Cl    4  S      Ryd( 6S)     0.00021
   149   Cl    4  px     Cor( 2p)     2.00003
   150   Cl    4  px     Val( 3p)     1.85324
   151   Cl    4  px     Ryd( 4p)     0.00802
   152   Cl    4  px     Ryd( 5p)     0.00046
   153   Cl    4  px     Ryd( 6p)     0.00006
   154   Cl    4  py     Cor( 2p)     1.99995
   155   Cl    4  py     Val( 3p)     1.43824
   156   Cl    4  py     Ryd( 4p)     0.00614
   157   Cl    4  py     Ryd( 5p)     0.00050
   158   Cl    4  py     Ryd( 6p)     0.00006
   159   Cl    4  pz     Cor( 2p)     1.99999
   160   Cl    4  pz     Val( 3p)     1.71143
   161   Cl    4  pz     Ryd( 4p)     0.00719
   162   Cl    4  pz     Ryd( 5p)     0.00046
   163   Cl    4  pz     Ryd( 6p)     0.00010
   164   Cl    4  dxy    Ryd( 3d)     0.01816
   165   Cl    4  dxy    Ryd( 4d)     0.00052
   166   Cl    4  dxy    Ryd( 5d)     0.00012
   167   Cl    4  dxz    Ryd( 3d)     0.01839
   168   Cl    4  dxz    Ryd( 4d)     0.00061
   169   Cl    4  dxz    Ryd( 5d)     0.00013
   170   Cl    4  dyz    Ryd( 3d)     0.02341
   171   Cl    4  dyz    Ryd( 4d)     0.00047
   172   Cl    4  dyz    Ryd( 5d)     0.00012
   173   Cl    4  dx2y2  Ryd( 3d)     0.02005
   174   Cl    4  dx2y2  Ryd( 4d)     0.00052
   175   Cl    4  dx2y2  Ryd( 5d)     0.00012
   176   Cl    4  dz2    Ryd( 3d)     0.01714
   177   Cl    4  dz2    Ryd( 4d)     0.00052
   178   Cl    4  dz2    Ryd( 5d)     0.00017
   179   Cl    4  f(0)   Ryd( 4f)     0.00132
   180   Cl    4  f(0)   Ryd( 5f)     0.00013
   181   Cl    4  f(C1)  Ryd( 4f)     0.00132
   182   Cl    4  f(C1)  Ryd( 5f)     0.00012
   183   Cl    4  f(S1)  Ryd( 4f)     0.00129
   184   Cl    4  f(S1)  Ryd( 5f)     0.00017
   185   Cl    4  f(C2)  Ryd( 4f)     0.00156
   186   Cl    4  f(C2)  Ryd( 5f)     0.00013
   187   Cl    4  f(S2)  Ryd( 4f)     0.00132
   188   Cl    4  f(S2)  Ryd( 5f)     0.00014
   189   Cl    4  f(C3)  Ryd( 4f)     0.00130
   190   Cl    4  f(C3)  Ryd( 5f)     0.00013
   191   Cl    4  f(S3)  Ryd( 4f)     0.00134
   192   Cl    4  f(S3)  Ryd( 5f)     0.00013


 Summary of Natural Population Analysis:                  
                                                          
                                       Natural Population 
                Natural  -----------------------------------------------
    Atom  No    Charge         Core      Valence    Rydberg      Total
 -----------------------------------------------------------------------
      O    1   -0.45802      1.99950     6.35906    0.09946     8.45802
      C    2    0.43160      1.99938     3.44874    0.12028     5.56840
     Cl    3    0.01321      9.99937     6.84770    0.13972    16.98679
     Cl    4    0.01321      9.99937     6.84770    0.13972    16.98679
 =======================================================================
   * Total *   -0.00000     23.99761    23.50321    0.49918    48.00000

                                 Natural Population      
 --------------------------------------------------------
   Core                      23.99761 ( 99.9900% of  24)
   Valence                   23.50321 ( 97.9301% of  24)
   Natural Minimal Basis     47.50082 ( 98.9600% of  48)
   Natural Rydberg Basis      0.49918 (  1.0400% of  48)
 --------------------------------------------------------

    Atom  No          Natural Electron Configuration
 ----------------------------------------------------------------------------
      O    1      [core]2S( 1.67)2p( 4.68)3S( 0.01)3p( 0.03)3d( 0.06)
      C    2      [core]2S( 0.94)2p( 2.51)3S( 0.01)3p( 0.05)3d( 0.04)4f( 0.01)
     Cl    3      [core]3S( 1.84)3p( 5.00)4S( 0.01)3d( 0.10)4p( 0.02)4f( 0.01)
     Cl    4      [core]3S( 1.84)3p( 5.00)4S( 0.01)3d( 0.10)4p( 0.02)4f( 0.01)


 NBO analysis skipped by request.
 Unable to Open any file for archive entry.
 1\1\GINC-TRAPISTA\SP\RQCISD-FC\Aug-CC-pVTZ\C1Cl2O1\WAGNER\04-Sep-2022\
 0\\# qcisd/aug-cc-pvtz nosymm density=current pop=(chelpg,hirshfeld,np
 a,dipole)\\cl2co-wavefunction\\0,1\O,0,0.,0.,0.683397\C,0,0.,0.,-0.484
 687\Cl,0,0.,-1.44687,-1.469805\Cl,0,0.,1.44687,-1.469805\\Version=EM64
 L-G16RevC.01\HF=-1031.8033671\MP2=-1032.5817648\MP3=-1032.6012721\MP4D
 =-1032.6207584\MP4DQ=-1032.5982958\MP4SDQ=-1032.6071314\QCISD=-1032.60
 54358\RMSD=6.344e-09\Dipole=0.,0.,-0.4550608\Quadrupole=0.1623228,0.60
 05958,-0.7629186,0.,0.,0.\PG=C02V [C2(C1O1),SGV(Cl2)]\\@
 The archive entry for this job was punched.


 THE GREAT THING ABOUT BEING IMPERFECT IS THE JOY IT BRINGS OTHERS.
   -- SIGN OUTSIDE LAKE AGASSIZ JR. HIGH SCHOOL, FARGO, N.D.
 Job cpu time:       0 days  7 hours  6 minutes 22.4 seconds.
 Elapsed time:       0 days  0 hours 27 minutes  0.4 seconds.
 File lengths (MBytes):  RWF=  22679 Int=      0 D2E=      0 Chk=      4 Scr=      1
 Normal termination of Gaussian 16 at Sun Sep  4 00:30:09 2022.
