 Entering Gaussian System, Link 0=/home/wagner/chemistry/gaussian/g16/g16
 Input=GAUSSIAN.com
 Output=GAUSSIAN.log
 Initial command:
 /home/wagner/chemistry/gaussian/g16/l1.exe "/home/wagner/chemistry/gaussian/work/Gau-35192.inp" -scrdir="/home/wagner/chemistry/gaussian/work/"
 Entering Link 1 = /home/wagner/chemistry/gaussian/g16/l1.exe PID=     35194.
  
 Copyright (c) 1988-2019, Gaussian, Inc.  All Rights Reserved.
  
 This is part of the Gaussian(R) 16 program.  It is based on
 the Gaussian(R) 09 system (copyright 2009, Gaussian, Inc.),
 the Gaussian(R) 03 system (copyright 2003, Gaussian, Inc.),
 the Gaussian(R) 98 system (copyright 1998, Gaussian, Inc.),
 the Gaussian(R) 94 system (copyright 1995, Gaussian, Inc.),
 the Gaussian 92(TM) system (copyright 1992, Gaussian, Inc.),
 the Gaussian 90(TM) system (copyright 1990, Gaussian, Inc.),
 the Gaussian 88(TM) system (copyright 1988, Gaussian, Inc.),
 the Gaussian 86(TM) system (copyright 1986, Carnegie Mellon
 University), and the Gaussian 82(TM) system (copyright 1983,
 Carnegie Mellon University). Gaussian is a federally registered
 trademark of Gaussian, Inc.
  
 This software contains proprietary and confidential information,
 including trade secrets, belonging to Gaussian, Inc.
  
 This software is provided under written license and may be
 used, copied, transmitted, or stored only in accord with that
 written license.
  
 The following legend is applicable only to US Government
 contracts under FAR:
  
                    RESTRICTED RIGHTS LEGEND
  
 Use, reproduction and disclosure by the US Government is
 subject to restrictions as set forth in subparagraphs (a)
 and (c) of the Commercial Computer Software - Restricted
 Rights clause in FAR 52.227-19.
  
 Gaussian, Inc.
 340 Quinnipiac St., Bldg. 40, Wallingford CT 06492
  
  
 ---------------------------------------------------------------
 Warning -- This program may not be used in any manner that
 competes with the business of Gaussian, Inc. or will provide
 assistance to any competitor of Gaussian, Inc.  The licensee
 of this program is prohibited from giving any competitor of
 Gaussian, Inc. access to this program.  By using this program,
 the user acknowledges that Gaussian, Inc. is engaged in the
 business of creating and licensing software in the field of
 computational chemistry and represents and warrants to the
 licensee that it is not a competitor of Gaussian, Inc. and that
 it will not use this program in any manner prohibited above.
 ---------------------------------------------------------------
  

 Cite this work as:
 Gaussian 16, Revision C.01,
 M. J. Frisch, G. W. Trucks, H. B. Schlegel, G. E. Scuseria, 
 M. A. Robb, J. R. Cheeseman, G. Scalmani, V. Barone, 
 G. A. Petersson, H. Nakatsuji, X. Li, M. Caricato, A. V. Marenich, 
 J. Bloino, B. G. Janesko, R. Gomperts, B. Mennucci, H. P. Hratchian, 
 J. V. Ortiz, A. F. Izmaylov, J. L. Sonnenberg, D. Williams-Young, 
 F. Ding, F. Lipparini, F. Egidi, J. Goings, B. Peng, A. Petrone, 
 T. Henderson, D. Ranasinghe, V. G. Zakrzewski, J. Gao, N. Rega, 
 G. Zheng, W. Liang, M. Hada, M. Ehara, K. Toyota, R. Fukuda, 
 J. Hasegawa, M. Ishida, T. Nakajima, Y. Honda, O. Kitao, H. Nakai, 
 T. Vreven, K. Throssell, J. A. Montgomery, Jr., J. E. Peralta, 
 F. Ogliaro, M. J. Bearpark, J. J. Heyd, E. N. Brothers, K. N. Kudin, 
 V. N. Staroverov, T. A. Keith, R. Kobayashi, J. Normand, 
 K. Raghavachari, A. P. Rendell, J. C. Burant, S. S. Iyengar, 
 J. Tomasi, M. Cossi, J. M. Millam, M. Klene, C. Adamo, R. Cammi, 
 J. W. Ochterski, R. L. Martin, K. Morokuma, O. Farkas, 
 J. B. Foresman, and D. J. Fox, Gaussian, Inc., Wallingford CT, 2019.
 
 ******************************************
 Gaussian 16:  EM64L-G16RevC.01  3-Jul-2019
                 4-Sep-2022 
 ******************************************
 %nproc=16
 Will use up to   16 processors via shared memory.
 %mem=16GB
 ----------------------------------------------------------------------
 # qcisd/aug-cc-pvtz nosymm density=current pop=(chelpg,hirshfeld,npa,d
 ipole)
 ----------------------------------------------------------------------
 1/30=1,38=1,172=1/1;
 2/12=2,15=1,17=6,18=5,40=1/2;
 3/5=16,6=1,7=10,11=9,25=1,30=1,71=1/1,2,3;
 4//1;
 5/5=2,38=5/2;
 8/6=4,9=120000,10=1/1,4;
 9/5=8,15=1/13;
 11/28=-7,31=1,32=3,42=3/11;
 10/5=6,13=10,31=1/2;
 6/7=2,8=2,9=2,10=2,15=24,20=3,22=-1,40=-1,79=1/1,2,7;
 99/5=1,9=1/99;
 ------------------
 cl2co-wavefunction
 ------------------
 Symbolic Z-matrix:
 Charge =  0 Multiplicity = 1
 O                     0.        0.        0.6834 
 C                     0.        0.       -0.49469 
 Cl                    0.       -1.45687  -1.46981 
 Cl                    0.        1.44687  -1.46981 
 
                          Input orientation:                          
 ---------------------------------------------------------------------
 Center     Atomic      Atomic             Coordinates (Angstroms)
 Number     Number       Type             X           Y           Z
 ---------------------------------------------------------------------
      1          8           0        0.000000    0.000000    0.683397
      2          6           0        0.000000    0.000000   -0.494687
      3         17           0        0.000000   -1.456870   -1.469805
      4         17           0        0.000000    1.446870   -1.469805
 ---------------------------------------------------------------------
                    Distance matrix (angstroms):
                    1          2          3          4
     1  O    0.000000
     2  C    1.178084   0.000000
     3  Cl   2.599759   1.753090   0.000000
     4  Cl   2.594169   1.744789   2.903740   0.000000
 Symmetry turned off by external request.
 Stoichiometry    CCl2O
 Framework group  CS[SG(CCl2O)]
 Deg. of freedom     5
 Full point group                 CS      NOp   2
 Rotational constants (GHZ):           7.9179739           3.4280562           2.3923133
 Standard basis: Aug-CC-pVTZ (5D, 7F)
   192 basis functions,   372 primitive gaussians,   228 cartesian basis functions
    24 alpha electrons       24 beta electrons
       nuclear repulsion energy       191.3777397702 Hartrees.
 NAtoms=    4 NActive=    4 NUniq=    4 SFac= 1.00D+00 NAtFMM=   60 NAOKFM=F Big=F
 Integral buffers will be    131072 words long.
 Raffenetti 1 integral format.
 Two-electron integral symmetry is turned off.
 One-electron integrals computed using PRISM.
 NBasis=   192 RedAO= T EigKep=  1.45D-04  NBF=   192
 NBsUse=   192 1.00D-06 EigRej= -1.00D+00 NBFU=   192
 ExpMin= 3.57D-02 ExpMax= 4.56D+05 ExpMxC= 1.44D+03 IAcc=3 IRadAn=         5 AccDes= 0.00D+00
 Harris functional with IExCor=  205 and IRadAn=       5 diagonalized for initial guess.
 HarFok:  IExCor=  205 AccDes= 0.00D+00 IRadAn=         5 IDoV= 1 UseB2=F ITyADJ=14
 ICtDFT=  3500011 ScaDFX=  1.000000  1.000000  1.000000  1.000000
 FoFCou: FMM=F IPFlag=           0 FMFlag=      100000 FMFlg1=           0
         NFxFlg=           0 DoJE=T BraDBF=F KetDBF=T FulRan=T
         wScrn=  0.000000 ICntrl=       500 IOpCl=  0 I1Cent=   200000004 NGrid=           0
         NMat0=    1 NMatS0=      1 NMatT0=    0 NMatD0=    1 NMtDS0=    0 NMtDT0=    0
 Symmetry not used in FoFCou.
 Keep R1 ints in memory in canonical form, NReq=179712077.
 Requested convergence on RMS density matrix=1.00D-08 within 128 cycles.
 Requested convergence on MAX density matrix=1.00D-06.
 Requested convergence on             energy=1.00D-06.
 No special actions if energy rises.
 SCF Done:  E(RHF) =  -1031.80261245     A.U. after   12 cycles
            NFock= 12  Conv=0.68D-08     -V/T= 2.0003
 ExpMin= 3.57D-02 ExpMax= 4.56D+05 ExpMxC= 1.44D+03 IAcc=3 IRadAn=         5 AccDes= 0.00D+00
 HarFok:  IExCor=  205 AccDes= 0.00D+00 IRadAn=         5 IDoV=-2 UseB2=F ITyADJ=14
 ICtDFT= 12500011 ScaDFX=  1.000000  1.000000  1.000000  1.000000
 Range of M.O.s used for correlation:    13   192
 NBasis=   192 NAE=    24 NBE=    24 NFC=    12 NFV=     0
 NROrb=    180 NOA=    12 NOB=    12 NVA=   168 NVB=   168

 **** Warning!!: The largest alpha MO coefficient is  0.28213706D+02

 Semi-Direct transformation.
 ModeAB=           2 MOrb=            12 LenV=    2146443439
 LASXX=     33405819 LTotXX=    33405819 LenRXX=    33405819
 LTotAB=    33954012 MaxLAS=    56388960 LenRXY=    56388960
 NonZer=    66811638 LenScr=   100987392 LnRSAI=           0
 LnScr1=           0 LExtra=           0 Total=    190782171
 MaxDsk=          -1 SrtSym=           F ITran=            4
 JobTyp=0 Pass  1:  I=   1 to  12.
 (rs|ai) integrals will be sorted in core.
 Spin components of T(2) and E(2):
     alpha-alpha T2 =       0.3525998044D-01 E2=     -0.1017868893D+00
     alpha-beta  T2 =       0.1836380257D+00 E2=     -0.5759129942D+00
     beta-beta   T2 =       0.3525998044D-01 E2=     -0.1017868893D+00
 ANorm=    0.1119891953D+01
 E2 =    -0.7794867727D+00 EUMP2 =    -0.10325820992215D+04
 Keep R2 and R3 ints in memory in canonical form, NReq=351373555.
 CIDS: In Core Option IDoMem=           1.
 Iterations=  50 Convergence= 0.100D-07
 Produce multiple copies of IABC intergrals
 Iteration Nr.   1
 **********************
 DD1Dir will call FoFMem   1 times, MxPair=       156
 NAB=    78 NAA=     0 NBB=     0.
 MP4(R+Q)=  0.22552233D-01
 E3=       -0.19057294D-01        EUMP3=      -0.10326011565D+04
 E4(DQ)=    0.28483904D-02        UMP4(DQ)=   -0.10325983081D+04
 E4(SDQ)=  -0.61622254D-02        UMP4(SDQ)=  -0.10326073187D+04
 DE(Corr)= -0.77599183     E(Corr)=     -1032.5786043    
 NORM(A)=   0.11214846D+01
 Iteration Nr.   2
 **********************
 DD1Dir will call FoFMem   1 times, MxPair=       156
 NAB=    78 NAA=     0 NBB=     0.
 DE(Corr)= -0.80176332     E(CORR)=     -1032.6043758     Delta=-2.58D-02
 NORM(A)=   0.11308732D+01
 Iteration Nr.   3
 **********************
 DD1Dir will call FoFMem   1 times, MxPair=       156
 NAB=    78 NAA=     0 NBB=     0.
 DE(Corr)= -0.80014829     E(CORR)=     -1032.6027607     Delta= 1.62D-03
 NORM(A)=   0.11334914D+01
 Iteration Nr.   4
 **********************
 DD1Dir will call FoFMem   1 times, MxPair=       156
 NAB=    78 NAA=     0 NBB=     0.
 DE(Corr)= -0.80258852     E(CORR)=     -1032.6052010     Delta=-2.44D-03
 NORM(A)=   0.11345089D+01
 Iteration Nr.   5
 **********************
 DD1Dir will call FoFMem   1 times, MxPair=       156
 NAB=    78 NAA=     0 NBB=     0.
 DE(Corr)= -0.80290749     E(CORR)=     -1032.6055199     Delta=-3.19D-04
 NORM(A)=   0.11349024D+01
 Iteration Nr.   6
 **********************
 DD1Dir will call FoFMem   1 times, MxPair=       156
 NAB=    78 NAA=     0 NBB=     0.
 DE(Corr)= -0.80295854     E(CORR)=     -1032.6055710     Delta=-5.10D-05
 NORM(A)=   0.11349743D+01
 Iteration Nr.   7
 **********************
 DD1Dir will call FoFMem   1 times, MxPair=       156
 NAB=    78 NAA=     0 NBB=     0.
 DE(Corr)= -0.80296779     E(CORR)=     -1032.6055802     Delta=-9.25D-06
 NORM(A)=   0.11349756D+01
 Iteration Nr.   8
 **********************
 DD1Dir will call FoFMem   1 times, MxPair=       156
 NAB=    78 NAA=     0 NBB=     0.
 DE(Corr)= -0.80296737     E(CORR)=     -1032.6055798     Delta= 4.25D-07
 NORM(A)=   0.11349838D+01
 Iteration Nr.   9
 **********************
 DD1Dir will call FoFMem   1 times, MxPair=       156
 NAB=    78 NAA=     0 NBB=     0.
 DE(Corr)= -0.80296611     E(CORR)=     -1032.6055786     Delta= 1.26D-06
 NORM(A)=   0.11349834D+01
 Iteration Nr.  10
 **********************
 DD1Dir will call FoFMem   1 times, MxPair=       156
 NAB=    78 NAA=     0 NBB=     0.
 DE(Corr)= -0.80296730     E(CORR)=     -1032.6055798     Delta=-1.19D-06
 NORM(A)=   0.11349851D+01
 Iteration Nr.  11
 **********************
 DD1Dir will call FoFMem   1 times, MxPair=       156
 NAB=    78 NAA=     0 NBB=     0.
 DE(Corr)= -0.80296814     E(CORR)=     -1032.6055806     Delta=-8.40D-07
 NORM(A)=   0.11349862D+01
 Iteration Nr.  12
 **********************
 DD1Dir will call FoFMem   1 times, MxPair=       156
 NAB=    78 NAA=     0 NBB=     0.
 DE(Corr)= -0.80296839     E(CORR)=     -1032.6055808     Delta=-2.46D-07
 NORM(A)=   0.11349869D+01
 Iteration Nr.  13
 **********************
 DD1Dir will call FoFMem   1 times, MxPair=       156
 NAB=    78 NAA=     0 NBB=     0.
 DE(Corr)= -0.80296872     E(CORR)=     -1032.6055812     Delta=-3.33D-07
 NORM(A)=   0.11349874D+01
 Iteration Nr.  14
 **********************
 DD1Dir will call FoFMem   1 times, MxPair=       156
 NAB=    78 NAA=     0 NBB=     0.
 DE(Corr)= -0.80296879     E(CORR)=     -1032.6055812     Delta=-6.44D-08
 NORM(A)=   0.11349875D+01
 Iteration Nr.  15
 **********************
 DD1Dir will call FoFMem   1 times, MxPair=       156
 NAB=    78 NAA=     0 NBB=     0.
 DE(Corr)= -0.80296883     E(CORR)=     -1032.6055813     Delta=-4.88D-08
 NORM(A)=   0.11349876D+01
 Iteration Nr.  16
 **********************
 DD1Dir will call FoFMem   1 times, MxPair=       156
 NAB=    78 NAA=     0 NBB=     0.
 DE(Corr)= -0.80296885     E(CORR)=     -1032.6055813     Delta=-1.63D-08
 NORM(A)=   0.11349876D+01
 Iteration Nr.  17
 **********************
 DD1Dir will call FoFMem   1 times, MxPair=       156
 NAB=    78 NAA=     0 NBB=     0.
 DE(Corr)= -0.80296885     E(CORR)=     -1032.6055813     Delta= 1.64D-09
 NORM(A)=   0.11349876D+01
 Wavefunction amplitudes converged. E(Corr)=     -1032.6055813    
 Largest amplitude= 3.29D-02

 Z-amplitude iterations

 Iteration Nr.   1
 **********************
 DD1Dir will call FoFMem   1 times, MxPair=       156
 NAB=    78 NAA=     0 NBB=     0.
 DE(Z)= -0.77487980     E(Z)=     -1032.5774922     Delta= 2.81D-02
 NORM(A)=   0.11350114D+01
 Iteration Nr.   2
 **********************
 DD1Dir will call FoFMem   1 times, MxPair=       156
 NAB=    78 NAA=     0 NBB=     0.
 DE(Z)= -0.77488058     E(Z)=     -1032.5774930     Delta=-7.79D-07
 NORM(A)=   0.11350108D+01
 Iteration Nr.   3
 **********************
 DD1Dir will call FoFMem   1 times, MxPair=       156
 NAB=    78 NAA=     0 NBB=     0.
 DE(Z)= -0.77488048     E(Z)=     -1032.5774929     Delta= 9.27D-08
 NORM(A)=   0.11350163D+01
 Iteration Nr.   4
 **********************
 DD1Dir will call FoFMem   1 times, MxPair=       156
 NAB=    78 NAA=     0 NBB=     0.
 DE(Z)= -0.77488069     E(Z)=     -1032.5774931     Delta=-2.10D-07
 NORM(A)=   0.11350778D+01
 Iteration Nr.   5
 **********************
 DD1Dir will call FoFMem   1 times, MxPair=       156
 NAB=    78 NAA=     0 NBB=     0.
 DE(Z)= -0.77488270     E(Z)=     -1032.5774952     Delta=-2.01D-06
 NORM(A)=   0.11252873D+01
 Iteration Nr.   6
 **********************
 DD1Dir will call FoFMem   1 times, MxPair=       156
 NAB=    78 NAA=     0 NBB=     0.
 DE(Z)= -0.77456307     E(Z)=     -1032.5771755     Delta= 3.20D-04
 NORM(A)=   0.11252890D+01
 Iteration Nr.   7
 **********************
 DD1Dir will call FoFMem   1 times, MxPair=       156
 NAB=    78 NAA=     0 NBB=     0.
 DE(Z)= -0.77456266     E(Z)=     -1032.5771751     Delta= 4.03D-07
 NORM(A)=   0.11252894D+01
 Iteration Nr.   8
 **********************
 DD1Dir will call FoFMem   1 times, MxPair=       156
 NAB=    78 NAA=     0 NBB=     0.
 DE(Z)= -0.77456254     E(Z)=     -1032.5771750     Delta= 1.22D-07
 NORM(A)=   0.11252895D+01
 Iteration Nr.   9
 **********************
 DD1Dir will call FoFMem   1 times, MxPair=       156
 NAB=    78 NAA=     0 NBB=     0.
 DE(Z)= -0.77456301     E(Z)=     -1032.5771755     Delta=-4.67D-07
 NORM(A)=   0.11252896D+01
 Iteration Nr.  10
 **********************
 DD1Dir will call FoFMem   1 times, MxPair=       156
 NAB=    78 NAA=     0 NBB=     0.
 DE(Z)= -0.77456275     E(Z)=     -1032.5771752     Delta= 2.53D-07
 NORM(A)=   0.11252897D+01
 Iteration Nr.  11
 **********************
 DD1Dir will call FoFMem   1 times, MxPair=       156
 NAB=    78 NAA=     0 NBB=     0.
 DE(Z)= -0.77456282     E(Z)=     -1032.5771753     Delta=-6.42D-08
 NORM(A)=   0.11252897D+01
 Iteration Nr.  12
 **********************
 DD1Dir will call FoFMem   1 times, MxPair=       156
 NAB=    78 NAA=     0 NBB=     0.
 DE(Z)= -0.77456280     E(Z)=     -1032.5771753     Delta= 1.72D-08
 NORM(A)=   0.11252898D+01
 Iteration Nr.  13
 **********************
 DD1Dir will call FoFMem   1 times, MxPair=       156
 NAB=    78 NAA=     0 NBB=     0.
 DE(Z)= -0.77456281     E(Z)=     -1032.5771753     Delta=-9.63D-09
 NORM(A)=   0.11252898D+01
 Z-amplitudes converged.
 Discarding MO integrals.
          Differentiating once with respect to electric field.
                with respect to dipole field.
          Electric field/nuclear overlap derivatives assumed to be zero.
 Keep R1 ints in memory in canonical form, NReq=179717340.
          There are     1 degrees of freedom in the 1st order CPHF.  IDoFFX=0 NUNeed=     1.
 LinEq1:  Iter=  0 NonCon=     1 RMS=2.34D-03 Max=5.54D-02 NDo=     1
 AX will form     1 AO Fock derivatives at one time.
 LinEq1:  Iter=  1 NonCon=     1 RMS=8.32D-04 Max=1.85D-02 NDo=     1
 LinEq1:  Iter=  2 NonCon=     1 RMS=3.11D-04 Max=5.56D-03 NDo=     1
 LinEq1:  Iter=  3 NonCon=     1 RMS=1.28D-04 Max=3.23D-03 NDo=     1
 LinEq1:  Iter=  4 NonCon=     1 RMS=5.14D-05 Max=1.23D-03 NDo=     1
 LinEq1:  Iter=  5 NonCon=     1 RMS=1.66D-05 Max=3.56D-04 NDo=     1
 LinEq1:  Iter=  6 NonCon=     1 RMS=4.20D-06 Max=5.83D-05 NDo=     1
 LinEq1:  Iter=  7 NonCon=     1 RMS=9.96D-07 Max=1.14D-05 NDo=     1
 LinEq1:  Iter=  8 NonCon=     1 RMS=2.11D-07 Max=3.14D-06 NDo=     1
 LinEq1:  Iter=  9 NonCon=     1 RMS=4.75D-08 Max=7.99D-07 NDo=     1
 LinEq1:  Iter= 10 NonCon=     1 RMS=1.21D-08 Max=2.25D-07 NDo=     1
 LinEq1:  Iter= 11 NonCon=     1 RMS=2.54D-09 Max=3.78D-08 NDo=     1
 LinEq1:  Iter= 12 NonCon=     1 RMS=4.72D-10 Max=1.18D-08 NDo=     1
 LinEq1:  Iter= 13 NonCon=     1 RMS=8.59D-11 Max=1.24D-09 NDo=     1
 LinEq1:  Iter= 14 NonCon=     0 RMS=2.12D-11 Max=3.41D-10 NDo=     1
 Linear equations converged to 1.000D-10 1.000D-09 after    14 iterations.
 End of Minotr F.D. properties file   721 does not exist.
 End of Minotr F.D. properties file   722 does not exist.
 End of Minotr F.D. properties file   788 does not exist.

 **********************************************************************

            Population analysis using the CC Density.

 **********************************************************************

 Alpha  occ. eigenvalues -- -104.89112-104.88989 -20.62454 -11.47700 -10.61546
 Alpha  occ. eigenvalues --  -10.61410  -8.08224  -8.08086  -8.08012  -8.07995
 Alpha  occ. eigenvalues --   -8.07877  -8.07860  -1.48617  -1.20124  -1.13994
 Alpha  occ. eigenvalues --   -0.81227  -0.70771  -0.70137  -0.64843  -0.53063
 Alpha  occ. eigenvalues --   -0.50181  -0.49902  -0.49512  -0.47737
 Alpha virt. eigenvalues --    0.04765   0.06608   0.07966   0.08622   0.09296
 Alpha virt. eigenvalues --    0.09764   0.11377   0.12510   0.12773   0.13443
 Alpha virt. eigenvalues --    0.15596   0.15879   0.22027   0.22132   0.23643
 Alpha virt. eigenvalues --    0.23898   0.25341   0.26215   0.27953   0.30456
 Alpha virt. eigenvalues --    0.30997   0.31668   0.36330   0.39539   0.43772
 Alpha virt. eigenvalues --    0.44157   0.44271   0.45686   0.47057   0.48368
 Alpha virt. eigenvalues --    0.50839   0.51284   0.51999   0.52338   0.54807
 Alpha virt. eigenvalues --    0.62172   0.64223   0.69205   0.69738   0.71439
 Alpha virt. eigenvalues --    0.71548   0.73630   0.75811   0.79506   0.81412
 Alpha virt. eigenvalues --    0.81634   0.83357   0.83432   0.86997   0.88557
 Alpha virt. eigenvalues --    0.89202   0.91493   0.93312   0.93752   0.94582
 Alpha virt. eigenvalues --    0.96114   0.96608   1.04756   1.05902   1.08732
 Alpha virt. eigenvalues --    1.09486   1.12867   1.14835   1.15927   1.17204
 Alpha virt. eigenvalues --    1.21097   1.23077   1.24251   1.26541   1.33353
 Alpha virt. eigenvalues --    1.36746   1.39702   1.42396   1.46380   1.46482
 Alpha virt. eigenvalues --    1.47065   1.47472   1.56135   1.58021   1.61848
 Alpha virt. eigenvalues --    1.67694   1.67736   1.69143   1.72778   1.80479
 Alpha virt. eigenvalues --    1.81247   1.82661   1.83162   1.85295   2.00498
 Alpha virt. eigenvalues --    2.07241   2.25942   2.28627   2.33564   2.34036
 Alpha virt. eigenvalues --    2.39357   2.44594   2.45169   2.49034   2.49357
 Alpha virt. eigenvalues --    2.52260   2.54345   2.57934   2.58940   2.60713
 Alpha virt. eigenvalues --    2.62099   2.63474   2.66261   2.70312   2.76607
 Alpha virt. eigenvalues --    2.77116   2.81393   2.88528   2.88873   2.91413
 Alpha virt. eigenvalues --    2.91927   2.94660   2.97542   2.98938   3.02249
 Alpha virt. eigenvalues --    3.02611   3.05116   3.06390   3.07218   3.07519
 Alpha virt. eigenvalues --    3.10585   3.13233   3.15838   3.19997   3.21518
 Alpha virt. eigenvalues --    3.24767   3.26856   3.50991   3.52987   3.60207
 Alpha virt. eigenvalues --    3.62731   3.63802   3.69977   3.81982   3.83997
 Alpha virt. eigenvalues --    3.94550   3.95993   4.02765   4.15316   4.19112
 Alpha virt. eigenvalues --    4.43522   4.51291   4.62689   4.75404   5.12286
 Alpha virt. eigenvalues --    5.45931   5.61583   6.56246   6.57718   6.86192
 Alpha virt. eigenvalues --    6.86813   7.04840   7.09319   7.18089   7.18668
 Alpha virt. eigenvalues --    7.18850   7.27700   7.50509   7.51499   7.66488
 Alpha virt. eigenvalues --    7.72665  13.30976  15.68424
          Condensed to atoms (all electrons):
               1          2          3          4
     1  O    8.032560   0.434816  -0.073013  -0.074273
     2  C    0.434816   4.961550   0.139572   0.135431
     3  Cl  -0.073013   0.139572  17.041249  -0.099360
     4  Cl  -0.074273   0.135431  -0.099360  17.038296
 Mulliken charges:
               1
     1  O   -0.320089
     2  C    0.328631
     3  Cl  -0.008448
     4  Cl  -0.000095
 Sum of Mulliken charges =  -0.00000
 Mulliken charges with hydrogens summed into heavy atoms:
               1
     1  O   -0.320089
     2  C    0.328631
     3  Cl  -0.008448
     4  Cl  -0.000095
 Electronic spatial extent (au):  <R**2>=            615.4825
 Charge=             -0.0000 electrons
 Dipole moment (field-independent basis, Debye):
    X=             -0.0000    Y=              0.0372    Z=             -1.2234  Tot=              1.2240
 Quadrupole moment (field-independent basis, Debye-Ang):
   XX=            -35.1001   YY=            -34.3873   ZZ=            -36.3112
   XY=              0.0000   XZ=             -0.0000   YZ=             -0.0571
 Traceless Quadrupole moment (field-independent basis, Debye-Ang):
   XX=              0.1661   YY=              0.8789   ZZ=             -1.0450
   XY=              0.0000   XZ=             -0.0000   YZ=             -0.0571
 Octapole moment (field-independent basis, Debye-Ang**2):
  XXX=              0.0000  YYY=              0.4896  ZZZ=            106.3061  XYY=              0.0000
  XXY=              0.1640  XXZ=             36.0924  XZZ=              0.0000  YZZ=              0.2467
  YYZ=             29.7044  XYZ=             -0.0000
 Hexadecapole moment (field-independent basis, Debye-Ang**3):
 XXXX=            -37.1688 YYYY=           -331.2414 ZZZZ=           -383.3655 XXXY=              0.0000
 XXXZ=             -0.0000 YYYX=              0.0000 YYYZ=             -0.6712 ZZZX=             -0.0000
 ZZZY=             -0.8432 XXYY=            -65.6520 XXZZ=            -71.1263 YYZZ=           -107.2567
 XXYZ=             -0.2401 YYXZ=             -0.0000 ZZXY=              0.0000
 N-N= 1.913777397702D+02 E-N=-2.836972163852D+03  KE= 1.032406604647D+03
 There are a total of       90730 grid points.
 ElSum from          density=       48.0000002285
 ElSum from atomic densities=       48.0000007524

 Hirshfeld populations at iteration   1 (CX, CA, CB, DipXYZ):
               1          2          3          4          5          6
     1  O    0.000007   4.092478   4.092478  -0.000000   0.000007  -0.042660
     2  C    0.000001   2.893784   2.893784   0.000000  -0.000129  -0.057821
     3  Cl   0.000011   8.508104   8.508104   0.000000  -0.065957  -0.009297
     4  Cl   0.000011   8.505635   8.505635   0.000000   0.066893  -0.010438
       Tot   0.000030  24.000000  24.000000   0.000000   0.000813  -0.120216

 Dip from Atomic Chgs              0.000000   0.013811  -0.361124
         Total Dipole              0.000000   0.014625  -0.481340

 Hirshfeld charges, spin densities, dipoles, and CM5 charges using IRadAn=      5:
              Q-H        S-H        Dx         Dy         Dz        Q-CM5   
     1  O   -0.184955   0.000000  -0.000000   0.000007  -0.042660  -0.231193
     2  C    0.212433   0.000000   0.000000  -0.000129  -0.057821   0.251560
     3  Cl  -0.016209   0.000000   0.000000  -0.065957  -0.009297  -0.012678
     4  Cl  -0.011269   0.000000   0.000000   0.066893  -0.010438  -0.007688
       Tot  -0.000000   0.000000   0.000000   0.000813  -0.120216  -0.000000
 Hirshfeld charges with hydrogens summed into heavy atoms:
              Q-H       Q-CM5   
     1  O   -0.184955  -0.231193
     2  C    0.212433   0.251560
     3  Cl  -0.016209  -0.012678
     4  Cl  -0.011269  -0.007688
 
 EQQ= 0.000000000000E+00 EQD= 0.000000000000E+00 EDD= 0.236176776875E-03
 EQQ+QD+DD= 0.236176776875E-03
 
 Breneman (CHELPG) radii used.
 Generate Potential Derived Charges using the Breneman model, NDens= 1.
 Grid spacing= 0.300 Box extension= 2.800
 NStep X,Y,Z=   20     30     26   Total possible points=       15600
 Number of Points to Fit=    4548

 **********************************************************************

            Electrostatic Properties Using The CC Density.

 **********************************************************************

       Atomic Center    1 is at   0.000000  0.000000  0.683397
       Atomic Center    2 is at   0.000000  0.000000 -0.494687
       Atomic Center    3 is at   0.000000 -1.456870 -1.469805
       Atomic Center    4 is at   0.000000  1.446870 -1.469805
    4548 points will be used for fitting atomic charges
 Fitting point charges to electrostatic potential
 The dipole moment will be constrained to the correct value
 Charges from ESP fit, RMS=   0.00566 RRMS=   0.50481:
 ESP charges:
               1
     1  O   -0.325323
     2  C    0.457146
     3  Cl  -0.068350
     4  Cl  -0.063473
 Sum of ESP charges =   0.00000
 ESP charges with hydrogens summed into heavy atoms:
               1
     1  O   -0.325323
     2  C    0.457146
     3  Cl  -0.068350
     4  Cl  -0.063473
 Charge=   0.00000 Dipole=     0.0000     0.0372    -1.2234 Tot=     1.2240
 -----------------------------------------------------------------

              Electrostatic Properties (Atomic Units)

 -----------------------------------------------------------------
    Center     Electric         -------- Electric Field --------
               Potential          X             Y             Z
 -----------------------------------------------------------------
    1 Atom    -22.283944
    2 Atom    -14.536082
    3 Atom    -64.375001
    4 Atom    -64.373742
 -----------------------------------------------------------------
 ******************************Gaussian NBO Version 3.1******************************
             N A T U R A L   A T O M I C   O R B I T A L   A N D
          N A T U R A L   B O N D   O R B I T A L   A N A L Y S I S
 ******************************Gaussian NBO Version 3.1******************************
       /RESON  / : Allow strongly delocalized NBO set

 Analyzing the QCI/CC density

 Job title: cl2co-wavefunction                                              

 Storage needed:    111522 in NPA (2147483536 available)
 GSVD:  LWork=        6614 too small for GESVD, short by       52797 words or       52797 for optimal perf.


 NATURAL POPULATIONS:  Natural atomic orbital occupancies 
                                                          
   NAO  Atom  No  lang   Type(AO)    Occupancy
 --------------------------------------------
     1    O    1  S      Cor( 1S)     1.99951
     2    O    1  S      Val( 2S)     1.68030
     3    O    1  S      Ryd( 3S)     0.00630
     4    O    1  S      Ryd( 4S)     0.00039
     5    O    1  S      Ryd( 5S)     0.00029
     6    O    1  px     Val( 2p)     1.35762
     7    O    1  px     Ryd( 3p)     0.00701
     8    O    1  px     Ryd( 4p)     0.00050
     9    O    1  px     Ryd( 5p)     0.00007
    10    O    1  py     Val( 2p)     1.74258
    11    O    1  py     Ryd( 3p)     0.01327
    12    O    1  py     Ryd( 4p)     0.00065
    13    O    1  py     Ryd( 5p)     0.00013
    14    O    1  pz     Val( 2p)     1.58189
    15    O    1  pz     Ryd( 3p)     0.00648
    16    O    1  pz     Ryd( 4p)     0.00051
    17    O    1  pz     Ryd( 5p)     0.00010
    18    O    1  dxy    Ryd( 3d)     0.00545
    19    O    1  dxy    Ryd( 4d)     0.00037
    20    O    1  dxy    Ryd( 5d)     0.00009
    21    O    1  dxz    Ryd( 3d)     0.01159
    22    O    1  dxz    Ryd( 4d)     0.00031
    23    O    1  dxz    Ryd( 5d)     0.00010
    24    O    1  dyz    Ryd( 3d)     0.01196
    25    O    1  dyz    Ryd( 4d)     0.00046
    26    O    1  dyz    Ryd( 5d)     0.00013
    27    O    1  dx2y2  Ryd( 3d)     0.00537
    28    O    1  dx2y2  Ryd( 4d)     0.00037
    29    O    1  dx2y2  Ryd( 5d)     0.00009
    30    O    1  dz2    Ryd( 3d)     0.02066
    31    O    1  dz2    Ryd( 4d)     0.00043
    32    O    1  dz2    Ryd( 5d)     0.00021
    33    O    1  f(0)   Ryd( 4f)     0.00132
    34    O    1  f(0)   Ryd( 5f)     0.00013
    35    O    1  f(C1)  Ryd( 4f)     0.00067
    36    O    1  f(C1)  Ryd( 5f)     0.00010
    37    O    1  f(S1)  Ryd( 4f)     0.00079
    38    O    1  f(S1)  Ryd( 5f)     0.00013
    39    O    1  f(C2)  Ryd( 4f)     0.00046
    40    O    1  f(C2)  Ryd( 5f)     0.00008
    41    O    1  f(S2)  Ryd( 4f)     0.00047
    42    O    1  f(S2)  Ryd( 5f)     0.00008
    43    O    1  f(C3)  Ryd( 4f)     0.00044
    44    O    1  f(C3)  Ryd( 5f)     0.00006
    45    O    1  f(S3)  Ryd( 4f)     0.00045
    46    O    1  f(S3)  Ryd( 5f)     0.00007

    47    C    2  S      Cor( 1S)     1.99940
    48    C    2  S      Val( 2S)     0.94737
    49    C    2  S      Ryd( 3S)     0.00959
    50    C    2  S      Ryd( 4S)     0.00017
    51    C    2  S      Ryd( 5S)     0.00010
    52    C    2  px     Val( 2p)     0.80397
    53    C    2  px     Ryd( 3p)     0.00760
    54    C    2  px     Ryd( 4p)     0.00059
    55    C    2  px     Ryd( 5p)     0.00018
    56    C    2  py     Val( 2p)     0.89964
    57    C    2  py     Ryd( 3p)     0.01077
    58    C    2  py     Ryd( 4p)     0.00067
    59    C    2  py     Ryd( 5p)     0.00038
    60    C    2  pz     Val( 2p)     0.80527
    61    C    2  pz     Ryd( 3p)     0.02819
    62    C    2  pz     Ryd( 5p)     0.00032
    63    C    2  pz     Ryd( 4p)     0.00057
    64    C    2  dxy    Ryd( 3d)     0.00869
    65    C    2  dxy    Ryd( 4d)     0.00030
    66    C    2  dxy    Ryd( 5d)     0.00014
    67    C    2  dxz    Ryd( 3d)     0.00819
    68    C    2  dxz    Ryd( 4d)     0.00069
    69    C    2  dxz    Ryd( 5d)     0.00026
    70    C    2  dyz    Ryd( 3d)     0.01136
    71    C    2  dyz    Ryd( 4d)     0.00085
    72    C    2  dyz    Ryd( 5d)     0.00023
    73    C    2  dx2y2  Ryd( 3d)     0.00611
    74    C    2  dx2y2  Ryd( 5d)     0.00024
    75    C    2  dx2y2  Ryd( 4d)     0.00027
    76    C    2  dz2    Ryd( 3d)     0.00682
    77    C    2  dz2    Ryd( 4d)     0.00046
    78    C    2  dz2    Ryd( 5d)     0.00025
    79    C    2  f(0)   Ryd( 4f)     0.00278
    80    C    2  f(0)   Ryd( 5f)     0.00036
    81    C    2  f(C1)  Ryd( 4f)     0.00180
    82    C    2  f(C1)  Ryd( 5f)     0.00041
    83    C    2  f(S1)  Ryd( 4f)     0.00307
    84    C    2  f(S1)  Ryd( 5f)     0.00056
    85    C    2  f(C2)  Ryd( 4f)     0.00181
    86    C    2  f(C2)  Ryd( 5f)     0.00023
    87    C    2  f(S2)  Ryd( 4f)     0.00172
    88    C    2  f(S2)  Ryd( 5f)     0.00026
    89    C    2  f(C3)  Ryd( 4f)     0.00144
    90    C    2  f(C3)  Ryd( 5f)     0.00021
    91    C    2  f(S3)  Ryd( 4f)     0.00149
    92    C    2  f(S3)  Ryd( 5f)     0.00018

    93   Cl    3  S      Cor( 1S)     2.00000
    94   Cl    3  S      Cor( 2S)     1.99941
    95   Cl    3  S      Val( 3S)     1.84506
    96   Cl    3  S      Ryd( 4S)     0.00532
    97   Cl    3  S      Ryd( 5S)     0.00031
    98   Cl    3  S      Ryd( 6S)     0.00021
    99   Cl    3  px     Cor( 2p)     2.00003
   100   Cl    3  px     Val( 3p)     1.85332
   101   Cl    3  px     Ryd( 4p)     0.00803
   102   Cl    3  px     Ryd( 5p)     0.00046
   103   Cl    3  px     Ryd( 6p)     0.00007
   104   Cl    3  py     Cor( 2p)     1.99995
   105   Cl    3  py     Val( 3p)     1.43132
   106   Cl    3  py     Ryd( 4p)     0.00607
   107   Cl    3  py     Ryd( 5p)     0.00050
   108   Cl    3  py     Ryd( 6p)     0.00006
   109   Cl    3  pz     Cor( 2p)     1.99999
   110   Cl    3  pz     Val( 3p)     1.71664
   111   Cl    3  pz     Ryd( 4p)     0.00721
   112   Cl    3  pz     Ryd( 5p)     0.00046
   113   Cl    3  pz     Ryd( 6p)     0.00010
   114   Cl    3  dxy    Ryd( 3d)     0.01813
   115   Cl    3  dxy    Ryd( 4d)     0.00051
   116   Cl    3  dxy    Ryd( 5d)     0.00012
   117   Cl    3  dxz    Ryd( 3d)     0.01840
   118   Cl    3  dxz    Ryd( 4d)     0.00062
   119   Cl    3  dxz    Ryd( 5d)     0.00013
   120   Cl    3  dyz    Ryd( 3d)     0.02324
   121   Cl    3  dyz    Ryd( 4d)     0.00047
   122   Cl    3  dyz    Ryd( 5d)     0.00012
   123   Cl    3  dx2y2  Ryd( 3d)     0.02009
   124   Cl    3  dx2y2  Ryd( 4d)     0.00051
   125   Cl    3  dx2y2  Ryd( 5d)     0.00012
   126   Cl    3  dz2    Ryd( 3d)     0.01718
   127   Cl    3  dz2    Ryd( 4d)     0.00052
   128   Cl    3  dz2    Ryd( 5d)     0.00017
   129   Cl    3  f(0)   Ryd( 4f)     0.00132
   130   Cl    3  f(0)   Ryd( 5f)     0.00013
   131   Cl    3  f(C1)  Ryd( 4f)     0.00133
   132   Cl    3  f(C1)  Ryd( 5f)     0.00012
   133   Cl    3  f(S1)  Ryd( 4f)     0.00128
   134   Cl    3  f(S1)  Ryd( 5f)     0.00017
   135   Cl    3  f(C2)  Ryd( 4f)     0.00156
   136   Cl    3  f(C2)  Ryd( 5f)     0.00013
   137   Cl    3  f(S2)  Ryd( 4f)     0.00132
   138   Cl    3  f(S2)  Ryd( 5f)     0.00014
   139   Cl    3  f(C3)  Ryd( 4f)     0.00130
   140   Cl    3  f(C3)  Ryd( 5f)     0.00013
   141   Cl    3  f(S3)  Ryd( 4f)     0.00134
   142   Cl    3  f(S3)  Ryd( 5f)     0.00013

   143   Cl    4  S      Cor( 1S)     2.00000
   144   Cl    4  S      Cor( 2S)     1.99939
   145   Cl    4  S      Val( 3S)     1.84238
   146   Cl    4  S      Ryd( 4S)     0.00534
   147   Cl    4  S      Ryd( 5S)     0.00031
   148   Cl    4  S      Ryd( 6S)     0.00021
   149   Cl    4  px     Cor( 2p)     2.00003
   150   Cl    4  px     Val( 3p)     1.85102
   151   Cl    4  px     Ryd( 4p)     0.00799
   152   Cl    4  px     Ryd( 5p)     0.00046
   153   Cl    4  px     Ryd( 6p)     0.00007
   154   Cl    4  py     Cor( 2p)     1.99994
   155   Cl    4  py     Val( 3p)     1.43186
   156   Cl    4  py     Ryd( 4p)     0.00607
   157   Cl    4  py     Ryd( 5p)     0.00050
   158   Cl    4  py     Ryd( 6p)     0.00006
   159   Cl    4  pz     Cor( 2p)     1.99999
   160   Cl    4  pz     Val( 3p)     1.71408
   161   Cl    4  pz     Ryd( 4p)     0.00718
   162   Cl    4  pz     Ryd( 5p)     0.00046
   163   Cl    4  pz     Ryd( 6p)     0.00010
   164   Cl    4  dxy    Ryd( 3d)     0.01815
   165   Cl    4  dxy    Ryd( 4d)     0.00051
   166   Cl    4  dxy    Ryd( 5d)     0.00012
   167   Cl    4  dxz    Ryd( 3d)     0.01840
   168   Cl    4  dxz    Ryd( 4d)     0.00061
   169   Cl    4  dxz    Ryd( 5d)     0.00013
   170   Cl    4  dyz    Ryd( 3d)     0.02339
   171   Cl    4  dyz    Ryd( 4d)     0.00047
   172   Cl    4  dyz    Ryd( 5d)     0.00012
   173   Cl    4  dx2y2  Ryd( 3d)     0.02011
   174   Cl    4  dx2y2  Ryd( 4d)     0.00051
   175   Cl    4  dx2y2  Ryd( 5d)     0.00012
   176   Cl    4  dz2    Ryd( 3d)     0.01717
   177   Cl    4  dz2    Ryd( 4d)     0.00052
   178   Cl    4  dz2    Ryd( 5d)     0.00017
   179   Cl    4  f(0)   Ryd( 4f)     0.00132
   180   Cl    4  f(0)   Ryd( 5f)     0.00013
   181   Cl    4  f(C1)  Ryd( 4f)     0.00132
   182   Cl    4  f(C1)  Ryd( 5f)     0.00012
   183   Cl    4  f(S1)  Ryd( 4f)     0.00129
   184   Cl    4  f(S1)  Ryd( 5f)     0.00017
   185   Cl    4  f(C2)  Ryd( 4f)     0.00157
   186   Cl    4  f(C2)  Ryd( 5f)     0.00013
   187   Cl    4  f(S2)  Ryd( 4f)     0.00132
   188   Cl    4  f(S2)  Ryd( 5f)     0.00014
   189   Cl    4  f(C3)  Ryd( 4f)     0.00130
   190   Cl    4  f(C3)  Ryd( 5f)     0.00013
   191   Cl    4  f(S3)  Ryd( 4f)     0.00134
   192   Cl    4  f(S3)  Ryd( 5f)     0.00013


 Summary of Natural Population Analysis:                  
                                                          
                                       Natural Population 
                Natural  -----------------------------------------------
    Atom  No    Charge         Core      Valence    Rydberg      Total
 -----------------------------------------------------------------------
      O    1   -0.46047      1.99951     6.36239    0.09857     8.46047
      C    2    0.42403      1.99940     3.45625    0.12032     5.57597
     Cl    3    0.01479      9.99937     6.84632    0.13952    16.98521
     Cl    4    0.02165      9.99935     6.83934    0.13966    16.97835
 =======================================================================
   * Total *   -0.00000     23.99763    23.50430    0.49807    48.00000

                                 Natural Population      
 --------------------------------------------------------
   Core                      23.99763 ( 99.9901% of  24)
   Valence                   23.50430 ( 97.9346% of  24)
   Natural Minimal Basis     47.50193 ( 98.9624% of  48)
   Natural Rydberg Basis      0.49807 (  1.0376% of  48)
 --------------------------------------------------------

    Atom  No          Natural Electron Configuration
 ----------------------------------------------------------------------------
      O    1      [core]2S( 1.68)2p( 4.68)3S( 0.01)3p( 0.03)3d( 0.06)
      C    2      [core]2S( 0.95)2p( 2.51)3S( 0.01)3p( 0.05)3d( 0.04)4f( 0.01)
     Cl    3      [core]3S( 1.85)3p( 5.00)4S( 0.01)3d( 0.10)4p( 0.02)4f( 0.01)
     Cl    4      [core]3S( 1.84)3p( 5.00)4S( 0.01)3d( 0.10)4p( 0.02)4f( 0.01)


 NBO analysis skipped by request.
 Unable to Open any file for archive entry.
 1\1\GINC-TRAPISTA\SP\RQCISD-FC\Aug-CC-pVTZ\C1Cl2O1\WAGNER\04-Sep-2022\
 0\\# qcisd/aug-cc-pvtz nosymm density=current pop=(chelpg,hirshfeld,np
 a,dipole)\\cl2co-wavefunction\\0,1\O,0,0.,0.,0.683397\C,0,0.,0.,-0.494
 687\Cl,0,0.,-1.45687,-1.469805\Cl,0,0.,1.44687,-1.469805\\Version=EM64
 L-G16RevC.01\HF=-1031.8026124\MP2=-1032.5820992\MP3=-1032.6011565\MP4D
 =-1032.6208604\MP4DQ=-1032.5983081\MP4SDQ=-1032.6073187\QCISD=-1032.60
 55813\RMSD=6.806e-09\Dipole=0.,0.0146246,-0.4813413\Quadrupole=0.12349
 4,0.6534369,-0.7769309,0.,0.,-0.0424475\PG=CS [SG(C1Cl2O1)]\\@
 The archive entry for this job was punched.


 A leading authority is anyone who has guessed right more than once.
 -- Frank A. Clark
 Job cpu time:       0 days  7 hours 13 minutes  0.6 seconds.
 Elapsed time:       0 days  0 hours 27 minutes 27.8 seconds.
 File lengths (MBytes):  RWF=  22679 Int=      0 D2E=      0 Chk=      4 Scr=      1
 Normal termination of Gaussian 16 at Sun Sep  4 02:45:05 2022.
