 Entering Gaussian System, Link 0=/home/wagner/chemistry/gaussian/g16/g16
 Input=GAUSSIAN.com
 Output=GAUSSIAN.log
 Initial command:
 /home/wagner/chemistry/gaussian/g16/l1.exe "/home/wagner/chemistry/gaussian/work/Gau-30317.inp" -scrdir="/home/wagner/chemistry/gaussian/work/"
 Entering Link 1 = /home/wagner/chemistry/gaussian/g16/l1.exe PID=     30319.
  
 Copyright (c) 1988-2019, Gaussian, Inc.  All Rights Reserved.
  
 This is part of the Gaussian(R) 16 program.  It is based on
 the Gaussian(R) 09 system (copyright 2009, Gaussian, Inc.),
 the Gaussian(R) 03 system (copyright 2003, Gaussian, Inc.),
 the Gaussian(R) 98 system (copyright 1998, Gaussian, Inc.),
 the Gaussian(R) 94 system (copyright 1995, Gaussian, Inc.),
 the Gaussian 92(TM) system (copyright 1992, Gaussian, Inc.),
 the Gaussian 90(TM) system (copyright 1990, Gaussian, Inc.),
 the Gaussian 88(TM) system (copyright 1988, Gaussian, Inc.),
 the Gaussian 86(TM) system (copyright 1986, Carnegie Mellon
 University), and the Gaussian 82(TM) system (copyright 1983,
 Carnegie Mellon University). Gaussian is a federally registered
 trademark of Gaussian, Inc.
  
 This software contains proprietary and confidential information,
 including trade secrets, belonging to Gaussian, Inc.
  
 This software is provided under written license and may be
 used, copied, transmitted, or stored only in accord with that
 written license.
  
 The following legend is applicable only to US Government
 contracts under FAR:
  
                    RESTRICTED RIGHTS LEGEND
  
 Use, reproduction and disclosure by the US Government is
 subject to restrictions as set forth in subparagraphs (a)
 and (c) of the Commercial Computer Software - Restricted
 Rights clause in FAR 52.227-19.
  
 Gaussian, Inc.
 340 Quinnipiac St., Bldg. 40, Wallingford CT 06492
  
  
 ---------------------------------------------------------------
 Warning -- This program may not be used in any manner that
 competes with the business of Gaussian, Inc. or will provide
 assistance to any competitor of Gaussian, Inc.  The licensee
 of this program is prohibited from giving any competitor of
 Gaussian, Inc. access to this program.  By using this program,
 the user acknowledges that Gaussian, Inc. is engaged in the
 business of creating and licensing software in the field of
 computational chemistry and represents and warrants to the
 licensee that it is not a competitor of Gaussian, Inc. and that
 it will not use this program in any manner prohibited above.
 ---------------------------------------------------------------
  

 Cite this work as:
 Gaussian 16, Revision C.01,
 M. J. Frisch, G. W. Trucks, H. B. Schlegel, G. E. Scuseria, 
 M. A. Robb, J. R. Cheeseman, G. Scalmani, V. Barone, 
 G. A. Petersson, H. Nakatsuji, X. Li, M. Caricato, A. V. Marenich, 
 J. Bloino, B. G. Janesko, R. Gomperts, B. Mennucci, H. P. Hratchian, 
 J. V. Ortiz, A. F. Izmaylov, J. L. Sonnenberg, D. Williams-Young, 
 F. Ding, F. Lipparini, F. Egidi, J. Goings, B. Peng, A. Petrone, 
 T. Henderson, D. Ranasinghe, V. G. Zakrzewski, J. Gao, N. Rega, 
 G. Zheng, W. Liang, M. Hada, M. Ehara, K. Toyota, R. Fukuda, 
 J. Hasegawa, M. Ishida, T. Nakajima, Y. Honda, O. Kitao, H. Nakai, 
 T. Vreven, K. Throssell, J. A. Montgomery, Jr., J. E. Peralta, 
 F. Ogliaro, M. J. Bearpark, J. J. Heyd, E. N. Brothers, K. N. Kudin, 
 V. N. Staroverov, T. A. Keith, R. Kobayashi, J. Normand, 
 K. Raghavachari, A. P. Rendell, J. C. Burant, S. S. Iyengar, 
 J. Tomasi, M. Cossi, J. M. Millam, M. Klene, C. Adamo, R. Cammi, 
 J. W. Ochterski, R. L. Martin, K. Morokuma, O. Farkas, 
 J. B. Foresman, and D. J. Fox, Gaussian, Inc., Wallingford CT, 2019.
 
 ******************************************
 Gaussian 16:  EM64L-G16RevC.01  3-Jul-2019
                 3-Sep-2022 
 ******************************************
 %nproc=16
 Will use up to   16 processors via shared memory.
 %mem=16GB
 ----------------------------------------------------------------------
 # qcisd/aug-cc-pvtz nosymm density=current pop=(chelpg,hirshfeld,npa,d
 ipole)
 ----------------------------------------------------------------------
 1/30=1,38=1,172=1/1;
 2/12=2,15=1,17=6,18=5,40=1/2;
 3/5=16,6=1,7=10,11=9,25=1,30=1,71=1/1,2,3;
 4//1;
 5/5=2,38=5/2;
 8/6=4,9=120000,10=1/1,4;
 9/5=8,15=1/13;
 11/28=-7,31=1,32=3,42=3/11;
 10/5=6,13=10,31=1/2;
 6/7=2,8=2,9=2,10=2,15=24,20=3,22=-1,40=-1,79=1/1,2,7;
 99/5=1,9=1/99;
 ------------------
 cl2co-wavefunction
 ------------------
 Symbolic Z-matrix:
 Charge =  0 Multiplicity = 1
 O                     0.        0.        0.6834 
 C                    -0.01      0.       -0.49469 
 Cl                    0.       -1.44687  -1.46981 
 Cl                    0.        1.44687  -1.46981 
 
                          Input orientation:                          
 ---------------------------------------------------------------------
 Center     Atomic      Atomic             Coordinates (Angstroms)
 Number     Number       Type             X           Y           Z
 ---------------------------------------------------------------------
      1          8           0        0.000000    0.000000    0.683397
      2          6           0       -0.010000    0.000000   -0.494687
      3         17           0        0.000000   -1.446870   -1.469805
      4         17           0        0.000000    1.446870   -1.469805
 ---------------------------------------------------------------------
                    Distance matrix (angstroms):
                    1          2          3          4
     1  O    0.000000
     2  C    1.178126   0.000000
     3  Cl   2.594169   1.744817   0.000000
     4  Cl   2.594169   1.744817   2.893740   0.000000
 Symmetry turned off by external request.
 Stoichiometry    CCl2O
 Framework group  CS[SG(CO),X(Cl2)]
 Deg. of freedom     4
 Full point group                 CS      NOp   2
 Rotational constants (GHZ):           7.9178030           3.4517858           2.4038529
 Standard basis: Aug-CC-pVTZ (5D, 7F)
   192 basis functions,   372 primitive gaussians,   228 cartesian basis functions
    24 alpha electrons       24 beta electrons
       nuclear repulsion energy       191.7640991877 Hartrees.
 NAtoms=    4 NActive=    4 NUniq=    4 SFac= 1.00D+00 NAtFMM=   60 NAOKFM=F Big=F
 Integral buffers will be    131072 words long.
 Raffenetti 1 integral format.
 Two-electron integral symmetry is turned off.
 One-electron integrals computed using PRISM.
 NBasis=   192 RedAO= T EigKep=  1.43D-04  NBF=   192
 NBsUse=   192 1.00D-06 EigRej= -1.00D+00 NBFU=   192
 ExpMin= 3.57D-02 ExpMax= 4.56D+05 ExpMxC= 1.44D+03 IAcc=3 IRadAn=         5 AccDes= 0.00D+00
 Harris functional with IExCor=  205 and IRadAn=       5 diagonalized for initial guess.
 HarFok:  IExCor=  205 AccDes= 0.00D+00 IRadAn=         5 IDoV= 1 UseB2=F ITyADJ=14
 ICtDFT=  3500011 ScaDFX=  1.000000  1.000000  1.000000  1.000000
 FoFCou: FMM=F IPFlag=           0 FMFlag=      100000 FMFlg1=           0
         NFxFlg=           0 DoJE=T BraDBF=F KetDBF=T FulRan=T
         wScrn=  0.000000 ICntrl=       500 IOpCl=  0 I1Cent=   200000004 NGrid=           0
         NMat0=    1 NMatS0=      1 NMatT0=    0 NMatD0=    1 NMtDS0=    0 NMtDT0=    0
 Symmetry not used in FoFCou.
 Keep R1 ints in memory in canonical form, NReq=179712264.
 Requested convergence on RMS density matrix=1.00D-08 within 128 cycles.
 Requested convergence on MAX density matrix=1.00D-06.
 Requested convergence on             energy=1.00D-06.
 No special actions if energy rises.
 SCF Done:  E(RHF) =  -1031.80271120     A.U. after   12 cycles
            NFock= 12  Conv=0.66D-08     -V/T= 2.0003
 ExpMin= 3.57D-02 ExpMax= 4.56D+05 ExpMxC= 1.44D+03 IAcc=3 IRadAn=         5 AccDes= 0.00D+00
 HarFok:  IExCor=  205 AccDes= 0.00D+00 IRadAn=         5 IDoV=-2 UseB2=F ITyADJ=14
 ICtDFT= 12500011 ScaDFX=  1.000000  1.000000  1.000000  1.000000
 Range of M.O.s used for correlation:    13   192
 NBasis=   192 NAE=    24 NBE=    24 NFC=    12 NFV=     0
 NROrb=    180 NOA=    12 NOB=    12 NVA=   168 NVB=   168

 **** Warning!!: The largest alpha MO coefficient is  0.28702537D+02

 Semi-Direct transformation.
 ModeAB=           2 MOrb=            12 LenV=    2146443369
 LASXX=     33405819 LTotXX=    33405819 LenRXX=    33405819
 LTotAB=    33954012 MaxLAS=    56388960 LenRXY=    56388960
 NonZer=    66811638 LenScr=   100987392 LnRSAI=           0
 LnScr1=           0 LExtra=           0 Total=    190782171
 MaxDsk=          -1 SrtSym=           F ITran=            4
 JobTyp=0 Pass  1:  I=   1 to  12.
 (rs|ai) integrals will be sorted in core.
 Spin components of T(2) and E(2):
     alpha-alpha T2 =       0.3523712115D-01 E2=     -0.1018057000D+00
     alpha-beta  T2 =       0.1834214650D+00 E2=     -0.5758067632D+00
     beta-beta   T2 =       0.3523712115D-01 E2=     -0.1018057000D+00
 ANorm=    0.1119774847D+01
 E2 =    -0.7794181632D+00 EUMP2 =    -0.10325821293604D+04
 Keep R2 and R3 ints in memory in canonical form, NReq=351373742.
 CIDS: In Core Option IDoMem=           1.
 Iterations=  50 Convergence= 0.100D-07
 Produce multiple copies of IABC intergrals
 Iteration Nr.   1
 **********************
 DD1Dir will call FoFMem   1 times, MxPair=       156
 NAB=    78 NAA=     0 NBB=     0.
 MP4(R+Q)=  0.22521517D-01
 E3=       -0.19052113D-01        EUMP3=      -0.10326011815D+04
 E4(DQ)=    0.28535616D-02        UMP4(DQ)=   -0.10325983279D+04
 E4(SDQ)=  -0.61294540D-02        UMP4(SDQ)=  -0.10326073109D+04
 DE(Corr)= -0.77594876     E(Corr)=     -1032.5786600    
 NORM(A)=   0.11213568D+01
 Iteration Nr.   2
 **********************
 DD1Dir will call FoFMem   1 times, MxPair=       156
 NAB=    78 NAA=     0 NBB=     0.
 DE(Corr)= -0.80166442     E(CORR)=     -1032.6043756     Delta=-2.57D-02
 NORM(A)=   0.11307185D+01
 Iteration Nr.   3
 **********************
 DD1Dir will call FoFMem   1 times, MxPair=       156
 NAB=    78 NAA=     0 NBB=     0.
 DE(Corr)= -0.80005991     E(CORR)=     -1032.6027711     Delta= 1.60D-03
 NORM(A)=   0.11333230D+01
 Iteration Nr.   4
 **********************
 DD1Dir will call FoFMem   1 times, MxPair=       156
 NAB=    78 NAA=     0 NBB=     0.
 DE(Corr)= -0.80249020     E(CORR)=     -1032.6052014     Delta=-2.43D-03
 NORM(A)=   0.11343347D+01
 Iteration Nr.   5
 **********************
 DD1Dir will call FoFMem   1 times, MxPair=       156
 NAB=    78 NAA=     0 NBB=     0.
 DE(Corr)= -0.80280759     E(CORR)=     -1032.6055188     Delta=-3.17D-04
 NORM(A)=   0.11347253D+01
 Iteration Nr.   6
 **********************
 DD1Dir will call FoFMem   1 times, MxPair=       156
 NAB=    78 NAA=     0 NBB=     0.
 DE(Corr)= -0.80285827     E(CORR)=     -1032.6055695     Delta=-5.07D-05
 NORM(A)=   0.11347965D+01
 Iteration Nr.   7
 **********************
 DD1Dir will call FoFMem   1 times, MxPair=       156
 NAB=    78 NAA=     0 NBB=     0.
 DE(Corr)= -0.80286742     E(CORR)=     -1032.6055786     Delta=-9.15D-06
 NORM(A)=   0.11347977D+01
 Iteration Nr.   8
 **********************
 DD1Dir will call FoFMem   1 times, MxPair=       156
 NAB=    78 NAA=     0 NBB=     0.
 DE(Corr)= -0.80286700     E(CORR)=     -1032.6055782     Delta= 4.14D-07
 NORM(A)=   0.11348058D+01
 Iteration Nr.   9
 **********************
 DD1Dir will call FoFMem   1 times, MxPair=       156
 NAB=    78 NAA=     0 NBB=     0.
 DE(Corr)= -0.80286574     E(CORR)=     -1032.6055769     Delta= 1.27D-06
 NORM(A)=   0.11348053D+01
 Iteration Nr.  10
 **********************
 DD1Dir will call FoFMem   1 times, MxPair=       156
 NAB=    78 NAA=     0 NBB=     0.
 DE(Corr)= -0.80286693     E(CORR)=     -1032.6055781     Delta=-1.19D-06
 NORM(A)=   0.11348070D+01
 Iteration Nr.  11
 **********************
 DD1Dir will call FoFMem   1 times, MxPair=       156
 NAB=    78 NAA=     0 NBB=     0.
 DE(Corr)= -0.80286775     E(CORR)=     -1032.6055789     Delta=-8.18D-07
 NORM(A)=   0.11348081D+01
 Iteration Nr.  12
 **********************
 DD1Dir will call FoFMem   1 times, MxPair=       156
 NAB=    78 NAA=     0 NBB=     0.
 DE(Corr)= -0.80286800     E(CORR)=     -1032.6055792     Delta=-2.48D-07
 NORM(A)=   0.11348088D+01
 Iteration Nr.  13
 **********************
 DD1Dir will call FoFMem   1 times, MxPair=       156
 NAB=    78 NAA=     0 NBB=     0.
 DE(Corr)= -0.80286832     E(CORR)=     -1032.6055795     Delta=-3.25D-07
 NORM(A)=   0.11348092D+01
 Iteration Nr.  14
 **********************
 DD1Dir will call FoFMem   1 times, MxPair=       156
 NAB=    78 NAA=     0 NBB=     0.
 DE(Corr)= -0.80286839     E(CORR)=     -1032.6055796     Delta=-6.49D-08
 NORM(A)=   0.11348094D+01
 Iteration Nr.  15
 **********************
 DD1Dir will call FoFMem   1 times, MxPair=       156
 NAB=    78 NAA=     0 NBB=     0.
 DE(Corr)= -0.80286844     E(CORR)=     -1032.6055796     Delta=-4.78D-08
 NORM(A)=   0.11348095D+01
 Iteration Nr.  16
 **********************
 DD1Dir will call FoFMem   1 times, MxPair=       156
 NAB=    78 NAA=     0 NBB=     0.
 DE(Corr)= -0.80286845     E(CORR)=     -1032.6055796     Delta=-1.60D-08
 NORM(A)=   0.11348095D+01
 Iteration Nr.  17
 **********************
 DD1Dir will call FoFMem   1 times, MxPair=       156
 NAB=    78 NAA=     0 NBB=     0.
 DE(Corr)= -0.80286845     E(CORR)=     -1032.6055796     Delta= 1.27D-09
 NORM(A)=   0.11348095D+01
 Wavefunction amplitudes converged. E(Corr)=     -1032.6055796    
 Largest amplitude= 3.27D-02

 Z-amplitude iterations

 Iteration Nr.   1
 **********************
 DD1Dir will call FoFMem   1 times, MxPair=       156
 NAB=    78 NAA=     0 NBB=     0.
 DE(Z)= -0.77483050     E(Z)=     -1032.5775417     Delta= 2.80D-02
 NORM(A)=   0.11348337D+01
 Iteration Nr.   2
 **********************
 DD1Dir will call FoFMem   1 times, MxPair=       156
 NAB=    78 NAA=     0 NBB=     0.
 DE(Z)= -0.77483129     E(Z)=     -1032.5775425     Delta=-7.97D-07
 NORM(A)=   0.11348334D+01
 Iteration Nr.   3
 **********************
 DD1Dir will call FoFMem   1 times, MxPair=       156
 NAB=    78 NAA=     0 NBB=     0.
 DE(Z)= -0.77483121     E(Z)=     -1032.5775424     Delta= 8.34D-08
 NORM(A)=   0.11348935D+01
 Iteration Nr.   4
 **********************
 DD1Dir will call FoFMem   1 times, MxPair=       156
 NAB=    78 NAA=     0 NBB=     0.
 DE(Z)= -0.77483314     E(Z)=     -1032.5775443     Delta=-1.93D-06
 NORM(A)=   0.11349235D+01
 Iteration Nr.   5
 **********************
 DD1Dir will call FoFMem   1 times, MxPair=       156
 NAB=    78 NAA=     0 NBB=     0.
 DE(Z)= -0.77483419     E(Z)=     -1032.5775454     Delta=-1.05D-06
 NORM(A)=   0.11251402D+01
 Iteration Nr.   6
 **********************
 DD1Dir will call FoFMem   1 times, MxPair=       156
 NAB=    78 NAA=     0 NBB=     0.
 DE(Z)= -0.77451279     E(Z)=     -1032.5772240     Delta= 3.21D-04
 NORM(A)=   0.11251411D+01
 Iteration Nr.   7
 **********************
 DD1Dir will call FoFMem   1 times, MxPair=       156
 NAB=    78 NAA=     0 NBB=     0.
 DE(Z)= -0.77451266     E(Z)=     -1032.5772239     Delta= 1.31D-07
 NORM(A)=   0.11251418D+01
 Iteration Nr.   8
 **********************
 DD1Dir will call FoFMem   1 times, MxPair=       156
 NAB=    78 NAA=     0 NBB=     0.
 DE(Z)= -0.77451238     E(Z)=     -1032.5772236     Delta= 2.84D-07
 NORM(A)=   0.11251419D+01
 Iteration Nr.   9
 **********************
 DD1Dir will call FoFMem   1 times, MxPair=       156
 NAB=    78 NAA=     0 NBB=     0.
 DE(Z)= -0.77451267     E(Z)=     -1032.5772239     Delta=-2.93D-07
 NORM(A)=   0.11251421D+01
 Iteration Nr.  10
 **********************
 DD1Dir will call FoFMem   1 times, MxPair=       156
 NAB=    78 NAA=     0 NBB=     0.
 DE(Z)= -0.77451249     E(Z)=     -1032.5772237     Delta= 1.83D-07
 NORM(A)=   0.11251422D+01
 Iteration Nr.  11
 **********************
 DD1Dir will call FoFMem   1 times, MxPair=       156
 NAB=    78 NAA=     0 NBB=     0.
 DE(Z)= -0.77451259     E(Z)=     -1032.5772238     Delta=-1.00D-07
 NORM(A)=   0.11251423D+01
 Iteration Nr.  12
 **********************
 DD1Dir will call FoFMem   1 times, MxPair=       156
 NAB=    78 NAA=     0 NBB=     0.
 DE(Z)= -0.77451258     E(Z)=     -1032.5772238     Delta= 9.86D-09
 NORM(A)=   0.11251423D+01
 Z-amplitudes converged.
 Discarding MO integrals.
          Differentiating once with respect to electric field.
                with respect to dipole field.
          Electric field/nuclear overlap derivatives assumed to be zero.
 Keep R1 ints in memory in canonical form, NReq=179717427.
          There are     1 degrees of freedom in the 1st order CPHF.  IDoFFX=0 NUNeed=     1.
 LinEq1:  Iter=  0 NonCon=     1 RMS=2.34D-03 Max=5.55D-02 NDo=     1
 AX will form     1 AO Fock derivatives at one time.
 LinEq1:  Iter=  1 NonCon=     1 RMS=8.30D-04 Max=1.86D-02 NDo=     1
 LinEq1:  Iter=  2 NonCon=     1 RMS=3.10D-04 Max=5.59D-03 NDo=     1
 LinEq1:  Iter=  3 NonCon=     1 RMS=1.28D-04 Max=3.27D-03 NDo=     1
 LinEq1:  Iter=  4 NonCon=     1 RMS=5.11D-05 Max=1.23D-03 NDo=     1
 LinEq1:  Iter=  5 NonCon=     1 RMS=1.65D-05 Max=3.60D-04 NDo=     1
 LinEq1:  Iter=  6 NonCon=     1 RMS=4.17D-06 Max=5.75D-05 NDo=     1
 LinEq1:  Iter=  7 NonCon=     1 RMS=9.92D-07 Max=1.16D-05 NDo=     1
 LinEq1:  Iter=  8 NonCon=     1 RMS=2.10D-07 Max=3.13D-06 NDo=     1
 LinEq1:  Iter=  9 NonCon=     1 RMS=4.75D-08 Max=8.00D-07 NDo=     1
 LinEq1:  Iter= 10 NonCon=     1 RMS=1.20D-08 Max=2.23D-07 NDo=     1
 LinEq1:  Iter= 11 NonCon=     1 RMS=2.52D-09 Max=3.82D-08 NDo=     1
 LinEq1:  Iter= 12 NonCon=     1 RMS=4.63D-10 Max=1.16D-08 NDo=     1
 LinEq1:  Iter= 13 NonCon=     1 RMS=7.96D-11 Max=1.21D-09 NDo=     1
 LinEq1:  Iter= 14 NonCon=     0 RMS=1.39D-11 Max=1.49D-10 NDo=     1
 Linear equations converged to 1.000D-10 1.000D-09 after    14 iterations.
 End of Minotr F.D. properties file   721 does not exist.
 End of Minotr F.D. properties file   722 does not exist.
 End of Minotr F.D. properties file   788 does not exist.

 **********************************************************************

            Population analysis using the CC Density.

 **********************************************************************

 Alpha  occ. eigenvalues -- -104.89034-104.89033 -20.62385 -11.47630 -10.61474
 Alpha  occ. eigenvalues --  -10.61473  -8.08151  -8.08151  -8.07940  -8.07939
 Alpha  occ. eigenvalues --   -8.07922  -8.07922  -1.48585  -1.20279  -1.14052
 Alpha  occ. eigenvalues --   -0.81223  -0.70797  -0.70167  -0.64879  -0.53115
 Alpha  occ. eigenvalues --   -0.50174  -0.49903  -0.49522  -0.47705
 Alpha virt. eigenvalues --    0.04776   0.06608   0.07970   0.08604   0.09315
 Alpha virt. eigenvalues --    0.09845   0.11377   0.12504   0.12770   0.13445
 Alpha virt. eigenvalues --    0.15706   0.15883   0.22043   0.22150   0.23638
 Alpha virt. eigenvalues --    0.23907   0.25341   0.26286   0.27970   0.30448
 Alpha virt. eigenvalues --    0.30992   0.31678   0.36354   0.39568   0.43819
 Alpha virt. eigenvalues --    0.44185   0.44237   0.45723   0.47056   0.48401
 Alpha virt. eigenvalues --    0.50785   0.51332   0.52028   0.52357   0.54892
 Alpha virt. eigenvalues --    0.62240   0.64193   0.69234   0.69761   0.71320
 Alpha virt. eigenvalues --    0.71581   0.73607   0.75847   0.79502   0.81343
 Alpha virt. eigenvalues --    0.81598   0.83256   0.83435   0.87014   0.88586
 Alpha virt. eigenvalues --    0.89181   0.91503   0.93370   0.93778   0.94582
 Alpha virt. eigenvalues --    0.96136   0.96661   1.04968   1.06028   1.08832
 Alpha virt. eigenvalues --    1.09715   1.12911   1.14909   1.16006   1.17264
 Alpha virt. eigenvalues --    1.21204   1.23074   1.24243   1.26614   1.33610
 Alpha virt. eigenvalues --    1.36868   1.39750   1.42498   1.46404   1.46736
 Alpha virt. eigenvalues --    1.47056   1.47461   1.56253   1.58064   1.61944
 Alpha virt. eigenvalues --    1.67682   1.67962   1.69460   1.72876   1.80560
 Alpha virt. eigenvalues --    1.81216   1.82769   1.83214   1.85409   2.00852
 Alpha virt. eigenvalues --    2.07232   2.25992   2.28703   2.33592   2.34082
 Alpha virt. eigenvalues --    2.39501   2.44567   2.45216   2.49020   2.49378
 Alpha virt. eigenvalues --    2.52312   2.54234   2.57950   2.59040   2.60452
 Alpha virt. eigenvalues --    2.62187   2.63566   2.66290   2.70412   2.77065
 Alpha virt. eigenvalues --    2.77130   2.81463   2.88536   2.88943   2.91386
 Alpha virt. eigenvalues --    2.92380   2.94572   2.97525   2.99191   3.02338
 Alpha virt. eigenvalues --    3.02623   3.05313   3.06446   3.07212   3.07531
 Alpha virt. eigenvalues --    3.10595   3.13219   3.16265   3.20149   3.21660
 Alpha virt. eigenvalues --    3.25050   3.26581   3.51919   3.53007   3.60368
 Alpha virt. eigenvalues --    3.62899   3.64133   3.70215   3.82184   3.84516
 Alpha virt. eigenvalues --    3.95072   3.96209   4.03105   4.15471   4.19421
 Alpha virt. eigenvalues --    4.43884   4.50772   4.63109   4.75962   5.12347
 Alpha virt. eigenvalues --    5.46193   5.62116   6.56393   6.57761   6.86272
 Alpha virt. eigenvalues --    6.86899   7.04928   7.10228   7.18313   7.18525
 Alpha virt. eigenvalues --    7.20032   7.28403   7.50586   7.51962   7.66671
 Alpha virt. eigenvalues --    7.72773  13.31689  15.69493
          Condensed to atoms (all electrons):
               1          2          3          4
     1  O    8.034181   0.435540  -0.074439  -0.074439
     2  C    0.435540   4.966597   0.136369   0.136369
     3  Cl  -0.074439   0.136369  17.040641  -0.100430
     4  Cl  -0.074439   0.136369  -0.100430  17.040641
 Mulliken charges:
               1
     1  O   -0.320844
     2  C    0.325125
     3  Cl  -0.002141
     4  Cl  -0.002141
 Sum of Mulliken charges =  -0.00000
 Mulliken charges with hydrogens summed into heavy atoms:
               1
     1  O   -0.320844
     2  C    0.325125
     3  Cl  -0.002141
     4  Cl  -0.002141
 Electronic spatial extent (au):  <R**2>=            613.6887
 Charge=             -0.0000 electrons
 Dipole moment (field-independent basis, Debye):
    X=             -0.0103    Y=              0.0000    Z=             -1.2392  Tot=              1.2392
 Quadrupole moment (field-independent basis, Debye-Ang):
   XX=            -35.0846   YY=            -34.3840   ZZ=            -36.2853
   XY=              0.0000   XZ=             -0.0142   YZ=             -0.0000
 Traceless Quadrupole moment (field-independent basis, Debye-Ang):
   XX=              0.1667   YY=              0.8673   ZZ=             -1.0340
   XY=              0.0000   XZ=             -0.0142   YZ=             -0.0000
 Octapole moment (field-independent basis, Debye-Ang**2):
  XXX=              0.1519  YYY=              0.0000  ZZZ=            106.2014  XYY=              0.1296
  XXY=              0.0000  XXZ=             36.0664  XZZ=              0.1134  YZZ=              0.0000
  YYZ=             29.7050  XYZ=             -0.0000
 Hexadecapole moment (field-independent basis, Debye-Ang**3):
 XXXX=            -37.1340 YYYY=           -329.2973 ZZZZ=           -383.1020 XXXY=              0.0000
 XXXZ=             -0.0963 YYYX=              0.0000 YYYZ=             -0.0000 ZZZX=             -0.2263
 ZZZY=              0.0000 XXYY=            -65.2568 XXZZ=            -71.0861 YYZZ=           -106.8895
 XXYZ=              0.0000 YYXZ=             -0.1836 ZZXY=              0.0000
 N-N= 1.917640991877D+02 E-N=-2.837757396525D+03  KE= 1.032421848902D+03
 There are a total of       90730 grid points.
 ElSum from          density=       48.0000001579
 ElSum from atomic densities=       48.0000007000

 Hirshfeld populations at iteration   1 (CX, CA, CB, DipXYZ):
               1          2          3          4          5          6
     1  O    0.000007   4.092967   4.092967   0.000757  -0.000000  -0.043426
     2  C    0.000001   2.894206   2.894206  -0.004958  -0.000000  -0.057474
     3  Cl   0.000011   8.506414   8.506414   0.002076  -0.065655  -0.009987
     4  Cl   0.000011   8.506414   8.506414   0.002076   0.065655  -0.009987
       Tot   0.000030  24.000000  24.000000  -0.000049   0.000000  -0.120874

 Dip from Atomic Chgs             -0.003998   0.000000  -0.366663
         Total Dipole             -0.004047   0.000000  -0.487537

 Hirshfeld charges, spin densities, dipoles, and CM5 charges using IRadAn=      5:
              Q-H        S-H        Dx         Dy         Dz        Q-CM5   
     1  O   -0.185933   0.000000   0.000757  -0.000000  -0.043426  -0.232214
     2  C    0.211587   0.000000  -0.004958  -0.000000  -0.057474   0.250706
     3  Cl  -0.012827   0.000000   0.002076  -0.065655  -0.009987  -0.009246
     4  Cl  -0.012827   0.000000   0.002076   0.065655  -0.009987  -0.009246
       Tot  -0.000000   0.000000  -0.000049   0.000000  -0.120874  -0.000000
 Hirshfeld charges with hydrogens summed into heavy atoms:
              Q-H       Q-CM5   
     1  O   -0.185933  -0.232214
     2  C    0.211587   0.250706
     3  Cl  -0.012827  -0.009246
     4  Cl  -0.012827  -0.009246
 
 EQQ= 0.000000000000E+00 EQD= 0.000000000000E+00 EDD= 0.238953060515E-03
 EQQ+QD+DD= 0.238953060515E-03
 
 Breneman (CHELPG) radii used.
 Generate Potential Derived Charges using the Breneman model, NDens= 1.
 Grid spacing= 0.300 Box extension= 2.800
 NStep X,Y,Z=   20     30     26   Total possible points=       15600
 Number of Points to Fit=    4536

 **********************************************************************

            Electrostatic Properties Using The CC Density.

 **********************************************************************

       Atomic Center    1 is at   0.000000  0.000000  0.683397
       Atomic Center    2 is at  -0.010000  0.000000 -0.494687
       Atomic Center    3 is at   0.000000 -1.446870 -1.469805
       Atomic Center    4 is at   0.000000  1.446870 -1.469805
    4536 points will be used for fitting atomic charges
 Fitting point charges to electrostatic potential
 The dipole moment will be constrained to the correct value
 Charges from ESP fit, RMS=   0.00664 RRMS=   0.58830:
 ESP charges:
               1
     1  O   -0.216819
     2  C    0.214191
     3  Cl   0.001314
     4  Cl   0.001314
 Sum of ESP charges =  -0.00000
 ESP charges with hydrogens summed into heavy atoms:
               1
     1  O   -0.216819
     2  C    0.214191
     3  Cl   0.001314
     4  Cl   0.001314
 Charge=  -0.00000 Dipole=    -0.0103     0.0000    -1.2392 Tot=     1.2392
 -----------------------------------------------------------------

              Electrostatic Properties (Atomic Units)

 -----------------------------------------------------------------
    Center     Electric         -------- Electric Field --------
               Potential          X             Y             Z
 -----------------------------------------------------------------
    1 Atom    -22.284589
    2 Atom    -14.536663
    3 Atom    -64.374485
    4 Atom    -64.374485
 -----------------------------------------------------------------
 ******************************Gaussian NBO Version 3.1******************************
             N A T U R A L   A T O M I C   O R B I T A L   A N D
          N A T U R A L   B O N D   O R B I T A L   A N A L Y S I S
 ******************************Gaussian NBO Version 3.1******************************
       /RESON  / : Allow strongly delocalized NBO set

 Analyzing the QCI/CC density

 Job title: cl2co-wavefunction                                              

 Storage needed:    111522 in NPA (2147483536 available)
 GSVD:  LWork=        6614 too small for GESVD, short by       52797 words or       52797 for optimal perf.


 NATURAL POPULATIONS:  Natural atomic orbital occupancies 
                                                          
   NAO  Atom  No  lang   Type(AO)    Occupancy
 --------------------------------------------
     1    O    1  S      Cor( 1S)     1.99951
     2    O    1  S      Val( 2S)     1.68010
     3    O    1  S      Ryd( 3S)     0.00630
     4    O    1  S      Ryd( 4S)     0.00039
     5    O    1  S      Ryd( 5S)     0.00029
     6    O    1  px     Val( 2p)     1.35787
     7    O    1  px     Ryd( 3p)     0.00703
     8    O    1  px     Ryd( 4p)     0.00050
     9    O    1  px     Ryd( 5p)     0.00007
    10    O    1  py     Val( 2p)     1.74353
    11    O    1  py     Ryd( 3p)     0.01326
    12    O    1  py     Ryd( 4p)     0.00065
    13    O    1  py     Ryd( 5p)     0.00014
    14    O    1  pz     Val( 2p)     1.58111
    15    O    1  pz     Ryd( 3p)     0.00648
    16    O    1  pz     Ryd( 4p)     0.00050
    17    O    1  pz     Ryd( 5p)     0.00010
    18    O    1  dxy    Ryd( 3d)     0.00545
    19    O    1  dxy    Ryd( 4d)     0.00037
    20    O    1  dxy    Ryd( 5d)     0.00009
    21    O    1  dxz    Ryd( 3d)     0.01157
    22    O    1  dxz    Ryd( 4d)     0.00031
    23    O    1  dxz    Ryd( 5d)     0.00010
    24    O    1  dyz    Ryd( 3d)     0.01194
    25    O    1  dyz    Ryd( 4d)     0.00046
    26    O    1  dyz    Ryd( 5d)     0.00013
    27    O    1  dx2y2  Ryd( 3d)     0.00537
    28    O    1  dx2y2  Ryd( 4d)     0.00037
    29    O    1  dx2y2  Ryd( 5d)     0.00009
    30    O    1  dz2    Ryd( 3d)     0.02063
    31    O    1  dz2    Ryd( 4d)     0.00043
    32    O    1  dz2    Ryd( 5d)     0.00021
    33    O    1  f(0)   Ryd( 4f)     0.00132
    34    O    1  f(0)   Ryd( 5f)     0.00013
    35    O    1  f(C1)  Ryd( 4f)     0.00067
    36    O    1  f(C1)  Ryd( 5f)     0.00010
    37    O    1  f(S1)  Ryd( 4f)     0.00079
    38    O    1  f(S1)  Ryd( 5f)     0.00013
    39    O    1  f(C2)  Ryd( 4f)     0.00046
    40    O    1  f(C2)  Ryd( 5f)     0.00008
    41    O    1  f(S2)  Ryd( 4f)     0.00047
    42    O    1  f(S2)  Ryd( 5f)     0.00008
    43    O    1  f(C3)  Ryd( 4f)     0.00044
    44    O    1  f(C3)  Ryd( 5f)     0.00006
    45    O    1  f(S3)  Ryd( 4f)     0.00045
    46    O    1  f(S3)  Ryd( 5f)     0.00007

    47    C    2  S      Cor( 1S)     1.99941
    48    C    2  S      Val( 2S)     0.94598
    49    C    2  S      Ryd( 3S)     0.00955
    50    C    2  S      Ryd( 4S)     0.00017
    51    C    2  S      Ryd( 5S)     0.00010
    52    C    2  px     Val( 2p)     0.80563
    53    C    2  px     Ryd( 3p)     0.00760
    54    C    2  px     Ryd( 4p)     0.00059
    55    C    2  px     Ryd( 5p)     0.00018
    56    C    2  py     Val( 2p)     0.90087
    57    C    2  py     Ryd( 3p)     0.01084
    58    C    2  py     Ryd( 4p)     0.00067
    59    C    2  py     Ryd( 5p)     0.00038
    60    C    2  pz     Val( 2p)     0.80669
    61    C    2  pz     Ryd( 3p)     0.02822
    62    C    2  pz     Ryd( 5p)     0.00032
    63    C    2  pz     Ryd( 4p)     0.00057
    64    C    2  dxy    Ryd( 3d)     0.00873
    65    C    2  dxy    Ryd( 4d)     0.00030
    66    C    2  dxy    Ryd( 5d)     0.00014
    67    C    2  dxz    Ryd( 3d)     0.00826
    68    C    2  dxz    Ryd( 4d)     0.00069
    69    C    2  dxz    Ryd( 5d)     0.00027
    70    C    2  dyz    Ryd( 3d)     0.01137
    71    C    2  dyz    Ryd( 4d)     0.00085
    72    C    2  dyz    Ryd( 5d)     0.00023
    73    C    2  dx2y2  Ryd( 3d)     0.00613
    74    C    2  dx2y2  Ryd( 5d)     0.00024
    75    C    2  dx2y2  Ryd( 4d)     0.00027
    76    C    2  dz2    Ryd( 3d)     0.00685
    77    C    2  dz2    Ryd( 4d)     0.00046
    78    C    2  dz2    Ryd( 5d)     0.00025
    79    C    2  f(0)   Ryd( 4f)     0.00280
    80    C    2  f(0)   Ryd( 5f)     0.00036
    81    C    2  f(C1)  Ryd( 4f)     0.00181
    82    C    2  f(C1)  Ryd( 5f)     0.00041
    83    C    2  f(S1)  Ryd( 4f)     0.00306
    84    C    2  f(S1)  Ryd( 5f)     0.00057
    85    C    2  f(C2)  Ryd( 4f)     0.00182
    86    C    2  f(C2)  Ryd( 5f)     0.00023
    87    C    2  f(S2)  Ryd( 4f)     0.00173
    88    C    2  f(S2)  Ryd( 5f)     0.00026
    89    C    2  f(C3)  Ryd( 4f)     0.00144
    90    C    2  f(C3)  Ryd( 5f)     0.00021
    91    C    2  f(S3)  Ryd( 4f)     0.00150
    92    C    2  f(S3)  Ryd( 5f)     0.00018

    93   Cl    3  S      Cor( 1S)     2.00000
    94   Cl    3  S      Cor( 2S)     1.99940
    95   Cl    3  S      Val( 3S)     1.84255
    96   Cl    3  S      Ryd( 4S)     0.00533
    97   Cl    3  S      Ryd( 5S)     0.00031
    98   Cl    3  S      Ryd( 6S)     0.00021
    99   Cl    3  px     Cor( 2p)     2.00003
   100   Cl    3  px     Val( 3p)     1.85110
   101   Cl    3  px     Ryd( 4p)     0.00799
   102   Cl    3  px     Ryd( 5p)     0.00046
   103   Cl    3  px     Ryd( 6p)     0.00007
   104   Cl    3  py     Cor( 2p)     1.99994
   105   Cl    3  py     Val( 3p)     1.43372
   106   Cl    3  py     Ryd( 4p)     0.00608
   107   Cl    3  py     Ryd( 5p)     0.00050
   108   Cl    3  py     Ryd( 6p)     0.00006
   109   Cl    3  pz     Cor( 2p)     1.99999
   110   Cl    3  pz     Val( 3p)     1.71373
   111   Cl    3  pz     Ryd( 4p)     0.00718
   112   Cl    3  pz     Ryd( 5p)     0.00046
   113   Cl    3  pz     Ryd( 6p)     0.00010
   114   Cl    3  dxy    Ryd( 3d)     0.01816
   115   Cl    3  dxy    Ryd( 4d)     0.00051
   116   Cl    3  dxy    Ryd( 5d)     0.00012
   117   Cl    3  dxz    Ryd( 3d)     0.01840
   118   Cl    3  dxz    Ryd( 4d)     0.00061
   119   Cl    3  dxz    Ryd( 5d)     0.00013
   120   Cl    3  dyz    Ryd( 3d)     0.02339
   121   Cl    3  dyz    Ryd( 4d)     0.00047
   122   Cl    3  dyz    Ryd( 5d)     0.00012
   123   Cl    3  dx2y2  Ryd( 3d)     0.02010
   124   Cl    3  dx2y2  Ryd( 4d)     0.00051
   125   Cl    3  dx2y2  Ryd( 5d)     0.00012
   126   Cl    3  dz2    Ryd( 3d)     0.01715
   127   Cl    3  dz2    Ryd( 4d)     0.00052
   128   Cl    3  dz2    Ryd( 5d)     0.00017
   129   Cl    3  f(0)   Ryd( 4f)     0.00132
   130   Cl    3  f(0)   Ryd( 5f)     0.00013
   131   Cl    3  f(C1)  Ryd( 4f)     0.00132
   132   Cl    3  f(C1)  Ryd( 5f)     0.00012
   133   Cl    3  f(S1)  Ryd( 4f)     0.00129
   134   Cl    3  f(S1)  Ryd( 5f)     0.00017
   135   Cl    3  f(C2)  Ryd( 4f)     0.00156
   136   Cl    3  f(C2)  Ryd( 5f)     0.00013
   137   Cl    3  f(S2)  Ryd( 4f)     0.00132
   138   Cl    3  f(S2)  Ryd( 5f)     0.00014
   139   Cl    3  f(C3)  Ryd( 4f)     0.00130
   140   Cl    3  f(C3)  Ryd( 5f)     0.00013
   141   Cl    3  f(S3)  Ryd( 4f)     0.00134
   142   Cl    3  f(S3)  Ryd( 5f)     0.00013

   143   Cl    4  S      Cor( 1S)     2.00000
   144   Cl    4  S      Cor( 2S)     1.99940
   145   Cl    4  S      Val( 3S)     1.84255
   146   Cl    4  S      Ryd( 4S)     0.00533
   147   Cl    4  S      Ryd( 5S)     0.00031
   148   Cl    4  S      Ryd( 6S)     0.00021
   149   Cl    4  px     Cor( 2p)     2.00003
   150   Cl    4  px     Val( 3p)     1.85110
   151   Cl    4  px     Ryd( 4p)     0.00799
   152   Cl    4  px     Ryd( 5p)     0.00046
   153   Cl    4  px     Ryd( 6p)     0.00007
   154   Cl    4  py     Cor( 2p)     1.99994
   155   Cl    4  py     Val( 3p)     1.43372
   156   Cl    4  py     Ryd( 4p)     0.00608
   157   Cl    4  py     Ryd( 5p)     0.00050
   158   Cl    4  py     Ryd( 6p)     0.00006
   159   Cl    4  pz     Cor( 2p)     1.99999
   160   Cl    4  pz     Val( 3p)     1.71373
   161   Cl    4  pz     Ryd( 4p)     0.00718
   162   Cl    4  pz     Ryd( 5p)     0.00046
   163   Cl    4  pz     Ryd( 6p)     0.00010
   164   Cl    4  dxy    Ryd( 3d)     0.01816
   165   Cl    4  dxy    Ryd( 4d)     0.00051
   166   Cl    4  dxy    Ryd( 5d)     0.00012
   167   Cl    4  dxz    Ryd( 3d)     0.01840
   168   Cl    4  dxz    Ryd( 4d)     0.00061
   169   Cl    4  dxz    Ryd( 5d)     0.00013
   170   Cl    4  dyz    Ryd( 3d)     0.02339
   171   Cl    4  dyz    Ryd( 4d)     0.00047
   172   Cl    4  dyz    Ryd( 5d)     0.00012
   173   Cl    4  dx2y2  Ryd( 3d)     0.02010
   174   Cl    4  dx2y2  Ryd( 4d)     0.00051
   175   Cl    4  dx2y2  Ryd( 5d)     0.00012
   176   Cl    4  dz2    Ryd( 3d)     0.01715
   177   Cl    4  dz2    Ryd( 4d)     0.00052
   178   Cl    4  dz2    Ryd( 5d)     0.00017
   179   Cl    4  f(0)   Ryd( 4f)     0.00132
   180   Cl    4  f(0)   Ryd( 5f)     0.00013
   181   Cl    4  f(C1)  Ryd( 4f)     0.00132
   182   Cl    4  f(C1)  Ryd( 5f)     0.00012
   183   Cl    4  f(S1)  Ryd( 4f)     0.00129
   184   Cl    4  f(S1)  Ryd( 5f)     0.00017
   185   Cl    4  f(C2)  Ryd( 4f)     0.00156
   186   Cl    4  f(C2)  Ryd( 5f)     0.00013
   187   Cl    4  f(S2)  Ryd( 4f)     0.00132
   188   Cl    4  f(S2)  Ryd( 5f)     0.00014
   189   Cl    4  f(C3)  Ryd( 4f)     0.00130
   190   Cl    4  f(C3)  Ryd( 5f)     0.00013
   191   Cl    4  f(S3)  Ryd( 4f)     0.00134
   192   Cl    4  f(S3)  Ryd( 5f)     0.00013


 Summary of Natural Population Analysis:                  
                                                          
                                       Natural Population 
                Natural  -----------------------------------------------
    Atom  No    Charge         Core      Valence    Rydberg      Total
 -----------------------------------------------------------------------
      O    1   -0.46060      1.99951     6.36260    0.09849     8.46060
      C    2    0.42081      1.99941     3.45917    0.12061     5.57919
     Cl    3    0.01990      9.99935     6.84110    0.13966    16.98010
     Cl    4    0.01990      9.99935     6.84110    0.13966    16.98010
 =======================================================================
   * Total *   -0.00000     23.99762    23.50397    0.49841    48.00000

                                 Natural Population      
 --------------------------------------------------------
   Core                      23.99762 ( 99.9901% of  24)
   Valence                   23.50397 ( 97.9332% of  24)
   Natural Minimal Basis     47.50159 ( 98.9616% of  48)
   Natural Rydberg Basis      0.49841 (  1.0384% of  48)
 --------------------------------------------------------

    Atom  No          Natural Electron Configuration
 ----------------------------------------------------------------------------
      O    1      [core]2S( 1.68)2p( 4.68)3S( 0.01)3p( 0.03)3d( 0.05)
      C    2      [core]2S( 0.95)2p( 2.51)3S( 0.01)3p( 0.05)3d( 0.04)4f( 0.01)
     Cl    3      [core]3S( 1.84)3p( 5.00)4S( 0.01)3d( 0.10)4p( 0.02)4f( 0.01)
     Cl    4      [core]3S( 1.84)3p( 5.00)4S( 0.01)3d( 0.10)4p( 0.02)4f( 0.01)


 NBO analysis skipped by request.
 Unable to Open any file for archive entry.
 1\1\GINC-TRAPISTA\SP\RQCISD-FC\Aug-CC-pVTZ\C1Cl2O1\WAGNER\03-Sep-2022\
 0\\# qcisd/aug-cc-pvtz nosymm density=current pop=(chelpg,hirshfeld,np
 a,dipole)\\cl2co-wavefunction\\0,1\O,0,0.,0.,0.683397\C,0,-0.01,0.,-0.
 494687\Cl,0,0.,-1.44687,-1.469805\Cl,0,0.,1.44687,-1.469805\\Version=E
 M64L-G16RevC.01\HF=-1031.8027112\MP2=-1032.5821294\MP3=-1032.6011815\M
 P4D=-1032.6208494\MP4DQ=-1032.5983279\MP4SDQ=-1032.6073109\QCISD=-1032
 .6055796\RMSD=6.610e-09\Dipole=-0.0040476,0.,-0.4875381\Quadrupole=0.1
 239311,0.6448229,-0.768754,0.,-0.0105793,0.\PG=CS [SG(C1O1),X(Cl2)]\\@
 The archive entry for this job was punched.


 THERE'S NOTHING SO GREAT AS THE GREAT OUTDOORS.

                                       -- ZIGGY
 Job cpu time:       0 days  7 hours 16 minutes 58.6 seconds.
 Elapsed time:       0 days  0 hours 27 minutes 43.4 seconds.
 File lengths (MBytes):  RWF=  22679 Int=      0 D2E=      0 Chk=      4 Scr=      1
 Normal termination of Gaussian 16 at Sat Sep  3 23:06:44 2022.
