 cl2co-wavefunction
GAUSSIAN            192 MOL ORBITALS    372 PRIMITIVES        4 NUCLEI
  O    1    (CENTRE  1)   0.00000000  0.00000000  1.29143317  CHARGE =  8.0
  C    2    (CENTRE  2)   0.00000000 -0.01889726 -0.93482295  CHARGE =  6.0
  Cl   3    (CENTRE  3)   0.00000000 -2.73418805 -2.77752892  CHARGE = 17.0
  Cl   4    (CENTRE  4)   0.00000000  2.73418805 -2.77752892  CHARGE = 17.0
CENTRE ASSIGNMENTS    1  1  1  1  1  1  1  1  1  1  1  1  1  1  1  1  1  1  1  1
CENTRE ASSIGNMENTS    1  1  1  1  1  1  1  1  1  1  1  1  1  1  1  1  1  1  1  1
CENTRE ASSIGNMENTS    1  1  1  1  1  1  1  1  1  1  1  1  1  1  1  1  1  1  1  1
CENTRE ASSIGNMENTS    1  1  1  1  1  1  1  1  1  1  1  1  2  2  2  2  2  2  2  2
CENTRE ASSIGNMENTS    2  2  2  2  2  2  2  2  2  2  2  2  2  2  2  2  2  2  2  2
CENTRE ASSIGNMENTS    2  2  2  2  2  2  2  2  2  2  2  2  2  2  2  2  2  2  2  2
CENTRE ASSIGNMENTS    2  2  2  2  2  2  2  2  2  2  2  2  2  2  2  2  2  2  2  2
CENTRE ASSIGNMENTS    2  2  2  2  3  3  3  3  3  3  3  3  3  3  3  3  3  3  3  3
CENTRE ASSIGNMENTS    3  3  3  3  3  3  3  3  3  3  3  3  3  3  3  3  3  3  3  3
CENTRE ASSIGNMENTS    3  3  3  3  3  3  3  3  3  3  3  3  3  3  3  3  3  3  3  3
CENTRE ASSIGNMENTS    3  3  3  3  3  3  3  3  3  3  3  3  3  3  3  3  3  3  3  3
CENTRE ASSIGNMENTS    3  3  3  3  3  3  3  3  3  3  3  3  3  3  3  3  3  3  3  3
CENTRE ASSIGNMENTS    3  3  3  3  3  3  3  3  3  3  3  3  3  3  3  3  3  3  4  4
CENTRE ASSIGNMENTS    4  4  4  4  4  4  4  4  4  4  4  4  4  4  4  4  4  4  4  4
CENTRE ASSIGNMENTS    4  4  4  4  4  4  4  4  4  4  4  4  4  4  4  4  4  4  4  4
CENTRE ASSIGNMENTS    4  4  4  4  4  4  4  4  4  4  4  4  4  4  4  4  4  4  4  4
CENTRE ASSIGNMENTS    4  4  4  4  4  4  4  4  4  4  4  4  4  4  4  4  4  4  4  4
CENTRE ASSIGNMENTS    4  4  4  4  4  4  4  4  4  4  4  4  4  4  4  4  4  4  4  4
CENTRE ASSIGNMENTS    4  4  4  4  4  4  4  4  4  4  4  4
TYPE ASSIGNMENTS      1  1  1  1  1  1  1  1  1  1  1  1  1  1  1  1  2  2  2  3
TYPE ASSIGNMENTS      3  3  4  4  4  2  3  4  2  3  4  2  3  4  5  6  7  8  9 10
TYPE ASSIGNMENTS      5  6  7  8  9 10  5  6  7  8  9 10 11 12 13 17 14 15 18 19
TYPE ASSIGNMENTS     16 20 11 12 13 17 14 15 18 19 16 20  1  1  1  1  1  1  1  1
TYPE ASSIGNMENTS      1  1  1  1  1  1  1  1  2  2  2  3  3  3  4  4  4  2  3  4
TYPE ASSIGNMENTS      2  3  4  2  3  4  5  6  7  8  9 10  5  6  7  8  9 10  5  6
TYPE ASSIGNMENTS      7  8  9 10 11 12 13 17 14 15 18 19 16 20 11 12 13 17 14 15
TYPE ASSIGNMENTS     18 19 16 20  1  1  1  1  1  1  1  1  1  1  1  1  1  1  1  1
TYPE ASSIGNMENTS      1  1  1  1  1  1  1  1  1  1  1  1  1  1  1  2  2  2  2  2
TYPE ASSIGNMENTS      2  3  3  3  3  3  3  4  4  4  4  4  4  2  2  2  2  2  2  3
TYPE ASSIGNMENTS      3  3  3  3  3  4  4  4  4  4  4  2  3  4  2  3  4  2  3  4
TYPE ASSIGNMENTS      5  6  7  8  9 10  5  6  7  8  9 10  5  6  7  8  9 10 11 12
TYPE ASSIGNMENTS     13 17 14 15 18 19 16 20 11 12 13 17 14 15 18 19 16 20  1  1
TYPE ASSIGNMENTS      1  1  1  1  1  1  1  1  1  1  1  1  1  1  1  1  1  1  1  1
TYPE ASSIGNMENTS      1  1  1  1  1  1  1  1  1  2  2  2  2  2  2  3  3  3  3  3
TYPE ASSIGNMENTS      3  4  4  4  4  4  4  2  2  2  2  2  2  3  3  3  3  3  3  4
TYPE ASSIGNMENTS      4  4  4  4  4  2  3  4  2  3  4  2  3  4  5  6  7  8  9 10
TYPE ASSIGNMENTS      5  6  7  8  9 10  5  6  7  8  9 10 11 12 13 17 14 15 18 19
TYPE ASSIGNMENTS     16 20 11 12 13 17 14 15 18 19 16 20
EXPONENTS  0.1533000D+05 0.2299000D+04 0.5224000D+03 0.1473000D+03 0.4755000D+02
EXPONENTS  0.1676000D+02 0.6207000D+01 0.5224000D+03 0.1473000D+03 0.4755000D+02
EXPONENTS  0.1676000D+02 0.6207000D+01 0.6882000D+00 0.1752000D+01 0.2384000D+00
EXPONENTS  0.7376000D-01 0.3446000D+02 0.7749000D+01 0.2280000D+01 0.3446000D+02
EXPONENTS  0.7749000D+01 0.2280000D+01 0.3446000D+02 0.7749000D+01 0.2280000D+01
EXPONENTS  0.7156000D+00 0.7156000D+00 0.7156000D+00 0.2140000D+00 0.2140000D+00
EXPONENTS  0.2140000D+00 0.5974000D-01 0.5974000D-01 0.5974000D-01 0.2314000D+01
EXPONENTS  0.2314000D+01 0.2314000D+01 0.2314000D+01 0.2314000D+01 0.2314000D+01
EXPONENTS  0.6450000D+00 0.6450000D+00 0.6450000D+00 0.6450000D+00 0.6450000D+00
EXPONENTS  0.6450000D+00 0.2140000D+00 0.2140000D+00 0.2140000D+00 0.2140000D+00
EXPONENTS  0.2140000D+00 0.2140000D+00 0.1428000D+01 0.1428000D+01 0.1428000D+01
EXPONENTS  0.1428000D+01 0.1428000D+01 0.1428000D+01 0.1428000D+01 0.1428000D+01
EXPONENTS  0.1428000D+01 0.1428000D+01 0.5000000D+00 0.5000000D+00 0.5000000D+00
EXPONENTS  0.5000000D+00 0.5000000D+00 0.5000000D+00 0.5000000D+00 0.5000000D+00
EXPONENTS  0.5000000D+00 0.5000000D+00 0.8236000D+04 0.1235000D+04 0.2808000D+03
EXPONENTS  0.7927000D+02 0.2559000D+02 0.8997000D+01 0.3319000D+01 0.2808000D+03
EXPONENTS  0.7927000D+02 0.2559000D+02 0.8997000D+01 0.3319000D+01 0.3643000D+00
EXPONENTS  0.9059000D+00 0.1285000D+00 0.4402000D-01 0.1871000D+02 0.4133000D+01
EXPONENTS  0.1200000D+01 0.1871000D+02 0.4133000D+01 0.1200000D+01 0.1871000D+02
EXPONENTS  0.4133000D+01 0.1200000D+01 0.3827000D+00 0.3827000D+00 0.3827000D+00
EXPONENTS  0.1209000D+00 0.1209000D+00 0.1209000D+00 0.3569000D-01 0.3569000D-01
EXPONENTS  0.3569000D-01 0.1097000D+01 0.1097000D+01 0.1097000D+01 0.1097000D+01
EXPONENTS  0.1097000D+01 0.1097000D+01 0.3180000D+00 0.3180000D+00 0.3180000D+00
EXPONENTS  0.3180000D+00 0.3180000D+00 0.3180000D+00 0.1000000D+00 0.1000000D+00
EXPONENTS  0.1000000D+00 0.1000000D+00 0.1000000D+00 0.1000000D+00 0.7610000D+00
EXPONENTS  0.7610000D+00 0.7610000D+00 0.7610000D+00 0.7610000D+00 0.7610000D+00
EXPONENTS  0.7610000D+00 0.7610000D+00 0.7610000D+00 0.7610000D+00 0.2680000D+00
EXPONENTS  0.2680000D+00 0.2680000D+00 0.2680000D+00 0.2680000D+00 0.2680000D+00
EXPONENTS  0.2680000D+00 0.2680000D+00 0.2680000D+00 0.2680000D+00 0.4561000D+06
EXPONENTS  0.6833000D+05 0.1555000D+05 0.4405000D+04 0.1439000D+04 0.5204000D+03
EXPONENTS  0.2031000D+03 0.8396000D+02 0.3620000D+02 0.1583000D+02 0.6334000D+01
EXPONENTS  0.4405000D+04 0.1439000D+04 0.5204000D+03 0.2031000D+03 0.8396000D+02
EXPONENTS  0.3620000D+02 0.1583000D+02 0.6334000D+01 0.2694000D+01 0.1439000D+04
EXPONENTS  0.2031000D+03 0.8396000D+02 0.3620000D+02 0.1583000D+02 0.6334000D+01
EXPONENTS  0.2694000D+01 0.4313000D+00 0.9768000D+00 0.1625000D+00 0.5910000D-01
EXPONENTS  0.6633000D+03 0.1568000D+03 0.4998000D+02 0.1842000D+02 0.7240000D+01
EXPONENTS  0.2922000D+01 0.6633000D+03 0.1568000D+03 0.4998000D+02 0.1842000D+02
EXPONENTS  0.7240000D+01 0.2922000D+01 0.6633000D+03 0.1568000D+03 0.4998000D+02
EXPONENTS  0.1842000D+02 0.7240000D+01 0.2922000D+01 0.1568000D+03 0.4998000D+02
EXPONENTS  0.1842000D+02 0.7240000D+01 0.2922000D+01 0.3818000D+00 0.1568000D+03
EXPONENTS  0.4998000D+02 0.1842000D+02 0.7240000D+01 0.2922000D+01 0.3818000D+00
EXPONENTS  0.1568000D+03 0.4998000D+02 0.1842000D+02 0.7240000D+01 0.2922000D+01
EXPONENTS  0.3818000D+00 0.1022000D+01 0.1022000D+01 0.1022000D+01 0.1301000D+00
EXPONENTS  0.1301000D+00 0.1301000D+00 0.4190000D-01 0.4190000D-01 0.4190000D-01
EXPONENTS  0.1046000D+01 0.1046000D+01 0.1046000D+01 0.1046000D+01 0.1046000D+01
EXPONENTS  0.1046000D+01 0.3440000D+00 0.3440000D+00 0.3440000D+00 0.3440000D+00
EXPONENTS  0.3440000D+00 0.3440000D+00 0.1350000D+00 0.1350000D+00 0.1350000D+00
EXPONENTS  0.1350000D+00 0.1350000D+00 0.1350000D+00 0.7060000D+00 0.7060000D+00
EXPONENTS  0.7060000D+00 0.7060000D+00 0.7060000D+00 0.7060000D+00 0.7060000D+00
EXPONENTS  0.7060000D+00 0.7060000D+00 0.7060000D+00 0.3120000D+00 0.3120000D+00
EXPONENTS  0.3120000D+00 0.3120000D+00 0.3120000D+00 0.3120000D+00 0.3120000D+00
EXPONENTS  0.3120000D+00 0.3120000D+00 0.3120000D+00 0.4561000D+06 0.6833000D+05
EXPONENTS  0.1555000D+05 0.4405000D+04 0.1439000D+04 0.5204000D+03 0.2031000D+03
EXPONENTS  0.8396000D+02 0.3620000D+02 0.1583000D+02 0.6334000D+01 0.4405000D+04
EXPONENTS  0.1439000D+04 0.5204000D+03 0.2031000D+03 0.8396000D+02 0.3620000D+02
EXPONENTS  0.1583000D+02 0.6334000D+01 0.2694000D+01 0.1439000D+04 0.2031000D+03
EXPONENTS  0.8396000D+02 0.3620000D+02 0.1583000D+02 0.6334000D+01 0.2694000D+01
EXPONENTS  0.4313000D+00 0.9768000D+00 0.1625000D+00 0.5910000D-01 0.6633000D+03
EXPONENTS  0.1568000D+03 0.4998000D+02 0.1842000D+02 0.7240000D+01 0.2922000D+01
EXPONENTS  0.6633000D+03 0.1568000D+03 0.4998000D+02 0.1842000D+02 0.7240000D+01
EXPONENTS  0.2922000D+01 0.6633000D+03 0.1568000D+03 0.4998000D+02 0.1842000D+02
EXPONENTS  0.7240000D+01 0.2922000D+01 0.1568000D+03 0.4998000D+02 0.1842000D+02
EXPONENTS  0.7240000D+01 0.2922000D+01 0.3818000D+00 0.1568000D+03 0.4998000D+02
EXPONENTS  0.1842000D+02 0.7240000D+01 0.2922000D+01 0.3818000D+00 0.1568000D+03
EXPONENTS  0.4998000D+02 0.1842000D+02 0.7240000D+01 0.2922000D+01 0.3818000D+00
EXPONENTS  0.1022000D+01 0.1022000D+01 0.1022000D+01 0.1301000D+00 0.1301000D+00
EXPONENTS  0.1301000D+00 0.4190000D-01 0.4190000D-01 0.4190000D-01 0.1046000D+01
EXPONENTS  0.1046000D+01 0.1046000D+01 0.1046000D+01 0.1046000D+01 0.1046000D+01
EXPONENTS  0.3440000D+00 0.3440000D+00 0.3440000D+00 0.3440000D+00 0.3440000D+00
EXPONENTS  0.3440000D+00 0.1350000D+00 0.1350000D+00 0.1350000D+00 0.1350000D+00
EXPONENTS  0.1350000D+00 0.1350000D+00 0.7060000D+00 0.7060000D+00 0.7060000D+00
EXPONENTS  0.7060000D+00 0.7060000D+00 0.7060000D+00 0.7060000D+00 0.7060000D+00
EXPONENTS  0.7060000D+00 0.7060000D+00 0.3120000D+00 0.3120000D+00 0.3120000D+00
EXPONENTS  0.3120000D+00 0.3120000D+00 0.3120000D+00 0.3120000D+00 0.3120000D+00
EXPONENTS  0.3120000D+00 0.3120000D+00
MO    1     MO 0.0        OCC NO =    2.0000387  ORB. ENERGY =    0.000000
 -0.53687111D-03 -0.10006395D-02 -0.16967248D-02 -0.25678126D-02 -0.32031438D-02
 -0.27487740D-02 -0.10526344D-02 -0.13038093D-07 -0.13989018D-06 -0.51566155D-06
 -0.15077641D-05 -0.18169291D-05  0.21886836D-05 -0.54351910D-04 -0.16549728D-04
 -0.26047700D-04 -0.12767536D-12 -0.12380215D-12 -0.83516202D-13 -0.88059561D-03
 -0.85388153D-03 -0.57602343D-03 -0.13528345D-03 -0.13117944D-03 -0.88492877D-04
 -0.28862794D-13 -0.94059350D-03 -0.66408840D-04  0.78996300D-14 -0.75706975D-03
 -0.53447657D-04  0.77367859D-15 -0.19671628D-04 -0.67851992D-06 -0.54852472D-05
  0.23811614D-05  0.31040858D-05  0.18159208D-13  0.17770052D-13 -0.19893125D-03
 -0.15006627D-05 -0.16714044D-04  0.18214707D-04  0.82645970D-14 -0.10222229D-13
 -0.70040298D-04 -0.85230662D-05  0.19463556D-05  0.65767106D-05 -0.33976117D-13
 -0.62936976D-14  0.11195516D-03  0.36928068D-14 -0.14644777D-03 -0.14792999D-04
 -0.63188909D-15  0.22119214D-03  0.73387269D-05 -0.10446531D-13  0.21815118D-03
  0.37040269D-04 -0.17898589D-12 -0.29728374D-14 -0.10271644D-04 -0.54831663D-06
  0.13240384D-14 -0.19958133D-03 -0.14494077D-05  0.75944739D-14  0.23039626D-03
  0.30943576D-05  0.53041585D-13  0.32335470D-03  0.60279831D-03  0.10188113D-02
  0.15314634D-02  0.18811284D-02  0.15876060D-02  0.59698133D-03  0.38874188D-06
  0.29056047D-05  0.10858908D-04  0.30294663D-04  0.40586496D-04 -0.47925084D-04
  0.13371287D-04 -0.39567797D-05 -0.98478857D-05  0.74453713D-13  0.69805089D-13
  0.49705382D-13  0.11091882D-02  0.10399344D-02  0.74049527D-03 -0.13532423D-03
 -0.12687507D-03 -0.90342609D-04  0.31421567D-14  0.14233715D-03 -0.10079707D-03
 -0.67564302D-14  0.72143941D-04  0.29257347D-04 -0.31949643D-15 -0.87102281D-05
  0.17847924D-05  0.94786052D-05 -0.78530300D-04  0.69051695D-04  0.25563322D-12
 -0.21350110D-13  0.18335923D-03 -0.64966160D-05  0.29581976D-04 -0.23085360D-04
 -0.77221441D-14 -0.12929191D-13  0.73850631D-04  0.30093660D-06 -0.10637826D-04
  0.10336889D-04  0.15924939D-13 -0.11951516D-14  0.54341698D-04 -0.13253914D-14
  0.25433793D-03 -0.15820334D-04  0.55107742D-14  0.37224207D-04  0.28764944D-04
 -0.15346000D-14 -0.80023799D-03  0.18696058D-04 -0.74113543D-13  0.16200768D-14
 -0.25800325D-03  0.86254466D-05 -0.22627548D-14  0.27034442D-04 -0.10139477D-04
 -0.25974756D-14  0.74697530D-03 -0.15736863D-04  0.73735217D-13  0.64830046D-04
  0.12129010D-03  0.20956239D-03  0.33972525D-03  0.51590540D-03  0.71705996D-03
  0.85252935D-03  0.75946277D-03  0.37716527D-03  0.60720418D-04  0.64063627D-06
  0.24647327D-07  0.82219355D-06  0.28651799D-05  0.10317977D-04  0.22744696D-04
  0.32017191D-04 -0.15273244D-05 -0.41900054D-04 -0.24775240D-04  0.29139657D-06
  0.35295241D-05  0.73604504D-05  0.21108490D-04  0.10961345D-05 -0.91030048D-04
 -0.23520416D-03  0.19163328D-03 -0.16895105D-05 -0.77484042D-04 -0.40665799D-04
  0.15318917D-08  0.20178597D-08  0.22260151D-08  0.18488798D-08  0.98180650D-09
  0.25331121D-09 -0.50418205D+01 -0.66412570D+01 -0.73263461D+01 -0.60851040D+01
 -0.32313591D+01 -0.83370754D+00  0.73682510D+01  0.97057102D+01  0.10706918D+02
  0.88929335D+01  0.47223944D+01  0.12184024D+01 -0.67922096D-13  0.65662712D-12
  0.92591278D-12  0.13243002D-11 -0.67060699D-14 -0.12145082D-11  0.25408257D-03
 -0.24563068D-02 -0.34636490D-02 -0.49539344D-02  0.25086026D-04  0.45432250D-02
 -0.36371249D-03  0.35161383D-02  0.49581221D-02  0.70914262D-02 -0.35909984D-04
 -0.65035066D-02  0.10003555D-10 -0.32364450D-01  0.47551675D-01 -0.76100516D-13
  0.36062556D-03 -0.57507927D-03 -0.25749343D-14  0.11874889D-04 -0.17428267D-04
 -0.16422944D-04 -0.78843495D-03  0.80485790D-03  0.17999984D-12  0.98330877D-13
  0.71250789D-03  0.59767887D-04  0.46239495D-03 -0.52216283D-03 -0.90036365D-13
 -0.62788541D-13 -0.39325337D-03  0.50363950D-05 -0.51307683D-05  0.94373338D-07
  0.58129874D-14  0.90439450D-14 -0.36971513D-05  0.54455284D-14 -0.99909643D-05
 -0.34738764D-05  0.79592791D-14  0.13815060D-04  0.37756449D-04 -0.24295864D-13
  0.16157833D-04 -0.27334820D-04 -0.17198989D-14  0.25521951D-14  0.79452206D-04
 -0.41653405D-04 -0.16489939D-13  0.10851849D-04  0.55527250D-04  0.88333538D-14
 -0.24920847D-03  0.69432966D-04 -0.26741172D-13  0.56626604D-03  0.10594233D-02
  0.18304485D-02  0.29673721D-02  0.45062393D-02  0.62632487D-02  0.74465228D-02
  0.66336213D-02  0.32943966D-02  0.53036998D-03  0.55957166D-05  0.29864872D-05
  0.99624214D-04  0.34717044D-03  0.12502170D-02  0.27559477D-02  0.38794849D-02
 -0.18506407D-03 -0.50769797D-02 -0.30019863D-02 -0.26209945D-06 -0.31746644D-05
 -0.66204279D-05 -0.18986235D-04 -0.98592873D-06  0.81877852D-04  0.21155664D-03
 -0.17236640D-03 -0.15355292D-03  0.12181199D-03  0.72947080D-04 -0.19134112D-08
 -0.25204102D-08 -0.27804070D-08 -0.23093457D-08 -0.12263267D-08 -0.31639869D-09
 -0.42532709D+01 -0.56025527D+01 -0.61804926D+01 -0.51333830D+01 -0.27259688D+01
 -0.70331421D+00 -0.61105210D+01 -0.80489855D+01 -0.88792910D+01 -0.73749464D+01
 -0.39163012D+01 -0.10104262D+01  0.82633567D-13 -0.79884816D-12 -0.11264593D-11
 -0.16111348D-11  0.81585597D-14  0.14775625D-11  0.21924940D-03 -0.21195621D-02
 -0.29888038D-02 -0.42747801D-02  0.21646885D-04  0.39203765D-02  0.30209154D-03
 -0.29204266D-02 -0.41181064D-02 -0.58899815D-02  0.29826037D-04  0.54016686D-02
 -0.12518353D-10 -0.27292795D-01 -0.39398721D-01  0.98871654D-13  0.32493272D-03
  0.53373390D-03  0.36536584D-14  0.99076418D-05  0.16774345D-04  0.12097515D-04
  0.70137496D-03 -0.71347248D-03  0.20009270D-12 -0.11721041D-12  0.65369978D-03
 -0.56872059D-04 -0.39952961D-03  0.45640167D-03 -0.10700128D-12  0.70744268D-13
 -0.30860609D-03 -0.44886044D-05 -0.14553360D-05  0.59439405D-05  0.41951986D-14
 -0.74139173D-14 -0.61848906D-05 -0.37728418D-14 -0.17495529D-04  0.18143759D-05
 -0.10760966D-13  0.22983520D-04 -0.36125568D-04  0.22079491D-13  0.29503066D-04
  0.30682440D-04  0.60165204D-14 -0.45332939D-14  0.70204357D-04  0.42285323D-04
  0.20914539D-13  0.11875005D-04 -0.46896283D-04 -0.73146578D-14 -0.22248808D-03
 -0.79959686D-04 -0.33081092D-13
MO    2     MO 0.0        OCC NO =    2.0000377  ORB. ENERGY =    0.000000
  0.54932724D-02  0.10238557D-01  0.17360911D-01  0.26273893D-01  0.32774611D-01
  0.28125492D-01  0.10770569D-01  0.87599369D-06  0.93988374D-05  0.34645885D-04
  0.10130253D-03  0.12207448D-03 -0.14705165D-03  0.53924556D-03  0.20264402D-03
  0.29877618D-03  0.35487354D-12  0.34410796D-12  0.23213320D-12 -0.68615320D-05
 -0.66533779D-05 -0.44883294D-05  0.15849796D-02  0.15368971D-02  0.10367817D-02
  0.98769309D-13 -0.56005361D-04  0.58219425D-03  0.81487873D-14 -0.64551089D-04
  0.49410537D-03 -0.12629595D-14 -0.29032811D-05  0.10479754D-04  0.13186698D-03
 -0.21814654D-03  0.86279557D-04 -0.10224370D-13  0.44698446D-14 -0.24069385D-04
 -0.76777177D-04  0.24698868D-03 -0.17021150D-03 -0.27731352D-14  0.31900902D-14
 -0.93770417D-05  0.57587806D-04  0.22393421D-04 -0.79981227D-04  0.90289265D-14
  0.35312934D-14  0.70636642D-05 -0.58735071D-14 -0.13341259D-04  0.31892631D-04
  0.20763858D-13  0.19295242D-04 -0.37195888D-04 -0.31433365D-14  0.20728535D-04
 -0.58482006D-04  0.43391849D-13  0.39640590D-14 -0.99334979D-06  0.34789239D-04
 -0.78305380D-14 -0.16893287D-04  0.32393151D-04 -0.40616389D-14  0.19873337D-04
 -0.13676087D-03 -0.13406715D-13 -0.38741912D-02 -0.72222729D-02 -0.12206625D-01
 -0.18348834D-01 -0.22538256D-01 -0.19021493D-01 -0.71525782D-02 -0.41477858D-05
 -0.31002129D-04 -0.11586203D-03 -0.32323704D-03 -0.43304851D-03  0.51134954D-03
 -0.10405204D-03 -0.12687267D-04  0.85151969D-04 -0.27949592D-12 -0.26204519D-12
 -0.18659179D-12  0.56588454D-04  0.53055272D-04  0.37778515D-04  0.97189037D-03
  0.91120900D-03  0.64883509D-03 -0.48583870D-13  0.22089155D-04  0.82236943D-03
 -0.19334013D-14 -0.33660707D-05 -0.20255622D-03  0.98853650D-15 -0.72504095D-06
 -0.21837353D-04 -0.67890376D-04  0.67902734D-03 -0.61113696D-03 -0.55735225D-13
  0.75839317D-13  0.19986535D-04  0.82005385D-04 -0.16412387D-03  0.82118480D-04
 -0.97159613D-15  0.62188300D-14  0.10319132D-04 -0.10802133D-06  0.11502555D-03
 -0.11491753D-03 -0.42151240D-14  0.38101064D-14  0.63297402D-05  0.50881744D-14
  0.18710451D-04  0.13577245D-03 -0.10412036D-13  0.17910019D-05 -0.17411997D-03
 -0.48524866D-14 -0.57922355D-04 -0.23319739D-03  0.21524500D-13 -0.28161609D-14
 -0.21598469D-04 -0.68102219D-04  0.71633174D-14  0.37007194D-05  0.94307863D-04
  0.12851652D-14  0.61094688D-04  0.10999879D-03 -0.17993240D-13 -0.16791636D-02
 -0.31415359D-02 -0.54278772D-02 -0.87992267D-02 -0.13362470D-01 -0.18572576D-01
 -0.22081370D-01 -0.19670852D-01 -0.97689609D-02 -0.15727201D-02 -0.16593126D-04
 -0.81984472D-05 -0.27348647D-03 -0.95304560D-03 -0.34320715D-02 -0.75655746D-02
 -0.10649887D-01  0.50803433D-03  0.13937227D-01  0.82409950D-02  0.95811082D-07
  0.11605062D-05  0.24201133D-05  0.69404636D-05  0.36040861D-06 -0.29930645D-04
 -0.77335038D-04  0.63008949D-04  0.38727753D-03 -0.20946543D-03 -0.17380666D-03
  0.17701767D-09  0.23317368D-09  0.25722706D-09  0.21364722D-09  0.11345260D-09
  0.29271364D-10  0.36938540D+01  0.48656698D+01  0.53675954D+01  0.44582083D+01
  0.23674323D+01  0.61080991D+00 -0.64583648D+01 -0.85071773D+01 -0.93847483D+01
 -0.77947682D+01 -0.41392382D+01 -0.10679451D+01 -0.45487058D-14  0.43973961D-13
  0.62007876D-13  0.88687666D-13 -0.44910185D-15 -0.81334954D-13 -0.15578757D-03
  0.15060540D-02  0.21236934D-02  0.30374433D-02 -0.15381185D-04 -0.27856220D-02
  0.30125460D-03 -0.29123356D-02 -0.41066972D-02 -0.58736634D-02  0.29743404D-04
  0.53867033D-02  0.12175089D-11  0.23767163D-01 -0.41834510D-01 -0.55863916D-14
 -0.13663054D-03  0.16535887D-03 -0.73405452D-15 -0.10593241D-04  0.52041852D-05
  0.20149504D-04  0.36440260D-03 -0.38455210D-03 -0.12270149D-13  0.74346703D-14
 -0.32648823D-03  0.10115330D-04 -0.24003262D-03  0.22991729D-03 -0.72729347D-14
 -0.20225448D-14  0.41762242D-03 -0.36180617D-06  0.37985535D-04 -0.37623729D-04
 -0.82969217D-15 -0.26830186D-14 -0.16332926D-04 -0.13382175D-14 -0.34380520D-04
  0.99450620D-05 -0.51417593D-14  0.53359410D-04  0.85487435D-05  0.91564117D-14
  0.49782150D-04 -0.38383929D-04  0.17879532D-14  0.16714856D-14 -0.42095627D-04
 -0.16758551D-04 -0.78340161D-16  0.15220574D-04 -0.35800247D-04 -0.49361167D-14
  0.11106631D-03  0.86075900D-04 -0.25943770D-14 -0.12338895D-02 -0.23084757D-02
 -0.39885339D-02 -0.64658821D-02 -0.98190625D-02 -0.13647573D-01 -0.16225919D-01
 -0.14454612D-01 -0.71784660D-02 -0.11556723D-02 -0.12193025D-04 -0.60624994D-05
 -0.20223483D-03 -0.70474790D-03 -0.25379113D-02 -0.55945096D-02 -0.78752639D-02
  0.37567575D-03  0.10306150D-01  0.60939622D-02  0.90492007D-07  0.10960792D-05
  0.22857576D-05  0.65551548D-05  0.34040006D-06 -0.28269007D-04 -0.73041684D-04
  0.59510926D-04  0.25841381D-03 -0.16942916D-03 -0.15968447D-03  0.10404477D-08
  0.13705130D-08  0.15118904D-08  0.12557434D-08  0.66683457D-09  0.17204680D-09
 -0.44757243D+01 -0.58955759D+01 -0.65037430D+01 -0.54018678D+01 -0.28685417D+01
 -0.74009876D+00 -0.77220135D+01 -0.10171698D+02 -0.11220975D+02 -0.93198986D+01
 -0.49491248D+01 -0.12769001D+01 -0.42182171D-13  0.40779009D-12  0.57502660D-12
  0.82244015D-12 -0.41647211D-14 -0.75425519D-12  0.19422002D-03 -0.18775942D-02
 -0.26476038D-02 -0.37867738D-02  0.19175689D-04  0.34728287D-02  0.36185960D-03
 -0.34982258D-02 -0.49328636D-02 -0.70552998D-02  0.35727045D-04  0.64703754D-02
  0.68590445D-11 -0.28787637D-01 -0.49980948D-01 -0.48596381D-13  0.19537138D-03
  0.27356115D-03 -0.22764118D-14  0.12629905D-04  0.90981271D-05  0.24295920D-04
  0.48807903D-03 -0.51237495D-03 -0.79132797D-13  0.57888033D-13  0.47015049D-03
 -0.45007881D-06 -0.30429930D-03  0.30474938D-03  0.54271854D-13 -0.33515502D-13
 -0.47721593D-03 -0.92431193D-06  0.37879716D-04 -0.36955405D-04 -0.19593478D-14
  0.17532922D-14  0.17063215D-04  0.60990025D-15  0.30788697D-04  0.10057103D-04
  0.15770573D-14 -0.48679189D-04  0.20514647D-05 -0.34067581D-14 -0.43686902D-04
 -0.32222775D-04 -0.32532363D-14  0.31577997D-14  0.53673819D-04 -0.10263486D-04
 -0.91376812D-14 -0.13072569D-04 -0.43812921D-04 -0.33571797D-15 -0.14794889D-03
  0.74603380D-04  0.15695449D-13
MO    3     MO 0.0        OCC NO =    2.0000335  ORB. ENERGY =    0.000000
  0.15348327D-10  0.28606757D-10  0.48506777D-10  0.73409849D-10  0.91573000D-10
  0.78583258D-10  0.30093213D-10  0.18689795D-14  0.20052923D-13  0.73918851D-13
  0.21613438D-12  0.26045244D-12 -0.31374257D-12  0.13948878D-11 -0.12381566D-12
 -0.16524929D-13  0.74821532D-04  0.72551717D-04  0.48942960D-04  0.74559295D-13
  0.72297436D-13  0.48771423D-13 -0.47640931D-12 -0.46195677D-12 -0.31163331D-12
  0.21386313D-04  0.17106984D-12  0.57814674D-13  0.54014453D-05  0.13687430D-12
  0.59686893D-13  0.22284314D-07  0.33179432D-14  0.11636449D-14 -0.27788923D-13
  0.69351421D-14  0.20853781D-13  0.11535502D-03  0.12748380D-04  0.37604877D-13
  0.42260197D-14  0.15406902D-13 -0.19632921D-13  0.33212555D-04 -0.92040567D-05
  0.95079784D-14  0.64902117D-14 -0.43760831D-14 -0.21141286D-14 -0.15868680D-03
 -0.21349853D-05 -0.18512437D-13  0.17424793D-05  0.28276955D-13  0.47306577D-14
 -0.29428781D-05 -0.45663700D-13  0.41452096D-14 -0.22845598D-05 -0.39167164D-13
 -0.18337183D-13 -0.78152413D-03 -0.15387253D-05  0.17119088D-14 -0.62906835D-14
 -0.36173989D-06  0.41384848D-13 -0.36065972D-15  0.49779159D-05 -0.46520574D-13
  0.19232710D-13  0.24317311D-03  0.59197668D-11  0.11035638D-10  0.18651732D-10
  0.28037031D-10  0.34438471D-10  0.29064855D-10  0.10929144D-10  0.13347457D-14
  0.99763975D-14  0.37284075D-13  0.10401676D-12  0.13935379D-12 -0.16455084D-12
  0.34465489D-12  0.56447557D-12  0.93474955D-13 -0.10304106D-03 -0.96607546D-04
 -0.68790328D-04 -0.14067470D-12 -0.13189148D-12 -0.93914589D-13  0.35901820D-12
  0.33660238D-12  0.23968095D-12 -0.19604396D-04 -0.15579585D-13  0.87579817D-13
  0.17821381D-06  0.20019744D-13 -0.10571494D-12 -0.72889102D-07  0.30852785D-14
 -0.45413490D-14  0.43598459D-14  0.37504655D-13 -0.41864501D-13  0.12037478D-02
  0.20897768D-04 -0.39689428D-13 -0.80079747D-13  0.40567342D-13  0.39512405D-13
 -0.46126461D-04 -0.14045682D-04 -0.18342493D-13 -0.92599186D-14  0.15282376D-13
 -0.60224577D-14  0.72279695D-04  0.30486334D-06 -0.13321912D-13  0.47434260D-05
 -0.50178437D-13  0.28732912D-13 -0.34272928D-05 -0.10449402D-13 -0.32177479D-13
 -0.10802985D-04  0.16098471D-12 -0.54021258D-13 -0.35078521D-03 -0.17503979D-05
  0.51818795D-13  0.79578396D-15  0.38140614D-05 -0.77646552D-14  0.10250284D-13
  0.14371324D-05 -0.14769173D-12 -0.12637636D-13  0.35490185D-03  0.47469619D-10
  0.88810592D-10  0.15344500D-09  0.24875238D-09  0.37775436D-09  0.52504302D-09
  0.62423592D-09  0.55609105D-09  0.27616657D-09  0.44460482D-10  0.46908435D-12
  0.24454632D-13  0.81576559D-12  0.28427798D-11  0.10237310D-10  0.22566876D-10
  0.31766878D-10 -0.15153836D-11 -0.41572477D-10 -0.24581545D-10  0.83662047D-15
  0.10133517D-13  0.21132381D-13  0.60603990D-13  0.31470808D-14 -0.26135380D-12
 -0.67528802D-12  0.55019289D-12 -0.14869380D-11 -0.14563710D-12 -0.61370670D-13
  0.82692727D+01  0.10892567D+02  0.12016206D+02  0.99803999D+01  0.52998693D+01
  0.13673940D+01  0.20042003D-08  0.26400007D-08  0.29123340D-08  0.24189214D-08
  0.12845144D-08  0.33141143D-09 -0.14384603D-08 -0.18947887D-08 -0.20902486D-08
 -0.17361151D-08 -0.92192530D-09 -0.23786155D-09 -0.36174346D-03  0.34971030D-02
  0.49312803D-02  0.70530353D-02 -0.35715578D-04 -0.64682986D-02 -0.88145446D-13
  0.85213345D-12  0.12015971D-11  0.17186017D-11 -0.87027573D-14 -0.15761199D-11
  0.75578230D-13 -0.73064170D-12 -0.10302811D-11 -0.14735745D-11  0.74619737D-14
  0.13514068D-11  0.54069926D-01  0.13599173D-10 -0.88633036D-11 -0.42515795D-03
 -0.16723579D-12  0.73414067D-13 -0.15013517D-04 -0.55896855D-14  0.24759000D-14
 -0.25240877D-13  0.20545774D-12 -0.18021686D-12  0.91206563D-03  0.52055512D-03
 -0.98798282D-13  0.27237852D-13 -0.15080393D-12  0.12356608D-12 -0.48270296D-03
 -0.32841992D-03 -0.16652108D-14  0.42430606D-14 -0.29724777D-14 -0.12705828D-14
  0.21650856D-04  0.37044451D-04 -0.13242884D-13  0.24019657D-04 -0.30091808D-14
  0.70806952D-16  0.38745722D-04  0.11750907D-13 -0.90337496D-14 -0.11080469D-03
 -0.27233642D-14  0.88213288D-14  0.64541005D-05  0.18008138D-04 -0.19950159D-13
  0.12077905D-13 -0.91111996D-04  0.10104508D-13 -0.24193809D-14  0.37087583D-04
  0.49745968D-13 -0.33814334D-13 -0.15132265D-03 -0.66641429D-11 -0.12467900D-10
 -0.21541766D-10 -0.34921734D-10 -0.53032004D-10 -0.73709496D-10 -0.87634943D-10
 -0.78068252D-10 -0.38770345D-10 -0.62416975D-11 -0.65853596D-13  0.52103299D-13
  0.17380788D-11  0.60568567D-11  0.21811722D-10  0.48081226D-10  0.67682849D-10
 -0.32286925D-11 -0.88574761D-10 -0.52373702D-10  0.14908364D-14  0.18057669D-13
  0.37657365D-13  0.10799477D-12  0.56080178D-14 -0.46572581D-12 -0.12033460D-11
  0.98042971D-12 -0.32996104D-11 -0.21058648D-12 -0.11557179D-12 -0.81587512D+01
 -0.10746984D+02 -0.11855606D+02 -0.98470086D+01 -0.52290348D+01 -0.13491183D+01
  0.80865081D-10  0.10651823D-09  0.11750628D-09  0.97598166D-10  0.51827335D-10
  0.13371723D-10  0.11943118D-08  0.15731881D-08  0.17354727D-08  0.14414460D-08
  0.76544781D-09  0.19748954D-09  0.35598796D-03 -0.34414625D-02 -0.48528214D-02
 -0.69408184D-02  0.35147327D-04  0.63653851D-02 -0.14087144D-13  0.13618545D-12
  0.19203570D-12  0.27466185D-12 -0.13908489D-14 -0.25189082D-12 -0.56372557D-13
  0.54497361D-12  0.76846967D-12  0.10991149D-11 -0.55657632D-14 -0.10079920D-11
 -0.53306155D-01  0.31076290D-14  0.79788590D-11  0.42299615D-03  0.57040145D-13
 -0.17286486D-12  0.15318147D-04  0.19202212D-14 -0.53079674D-14 -0.13697379D-13
 -0.12328661D-12  0.13698399D-12  0.90197578D-03 -0.50081860D-03 -0.11848786D-12
  0.45909412D-13  0.28324396D-13 -0.74233808D-13 -0.46098368D-03  0.30756177D-03
  0.12186479D-12  0.83089905D-14 -0.58566875D-14 -0.24523030D-14  0.21454069D-04
 -0.36700600D-04  0.21727630D-13 -0.21498756D-04  0.10561916D-13  0.21401141D-15
 -0.45158113D-04 -0.20432174D-13  0.56083436D-14  0.10965438D-03 -0.11253575D-13
 -0.62503778D-14  0.12612630D-04 -0.17137213D-04 -0.10033399D-13 -0.56174661D-14
  0.90037613D-04 -0.14118425D-13  0.17452325D-13 -0.38625974D-04  0.44218622D-13
 -0.59992626D-15 -0.14353104D-03
MO    4     MO 0.0        OCC NO =    2.0000300  ORB. ENERGY =    0.000000
  0.54151570D-11  0.10092962D-10  0.17114036D-10  0.25900274D-10  0.32308550D-10
  0.27725542D-10  0.10617410D-10  0.69459635D-15  0.74525630D-14  0.27471550D-13
  0.80325202D-13  0.96795774D-13 -0.11660077D-12  0.48162272D-12  0.18048453D-12
  0.67230227D-13 -0.52010004D-02 -0.50432208D-02 -0.34021270D-02  0.22453475D-12
  0.21772318D-12  0.14687477D-12  0.33371466D-13  0.32359096D-13  0.21829255D-13
 -0.14813969D-02  0.81187064D-13 -0.22877412D-13 -0.31079228D-03  0.42927328D-13
 -0.39604650D-13  0.14426896D-04  0.67941559D-14  0.34944751D-15 -0.11536587D-13
 -0.26269948D-13  0.37806535D-13 -0.63490117D-05 -0.38634360D-03  0.27831530D-13
 -0.12208958D-13  0.61950409D-14  0.60139174D-14  0.54362850D-05  0.17490005D-03
  0.89321722D-14  0.14883827D-14 -0.13170694D-14 -0.17131326D-15  0.22629389D-05
  0.27549862D-04 -0.28472768D-14  0.63058963D-04  0.14105401D-13 -0.16469220D-14
 -0.33267745D-03 -0.28412777D-14 -0.11595661D-14  0.14350056D-03 -0.39474926D-13
  0.61003322D-14  0.15948471D-04 -0.26650268D-04  0.21061486D-15  0.44415004D-14
  0.13873670D-03  0.91811430D-14 -0.84471394D-16 -0.58785891D-04 -0.98129876D-14
 -0.13240030D-13 -0.66911101D-05 -0.36728944D-11 -0.68470150D-11 -0.11572388D-10
 -0.17395458D-10 -0.21367204D-10 -0.18033167D-10 -0.67809416D-11 -0.91794360D-15
 -0.68610597D-14 -0.25641347D-13 -0.71535365D-13 -0.95837666D-13  0.11316641D-12
 -0.19827292D-12 -0.53319944D-12 -0.58279458D-13  0.37018013D-02  0.34706740D-02
  0.24713267D-02 -0.31144949D-12 -0.29200369D-12 -0.20792403D-12 -0.66005140D-14
 -0.61884014D-14 -0.44065105D-14  0.84385660D-03  0.38957699D-13  0.59820752D-15
  0.87982180D-04  0.51482033D-13  0.63027328D-13 -0.15971492D-04 -0.33022327D-14
 -0.82721094D-15 -0.10007863D-13  0.69960411D-13 -0.59952548D-13 -0.93217791D-05
 -0.10320841D-02 -0.10525386D-13  0.79186247D-13 -0.50931772D-13 -0.28254476D-13
  0.61225389D-05  0.91240406D-04 -0.87673142D-13  0.75700297D-14  0.52343022D-14
 -0.12804332D-13 -0.37889118D-06 -0.41656975D-04 -0.17626807D-13 -0.86592468D-04
 -0.10401044D-13 -0.22270508D-13  0.13295430D-03 -0.22457016D-14  0.61844255D-14