 cl2co-wavefunction
GAUSSIAN            192 MOL ORBITALS    372 PRIMITIVES        4 NUCLEI
  O    1    (CENTRE  1)   0.00000000  0.00000000  1.29143317  CHARGE =  8.0
  C    2    (CENTRE  2)   0.00000000  0.00000000 -0.93482295  CHARGE =  6.0
  Cl   3    (CENTRE  3)   0.00000000 -2.73418805 -2.77752892  CHARGE = 17.0
  Cl   4    (CENTRE  4)  -0.01889726  2.73418805 -2.77752892  CHARGE = 17.0
CENTRE ASSIGNMENTS    1  1  1  1  1  1  1  1  1  1  1  1  1  1  1  1  1  1  1  1
CENTRE ASSIGNMENTS    1  1  1  1  1  1  1  1  1  1  1  1  1  1  1  1  1  1  1  1
CENTRE ASSIGNMENTS    1  1  1  1  1  1  1  1  1  1  1  1  1  1  1  1  1  1  1  1
CENTRE ASSIGNMENTS    1  1  1  1  1  1  1  1  1  1  1  1  2  2  2  2  2  2  2  2
CENTRE ASSIGNMENTS    2  2  2  2  2  2  2  2  2  2  2  2  2  2  2  2  2  2  2  2
CENTRE ASSIGNMENTS    2  2  2  2  2  2  2  2  2  2  2  2  2  2  2  2  2  2  2  2
CENTRE ASSIGNMENTS    2  2  2  2  2  2  2  2  2  2  2  2  2  2  2  2  2  2  2  2
CENTRE ASSIGNMENTS    2  2  2  2  3  3  3  3  3  3  3  3  3  3  3  3  3  3  3  3
CENTRE ASSIGNMENTS    3  3  3  3  3  3  3  3  3  3  3  3  3  3  3  3  3  3  3  3
CENTRE ASSIGNMENTS    3  3  3  3  3  3  3  3  3  3  3  3  3  3  3  3  3  3  3  3
CENTRE ASSIGNMENTS    3  3  3  3  3  3  3  3  3  3  3  3  3  3  3  3  3  3  3  3
CENTRE ASSIGNMENTS    3  3  3  3  3  3  3  3  3  3  3  3  3  3  3  3  3  3  3  3
CENTRE ASSIGNMENTS    3  3  3  3  3  3  3  3  3  3  3  3  3  3  3  3  3  3  4  4
CENTRE ASSIGNMENTS    4  4  4  4  4  4  4  4  4  4  4  4  4  4  4  4  4  4  4  4
CENTRE ASSIGNMENTS    4  4  4  4  4  4  4  4  4  4  4  4  4  4  4  4  4  4  4  4
CENTRE ASSIGNMENTS    4  4  4  4  4  4  4  4  4  4  4  4  4  4  4  4  4  4  4  4
CENTRE ASSIGNMENTS    4  4  4  4  4  4  4  4  4  4  4  4  4  4  4  4  4  4  4  4
CENTRE ASSIGNMENTS    4  4  4  4  4  4  4  4  4  4  4  4  4  4  4  4  4  4  4  4
CENTRE ASSIGNMENTS    4  4  4  4  4  4  4  4  4  4  4  4
TYPE ASSIGNMENTS      1  1  1  1  1  1  1  1  1  1  1  1  1  1  1  1  2  2  2  3
TYPE ASSIGNMENTS      3  3  4  4  4  2  3  4  2  3  4  2  3  4  5  6  7  8  9 10
TYPE ASSIGNMENTS      5  6  7  8  9 10  5  6  7  8  9 10 11 12 13 17 14 15 18 19
TYPE ASSIGNMENTS     16 20 11 12 13 17 14 15 18 19 16 20  1  1  1  1  1  1  1  1
TYPE ASSIGNMENTS      1  1  1  1  1  1  1  1  2  2  2  3  3  3  4  4  4  2  3  4
TYPE ASSIGNMENTS      2  3  4  2  3  4  5  6  7  8  9 10  5  6  7  8  9 10  5  6
TYPE ASSIGNMENTS      7  8  9 10 11 12 13 17 14 15 18 19 16 20 11 12 13 17 14 15
TYPE ASSIGNMENTS     18 19 16 20  1  1  1  1  1  1  1  1  1  1  1  1  1  1  1  1
TYPE ASSIGNMENTS      1  1  1  1  1  1  1  1  1  1  1  1  1  1  1  2  2  2  2  2
TYPE ASSIGNMENTS      2  3  3  3  3  3  3  4  4  4  4  4  4  2  2  2  2  2  2  3
TYPE ASSIGNMENTS      3  3  3  3  3  4  4  4  4  4  4  2  3  4  2  3  4  2  3  4
TYPE ASSIGNMENTS      5  6  7  8  9 10  5  6  7  8  9 10  5  6  7  8  9 10 11 12
TYPE ASSIGNMENTS     13 17 14 15 18 19 16 20 11 12 13 17 14 15 18 19 16 20  1  1
TYPE ASSIGNMENTS      1  1  1  1  1  1  1  1  1  1  1  1  1  1  1  1  1  1  1  1
TYPE ASSIGNMENTS      1  1  1  1  1  1  1  1  1  2  2  2  2  2  2  3  3  3  3  3
TYPE ASSIGNMENTS      3  4  4  4  4  4  4  2  2  2  2  2  2  3  3  3  3  3  3  4
TYPE ASSIGNMENTS      4  4  4  4  4  2  3  4  2  3  4  2  3  4  5  6  7  8  9 10
TYPE ASSIGNMENTS      5  6  7  8  9 10  5  6  7  8  9 10 11 12 13 17 14 15 18 19
TYPE ASSIGNMENTS     16 20 11 12 13 17 14 15 18 19 16 20
EXPONENTS  0.1533000D+05 0.2299000D+04 0.5224000D+03 0.1473000D+03 0.4755000D+02
EXPONENTS  0.1676000D+02 0.6207000D+01 0.5224000D+03 0.1473000D+03 0.4755000D+02
EXPONENTS  0.1676000D+02 0.6207000D+01 0.6882000D+00 0.1752000D+01 0.2384000D+00
EXPONENTS  0.7376000D-01 0.3446000D+02 0.7749000D+01 0.2280000D+01 0.3446000D+02
EXPONENTS  0.7749000D+01 0.2280000D+01 0.3446000D+02 0.7749000D+01 0.2280000D+01
EXPONENTS  0.7156000D+00 0.7156000D+00 0.7156000D+00 0.2140000D+00 0.2140000D+00
EXPONENTS  0.2140000D+00 0.5974000D-01 0.5974000D-01 0.5974000D-01 0.2314000D+01
EXPONENTS  0.2314000D+01 0.2314000D+01 0.2314000D+01 0.2314000D+01 0.2314000D+01
EXPONENTS  0.6450000D+00 0.6450000D+00 0.6450000D+00 0.6450000D+00 0.6450000D+00
EXPONENTS  0.6450000D+00 0.2140000D+00 0.2140000D+00 0.2140000D+00 0.2140000D+00
EXPONENTS  0.2140000D+00 0.2140000D+00 0.1428000D+01 0.1428000D+01 0.1428000D+01
EXPONENTS  0.1428000D+01 0.1428000D+01 0.1428000D+01 0.1428000D+01 0.1428000D+01
EXPONENTS  0.1428000D+01 0.1428000D+01 0.5000000D+00 0.5000000D+00 0.5000000D+00
EXPONENTS  0.5000000D+00 0.5000000D+00 0.5000000D+00 0.5000000D+00 0.5000000D+00
EXPONENTS  0.5000000D+00 0.5000000D+00 0.8236000D+04 0.1235000D+04 0.2808000D+03
EXPONENTS  0.7927000D+02 0.2559000D+02 0.8997000D+01 0.3319000D+01 0.2808000D+03
EXPONENTS  0.7927000D+02 0.2559000D+02 0.8997000D+01 0.3319000D+01 0.3643000D+00
EXPONENTS  0.9059000D+00 0.1285000D+00 0.4402000D-01 0.1871000D+02 0.4133000D+01
EXPONENTS  0.1200000D+01 0.1871000D+02 0.4133000D+01 0.1200000D+01 0.1871000D+02
EXPONENTS  0.4133000D+01 0.1200000D+01 0.3827000D+00 0.3827000D+00 0.3827000D+00
EXPONENTS  0.1209000D+00 0.1209000D+00 0.1209000D+00 0.3569000D-01 0.3569000D-01
EXPONENTS  0.3569000D-01 0.1097000D+01 0.1097000D+01 0.1097000D+01 0.1097000D+01
EXPONENTS  0.1097000D+01 0.1097000D+01 0.3180000D+00 0.3180000D+00 0.3180000D+00
EXPONENTS  0.3180000D+00 0.3180000D+00 0.3180000D+00 0.1000000D+00 0.1000000D+00
EXPONENTS  0.1000000D+00 0.1000000D+00 0.1000000D+00 0.1000000D+00 0.7610000D+00
EXPONENTS  0.7610000D+00 0.7610000D+00 0.7610000D+00 0.7610000D+00 0.7610000D+00
EXPONENTS  0.7610000D+00 0.7610000D+00 0.7610000D+00 0.7610000D+00 0.2680000D+00
EXPONENTS  0.2680000D+00 0.2680000D+00 0.2680000D+00 0.2680000D+00 0.2680000D+00
EXPONENTS  0.2680000D+00 0.2680000D+00 0.2680000D+00 0.2680000D+00 0.4561000D+06
EXPONENTS  0.6833000D+05 0.1555000D+05 0.4405000D+04 0.1439000D+04 0.5204000D+03
EXPONENTS  0.2031000D+03 0.8396000D+02 0.3620000D+02 0.1583000D+02 0.6334000D+01
EXPONENTS  0.4405000D+04 0.1439000D+04 0.5204000D+03 0.2031000D+03 0.8396000D+02
EXPONENTS  0.3620000D+02 0.1583000D+02 0.6334000D+01 0.2694000D+01 0.1439000D+04
EXPONENTS  0.2031000D+03 0.8396000D+02 0.3620000D+02 0.1583000D+02 0.6334000D+01
EXPONENTS  0.2694000D+01 0.4313000D+00 0.9768000D+00 0.1625000D+00 0.5910000D-01
EXPONENTS  0.6633000D+03 0.1568000D+03 0.4998000D+02 0.1842000D+02 0.7240000D+01
EXPONENTS  0.2922000D+01 0.6633000D+03 0.1568000D+03 0.4998000D+02 0.1842000D+02
EXPONENTS  0.7240000D+01 0.2922000D+01 0.6633000D+03 0.1568000D+03 0.4998000D+02
EXPONENTS  0.1842000D+02 0.7240000D+01 0.2922000D+01 0.1568000D+03 0.4998000D+02
EXPONENTS  0.1842000D+02 0.7240000D+01 0.2922000D+01 0.3818000D+00 0.1568000D+03
EXPONENTS  0.4998000D+02 0.1842000D+02 0.7240000D+01 0.2922000D+01 0.3818000D+00
EXPONENTS  0.1568000D+03 0.4998000D+02 0.1842000D+02 0.7240000D+01 0.2922000D+01
EXPONENTS  0.3818000D+00 0.1022000D+01 0.1022000D+01 0.1022000D+01 0.1301000D+00
EXPONENTS  0.1301000D+00 0.1301000D+00 0.4190000D-01 0.4190000D-01 0.4190000D-01
EXPONENTS  0.1046000D+01 0.1046000D+01 0.1046000D+01 0.1046000D+01 0.1046000D+01
EXPONENTS  0.1046000D+01 0.3440000D+00 0.3440000D+00 0.3440000D+00 0.3440000D+00
EXPONENTS  0.3440000D+00 0.3440000D+00 0.1350000D+00 0.1350000D+00 0.1350000D+00
EXPONENTS  0.1350000D+00 0.1350000D+00 0.1350000D+00 0.7060000D+00 0.7060000D+00
EXPONENTS  0.7060000D+00 0.7060000D+00 0.7060000D+00 0.7060000D+00 0.7060000D+00
EXPONENTS  0.7060000D+00 0.7060000D+00 0.7060000D+00 0.3120000D+00 0.3120000D+00
EXPONENTS  0.3120000D+00 0.3120000D+00 0.3120000D+00 0.3120000D+00 0.3120000D+00
EXPONENTS  0.3120000D+00 0.3120000D+00 0.3120000D+00 0.4561000D+06 0.6833000D+05
EXPONENTS  0.1555000D+05 0.4405000D+04 0.1439000D+04 0.5204000D+03 0.2031000D+03
EXPONENTS  0.8396000D+02 0.3620000D+02 0.1583000D+02 0.6334000D+01 0.4405000D+04
EXPONENTS  0.1439000D+04 0.5204000D+03 0.2031000D+03 0.8396000D+02 0.3620000D+02
EXPONENTS  0.1583000D+02 0.6334000D+01 0.2694000D+01 0.1439000D+04 0.2031000D+03
EXPONENTS  0.8396000D+02 0.3620000D+02 0.1583000D+02 0.6334000D+01 0.2694000D+01
EXPONENTS  0.4313000D+00 0.9768000D+00 0.1625000D+00 0.5910000D-01 0.6633000D+03
EXPONENTS  0.1568000D+03 0.4998000D+02 0.1842000D+02 0.7240000D+01 0.2922000D+01
EXPONENTS  0.6633000D+03 0.1568000D+03 0.4998000D+02 0.1842000D+02 0.7240000D+01
EXPONENTS  0.2922000D+01 0.6633000D+03 0.1568000D+03 0.4998000D+02 0.1842000D+02
EXPONENTS  0.7240000D+01 0.2922000D+01 0.1568000D+03 0.4998000D+02 0.1842000D+02
EXPONENTS  0.7240000D+01 0.2922000D+01 0.3818000D+00 0.1568000D+03 0.4998000D+02
EXPONENTS  0.1842000D+02 0.7240000D+01 0.2922000D+01 0.3818000D+00 0.1568000D+03
EXPONENTS  0.4998000D+02 0.1842000D+02 0.7240000D+01 0.2922000D+01 0.3818000D+00
EXPONENTS  0.1022000D+01 0.1022000D+01 0.1022000D+01 0.1301000D+00 0.1301000D+00
EXPONENTS  0.1301000D+00 0.4190000D-01 0.4190000D-01 0.4190000D-01 0.1046000D+01
EXPONENTS  0.1046000D+01 0.1046000D+01 0.1046000D+01 0.1046000D+01 0.1046000D+01
EXPONENTS  0.3440000D+00 0.3440000D+00 0.3440000D+00 0.3440000D+00 0.3440000D+00
EXPONENTS  0.3440000D+00 0.1350000D+00 0.1350000D+00 0.1350000D+00 0.1350000D+00
EXPONENTS  0.1350000D+00 0.1350000D+00 0.7060000D+00 0.7060000D+00 0.7060000D+00
EXPONENTS  0.7060000D+00 0.7060000D+00 0.7060000D+00 0.7060000D+00 0.7060000D+00
EXPONENTS  0.7060000D+00 0.7060000D+00 0.3120000D+00 0.3120000D+00 0.3120000D+00
EXPONENTS  0.3120000D+00 0.3120000D+00 0.3120000D+00 0.3120000D+00 0.3120000D+00
EXPONENTS  0.3120000D+00 0.3120000D+00
MO    1     MO 0.0        OCC NO =    2.0000387  ORB. ENERGY =    0.000000
 -0.11046727D-05 -0.20589284D-05 -0.34912024D-05 -0.52835635D-05 -0.65908291D-05
 -0.56559119D-05 -0.21659138D-05 -0.19838169D-09 -0.21285053D-08 -0.78460714D-08
 -0.22941453D-07 -0.27645566D-07  0.33302014D-07 -0.10477700D-06 -0.11773172D-07
 -0.47546601D-07  0.30280889D-05  0.29362276D-05  0.19807618D-05 -0.87626684D-03
 -0.84968407D-03 -0.57319186D-03 -0.28867381D-06 -0.27991649D-06 -0.18883001D-06
  0.32549341D-05 -0.94198293D-03 -0.13010811D-06  0.26256511D-05 -0.75997334D-03
 -0.10697542D-06  0.68543529D-07 -0.19846346D-04 -0.19373573D-08 -0.50531480D-07
  0.63766684D-07 -0.13235204D-07  0.72290831D-05  0.69221993D-06 -0.20042988D-03
  0.29315810D-07 -0.62480441D-07  0.33164632D-07 -0.43792476D-05  0.24432586D-06
 -0.70668161D-04 -0.77671900D-08 -0.84901453D-08  0.16257335D-07 -0.13223403D-05
 -0.38749240D-06  0.11215487D-03 -0.76848715D-06 -0.14729877D-03 -0.88659634D-08
  0.30639470D-05  0.22239398D-03  0.30830658D-07 -0.75848559D-06  0.21950234D-03
 -0.42327682D-08 -0.81659340D-05  0.69274019D-06 -0.10266874D-04 -0.44580326D-08
 -0.12791065D-05 -0.20048005D-03 -0.24653963D-07 -0.79911404D-06  0.23128067D-03
  0.38028061D-07  0.50211728D-05  0.68276416D-06  0.12728099D-05  0.21512222D-05
  0.32336882D-05  0.39720068D-05  0.33522336D-05  0.12605274D-05  0.77281260D-09
  0.57762954D-08  0.21587335D-07  0.60225303D-07  0.80685302D-07 -0.95274297D-07
  0.19587115D-07 -0.12015505D-08 -0.16570069D-07 -0.38316874D-05 -0.35924505D-05
 -0.25580387D-05  0.11087654D-02  0.10395380D-02  0.74021300D-03 -0.22137511D-06
 -0.20755324D-06 -0.14779027D-06 -0.49756602D-06  0.14393672D-03 -0.17625996D-06
 -0.24763245D-06  0.71702460D-04  0.45075903D-07  0.30214087D-07 -0.87400986D-05
  0.35185555D-08  0.12212840D-07 -0.14694064D-06  0.13472780D-06  0.46228609D-06
 -0.63568545D-06  0.18403703D-03 -0.19670209D-07  0.62509026D-07 -0.42838817D-07
  0.12911036D-05 -0.25727297D-06  0.74517991D-04  0.53066828D-09 -0.19960013D-07
  0.19429345D-07 -0.76221320D-07 -0.18880124D-06  0.54664815D-04 -0.12852822D-06
  0.25495163D-03 -0.30904386D-07 -0.23857602D-05  0.37237929D-04  0.46319512D-07
  0.27713449D-05 -0.80209283D-03  0.46393647D-07 -0.94906100D-06 -0.94087372D-07
 -0.25893179D-03  0.16266738D-07  0.28722230D-05  0.27206798D-04 -0.34093170D-07
 -0.25899608D-05  0.74958856D-03 -0.14707043D-07  0.43511521D-05 -0.27003512D-03
 -0.50520689D-03 -0.87288545D-03 -0.14150499D-02 -0.21488890D-02 -0.29867535D-02
 -0.35510211D-02 -0.31633730D-02 -0.15709979D-02 -0.25291737D-03 -0.26684277D-05
 -0.15723982D-05 -0.52452572D-04 -0.18278671D-03 -0.65824454D-03 -0.14510182D-02
 -0.20425653D-02  0.97437021D-04  0.26730514D-02  0.15805585D-02  0.27586737D-06
  0.33414276D-05  0.69681949D-05  0.19983570D-04  0.10377190D-05 -0.86178845D-04
 -0.22266959D-03  0.18142070D-03  0.81455885D-04 -0.10093060D-03 -0.57150348D-04
  0.25192611D-01  0.33184562D-01  0.36607767D-01  0.30405617D-01  0.16146226D-01
  0.41658108D-02 -0.46645346D+01 -0.61442832D+01 -0.67781062D+01 -0.56297479D+01
 -0.29895523D+01 -0.77132013D+00  0.67701854D+01  0.89179179D+01  0.98378594D+01
  0.81711126D+01  0.43390875D+01  0.11195073D+01 -0.12887903D-05  0.12459195D-04
  0.17568766D-04  0.25127982D-04 -0.12724457D-06 -0.23044730D-04  0.23746294D-03
 -0.22956389D-02 -0.32370906D-02 -0.46298958D-02  0.23445141D-04  0.42460511D-02
 -0.33433711D-03  0.32321560D-02  0.45576774D-02  0.65186843D-02 -0.33009700D-04
 -0.59782484D-02  0.16246512D-03 -0.29937554D-01  0.43673303D-01 -0.24094793D-05
  0.34409603D-03 -0.55710368D-03 -0.82258456D-07  0.10943642D-04 -0.17207288D-04
 -0.14430445D-04 -0.74761599D-03  0.76204643D-03  0.42153930D-05  0.41540388D-05
  0.68719868D-03  0.58534473D-04  0.43216707D-03 -0.49070154D-03 -0.20109512D-05
 -0.32449677D-05 -0.35240477D-03  0.47713044D-05 -0.18260788D-05 -0.29452255D-05
  0.17235173D-07 -0.20479464D-06 -0.48944845D-05  0.41429017D-07 -0.13851392D-04
 -0.26235148D-05 -0.47039675D-06  0.18500094D-04  0.37027970D-04  0.34610969D-06
  0.23054082D-04 -0.29157425D-04  0.43702329D-06  0.13119931D-06  0.75076697D-04
 -0.42085188D-04  0.34886227D-06  0.11411399D-04  0.51392181D-04 -0.74246020D-06
 -0.23664149D-03  0.74863384D-04 -0.19755788D-05  0.27089758D-03  0.50682047D-03
  0.87567335D-03  0.14195694D-02  0.21557523D-02  0.29962929D-02  0.35623627D-02
  0.31734765D-02  0.15760155D-02  0.25372517D-03  0.26769504D-05  0.15765338D-05
  0.52590529D-04  0.18326746D-03  0.65997581D-03  0.14548345D-02  0.20479375D-02
 -0.97693293D-04 -0.26800819D-02 -0.15847156D-02 -0.27584219D-06 -0.33411226D-05
 -0.69675589D-05 -0.19981746D-04 -0.10376242D-05  0.86170979D-04  0.22264926D-03
 -0.18140414D-03 -0.81654651D-04  0.10099006D-03  0.57207565D-04  0.70433632D-02
  0.92777571D-02  0.10234818D-01  0.85008180D-02  0.45141702D-02  0.11646795D-02
 -0.46631350D+01 -0.61424396D+01 -0.67760724D+01 -0.56280587D+01 -0.29886553D+01
 -0.77108870D+00 -0.67677498D+01 -0.89147097D+01 -0.98343203D+01 -0.81681730D+01
 -0.43375265D+01 -0.11191045D+01 -0.35233952D-06  0.34061918D-05  0.48030859D-05
  0.68696835D-05 -0.34787110D-07 -0.63001477D-05  0.23740180D-03 -0.22950479D-02
 -0.32362571D-02 -0.46287037D-02  0.23439104D-04  0.42449578D-02  0.33421808D-03
 -0.32310054D-02 -0.45560548D-02 -0.65163636D-02  0.32997948D-04  0.59761200D-02
  0.44429910D-04 -0.29928560D-01 -0.43657510D-01  0.31683182D-07  0.34404284D-03
  0.55701775D-03  0.66479805D-08  0.10940134D-04  0.17205500D-04  0.14427339D-04
  0.74744695D-03 -0.76187428D-03 -0.59176743D-05 -0.89019099D-05  0.68702878D-03
 -0.58532229D-04 -0.43204665D-03  0.49057888D-03  0.31529629D-05  0.56790472D-05
 -0.35220541D-03 -0.47700629D-05  0.18131374D-05  0.29569255D-05 -0.73861980D-07
  0.23879877D-06 -0.48971714D-05 -0.16925279D-06 -0.13860772D-04  0.26191171D-05
  0.10135923D-05  0.18504206D-04 -0.37023747D-04 -0.50583395D-06  0.23078111D-04
  0.29166395D-04 -0.47754315D-06 -0.21010148D-06  0.75051598D-04  0.42087124D-04
 -0.17474567D-05  0.11424991D-04 -0.51363493D-04  0.23777612D-05 -0.23657979D-03
 -0.74897880D-04 -0.16505827D-05
MO    2     MO 0.0        OCC NO =    2.0000377  ORB. ENERGY =    0.000000
  0.55202153D-02  0.10288774D-01  0.17446062D-01  0.26402759D-01  0.32935361D-01
  0.28263440D-01  0.10823396D-01  0.87472980D-06  0.93852767D-05  0.34595897D-04
  0.10115637D-03  0.12189835D-03 -0.14683948D-03  0.54198339D-03  0.20354606D-03
  0.29995746D-03  0.11612961D-06  0.11260666D-06  0.75963784D-07 -0.39886846D-07
 -0.38676824D-07 -0.26091157D-07  0.15917311D-02  0.15434438D-02  0.10411980D-02
  0.15832536D-05 -0.13112084D-06  0.58575874D-03  0.35436772D-05 -0.10650057D-06
  0.49680673D-03  0.26444674D-06 -0.26957810D-08  0.10501818D-04  0.13188486D-03
 -0.21759952D-03  0.85714654D-04  0.24166254D-05  0.29650237D-05 -0.30668821D-07
 -0.76429472D-04  0.24751962D-03 -0.17109014D-03 -0.22396636D-05 -0.12816580D-05
  0.42012773D-09  0.58110635D-04  0.22129253D-04 -0.80239888D-04  0.24845938D-06
 -0.54712193D-06  0.14004742D-07 -0.43516777D-06 -0.15767656D-07  0.32966418D-04
  0.14844435D-05  0.34307712D-07 -0.37569143D-04 -0.17894013D-06  0.12995258D-07
 -0.61330110D-04  0.16276761D-06  0.35823827D-06 -0.25978150D-08  0.34714217D-04
 -0.62724741D-06 -0.26509502D-07  0.32389454D-04 -0.44746741D-06  0.34302947D-07
 -0.13653211D-03  0.11683438D-05 -0.38865775D-02 -0.72453635D-02 -0.12245651D-01
 -0.18407498D-01 -0.22610314D-01 -0.19082308D-01 -0.71754460D-02 -0.41660064D-05
 -0.31138317D-04 -0.11637100D-03 -0.32465697D-03 -0.43495083D-03  0.51359583D-03
 -0.10465935D-03 -0.12406600D-04  0.85663146D-04  0.48402872D-06  0.45380769D-06
  0.32313811D-06  0.97817506D-07  0.91710130D-07  0.65303076D-07  0.97959655D-03
  0.91843403D-03  0.65397974D-03  0.38945656D-06  0.37758073D-07  0.82768374D-03
 -0.78892443D-06 -0.24486923D-08 -0.20428335D-03 -0.73955123D-07 -0.20040010D-08
 -0.21912359D-04 -0.68408989D-04  0.68317181D-03 -0.61476283D-03 -0.51943685D-05
 -0.12647541D-05  0.39546897D-07  0.82278232D-04 -0.16596933D-03  0.83691096D-04
  0.17158939D-05 -0.20779571D-05  0.99713760D-08 -0.12936357D-06  0.11551900D-03
 -0.11538964D-03 -0.79931455D-06 -0.69175554D-06  0.97877119D-08 -0.58063489D-06
  0.36076162D-07  0.13660505D-03 -0.35934661D-06 -0.32072661D-09 -0.17573437D-03
  0.21012513D-05 -0.10790776D-06 -0.23408079D-03  0.40310133D-06  0.23544912D-06
 -0.37226481D-07 -0.68571251D-04  0.12952841D-05 -0.67043684D-09  0.94796071D-04
 -0.20016315D-05  0.11234988D-06  0.11091768D-03 -0.11070283D-06 -0.14779649D-02
 -0.27651146D-02 -0.47775047D-02 -0.77448964D-02 -0.11761368D-01 -0.16347196D-01
 -0.19435563D-01 -0.17313875D-01 -0.85984363D-02 -0.13842755D-02 -0.14604924D-04
 -0.72322071D-05 -0.24125432D-03 -0.84072301D-03 -0.30275797D-02 -0.66739227D-02
 -0.93947291D-02  0.44815920D-03  0.12294635D-01  0.72697404D-02  0.91822581D-07
  0.11121957D-05  0.23193669D-05  0.66515404D-05  0.34540523D-06 -0.28684668D-04
 -0.74115673D-04  0.60385962D-04  0.32827244D-03 -0.19066874D-03 -0.16753046D-03
 -0.21353385D-01 -0.28127403D-01 -0.31028929D-01 -0.25771955D-01 -0.13685623D-01
 -0.35309623D-02  0.41030344D+01  0.54046561D+01  0.59621817D+01  0.49520587D+01
  0.26296806D+01  0.67847134D+00 -0.71168360D+01 -0.93745379D+01 -0.10341583D+02
 -0.85894942D+01 -0.45612598D+01 -0.11768289D+01  0.99086578D-06 -0.95790528D-05
 -0.13507464D-04 -0.19319247D-04  0.97829949D-07  0.17717572D-04 -0.17582437D-03
  0.16997569D-02  0.23968347D-02  0.34281076D-02 -0.17359455D-04 -0.31438980D-02
  0.33292332D-03 -0.32184885D-02 -0.45384047D-02 -0.64911193D-02  0.32870115D-04
  0.59529686D-02 -0.13877077D-03  0.26394595D-01 -0.46080221D-01 -0.96365067D-07
 -0.16693875D-03  0.22031879D-03  0.71350093D-08 -0.11651792D-04  0.71475778D-05
  0.22315762D-04  0.42842958D-03 -0.45074534D-03 -0.13384743D-05 -0.16005551D-05
 -0.39932691D-03  0.47232733D-05 -0.27380072D-03  0.26907744D-03  0.20582003D-05
  0.13240634D-06  0.44931798D-03 -0.66167826D-06  0.38074197D-04 -0.37412518D-04
 -0.26067690D-06 -0.45493987D-06 -0.16766197D-04 -0.24702620D-06 -0.32804284D-04
  0.10025532D-04  0.32271502D-06  0.51266316D-04  0.52448854D-05  0.41836359D-06
  0.47146536D-04 -0.35321482D-04  0.71534966D-06 -0.49632831D-07 -0.48095405D-04
 -0.13491380D-04  0.68056753D-06  0.14145515D-04 -0.40023751D-04 -0.53166903D-06
  0.13014070D-03  0.80497892D-04 -0.50686622D-06 -0.14773693D-02 -0.27640003D-02
 -0.47755795D-02 -0.77417754D-02 -0.11756629D-01 -0.16340608D-01 -0.19427731D-01
 -0.17306898D-01 -0.85949714D-02 -0.13837177D-02 -0.14599039D-04 -0.72293267D-05
 -0.24115824D-03 -0.84038817D-03 -0.30263739D-02 -0.66712646D-02 -0.93909874D-02
  0.44798070D-03  0.12289738D-01  0.72668450D-02  0.91792787D-07  0.11118348D-05
  0.23186143D-05  0.66493821D-05  0.34529315D-06 -0.28675360D-04 -0.74091624D-04
  0.60366368D-04  0.32810222D-03 -0.19061247D-03 -0.16750382D-03  0.70062406D-02
  0.92288579D-02  0.10180875D-01  0.84560137D-02  0.44903779D-02  0.11585410D-02
 -0.41046515D+01 -0.54067862D+01 -0.59645316D+01 -0.49540105D+01 -0.26307170D+01
 -0.67873874D+00 -0.71192068D+01 -0.93776608D+01 -0.10345028D+02 -0.85923555D+01
 -0.45627792D+01 -0.11772209D+01 -0.22441846D-06  0.21695332D-05  0.30592683D-05
  0.43755630D-05 -0.22157235D-07 -0.40128040D-05  0.17590454D-03 -0.17005320D-02
 -0.23979276D-02 -0.34296708D-02  0.17367370D-04  0.31453316D-02  0.33303719D-03
 -0.32195892D-02 -0.45399569D-02 -0.64933393D-02  0.32881356D-04  0.59550046D-02
  0.43664956D-04 -0.26404997D-01 -0.46095497D-01 -0.12500258D-05  0.16705261D-03
  0.22051610D-03 -0.73389366D-07  0.11655626D-04  0.71545615D-05  0.22330141D-04
  0.42866115D-03 -0.45099129D-03 -0.42768248D-05 -0.43635748D-05  0.39956112D-03
  0.47063787D-05 -0.27393062D-03  0.26922424D-03  0.17927323D-05  0.32396194D-05
 -0.44941357D-03 -0.66259430D-06  0.38074291D-04 -0.37411697D-04 -0.27477865D-06
 -0.57073465D-06  0.16764520D-04  0.10723182D-06  0.32795578D-04  0.10025973D-04
 -0.10657060D-05 -0.51254441D-04  0.52353086D-05  0.74401051D-06 -0.47132292D-04
 -0.35313228D-04 -0.15472625D-06  0.48080234D-07  0.48118462D-04 -0.13478524D-04
 -0.51277802D-06 -0.14143507D-04 -0.40036095D-04  0.36853732D-06 -0.13021188D-03
  0.80471666D-04 -0.11596054D-05
MO    3     MO 0.0        OCC NO =    2.0000335  ORB. ENERGY =    0.000000
  0.14280923D-08  0.26617291D-08  0.45133358D-08  0.68304538D-08  0.85204527D-08
  0.73118161D-08  0.28000371D-08  0.61702159D-12  0.66202367D-11  0.24403439D-10
  0.71354224D-10  0.85985310D-10 -0.10357842D-09  0.10025331D-09 -0.18278042D-09
 -0.57928806D-10  0.10149158D-06  0.98412689D-07  0.66388618D-07  0.67700127D-05
  0.65646350D-05  0.44284640D-05 -0.56073759D-10 -0.54372684D-10 -0.36679491D-10
  0.29846769D-07  0.19441565D-05  0.13872354D-09 -0.11001509D-07  0.74837055D-05
  0.83628547D-10 -0.19104014D-08  0.74477476D-06  0.13901429D-11 -0.39822937D-06
  0.39823150D-06 -0.21255603D-11  0.11525206D-03  0.10159517D-08  0.66167689D-05
 -0.11507964D-06  0.11511524D-06 -0.35605706D-10  0.33298232D-04 -0.30868192D-09
 -0.34079660D-05  0.54836539D-06 -0.54835020D-06 -0.15187896D-10 -0.15868513D-03
  0.72724502D-09 -0.16885084D-05 -0.11892302D-07 -0.11008293D-05  0.20329492D-10
  0.47335801D-07  0.39744967D-05  0.27006782D-05 -0.11658894D-07 -0.67200872D-06
 -0.27007392D-05 -0.78152727D-03  0.38860776D-08  0.32697971D-06  0.36279054D-11
 -0.18012301D-07 -0.14458554D-05 -0.84008946D-06  0.63540676D-08  0.46491625D-06
  0.84007858D-06  0.24310524D-03 -0.59304715D-08 -0.11055594D-07 -0.18685459D-07
 -0.28087730D-07 -0.34500746D-07 -0.29117413D-07 -0.10948907D-07 -0.13306273D-11
 -0.99456146D-11 -0.37169032D-10 -0.10369581D-09 -0.13892380D-09  0.16404310D-09
 -0.46042770D-09  0.17767325D-09  0.12893250D-10 -0.12750509D-06 -0.11954413D-06
 -0.85122541D-07 -0.90091641D-05 -0.84466640D-05 -0.60145280D-05 -0.21477434D-09
 -0.20136460D-09 -0.14338359D-09 -0.25769316D-07 -0.70937343D-06  0.17489384D-09
  0.16581976D-07 -0.52827668D-05 -0.41531718D-10  0.14220745D-08 -0.47481574D-06
  0.24612013D-11 -0.41588048D-05  0.41588651D-05 -0.60264070D-10  0.12034898D-02
  0.39177967D-07  0.31039736D-06  0.15856659D-06 -0.15864598D-06  0.79395290D-10
 -0.45906125D-04 -0.27698897D-08 -0.56216428D-05 -0.24979264D-06  0.24977708D-06
  0.15560565D-10  0.72283754D-04  0.35844471D-08 -0.11277541D-05  0.11700358D-07
  0.42141759D-06  0.46382946D-10 -0.19981355D-07 -0.17998810D-05  0.12107614D-05
 -0.15119718D-07  0.53562818D-06 -0.12109006D-05 -0.35038846D-03 -0.72619469D-08
  0.45682716D-07 -0.33129156D-11  0.13694248D-07  0.15561046D-05 -0.12262502D-05
  0.80915928D-08 -0.16931528D-05  0.12262601D-05  0.35486498D-03 -0.55039320D-04
 -0.10297270D-03 -0.17791398D-03 -0.28841946D-03 -0.43799263D-03 -0.60876855D-03
 -0.72377915D-03 -0.64476762D-03 -0.32020523D-03 -0.51550334D-04 -0.54388647D-06
 -0.25757903D-06 -0.85924051D-05 -0.29942812D-04 -0.10782891D-03 -0.23769542D-03
 -0.33459844D-03  0.15961436D-04  0.43788016D-03  0.25891580D-03 -0.49378863D-08
 -0.59809862D-07 -0.12472716D-06 -0.35769578D-06 -0.18574644D-07  0.15425577D-05
  0.39856728D-05 -0.32473386D-05  0.14742880D-04 -0.69830159D-06 -0.22055172D-05
  0.82142173D+01  0.10820046D+02  0.11936204D+02  0.99139522D+01  0.52645837D+01
  0.13582901D+01  0.22445108D-02  0.29565458D-02  0.32615328D-02  0.27089583D-02
  0.14385320D-02  0.37114879D-03 -0.29027313D-01 -0.38235762D-01 -0.42180031D-01
 -0.35033818D-01 -0.18603930D-01 -0.47999111D-02 -0.35886845D-03  0.34693093D-02
  0.48920882D-02  0.69969803D-02 -0.35431723D-04 -0.64168908D-02 -0.37455552D-08
  0.36209618D-07  0.51059341D-07  0.73028365D-07 -0.36980536D-09 -0.66973898D-07
  0.13566183D-05 -0.13114913D-04 -0.18493396D-04 -0.26450448D-04  0.13394135D-06
  0.24257556D-04  0.53688829D-01  0.12010067D-04 -0.19221291D-03 -0.42412118D-03
 -0.49995892D-06 -0.21141773D-06 -0.15167544D-04  0.37454617D-07 -0.46580660D-07
  0.36042979D-06  0.68985205D-06 -0.10502818D-05  0.90730139D-03  0.51078074D-03
 -0.13011706D-05 -0.64088100D-06 -0.17315977D-06  0.81404077D-06 -0.47180591D-03
 -0.31787231D-03  0.27011976D-05  0.15956884D-06  0.18763076D-06 -0.34719959D-06
  0.21549634D-04  0.36872606D-04 -0.18230280D-06  0.22741470D-04 -0.23333025D-06
  0.45580976D-06  0.41988664D-04  0.50906277D-06 -0.11801991D-05 -0.11021307D-03
  0.19092798D-06 -0.18723015D-06  0.96123261D-05  0.17575490D-04 -0.32226597D-07
 -0.36576323D-06 -0.90604648D-04 -0.46007122D-06  0.34691466D-06  0.37878176D-04
  0.55675101D-06  0.75037502D-06 -0.14742373D-03  0.55031662D-04  0.10295837D-03
  0.17788922D-03  0.28837933D-03  0.43793168D-03  0.60868384D-03  0.72367844D-03
  0.64467790D-03  0.32016068D-03  0.51543161D-04  0.54381079D-06  0.25754325D-06
  0.85912118D-05  0.29938653D-04  0.10781394D-03  0.23766241D-03  0.33455196D-03
 -0.15959219D-04 -0.43781934D-03 -0.25887984D-03  0.49368548D-08  0.59797367D-07
  0.12470111D-06  0.35762106D-06  0.18570764D-07 -0.15422354D-05 -0.39848402D-05
  0.32466602D-05 -0.14740646D-04  0.69819471D-06  0.22054943D-05 -0.82138987D+01
 -0.10819626D+02 -0.11935741D+02 -0.99135676D+01 -0.52643795D+01 -0.13582374D+01
 -0.54525297D-01 -0.71822571D-01 -0.79231538D-01 -0.65807996D-01 -0.34945872D-01
 -0.90162177D-02  0.29027052D-01  0.38235418D-01  0.42179652D-01  0.35033503D-01
  0.18603762D-01  0.47998679D-02  0.35885251D-03 -0.34691552D-02 -0.48918710D-02
 -0.69966696D-02  0.35430150D-04  0.64166059D-02  0.24764472D-05 -0.23940698D-04
 -0.33758883D-04 -0.48284133D-04  0.24450405D-06  0.44281104D-04 -0.13566035D-05
  0.13114770D-04  0.18493194D-04  0.26450160D-04 -0.13393989D-06 -0.24257292D-04
 -0.53686653D-01 -0.35904159D-03  0.19221086D-03  0.42411188D-03  0.24313104D-05
  0.21146956D-06  0.15167397D-04  0.14228086D-06  0.46577284D-07 -0.66308916D-05
  0.55806829D-05  0.10502087D-05  0.90720792D-03 -0.51073907D-03 -0.48313393D-05
  0.39013154D-05 -0.30873689D-05 -0.81394653D-06 -0.47172301D-03  0.31781762D-03
  0.48977289D-05 -0.30850840D-06 -0.38704490D-07  0.34721289D-06  0.21548381D-04
 -0.36869968D-04 -0.43716761D-06 -0.22742350D-04 -0.52353486D-06 -0.45581539D-06
 -0.41981270D-04  0.61791520D-06  0.11136796D-05  0.11020832D-03  0.95268938D-06
  0.25376652D-06  0.96334212D-05 -0.17565336D-04  0.59391631D-06  0.36577193D-06
  0.90578998D-04 -0.20766020D-05  0.67183624D-06 -0.37882992D-04  0.29485308D-06
 -0.17691520D-05 -0.14739261D-03
MO    4     MO 0.0        OCC NO =    2.0000300  ORB. ENERGY =    0.000000
 -0.54522793D-04 -0.10162152D-03 -0.17231357D-03 -0.26077826D-03 -0.32530033D-03
 -0.27915608D-03 -0.10690195D-03 -0.31251868D-07 -0.33531203D-06 -0.12360233D-05
 -0.36140596D-05 -0.43551175D-05  0.52462006D-05 -0.37993494D-05  0.13467796D-05
 -0.67497821D-07 -0.52014711D-02 -0.50436773D-02 -0.34024349D-02 -0.17974470D-04
 -0.17429190D-04 -0.11757628D-04 -0.30503247D-05 -0.29577888D-05 -0.19953069D-05
 -0.14815085D-02 -0.51195852D-05 -0.22617387D-05 -0.31072341D-03 -0.10737948D-05
  0.51177755D-07  0.14433103D-04  0.49877765D-07 -0.19112990D-07 -0.18116126D-05
  0.16289387D-05  0.18267391D-06 -0.18366373D-07 -0.38617591D-03 -0.13344738D-05
  0.10330773D-05 -0.70092919D-06 -0.33214816D-06  0.95162471D-08  0.17474867D-03
  0.60378867D-06  0.54083664D-06 -0.11218385D-05  0.58100185D-06  0.11742372D-07
  0.27511155D-04  0.95078053D-07  0.63078991D-04 -0.11504261D-05  0.15744499D-05
 -0.33289064D-03  0.29547714D-05  0.81167321D-06  0.14365366D-03  0.49650672D-06
 -0.55350229D-05  0.47066554D-07 -0.26687872D-04  0.47961225D-06 -0.64274270D-06
  0.13878745D-03 -0.12359392D-05 -0.68723113D-06 -0.58723834D-04 -0.20289757D-06
  0.26154592D-05 -0.18744894D-07  0.13499627D-03  0.25166024D-03  0.42534009D-03
  0.63936549D-03  0.78534599D-03  0.66280431D-03  0.24923173D-03  0.33673822D-07
  0.25169095D-06  0.94062656D-06  0.26242016D-05  0.35157067D-05 -0.41513941D-05
  0.91397454D-05  0.20128542D-06  0.10396407D-05  0.37015945D-02  0.34704801D-02
  0.24711886D-02  0.12791767D-04  0.11993095D-04  0.85397981D-05  0.34022356D-05
  0.31898121D-05  0.22713362D-05  0.84379165D-03  0.29157292D-05 -0.12596615D-05
  0.87927808D-04  0.30377636D-06  0.24809221D-05 -0.15974068D-04 -0.55202432D-07
  0.79163370D-08 -0.47554181D-05  0.12749039D-05  0.34805142D-05 -0.57687267D-07
 -0.10320980D-02 -0.35665392D-05 -0.13270059D-06  0.14781283D-05 -0.13454277D-05
  0.19592957D-08  0.91057486D-04  0.31463228D-06 -0.24662177D-06  0.88366416D-06
 -0.63704239D-06 -0.72426543D-08 -0.41661978D-04 -0.14396818D-06 -0.86535853D-04
  0.45949818D-06  0.14114391D-06  0.13295900D-03 -0.18160638D-05  0.12094219D-05