 Entering Gaussian System, Link 0=/home/bruns/programas/chemistry/gaussian/g09/g09
 Input=GAUSSIAN.com
 Output=GAUSSIAN.log
 Initial command:
 /home/bruns/programas/chemistry/gaussian/g09/l1.exe /home/bruns/programas/chemistry/gaussian/work/Gau-48067.inp -scrdir=/home/bruns/programas/chemistry/gaussian/work/
 Entering Link 1 = /home/bruns/programas/chemistry/gaussian/g09/l1.exe PID=     48069.
  
 Copyright (c) 1988,1990,1992,1993,1995,1998,2003,2009,2010,
            Gaussian, Inc.  All Rights Reserved.
  
 This is part of the Gaussian(R) 09 program.  It is based on
 the Gaussian(R) 03 system (copyright 2003, Gaussian, Inc.),
 the Gaussian(R) 98 system (copyright 1998, Gaussian, Inc.),
 the Gaussian(R) 94 system (copyright 1995, Gaussian, Inc.),
 the Gaussian 92(TM) system (copyright 1992, Gaussian, Inc.),
 the Gaussian 90(TM) system (copyright 1990, Gaussian, Inc.),
 the Gaussian 88(TM) system (copyright 1988, Gaussian, Inc.),
 the Gaussian 86(TM) system (copyright 1986, Carnegie Mellon
 University), and the Gaussian 82(TM) system (copyright 1983,
 Carnegie Mellon University). Gaussian is a federally registered
 trademark of Gaussian, Inc.
  
 This software contains proprietary and confidential information,
 including trade secrets, belonging to Gaussian, Inc.
  
 This software is provided under written license and may be
 used, copied, transmitted, or stored only in accord with that
 written license.
  
 The following legend is applicable only to US Government
 contracts under FAR:
  
                    RESTRICTED RIGHTS LEGEND
  
 Use, reproduction and disclosure by the US Government is
 subject to restrictions as set forth in subparagraphs (a)
 and (c) of the Commercial Computer Software - Restricted
 Rights clause in FAR 52.227-19.
  
 Gaussian, Inc.
 340 Quinnipiac St., Bldg. 40, Wallingford CT 06492
  
  
 ---------------------------------------------------------------
 Warning -- This program may not be used in any manner that
 competes with the business of Gaussian, Inc. or will provide
 assistance to any competitor of Gaussian, Inc.  The licensee
 of this program is prohibited from giving any competitor of
 Gaussian, Inc. access to this program.  By using this program,
 the user acknowledges that Gaussian, Inc. is engaged in the
 business of creating and licensing software in the field of
 computational chemistry and represents and warrants to the
 licensee that it is not a competitor of Gaussian, Inc. and that
 it will not use this program in any manner prohibited above.
 ---------------------------------------------------------------
  

 Cite this work as:
 Gaussian 09, Revision B.01,
 M. J. Frisch, G. W. Trucks, H. B. Schlegel, G. E. Scuseria, 
 M. A. Robb, J. R. Cheeseman, G. Scalmani, V. Barone, B. Mennucci, 
 G. A. Petersson, H. Nakatsuji, M. Caricato, X. Li, H. P. Hratchian, 
 A. F. Izmaylov, J. Bloino, G. Zheng, J. L. Sonnenberg, M. Hada, 
 M. Ehara, K. Toyota, R. Fukuda, J. Hasegawa, M. Ishida, T. Nakajima, 
 Y. Honda, O. Kitao, H. Nakai, T. Vreven, J. A. Montgomery, Jr., 
 J. E. Peralta, F. Ogliaro, M. Bearpark, J. J. Heyd, E. Brothers, 
 K. N. Kudin, V. N. Staroverov, T. Keith, R. Kobayashi, J. Normand, 
 K. Raghavachari, A. Rendell, J. C. Burant, S. S. Iyengar, J. Tomasi, 
 M. Cossi, N. Rega, J. M. Millam, M. Klene, J. E. Knox, J. B. Cross, 
 V. Bakken, C. Adamo, J. Jaramillo, R. Gomperts, R. E. Stratmann, 
 O. Yazyev, A. J. Austin, R. Cammi, C. Pomelli, J. W. Ochterski, 
 R. L. Martin, K. Morokuma, V. G. Zakrzewski, G. A. Voth, 
 P. Salvador, J. J. Dannenberg, S. Dapprich, A. D. Daniels, 
 O. Farkas, J. B. Foresman, J. V. Ortiz, J. Cioslowski, 
 and D. J. Fox, Gaussian, Inc., Wallingford CT, 2010.
 
 ******************************************
 Gaussian 09:  EM64L-G09RevB.01 12-Aug-2010
                27-Nov-2021 
 ******************************************
 %nproc=8
 Will use up to    8 processors via shared memory.
 %mem=8GB
 -----------------------------------------------------
 # qcisd/aug-cc-pvtz nosymm density=current output=wfn
 -----------------------------------------------------
 1/30=1,38=1/1;
 2/12=2,15=1,17=6,18=5,40=1/2;
 3/5=16,6=1,7=10,11=9,16=1,25=1,30=1,71=1/1,2,3;
 4//1;
 5/5=2,38=5/2;
 8/6=4,9=120000,10=1/1,4;
 9/5=8,15=1/13;
 11/28=-7,31=1,32=3,42=3/11;
 10/5=6,13=10,31=1/2;
 6/7=2,8=2,9=2,10=2,22=-1,31=1/1;
 99/5=1,6=1100,9=1/99;
 ------------------
 cl2co-wavefunction
 ------------------
 Symbolic Z-matrix:
 Charge =  0 Multiplicity = 1
 O                     0.        0.        0.6834 
 C                     0.        0.       -0.50469 
 Cl                    0.       -1.44687  -1.46981 
 Cl                    0.        1.44687  -1.46981 
 
                          Input orientation:                          
 ---------------------------------------------------------------------
 Center     Atomic      Atomic             Coordinates (Angstroms)
 Number     Number       Type             X           Y           Z
 ---------------------------------------------------------------------
      1          8           0        0.000000    0.000000    0.683397
      2          6           0        0.000000    0.000000   -0.504687
      3         17           0        0.000000   -1.446870   -1.469805
      4         17           0        0.000000    1.446870   -1.469805
 ---------------------------------------------------------------------
                    Distance matrix (angstroms):
                    1          2          3          4
     1  O    0.000000
     2  C    1.188084   0.000000
     3  Cl   2.594169   1.739220   0.000000
     4  Cl   2.594169   1.739220   2.893740   0.000000
 Symmetry turned off by external request.
 Stoichiometry    CCl2O
 Framework group  C2V[C2(CO),SGV(Cl2)]
 Deg. of freedom     3
 Full point group                 C2V     NOp   4
 Rotational constants (GHZ):      7.9328351      3.4518093      2.4052252
 Standard basis: Aug-CC-pVTZ (5D, 7F)
 Integral buffers will be    131072 words long.
 Raffenetti 1 integral format.
 Two-electron integral symmetry is turned off.
   192 basis functions,   372 primitive gaussians,   228 cartesian basis functions
    24 alpha electrons       24 beta electrons
       nuclear repulsion energy       191.7825266389 Hartrees.
 NAtoms=    4 NActive=    4 NUniq=    4 SFac= 1.00D+00 NAtFMM=   50 NAOKFM=F Big=F
 One-electron integrals computed using PRISM.
 NBasis=   192 RedAO= T  NBF=   192
 NBsUse=   192 1.00D-06 NBFU=   192
 Harris functional with IExCor=  205 diagonalized for initial guess.
 ExpMin= 3.57D-02 ExpMax= 4.56D+05 ExpMxC= 1.44D+03 IAcc=3 IRadAn=         0 AccDes= 0.00D+00
 HarFok:  IExCor=  205 AccDes= 0.00D+00 IRadAn=         0 IDoV= 1
 ScaDFX=  1.000000  1.000000  1.000000  1.000000
 FoFCou: FMM=F IPFlag=           0 FMFlag=      100000 FMFlg1=           0
         NFxFlg=           0 DoJE=T BraDBF=F KetDBF=T FulRan=T
         Omega=  0.000000  0.000000  1.000000  0.000000  0.000000 ICntrl=     500 IOpCl=  0
         NMat0=    1 NMatS0=    1 NMatT0=    0 NMatD0=    1 NMtDS0=    0 NMtDT0=    0
         I1Cent=           4 NGrid=           0.
 Symmetry not used in FoFCou.
 Requested convergence on RMS density matrix=1.00D-08 within 128 cycles.
 Requested convergence on MAX density matrix=1.00D-06.
 Requested convergence on             energy=1.00D-06.
 No special actions if energy rises.
 Keep R1 ints in memory in canonical form, NReq=346956363.
 SCF Done:  E(RHF) =  -1031.80177641     A.U. after   12 cycles
             Convg  =    0.5065D-08             -V/T =  2.0003
 ExpMin= 3.57D-02 ExpMax= 4.56D+05 ExpMxC= 1.44D+03 IAcc=3 IRadAn=         5 AccDes= 0.00D+00
 HarFok:  IExCor=  205 AccDes= 0.00D+00 IRadAn=         5 IDoV=-2
 ScaDFX=  1.000000  1.000000  1.000000  1.000000
 DSYEVD returned Info=          93 IAlg= 4 N=    46 NDim=    46 NE2=    21472416 trying DSYEV.
 DSYEVD returned Info=         101 IAlg= 4 N=    50 NDim=    50 NE2=    21472416 trying DSYEV.
 Range of M.O.s used for correlation:    13   192
 NBasis=   192 NAE=    24 NBE=    24 NFC=    12 NFV=     0
 NROrb=    180 NOA=    12 NOB=    12 NVA=   168 NVB=   168

 **** Warning!!: The largest alpha MO coefficient is  0.30145738D+02

 Semi-Direct transformation.
 ModeAB=           2 MOrb=            12 LenV=    1072714351
 LASXX=     33405819 LTotXX=    33405819 LenRXX=    33405819
 LTotAB=    33954012 MaxLAS=    56388960 LenRXY=    56388960
 NonZer=    66811638 LenScr=   100987392 LnRSAI=           0
 LnScr1=           0 LExtra=           0 Total=    190782171
 MaxDsk=          -1 SrtSym=           F ITran=            4
 JobTyp=0 Pass  1:  I=   1 to  12.
 (rs|ai) integrals will be sorted in core.
 Spin components of T(2) and E(2):
     alpha-alpha T2 =       0.3535010212D-01 E2=     -0.1019624277D+00
     alpha-beta  T2 =       0.1839369918D+00 E2=     -0.5764981852D+00
     beta-beta   T2 =       0.3535010212D-01 E2=     -0.1019624277D+00
 ANorm=    0.1120105886D+01
 E2 =    -0.7804230405D+00 EUMP2 =    -0.10325821994468D+04
 R2 and R3 integrals will be kept in memory, NReq=   687553722.
 Iterations=  50 Convergence= 0.100D-07
 Iteration Nr.   1
 **********************
 DD1Dir will call FoFMem   1 times, MxPair=       156
 NAB=    78 NAA=     0 NBB=     0.
 MP4(R+Q)=  0.22581361D-01
 E3=       -0.18598019D-01        EUMP3=      -0.10326007975D+04
 E4(DQ)=    0.27330729D-02        UMP4(DQ)=   -0.10325980644D+04
 E4(SDQ)=  -0.63957203D-02        UMP4(SDQ)=  -0.10326071932D+04
 DE(Corr)= -0.77643970     E(Corr)=     -1032.5782161    
 NORM(A)=   0.11215532D+01
 Iteration Nr.   2
 **********************
 DD1Dir will call FoFMem   1 times, MxPair=       156
 NAB=    78 NAA=     0 NBB=     0.
 DE(Corr)= -0.80247916     E(CORR)=     -1032.6042556     Delta=-2.60D-02
 NORM(A)=   0.11310003D+01
 Iteration Nr.   3
 **********************
 DD1Dir will call FoFMem   1 times, MxPair=       156
 NAB=    78 NAA=     0 NBB=     0.
 DE(Corr)= -0.80078085     E(CORR)=     -1032.6025573     Delta= 1.70D-03
 NORM(A)=   0.11336682D+01
 Iteration Nr.   4
 **********************
 DD1Dir will call FoFMem   1 times, MxPair=       156
 NAB=    78 NAA=     0 NBB=     0.
 DE(Corr)= -0.80325824     E(CORR)=     -1032.6050346     Delta=-2.48D-03
 NORM(A)=   0.11347125D+01
 Iteration Nr.   5
 **********************
 DD1Dir will call FoFMem   1 times, MxPair=       156
 NAB=    78 NAA=     0 NBB=     0.
 DE(Corr)= -0.80358686     E(CORR)=     -1032.6053633     Delta=-3.29D-04
 NORM(A)=   0.11351182D+01
 Iteration Nr.   6
 **********************
 DD1Dir will call FoFMem   1 times, MxPair=       156
 NAB=    78 NAA=     0 NBB=     0.
 DE(Corr)= -0.80363944     E(CORR)=     -1032.6054158     Delta=-5.26D-05
 NORM(A)=   0.11351929D+01
 Iteration Nr.   7
 **********************
 DD1Dir will call FoFMem   1 times, MxPair=       156
 NAB=    78 NAA=     0 NBB=     0.
 DE(Corr)= -0.80364894     E(CORR)=     -1032.6054253     Delta=-9.50D-06
 NORM(A)=   0.11351933D+01
 Iteration Nr.   8
 **********************
 DD1Dir will call FoFMem   1 times, MxPair=       156
 NAB=    78 NAA=     0 NBB=     0.
 DE(Corr)= -0.80364887     E(CORR)=     -1032.6054253     Delta= 6.99D-08
 NORM(A)=   0.11352015D+01
 Iteration Nr.   9
 **********************
 DD1Dir will call FoFMem   1 times, MxPair=       156
 NAB=    78 NAA=     0 NBB=     0.
 DE(Corr)= -0.80364725     E(CORR)=     -1032.6054237     Delta= 1.62D-06
 NORM(A)=   0.11352008D+01
 Iteration Nr.  10
 **********************
 DD1Dir will call FoFMem   1 times, MxPair=       156
 NAB=    78 NAA=     0 NBB=     0.
 DE(Corr)= -0.80364861     E(CORR)=     -1032.6054250     Delta=-1.36D-06
 NORM(A)=   0.11352024D+01
 Iteration Nr.  11
 **********************
 DD1Dir will call FoFMem   1 times, MxPair=       156
 NAB=    78 NAA=     0 NBB=     0.
 DE(Corr)= -0.80364934     E(CORR)=     -1032.6054257     Delta=-7.22D-07
 NORM(A)=   0.11352036D+01
 Iteration Nr.  12
 **********************
 DD1Dir will call FoFMem   1 times, MxPair=       156
 NAB=    78 NAA=     0 NBB=     0.
 DE(Corr)= -0.80364964     E(CORR)=     -1032.6054260     Delta=-3.04D-07
 NORM(A)=   0.11352043D+01
 Iteration Nr.  13
 **********************
 DD1Dir will call FoFMem   1 times, MxPair=       156
 NAB=    78 NAA=     0 NBB=     0.
 DE(Corr)= -0.80364997     E(CORR)=     -1032.6054264     Delta=-3.26D-07
 NORM(A)=   0.11352048D+01
 Iteration Nr.  14
 **********************
 DD1Dir will call FoFMem   1 times, MxPair=       156
 NAB=    78 NAA=     0 NBB=     0.
 DE(Corr)= -0.80365004     E(CORR)=     -1032.6054264     Delta=-7.29D-08
 NORM(A)=   0.11352050D+01
 Iteration Nr.  15
 **********************
 DD1Dir will call FoFMem   1 times, MxPair=       156
 NAB=    78 NAA=     0 NBB=     0.
 DE(Corr)= -0.80365009     E(CORR)=     -1032.6054265     Delta=-5.11D-08
 NORM(A)=   0.11352050D+01
 Iteration Nr.  16
 **********************
 DD1Dir will call FoFMem   1 times, MxPair=       156
 NAB=    78 NAA=     0 NBB=     0.
 DE(Corr)= -0.80365011     E(CORR)=     -1032.6054265     Delta=-1.51D-08
 NORM(A)=   0.11352051D+01
 Iteration Nr.  17
 **********************
 DD1Dir will call FoFMem   1 times, MxPair=       156
 NAB=    78 NAA=     0 NBB=     0.
 DE(Corr)= -0.80365011     E(CORR)=     -1032.6054265     Delta=-6.11D-11
 NORM(A)=   0.11352051D+01
 Iteration Nr.  18
 **********************
 DD1Dir will call FoFMem   1 times, MxPair=       156
 NAB=    78 NAA=     0 NBB=     0.
 DE(Corr)= -0.80365011     E(CORR)=     -1032.6054265     Delta=-3.39D-10
 NORM(A)=   0.11352051D+01
 Iteration Nr.  19
 **********************
 DD1Dir will call FoFMem   1 times, MxPair=       156
 NAB=    78 NAA=     0 NBB=     0.
 DE(Corr)= -0.80365011     E(CORR)=     -1032.6054265     Delta= 3.78D-10
 NORM(A)=   0.11352051D+01
 Largest amplitude= 3.47D-02

 Z-AMPLITUDE ITERATIONS

 Iteration Nr.   1
 **********************
 DD1Dir will call FoFMem   1 times, MxPair=       156
 NAB=    78 NAA=     0 NBB=     0.
 DE(Z)  -0.77549587D+00          E(Z)=    -0.10325772723D+04
 NORM(A)=   0.11351924D+01
 Iteration Nr.   2
 **********************
 DD1Dir will call FoFMem   1 times, MxPair=       156
 NAB=    78 NAA=     0 NBB=     0.
 DE(Z)  -0.77549547D+00          E(Z)=    -0.10325772719D+04
 NORM(A)=   0.11352016D+01
 Iteration Nr.   3
 **********************
 DD1Dir will call FoFMem   1 times, MxPair=       156
 NAB=    78 NAA=     0 NBB=     0.
 DE(Z)  -0.77549577D+00          E(Z)=    -0.10325772722D+04
 NORM(A)=   0.11352046D+01
 Iteration Nr.   4
 **********************
 DD1Dir will call FoFMem   1 times, MxPair=       156
 NAB=    78 NAA=     0 NBB=     0.
 DE(Z)  -0.77549586D+00          E(Z)=    -0.10325772723D+04
 NORM(A)=   0.11352051D+01
 Iteration Nr.   5
 **********************
 DD1Dir will call FoFMem   1 times, MxPair=       156
 NAB=    78 NAA=     0 NBB=     0.
 DE(Z)  -0.77549587D+00          E(Z)=    -0.10325772723D+04
 NORM(A)=   0.11255270D+01
 Iteration Nr.   6
 **********************
 DD1Dir will call FoFMem   1 times, MxPair=       156
 NAB=    78 NAA=     0 NBB=     0.
 DE(Z)  -0.77519755D+00          E(Z)=    -0.10325769740D+04
 NORM(A)=   0.11255027D+01
 Iteration Nr.   7
 **********************
 DD1Dir will call FoFMem   1 times, MxPair=       156
 NAB=    78 NAA=     0 NBB=     0.
 DE(Z)  -0.77518648D+00          E(Z)=    -0.10325769629D+04
 NORM(A)=   0.11254880D+01
 Iteration Nr.   8
 **********************
 DD1Dir will call FoFMem   1 times, MxPair=       156
 NAB=    78 NAA=     0 NBB=     0.
 DE(Z)  -0.77518883D+00          E(Z)=    -0.10325769652D+04
 NORM(A)=   0.11254889D+01
 Iteration Nr.   9
 **********************
 DD1Dir will call FoFMem   1 times, MxPair=       156
 NAB=    78 NAA=     0 NBB=     0.
 DE(Z)  -0.77518883D+00          E(Z)=    -0.10325769652D+04
 NORM(A)=   0.11254898D+01
 Iteration Nr.  10
 **********************
 DD1Dir will call FoFMem   1 times, MxPair=       156
 NAB=    78 NAA=     0 NBB=     0.
 DE(Z)  -0.77518873D+00          E(Z)=    -0.10325769651D+04
 NORM(A)=   0.11254906D+01
 Iteration Nr.  11
 **********************
 DD1Dir will call FoFMem   1 times, MxPair=       156
 NAB=    78 NAA=     0 NBB=     0.
 DE(Z)  -0.77518945D+00          E(Z)=    -0.10325769659D+04
 NORM(A)=   0.11254911D+01
 Iteration Nr.  12
 **********************
 DD1Dir will call FoFMem   1 times, MxPair=       156
 NAB=    78 NAA=     0 NBB=     0.
 DE(Z)  -0.77518921D+00          E(Z)=    -0.10325769656D+04
 NORM(A)=   0.11254912D+01
 Iteration Nr.  13
 **********************
 DD1Dir will call FoFMem   1 times, MxPair=       156
 NAB=    78 NAA=     0 NBB=     0.
 DE(Z)  -0.77518936D+00          E(Z)=    -0.10325769658D+04
 NORM(A)=   0.11254913D+01
 Iteration Nr.  14
 **********************
 DD1Dir will call FoFMem   1 times, MxPair=       156
 NAB=    78 NAA=     0 NBB=     0.
 DE(Z)  -0.77518931D+00          E(Z)=    -0.10325769657D+04
 NORM(A)=   0.11254913D+01
 Iteration Nr.  15
 **********************
 DD1Dir will call FoFMem   1 times, MxPair=       156
 NAB=    78 NAA=     0 NBB=     0.
 DE(Z)  -0.77518931D+00          E(Z)=    -0.10325769657D+04
 NORM(A)=   0.11254913D+01
 Iteration Nr.  16
 **********************
 DD1Dir will call FoFMem   1 times, MxPair=       156
 NAB=    78 NAA=     0 NBB=     0.
 DE(Z)  -0.77518932D+00          E(Z)=    -0.10325769657D+04
 NORM(A)=   0.11254913D+01
 Iteration Nr.  17
 **********************
 DD1Dir will call FoFMem   1 times, MxPair=       156
 NAB=    78 NAA=     0 NBB=     0.
 DE(Z)  -0.77518931D+00          E(Z)=    -0.10325769657D+04
 NORM(A)=   0.11254913D+01
 Discarding MO integrals.
          Differentiating once with respect to electric field.
                with respect to dipole field.
          Electric field/nuclear overlap derivatives assumed to be zero.
          Keep R1 ints in memory in canonical form, NReq=342715808.
          There are     1 degrees of freedom in the 1st order CPHF.  IDoFFX=0.
 LinEq1:  Iter=  0 NonCon=     1 RMS=2.36D-03 Max=5.88D-02
 AX will form     1 AO Fock derivatives at one time.
 LinEq1:  Iter=  1 NonCon=     1 RMS=8.32D-04 Max=1.78D-02
 LinEq1:  Iter=  2 NonCon=     1 RMS=3.13D-04 Max=4.86D-03
 LinEq1:  Iter=  3 NonCon=     1 RMS=1.29D-04 Max=3.31D-03
 LinEq1:  Iter=  4 NonCon=     1 RMS=5.20D-05 Max=1.21D-03
 LinEq1:  Iter=  5 NonCon=     1 RMS=1.64D-05 Max=3.21D-04
 LinEq1:  Iter=  6 NonCon=     1 RMS=4.21D-06 Max=6.56D-05
 LinEq1:  Iter=  7 NonCon=     1 RMS=1.01D-06 Max=1.20D-05
 LinEq1:  Iter=  8 NonCon=     1 RMS=2.16D-07 Max=3.22D-06
 LinEq1:  Iter=  9 NonCon=     1 RMS=4.91D-08 Max=7.63D-07
 LinEq1:  Iter= 10 NonCon=     1 RMS=1.25D-08 Max=2.38D-07
 LinEq1:  Iter= 11 NonCon=     1 RMS=2.61D-09 Max=3.99D-08
 LinEq1:  Iter= 12 NonCon=     1 RMS=4.82D-10 Max=1.19D-08
 LinEq1:  Iter= 13 NonCon=     1 RMS=8.12D-11 Max=1.35D-09
 LinEq1:  Iter= 14 NonCon=     0 RMS=1.15D-11 Max=1.37D-10
 Linear equations converged to 1.000D-10 1.000D-09 after    14 iterations.
 End of Minotr Frequency-dependent properties file   721 does not exist.
 End of Minotr Frequency-dependent properties file   722 does not exist.

 **********************************************************************

            Population analysis using the QCI/CC density.

 **********************************************************************

     Natural Orbital Coefficients:
                           1         2         3         4         5
     Eigenvalues --     2.00004   2.00004   2.00003   2.00003   2.00003
   1 1   O  1S          0.00000   0.01075   0.00000   0.00000   0.00000
   2        2S          0.00000  -0.00026   0.00000   0.00000   0.00000
   3        3S          0.00000   0.00050   0.00000   0.00000   0.00000
   4        4S          0.00000   0.00077   0.00000   0.00000   0.00000
   5        5S          0.00000   0.00294   0.00000   0.00000   0.00000
   6        6PX         0.00000   0.00000   0.00000  -0.00107   0.00000
   7        6PY        -0.00018   0.00000   0.00000   0.00000   0.00026
   8        6PZ         0.00000   0.00033   0.00000   0.00000   0.00000
   9        7PX         0.00000   0.00000   0.00000  -0.00159   0.00000
  10        7PY        -0.00101   0.00000   0.00000   0.00000   0.00048
  11        7PZ         0.00000   0.00064   0.00000   0.00000   0.00000
  12        8PX         0.00000   0.00000   0.00000  -0.00152   0.00000
  13        8PY        -0.00375   0.00000   0.00000   0.00000   0.00153
  14        8PZ         0.00000   0.00242   0.00000   0.00000   0.00000
  15        9PX         0.00000   0.00000   0.00000   0.00033   0.00000
  16        9PY        -0.00050   0.00000   0.00000   0.00000   0.00116
  17        9PZ         0.00000   0.00025   0.00000   0.00000   0.00000
  18       10D 0        0.00000   0.00001   0.00000   0.00000   0.00000
  19       10D+1        0.00000   0.00000   0.00000  -0.00003   0.00000
  20       10D-1       -0.00002   0.00000   0.00000   0.00000   0.00003
  21       10D+2        0.00000   0.00003   0.00000   0.00000   0.00000
  22       10D-2        0.00000   0.00000   0.00001   0.00000   0.00000
  23       11D 0        0.00000  -0.00023   0.00000   0.00000   0.00000
  24       11D+1        0.00000   0.00000   0.00000   0.00013   0.00000
  25       11D-1       -0.00004   0.00000   0.00000   0.00000  -0.00009
  26       11D+2        0.00000  -0.00025   0.00000   0.00000   0.00000
  27       11D-2        0.00000   0.00000   0.00003   0.00000   0.00000
  28       12D 0        0.00000  -0.00075   0.00000   0.00000   0.00000
  29       12D+1        0.00000   0.00000   0.00000   0.00015   0.00000
  30       12D-1        0.00064   0.00000   0.00000   0.00000  -0.00028
  31       12D+2        0.00000   0.00018   0.00000   0.00000   0.00000
  32       12D-2        0.00000   0.00000  -0.00082   0.00000   0.00000
  33       13F 0        0.00000   0.00001   0.00000   0.00000   0.00000
  34       13F+1        0.00000   0.00000   0.00000   0.00002   0.00000
  35       13F-1        0.00003   0.00000   0.00000   0.00000  -0.00002
  36       13F+2        0.00000   0.00000   0.00000   0.00000   0.00000
  37       13F-2        0.00000   0.00000  -0.00006   0.00000   0.00000
  38       13F+3        0.00000   0.00000   0.00000   0.00004   0.00000
  39       13F-3        0.00004   0.00000   0.00000   0.00000   0.00000
  40       14F 0        0.00000   0.00012   0.00000   0.00000   0.00000
  41       14F+1        0.00000   0.00000   0.00000  -0.00008   0.00000
  42       14F-1        0.00030   0.00000   0.00000   0.00000   0.00004
  43       14F+2        0.00000   0.00014   0.00000   0.00000   0.00000
  44       14F-2        0.00000   0.00000   0.00020   0.00000   0.00000
  45       14F+3        0.00000   0.00000   0.00000  -0.00017   0.00000
  46       14F-3       -0.00020   0.00000   0.00000   0.00000   0.00004
  47 2   C  1S          0.00000  -0.01208   0.00000   0.00000   0.00000
  48        2S          0.00000   0.00144   0.00000   0.00000   0.00000
  49        3S          0.00000  -0.00017   0.00000   0.00000   0.00000
  50        4S          0.00000  -0.00005   0.00000   0.00000   0.00000
  51        5S          0.00000   0.00124   0.00000   0.00000   0.00000
  52        6PX         0.00000   0.00000   0.00000   0.00172   0.00000
  53        6PY         0.00052   0.00000   0.00000   0.00000  -0.00073
  54        6PZ         0.00000   0.00046   0.00000   0.00000   0.00000
  55        7PX         0.00000   0.00000   0.00000   0.00198   0.00000
  56        7PY         0.00038   0.00000   0.00000   0.00000   0.00018
  57        7PZ         0.00000   0.00197   0.00000   0.00000   0.00000
  58        8PX         0.00000   0.00000   0.00000   0.00086   0.00000
  59        8PY         0.00069   0.00000   0.00000   0.00000   0.00256
  60        8PZ         0.00000  -0.00190   0.00000   0.00000   0.00000
  61        9PX         0.00000   0.00000   0.00000  -0.00072   0.00000
  62        9PY        -0.00037   0.00000   0.00000   0.00000  -0.00111
  63        9PZ         0.00000  -0.00099   0.00000   0.00000   0.00000
  64       10D 0        0.00000  -0.00032   0.00000   0.00000   0.00000
  65       10D+1        0.00000   0.00000   0.00000  -0.00031   0.00000
  66       10D-1        0.00007   0.00000   0.00000   0.00000  -0.00002
  67       10D+2        0.00000  -0.00023   0.00000   0.00000   0.00000
  68       10D-2        0.00000   0.00000   0.00036   0.00000   0.00000
  69       11D 0        0.00000   0.00042   0.00000   0.00000   0.00000
  70       11D+1        0.00000   0.00000   0.00000   0.00025   0.00000
  71       11D-1        0.00015   0.00000   0.00000   0.00000  -0.00152
  72       11D+2        0.00000   0.00066   0.00000   0.00000   0.00000
  73       11D-2        0.00000   0.00000  -0.00014   0.00000   0.00000
  74       12D 0        0.00000  -0.00398   0.00000   0.00000   0.00000
  75       12D+1        0.00000   0.00000   0.00000  -0.00081   0.00000
  76       12D-1        0.00111   0.00000   0.00000   0.00000  -0.00227
  77       12D+2        0.00000  -0.00231   0.00000   0.00000   0.00000
  78       12D-2        0.00000   0.00000   0.00144   0.00000   0.00000
  79       13F 0        0.00000   0.00017   0.00000   0.00000   0.00000
  80       13F+1        0.00000   0.00000   0.00000   0.00006   0.00000
  81       13F-1       -0.00041   0.00000   0.00000   0.00000   0.00002
  82       13F+2        0.00000   0.00002   0.00000   0.00000   0.00000
  83       13F-2        0.00000   0.00000  -0.00012   0.00000   0.00000
  84       13F+3        0.00000   0.00000   0.00000  -0.00009   0.00000
  85       13F-3       -0.00009   0.00000   0.00000   0.00000   0.00001
  86       14F 0        0.00000  -0.00087   0.00000   0.00000   0.00000
  87       14F+1        0.00000   0.00000   0.00000   0.00012   0.00000
  88       14F-1        0.00413   0.00000   0.00000   0.00000  -0.00044
  89       14F+2        0.00000  -0.00003   0.00000   0.00000   0.00000
  90       14F-2        0.00000   0.00000   0.00121   0.00000   0.00000
  91       14F+3        0.00000   0.00000   0.00000   0.00063   0.00000
  92       14F-3        0.00123   0.00000   0.00000   0.00000  -0.00042
  93 3   Cl 1S         -0.00074  -0.00219   0.00000   0.00000  -0.17313
  94        2S          0.00284   0.00777   0.00000   0.00000   0.58443
  95        3S          0.00037   0.00014   0.00000   0.00000  -0.01734
  96        4S          0.00019   0.00042   0.00000   0.00000   0.04531
  97        5S         -0.00057  -0.00104   0.00000   0.00000  -0.00092
  98        6S         -0.00062  -0.00194   0.00000   0.00000  -0.00160
  99        7PX         0.00000   0.00000   0.69251  -0.69202   0.00000
 100        7PY        -0.39039   0.34211   0.00000   0.00000  -0.31162
 101        7PZ         0.57259  -0.60232   0.00000   0.00000  -0.21508
 102        8PX         0.00000   0.00000  -0.01497   0.01340   0.00000
 103        8PY         0.00987  -0.00725   0.00000   0.00000   0.00607
 104        8PZ        -0.01405   0.01394   0.00000   0.00000   0.00437
 105        9PX         0.00000   0.00000   0.03666  -0.03713   0.00000
 106        9PY        -0.02030   0.01782   0.00000   0.00000  -0.01772
 107        9PZ         0.02992  -0.03158   0.00000   0.00000  -0.01225
 108       10PX         0.00000   0.00000  -0.00379   0.00332   0.00000
 109       10PY         0.00312  -0.00143   0.00000   0.00000   0.00172
 110       10PZ        -0.00503   0.00198   0.00000   0.00000   0.00132
 111       11PX         0.00000   0.00000  -0.00055   0.00080   0.00000
 112       11PY         0.00040  -0.00042   0.00000   0.00000   0.00015
 113       11PZ        -0.00062   0.00027   0.00000   0.00000  -0.00009
 114       12D 0        0.00043  -0.00025   0.00000   0.00000  -0.00005
 115       12D+1        0.00000   0.00000   0.00016  -0.00015   0.00000
 116       12D-1        0.00023  -0.00013   0.00000   0.00000   0.00013
 117       12D+2        0.00024  -0.00013   0.00000   0.00000  -0.00005
 118       12D-2        0.00000   0.00000   0.00030  -0.00015   0.00000
 119       13D 0       -0.00197   0.00106   0.00000   0.00000   0.00022
 120       13D+1        0.00000   0.00000  -0.00072   0.00061   0.00000
 121       13D-1       -0.00084   0.00104   0.00000   0.00000   0.00065
 122       13D+2       -0.00088   0.00063   0.00000   0.00000  -0.00040
 123       13D-2        0.00000   0.00000  -0.00109   0.00098   0.00000
 124       14D 0       -0.00007  -0.00076   0.00000   0.00000  -0.00006
 125       14D+1        0.00000   0.00000   0.00044   0.00005   0.00000
 126       14D-1       -0.00006  -0.00020   0.00000   0.00000   0.00028
 127       14D+2        0.00006  -0.00047   0.00000   0.00000   0.00014
 128       14D-2        0.00000   0.00000   0.00026  -0.00010   0.00000
 129       15F 0       -0.00001   0.00001   0.00000   0.00000   0.00002
 130       15F+1        0.00000   0.00000  -0.00007  -0.00004   0.00000
 131       15F-1        0.00001   0.00003   0.00000   0.00000   0.00002
 132       15F+2        0.00002   0.00002   0.00000   0.00000  -0.00001
 133       15F-2        0.00000   0.00000   0.00000  -0.00001   0.00000
 134       15F+3        0.00000   0.00000  -0.00001  -0.00002   0.00000
 135       15F-3        0.00001   0.00004   0.00000   0.00000  -0.00001
 136       16F 0       -0.00039  -0.00013   0.00000   0.00000  -0.00014
 137       16F+1        0.00000   0.00000   0.00015   0.00016   0.00000
 138       16F-1       -0.00092   0.00050   0.00000   0.00000   0.00016
 139       16F+2       -0.00005  -0.00030   0.00000   0.00000  -0.00022
 140       16F-2        0.00000   0.00000  -0.00035   0.00033   0.00000
 141       16F+3        0.00000   0.00000   0.00033  -0.00028   0.00000
 142       16F-3       -0.00020   0.00018   0.00000   0.00000  -0.00006
 143 4   Cl 1S          0.00074  -0.00219   0.00000   0.00000   0.17313
 144        2S         -0.00284   0.00777   0.00000   0.00000  -0.58443
 145        3S         -0.00037   0.00014   0.00000   0.00000   0.01734
 146        4S         -0.00019   0.00042   0.00000   0.00000  -0.04531
 147        5S          0.00057  -0.00104   0.00000   0.00000   0.00092
 148        6S          0.00062  -0.00194   0.00000   0.00000   0.00160
 149        7PX         0.00000   0.00000  -0.69251  -0.69202   0.00000
 150        7PY        -0.39039  -0.34211   0.00000   0.00000  -0.31162
 151        7PZ        -0.57259  -0.60232   0.00000   0.00000   0.21508
 152        8PX         0.00000   0.00000   0.01497   0.01340   0.00000
 153        8PY         0.00987   0.00725   0.00000   0.00000   0.00607
 154        8PZ         0.01405   0.01394   0.00000   0.00000  -0.00437
 155        9PX         0.00000   0.00000  -0.03666  -0.03713   0.00000
 156        9PY        -0.02030  -0.01782   0.00000   0.00000  -0.01772
 157        9PZ        -0.02992  -0.03158   0.00000   0.00000   0.01225
 158       10PX         0.00000   0.00000   0.00379   0.00332   0.00000
 159       10PY         0.00312   0.00143   0.00000   0.00000   0.00172
 160       10PZ         0.00503   0.00198   0.00000   0.00000  -0.00132
 161       11PX         0.00000   0.00000   0.00055   0.00080   0.00000
 162       11PY         0.00040   0.00042   0.00000   0.00000   0.00015
 163       11PZ         0.00062   0.00027   0.00000   0.00000   0.00009
 164       12D 0       -0.00043  -0.00025   0.00000   0.00000   0.00005
 165       12D+1        0.00000   0.00000  -0.00016  -0.00015   0.00000
 166       12D-1        0.00023   0.00013   0.00000   0.00000   0.00013
 167       12D+2       -0.00024  -0.00013   0.00000   0.00000   0.00005
 168       12D-2        0.00000   0.00000   0.00030   0.00015   0.00000
 169       13D 0        0.00197   0.00106   0.00000   0.00000  -0.00022
 170       13D+1        0.00000   0.00000   0.00072   0.00061   0.00000
 171       13D-1       -0.00084  -0.00104   0.00000   0.00000   0.00065
 172       13D+2        0.00088   0.00063   0.00000   0.00000   0.00040
 173       13D-2        0.00000   0.00000  -0.00109  -0.00098   0.00000
 174       14D 0        0.00007  -0.00076   0.00000   0.00000   0.00006
 175       14D+1        0.00000   0.00000  -0.00044   0.00005   0.00000
 176       14D-1       -0.00006   0.00020   0.00000   0.00000   0.00028
 177       14D+2       -0.00006  -0.00047   0.00000   0.00000  -0.00014
 178       14D-2        0.00000   0.00000   0.00026   0.00010   0.00000
 179       15F 0        0.00001   0.00001   0.00000   0.00000  -0.00002
 180       15F+1        0.00000   0.00000   0.00007  -0.00004   0.00000
 181       15F-1        0.00001  -0.00003   0.00000   0.00000   0.00002
 182       15F+2       -0.00002   0.00002   0.00000   0.00000   0.00001
 183       15F-2        0.00000   0.00000   0.00000   0.00001   0.00000
 184       15F+3        0.00000   0.00000   0.00001  -0.00002   0.00000
 185       15F-3        0.00001  -0.00004   0.00000   0.00000  -0.00001
 186       16F 0        0.00039  -0.00013   0.00000   0.00000   0.00014
 187       16F+1        0.00000   0.00000  -0.00015   0.00016   0.00000
 188       16F-1       -0.00092  -0.00050   0.00000   0.00000   0.00016
 189       16F+2        0.00005  -0.00030   0.00000   0.00000   0.00022
 190       16F-2        0.00000   0.00000  -0.00035  -0.00033   0.00000
 191       16F+3        0.00000   0.00000  -0.00033  -0.00028   0.00000
 192       16F-3       -0.00020  -0.00018   0.00000   0.00000  -0.00006
                           6         7         8         9        10
     Eigenvalues --     2.00003   2.00001   2.00001   2.00001   2.00000
   1 1   O  1S          0.01406   0.00000  -0.25682   0.88501   0.33156
   2        2S         -0.00044   0.00000   0.00566  -0.01632  -0.00540
   3        3S          0.00055   0.00000  -0.01071   0.03760   0.01451
   4        4S          0.00063   0.00000   0.00059  -0.00338  -0.00120
   5        5S          0.00030   0.00000  -0.00171  -0.00103  -0.00173
   6        6PX         0.00000   0.00000   0.00000   0.00000   0.00000
   7        6PY         0.00000  -0.00079   0.00000   0.00000   0.00000
   8        6PZ        -0.00009   0.00000   0.00172  -0.00371   0.00045
   9        7PX         0.00000   0.00000   0.00000   0.00000   0.00000
  10        7PY         0.00000  -0.00132   0.00000   0.00000   0.00000
  11        7PZ        -0.00020   0.00000   0.00121  -0.00069   0.00313
  12        8PX         0.00000   0.00000   0.00000   0.00000   0.00000
  13        8PY         0.00000  -0.00402   0.00000   0.00000   0.00000
  14        8PZ        -0.00077   0.00000   0.00201  -0.00254   0.00284
  15        9PX         0.00000   0.00000   0.00000   0.00000   0.00000
  16        9PY         0.00000  -0.00151   0.00000   0.00000   0.00000
  17        9PZ         0.00016   0.00000   0.00028  -0.00031   0.00086
  18       10D 0        0.00002   0.00000  -0.00010   0.00020   0.00001
  19       10D+1        0.00000   0.00000   0.00000   0.00000   0.00000
  20       10D-1        0.00000  -0.00004   0.00000   0.00000   0.00000
  21       10D+2        0.00000   0.00000   0.00000  -0.00007   0.00000
  22       10D-2        0.00000   0.00000   0.00000   0.00000   0.00000
  23       11D 0        0.00008   0.00000  -0.00010  -0.00038  -0.00106
  24       11D+1        0.00000   0.00000   0.00000   0.00000   0.00000
  25       11D-1        0.00000   0.00010   0.00000   0.00000   0.00000
  26       11D+2       -0.00002   0.00000   0.00017  -0.00004  -0.00012
  27       11D-2        0.00000   0.00000   0.00000   0.00000   0.00000
  28       12D 0        0.00007   0.00000  -0.00003   0.00074  -0.00096
  29       12D+1        0.00000   0.00000   0.00000   0.00000   0.00000
  30       12D-1        0.00000   0.00102   0.00000   0.00000   0.00000
  31       12D+2       -0.00023   0.00000   0.00063   0.00015  -0.00003
  32       12D-2        0.00000   0.00000   0.00000   0.00000   0.00000
  33       13F 0        0.00001   0.00000  -0.00008   0.00006  -0.00010
  34       13F+1        0.00000   0.00000   0.00000   0.00000   0.00000
  35       13F-1        0.00000   0.00006   0.00000   0.00000   0.00000
  36       13F+2       -0.00001   0.00000   0.00002  -0.00002  -0.00002
  37       13F-2        0.00000   0.00000   0.00000   0.00000   0.00000
  38       13F+3        0.00000   0.00000   0.00000   0.00000   0.00000
  39       13F-3        0.00000   0.00000   0.00000   0.00000   0.00000
  40       14F 0        0.00006   0.00000  -0.00014  -0.00007   0.00053
  41       14F+1        0.00000   0.00000   0.00000   0.00000   0.00000
  42       14F-1        0.00000  -0.00005   0.00000   0.00000   0.00000
  43       14F+2        0.00009   0.00000  -0.00030  -0.00009   0.00018
  44       14F-2        0.00000   0.00000   0.00000   0.00000   0.00000
  45       14F+3        0.00000   0.00000   0.00000   0.00000   0.00000
  46       14F-3        0.00000  -0.00006   0.00000   0.00000   0.00000
  47 2   C  1S         -0.14693   0.00000   0.61231  -0.09935   0.74539
  48        2S          0.00295   0.00000  -0.01063   0.00089  -0.00670
  49        3S         -0.00537   0.00000   0.02385  -0.00487   0.03225
  50        4S         -0.00640   0.00000   0.00556   0.00572  -0.01227
  51        5S         -0.00044   0.00000   0.00245   0.00150  -0.00231
  52        6PX         0.00000   0.00000   0.00000   0.00000   0.00000
  53        6PY         0.00000   0.00248   0.00000   0.00000   0.00000
  54        6PZ        -0.00038   0.00000   0.00063   0.00092  -0.00197
  55        7PX         0.00000   0.00000   0.00000   0.00000   0.00000
  56        7PY         0.00000  -0.00039   0.00000   0.00000   0.00000
  57        7PZ        -0.00068   0.00000   0.00129   0.00095   0.00508
  58        8PX         0.00000   0.00000   0.00000   0.00000   0.00000
  59        8PY         0.00000  -0.00021   0.00000   0.00000   0.00000
  60        8PZ         0.00242   0.00000  -0.00168  -0.00097   0.00416
  61        9PX         0.00000   0.00000   0.00000   0.00000   0.00000
  62        9PY         0.00000   0.00139   0.00000   0.00000   0.00000
  63        9PZ        -0.00027   0.00000  -0.00013   0.00017   0.00019
  64       10D 0       -0.00007   0.00000   0.00024   0.00010   0.00070
  65       10D+1        0.00000   0.00000   0.00000   0.00000   0.00000
  66       10D-1        0.00000  -0.00011   0.00000   0.00000   0.00000
  67       10D+2        0.00007   0.00000  -0.00012   0.00002  -0.00017
  68       10D-2        0.00000   0.00000   0.00000   0.00000   0.00000
  69       11D 0       -0.00021   0.00000  -0.00004   0.00097   0.00110
  70       11D+1        0.00000   0.00000   0.00000   0.00000   0.00000
  71       11D-1        0.00000   0.00266   0.00000   0.00000   0.00000
  72       11D+2        0.00092   0.00000  -0.00054  -0.00107   0.00331
  73       11D-2        0.00000   0.00000   0.00000   0.00000   0.00000
  74       12D 0       -0.00008   0.00000   0.00034  -0.00009  -0.00062
  75       12D+1        0.00000   0.00000   0.00000   0.00000   0.00000
  76       12D-1        0.00000   0.00258   0.00000   0.00000   0.00000
  77       12D+2        0.00081   0.00000  -0.00110  -0.00085   0.00116
  78       12D-2        0.00000   0.00000   0.00000   0.00000   0.00000
  79       13F 0       -0.00015   0.00000   0.00027  -0.00011   0.00040
  80       13F+1        0.00000   0.00000   0.00000   0.00000   0.00000
  81       13F-1        0.00000  -0.00007   0.00000   0.00000   0.00000
  82       13F+2       -0.00002   0.00000  -0.00010  -0.00008  -0.00007
  83       13F-2        0.00000   0.00000   0.00000   0.00000   0.00000
  84       13F+3        0.00000   0.00000   0.00000   0.00000   0.00000
  85       13F-3        0.00000  -0.00004   0.00000   0.00000   0.00000
  86       14F 0        0.00022   0.00000  -0.00110   0.00087  -0.00092
  87       14F+1        0.00000   0.00000   0.00000   0.00000   0.00000
  88       14F-1        0.00000   0.00150   0.00000   0.00000   0.00000
  89       14F+2       -0.00005   0.00000  -0.00063   0.00034  -0.00097
  90       14F-2        0.00000   0.00000   0.00000   0.00000   0.00000
  91       14F+3        0.00000   0.00000   0.00000   0.00000   0.00000
  92       14F-3        0.00000   0.00078   0.00000   0.00000   0.00000
  93 3   Cl 1S         -0.17674  -0.11219  -0.09237  -0.03754   0.03615
  94        2S          0.59624   0.38063   0.31524   0.12806  -0.12337
  95        3S         -0.01784  -0.00670  -0.00475  -0.00158   0.00083
  96        4S          0.04639   0.03167   0.02570   0.01078  -0.01105
  97        5S         -0.00182  -0.00642  -0.00432  -0.00348   0.00816
  98        6S         -0.00019   0.00278  -0.00088  -0.00076   0.00228
  99        7PX         0.00000   0.00000   0.00000   0.00000   0.00000
 100        7PY        -0.30330   0.47698   0.35008   0.21870  -0.31064
 101        7PZ        -0.16336   0.32340   0.19431   0.13469  -0.18235
 102        8PX         0.00000   0.00000   0.00000   0.00000   0.00000
 103        8PY         0.00536  -0.00845  -0.00519  -0.00332   0.00520
 104        8PZ         0.00287  -0.00618  -0.00292  -0.00209   0.00361
 105        9PX         0.00000   0.00000   0.00000   0.00000   0.00000
 106        9PY        -0.01726   0.02911   0.02133   0.01361  -0.01991
 107        9PZ        -0.00934   0.01990   0.01187   0.00839  -0.01185
 108       10PX         0.00000   0.00000   0.00000   0.00000   0.00000
 109       10PY         0.00227  -0.00008  -0.00103  -0.00091   0.00310
 110       10PZ         0.00123  -0.00049  -0.00045  -0.00096   0.00221
 111       11PX         0.00000   0.00000   0.00000   0.00000   0.00000
 112       11PY         0.00003   0.00010  -0.00005  -0.00005   0.00020
 113       11PZ         0.00012   0.00025  -0.00004  -0.00016   0.00019
 114       12D 0       -0.00006   0.00000   0.00000   0.00001   0.00000
 115       12D+1        0.00000   0.00000   0.00000   0.00000   0.00000
 116       12D-1        0.00017   0.00041   0.00026   0.00024  -0.00035
 117       12D+2       -0.00009  -0.00032  -0.00023  -0.00014   0.00022
 118       12D-2        0.00000   0.00000   0.00000   0.00000   0.00000
 119       13D 0       -0.00007  -0.00044   0.00011   0.00010   0.00004
 120       13D+1        0.00000   0.00000   0.00000   0.00000   0.00000
 121       13D-1        0.00039  -0.00224  -0.00089  -0.00087   0.00211
 122       13D+2       -0.00049   0.00123   0.00106   0.00064  -0.00133
 123       13D-2        0.00000   0.00000   0.00000   0.00000   0.00000
 124       14D 0       -0.00008  -0.00009   0.00003  -0.00008   0.00008
 125       14D+1        0.00000   0.00000   0.00000   0.00000   0.00000
 126       14D-1        0.00030   0.00014   0.00025  -0.00014   0.00066
 127       14D+2       -0.00034  -0.00068   0.00001   0.00006  -0.00053
 128       14D-2        0.00000   0.00000   0.00000   0.00000   0.00000
 129       15F 0        0.00000  -0.00001   0.00003  -0.00002   0.00002
 130       15F+1        0.00000   0.00000   0.00000   0.00000   0.00000
 131       15F-1        0.00000  -0.00007  -0.00001   0.00004  -0.00002
 132       15F+2        0.00000   0.00004   0.00003  -0.00004   0.00000
 133       15F-2        0.00000   0.00000   0.00000   0.00000   0.00000
 134       15F+3        0.00000   0.00000   0.00000   0.00000   0.00000
 135       15F-3       -0.00003   0.00002   0.00007   0.00003  -0.00005
 136       16F 0       -0.00004   0.00030  -0.00007   0.00013  -0.00035
 137       16F+1        0.00000   0.00000   0.00000   0.00000   0.00000
 138       16F-1        0.00002  -0.00045   0.00000  -0.00012   0.00038
 139       16F+2       -0.00017   0.00059   0.00018   0.00028  -0.00060
 140       16F-2        0.00000   0.00000   0.00000   0.00000   0.00000
 141       16F+3        0.00000   0.00000   0.00000   0.00000   0.00000
 142       16F-3       -0.00012   0.00018   0.00022   0.00008  -0.00024
 143 4   Cl 1S         -0.17674   0.11219  -0.09237  -0.03754   0.03615
 144        2S          0.59624  -0.38063   0.31524   0.12806  -0.12337
 145        3S         -0.01784   0.00670  -0.00475  -0.00158   0.00083
 146        4S          0.04639  -0.03167   0.02570   0.01078  -0.01105
 147        5S         -0.00182   0.00642  -0.00432  -0.00348   0.00816
 148        6S         -0.00019  -0.00278  -0.00088  -0.00076   0.00228
 149        7PX         0.00000   0.00000   0.00000   0.00000   0.00000
 150        7PY         0.30330   0.47698  -0.35008  -0.21870   0.31064
 151        7PZ        -0.16336  -0.32340   0.19431   0.13469  -0.18235
 152        8PX         0.00000   0.00000   0.00000   0.00000   0.00000
 153        8PY        -0.00536  -0.00845   0.00519   0.00332  -0.00520
 154        8PZ         0.00287   0.00618  -0.00292  -0.00209   0.00361
 155        9PX         0.00000   0.00000   0.00000   0.00000   0.00000
 156        9PY         0.01726   0.02911  -0.02133  -0.01361   0.01991
 157        9PZ        -0.00934  -0.01990   0.01187   0.00839  -0.01185
 158       10PX         0.00000   0.00000   0.00000   0.00000   0.00000
 159       10PY        -0.00227  -0.00008   0.00103   0.00091  -0.00310
 160       10PZ         0.00123   0.00049  -0.00045  -0.00096   0.00221
 161       11PX         0.00000   0.00000   0.00000   0.00000   0.00000
 162       11PY        -0.00003   0.00010   0.00005   0.00005  -0.00020
 163       11PZ         0.00012  -0.00025  -0.00004  -0.00016   0.00019
 164       12D 0       -0.00006   0.00000   0.00000   0.00001   0.00000
 165       12D+1        0.00000   0.00000   0.00000   0.00000   0.00000
 166       12D-1       -0.00017   0.00041  -0.00026  -0.00024   0.00035
 167       12D+2       -0.00009   0.00032  -0.00023  -0.00014   0.00022
 168       12D-2        0.00000   0.00000   0.00000   0.00000   0.00000
 169       13D 0       -0.00007   0.00044   0.00011   0.00010   0.00004
 170       13D+1        0.00000   0.00000   0.00000   0.00000   0.00000
 171       13D-1       -0.00039  -0.00224   0.00089   0.00087  -0.00211
 172       13D+2       -0.00049  -0.00123   0.00106   0.00064  -0.00133
 173       13D-2        0.00000   0.00000   0.00000   0.00000   0.00000
 174       14D 0       -0.00008   0.00009   0.00003  -0.00008   0.00008
 175       14D+1        0.00000   0.00000   0.00000   0.00000   0.00000
 176       14D-1       -0.00030   0.00014  -0.00025   0.00014  -0.00066
 177       14D+2       -0.00034   0.00068   0.00001   0.00006  -0.00053
 178       14D-2        0.00000   0.00000   0.00000   0.00000   0.00000
 179       15F 0        0.00000   0.00001   0.00003  -0.00002   0.00002
 180       15F+1        0.00000   0.00000   0.00000   0.00000   0.00000
 181       15F-1        0.00000  -0.00007   0.00001  -0.00004   0.00002
 182       15F+2        0.00000  -0.00004   0.00003  -0.00004   0.00000
 183       15F-2        0.00000   0.00000   0.00000   0.00000   0.00000
 184       15F+3        0.00000   0.00000   0.00000   0.00000   0.00000
 185       15F-3        0.00003   0.00002  -0.00007  -0.00003   0.00005
 186       16F 0       -0.00004  -0.00030  -0.00007   0.00013  -0.00035
 187       16F+1        0.00000   0.00000   0.00000   0.00000   0.00000
 188       16F-1       -0.00002  -0.00045   0.00000   0.00012  -0.00038
 189       16F+2       -0.00017  -0.00059   0.00018   0.00028  -0.00060
 190       16F-2        0.00000   0.00000   0.00000   0.00000   0.00000
 191       16F+3        0.00000   0.00000   0.00000   0.00000   0.00000
 192       16F-3        0.00012   0.00018  -0.00022  -0.00008   0.00024
                          11        12        13        14        15
     Eigenvalues --     2.00000   2.00000   1.98109   1.97619   1.97463
   1 1   O  1S          0.00003   0.00000  -0.18563  -0.06427   0.00000
   2        2S          0.00001   0.00000   0.48120   0.17379   0.00000
   3        3S          0.00000   0.00000   0.13548   0.04992   0.00000
   4        4S          0.00003   0.00000   0.29560   0.13700   0.00000
   5        5S          0.00004   0.00000   0.02004   0.02331   0.00000
   6        6PX         0.00000   0.00000   0.00000   0.00000   0.00000
   7        6PY         0.00000   0.00000   0.00000   0.00000   0.04372
   8        6PZ         0.00000   0.00000  -0.00663   0.02886   0.00000
   9        7PX         0.00000   0.00000   0.00000   0.00000   0.00000
  10        7PY         0.00000   0.00001   0.00000   0.00000   0.05443
  11        7PZ         0.00000   0.00000  -0.01309   0.03049   0.00000
  12        8PX         0.00000   0.00000   0.00000   0.00000   0.00000
  13        8PY         0.00000   0.00006   0.00000   0.00000   0.03997
  14        8PZ         0.00003   0.00000   0.04803   0.02555   0.00000
  15        9PX         0.00000   0.00000   0.00000   0.00000   0.00000
  16        9PY         0.00000   0.00001   0.00000   0.00000   0.00099
  17        9PZ         0.00000   0.00000   0.01336  -0.00042   0.00000
  18       10D 0        0.00000   0.00000   0.00477   0.00004   0.00000
  19       10D+1        0.00000   0.00000   0.00000   0.00000   0.00000
  20       10D-1        0.00000   0.00000   0.00000   0.00000  -0.00205
  21       10D+2        0.00000   0.00000  -0.00001  -0.00002   0.00000
  22       10D-2        0.00000   0.00000   0.00000   0.00000   0.00000
  23       11D 0       -0.00001   0.00000   0.01072   0.00152   0.00000
  24       11D+1        0.00000   0.00000   0.00000   0.00000   0.00000
  25       11D-1        0.00000   0.00000   0.00000   0.00000  -0.00529
  26       11D+2        0.00000   0.00000   0.00024   0.00098   0.00000
  27       11D-2        0.00000   0.00000   0.00000   0.00000   0.00000
  28       12D 0       -0.00002   0.00000  -0.01441  -0.00327   0.00000
  29       12D+1        0.00000   0.00000   0.00000   0.00000   0.00000
  30       12D-1        0.00000  -0.00002   0.00000   0.00000  -0.00400
  31       12D+2        0.00000   0.00000   0.00127   0.00130   0.00000
  32       12D-2        0.00000   0.00000   0.00000   0.00000   0.00000
  33       13F 0        0.00000   0.00000  -0.00270  -0.00034   0.00000
  34       13F+1        0.00000   0.00000   0.00000   0.00000   0.00000
  35       13F-1        0.00000   0.00000   0.00000   0.00000   0.00144
  36       13F+2        0.00000   0.00000   0.00021  -0.00004   0.00000
  37       13F-2        0.00000   0.00000   0.00000   0.00000   0.00000
  38       13F+3        0.00000   0.00000   0.00000   0.00000   0.00000
  39       13F-3        0.00000   0.00000   0.00000   0.00000   0.00008
  40       14F 0        0.00000   0.00000  -0.00012  -0.00060   0.00000
  41       14F+1        0.00000   0.00000   0.00000   0.00000   0.00000
  42       14F-1        0.00000   0.00000   0.00000   0.00000   0.00018
  43       14F+2        0.00000   0.00000  -0.00067  -0.00103   0.00000
  44       14F-2        0.00000   0.00000   0.00000   0.00000   0.00000
  45       14F+3        0.00000   0.00000   0.00000   0.00000   0.00000
  46       14F-3        0.00000   0.00000   0.00000   0.00000   0.00043
  47 2   C  1S         -0.00031   0.00000  -0.08326   0.04601   0.00000
  48        2S          0.00003   0.00000   0.19193  -0.12730   0.00000
  49        3S          0.00002   0.00000   0.04557  -0.02655   0.00000
  50        4S         -0.00013   0.00000   0.00328  -0.05615   0.00000
  51        5S         -0.00005   0.00000  -0.00436  -0.02472   0.00000
  52        6PX         0.00000   0.00000   0.00000   0.00000   0.00000
  53        6PY         0.00000  -0.00001   0.00000   0.00000   0.07197
  54        6PZ        -0.00001   0.00000   0.06079   0.05746   0.00000
  55        7PX         0.00000   0.00000   0.00000   0.00000   0.00000
  56        7PY         0.00000   0.00004   0.00000   0.00000   0.09751
  57        7PZ         0.00005   0.00000   0.04684   0.06675   0.00000
  58        8PX         0.00000   0.00000   0.00000   0.00000   0.00000
  59        8PY         0.00000  -0.00009   0.00000   0.00000  -0.00755
  60        8PZ        -0.00001   0.00000  -0.01706  -0.00314   0.00000
  61        9PX         0.00000   0.00000   0.00000   0.00000   0.00000
  62        9PY         0.00000  -0.00001   0.00000   0.00000   0.00608
  63        9PZ         0.00001   0.00000  -0.00714   0.00333   0.00000
  64       10D 0        0.00000   0.00000   0.01510   0.00269   0.00000
  65       10D+1        0.00000   0.00000   0.00000   0.00000   0.00000
  66       10D-1        0.00000   0.00000   0.00000   0.00000  -0.00611
  67       10D+2        0.00000   0.00000  -0.00277   0.00671   0.00000
  68       10D-2        0.00000   0.00000   0.00000   0.00000   0.00000
  69       11D 0        0.00000   0.00000   0.00642  -0.00209   0.00000
  70       11D+1        0.00000   0.00000   0.00000   0.00000   0.00000
  71       11D-1        0.00000  -0.00007   0.00000   0.00000  -0.01927
  72       11D+2        0.00005   0.00000  -0.00353   0.01176   0.00000
  73       11D-2        0.00000   0.00000   0.00000   0.00000   0.00000
  74       12D 0       -0.00003   0.00000  -0.01943  -0.00774   0.00000
  75       12D+1        0.00000   0.00000   0.00000   0.00000   0.00000
  76       12D-1        0.00000  -0.00001   0.00000   0.00000   0.00471
  77       12D+2        0.00001   0.00000  -0.00105  -0.00266   0.00000
  78       12D-2        0.00000   0.00000   0.00000   0.00000   0.00000
  79       13F 0        0.00000   0.00000   0.00580  -0.00207   0.00000
  80       13F+1        0.00000   0.00000   0.00000   0.00000   0.00000
  81       13F-1        0.00000   0.00000   0.00000   0.00000   0.00224
  82       13F+2       -0.00001   0.00000   0.00261  -0.00427   0.00000
  83       13F-2        0.00000   0.00000   0.00000   0.00000   0.00000
  84       13F+3        0.00000   0.00000   0.00000   0.00000   0.00000
  85       13F-3        0.00000  -0.00001   0.00000   0.00000  -0.00270
  86       14F 0       -0.00003   0.00000  -0.00610  -0.00483   0.00000
  87       14F+1        0.00000   0.00000   0.00000   0.00000   0.00000
  88       14F-1        0.00000  -0.00001   0.00000   0.00000   0.00145
  89       14F+2       -0.00003   0.00000  -0.00266  -0.00585   0.00000
  90       14F-2        0.00000   0.00000   0.00000   0.00000   0.00000
  91       14F+3        0.00000   0.00000   0.00000   0.00000   0.00000
  92       14F-3        0.00000  -0.00001   0.00000   0.00000   0.00007
  93 3   Cl 1S          0.70501   0.70523   0.01158  -0.04752  -0.05216
  94        2S          0.00699   0.00715  -0.04207   0.17820   0.19508
  95        3S          0.00011   0.00012   0.09473  -0.37922  -0.41804
  96        4S          0.00015   0.00016   0.01078  -0.04664  -0.05248
  97        5S          0.00001  -0.00006   0.05145  -0.22456  -0.25680
  98        6S          0.00001  -0.00007  -0.00313   0.01127   0.00615
  99        7PX         0.00000   0.00000   0.00000   0.00000   0.00000
 100        7PY        -0.00085  -0.00044  -0.00769   0.01523   0.00105
 101        7PZ        -0.00045  -0.00035  -0.00941   0.00145   0.00823
 102        8PX         0.00000   0.00000   0.00000   0.00000   0.00000
 103        8PY         0.00007   0.00006   0.01319  -0.02043   0.01532
 104        8PZ         0.00005   0.00004   0.02328   0.01054  -0.01114
 105        9PX         0.00000   0.00000   0.00000   0.00000   0.00000
 106        9PY        -0.00008  -0.00006   0.00620  -0.00971   0.00623
 107        9PZ        -0.00005  -0.00004   0.01016   0.00389  -0.00520
 108       10PX         0.00000   0.00000   0.00000   0.00000   0.00000
 109       10PY        -0.00001  -0.00006   0.00314   0.00249   0.01602
 110       10PZ        -0.00001  -0.00004   0.00281   0.00998  -0.00073
 111       11PX         0.00000   0.00000   0.00000   0.00000   0.00000
 112       11PY         0.00000  -0.00001  -0.00127   0.00384   0.00222
 113       11PZ         0.00000   0.00000   0.00096   0.00168   0.00267
 114       12D 0        0.00000   0.00000   0.00031   0.00152  -0.00089
 115       12D+1        0.00000   0.00000   0.00000   0.00000   0.00000
 116       12D-1        0.00000   0.00001   0.00354  -0.00588  -0.00600
 117       12D+2        0.00000   0.00000  -0.00275   0.00556   0.00312
 118       12D-2        0.00000   0.00000   0.00000   0.00000   0.00000
 119       13D 0        0.00000   0.00000  -0.00057   0.00216  -0.00243
 120       13D+1        0.00000   0.00000   0.00000   0.00000   0.00000
 121       13D-1        0.00003   0.00002   0.00371  -0.00505  -0.00493
 122       13D+2       -0.00001  -0.00001  -0.00150   0.00604   0.00138
 123       13D-2        0.00000   0.00000   0.00000   0.00000   0.00000
 124       14D 0        0.00000   0.00000  -0.00008  -0.00056  -0.00068
 125       14D+1        0.00000   0.00000   0.00000   0.00000   0.00000
 126       14D-1       -0.00001  -0.00002  -0.00206   0.00147   0.00195
 127       14D+2        0.00001   0.00002  -0.00090  -0.00199  -0.00302
 128       14D-2        0.00000   0.00000   0.00000   0.00000   0.00000
 129       15F 0        0.00000   0.00000  -0.00035   0.00142   0.00090
 130       15F+1        0.00000   0.00000   0.00000   0.00000   0.00000
 131       15F-1        0.00000   0.00000   0.00042  -0.00018  -0.00162
 132       15F+2       -0.00001   0.00000  -0.00080   0.00222   0.00226
 133       15F-2        0.00000   0.00000   0.00000   0.00000   0.00000
 134       15F+3        0.00000   0.00000   0.00000   0.00000   0.00000
 135       15F-3        0.00000   0.00000  -0.00062   0.00184   0.00088
 136       16F 0        0.00000   0.00000  -0.00040   0.00008  -0.00048
 137       16F+1        0.00000   0.00000   0.00000   0.00000   0.00000
 138       16F-1        0.00000   0.00000  -0.00033   0.00022  -0.00025
 139       16F+2        0.00000   0.00000   0.00020   0.00021  -0.00101
 140       16F-2        0.00000   0.00000   0.00000   0.00000   0.00000
 141       16F+3        0.00000   0.00000   0.00000   0.00000   0.00000
 142       16F-3        0.00000   0.00000   0.00092   0.00007  -0.00074
 143 4   Cl 1S          0.70528  -0.70497   0.01158  -0.04752   0.05216
 144        2S          0.00699  -0.00715  -0.04207   0.17820  -0.19508
 145        3S          0.00011  -0.00012   0.09473  -0.37922   0.41804
 146        4S          0.00015  -0.00016   0.01078  -0.04664   0.05248
 147        5S          0.00001   0.00006   0.05145  -0.22456   0.25680
 148        6S          0.00001   0.00007  -0.00313   0.01127  -0.00615
 149        7PX         0.00000   0.00000   0.00000   0.00000   0.00000
 150        7PY         0.00085  -0.00044   0.00769  -0.01523   0.00105
 151        7PZ        -0.00045   0.00035  -0.00941   0.00145  -0.00823
 152        8PX         0.00000   0.00000   0.00000   0.00000   0.00000
 153        8PY        -0.00007   0.00006  -0.01319   0.02043   0.01532
 154        8PZ         0.00005  -0.00004   0.02328   0.01054   0.01114
 155        9PX         0.00000   0.00000   0.00000   0.00000   0.00000
 156        9PY         0.00008  -0.00006  -0.00620   0.00971   0.00623
 157        9PZ        -0.00005   0.00004   0.01016   0.00389   0.00520
 158       10PX         0.00000   0.00000   0.00000   0.00000   0.00000
 159       10PY         0.00001  -0.00006  -0.00314  -0.00249   0.01602
 160       10PZ        -0.00001   0.00004   0.00281   0.00998   0.00073
 161       11PX         0.00000   0.00000   0.00000   0.00000   0.00000
 162       11PY         0.00000  -0.00001   0.00127  -0.00384   0.00222
 163       11PZ         0.00000   0.00000   0.00096   0.00168  -0.00267
 164       12D 0        0.00000   0.00000   0.00031   0.00152   0.00089
 165       12D+1        0.00000   0.00000   0.00000   0.00000   0.00000
 166       12D-1        0.00000   0.00001  -0.00354   0.00588  -0.00600
 167       12D+2        0.00000   0.00000  -0.00275   0.00556  -0.00312
 168       12D-2        0.00000   0.00000   0.00000   0.00000   0.00000
 169       13D 0        0.00000   0.00000  -0.00057   0.00216   0.00243
 170       13D+1        0.00000   0.00000   0.00000   0.00000   0.00000
 171       13D-1       -0.00003   0.00002  -0.00371   0.00505  -0.00493
 172       13D+2       -0.00001   0.00001  -0.00150   0.00604  -0.00138
 173       13D-2        0.00000   0.00000   0.00000   0.00000   0.00000
 174       14D 0        0.00000   0.00000  -0.00008  -0.00056   0.00068
 175       14D+1        0.00000   0.00000   0.00000   0.00000   0.00000
 176       14D-1        0.00001  -0.00002   0.00206  -0.00147   0.00195
 177       14D+2        0.00001  -0.00002  -0.00090  -0.00199   0.00302
 178       14D-2        0.00000   0.00000   0.00000   0.00000   0.00000
 179       15F 0        0.00000   0.00000  -0.00035   0.00142  -0.00090
 180       15F+1        0.00000   0.00000   0.00000   0.00000   0.00000
 181       15F-1        0.00000   0.00000  -0.00042   0.00018  -0.00162
 182       15F+2       -0.00001   0.00000  -0.00080   0.00222  -0.00226
 183       15F-2        0.00000   0.00000   0.00000   0.00000   0.00000
 184       15F+3        0.00000   0.00000   0.00000   0.00000   0.00000
 185       15F-3        0.00000   0.00000   0.00062  -0.00184   0.00088
 186       16F 0        0.00000   0.00000  -0.00040   0.00008   0.00048
 187       16F+1        0.00000   0.00000   0.00000   0.00000   0.00000
 188       16F-1        0.00000   0.00000   0.00033  -0.00022  -0.00025
 189       16F+2        0.00000   0.00000   0.00020   0.00021   0.00101
 190       16F-2        0.00000   0.00000   0.00000   0.00000   0.00000
 191       16F+3        0.00000   0.00000   0.00000   0.00000   0.00000
 192       16F-3        0.00000   0.00000  -0.00092  -0.00007  -0.00074
                          16        17        18        19        20
     Eigenvalues --     1.96229   1.95780   1.95159   1.94901   1.94744
   1 1   O  1S          0.03937   0.00000  -0.00823   0.00000   0.00000
   2        2S         -0.12745   0.00000   0.02112   0.00000   0.00000
   3        3S         -0.04204   0.00000   0.00663   0.00000   0.00000
   4        4S         -0.23447   0.00000   0.02352   0.00000   0.00000
   5        5S         -0.05909   0.00000   0.02439   0.00000   0.00000
   6        6PX         0.00000   0.00000   0.00000   0.02431   0.00000
   7        6PY         0.00000   0.29863   0.00000   0.00000   0.11339
   8        6PZ        -0.29193   0.00000  -0.00674   0.00000   0.00000
   9        7PX         0.00000   0.00000   0.00000   0.03087   0.00000
  10        7PY         0.00000   0.37075   0.00000   0.00000   0.13867
  11        7PZ        -0.34672   0.00000  -0.00952   0.00000   0.00000
  12        8PX         0.00000   0.00000   0.00000   0.01476   0.00000
  13        8PY         0.00000   0.27251   0.00000   0.00000   0.09714
  14        8PZ        -0.15404   0.00000  -0.00005   0.00000   0.00000
  15        9PX         0.00000   0.00000   0.00000  -0.01217   0.00000
  16        9PY         0.00000   0.03823   0.00000   0.00000   0.01571
  17        9PZ         0.00105   0.00000   0.00040   0.00000   0.00000
  18       10D 0        0.01302   0.00000   0.00017   0.00000   0.00000
  19       10D+1        0.00000   0.00000   0.00000  -0.00297   0.00000
  20       10D-1        0.00000  -0.00877   0.00000   0.00000  -0.00200
  21       10D+2       -0.00002   0.00000   0.00058   0.00000   0.00000
  22       10D-2        0.00000   0.00000   0.00000   0.00000   0.00000
  23       11D 0        0.02668   0.00000   0.00128   0.00000   0.00000
  24       11D+1        0.00000   0.00000   0.00000  -0.00841   0.00000
  25       11D-1        0.00000  -0.02577   0.00000   0.00000  -0.00254
  26       11D+2        0.00115   0.00000   0.00046   0.00000   0.00000
  27       11D-2        0.00000   0.00000   0.00000   0.00000   0.00000
  28       12D 0       -0.00232   0.00000  -0.00106   0.00000   0.00000
  29       12D+1        0.00000   0.00000   0.00000  -0.00686   0.00000
  30       12D-1        0.00000  -0.01706   0.00000   0.00000  -0.00144
  31       12D+2        0.00211   0.00000   0.00220   0.00000   0.00000
  32       12D-2        0.00000   0.00000   0.00000   0.00000   0.00000
  33       13F 0       -0.00484   0.00000  -0.00002   0.00000   0.00000
  34       13F+1        0.00000   0.00000   0.00000   0.00159   0.00000
  35       13F-1        0.00000   0.00553   0.00000   0.00000   0.00094
  36       13F+2       -0.00069   0.00000  -0.00016   0.00000   0.00000
  37       13F-2        0.00000   0.00000   0.00000   0.00000   0.00000
  38       13F+3        0.00000   0.00000   0.00000  -0.00002   0.00000
  39       13F-3        0.00000   0.00093   0.00000   0.00000   0.00047
  40       14F 0       -0.00416   0.00000  -0.00022   0.00000   0.00000
  41       14F+1        0.00000   0.00000   0.00000   0.00109   0.00000
  42       14F-1        0.00000   0.00427   0.00000   0.00000  -0.00008
  43       14F+2       -0.00162   0.00000   0.00035   0.00000   0.00000
  44       14F-2        0.00000   0.00000   0.00000   0.00000   0.00000
  45       14F+3        0.00000   0.00000   0.00000   0.00070   0.00000
  46       14F-3        0.00000   0.00100   0.00000   0.00000   0.00013
  47 2   C  1S         -0.11513   0.00000  -0.03744   0.00000   0.00000
  48        2S          0.31318   0.00000   0.10526   0.00000   0.00000
  49        3S          0.08189   0.00000   0.02594   0.00000   0.00000
  50        4S          0.11133   0.00000   0.05658   0.00000   0.00000
  51        5S          0.00876   0.00000   0.01378   0.00000   0.00000
  52        6PX         0.00000   0.00000   0.00000   0.11018   0.00000
  53        6PY         0.00000   0.14240   0.00000   0.00000   0.01442
  54        6PZ         0.14571   0.00000  -0.05211   0.00000   0.00000
  55        7PX         0.00000   0.00000   0.00000   0.15247   0.00000
  56        7PY         0.00000   0.18642   0.00000   0.00000   0.02229
  57        7PZ         0.15476   0.00000  -0.07461   0.00000   0.00000
  58        8PX         0.00000   0.00000   0.00000   0.04489   0.00000
  59        8PY         0.00000   0.01604   0.00000   0.00000   0.00439
  60        8PZ        -0.00025   0.00000  -0.02627   0.00000   0.00000
  61        9PX         0.00000   0.00000   0.00000   0.01277   0.00000
  62        9PY         0.00000  -0.00883   0.00000   0.00000  -0.01017
  63        9PZ        -0.00247   0.00000  -0.01074   0.00000   0.00000
  64       10D 0        0.01505   0.00000   0.01072   0.00000   0.00000
  65       10D+1        0.00000   0.00000   0.00000  -0.00503   0.00000
  66       10D-1        0.00000   0.02034   0.00000   0.00000   0.00379
  67       10D+2       -0.00013   0.00000   0.00385   0.00000   0.00000
  68       10D-2        0.00000   0.00000   0.00000   0.00000   0.00000
  69       11D 0        0.00139   0.00000   0.03313   0.00000   0.00000
  70       11D+1        0.00000   0.00000   0.00000  -0.02758   0.00000
  71       11D-1        0.00000   0.02069   0.00000   0.00000   0.00299
  72       11D+2       -0.00496   0.00000   0.01517   0.00000   0.00000
  73       11D-2        0.00000   0.00000   0.00000   0.00000   0.00000
  74       12D 0        0.00056   0.00000  -0.02357   0.00000   0.00000
  75       12D+1        0.00000   0.00000   0.00000  -0.00818   0.00000
  76       12D-1        0.00000  -0.01479   0.00000   0.00000   0.01477
  77       12D+2        0.00448   0.00000  -0.01799   0.00000   0.00000
  78       12D-2        0.00000   0.00000   0.00000   0.00000   0.00000
  79       13F 0        0.00893   0.00000  -0.00061   0.00000   0.00000
  80       13F+1        0.00000   0.00000   0.00000   0.00241   0.00000
  81       13F-1        0.00000   0.00499   0.00000   0.00000   0.00859
  82       13F+2        0.00182   0.00000   0.00189   0.00000   0.00000
  83       13F-2        0.00000   0.00000   0.00000   0.00000   0.00000
  84       13F+3        0.00000   0.00000   0.00000  -0.00492   0.00000
  85       13F-3        0.00000  -0.00294   0.00000   0.00000   0.00154
  86       14F 0       -0.00913   0.00000  -0.00427   0.00000   0.00000
  87       14F+1        0.00000   0.00000   0.00000  -0.00055   0.00000
  88       14F-1        0.00000   0.00173   0.00000   0.00000   0.01447
  89       14F+2       -0.00304   0.00000  -0.00087   0.00000   0.00000
  90       14F-2        0.00000   0.00000   0.00000   0.00000   0.00000
  91       14F+3        0.00000   0.00000   0.00000  -0.00306   0.00000
  92       14F-3        0.00000   0.00085   0.00000   0.00000   0.00348
  93 3   Cl 1S         -0.01218   0.01508  -0.01083   0.00000  -0.00118
  94        2S          0.04712  -0.05743   0.04111   0.00000   0.00472
  95        3S         -0.09637   0.12319  -0.08941   0.00000  -0.00907
  96        4S         -0.01298   0.01717  -0.01397   0.00000  -0.00190
  97        5S         -0.08222   0.11841  -0.08477   0.00000  -0.01082
  98        6S         -0.00854   0.00775  -0.02281   0.00000  -0.01318
  99        7PX         0.00000   0.00000   0.00000  -0.14837   0.00000
 100        7PY        -0.00433   0.00434  -0.10767   0.00000   0.08968
 101        7PZ        -0.01666   0.04454   0.10758   0.00000  -0.14063
 102        8PX         0.00000   0.00000   0.00000   0.34961   0.00000
 103        8PY         0.00586   0.00256   0.24816   0.00000  -0.20979
 104        8PZ         0.03625  -0.09762  -0.25737   0.00000   0.33344
 105        9PX         0.00000   0.00000   0.00000   0.16322   0.00000
 106        9PY         0.00475  -0.00293   0.11735   0.00000  -0.10148
 107        9PZ         0.01869  -0.04865  -0.12312   0.00000   0.15824
 108       10PX         0.00000   0.00000   0.00000   0.19613   0.00000
 109       10PY        -0.01541   0.03061   0.12684   0.00000  -0.13383
 110       10PZ         0.00752  -0.03890  -0.17539   0.00000   0.20839
 111       11PX         0.00000   0.00000   0.00000   0.00072   0.00000
 112       11PY        -0.00098   0.00440   0.00025   0.00000  -0.00643
 113       11PZ         0.00001   0.00281  -0.00745   0.00000   0.01039
 114       12D 0        0.00319  -0.00569  -0.00706   0.00000   0.00096
 115       12D+1        0.00000   0.00000   0.00000   0.00558   0.00000
 116       12D-1        0.00611  -0.01048   0.00175   0.00000  -0.00123
 117       12D+2       -0.00120   0.00451  -0.00974   0.00000   0.00068
 118       12D-2        0.00000   0.00000   0.00000   0.01082   0.00000
 119       13D 0        0.00219  -0.00869  -0.00855   0.00000  -0.00082
 120       13D+1        0.00000   0.00000   0.00000   0.00825   0.00000
 121       13D-1        0.00560  -0.00711   0.00118   0.00000  -0.00078
 122       13D+2        0.00140   0.00058  -0.01176   0.00000  -0.00150
 123       13D-2        0.00000   0.00000   0.00000   0.01654   0.00000
 124       14D 0        0.00220  -0.00605  -0.00789   0.00000   0.00132
 125       14D+1        0.00000   0.00000   0.00000   0.00165   0.00000
 126       14D-1       -0.00040  -0.00178  -0.00353   0.00000   0.00152
 127       14D+2        0.00317  -0.00293  -0.00571   0.00000   0.00043
 128       14D-2        0.00000   0.00000   0.00000   0.00529   0.00000
 129       15F 0        0.00026  -0.00019  -0.00199   0.00000   0.00076
 130       15F+1        0.00000   0.00000   0.00000   0.00048   0.00000
 131       15F-1        0.00158  -0.00362  -0.00406   0.00000   0.00276
 132       15F+2       -0.00049   0.00237  -0.00136   0.00000   0.00027
 133       15F-2        0.00000   0.00000   0.00000   0.00442   0.00000
 134       15F+3        0.00000   0.00000   0.00000  -0.00440   0.00000
 135       15F-3        0.00029   0.00053  -0.00330   0.00000   0.00094
 136       16F 0       -0.00154  -0.00131  -0.00038   0.00000  -0.00050
 137       16F+1        0.00000   0.00000   0.00000  -0.00050   0.00000
 138       16F-1       -0.00025  -0.00049  -0.00206   0.00000   0.00148
 139       16F+2       -0.00015  -0.00213  -0.00050   0.00000  -0.00059
 140       16F-2        0.00000   0.00000   0.00000   0.00218   0.00000
 141       16F+3        0.00000   0.00000   0.00000  -0.00243   0.00000
 142       16F-3        0.00110  -0.00161  -0.00109   0.00000  -0.00056
 143 4   Cl 1S         -0.01218  -0.01508  -0.01083   0.00000   0.00118
 144        2S          0.04712   0.05743   0.04111   0.00000  -0.00472
 145        3S         -0.09637  -0.12319  -0.08941   0.00000   0.00907
 146        4S         -0.01298  -0.01717  -0.01397   0.00000   0.00190
 147        5S         -0.08222  -0.11841  -0.08477   0.00000   0.01082
 148        6S         -0.00854  -0.00775  -0.02281   0.00000   0.01318
 149        7PX         0.00000   0.00000   0.00000  -0.14837   0.00000
 150        7PY         0.00433   0.00434   0.10767   0.00000   0.08968
 151        7PZ        -0.01666  -0.04454   0.10758   0.00000   0.14063
 152        8PX         0.00000   0.00000   0.00000   0.34961   0.00000
 153        8PY        -0.00586   0.00256  -0.24816   0.00000  -0.20979
 154        8PZ         0.03625   0.09762  -0.25737   0.00000  -0.33344
 155        9PX         0.00000   0.00000   0.00000   0.16322   0.00000
 156        9PY        -0.00475  -0.00293  -0.11735   0.00000  -0.10148
 157        9PZ         0.01869   0.04865  -0.12312   0.00000  -0.15824
 158       10PX         0.00000   0.00000   0.00000   0.19613   0.00000
 159       10PY         0.01541   0.03061  -0.12684   0.00000  -0.13383
 160       10PZ         0.00752   0.03890  -0.17539   0.00000  -0.20839
 161       11PX         0.00000   0.00000   0.00000   0.00072   0.00000
 162       11PY         0.00098   0.00440  -0.00025   0.00000  -0.00643
 163       11PZ         0.00001  -0.00281  -0.00745   0.00000  -0.01039
 164       12D 0        0.00319   0.00569  -0.00706   0.00000  -0.00096
 165       12D+1        0.00000   0.00000   0.00000   0.00558   0.00000
 166       12D-1       -0.00611  -0.01048  -0.00175   0.00000  -0.00123
 167       12D+2       -0.00120  -0.00451  -0.00974   0.00000  -0.00068
 168       12D-2        0.00000   0.00000   0.00000  -0.01082   0.00000
 169       13D 0        0.00219   0.00869  -0.00855   0.00000   0.00082
 170       13D+1        0.00000   0.00000   0.00000   0.00825   0.00000
 171       13D-1       -0.00560  -0.00711  -0.00118   0.00000  -0.00078
 172       13D+2        0.00140  -0.00058  -0.01176   0.00000   0.00150
 173       13D-2        0.00000   0.00000   0.00000  -0.01654   0.00000
 174       14D 0        0.00220   0.00605  -0.00789   0.00000  -0.00132
 175       14D+1        0.00000   0.00000   0.00000   0.00165   0.00000
 176       14D-1        0.00040  -0.00178   0.00353   0.00000   0.00152
 177       14D+2        0.00317   0.00293  -0.00571   0.00000  -0.00043
 178       14D-2        0.00000   0.00000   0.00000  -0.00529   0.00000
 179       15F 0        0.00026   0.00019  -0.00199   0.00000  -0.00076
 180       15F+1        0.00000   0.00000   0.00000   0.00048   0.00000
 181       15F-1       -0.00158  -0.00362   0.00406   0.00000   0.00276
 182       15F+2       -0.00049  -0.00237  -0.00136   0.00000  -0.00027
 183       15F-2        0.00000   0.00000   0.00000  -0.00442   0.00000
 184       15F+3        0.00000   0.00000   0.00000  -0.00440   0.00000
 185       15F-3       -0.00029   0.00053   0.00330   0.00000   0.00094
 186       16F 0       -0.00154   0.00131  -0.00038   0.00000   0.00050
 187       16F+1        0.00000   0.00000   0.00000  -0.00050   0.00000
 188       16F-1        0.00025  -0.00049   0.00206   0.00000   0.00148
 189       16F+2       -0.00015   0.00213  -0.00050   0.00000   0.00059
 190       16F-2        0.00000   0.00000   0.00000  -0.00218   0.00000
 191       16F+3        0.00000   0.00000   0.00000  -0.00243   0.00000
 192       16F-3       -0.00110  -0.00161   0.00109   0.00000  -0.00056
                          21        22        23        24        25
     Eigenvalues --     1.94728   1.94724   1.93731   1.93010   0.06777
   1 1   O  1S         -0.02700   0.00000   0.00000   0.00000   0.00000
   2        2S          0.07272   0.00000   0.00000   0.00000   0.00000
   3        3S          0.02029   0.00000   0.00000   0.00000   0.00000
   4        4S          0.02792   0.00000   0.00000   0.00000   0.00000
   5        5S          0.00067   0.00000   0.00000   0.00000   0.00000
   6        6PX         0.00000   0.00000   0.00000   0.29532  -0.34307
   7        6PY         0.00000   0.00000  -0.14042   0.00000   0.00000
   8        6PZ        -0.10746   0.00000   0.00000   0.00000   0.00000
   9        7PX         0.00000   0.00000   0.00000   0.37020  -0.39476
  10        7PY         0.00000   0.00000  -0.17448   0.00000   0.00000
  11        7PZ        -0.13178   0.00000   0.00000   0.00000   0.00000
  12        8PX         0.00000   0.00000   0.00000   0.24906  -0.07060
  13        8PY         0.00000   0.00000  -0.12130   0.00000   0.00000
  14        8PZ        -0.04614   0.00000   0.00000   0.00000   0.00000
  15        9PX         0.00000   0.00000   0.00000   0.02633  -0.00275
  16        9PY         0.00000   0.00000  -0.02185   0.00000   0.00000
  17        9PZ         0.00305   0.00000   0.00000   0.00000   0.00000
  18       10D 0        0.00495   0.00000   0.00000   0.00000   0.00000
  19       10D+1        0.00000   0.00000   0.00000  -0.01017  -0.01272
  20       10D-1        0.00000   0.00000   0.00021   0.00000   0.00000
  21       10D+2        0.00004   0.00000   0.00000   0.00000   0.00000
  22       10D-2        0.00000  -0.00038   0.00000   0.00000   0.00000
  23       11D 0        0.00995   0.00000   0.00000   0.00000   0.00000
  24       11D+1        0.00000   0.00000   0.00000  -0.02799  -0.01118
  25       11D-1        0.00000   0.00000  -0.00031   0.00000   0.00000
  26       11D+2        0.00206   0.00000   0.00000   0.00000   0.00000
  27       11D-2        0.00000  -0.00170   0.00000   0.00000   0.00000
  28       12D 0       -0.01160   0.00000   0.00000   0.00000   0.00000
  29       12D+1        0.00000   0.00000   0.00000  -0.01280   0.01503
  30       12D-1        0.00000   0.00000  -0.00746   0.00000   0.00000
  31       12D+2        0.00223   0.00000   0.00000   0.00000   0.00000
  32       12D-2        0.00000  -0.00376   0.00000   0.00000   0.00000
  33       13F 0       -0.00201   0.00000   0.00000   0.00000   0.00000
  34       13F+1        0.00000   0.00000   0.00000   0.00534   0.00393
  35       13F-1        0.00000   0.00000   0.00021   0.00000   0.00000
  36       13F+2       -0.00048   0.00000   0.00000   0.00000   0.00000
  37       13F-2        0.00000   0.00033   0.00000   0.00000   0.00000
  38       13F+3        0.00000   0.00000   0.00000   0.00107  -0.00261
  39       13F-3        0.00000   0.00000  -0.00046   0.00000   0.00000
  40       14F 0       -0.00206   0.00000   0.00000   0.00000   0.00000
  41       14F+1        0.00000   0.00000   0.00000   0.00350  -0.00519
  42       14F-1        0.00000   0.00000  -0.00066   0.00000   0.00000
  43       14F+2       -0.00234   0.00000   0.00000   0.00000   0.00000
  44       14F-2        0.00000   0.00118   0.00000   0.00000   0.00000
  45       14F+3        0.00000   0.00000   0.00000   0.00088  -0.00084
  46       14F-3        0.00000   0.00000  -0.00019   0.00000   0.00000
  47 2   C  1S          0.07420   0.00000   0.00000   0.00000   0.00000
  48        2S         -0.21302   0.00000   0.00000   0.00000   0.00000
  49        3S         -0.04572   0.00000   0.00000   0.00000   0.00000
  50        4S         -0.16212   0.00000   0.00000   0.00000   0.00000
  51        5S         -0.02164   0.00000   0.00000   0.00000   0.00000
  52        6PX         0.00000   0.00000   0.00000   0.17265   0.30805
  53        6PY         0.00000   0.00000   0.14210   0.00000   0.00000
  54        6PZ         0.17394   0.00000   0.00000   0.00000   0.00000
  55        7PX         0.00000   0.00000   0.00000   0.22133   0.46519
  56        7PY         0.00000   0.00000   0.20121   0.00000   0.00000
  57        7PZ         0.22219   0.00000   0.00000   0.00000   0.00000
  58        8PX         0.00000   0.00000   0.00000   0.08578   0.15490
  59        8PY         0.00000   0.00000   0.02891   0.00000   0.00000
  60        8PZ         0.03592   0.00000   0.00000   0.00000   0.00000
  61        9PX         0.00000   0.00000   0.00000  -0.00155   0.01011
  62        9PY         0.00000   0.00000  -0.00030   0.00000   0.00000
  63        9PZ        -0.00732   0.00000   0.00000   0.00000   0.00000
  64       10D 0        0.01319   0.00000   0.00000   0.00000   0.00000
  65       10D+1        0.00000   0.00000   0.00000   0.02343  -0.00039
[...]
  73       11D-2        0.00000   0.00000   0.00000   0.00000   0.00000
  74       12D 0        0.00000   1.26199   0.00000   0.00000   0.00000
  75       12D+1        0.00000   0.00000   0.78506   0.00000   0.00000
  76       12D-1        7.11568   0.00000   0.00000  -2.03312   1.17821
  77       12D+2        0.00000   1.46112   0.00000   0.00000   0.00000
  78       12D-2        0.00000   0.00000   0.00000   0.00000   0.00000
  79       13F 0        0.00000  -0.05308   0.00000   0.00000   0.00000
  80       13F+1        0.00000   0.00000  -0.09423   0.00000   0.00000
  81       13F-1       -0.02076   0.00000   0.00000  -0.07648  -0.01145
  82       13F+2        0.00000  -0.03931   0.00000   0.00000   0.00000
  83       13F-2        0.00000   0.00000   0.00000   0.00000   0.00000
  84       13F+3        0.00000   0.00000   0.03945   0.00000   0.00000
  85       13F-3       -0.00620   0.00000   0.00000   0.01313   0.01794
  86       14F 0        0.00000   0.10091   0.00000   0.00000   0.00000
  87       14F+1        0.00000   0.00000  -0.18004   0.00000   0.00000
  88       14F-1        0.47319   0.00000   0.00000  -0.22962  -0.20197
  89       14F+2        0.00000   0.25806   0.00000   0.00000   0.00000
  90       14F-2        0.00000   0.00000   0.00000   0.00000   0.00000
  91       14F+3        0.00000   0.00000   0.00964   0.00000   0.00000
  92       14F-3        0.20421   0.00000   0.00000  -0.20479  -0.08910
  93 3   Cl 1S          0.02952  -0.01488   0.00000  -0.01057   0.01002
  94        2S          0.47230  -0.22401   0.00000  -0.13176   0.16879
  95        3S          1.18818  -0.58581   0.00000  -0.39938   0.40529
  96        4S         -0.23307   0.09373   0.00000  -0.03232  -0.13114
  97        5S         -6.99799   1.80397   0.00000   3.45744  -1.30328
  98        6S         -3.19510   1.42679   0.00000  12.92015  -0.14900
  99        7PX         0.00000   0.00000  -0.01676   0.00000   0.00000
 100        7PY         0.00685   0.00383   0.00000  -0.01324   0.00019
 101        7PZ        -0.01137  -0.00715   0.00000   0.00185   0.00484
 102        8PX         0.00000   0.00000  -0.21489   0.00000   0.00000
 103        8PY        -0.00307   0.06272   0.00000  -0.21071   0.08937
 104        8PZ        -0.29026  -0.08223   0.00000   0.02039   0.11391
 105        9PX         0.00000   0.00000   0.06499   0.00000   0.00000
 106        9PY        -0.01973  -0.03049   0.00000   0.05041   0.00205
 107        9PZ         0.04596   0.01225   0.00000  -0.00979  -0.01682
 108       10PX         0.00000   0.00000   0.93811   0.00000   0.00000
 109       10PY        -3.49311   0.40177   0.00000   4.63417  -0.91888
 110       10PZ        -1.18718   1.93268   0.00000   3.41236  -0.40742
 111       11PX         0.00000   0.00000  -2.26033   0.00000   0.00000
 112       11PY        -0.53722  -0.69552   0.00000   1.92035  -3.27375
 113       11PZ         0.29855  -2.02346   0.00000   1.63517   0.50451
 114       12D 0        0.00871  -0.04118   0.00000  -0.02090   0.00764
 115       12D+1        0.00000   0.00000  -0.02662   0.00000   0.00000
 116       12D-1        0.05179  -0.08436   0.00000   0.01701  -0.01734
 117       12D+2       -0.01018   0.07021   0.00000  -0.02746   0.06255
 118       12D-2        0.00000   0.00000  -0.00978   0.00000   0.00000
 119       13D 0       -0.12881   0.16958   0.00000   0.12973  -0.01270
 120       13D+1        0.00000   0.00000   0.08226   0.00000   0.00000
 121       13D-1       -0.39449   0.37815   0.00000   0.06594   0.13497
 122       13D+2        0.12507  -0.28823   0.00000   0.04968  -0.27176
 123       13D-2        0.00000   0.00000   0.03473   0.00000   0.00000
 124       14D 0        0.57658   0.27362   0.00000   0.09812   0.26013
 125       14D+1        0.00000   0.00000  -0.08192   0.00000   0.00000
 126       14D-1       -0.21966   0.12055   0.00000   1.53942  -0.30168
 127       14D+2        0.27537   0.38776   0.00000  -0.96826   0.82170
 128       14D-2        0.00000   0.00000   0.19978   0.00000   0.00000
 129       15F 0       -0.03328  -0.00098   0.00000   0.00955   0.01265
 130       15F+1        0.00000   0.00000  -0.00390   0.00000   0.00000
 131       15F-1       -0.00224  -0.04161   0.00000  -0.04685   0.00071
 132       15F+2       -0.00204   0.02719   0.00000   0.01286   0.00151
 133       15F-2        0.00000   0.00000  -0.01569   0.00000   0.00000
 134       15F+3        0.00000   0.00000   0.04387   0.00000   0.00000
 135       15F-3        0.03315  -0.00256   0.00000  -0.00594   0.01146
 136       16F 0        0.13664   0.00299   0.00000  -0.03805  -0.02143
 137       16F+1        0.00000   0.00000  -0.00418   0.00000   0.00000
 138       16F-1       -0.06714   0.18179   0.00000   0.19704   0.03504
 139       16F+2        0.10355  -0.12982   0.00000  -0.11330  -0.01405
 140       16F-2        0.00000   0.00000   0.03423   0.00000   0.00000
 141       16F+3        0.00000   0.00000  -0.10641   0.00000   0.00000
 142       16F-3       -0.03532  -0.03447   0.00000  -0.02335   0.00118
 143 4   Cl 1S         -0.02952  -0.01488   0.00000   0.01057  -0.01002
 144        2S         -0.47230  -0.22401   0.00000   0.13176  -0.16879
 145        3S         -1.18818  -0.58581   0.00000   0.39938  -0.40529
 146        4S          0.23307   0.09373   0.00000   0.03232   0.13114
 147        5S          6.99799   1.80397   0.00000  -3.45744   1.30328
 148        6S          3.19510   1.42679   0.00000 -12.92015   0.14900
 149        7PX         0.00000   0.00000  -0.01676   0.00000   0.00000
 150        7PY         0.00685  -0.00383   0.00000  -0.01324   0.00019
 151        7PZ         0.01137  -0.00715   0.00000  -0.00185  -0.00484
 152        8PX         0.00000   0.00000  -0.21489   0.00000   0.00000
 153        8PY        -0.00307  -0.06272   0.00000  -0.21071   0.08937
 154        8PZ         0.29026  -0.08223   0.00000  -0.02039  -0.11391
 155        9PX         0.00000   0.00000   0.06499   0.00000   0.00000
 156        9PY        -0.01973   0.03049   0.00000   0.05041   0.00205
 157        9PZ        -0.04596   0.01225   0.00000   0.00979   0.01682
 158       10PX         0.00000   0.00000   0.93811   0.00000   0.00000
 159       10PY        -3.49311  -0.40177   0.00000   4.63417  -0.91888
 160       10PZ         1.18718   1.93268   0.00000  -3.41236   0.40742
 161       11PX         0.00000   0.00000  -2.26033   0.00000   0.00000
 162       11PY        -0.53722   0.69552   0.00000   1.92035  -3.27375
 163       11PZ        -0.29855  -2.02346   0.00000  -1.63517  -0.50451
 164       12D 0       -0.00871  -0.04118   0.00000   0.02090  -0.00764
 165       12D+1        0.00000   0.00000  -0.02662   0.00000   0.00000
 166       12D-1        0.05179   0.08436   0.00000   0.01701  -0.01734
 167       12D+2        0.01018   0.07021   0.00000   0.02746  -0.06255
 168       12D-2        0.00000   0.00000   0.00978   0.00000   0.00000
 169       13D 0        0.12881   0.16958   0.00000  -0.12973   0.01270
 170       13D+1        0.00000   0.00000   0.08226   0.00000   0.00000
 171       13D-1       -0.39449  -0.37815   0.00000   0.06594   0.13497
 172       13D+2       -0.12507  -0.28823   0.00000  -0.04968   0.27176
 173       13D-2        0.00000   0.00000  -0.03473   0.00000   0.00000
 174       14D 0       -0.57658   0.27362   0.00000  -0.09812  -0.26013
 175       14D+1        0.00000   0.00000  -0.08192   0.00000   0.00000
 176       14D-1       -0.21966  -0.12055   0.00000   1.53942  -0.30168
 177       14D+2       -0.27537   0.38776   0.00000   0.96826  -0.82170
 178       14D-2        0.00000   0.00000  -0.19978   0.00000   0.00000
 179       15F 0        0.03328  -0.00098   0.00000  -0.00955  -0.01265
 180       15F+1        0.00000   0.00000  -0.00390   0.00000   0.00000
 181       15F-1       -0.00224   0.04161   0.00000  -0.04685   0.00071
 182       15F+2        0.00204   0.02719   0.00000  -0.01286  -0.00151
 183       15F-2        0.00000   0.00000   0.01569   0.00000   0.00000
 184       15F+3        0.00000   0.00000   0.04387   0.00000   0.00000
 185       15F-3        0.03315   0.00256   0.00000  -0.00594   0.01146
 186       16F 0       -0.13664   0.00299   0.00000   0.03805   0.02143
 187       16F+1        0.00000   0.00000  -0.00418   0.00000   0.00000
 188       16F-1       -0.06714  -0.18179   0.00000   0.19704   0.03504
 189       16F+2       -0.10355  -0.12982   0.00000   0.11330   0.01405
 190       16F-2        0.00000   0.00000  -0.03423   0.00000   0.00000
 191       16F+3        0.00000   0.00000  -0.10641   0.00000   0.00000
 192       16F-3       -0.03532   0.03447   0.00000  -0.02335   0.00118
                         191       192
     Eigenvalues --     0.00000   0.00000
   1 1   O  1S          0.07397   0.07015
   2        2S          0.39431   0.35810
   3        3S          0.00907  -0.01589
   4        4S         -4.62896  -2.86437
   5        5S         -9.53842  -8.39681
   6        6PX         0.00000   0.00000
   7        6PY         0.00000   0.00000
   8        6PZ        -0.00860   0.00558
   9        7PX         0.00000   0.00000
  10        7PY         0.00000   0.00000
  11        7PZ         0.14058  -0.01894
  12        8PX         0.00000   0.00000
  13        8PY         0.00000   0.00000
  14        8PZ         2.78858   2.11206
  15        9PX         0.00000   0.00000
  16        9PY         0.00000   0.00000
  17        9PZ        -1.36624   0.00974
  18       10D 0        0.04017   0.04066
  19       10D+1        0.00000   0.00000
  20       10D-1        0.00000   0.00000
  21       10D+2       -0.02872  -0.01408
  22       10D-2        0.00000   0.00000
  23       11D 0       -0.31928  -0.21096
  24       11D+1        0.00000   0.00000
  25       11D-1        0.00000   0.00000
  26       11D+2        0.08172   0.04339
  27       11D-2        0.00000   0.00000
  28       12D 0       -0.42440  -0.31104
  29       12D+1        0.00000   0.00000
  30       12D-1        0.00000   0.00000
  31       12D+2       -0.45065  -0.12993
  32       12D-2        0.00000   0.00000
  33       13F 0        0.00760  -0.01047
  34       13F+1        0.00000   0.00000
  35       13F-1        0.00000   0.00000
  36       13F+2       -0.01531  -0.00587
  37       13F-2        0.00000   0.00000
  38       13F+3        0.00000   0.00000
  39       13F-3        0.00000   0.00000
  40       14F 0        0.13524   0.11590
  41       14F+1        0.00000   0.00000
  42       14F-1        0.00000   0.00000
  43       14F+2        0.06959   0.02465
  44       14F-2        0.00000   0.00000
  45       14F+3        0.00000   0.00000
  46       14F-3        0.00000   0.00000
  47 2   C  1S          0.20388   0.02183
  48        2S          1.12582   0.20898
  49        3S         -0.05432   0.10336
  50        4S          6.79874  12.22991
  51        5S         -2.08773  19.38795
  52        6PX         0.00000   0.00000
  53        6PY         0.00000   0.00000
  54        6PZ         0.01799   0.00735
  55        7PX         0.00000   0.00000
  56        7PY         0.00000   0.00000
  57        7PZ         1.05247   0.58288
  58        8PX         0.00000   0.00000
  59        8PY         0.00000   0.00000
  60        8PZ         2.71536  -0.78461
  61        9PX         0.00000   0.00000
  62        9PY         0.00000   0.00000
  63        9PZ         7.27900  -0.63089
  64       10D 0        0.06125   0.04514
  65       10D+1        0.00000   0.00000
  66       10D-1        0.00000   0.00000
  67       10D+2        0.01389  -0.02100
  68       10D-2        0.00000   0.00000
  69       11D 0        0.52352   0.20811
  70       11D+1        0.00000   0.00000
  71       11D-1        0.00000   0.00000
  72       11D+2       -0.07121  -0.02642
  73       11D-2        0.00000   0.00000
  74       12D 0        3.29883   1.61105
  75       12D+1        0.00000   0.00000
  76       12D-1        0.00000   0.00000
  77       12D+2        1.53736  -0.74699
  78       12D-2        0.00000   0.00000
  79       13F 0        0.06090  -0.01138
  80       13F+1        0.00000   0.00000
  81       13F-1        0.00000   0.00000
  82       13F+2       -0.01144  -0.00033
  83       13F-2        0.00000   0.00000
  84       13F+3        0.00000   0.00000
  85       13F-3        0.00000   0.00000
  86       14F 0       -0.04328  -0.04278
  87       14F+1        0.00000   0.00000
  88       14F-1        0.00000   0.00000
  89       14F+2        0.24509   0.01942
  90       14F-2        0.00000   0.00000
  91       14F+3        0.00000   0.00000
  92       14F-3        0.00000   0.00000
  93 3   Cl 1S          0.00771   0.00038
  94        2S          0.13230  -0.01548
  95        3S          0.31366   0.00193
  96        4S         -0.09907   0.06795
  97        5S         -0.86847  -0.55405
  98        6S          4.55232 -10.29190
  99        7PX         0.00000   0.00000
 100        7PY        -0.00555   0.01048
 101        7PZ        -0.01760   0.00574
 102        8PX         0.00000   0.00000
 103        8PY        -0.08984   0.18198
 104        8PZ        -0.27575   0.10281
 105        9PX         0.00000   0.00000
 106        9PY         0.02003  -0.03719
 107        9PZ         0.06560  -0.02076
 108       10PX         0.00000   0.00000
 109       10PY        -0.88692  -2.90190
 110       10PZ         1.52151  -1.33701
 111       11PX         0.00000   0.00000
 112       11PY         0.84381  -1.65252
 113       11PZ        -1.13087  -1.30033
 114       12D 0       -0.01846   0.00242
 115       12D+1        0.00000   0.00000
 116       12D-1        0.00703  -0.00193
 117       12D+2        0.00359  -0.02309
 118       12D-2        0.00000   0.00000
 119       13D 0        0.07677   0.00725
 120       13D+1        0.00000   0.00000
 121       13D-1       -0.04939  -0.00435
 122       13D+2        0.02292   0.10118
 123       13D-2        0.00000   0.00000
 124       14D 0        0.29232   0.14517
 125       14D+1        0.00000   0.00000
 126       14D-1        0.13571  -0.75432
 127       14D+2        0.49640   0.64306
 128       14D-2        0.00000   0.00000
 129       15F 0        0.00278  -0.01647
 130       15F+1        0.00000   0.00000
 131       15F-1        0.01389   0.00723
 132       15F+2        0.00145  -0.04108
 133       15F-2        0.00000   0.00000
 134       15F+3        0.00000   0.00000
 135       15F-3       -0.00251  -0.03439
 136       16F 0       -0.00175   0.05408
 137       16F+1        0.00000   0.00000
 138       16F-1       -0.01015  -0.01802
 139       16F+2        0.01915   0.13636
 140       16F-2        0.00000   0.00000
 141       16F+3        0.00000   0.00000
 142       16F-3        0.05113   0.11618
 143 4   Cl 1S          0.00771   0.00038
 144        2S          0.13230  -0.01548
 145        3S          0.31366   0.00193
 146        4S         -0.09907   0.06795
 147        5S         -0.86847  -0.55405
 148        6S          4.55232 -10.29190
 149        7PX         0.00000   0.00000
 150        7PY         0.00555  -0.01048
 151        7PZ        -0.01760   0.00574
 152        8PX         0.00000   0.00000
 153        8PY         0.08984  -0.18198
 154        8PZ        -0.27575   0.10281
 155        9PX         0.00000   0.00000
 156        9PY        -0.02003   0.03719
 157        9PZ         0.06560  -0.02076
 158       10PX         0.00000   0.00000
 159       10PY         0.88692   2.90190
 160       10PZ         1.52151  -1.33701
 161       11PX         0.00000   0.00000
 162       11PY        -0.84381   1.65252
 163       11PZ        -1.13087  -1.30033
 164       12D 0       -0.01846   0.00242
 165       12D+1        0.00000   0.00000
 166       12D-1       -0.00703   0.00193
 167       12D+2        0.00359  -0.02309
 168       12D-2        0.00000   0.00000
 169       13D 0        0.07677   0.00725
 170       13D+1        0.00000   0.00000
 171       13D-1        0.04939   0.00435
 172       13D+2        0.02292   0.10118
 173       13D-2        0.00000   0.00000
 174       14D 0        0.29232   0.14517
 175       14D+1        0.00000   0.00000
 176       14D-1       -0.13571   0.75432
 177       14D+2        0.49640   0.64306
 178       14D-2        0.00000   0.00000
 179       15F 0        0.00278  -0.01647
 180       15F+1        0.00000   0.00000
 181       15F-1       -0.01389  -0.00723
 182       15F+2        0.00145  -0.04108
 183       15F-2        0.00000   0.00000
 184       15F+3        0.00000   0.00000
 185       15F-3        0.00251   0.03439
 186       16F 0       -0.00175   0.05408
 187       16F+1        0.00000   0.00000
 188       16F-1        0.01015   0.01802
 189       16F+2        0.01915   0.13636
 190       16F-2        0.00000   0.00000
 191       16F+3        0.00000   0.00000
 192       16F-3       -0.05113  -0.11618
          Condensed to atoms (all electrons):
              1          2          3          4
     1  O    8.047598   0.429744  -0.074771  -0.074771
     2  C    0.429744   4.984634   0.132452   0.132452
     3  Cl  -0.074771   0.132452  17.037178  -0.098400
     4  Cl  -0.074771   0.132452  -0.098400  17.037178
 Mulliken atomic charges:
              1
     1  O   -0.327800
     2  C    0.320718
     3  Cl   0.003541
     4  Cl   0.003541
 Sum of Mulliken atomic charges =   0.00000
 Mulliken charges with hydrogens summed into heavy atoms:
              1
     1  O   -0.327800
     2  C    0.320718
     3  Cl   0.003541
     4  Cl   0.003541
 Sum of Mulliken charges with hydrogens summed into heavy atoms =   0.00000
 Electronic spatial extent (au):  <R**2>=            613.7829
 Charge=              0.0000 electrons
 Dipole moment (field-independent basis, Debye):
    X=              0.0000    Y=              0.0000    Z=             -1.3207  Tot=              1.3207
 Quadrupole moment (field-independent basis, Debye-Ang):
   XX=            -35.0840   YY=            -34.2719   ZZ=            -36.2396
   XY=              0.0000   XZ=              0.0000   YZ=              0.0000
 Traceless Quadrupole moment (field-independent basis, Debye-Ang):
   XX=              0.1146   YY=              0.9266   ZZ=             -1.0411
   XY=              0.0000   XZ=              0.0000   YZ=              0.0000
 Octapole moment (field-independent basis, Debye-Ang**2):
  XXX=              0.0000  YYY=              0.0000  ZZZ=            106.2269  XYY=              0.0000
  XXY=              0.0000  XXZ=             36.0459  XZZ=              0.0000  YZZ=              0.0000
  YYZ=             29.5695  XYZ=              0.0000
 Hexadecapole moment (field-independent basis, Debye-Ang**3):
 XXXX=            -37.1048 YYYY=           -328.3263 ZZZZ=           -383.3651 XXXY=              0.0000
 XXXZ=              0.0000 YYYX=              0.0000 YYYZ=              0.0000 ZZZX=              0.0000
 ZZZY=              0.0000 XXYY=            -65.1578 XXZZ=            -71.0800 YYZZ=           -106.7630
 XXYZ=              0.0000 YYXZ=              0.0000 ZZXY=              0.0000
 N-N= 1.917825266389D+02 E-N=-2.837768258610D+03  KE= 1.032395917224D+03
 1\1\GINC-TRAPISTA\SP\RQCISD-FC\Aug-CC-pVTZ\C1Cl2O1\BRUNS\27-Nov-2021\0
 \\# qcisd/aug-cc-pvtz nosymm density=current output=wfn\\cl2co-wavefun
 ction\\0,1\O,0,0.,0.,0.683397\C,0,0.,0.,-0.504687\Cl,0,0.,-1.44687,-1.
 469805\Cl,0,0.,1.44687,-1.469805\\Version=EM64L-G09RevB.01\HF=-1031.80
 17764\MP2=-1032.5821994\MP3=-1032.6007975\MP4D=-1032.6206458\MP4DQ=-10
 32.5980644\MP4SDQ=-1032.6071932\QCISD=-1032.6054265\RMSD=5.065e-09\Dip
 ole=0.,0.,-0.5196158\Quadrupole=0.0851686,0.6888819,-0.7740505,0.,0.,0
 .\PG=C02V [C2(C1O1),SGV(Cl2)]\\@

 Writing a WFN file to GAUSSIAN.wfn.


 This summer one third of the nation will be ill-housed
 ill-nourished and ill-clad. Only they call it a vacation.
 -- Jonas Salk
 Job cpu time:  0 days  2 hours  7 minutes  4.0 seconds.
 File lengths (MBytes):  RWF=  18183 Int=      0 D2E=      0 Chk=      3 Scr=      1
 Normal termination of Gaussian 09 at Sat Nov 27 14:32:40 2021.
