 Entering Gaussian System, Link 0=/home/bruns/programas/chemistry/gaussian/g09/g09
 Input=GAUSSIAN.com
 Output=GAUSSIAN.log
 Initial command:
 /home/bruns/programas/chemistry/gaussian/g09/l1.exe /home/bruns/programas/chemistry/gaussian/work/Gau-54308.inp -scrdir=/home/bruns/programas/chemistry/gaussian/work/
 Entering Link 1 = /home/bruns/programas/chemistry/gaussian/g09/l1.exe PID=     54310.
  
 Copyright (c) 1988,1990,1992,1993,1995,1998,2003,2009,2010,
            Gaussian, Inc.  All Rights Reserved.
  
 This is part of the Gaussian(R) 09 program.  It is based on
 the Gaussian(R) 03 system (copyright 2003, Gaussian, Inc.),
 the Gaussian(R) 98 system (copyright 1998, Gaussian, Inc.),
 the Gaussian(R) 94 system (copyright 1995, Gaussian, Inc.),
 the Gaussian 92(TM) system (copyright 1992, Gaussian, Inc.),
 the Gaussian 90(TM) system (copyright 1990, Gaussian, Inc.),
 the Gaussian 88(TM) system (copyright 1988, Gaussian, Inc.),
 the Gaussian 86(TM) system (copyright 1986, Carnegie Mellon
 University), and the Gaussian 82(TM) system (copyright 1983,
 Carnegie Mellon University). Gaussian is a federally registered
 trademark of Gaussian, Inc.
  
 This software contains proprietary and confidential information,
 including trade secrets, belonging to Gaussian, Inc.
  
 This software is provided under written license and may be
 used, copied, transmitted, or stored only in accord with that
 written license.
  
 The following legend is applicable only to US Government
 contracts under FAR:
  
                    RESTRICTED RIGHTS LEGEND
  
 Use, reproduction and disclosure by the US Government is
 subject to restrictions as set forth in subparagraphs (a)
 and (c) of the Commercial Computer Software - Restricted
 Rights clause in FAR 52.227-19.
  
 Gaussian, Inc.
 340 Quinnipiac St., Bldg. 40, Wallingford CT 06492
  
  
 ---------------------------------------------------------------
 Warning -- This program may not be used in any manner that
 competes with the business of Gaussian, Inc. or will provide
 assistance to any competitor of Gaussian, Inc.  The licensee
 of this program is prohibited from giving any competitor of
 Gaussian, Inc. access to this program.  By using this program,
 the user acknowledges that Gaussian, Inc. is engaged in the
 business of creating and licensing software in the field of
 computational chemistry and represents and warrants to the
 licensee that it is not a competitor of Gaussian, Inc. and that
 it will not use this program in any manner prohibited above.
 ---------------------------------------------------------------
  

 Cite this work as:
 Gaussian 09, Revision B.01,
 M. J. Frisch, G. W. Trucks, H. B. Schlegel, G. E. Scuseria, 
 M. A. Robb, J. R. Cheeseman, G. Scalmani, V. Barone, B. Mennucci, 
 G. A. Petersson, H. Nakatsuji, M. Caricato, X. Li, H. P. Hratchian, 
 A. F. Izmaylov, J. Bloino, G. Zheng, J. L. Sonnenberg, M. Hada, 
 M. Ehara, K. Toyota, R. Fukuda, J. Hasegawa, M. Ishida, T. Nakajima, 
 Y. Honda, O. Kitao, H. Nakai, T. Vreven, J. A. Montgomery, Jr., 
 J. E. Peralta, F. Ogliaro, M. Bearpark, J. J. Heyd, E. Brothers, 
 K. N. Kudin, V. N. Staroverov, T. Keith, R. Kobayashi, J. Normand, 
 K. Raghavachari, A. Rendell, J. C. Burant, S. S. Iyengar, J. Tomasi, 
 M. Cossi, N. Rega, J. M. Millam, M. Klene, J. E. Knox, J. B. Cross, 
 V. Bakken, C. Adamo, J. Jaramillo, R. Gomperts, R. E. Stratmann, 
 O. Yazyev, A. J. Austin, R. Cammi, C. Pomelli, J. W. Ochterski, 
 R. L. Martin, K. Morokuma, V. G. Zakrzewski, G. A. Voth, 
 P. Salvador, J. J. Dannenberg, S. Dapprich, A. D. Daniels, 
 O. Farkas, J. B. Foresman, J. V. Ortiz, J. Cioslowski, 
 and D. J. Fox, Gaussian, Inc., Wallingford CT, 2010.
 
 ******************************************
 Gaussian 09:  EM64L-G09RevB.01 12-Aug-2010
                27-Nov-2021 
 ******************************************
 %nproc=8
 Will use up to    8 processors via shared memory.
 %mem=8GB
 -----------------------------------------------------
 # qcisd/aug-cc-pvtz nosymm density=current output=wfn
 -----------------------------------------------------
 1/30=1,38=1/1;
 2/12=2,15=1,17=6,18=5,40=1/2;
 3/5=16,6=1,7=10,11=9,16=1,25=1,30=1,71=1/1,2,3;
 4//1;
 5/5=2,38=5/2;
 8/6=4,9=120000,10=1/1,4;
 9/5=8,15=1/13;
 11/28=-7,31=1,32=3,42=3/11;
 10/5=6,13=10,31=1/2;
 6/7=2,8=2,9=2,10=2,22=-1,31=1/1;
 99/5=1,6=1100,9=1/99;
 ------------------
 cl2co-wavefunction
 ------------------
 Symbolic Z-matrix:
 Charge =  0 Multiplicity = 1
 O                     0.        0.        0.6834 
 C                     0.        0.       -0.49469 
 Cl                    0.       -1.44687  -1.46981 
 Cl                    0.        1.44687  -1.47981 
 
                          Input orientation:                          
 ---------------------------------------------------------------------
 Center     Atomic      Atomic             Coordinates (Angstroms)
 Number     Number       Type             X           Y           Z
 ---------------------------------------------------------------------
      1          8           0        0.000000    0.000000    0.683397
      2          6           0        0.000000    0.000000   -0.494687
      3         17           0        0.000000   -1.446870   -1.469805
      4         17           0        0.000000    1.446870   -1.479805
 ---------------------------------------------------------------------
                    Distance matrix (angstroms):
                    1          2          3          4
     1  O    0.000000
     2  C    1.178084   0.000000
     3  Cl   2.594169   1.744789   0.000000
     4  Cl   2.602475   1.750397   2.893757   0.000000
 Symmetry turned off by external request.
 Stoichiometry    CCl2O
 Framework group  CS[SG(CCl2O)]
 Deg. of freedom     5
 Full point group                 CS      NOp   2
 Rotational constants (GHZ):      7.8773721      3.4517359      2.4000661
 Standard basis: Aug-CC-pVTZ (5D, 7F)
 Integral buffers will be    131072 words long.
 Raffenetti 1 integral format.
 Two-electron integral symmetry is turned off.
   192 basis functions,   372 primitive gaussians,   228 cartesian basis functions
    24 alpha electrons       24 beta electrons
       nuclear repulsion energy       191.5779129324 Hartrees.
 NAtoms=    4 NActive=    4 NUniq=    4 SFac= 1.00D+00 NAtFMM=   50 NAOKFM=F Big=F
 One-electron integrals computed using PRISM.
 NBasis=   192 RedAO= T  NBF=   192
 NBsUse=   192 1.00D-06 NBFU=   192
 Harris functional with IExCor=  205 diagonalized for initial guess.
 ExpMin= 3.57D-02 ExpMax= 4.56D+05 ExpMxC= 1.44D+03 IAcc=3 IRadAn=         0 AccDes= 0.00D+00
 HarFok:  IExCor=  205 AccDes= 0.00D+00 IRadAn=         0 IDoV= 1
 ScaDFX=  1.000000  1.000000  1.000000  1.000000
 FoFCou: FMM=F IPFlag=           0 FMFlag=      100000 FMFlg1=           0
         NFxFlg=           0 DoJE=T BraDBF=F KetDBF=T FulRan=T
         Omega=  0.000000  0.000000  1.000000  0.000000  0.000000 ICntrl=     500 IOpCl=  0
         NMat0=    1 NMatS0=    1 NMatT0=    0 NMatD0=    1 NMtDS0=    0 NMtDT0=    0
         I1Cent=           4 NGrid=           0.
 Symmetry not used in FoFCou.
 Requested convergence on RMS density matrix=1.00D-08 within 128 cycles.
 Requested convergence on MAX density matrix=1.00D-06.
 Requested convergence on             energy=1.00D-06.
 No special actions if energy rises.
 Keep R1 ints in memory in canonical form, NReq=346956363.
 SCF Done:  E(RHF) =  -1031.80261258     A.U. after   12 cycles
             Convg  =    0.4784D-08             -V/T =  2.0003
 ExpMin= 3.57D-02 ExpMax= 4.56D+05 ExpMxC= 1.44D+03 IAcc=3 IRadAn=         5 AccDes= 0.00D+00
 HarFok:  IExCor=  205 AccDes= 0.00D+00 IRadAn=         5 IDoV=-2
 ScaDFX=  1.000000  1.000000  1.000000  1.000000
 DSYEVD returned Info=          93 IAlg= 4 N=    46 NDim=    46 NE2=    21472416 trying DSYEV.
 Range of M.O.s used for correlation:    13   192
 NBasis=   192 NAE=    24 NBE=    24 NFC=    12 NFV=     0
 NROrb=    180 NOA=    12 NOB=    12 NVA=   168 NVB=   168

 **** Warning!!: The largest alpha MO coefficient is  0.28482527D+02

 Semi-Direct transformation.
 ModeAB=           2 MOrb=            12 LenV=    1072714379
 LASXX=     33405819 LTotXX=    33405819 LenRXX=    33405819
 LTotAB=    33954012 MaxLAS=    56388960 LenRXY=    56388960
 NonZer=    66811638 LenScr=   100987392 LnRSAI=           0
 LnScr1=           0 LExtra=           0 Total=    190782171
 MaxDsk=          -1 SrtSym=           F ITran=            4
 JobTyp=0 Pass  1:  I=   1 to  12.
 (rs|ai) integrals will be sorted in core.
 Spin components of T(2) and E(2):
     alpha-alpha T2 =       0.3526144045D-01 E2=     -0.1018093930D+00
     alpha-beta  T2 =       0.1835833029D+00 E2=     -0.5759142685D+00
     beta-beta   T2 =       0.3526144045D-01 E2=     -0.1018093930D+00
 ANorm=    0.1119868824D+01
 E2 =    -0.7795330546D+00 EUMP2 =    -0.10325821456376D+04
 R2 and R3 integrals will be kept in memory, NReq=   687553722.
 Iterations=  50 Convergence= 0.100D-07
 Iteration Nr.   1
 **********************
 DD1Dir will call FoFMem   1 times, MxPair=       156
 NAB=    78 NAA=     0 NBB=     0.
 MP4(R+Q)=  0.22544084D-01
 E3=       -0.19019869D-01        EUMP3=      -0.10326011655D+04
 E4(DQ)=    0.28473285D-02        UMP4(DQ)=   -0.10325983182D+04
 E4(SDQ)=  -0.61619600D-02        UMP4(SDQ)=  -0.10326073275D+04
 DE(Corr)= -0.77600884     E(Corr)=     -1032.5786214    
 NORM(A)=   0.11214456D+01
 Iteration Nr.   2
 **********************
 DD1Dir will call FoFMem   1 times, MxPair=       156
 NAB=    78 NAA=     0 NBB=     0.
 DE(Corr)= -0.80177551     E(CORR)=     -1032.6043881     Delta=-2.58D-02
 NORM(A)=   0.11308259D+01
 Iteration Nr.   3
 **********************
 DD1Dir will call FoFMem   1 times, MxPair=       156
 NAB=    78 NAA=     0 NBB=     0.
 DE(Corr)= -0.80015807     E(CORR)=     -1032.6027706     Delta= 1.62D-03
 NORM(A)=   0.11334407D+01
 Iteration Nr.   4
 **********************
 DD1Dir will call FoFMem   1 times, MxPair=       156
 NAB=    78 NAA=     0 NBB=     0.
 DE(Corr)= -0.80259654     E(CORR)=     -1032.6052091     Delta=-2.44D-03
 NORM(A)=   0.11344566D+01
 Iteration Nr.   5
 **********************
 DD1Dir will call FoFMem   1 times, MxPair=       156
 NAB=    78 NAA=     0 NBB=     0.
 DE(Corr)= -0.80291516     E(CORR)=     -1032.6055277     Delta=-3.19D-04
 NORM(A)=   0.11348489D+01
 Iteration Nr.   6
 **********************
 DD1Dir will call FoFMem   1 times, MxPair=       156
 NAB=    78 NAA=     0 NBB=     0.
 DE(Corr)= -0.80296605     E(CORR)=     -1032.6055786     Delta=-5.09D-05
 NORM(A)=   0.11349206D+01
 Iteration Nr.   7
 **********************
 DD1Dir will call FoFMem   1 times, MxPair=       156
 NAB=    78 NAA=     0 NBB=     0.
 DE(Corr)= -0.80297526     E(CORR)=     -1032.6055878     Delta=-9.21D-06
 NORM(A)=   0.11349219D+01
 Iteration Nr.   8
 **********************
 DD1Dir will call FoFMem   1 times, MxPair=       156
 NAB=    78 NAA=     0 NBB=     0.
 DE(Corr)= -0.80297485     E(CORR)=     -1032.6055874     Delta= 4.11D-07
 NORM(A)=   0.11349300D+01
 Iteration Nr.   9
 **********************
 DD1Dir will call FoFMem   1 times, MxPair=       156
 NAB=    78 NAA=     0 NBB=     0.
 DE(Corr)= -0.80297358     E(CORR)=     -1032.6055862     Delta= 1.27D-06
 NORM(A)=   0.11349296D+01
 Iteration Nr.  10
 **********************
 DD1Dir will call FoFMem   1 times, MxPair=       156
 NAB=    78 NAA=     0 NBB=     0.
 DE(Corr)= -0.80297477     E(CORR)=     -1032.6055874     Delta=-1.19D-06
 NORM(A)=   0.11349312D+01
 Iteration Nr.  11
 **********************
 DD1Dir will call FoFMem   1 times, MxPair=       156
 NAB=    78 NAA=     0 NBB=     0.
 DE(Corr)= -0.80297560     E(CORR)=     -1032.6055882     Delta=-8.29D-07
 NORM(A)=   0.11349324D+01
 Iteration Nr.  12
 **********************
 DD1Dir will call FoFMem   1 times, MxPair=       156
 NAB=    78 NAA=     0 NBB=     0.
 DE(Corr)= -0.80297585     E(CORR)=     -1032.6055884     Delta=-2.47D-07
 NORM(A)=   0.11349331D+01
 Iteration Nr.  13
 **********************
 DD1Dir will call FoFMem   1 times, MxPair=       156
 NAB=    78 NAA=     0 NBB=     0.
 DE(Corr)= -0.80297618     E(CORR)=     -1032.6055888     Delta=-3.30D-07
 NORM(A)=   0.11349335D+01
 Iteration Nr.  14
 **********************
 DD1Dir will call FoFMem   1 times, MxPair=       156
 NAB=    78 NAA=     0 NBB=     0.
 DE(Corr)= -0.80297624     E(CORR)=     -1032.6055888     Delta=-6.41D-08
 NORM(A)=   0.11349337D+01
 Iteration Nr.  15
 **********************
 DD1Dir will call FoFMem   1 times, MxPair=       156
 NAB=    78 NAA=     0 NBB=     0.
 DE(Corr)= -0.80297629     E(CORR)=     -1032.6055889     Delta=-4.86D-08
 NORM(A)=   0.11349338D+01
 Iteration Nr.  16
 **********************
 DD1Dir will call FoFMem   1 times, MxPair=       156
 NAB=    78 NAA=     0 NBB=     0.
 DE(Corr)= -0.80297631     E(CORR)=     -1032.6055889     Delta=-1.61D-08
 NORM(A)=   0.11349338D+01
 Iteration Nr.  17
 **********************
 DD1Dir will call FoFMem   1 times, MxPair=       156
 NAB=    78 NAA=     0 NBB=     0.
 DE(Corr)= -0.80297631     E(CORR)=     -1032.6055889     Delta= 1.26D-09
 NORM(A)=   0.11349338D+01
 Iteration Nr.  18
 **********************
 DD1Dir will call FoFMem   1 times, MxPair=       156
 NAB=    78 NAA=     0 NBB=     0.
 DE(Corr)= -0.80297631     E(CORR)=     -1032.6055889     Delta=-9.06D-10
 NORM(A)=   0.11349338D+01
 Iteration Nr.  19
 **********************
 DD1Dir will call FoFMem   1 times, MxPair=       156
 NAB=    78 NAA=     0 NBB=     0.
 DE(Corr)= -0.80297631     E(CORR)=     -1032.6055889     Delta= 7.74D-10
 NORM(A)=   0.11349338D+01
 Largest amplitude= 3.28D-02

 Z-AMPLITUDE ITERATIONS

 Iteration Nr.   1
 **********************
 DD1Dir will call FoFMem   1 times, MxPair=       156
 NAB=    78 NAA=     0 NBB=     0.
 DE(Z)  -0.77490342D+00          E(Z)=    -0.10325775160D+04
 NORM(A)=   0.11348975D+01
 Iteration Nr.   2
 **********************
 DD1Dir will call FoFMem   1 times, MxPair=       156
 NAB=    78 NAA=     0 NBB=     0.
 DE(Z)  -0.77490224D+00          E(Z)=    -0.10325775148D+04
 NORM(A)=   0.11349142D+01
 Iteration Nr.   3
 **********************
 DD1Dir will call FoFMem   1 times, MxPair=       156
 NAB=    78 NAA=     0 NBB=     0.
 DE(Z)  -0.77490284D+00          E(Z)=    -0.10325775154D+04
 NORM(A)=   0.11348827D+01
 Iteration Nr.   4
 **********************
 DD1Dir will call FoFMem   1 times, MxPair=       156
 NAB=    78 NAA=     0 NBB=     0.
 DE(Z)  -0.77490182D+00          E(Z)=    -0.10325775144D+04
 NORM(A)=   0.11346477D+01
 Iteration Nr.   5
 **********************
 DD1Dir will call FoFMem   1 times, MxPair=       156
 NAB=    78 NAA=     0 NBB=     0.
 DE(Z)  -0.77489418D+00          E(Z)=    -0.10325775068D+04
 NORM(A)=   0.11252444D+01
 Iteration Nr.   6
 **********************
 DD1Dir will call FoFMem   1 times, MxPair=       156
 NAB=    78 NAA=     0 NBB=     0.
 DE(Z)  -0.77458681D+00          E(Z)=    -0.10325771994D+04
 NORM(A)=   0.11252460D+01
 Iteration Nr.   7
 **********************
 DD1Dir will call FoFMem   1 times, MxPair=       156
 NAB=    78 NAA=     0 NBB=     0.
 DE(Z)  -0.77458662D+00          E(Z)=    -0.10325771992D+04
 NORM(A)=   0.11252459D+01
 Iteration Nr.   8
 **********************
 DD1Dir will call FoFMem   1 times, MxPair=       156
 NAB=    78 NAA=     0 NBB=     0.
 DE(Z)  -0.77458639D+00          E(Z)=    -0.10325771990D+04
 NORM(A)=   0.11252460D+01
 Iteration Nr.   9
 **********************
 DD1Dir will call FoFMem   1 times, MxPair=       156
 NAB=    78 NAA=     0 NBB=     0.
 DE(Z)  -0.77458674D+00          E(Z)=    -0.10325771993D+04
 NORM(A)=   0.11252463D+01
 Iteration Nr.  10
 **********************
 DD1Dir will call FoFMem   1 times, MxPair=       156
 NAB=    78 NAA=     0 NBB=     0.
 DE(Z)  -0.77458655D+00          E(Z)=    -0.10325771991D+04
 NORM(A)=   0.11252464D+01
 Iteration Nr.  11
 **********************
 DD1Dir will call FoFMem   1 times, MxPair=       156
 NAB=    78 NAA=     0 NBB=     0.
 DE(Z)  -0.77458667D+00          E(Z)=    -0.10325771993D+04
 NORM(A)=   0.11252465D+01
 Iteration Nr.  12
 **********************
 DD1Dir will call FoFMem   1 times, MxPair=       156
 NAB=    78 NAA=     0 NBB=     0.
 DE(Z)  -0.77458667D+00          E(Z)=    -0.10325771993D+04
 NORM(A)=   0.11252465D+01
 Iteration Nr.  13
 **********************
 DD1Dir will call FoFMem   1 times, MxPair=       156
 NAB=    78 NAA=     0 NBB=     0.
 DE(Z)  -0.77458667D+00          E(Z)=    -0.10325771993D+04
 NORM(A)=   0.11252465D+01
 Iteration Nr.  14
 **********************
 DD1Dir will call FoFMem   1 times, MxPair=       156
 NAB=    78 NAA=     0 NBB=     0.
 DE(Z)  -0.77458668D+00          E(Z)=    -0.10325771993D+04
 NORM(A)=   0.11252465D+01
 Discarding MO integrals.
          Differentiating once with respect to electric field.
                with respect to dipole field.
          Electric field/nuclear overlap derivatives assumed to be zero.
          Keep R1 ints in memory in canonical form, NReq=342715808.
          There are     1 degrees of freedom in the 1st order CPHF.  IDoFFX=0.
 LinEq1:  Iter=  0 NonCon=     1 RMS=2.34D-03 Max=5.54D-02
 AX will form     1 AO Fock derivatives at one time.
 LinEq1:  Iter=  1 NonCon=     1 RMS=8.31D-04 Max=1.86D-02
 LinEq1:  Iter=  2 NonCon=     1 RMS=3.11D-04 Max=5.61D-03
 LinEq1:  Iter=  3 NonCon=     1 RMS=1.28D-04 Max=3.28D-03
 LinEq1:  Iter=  4 NonCon=     1 RMS=5.14D-05 Max=1.25D-03
 LinEq1:  Iter=  5 NonCon=     1 RMS=1.66D-05 Max=3.60D-04
 LinEq1:  Iter=  6 NonCon=     1 RMS=4.20D-06 Max=5.82D-05
 LinEq1:  Iter=  7 NonCon=     1 RMS=9.98D-07 Max=1.16D-05
 LinEq1:  Iter=  8 NonCon=     1 RMS=2.11D-07 Max=3.14D-06
 LinEq1:  Iter=  9 NonCon=     1 RMS=4.77D-08 Max=8.04D-07
 LinEq1:  Iter= 10 NonCon=     1 RMS=1.21D-08 Max=2.21D-07
 LinEq1:  Iter= 11 NonCon=     1 RMS=2.54D-09 Max=3.81D-08
 LinEq1:  Iter= 12 NonCon=     1 RMS=4.67D-10 Max=1.17D-08
 LinEq1:  Iter= 13 NonCon=     1 RMS=8.36D-11 Max=1.24D-09
 LinEq1:  Iter= 14 NonCon=     0 RMS=1.97D-11 Max=3.01D-10
 Linear equations converged to 1.000D-10 1.000D-09 after    14 iterations.
 End of Minotr Frequency-dependent properties file   721 does not exist.
 End of Minotr Frequency-dependent properties file   722 does not exist.

 **********************************************************************

            Population analysis using the QCI/CC density.

 **********************************************************************

     Natural Orbital Coefficients:
                           1         2         3         4         5
     Eigenvalues --     2.00004   2.00004   2.00003   2.00003   2.00003
   1 1   O  1S         -0.00049   0.01069   0.00000   0.00000   0.00213
   2        2S          0.00002  -0.00025   0.00000   0.00000  -0.00007
   3        3S         -0.00002   0.00050   0.00000   0.00000   0.00008
   4        4S          0.00001   0.00088   0.00000   0.00000   0.00008
   5        5S         -0.00010   0.00298   0.00000   0.00000   0.00004
   6        6PX         0.00000   0.00000   0.00000  -0.00106   0.00000
   7        6PY        -0.00018   0.00000   0.00000   0.00000   0.00025
   8        6PZ        -0.00001   0.00032   0.00000   0.00000  -0.00001
   9        7PX         0.00000   0.00000   0.00001  -0.00158   0.00000
  10        7PY        -0.00100  -0.00004   0.00000   0.00000   0.00048
  11        7PZ        -0.00003   0.00062   0.00000   0.00000  -0.00003
  12        8PX         0.00000   0.00000   0.00002  -0.00148   0.00000
  13        8PY        -0.00361  -0.00011   0.00000   0.00000   0.00153
  14        8PZ        -0.00010   0.00238   0.00000   0.00000  -0.00011
  15        9PX         0.00000   0.00000   0.00001   0.00035   0.00000
  16        9PY        -0.00046  -0.00001   0.00000   0.00000   0.00115
  17        9PZ        -0.00001   0.00025   0.00000   0.00000   0.00002
  18       10D 0        0.00000   0.00001   0.00000   0.00000   0.00000
  19       10D+1        0.00000   0.00000   0.00000  -0.00003   0.00000
  20       10D-1       -0.00002   0.00000   0.00000   0.00000   0.00003
  21       10D+2        0.00000   0.00003   0.00000   0.00000   0.00000
  22       10D-2        0.00000   0.00000   0.00001   0.00000   0.00000
  23       11D 0        0.00001  -0.00022   0.00000   0.00000   0.00001
  24       11D+1        0.00000   0.00000   0.00000   0.00013   0.00000
  25       11D-1       -0.00005   0.00000   0.00000   0.00000  -0.00009
  26       11D+2        0.00002  -0.00024   0.00000   0.00000   0.00000
  27       11D-2        0.00000   0.00000   0.00002   0.00000   0.00000
  28       12D 0        0.00003  -0.00072   0.00000   0.00000   0.00001
  29       12D+1        0.00000   0.00000   0.00000   0.00014   0.00000
  30       12D-1        0.00057   0.00002   0.00000   0.00000  -0.00028
  31       12D+2        0.00000   0.00019   0.00000   0.00000  -0.00004
  32       12D-2        0.00000   0.00000  -0.00082   0.00000   0.00000
  33       13F 0        0.00000   0.00001   0.00000   0.00000   0.00000
  34       13F+1        0.00000   0.00000   0.00000   0.00002   0.00000
  35       13F-1        0.00003   0.00000   0.00000   0.00000  -0.00002
  36       13F+2        0.00000   0.00000   0.00000   0.00000   0.00000
  37       13F-2        0.00000   0.00000  -0.00006   0.00000   0.00000
  38       13F+3        0.00000   0.00000   0.00000   0.00004   0.00000
  39       13F-3        0.00004   0.00000   0.00000   0.00000   0.00000
  40       14F 0       -0.00001   0.00011   0.00000   0.00000   0.00001
  41       14F+1        0.00000   0.00000   0.00000  -0.00008   0.00000
  42       14F-1        0.00030   0.00001   0.00000   0.00000   0.00003
  43       14F+2       -0.00001   0.00014   0.00000   0.00000   0.00001
  44       14F-2        0.00000   0.00000   0.00020   0.00000   0.00000
  45       14F+3        0.00000   0.00000   0.00000  -0.00017   0.00000
  46       14F-3       -0.00019  -0.00001   0.00000   0.00000   0.00004
  47 2   C  1S          0.00047  -0.01143   0.00000   0.00000  -0.02176
  48        2S         -0.00006   0.00142   0.00000   0.00000   0.00044
  49        3S          0.00000  -0.00015   0.00000   0.00000  -0.00080
  50        4S          0.00001  -0.00005   0.00000   0.00000  -0.00095
  51        5S         -0.00005   0.00126   0.00000   0.00000  -0.00007
  52        6PX         0.00000   0.00000  -0.00001   0.00168   0.00000
  53        6PY         0.00050   0.00001   0.00000   0.00000  -0.00069
  54        6PZ        -0.00002   0.00045   0.00000   0.00000  -0.00006
  55        7PX         0.00000   0.00000  -0.00001   0.00196   0.00000
  56        7PY         0.00033   0.00002   0.00000   0.00000   0.00015
  57        7PZ        -0.00008   0.00192   0.00000   0.00000  -0.00010
  58        8PX         0.00000   0.00000  -0.00001   0.00087   0.00000
  59        8PY         0.00073   0.00001   0.00000   0.00000   0.00242
  60        8PZ         0.00007  -0.00206   0.00000   0.00000   0.00036
  61        9PX         0.00000   0.00000   0.00000  -0.00072   0.00000
  62        9PY        -0.00041  -0.00002   0.00000   0.00000  -0.00110
  63        9PZ         0.00004  -0.00099   0.00000   0.00000  -0.00003
  64       10D 0        0.00001  -0.00032   0.00000   0.00000  -0.00001
  65       10D+1        0.00000   0.00000   0.00000  -0.00031   0.00000
  66       10D-1        0.00005   0.00000   0.00000   0.00000  -0.00002
  67       10D+2        0.00001  -0.00022   0.00000   0.00000   0.00001
  68       10D-2        0.00000   0.00000   0.00036   0.00000   0.00000
  69       11D 0       -0.00004   0.00036   0.00000   0.00000  -0.00002
  70       11D+1        0.00000   0.00000  -0.00001   0.00023   0.00000
  71       11D-1        0.00021   0.00001   0.00000   0.00000  -0.00151
  72       11D+2       -0.00004   0.00064   0.00000   0.00000   0.00014
  73       11D-2        0.00000   0.00000  -0.00011   0.00001   0.00000
  74       12D 0        0.00013  -0.00392   0.00000   0.00000   0.00000
  75       12D+1        0.00000   0.00000  -0.00001  -0.00083   0.00000
  76       12D-1        0.00106   0.00002   0.00000   0.00000  -0.00222
  77       12D+2        0.00008  -0.00227   0.00000   0.00000   0.00012
  78       12D-2        0.00000   0.00000   0.00141   0.00000   0.00000
  79       13F 0       -0.00001   0.00017   0.00000   0.00000  -0.00002
  80       13F+1        0.00000   0.00000   0.00000   0.00007   0.00000
  81       13F-1       -0.00041  -0.00001   0.00000   0.00000   0.00002
  82       13F+2        0.00000   0.00002   0.00000   0.00000   0.00000
  83       13F-2        0.00000   0.00000  -0.00011   0.00000   0.00000
  84       13F+3        0.00000   0.00000   0.00000  -0.00009   0.00000
  85       13F-3       -0.00008   0.00000   0.00000   0.00000   0.00000
  86       14F 0        0.00001  -0.00092   0.00000   0.00000   0.00004
  87       14F+1        0.00000   0.00000   0.00000   0.00010   0.00000
  88       14F-1        0.00396   0.00013   0.00000   0.00000  -0.00043
  89       14F+2       -0.00002  -0.00006   0.00000   0.00000   0.00000
  90       14F-2        0.00000   0.00000   0.00120   0.00000   0.00000
  91       14F+3        0.00000   0.00000  -0.00001   0.00060   0.00000
  92       14F-3        0.00116   0.00004   0.00000   0.00000  -0.00041
  93 3   Cl 1S         -0.00026  -0.00250   0.00000   0.00000  -0.19756
  94        2S          0.00124   0.00884   0.00000   0.00000   0.66685
  95        3S          0.00042   0.00015   0.00000   0.00000  -0.01977
  96        4S          0.00008   0.00050   0.00000   0.00000   0.05173
  97        5S         -0.00051  -0.00108   0.00000   0.00000  -0.00125
  98        6S         -0.00062  -0.00201   0.00000   0.00000  -0.00161
  99        7PX         0.00000   0.00000   0.69312  -0.69142   0.00000
 100        7PY        -0.40573   0.33136   0.00000   0.00000  -0.34903
 101        7PZ         0.59242  -0.57858   0.00000   0.00000  -0.23519
 102        8PX         0.00000   0.00000  -0.01496   0.01338   0.00000
 103        8PY         0.01015  -0.00697   0.00000   0.00000   0.00670
 104        8PZ        -0.01442   0.01335   0.00000   0.00000   0.00469
 105        9PX         0.00000   0.00000   0.03669  -0.03708   0.00000
 106        9PY        -0.02108   0.01726   0.00000   0.00000  -0.01984
 107        9PZ         0.03095  -0.03034   0.00000   0.00000  -0.01340
 108       10PX         0.00000   0.00000  -0.00382   0.00332   0.00000
 109       10PY         0.00312  -0.00141   0.00000   0.00000   0.00200
 110       10PZ        -0.00507   0.00179   0.00000   0.00000   0.00149
 111       11PX         0.00000   0.00000  -0.00056   0.00081   0.00000
 112       11PY         0.00042  -0.00042   0.00000   0.00000   0.00016
 113       11PZ        -0.00065   0.00024   0.00000   0.00000  -0.00007
 114       12D 0        0.00044  -0.00024   0.00000   0.00000  -0.00005
 115       12D+1        0.00000   0.00000   0.00017  -0.00015   0.00000
 116       12D-1        0.00023  -0.00012   0.00000   0.00000   0.00015
 117       12D+2        0.00024  -0.00012   0.00000   0.00000  -0.00006
 118       12D-2        0.00000   0.00000   0.00029  -0.00014   0.00000
 119       13D 0       -0.00195   0.00099   0.00000   0.00000   0.00021
 120       13D+1        0.00000   0.00000  -0.00072   0.00060   0.00000
 121       13D-1       -0.00083   0.00099   0.00000   0.00000   0.00069
 122       13D+2       -0.00086   0.00061   0.00000   0.00000  -0.00045
 123       13D-2        0.00000   0.00000  -0.00107   0.00097   0.00000
 124       14D 0       -0.00003  -0.00075   0.00000   0.00000  -0.00006
 125       14D+1        0.00000   0.00000   0.00043   0.00005   0.00000
 126       14D-1       -0.00005  -0.00020   0.00000   0.00000   0.00032
 127       14D+2        0.00010  -0.00044   0.00000   0.00000   0.00009
 128       14D-2        0.00000   0.00000   0.00025  -0.00010   0.00000
 129       15F 0        0.00000   0.00001   0.00000   0.00000   0.00002
 130       15F+1        0.00000   0.00000  -0.00007  -0.00004   0.00000
 131       15F-1        0.00001   0.00003   0.00000   0.00000   0.00002
 132       15F+2        0.00003   0.00002   0.00000   0.00000  -0.00001
 133       15F-2        0.00000   0.00000   0.00000  -0.00001   0.00000
 134       15F+3        0.00000   0.00000  -0.00001  -0.00001   0.00000
 135       15F-3        0.00001   0.00004   0.00000   0.00000  -0.00002
 136       16F 0       -0.00039  -0.00014   0.00000   0.00000  -0.00014
 137       16F+1        0.00000   0.00000   0.00014   0.00015   0.00000
 138       16F-1       -0.00091   0.00046   0.00000   0.00000   0.00016
 139       16F+2       -0.00005  -0.00029   0.00000   0.00000  -0.00024
 140       16F-2        0.00000   0.00000  -0.00036   0.00032   0.00000
 141       16F+3        0.00000   0.00000   0.00032  -0.00028   0.00000
 142       16F-3       -0.00019   0.00018   0.00000   0.00000  -0.00007
 143 4   Cl 1S          0.00045  -0.00238   0.00000   0.00000   0.14658
 144        2S         -0.00190   0.00842   0.00000   0.00000  -0.49487
 145        3S         -0.00042   0.00013   0.00000   0.00000   0.01460
 146        4S         -0.00011   0.00047   0.00000   0.00000  -0.03836
 147        5S          0.00055  -0.00104   0.00000   0.00000   0.00075
 148        6S          0.00075  -0.00194   0.00000   0.00000   0.00157
 149        7PX         0.00000   0.00000  -0.69191  -0.69264   0.00000
 150        7PY        -0.38399  -0.36511   0.00000   0.00000  -0.25880
 151        7PZ        -0.54545  -0.61790   0.00000   0.00000   0.18906
 152        8PX         0.00000   0.00000   0.01492   0.01340   0.00000
 153        8PY         0.00968   0.00779   0.00000   0.00000   0.00510
 154        8PZ         0.01328   0.01429   0.00000   0.00000  -0.00388
 155        9PX         0.00000   0.00000  -0.03661  -0.03714   0.00000
 156        9PY        -0.01995  -0.01902   0.00000   0.00000  -0.01471
 157        9PZ        -0.02848  -0.03239   0.00000   0.00000   0.01076
 158       10PX         0.00000   0.00000   0.00382   0.00332   0.00000
 159       10PY         0.00305   0.00167   0.00000   0.00000   0.00133
 160       10PZ         0.00487   0.00214   0.00000   0.00000  -0.00114
 161       11PX         0.00000   0.00000   0.00057   0.00081   0.00000
 162       11PY         0.00039   0.00045   0.00000   0.00000   0.00015
 163       11PZ         0.00063   0.00029   0.00000   0.00000   0.00011
 164       12D 0       -0.00042  -0.00027   0.00000   0.00000   0.00004
 165       12D+1        0.00000   0.00000  -0.00017  -0.00015   0.00000
 166       12D-1        0.00021   0.00013   0.00000   0.00000   0.00010
 167       12D+2       -0.00023  -0.00014   0.00000   0.00000   0.00004
 168       12D-2        0.00000   0.00000   0.00029   0.00014   0.00000
 169       13D 0        0.00186   0.00113   0.00000   0.00000  -0.00024
 170       13D+1        0.00000   0.00000   0.00072   0.00060   0.00000
 171       13D-1       -0.00072  -0.00102   0.00000   0.00000   0.00057
 172       13D+2        0.00081   0.00067   0.00000   0.00000   0.00030
 173       13D-2        0.00000   0.00000  -0.00105  -0.00096   0.00000
 174       14D 0        0.00008  -0.00075   0.00000   0.00000   0.00004
 175       14D+1        0.00000   0.00000  -0.00043   0.00005   0.00000
 176       14D-1       -0.00006   0.00019   0.00000   0.00000   0.00023
 177       14D+2       -0.00007  -0.00045   0.00000   0.00000  -0.00019
 178       14D-2        0.00000   0.00000   0.00025   0.00010   0.00000
 179       15F 0        0.00000   0.00002   0.00000   0.00000  -0.00002
 180       15F+1        0.00000   0.00000   0.00007  -0.00004   0.00000
 181       15F-1        0.00002  -0.00003   0.00000   0.00000   0.00002
 182       15F+2       -0.00003   0.00001   0.00000   0.00000   0.00001
 183       15F-2        0.00000   0.00000   0.00001   0.00001   0.00000
 184       15F+3        0.00000   0.00000   0.00001  -0.00001   0.00000
 185       15F-3        0.00002  -0.00004   0.00000   0.00000  -0.00001
 186       16F 0        0.00041  -0.00011   0.00000   0.00000   0.00013
 187       16F+1        0.00000   0.00000  -0.00014   0.00015   0.00000
 188       16F-1       -0.00086  -0.00053   0.00000   0.00000   0.00016
 189       16F+2        0.00008  -0.00028   0.00000   0.00000   0.00019
 190       16F-2        0.00000   0.00000  -0.00036  -0.00032   0.00000
 191       16F+3        0.00000   0.00000  -0.00031  -0.00027   0.00000
 192       16F-3       -0.00018  -0.00019   0.00000   0.00000  -0.00004
                           6         7         8         9        10
     Eigenvalues --     2.00003   2.00001   2.00001   2.00001   2.00000
   1 1   O  1S          0.01390  -0.10473   0.23946   0.88022   0.34055
   2        2S         -0.00042   0.00230  -0.00522  -0.01618  -0.00556
   3        3S          0.00055  -0.00437   0.01001   0.03743   0.01489
   4        4S          0.00066   0.00024  -0.00038  -0.00332  -0.00104
   5        5S          0.00031  -0.00071   0.00170  -0.00102  -0.00164
   6        6PX         0.00000   0.00000   0.00000   0.00000   0.00000
   7        6PY        -0.00004  -0.00072  -0.00032   0.00001  -0.00001
   8        6PZ        -0.00009   0.00072  -0.00164  -0.00373   0.00045
   9        7PX         0.00000   0.00000   0.00000   0.00000   0.00000
  10        7PY        -0.00008  -0.00124  -0.00056   0.00001  -0.00001
  11        7PZ        -0.00021   0.00052  -0.00120  -0.00076   0.00313
  12        8PX         0.00000   0.00000   0.00000   0.00000   0.00000
  13        8PY        -0.00022  -0.00381  -0.00173   0.00002  -0.00001
  14        8PZ        -0.00077   0.00082  -0.00193  -0.00258   0.00276
  15        9PX         0.00000   0.00000   0.00000   0.00000   0.00000
  16        9PY        -0.00017  -0.00141  -0.00063   0.00001   0.00000
  17        9PZ         0.00017   0.00011  -0.00026  -0.00031   0.00085
  18       10D 0        0.00002  -0.00004   0.00010   0.00021   0.00002
  19       10D+1        0.00000   0.00000   0.00000   0.00000   0.00000
  20       10D-1        0.00000  -0.00004  -0.00002   0.00000   0.00000
  21       10D+2        0.00000   0.00000   0.00000  -0.00007   0.00000
  22       10D-2        0.00000   0.00000   0.00000   0.00000   0.00000
  23       11D 0        0.00008  -0.00004   0.00009  -0.00036  -0.00104
  24       11D+1        0.00000   0.00000   0.00000   0.00000   0.00000
  25       11D-1        0.00001   0.00010   0.00005   0.00000   0.00001
  26       11D+2       -0.00001   0.00007  -0.00015  -0.00004  -0.00012
  27       11D-2        0.00000   0.00000   0.00000   0.00000   0.00000
  28       12D 0        0.00008  -0.00001   0.00004   0.00074  -0.00095
  29       12D+1        0.00000   0.00000   0.00000   0.00000   0.00000
  30       12D-1        0.00004   0.00096   0.00043   0.00000   0.00000
  31       12D+2       -0.00021   0.00026  -0.00056   0.00016  -0.00002
  32       12D-2        0.00000   0.00000   0.00000   0.00000   0.00000
  33       13F 0        0.00001  -0.00004   0.00009   0.00006  -0.00013
  34       13F+1        0.00000   0.00000   0.00000   0.00000   0.00000
  35       13F-1        0.00000   0.00006   0.00002   0.00000   0.00000
  36       13F+2       -0.00001   0.00001  -0.00002  -0.00002  -0.00002
  37       13F-2        0.00000   0.00000   0.00000   0.00000   0.00000
  38       13F+3        0.00000   0.00000   0.00000   0.00000   0.00000
  39       13F-3        0.00000   0.00000   0.00000   0.00000   0.00000
  40       14F 0        0.00006  -0.00006   0.00013  -0.00007   0.00053
  41       14F+1        0.00000   0.00000   0.00000   0.00000   0.00000
  42       14F-1        0.00000  -0.00004  -0.00002   0.00000   0.00000
  43       14F+2        0.00008  -0.00012   0.00027  -0.00010   0.00018
  44       14F-2        0.00000   0.00000   0.00000   0.00000   0.00000
  45       14F+3        0.00000   0.00000   0.00000   0.00000   0.00000
  46       14F-3       -0.00001  -0.00007  -0.00003   0.00000   0.00000
  47 2   C  1S         -0.14324   0.25031  -0.56462  -0.10119   0.74115
  48        2S          0.00287  -0.00435   0.00981   0.00084  -0.00664
  49        3S         -0.00524   0.00975  -0.02200  -0.00494   0.03214
  50        4S         -0.00618   0.00231  -0.00540   0.00579  -0.01222
  51        5S         -0.00039   0.00101  -0.00231   0.00151  -0.00228
  52        6PX         0.00000   0.00000   0.00000   0.00000   0.00000
  53        6PY         0.00009   0.00223   0.00099   0.00000   0.00000
  54        6PZ        -0.00037   0.00025  -0.00055   0.00096  -0.00197
  55        7PX         0.00000   0.00000   0.00000   0.00000   0.00000
  56        7PY        -0.00001  -0.00031  -0.00013   0.00000   0.00002
  57        7PZ        -0.00071   0.00054  -0.00125   0.00088   0.00499
  58        8PX         0.00000   0.00000   0.00000   0.00000   0.00000
  59        8PY        -0.00033  -0.00007   0.00001  -0.00001   0.00002
  60        8PZ         0.00242  -0.00071   0.00162  -0.00106   0.00412
  61        9PX         0.00000   0.00000   0.00000   0.00000   0.00000
  62        9PY         0.00016   0.00129   0.00058  -0.00001   0.00000
  63        9PZ        -0.00028  -0.00005   0.00010   0.00017   0.00017
  64       10D 0       -0.00007   0.00010  -0.00023   0.00008   0.00070
  65       10D+1        0.00000   0.00000   0.00000   0.00000   0.00000
  66       10D-1        0.00000  -0.00011  -0.00005   0.00000   0.00000
  67       10D+2        0.00006  -0.00005   0.00011   0.00002  -0.00016
  68       10D-2        0.00000   0.00000   0.00000   0.00000   0.00000
  69       11D 0       -0.00023  -0.00002  -0.00003   0.00095   0.00099
  70       11D+1        0.00000   0.00000   0.00000   0.00000   0.00000
  71       11D-1        0.00022   0.00253   0.00115  -0.00002   0.00002
  72       11D+2        0.00088  -0.00023   0.00051  -0.00112   0.00327
  73       11D-2        0.00000   0.00000   0.00000   0.00000   0.00000
  74       12D 0       -0.00015   0.00017  -0.00045  -0.00004  -0.00068
  75       12D+1        0.00000   0.00000   0.00000   0.00000   0.00000
  76       12D-1        0.00032   0.00236   0.00107  -0.00002   0.00001
  77       12D+2        0.00075  -0.00043   0.00095  -0.00084   0.00112
  78       12D-2        0.00000   0.00000   0.00000   0.00000   0.00000
  79       13F 0       -0.00015   0.00012  -0.00027  -0.00013   0.00037
  80       13F+1        0.00000   0.00000   0.00000   0.00000   0.00000
  81       13F-1        0.00000  -0.00006  -0.00003   0.00000   0.00000
  82       13F+2       -0.00002  -0.00004   0.00009  -0.00007  -0.00008
  83       13F-2        0.00000   0.00000   0.00000   0.00000   0.00000
  84       13F+3        0.00000   0.00000   0.00000   0.00000   0.00000
  85       13F-3        0.00000  -0.00003  -0.00001   0.00000   0.00000
  86       14F 0        0.00021  -0.00045   0.00097   0.00088  -0.00091
  87       14F+1        0.00000   0.00000   0.00000   0.00000   0.00000
  88       14F-1        0.00006   0.00142   0.00065   0.00000  -0.00001
  89       14F+2       -0.00007  -0.00025   0.00052   0.00035  -0.00098
  90       14F-2        0.00000   0.00000   0.00000   0.00000   0.00000
  91       14F+3        0.00000   0.00000   0.00000   0.00000   0.00000
  92       14F-3        0.00006   0.00073   0.00032   0.00000   0.00000
  93 3   Cl 1S         -0.15026  -0.13884   0.03797  -0.03789   0.03591
  94        2S          0.50687   0.47176  -0.13049   0.12926  -0.12258
  95        3S         -0.01513  -0.00796   0.00160  -0.00158   0.00081
  96        4S          0.03947   0.03904  -0.01038   0.01089  -0.01098
  97        5S         -0.00172  -0.00760   0.00135  -0.00353   0.00809
  98        6S          0.00001   0.00220   0.00197  -0.00078   0.00223
  99        7PX         0.00000   0.00000   0.00000   0.00000   0.00000
 100        7PY        -0.25192   0.57677  -0.12307   0.22257  -0.30971
 101        7PZ        -0.13077   0.37909  -0.04609   0.13903  -0.18435
 102        8PX         0.00000   0.00000   0.00000   0.00000   0.00000
 103        8PY         0.00435  -0.00979   0.00128  -0.00336   0.00517
 104        8PZ         0.00220  -0.00690   0.00016  -0.00216   0.00363
 105        9PX         0.00000   0.00000   0.00000   0.00000   0.00000
 106        9PY        -0.01433   0.03518  -0.00748   0.01385  -0.01985
 107        9PZ        -0.00749   0.02329  -0.00275   0.00866  -0.01198
 108       10PX         0.00000   0.00000   0.00000   0.00000   0.00000
 109       10PY         0.00198  -0.00049   0.00099  -0.00095   0.00308
 110       10PZ         0.00097  -0.00066   0.00014  -0.00096   0.00218
 111       11PX         0.00000   0.00000   0.00000   0.00000   0.00000
 112       11PY         0.00001   0.00007   0.00009  -0.00005   0.00019
 113       11PZ         0.00013   0.00022   0.00014  -0.00016   0.00018
 114       12D 0       -0.00004   0.00001   0.00000   0.00002   0.00000
 115       12D+1        0.00000   0.00000   0.00000   0.00000   0.00000
 116       12D-1        0.00015   0.00049  -0.00006   0.00024  -0.00035
 117       12D+2       -0.00008  -0.00038   0.00008  -0.00014   0.00022
 118       12D-2        0.00000   0.00000   0.00000   0.00000   0.00000
 119       13D 0       -0.00010  -0.00039  -0.00029   0.00009   0.00006
 120       13D+1        0.00000   0.00000   0.00000   0.00000   0.00000
 121       13D-1        0.00028  -0.00241  -0.00011  -0.00090   0.00211
 122       13D+2       -0.00041   0.00154  -0.00047   0.00065  -0.00132
 123       13D-2        0.00000   0.00000   0.00000   0.00000   0.00000
 124       14D 0       -0.00008  -0.00007  -0.00010  -0.00008   0.00008
 125       14D+1        0.00000   0.00000   0.00000   0.00000   0.00000
 126       14D-1        0.00026   0.00022  -0.00018  -0.00015   0.00065
 127       14D+2       -0.00036  -0.00062  -0.00031   0.00007  -0.00052
 128       14D-2        0.00000   0.00000   0.00000   0.00000   0.00000
 129       15F 0       -0.00001   0.00000  -0.00004  -0.00002   0.00002
 130       15F+1        0.00000   0.00000   0.00000   0.00000   0.00000
 131       15F-1        0.00000  -0.00007  -0.00002   0.00004  -0.00002
 132       15F+2        0.00000   0.00005  -0.00001  -0.00004  -0.00001
 133       15F-2        0.00000   0.00000   0.00000   0.00000   0.00000
 134       15F+3        0.00000   0.00000   0.00000   0.00000   0.00000
 135       15F-3       -0.00003   0.00004  -0.00005   0.00003  -0.00006
 136       16F 0       -0.00002   0.00024   0.00018   0.00014  -0.00034
 137       16F+1        0.00000   0.00000   0.00000   0.00000   0.00000
 138       16F-1       -0.00001  -0.00043  -0.00020  -0.00013   0.00038
 139       16F+2       -0.00013   0.00061   0.00007   0.00029  -0.00060
 140       16F-2        0.00000   0.00000   0.00000   0.00000   0.00000
 141       16F+3        0.00000   0.00000   0.00000   0.00000   0.00000
 142       16F-3       -0.00010   0.00024  -0.00012   0.00007  -0.00024
 143 4   Cl 1S         -0.20120   0.06422   0.12747  -0.03804   0.03576
 144        2S          0.67881  -0.21707  -0.43406   0.12977  -0.12203
 145        3S         -0.02018   0.00410   0.00690  -0.00158   0.00078
 146        4S          0.05281  -0.01828  -0.03565   0.01093  -0.01094
 147        5S         -0.00208   0.00409   0.00651  -0.00355   0.00806
 148        6S         -0.00046  -0.00292  -0.00033  -0.00076   0.00222
 149        7PX         0.00000   0.00000   0.00000   0.00000   0.00000
 150        7PY         0.33743   0.29335   0.50973  -0.22384   0.30893
 151        7PZ        -0.19342  -0.22181  -0.31692   0.14200  -0.18687
 152        8PX         0.00000   0.00000   0.00000   0.00000   0.00000
 153        8PY        -0.00600  -0.00557  -0.00809   0.00338  -0.00515
 154        8PZ         0.00345   0.00454   0.00528  -0.00221   0.00365
 155        9PX         0.00000   0.00000   0.00000   0.00000   0.00000
 156        9PY         0.01919   0.01791   0.03107  -0.01393   0.01980
 157        9PZ        -0.01105  -0.01368  -0.01941   0.00884  -0.01214
 158       10PX         0.00000   0.00000   0.00000   0.00000   0.00000
 159       10PY        -0.00243   0.00038  -0.00101   0.00094  -0.00307
 160       10PZ         0.00135   0.00032   0.00056  -0.00096   0.00218
 161       11PX         0.00000   0.00000   0.00000   0.00000   0.00000
 162       11PY        -0.00005   0.00011  -0.00001   0.00005  -0.00020
 163       11PZ         0.00010  -0.00025  -0.00007  -0.00015   0.00019
 164       12D 0       -0.00006  -0.00001  -0.00001   0.00002  -0.00001
 165       12D+1        0.00000   0.00000   0.00000   0.00000   0.00000
 166       12D-1       -0.00019   0.00028   0.00040  -0.00025   0.00035
 167       12D+2       -0.00010   0.00020   0.00034  -0.00014   0.00022
 168       12D-2        0.00000   0.00000   0.00000   0.00000   0.00000
 169       13D 0       -0.00003   0.00049   0.00011   0.00008   0.00007
 170       13D+1        0.00000   0.00000   0.00000   0.00000   0.00000
 171       13D-1       -0.00045  -0.00169  -0.00172   0.00091  -0.00212
 172       13D+2       -0.00051  -0.00067  -0.00144   0.00065  -0.00131
 173       13D-2        0.00000   0.00000   0.00000   0.00000   0.00000
 174       14D 0       -0.00009   0.00011  -0.00002  -0.00008   0.00008
 175       14D+1        0.00000   0.00000   0.00000   0.00000   0.00000
 176       14D-1       -0.00034   0.00002   0.00029   0.00015  -0.00065
 177       14D+2       -0.00032   0.00063   0.00025   0.00007  -0.00052
 178       14D-2        0.00000   0.00000   0.00000   0.00000   0.00000
 179       15F 0        0.00000   0.00002  -0.00002  -0.00002   0.00002
 180       15F+1        0.00000   0.00000   0.00000   0.00000   0.00000
 181       15F-1       -0.00001  -0.00006  -0.00004  -0.00004   0.00002
 182       15F+2        0.00000  -0.00002  -0.00004  -0.00004  -0.00001
 183       15F-2        0.00000   0.00000   0.00000   0.00000   0.00000
 184       15F+3        0.00000   0.00000   0.00000   0.00000   0.00000
 185       15F-3        0.00003  -0.00001   0.00007  -0.00003   0.00006
 186       16F 0       -0.00006  -0.00029  -0.00006   0.00014  -0.00034
 187       16F+1        0.00000   0.00000   0.00000   0.00000   0.00000
 188       16F-1       -0.00004  -0.00044  -0.00019   0.00014  -0.00039
 189       16F+2       -0.00019  -0.00046  -0.00040   0.00029  -0.00060
 190       16F-2        0.00000   0.00000   0.00000   0.00000   0.00000
 191       16F+3        0.00000   0.00000   0.00000   0.00000   0.00000
 192       16F-3        0.00011   0.00007   0.00025  -0.00007   0.00023
                          11        12        13        14        15
     Eigenvalues --     2.00000   2.00000   1.98119   1.97614   1.97458
   1 1   O  1S          0.00003   0.00000  -0.18622  -0.06240   0.00020
   2        2S          0.00001   0.00000   0.48226   0.16887  -0.00057
   3        3S          0.00000   0.00000   0.13565   0.04853  -0.00016
   4        4S          0.00003   0.00000   0.29415   0.13354  -0.00053
   5        5S          0.00005   0.00000   0.01959   0.02318  -0.00017
   6        6PX         0.00000   0.00000   0.00000   0.00000   0.00000
   7        6PY         0.00000   0.00000  -0.00016   0.00045   0.04371
   8        6PZ         0.00000   0.00000  -0.00862   0.02888  -0.00012
   9        7PX         0.00000   0.00000   0.00000   0.00000   0.00000
  10        7PY         0.00000   0.00001  -0.00022   0.00057   0.05440
  11        7PZ         0.00000   0.00000  -0.01506   0.03071  -0.00014
  12        8PX         0.00000   0.00000   0.00000   0.00000   0.00000
  13        8PY         0.00000   0.00006  -0.00022   0.00035   0.03984
  14        8PZ         0.00003   0.00000   0.04940   0.02588  -0.00014
  15        9PX         0.00000   0.00000   0.00000   0.00000   0.00000
  16        9PY         0.00000   0.00001  -0.00003   0.00000   0.00089
  17        9PZ         0.00000   0.00000   0.01375  -0.00043   0.00004
  18       10D 0        0.00000   0.00000   0.00496   0.00002   0.00000
  19       10D+1        0.00000   0.00000   0.00000   0.00000   0.00000
  20       10D-1        0.00000   0.00000   0.00001  -0.00003  -0.00209
  21       10D+2        0.00000   0.00000  -0.00001  -0.00002   0.00000
  22       10D-2        0.00000   0.00000   0.00000   0.00000   0.00000
  23       11D 0       -0.00001   0.00000   0.01088   0.00137   0.00001
  24       11D+1        0.00000   0.00000   0.00000   0.00000   0.00000
  25       11D-1        0.00000   0.00000   0.00003  -0.00008  -0.00530
  26       11D+2        0.00000   0.00000   0.00026   0.00100   0.00000
  27       11D-2        0.00000   0.00000   0.00000   0.00000   0.00000
  28       12D 0       -0.00002   0.00000  -0.01507  -0.00336   0.00005
  29       12D+1        0.00000   0.00000   0.00000   0.00000   0.00000
  30       12D-1        0.00000  -0.00002   0.00005  -0.00001  -0.00401
  31       12D+2        0.00000   0.00000   0.00142   0.00137  -0.00001
  32       12D-2        0.00000   0.00000   0.00000   0.00000   0.00000
  33       13F 0        0.00000   0.00000  -0.00275  -0.00032   0.00000
  34       13F+1        0.00000   0.00000   0.00000   0.00000   0.00000
  35       13F-1        0.00000   0.00000  -0.00001   0.00002   0.00145
  36       13F+2        0.00000   0.00000   0.00021  -0.00005   0.00000
  37       13F-2        0.00000   0.00000   0.00000   0.00000   0.00000
  38       13F+3        0.00000   0.00000   0.00000   0.00000   0.00000
  39       13F-3        0.00000   0.00000   0.00000   0.00000   0.00008
  40       14F 0        0.00000   0.00000  -0.00008  -0.00056   0.00000
  41       14F+1        0.00000   0.00000   0.00000   0.00000   0.00000
  42       14F-1        0.00000   0.00000   0.00000   0.00000   0.00014
  43       14F+2        0.00000   0.00000  -0.00069  -0.00104   0.00001
  44       14F-2        0.00000   0.00000   0.00000   0.00000   0.00000
  45       14F+3        0.00000   0.00000   0.00000   0.00000   0.00000
  46       14F-3        0.00000   0.00000   0.00000   0.00001   0.00043
  47 2   C  1S         -0.00030  -0.00001  -0.08417   0.04572  -0.00038
  48        2S          0.00003   0.00000   0.19379  -0.12650   0.00101
  49        3S          0.00002   0.00000   0.04621  -0.02634   0.00019
  50        4S         -0.00013  -0.00001   0.00217  -0.05526   0.00046
  51        5S         -0.00005   0.00000  -0.00460  -0.02436   0.00020
  52        6PX         0.00000   0.00000   0.00000   0.00000   0.00000
  53        6PY         0.00000  -0.00001  -0.00027   0.00113   0.07108
  54        6PZ        -0.00001   0.00000   0.06372   0.05697  -0.00044
  55        7PX         0.00000   0.00000   0.00000   0.00000   0.00000
  56        7PY         0.00000   0.00004  -0.00044   0.00143   0.09641
  57        7PZ         0.00005   0.00000   0.04924   0.06649  -0.00067
  58        8PX         0.00000   0.00000   0.00000   0.00000   0.00000
  59        8PY         0.00000  -0.00009  -0.00007   0.00003  -0.00730
  60        8PZ        -0.00001   0.00000  -0.01845  -0.00351   0.00013
  61        9PX         0.00000   0.00000   0.00000   0.00000   0.00000
  62        9PY         0.00000  -0.00001   0.00001   0.00008   0.00602
  63        9PZ         0.00000   0.00000  -0.00728   0.00328  -0.00007
  64       10D 0        0.00000   0.00000   0.01559   0.00253   0.00004
  65       10D+1        0.00000   0.00000   0.00000   0.00000   0.00000
  66       10D-1        0.00000   0.00000   0.00002  -0.00012  -0.00589
  67       10D+2        0.00000   0.00000  -0.00262   0.00655  -0.00001
  68       10D-2        0.00000   0.00000   0.00000   0.00000   0.00000
  69       11D 0       -0.00001   0.00000   0.00623  -0.00229   0.00012
  70       11D+1        0.00000   0.00000   0.00000   0.00000   0.00000
  71       11D-1        0.00000  -0.00007   0.00010  -0.00029  -0.01926
  72       11D+2        0.00005   0.00000  -0.00312   0.01155  -0.00005
  73       11D-2        0.00000   0.00000   0.00000   0.00000   0.00000
  74       12D 0       -0.00003   0.00000  -0.02005  -0.00790   0.00001
  75       12D+1        0.00000   0.00000   0.00000   0.00000   0.00000
  76       12D-1        0.00000  -0.00001   0.00004   0.00003   0.00449
  77       12D+2        0.00001   0.00000  -0.00112  -0.00274  -0.00001
  78       12D-2        0.00000   0.00000   0.00000   0.00000   0.00000
  79       13F 0        0.00000   0.00000   0.00590  -0.00202   0.00001
  80       13F+1        0.00000   0.00000   0.00000   0.00000   0.00000
  81       13F-1        0.00000   0.00000   0.00001   0.00001   0.00234
  82       13F+2       -0.00001   0.00000   0.00255  -0.00423   0.00004
  83       13F-2        0.00000   0.00000   0.00000   0.00000   0.00000
  84       13F+3        0.00000   0.00000   0.00000   0.00000   0.00000
  85       13F-3        0.00000  -0.00001   0.00003  -0.00005  -0.00263
  86       14F 0       -0.00003   0.00000  -0.00664  -0.00479   0.00003
  87       14F+1        0.00000   0.00000   0.00000   0.00000   0.00000
  88       14F-1        0.00000  -0.00001   0.00004   0.00001   0.00138
  89       14F+2       -0.00003   0.00000  -0.00285  -0.00582   0.00004
  90       14F-2        0.00000   0.00000   0.00000   0.00000   0.00000
  91       14F+3        0.00000   0.00000   0.00000   0.00000   0.00000
  92       14F-3        0.00000  -0.00001   0.00003   0.00000   0.00002
  93 3   Cl 1S          0.67690   0.73225   0.01119  -0.04823  -0.05162
  94        2S          0.00672   0.00743  -0.04058   0.18086   0.19308
  95        3S          0.00011   0.00012   0.09172  -0.38499  -0.41371
  96        4S          0.00014   0.00017   0.01037  -0.04736  -0.05197
  97        5S          0.00001  -0.00006   0.04985  -0.22859  -0.25441
  98        6S          0.00002  -0.00006  -0.00309   0.01099   0.00571
  99        7PX         0.00000   0.00000   0.00000   0.00000   0.00000
 100        7PY        -0.00083  -0.00046  -0.00741   0.01514   0.00056
 101        7PZ        -0.00044  -0.00036  -0.00923   0.00169   0.00820
 102        8PX         0.00000   0.00000   0.00000   0.00000   0.00000
 103        8PY         0.00007   0.00006   0.01287  -0.02036   0.01602
 104        8PZ         0.00005   0.00005   0.02313   0.01001  -0.01121
 105        9PX         0.00000   0.00000   0.00000   0.00000   0.00000
 106        9PY        -0.00008  -0.00006   0.00598  -0.00959   0.00660
 107        9PZ        -0.00005  -0.00004   0.00997   0.00369  -0.00523
 108       10PX         0.00000   0.00000   0.00000   0.00000   0.00000
 109       10PY         0.00000  -0.00007   0.00308   0.00241   0.01604
 110       10PZ        -0.00001  -0.00004   0.00278   0.00955  -0.00111
 111       11PX         0.00000   0.00000   0.00000   0.00000   0.00000
 112       11PY         0.00000  -0.00001  -0.00126   0.00382   0.00216
 113       11PZ         0.00000   0.00000   0.00097   0.00170   0.00261
 114       12D 0        0.00000   0.00000   0.00036   0.00144  -0.00095
 115       12D+1        0.00000   0.00000   0.00000   0.00000   0.00000
 116       12D-1        0.00000   0.00001   0.00347  -0.00592  -0.00585
 117       12D+2        0.00000   0.00000  -0.00267   0.00552   0.00295
 118       12D-2        0.00000   0.00000   0.00000   0.00000   0.00000
 119       13D 0        0.00000   0.00000  -0.00046   0.00210  -0.00247
 120       13D+1        0.00000   0.00000   0.00000   0.00000   0.00000
 121       13D-1        0.00003   0.00002   0.00380  -0.00515  -0.00482
 122       13D+2       -0.00001  -0.00001  -0.00139   0.00603   0.00127
 123       13D-2        0.00000   0.00000   0.00000   0.00000   0.00000
 124       14D 0        0.00000   0.00000   0.00000  -0.00056  -0.00068
 125       14D+1        0.00000   0.00000   0.00000   0.00000   0.00000
 126       14D-1       -0.00001  -0.00002  -0.00196   0.00145   0.00187
 127       14D+2        0.00001   0.00002  -0.00090  -0.00199  -0.00291
 128       14D-2        0.00000   0.00000   0.00000   0.00000   0.00000
 129       15F 0        0.00000   0.00000  -0.00033   0.00141   0.00084
 130       15F+1        0.00000   0.00000   0.00000   0.00000   0.00000
 131       15F-1        0.00000   0.00000   0.00041  -0.00024  -0.00162
 132       15F+2        0.00000   0.00000  -0.00077   0.00223   0.00218
 133       15F-2        0.00000   0.00000   0.00000   0.00000   0.00000
 134       15F+3        0.00000   0.00000   0.00000   0.00000   0.00000
 135       15F-3        0.00000   0.00000  -0.00059   0.00182   0.00081
 136       16F 0        0.00000   0.00000  -0.00044   0.00010  -0.00048
 137       16F+1        0.00000   0.00000   0.00000   0.00000   0.00000
 138       16F-1        0.00000   0.00000  -0.00025   0.00024  -0.00025
 139       16F+2        0.00000   0.00000   0.00017   0.00021  -0.00099
 140       16F-2        0.00000   0.00000   0.00000   0.00000   0.00000
 141       16F+3        0.00000   0.00000   0.00000   0.00000   0.00000
 142       16F-3        0.00000   0.00000   0.00096   0.00007  -0.00071
 143 4   Cl 1S          0.73229  -0.67685   0.01100  -0.04712   0.05274
 144        2S          0.00729  -0.00690  -0.03990   0.17673  -0.19728
 145        3S          0.00011  -0.00011   0.09020  -0.37615   0.42267
 146        4S          0.00016  -0.00016   0.01015  -0.04627   0.05310
 147        5S          0.00000   0.00006   0.04951  -0.22363   0.26015
 148        6S          0.00001   0.00007  -0.00294   0.01055  -0.00574
 149        7PX         0.00000   0.00000   0.00000   0.00000   0.00000
 150        7PY         0.00085  -0.00038   0.00727  -0.01489   0.00071
 151        7PZ        -0.00046   0.00032  -0.00913   0.00152  -0.00812
 152        8PX         0.00000   0.00000   0.00000   0.00000   0.00000
 153        8PY        -0.00007   0.00006  -0.01279   0.02047   0.01573
 154        8PZ         0.00006  -0.00004   0.02308   0.01020   0.01078
 155        9PX         0.00000   0.00000   0.00000   0.00000   0.00000
 156        9PY         0.00008  -0.00005  -0.00586   0.00954   0.00654
 157        9PZ        -0.00005   0.00004   0.00982   0.00380   0.00500
 158       10PX         0.00000   0.00000   0.00000   0.00000   0.00000
 159       10PY         0.00001  -0.00006  -0.00335  -0.00184   0.01588
 160       10PZ        -0.00002   0.00004   0.00289   0.00945   0.00090
 161       11PX         0.00000   0.00000   0.00000   0.00000   0.00000
 162       11PY         0.00000  -0.00001   0.00121  -0.00373   0.00222
 163       11PZ         0.00000   0.00000   0.00096   0.00165  -0.00263
 164       12D 0        0.00000   0.00000   0.00036   0.00138   0.00095
 165       12D+1        0.00000   0.00000   0.00000   0.00000   0.00000
 166       12D-1        0.00000   0.00001  -0.00340   0.00575  -0.00589
 167       12D+2        0.00000   0.00000  -0.00261   0.00535  -0.00300
 168       12D-2        0.00000   0.00000   0.00000   0.00000   0.00000
 169       13D 0        0.00000   0.00000  -0.00040   0.00213   0.00244
 170       13D+1        0.00000   0.00000   0.00000   0.00000   0.00000
 171       13D-1       -0.00003   0.00002  -0.00387   0.00505  -0.00489
 172       13D+2       -0.00001   0.00001  -0.00139   0.00596  -0.00138
 173       13D-2        0.00000   0.00000   0.00000   0.00000   0.00000
 174       14D 0        0.00000   0.00000  -0.00004  -0.00052   0.00065
 175       14D+1        0.00000   0.00000   0.00000   0.00000   0.00000
 176       14D-1        0.00001  -0.00002   0.00190  -0.00137   0.00186
 177       14D+2        0.00001  -0.00002  -0.00096  -0.00185   0.00287
 178       14D-2        0.00000   0.00000   0.00000   0.00000   0.00000
 179       15F 0        0.00000   0.00000  -0.00032   0.00137  -0.00083
 180       15F+1        0.00000   0.00000   0.00000   0.00000   0.00000
 181       15F-1        0.00000   0.00000  -0.00040   0.00023  -0.00163
 182       15F+2       -0.00001   0.00000  -0.00076   0.00216  -0.00218
 183       15F-2        0.00000   0.00000   0.00000   0.00000   0.00000
 184       15F+3        0.00000   0.00000   0.00000   0.00000   0.00000
 185       15F-3        0.00000   0.00000   0.00058  -0.00177   0.00082
 186       16F 0        0.00000   0.00000  -0.00044   0.00013   0.00048
 187       16F+1        0.00000   0.00000   0.00000   0.00000   0.00000
 188       16F-1        0.00000   0.00000   0.00021  -0.00026  -0.00025
 189       16F+2        0.00000   0.00000   0.00014   0.00025   0.00097
 190       16F-2        0.00000   0.00000   0.00000   0.00000   0.00000
 191       16F+3        0.00000   0.00000   0.00000   0.00000   0.00000
 192       16F-3        0.00000   0.00000  -0.00094  -0.00010  -0.00070
                          16        17        18        19        20
     Eigenvalues --     1.96276   1.95777   1.95158   1.94902   1.94742
   1 1   O  1S          0.03967   0.00028  -0.00852   0.00000   0.00002
   2        2S         -0.12871  -0.00099   0.02198   0.00000  -0.00007
   3        3S         -0.04225  -0.00033   0.00685   0.00000  -0.00003
   4        4S         -0.23864  -0.00228   0.02427   0.00000  -0.00025
   5        5S         -0.05947  -0.00059   0.02414   0.00000  -0.00006
   6        6PX         0.00000   0.00000   0.00000   0.02714   0.00000
   7        6PY        -0.00283   0.29816  -0.00006   0.00000   0.11172
   8        6PZ        -0.29542  -0.00270  -0.00825   0.00000  -0.00060
   9        7PX         0.00000   0.00000   0.00000   0.03436   0.00000
  10        7PY        -0.00352   0.37028  -0.00010   0.00000   0.13655
  11        7PZ        -0.34980  -0.00320  -0.01145   0.00000  -0.00073
  12        8PX         0.00000   0.00000   0.00000   0.01692   0.00000
  13        8PY        -0.00265   0.27107  -0.00010   0.00000   0.09505
  14        8PZ        -0.15244  -0.00132  -0.00059   0.00000  -0.00017
  15        9PX         0.00000   0.00000   0.00000  -0.01198   0.00000
  16        9PY        -0.00039   0.03751   0.00003   0.00000   0.01517
  17        9PZ         0.00122   0.00006   0.00067   0.00000   0.00006
  18       10D 0        0.01321   0.00012   0.00025   0.00000   0.00003
  19       10D+1        0.00000   0.00000   0.00000  -0.00311   0.00000
  20       10D-1        0.00008  -0.00901   0.00000   0.00000  -0.00204
  21       10D+2       -0.00002   0.00000   0.00057   0.00000  -0.00001
  22       10D-2        0.00000   0.00000   0.00000   0.00000   0.00000
  23       11D 0        0.02657   0.00026   0.00145   0.00000   0.00005
  24       11D+1        0.00000   0.00000   0.00000  -0.00868   0.00000
  25       11D-1        0.00024  -0.02623  -0.00002   0.00000  -0.00267
  26       11D+2        0.00115   0.00002   0.00047   0.00000   0.00000
  27       11D-2        0.00000   0.00000   0.00000  -0.00001   0.00000
  28       12D 0       -0.00331  -0.00001  -0.00124   0.00000  -0.00006
  29       12D+1        0.00000   0.00000   0.00000  -0.00697   0.00000
  30       12D-1        0.00019  -0.01717   0.00001   0.00000  -0.00146
  31       12D+2        0.00216   0.00003   0.00224   0.00000   0.00004
  32       12D-2        0.00000   0.00000   0.00000   0.00003   0.00000
  33       13F 0       -0.00481  -0.00004  -0.00005   0.00000  -0.00001
  34       13F+1        0.00000   0.00000   0.00000   0.00165   0.00000
  35       13F-1       -0.00005   0.00561   0.00000   0.00000   0.00096
  36       13F+2       -0.00068   0.00000  -0.00017   0.00000   0.00000
  37       13F-2        0.00000   0.00000   0.00000   0.00000   0.00000
  38       13F+3        0.00000   0.00000   0.00000  -0.00002   0.00000
  39       13F-3       -0.00001   0.00091   0.00000   0.00000   0.00046
  40       14F 0       -0.00408  -0.00004  -0.00025   0.00000  -0.00001
  41       14F+1        0.00000   0.00000   0.00000   0.00110   0.00000
  42       14F-1       -0.00004   0.00425   0.00002   0.00000  -0.00005
  43       14F+2       -0.00162  -0.00001   0.00031   0.00000  -0.00001
  44       14F-2        0.00000   0.00000   0.00000   0.00000   0.00000
  45       14F+3        0.00000   0.00000   0.00000   0.00074   0.00000
  46       14F-3       -0.00001   0.00101  -0.00001   0.00000   0.00012
  47 2   C  1S         -0.11382  -0.00120  -0.03538   0.00000   0.00028
  48        2S          0.30989   0.00323   0.09941   0.00000  -0.00081
  49        3S          0.08121   0.00086   0.02468   0.00000  -0.00016
  50        4S          0.10592   0.00118   0.05132   0.00000  -0.00085
  51        5S          0.00838   0.00007   0.01319   0.00000  -0.00018
  52        6PX         0.00000   0.00000   0.00000   0.11028   0.00000
  53        6PY        -0.00105   0.14489  -0.00017   0.00000   0.01590
  54        6PZ         0.14801   0.00128  -0.04799   0.00000   0.00098
  55        7PX         0.00000   0.00000   0.00000   0.15223   0.00000
  56        7PY        -0.00152   0.18848  -0.00028   0.00000   0.02401
  57        7PZ         0.15701   0.00131  -0.06941   0.00000   0.00129
  58        8PX         0.00000   0.00000   0.00000   0.04529   0.00000
  59        8PY        -0.00026   0.01626  -0.00023   0.00000   0.00512
  60        8PZ        -0.00183   0.00023  -0.02661   0.00000   0.00003
  61        9PX         0.00000   0.00000   0.00000   0.01273   0.00000
  62        9PY         0.00011  -0.00870  -0.00003   0.00000  -0.00991
  63        9PZ        -0.00246  -0.00007  -0.01085   0.00000  -0.00002
  64       10D 0        0.01576   0.00017   0.01079   0.00000   0.00000
  65       10D+1        0.00000   0.00000   0.00000  -0.00466   0.00000
  66       10D-1       -0.00021   0.02075   0.00009   0.00000   0.00400
  67       10D+2        0.00005   0.00005   0.00401   0.00000   0.00002
  68       10D-2        0.00000   0.00000   0.00000  -0.00012   0.00000
  69       11D 0        0.00145   0.00010   0.03295   0.00000  -0.00007
  70       11D+1        0.00000   0.00000   0.00000  -0.02724   0.00000
  71       11D-1       -0.00020   0.01977   0.00018   0.00000   0.00286
  72       11D+2       -0.00426   0.00008   0.01559   0.00000   0.00006
  73       11D-2        0.00000   0.00000   0.00000  -0.00026   0.00000
  74       12D 0        0.00028  -0.00011  -0.02332   0.00000  -0.00023
  75       12D+1        0.00000   0.00000   0.00000  -0.00822   0.00000
  76       12D-1        0.00017  -0.01547  -0.00021   0.00000   0.01380
  77       12D+2        0.00448  -0.00003  -0.01742   0.00000  -0.00005
  78       12D-2        0.00000   0.00000   0.00000  -0.00001   0.00000
  79       13F 0        0.00918   0.00008  -0.00071   0.00000  -0.00002
  80       13F+1        0.00000   0.00000   0.00000   0.00251   0.00000
  81       13F-1       -0.00003   0.00516  -0.00005   0.00000   0.00851
  82       13F+2        0.00172   0.00002   0.00165   0.00000  -0.00005
  83       13F-2        0.00000   0.00000   0.00000   0.00004   0.00000
  84       13F+3        0.00000   0.00000   0.00000  -0.00477   0.00000
  85       13F-3        0.00004  -0.00289   0.00000   0.00000   0.00149
  86       14F 0       -0.01006  -0.00007  -0.00474   0.00000  -0.00014
  87       14F+1        0.00000   0.00000   0.00000  -0.00047   0.00000
  88       14F-1        0.00005   0.00156   0.00005   0.00000   0.01444
  89       14F+2       -0.00324  -0.00002  -0.00105   0.00000  -0.00008
  90       14F-2        0.00000   0.00000   0.00000  -0.00001   0.00000
  91       14F+3        0.00000   0.00000   0.00000  -0.00314   0.00000
  92       14F-3        0.00003   0.00079   0.00002   0.00000   0.00347
  93 3   Cl 1S         -0.01210   0.01497  -0.01041   0.00000  -0.00120
  94        2S          0.04685  -0.05703   0.03957   0.00000   0.00473
  95        3S         -0.09543   0.12225  -0.08585   0.00000  -0.00929
  96        4S         -0.01284   0.01701  -0.01343   0.00000  -0.00194
  97        5S         -0.08077   0.11811  -0.08066   0.00000  -0.00967
  98        6S         -0.00800   0.00808  -0.02250   0.00000  -0.01231
  99        7PX         0.00000   0.00000   0.00000  -0.14857   0.00000
 100        7PY        -0.00338   0.00426  -0.10688   0.00000   0.09111
 101        7PZ        -0.01495   0.04425   0.10938   0.00000  -0.13966
 102        8PX         0.00000   0.00000   0.00000   0.35005   0.00000
 103        8PY         0.00411   0.00272   0.24697   0.00000  -0.21285
 104        8PZ         0.03264  -0.09678  -0.26121   0.00000   0.33137
 105        9PX         0.00000   0.00000   0.00000   0.16345   0.00000
 106        9PY         0.00384  -0.00287   0.11666   0.00000  -0.10305
 107        9PZ         0.01684  -0.04833  -0.12503   0.00000   0.15714
 108       10PX         0.00000   0.00000   0.00000   0.19674   0.00000
 109       10PY        -0.01563   0.03072   0.12749   0.00000  -0.13520
 110       10PZ         0.00614  -0.03871  -0.17704   0.00000   0.20752
 111       11PX         0.00000   0.00000   0.00000   0.00086   0.00000
 112       11PY        -0.00090   0.00444   0.00036   0.00000  -0.00657
 113       11PZ         0.00001   0.00266  -0.00753   0.00000   0.01046
 114       12D 0        0.00320  -0.00564  -0.00691   0.00000   0.00100
 115       12D+1        0.00000   0.00000   0.00000   0.00560   0.00000
 116       12D-1        0.00573  -0.01033   0.00142   0.00000  -0.00147
 117       12D+2       -0.00102   0.00445  -0.00933   0.00000   0.00074
 118       12D-2        0.00000   0.00000   0.00000   0.01069   0.00000
 119       13D 0        0.00225  -0.00863  -0.00844   0.00000  -0.00073
 120       13D+1        0.00000   0.00000   0.00000   0.00830   0.00000
 121       13D-1        0.00538  -0.00687   0.00096   0.00000  -0.00094
 122       13D+2        0.00166   0.00053  -0.01139   0.00000  -0.00150
 123       13D-2        0.00000   0.00000   0.00000   0.01642   0.00000
 124       14D 0        0.00236  -0.00606  -0.00794   0.00000   0.00136
 125       14D+1        0.00000   0.00000   0.00000   0.00177   0.00000
 126       14D-1       -0.00035  -0.00171  -0.00341   0.00000   0.00143
 127       14D+2        0.00315  -0.00295  -0.00565   0.00000   0.00040
 128       14D-2        0.00000   0.00000   0.00000   0.00528   0.00000
 129       15F 0        0.00033  -0.00022  -0.00193   0.00000   0.00085
 130       15F+1        0.00000   0.00000   0.00000   0.00052   0.00000
 131       15F-1        0.00148  -0.00360  -0.00400   0.00000   0.00274
 132       15F+2       -0.00037   0.00231  -0.00127   0.00000   0.00035
 133       15F-2        0.00000   0.00000   0.00000   0.00441   0.00000
 134       15F+3        0.00000   0.00000   0.00000  -0.00434   0.00000
 135       15F-3        0.00032   0.00052  -0.00318   0.00000   0.00095
 136       16F 0       -0.00158  -0.00137  -0.00048   0.00000  -0.00047
 137       16F+1        0.00000   0.00000   0.00000  -0.00047   0.00000
 138       16F-1       -0.00015  -0.00051  -0.00208   0.00000   0.00147
 139       16F+2       -0.00017  -0.00212  -0.00053   0.00000  -0.00057
 140       16F-2        0.00000   0.00000   0.00000   0.00222   0.00000
 141       16F+3        0.00000   0.00000   0.00000  -0.00244   0.00000
 142       16F-3        0.00118  -0.00159  -0.00110   0.00000  -0.00056
 143 4   Cl 1S         -0.01170  -0.01514  -0.01038   0.00000   0.00135
 144        2S          0.04537   0.05771   0.03944   0.00000  -0.00531
 145        3S         -0.09221  -0.12354  -0.08555   0.00000   0.01063
 146        4S         -0.01246  -0.01720  -0.01339   0.00000   0.00216
 147        5S         -0.07749  -0.11870  -0.08008   0.00000   0.01109
 148        6S         -0.00778  -0.00799  -0.02247   0.00000   0.01270
 149        7PX         0.00000   0.00000   0.00000  -0.14773   0.00000
 150        7PY         0.00303   0.00367   0.10711   0.00000   0.09121
 151        7PZ        -0.01434  -0.04400   0.10913   0.00000   0.14002
 152        8PX         0.00000   0.00000   0.00000   0.34807   0.00000
 153        8PY        -0.00364   0.00397  -0.24766   0.00000  -0.21332
 154        8PZ         0.03157   0.09628  -0.26050   0.00000  -0.33197
 155        9PX         0.00000   0.00000   0.00000   0.16253   0.00000
 156        9PY        -0.00347  -0.00223  -0.11697   0.00000  -0.10327
 157        9PZ         0.01616   0.04806  -0.12475   0.00000  -0.15746
 158       10PX         0.00000   0.00000   0.00000   0.19596   0.00000
 159       10PY         0.01521   0.03130  -0.12828   0.00000  -0.13637
 160       10PZ         0.00606   0.03834  -0.17670   0.00000  -0.20772
 161       11PX         0.00000   0.00000   0.00000   0.00091   0.00000
 162       11PY         0.00081   0.00444  -0.00043   0.00000  -0.00676
 163       11PZ         0.00008  -0.00258  -0.00761   0.00000  -0.01042
 164       12D 0        0.00310   0.00565  -0.00684   0.00000  -0.00093
 165       12D+1        0.00000   0.00000   0.00000   0.00555   0.00000
 166       12D-1       -0.00547  -0.01029  -0.00146   0.00000  -0.00130
 167       12D+2       -0.00092  -0.00439  -0.00922   0.00000  -0.00057
 168       12D-2        0.00000   0.00000   0.00000  -0.01051   0.00000
 169       13D 0        0.00221   0.00862  -0.00837   0.00000   0.00078
 170       13D+1        0.00000   0.00000   0.00000   0.00830   0.00000
 171       13D-1       -0.00528  -0.00686  -0.00106   0.00000  -0.00076
 172       13D+2        0.00168  -0.00047  -0.01132   0.00000   0.00167
 173       13D-2        0.00000   0.00000   0.00000  -0.01625   0.00000
 174       14D 0        0.00233   0.00608  -0.00798   0.00000  -0.00143
 175       14D+1        0.00000   0.00000   0.00000   0.00181   0.00000
 176       14D-1        0.00037  -0.00173   0.00334   0.00000   0.00144
 177       14D+2        0.00311   0.00292  -0.00566   0.00000  -0.00050
 178       14D-2        0.00000   0.00000   0.00000  -0.00529   0.00000
 179       15F 0        0.00032   0.00026  -0.00195   0.00000  -0.00084
 180       15F+1        0.00000   0.00000   0.00000   0.00055   0.00000
 181       15F-1       -0.00140  -0.00356   0.00394   0.00000   0.00272
 182       15F+2       -0.00033  -0.00225  -0.00130   0.00000  -0.00032
 183       15F-2        0.00000   0.00000   0.00000  -0.00437   0.00000
 184       15F+3        0.00000   0.00000   0.00000  -0.00425   0.00000
 185       15F-3       -0.00032   0.00049   0.00315   0.00000   0.00090
 186       16F 0       -0.00158   0.00137  -0.00052   0.00000   0.00043
 187       16F+1        0.00000   0.00000   0.00000  -0.00042   0.00000
 188       16F-1        0.00008  -0.00052   0.00208   0.00000   0.00148
 189       16F+2       -0.00021   0.00212  -0.00056   0.00000   0.00056
 190       16F-2        0.00000   0.00000   0.00000  -0.00228   0.00000
 191       16F+3        0.00000   0.00000   0.00000  -0.00246   0.00000
 192       16F-3       -0.00117  -0.00160   0.00112   0.00000  -0.00055
                          21        22        23        24        25
     Eigenvalues --     1.94725   1.94717   1.93678   1.93116   0.06665
   1 1   O  1S          0.00000  -0.02729   0.00022   0.00000   0.00000
   2        2S          0.00000   0.07378  -0.00058   0.00000   0.00000
   3        3S          0.00000   0.02082  -0.00016   0.00000   0.00000
   4        4S          0.00000   0.02957  -0.00021   0.00000   0.00000
   5        5S          0.00000   0.00094  -0.00005   0.00000   0.00000
   6        6PX         0.00028   0.00000   0.00000   0.29523  -0.34434
   7        6PY         0.00000  -0.00241  -0.14092   0.00000   0.00000
   8        6PZ         0.00000  -0.10234   0.00090   0.00000   0.00000
   9        7PX         0.00036   0.00000   0.00000   0.36998  -0.39619
  10        7PY         0.00000  -0.00296  -0.17528   0.00000   0.00000
  11        7PZ         0.00000  -0.12494   0.00110   0.00000   0.00000
  12        8PX         0.00026   0.00000   0.00000   0.24742  -0.07264
  13        8PY         0.00000  -0.00213  -0.12132   0.00000   0.00000
  14        8PZ         0.00000  -0.04061   0.00022   0.00000   0.00000
  15        9PX         0.00004   0.00000   0.00000   0.02580  -0.00390
  16        9PY         0.00000  -0.00035  -0.02164   0.00000   0.00000
  17        9PZ         0.00000   0.00347  -0.00010   0.00000   0.00000
  18       10D 0        0.00000   0.00477  -0.00005   0.00000   0.00000
  19       10D+1       -0.00002   0.00000   0.00000  -0.01037  -0.01311
  20       10D-1        0.00000   0.00002   0.00022   0.00000   0.00000
  21       10D+2        0.00000   0.00002   0.00000   0.00000   0.00000
  22       10D-2       -0.00038   0.00000   0.00000   0.00000   0.00001
  23       11D 0        0.00000   0.00924  -0.00007   0.00000   0.00000
  24       11D+1       -0.00005   0.00000   0.00000  -0.02825  -0.01100
  25       11D-1        0.00000   0.00001  -0.00011   0.00000   0.00000
  26       11D+2        0.00000   0.00204   0.00000   0.00000   0.00000
  27       11D-2       -0.00173   0.00000   0.00000   0.00001   0.00004
  28       12D 0        0.00000  -0.01217   0.00018   0.00000   0.00000
  29       12D+1       -0.00003   0.00000   0.00000  -0.01256   0.01606
  30       12D-1        0.00000  -0.00001  -0.00753   0.00000   0.00000
  31       12D+2        0.00000   0.00225  -0.00002   0.00000   0.00000
  32       12D-2       -0.00385   0.00000   0.00000   0.00000   0.00006
  33       13F 0        0.00000  -0.00189   0.00002   0.00000   0.00000
  34       13F+1        0.00001   0.00000   0.00000   0.00541   0.00389
  35       13F-1        0.00000   0.00000   0.00019   0.00000   0.00000
  36       13F+2        0.00000  -0.00047   0.00000   0.00000   0.00000
  37       13F-2        0.00033   0.00000   0.00000   0.00000   0.00001
  38       13F+3        0.00000   0.00000   0.00000   0.00104  -0.00254
  39       13F-3        0.00000  -0.00001  -0.00044   0.00000   0.00000
  40       14F 0        0.00000  -0.00193   0.00000   0.00000   0.00000
  41       14F+1        0.00001   0.00000   0.00000   0.00348  -0.00532
  42       14F-1        0.00000  -0.00001  -0.00072   0.00000   0.00000
  43       14F+2        0.00000  -0.00234   0.00002   0.00000   0.00000
  44       14F-2        0.00120   0.00000   0.00000  -0.00001  -0.00002
  45       14F+3        0.00000   0.00000   0.00000   0.00088  -0.00075
  46       14F-3        0.00000   0.00000  -0.00020   0.00000   0.00000
  47 2   C  1S          0.00000   0.07685  -0.00069   0.00000   0.00000
  48        2S          0.00000  -0.21991   0.00188   0.00000   0.00000
  49        3S          0.00000  -0.04737   0.00035   0.00000   0.00000
  50        4S          0.00000  -0.16505   0.00160   0.00000   0.00000
  51        5S          0.00000  -0.02104   0.00004   0.00000   0.00000
  52        6PX         0.00039   0.00000   0.00000   0.17297   0.30841
  53        6PY         0.00000   0.00140   0.13918   0.00000   0.00000
  54        6PZ         0.00000   0.17364  -0.00172   0.00000   0.00000
  55        7PX         0.00048   0.00000   0.00000   0.22027   0.46740
  56        7PY         0.00000   0.00182   0.19808   0.00000   0.00000
  57        7PZ         0.00000   0.22263  -0.00244   0.00000   0.00000
  58        8PX        -0.00010   0.00000   0.00000   0.08343   0.15518
  59        8PY         0.00000   0.00029   0.02871   0.00000   0.00000
  60        8PZ         0.00000   0.03407  -0.00022   0.00000   0.00000
  61        9PX        -0.00003   0.00000   0.00000  -0.00176   0.01039
  62        9PY         0.00000   0.00009  -0.00029   0.00000   0.00000
  63        9PZ         0.00000  -0.00726   0.00016   0.00000   0.00000
  64       10D 0        0.00000   0.01280  -0.00003   0.00000   0.00000
  65       10D+1        0.00002   0.00000   0.00000   0.02389  -0.00019
  66       10D-1        0.00000  -0.00038  -0.02891   0.00000   0.00000
  67       10D+2        0.00000   0.00952   0.00000   0.00000   0.00000
  68       10D-2       -0.01035   0.00000   0.00000   0.00003  -0.00008
  69       11D 0        0.00000   0.00897   0.00011   0.00000   0.00000
  70       11D+1        0.00006   0.00000   0.00000   0.03712   0.02332
  71       11D-1        0.00000  -0.00078  -0.07213   0.00000   0.00000
  72       11D+2        0.00000   0.01840  -0.00010   0.00000   0.00000
  73       11D-2       -0.03262   0.00000   0.00000   0.00003  -0.00012
  74       12D 0        0.00000  -0.03078   0.00038   0.00000   0.00000
  75       12D+1       -0.00003   0.00000   0.00000  -0.00623   0.01351
  76       12D-1        0.00000  -0.00032  -0.02046   0.00000   0.00000
[...]
  73       11D-2        0.00000   0.00000  -0.00003   0.00000   0.00000
  74       12D 0       -0.01532   1.24266   0.00000  -0.00462  -0.17045
  75       12D+1        0.00000   0.00000   0.75527   0.00000   0.00000
  76       12D-1        7.04764  -0.06102   0.00000   2.31925   0.95025
  77       12D+2       -0.02088   1.42390   0.00000   0.02502  -0.08735
  78       12D-2        0.00000   0.00000   0.00472   0.00000   0.00000
  79       13F 0        0.00012  -0.05488   0.00000  -0.00100  -0.00319
  80       13F+1        0.00000   0.00000  -0.09388   0.00000   0.00000
  81       13F-1       -0.02213  -0.00132   0.00000   0.07698  -0.02107
  82       13F+2       -0.00012  -0.03897   0.00000  -0.00064   0.00087
  83       13F-2        0.00000   0.00000   0.00026   0.00000   0.00000
  84       13F+3        0.00000   0.00000   0.03863   0.00000   0.00000
  85       13F-3       -0.00735   0.00030   0.00000  -0.00997   0.01895
  86       14F 0        0.00200   0.10696   0.00000  -0.00125   0.00443
  87       14F+1        0.00000   0.00000  -0.17737   0.00000   0.00000
  88       14F-1        0.43944  -0.00203   0.00000   0.18347  -0.20754
  89       14F+2        0.00408   0.25904   0.00000  -0.00001  -0.01335
  90       14F-2        0.00000   0.00000   0.00050   0.00000   0.00000
  91       14F+3        0.00000   0.00000   0.01378   0.00000   0.00000
  92       14F-3        0.19500  -0.00516   0.00000   0.18817  -0.10540
  93 3   Cl 1S          0.02901  -0.01515   0.00000   0.01191   0.00833
  94        2S          0.46455  -0.22787   0.00000   0.15462   0.14554
  95        3S          1.16805  -0.59595   0.00000   0.45381   0.34020
  96        4S         -0.22976   0.09584   0.00000   0.01424  -0.12860
  97        5S         -6.85179   1.85065   0.00000  -3.61660  -0.85966
  98        6S         -2.97983   1.70170   0.00000 -12.78876   1.08249
  99        7PX         0.00000   0.00000  -0.01668   0.00000   0.00000
 100        7PY         0.00659   0.00334   0.00000   0.01304  -0.00086
 101        7PZ        -0.01109  -0.00764   0.00000  -0.00139   0.00590
 102        8PX         0.00000   0.00000  -0.21283   0.00000   0.00000
 103        8PY        -0.00813   0.05273   0.00000   0.21838   0.07058
 104        8PZ        -0.28330  -0.08957   0.00000  -0.00632   0.12678
 105        9PX         0.00000   0.00000   0.06470   0.00000   0.00000
 106        9PY        -0.01879  -0.02858   0.00000  -0.04923   0.00605
 107        9PZ         0.04493   0.01414   0.00000   0.00826  -0.02121
 108       10PX         0.00000   0.00000   0.92513   0.00000   0.00000
 109       10PY        -3.39042   0.51106   0.00000  -4.71961  -0.32600
 110       10PZ        -1.13369   1.96886   0.00000  -3.41078  -0.10746
 111       11PX         0.00000   0.00000  -2.24261   0.00000   0.00000
 112       11PY        -0.49015  -0.63979   0.00000  -2.34082  -3.06183
 113       11PZ         0.27729  -2.01099   0.00000  -1.58066   0.79725
 114       12D 0        0.00669  -0.04255   0.00000   0.02109   0.00689
 115       12D+1        0.00000   0.00000  -0.02656   0.00000   0.00000
 116       12D-1        0.05105  -0.08364   0.00000  -0.01959  -0.01471
 117       12D+2       -0.01110   0.06971   0.00000   0.03588   0.05826
 118       12D-2        0.00000   0.00000  -0.00977   0.00000   0.00000
 119       13D 0       -0.11638   0.17359   0.00000  -0.12503  -0.00775
 120       13D+1        0.00000   0.00000   0.08278   0.00000   0.00000
 121       13D-1       -0.38769   0.37330   0.00000  -0.04591   0.13760
 122       13D+2        0.13038  -0.28589   0.00000  -0.08313  -0.26445
 123       13D-2        0.00000   0.00000   0.03531   0.00000   0.00000
 124       14D 0        0.57104   0.25473   0.00000  -0.05373   0.25451
 125       14D+1        0.00000   0.00000  -0.07842   0.00000   0.00000
 126       14D-1       -0.19386   0.14694   0.00000  -1.56254  -0.12395
 127       14D+2        0.26308   0.35890   0.00000   1.07033   0.66944
 128       14D-2        0.00000   0.00000   0.19087   0.00000   0.00000
 129       15F 0       -0.03345  -0.00066   0.00000  -0.00822   0.01311
 130       15F+1        0.00000   0.00000  -0.00514   0.00000   0.00000
 131       15F-1       -0.00506  -0.04279   0.00000   0.04633  -0.00541
 132       15F+2       -0.00094   0.02886   0.00000  -0.01208   0.00271
 133       15F-2        0.00000   0.00000  -0.01621   0.00000   0.00000
 134       15F+3        0.00000   0.00000   0.04263   0.00000   0.00000
 135       15F-3        0.03145  -0.00227   0.00000   0.00786   0.01054
 136       16F 0        0.13710   0.00226   0.00000   0.03754  -0.02495
 137       16F+1        0.00000   0.00000  -0.00075   0.00000   0.00000
 138       16F-1       -0.05576   0.18314   0.00000  -0.18734   0.05539
 139       16F+2        0.09970  -0.13382   0.00000   0.11027  -0.02714
 140       16F-2        0.00000   0.00000   0.03589   0.00000   0.00000
 141       16F+3        0.00000   0.00000  -0.10275   0.00000   0.00000
 142       16F-3       -0.02981  -0.03627   0.00000   0.02383  -0.00434
 143 4   Cl 1S         -0.02870  -0.01443   0.00000  -0.01228  -0.00921
 144        2S         -0.45965  -0.21776   0.00000  -0.15989  -0.16133
 145        3S         -1.15557  -0.56806   0.00000  -0.46836  -0.37647
 146        4S          0.22839   0.09474   0.00000  -0.01299   0.14204
 147        5S          6.71959   1.62214   0.00000   3.64392   0.95997
 148        6S          2.89721   1.39532   0.00000  12.86340  -1.76628
 149        7PX         0.00000   0.00000  -0.01679   0.00000   0.00000
 150        7PY         0.00708  -0.00323   0.00000   0.01305  -0.00160
 151        7PZ         0.01062  -0.00833   0.00000   0.00109  -0.00392
 152        8PX         0.00000   0.00000  -0.21357   0.00000   0.00000
 153        8PY         0.00443  -0.04841   0.00000   0.21834   0.05733
 154        8PZ         0.27339  -0.10164   0.00000   0.00121  -0.09488
 155        9PX         0.00000   0.00000   0.06520   0.00000   0.00000
 156        9PY        -0.02022   0.02796   0.00000  -0.04870   0.00845
 157        9PZ        -0.04364   0.01692   0.00000  -0.00761   0.01404
 158       10PX         0.00000   0.00000   0.92201   0.00000   0.00000
 159       10PY        -3.30657  -0.34871   0.00000  -4.73529  -0.37486
 160       10PZ         1.12530   1.85802   0.00000   3.48335  -0.08138
 161       11PX         0.00000   0.00000  -2.24589   0.00000   0.00000
 162       11PY        -0.48948   0.66463   0.00000  -2.32091  -2.93232
 163       11PZ        -0.32338  -2.02815   0.00000   1.57506  -0.67745
 164       12D 0       -0.00870  -0.04238   0.00000  -0.02124  -0.00488
 165       12D+1        0.00000   0.00000  -0.02700   0.00000   0.00000
 166       12D-1        0.05107   0.08330   0.00000  -0.01799  -0.01457
 167       12D+2        0.01098   0.06960   0.00000  -0.03382  -0.05895
 168       12D-2        0.00000   0.00000   0.00979   0.00000   0.00000
 169       13D 0        0.12553   0.17005   0.00000   0.12606  -0.00106
 170       13D+1        0.00000   0.00000   0.08454   0.00000   0.00000
 171       13D-1       -0.38032  -0.36353   0.00000  -0.05368   0.13537
 172       13D+2       -0.12407  -0.28074   0.00000   0.07454   0.26311
 173       13D-2        0.00000   0.00000  -0.03582   0.00000   0.00000
 174       14D 0       -0.57380   0.25912   0.00000   0.07636  -0.28552
 175       14D+1        0.00000   0.00000  -0.08116   0.00000   0.00000
 176       14D-1       -0.18895  -0.10477   0.00000  -1.57685  -0.10049
 177       14D+2       -0.24791   0.37779   0.00000  -1.06163  -0.71054
 178       14D-2        0.00000   0.00000  -0.18877   0.00000   0.00000
 179       15F 0        0.03421  -0.00205   0.00000   0.00765  -0.01389
 180       15F+1        0.00000   0.00000  -0.00519   0.00000   0.00000
 181       15F-1       -0.00404   0.04257   0.00000   0.04742  -0.00431
 182       15F+2        0.00126   0.02949   0.00000   0.01266  -0.00392
 183       15F-2        0.00000   0.00000   0.01700   0.00000   0.00000
 184       15F+3        0.00000   0.00000   0.04299   0.00000   0.00000
 185       15F-3        0.03147   0.00101   0.00000   0.00769   0.01088
 186       16F 0       -0.13671   0.00721   0.00000  -0.03586   0.02638
 187       16F+1        0.00000   0.00000  -0.00079   0.00000   0.00000
 188       16F-1       -0.05911  -0.17931   0.00000  -0.19274   0.05624
 189       16F+2       -0.09809  -0.13109   0.00000  -0.11402   0.02861
 190       16F-2        0.00000   0.00000  -0.03758   0.00000   0.00000
 191       16F+3        0.00000   0.00000  -0.10343   0.00000   0.00000
 192       16F-3       -0.03155   0.03731   0.00000   0.02560  -0.00108
                         191       192
     Eigenvalues --     0.00000   0.00000
   1 1   O  1S          0.07129   0.07088
   2        2S          0.38129   0.36285
   3        3S          0.01107  -0.01479
   4        4S         -4.64425  -2.95950
   5        5S         -9.47179  -8.53391
   6        6PX         0.00000   0.00000
   7        6PY         0.00040  -0.00002
   8        6PZ        -0.00980   0.00448
   9        7PX         0.00000   0.00000
  10        7PY         0.00050  -0.00020
  11        7PZ         0.15362  -0.01189
  12        8PX         0.00000   0.00000
  13        8PY         0.04455  -0.01185
  14        8PZ         2.75499   2.15073
  15        9PX         0.00000   0.00000
  16        9PY        -0.22832   0.01152
  17        9PZ        -1.37519  -0.02530
  18       10D 0        0.03872   0.04112
  19       10D+1        0.00000   0.00000
  20       10D-1        0.00195  -0.00016
  21       10D+2       -0.02807  -0.01380
  22       10D-2        0.00000   0.00000
  23       11D 0       -0.31904  -0.21718
  24       11D+1        0.00000   0.00000
  25       11D-1       -0.01046   0.00138
  26       11D+2        0.08016   0.04257
  27       11D-2        0.00000   0.00000
  28       12D 0       -0.40709  -0.30955
  29       12D+1        0.00000   0.00000
  30       12D-1       -0.00993   0.00516
  31       12D+2       -0.44466  -0.12743
  32       12D-2        0.00000   0.00000
  33       13F 0        0.00961  -0.00969
  34       13F+1        0.00000   0.00000
  35       13F-1       -0.00148   0.00016
  36       13F+2       -0.01491  -0.00606
  37       13F-2        0.00000   0.00000
  38       13F+3        0.00000   0.00000
  39       13F-3        0.00031   0.00004
  40       14F 0        0.12891   0.11634
  41       14F+1        0.00000   0.00000
  42       14F-1        0.00794  -0.00138
  43       14F+2        0.06818   0.02536
  44       14F-2        0.00000   0.00000
  45       14F+3        0.00000   0.00000
  46       14F-3       -0.00040  -0.00012
  47 2   C  1S          0.20727   0.02748
  48        2S          1.14751   0.23941
  49        3S         -0.04684   0.10511
  50        4S          6.54196  12.24465
  51        5S         -2.30012  19.31585
  52        6PX         0.00000   0.00000
  53        6PY        -0.00014  -0.00035
  54        6PZ         0.01947   0.00944
  55        7PX         0.00000   0.00000
  56        7PY        -0.01083   0.00179
  57        7PZ         1.05690   0.59646
  58        8PX         0.00000   0.00000
  59        8PY        -0.02475  -0.04222
  60        8PZ         2.87981  -0.72388
  61        9PX         0.00000   0.00000
  62        9PY         0.45518  -0.07151
  63        9PZ         7.22776  -0.56505
  64       10D 0        0.06322   0.04610
  65       10D+1        0.00000   0.00000
  66       10D-1       -0.00030  -0.00026
  67       10D+2        0.01254  -0.02123
  68       10D-2        0.00000   0.00000
  69       11D 0        0.51298   0.20806
  70       11D+1        0.00000   0.00000
  71       11D-1       -0.03202   0.00638
  72       11D+2       -0.05745  -0.02882
  73       11D-2        0.00000   0.00000
  74       12D 0        3.20989   1.61551
  75       12D+1        0.00000   0.00000
  76       12D-1        0.07231   0.00495
  77       12D+2        1.50958  -0.75829
  78       12D-2        0.00000   0.00000
  79       13F 0        0.06180  -0.01217
  80       13F+1        0.00000   0.00000
  81       13F-1       -0.00102   0.00030
  82       13F+2       -0.01134   0.00060
  83       13F-2        0.00000   0.00000
  84       13F+3        0.00000   0.00000
  85       13F-3        0.00116  -0.00015
  86       14F 0       -0.04996  -0.04183
  87       14F+1        0.00000   0.00000
  88       14F-1       -0.01244   0.00358
  89       14F+2        0.23399   0.01953
  90       14F-2        0.00000   0.00000
  91       14F+3        0.00000   0.00000
  92       14F-3       -0.00591   0.00113
  93 3   Cl 1S          0.00814   0.00042
  94        2S          0.13993  -0.01502
  95        3S          0.33105   0.00335
  96        4S         -0.10726   0.06823
  97        5S         -0.88713  -0.55864
  98        6S          4.75503 -10.26688
  99        7PX         0.00000   0.00000
 100        7PY        -0.00523   0.01051
 101        7PZ        -0.01668   0.00571
 102        8PX         0.00000   0.00000
 103        8PY        -0.07985   0.18158
 104        8PZ        -0.25939   0.10263
 105        9PX         0.00000   0.00000
 106        9PY         0.01907  -0.03728
 107        9PZ         0.06230  -0.02055
 108       10PX         0.00000   0.00000
 109       10PY        -0.80903  -2.89160
 110       10PZ         1.50574  -1.36745
 111       11PX         0.00000   0.00000
 112       11PY         0.70447  -1.61674
 113       11PZ        -1.03169  -1.34394
 114       12D 0       -0.01766   0.00182
 115       12D+1        0.00000   0.00000
 116       12D-1        0.00693  -0.00166
 117       12D+2        0.00661  -0.02334
 118       12D-2        0.00000   0.00000
 119       13D 0        0.07378   0.00875
 120       13D+1        0.00000   0.00000
 121       13D-1       -0.04001  -0.00692
 122       13D+2        0.00554   0.10248
 123       13D-2        0.00000   0.00000
 124       14D 0        0.29129   0.12605
 125       14D+1        0.00000   0.00000
 126       14D-1        0.14032  -0.76908
 127       14D+2        0.49883   0.63493
 128       14D-2        0.00000   0.00000
 129       15F 0        0.00289  -0.01652
 130       15F+1        0.00000   0.00000
 131       15F-1        0.01442   0.00827
 132       15F+2        0.00109  -0.04144
 133       15F-2        0.00000   0.00000
 134       15F+3        0.00000   0.00000
 135       15F-3       -0.00116  -0.03461
 136       16F 0       -0.00373   0.05464
 137       16F+1        0.00000   0.00000
 138       16F-1       -0.00972  -0.02268
 139       16F+2        0.01663   0.13908
 140       16F-2        0.00000   0.00000
 141       16F+3        0.00000   0.00000
 142       16F-3        0.04658   0.11632
 143 4   Cl 1S          0.00723   0.00037
 144        2S          0.12418  -0.01522
 145        3S          0.29402   0.00194
 146        4S         -0.09338   0.06695
 147        5S         -0.78328  -0.52769
 148        6S          4.65173 -10.10720
 149        7PX         0.00000   0.00000
 150        7PY         0.00496  -0.01032
 151        7PZ        -0.01722   0.00589
 152        8PX         0.00000   0.00000
 153        8PY         0.08543  -0.17925
 154        8PZ        -0.27276   0.10539
 155        9PX         0.00000   0.00000
 156        9PY        -0.01779   0.03655
 157        9PZ         0.06417  -0.02128
 158       10PX         0.00000   0.00000
 159       10PY         0.75936   2.83978
 160       10PZ         1.50895  -1.35007
 161       11PX         0.00000   0.00000
 162       11PY        -1.05549   1.63363
 163       11PZ        -1.08797  -1.32611
 164       12D 0       -0.01834   0.00176
 165       12D+1        0.00000   0.00000
 166       12D-1       -0.00898   0.00175
 167       12D+2       -0.00005  -0.02290
 168       12D-2        0.00000   0.00000
 169       13D 0        0.07333   0.00979
 170       13D+1        0.00000   0.00000
 171       13D-1        0.05793   0.00516
 172       13D+2        0.03519   0.10016
 173       13D-2        0.00000   0.00000
 174       14D 0        0.26492   0.12501
 175       14D+1        0.00000   0.00000
 176       14D-1       -0.15436   0.76163
 177       14D+2        0.42102   0.62986
 178       14D-2        0.00000   0.00000
 179       15F 0        0.00141  -0.01650
 180       15F+1        0.00000   0.00000
 181       15F-1       -0.01470  -0.00853
 182       15F+2        0.00042  -0.04143
 183       15F-2        0.00000   0.00000
 184       15F+3        0.00000   0.00000
 185       15F-3        0.00298   0.03420
 186       16F 0       -0.00044   0.05481
 187       16F+1        0.00000   0.00000
 188       16F-1        0.01507   0.02212
 189       16F+2        0.02091   0.13863
 190       16F-2        0.00000   0.00000
 191       16F+3        0.00000   0.00000
 192       16F-3       -0.04822  -0.11538
          Condensed to atoms (all electrons):
              1          2          3          4
     1  O    8.031707   0.435487  -0.074271  -0.073013
     2  C    0.435487   4.961216   0.136856   0.139208
     3  Cl  -0.074271   0.136856  17.039503  -0.101021
     4  Cl  -0.073013   0.139208  -0.101021  17.041082
 Mulliken atomic charges:
              1
     1  O   -0.319910
     2  C    0.327233
     3  Cl  -0.001066
     4  Cl  -0.006256
 Sum of Mulliken atomic charges =   0.00000
 Mulliken charges with hydrogens summed into heavy atoms:
              1
     1  O   -0.319910
     2  C    0.327233
     3  Cl  -0.001066
     4  Cl  -0.006256
 Sum of Mulliken charges with hydrogens summed into heavy atoms =   0.00000
 Electronic spatial extent (au):  <R**2>=            615.5055
 Charge=              0.0000 electrons
 Dipole moment (field-independent basis, Debye):
    X=              0.0000    Y=             -0.0174    Z=             -1.2269  Tot=              1.2270
 Quadrupole moment (field-independent basis, Debye-Ang):
   XX=            -35.0949   YY=            -34.4153   ZZ=            -36.2817
   XY=              0.0000   XZ=              0.0000   YZ=              0.0160
 Traceless Quadrupole moment (field-independent basis, Debye-Ang):
   XX=              0.1690   YY=              0.8487   ZZ=             -1.0177
   XY=              0.0000   XZ=              0.0000   YZ=              0.0160
 Octapole moment (field-independent basis, Debye-Ang**2):
  XXX=              0.0000  YYY=             -0.1108  ZZZ=            106.5604  XYY=              0.0000
  XXY=             -0.0202  XXZ=             36.2080  XZZ=              0.0000  YZZ=             -0.0069
  YYZ=             29.8470  XYZ=              0.0000
 Hexadecapole moment (field-independent basis, Debye-Ang**3):
 XXXX=            -37.1563 YYYY=           -329.5915 ZZZZ=           -385.1607 XXXY=              0.0000
 XXXZ=              0.0000 YYYX=              0.0000 YYYZ=              0.6292 ZZZX=              0.0000
 ZZZY=              0.4731 XXYY=            -65.2860 XXZZ=            -71.4735 YYZZ=           -107.1764
 XXYZ=              0.2066 YYXZ=              0.0000 ZZXY=              0.0000
 N-N= 1.915779129324D+02 E-N=-2.837377499285D+03  KE= 1.032412264326D+03
 1\1\GINC-TRAPISTA\SP\RQCISD-FC\Aug-CC-pVTZ\C1Cl2O1\BRUNS\27-Nov-2021\0
 \\# qcisd/aug-cc-pvtz nosymm density=current output=wfn\\cl2co-wavefun
 ction\\0,1\O,0,0.,0.,0.683397\C,0,0.,0.,-0.494687\Cl,0,0.,-1.44687,-1.
 469805\Cl,0,0.,1.44687,-1.479805\\Version=EM64L-G09RevB.01\HF=-1031.80
 26126\MP2=-1032.5821456\MP3=-1032.6011655\MP4D=-1032.6208623\MP4DQ=-10
 32.5983182\MP4SDQ=-1032.6073275\QCISD=-1032.6055889\RMSD=4.784e-09\Dip
 ole=0.,-0.0068359,-0.4827093\Quadrupole=0.1256833,0.6309622,-0.7566454
 ,0.,0.,0.0119175\PG=CS [SG(C1Cl2O1)]\\@

 Writing a WFN file to GAUSSIAN.wfn.


 THERE IS NO CURE FOR BIRTH AND DEATH SAVE TO ENJOY THE INTERVAL.

                               -- GEORGE SANTAYANA
 Job cpu time:  0 days  2 hours  5 minutes 16.0 seconds.
 File lengths (MBytes):  RWF=  18183 Int=      0 D2E=      0 Chk=      3 Scr=      1
 Normal termination of Gaussian 09 at Sat Nov 27 18:46:36 2021.
