 Entering Gaussian System, Link 0=/home/bruns/programas/chemistry/gaussian/g09/g09
 Input=GAUSSIAN.com
 Output=GAUSSIAN.log
 Initial command:
 /home/bruns/programas/chemistry/gaussian/g09/l1.exe /home/bruns/programas/chemistry/gaussian/work/Gau-52217.inp -scrdir=/home/bruns/programas/chemistry/gaussian/work/
 Entering Link 1 = /home/bruns/programas/chemistry/gaussian/g09/l1.exe PID=     52219.
  
 Copyright (c) 1988,1990,1992,1993,1995,1998,2003,2009,2010,
            Gaussian, Inc.  All Rights Reserved.
  
 This is part of the Gaussian(R) 09 program.  It is based on
 the Gaussian(R) 03 system (copyright 2003, Gaussian, Inc.),
 the Gaussian(R) 98 system (copyright 1998, Gaussian, Inc.),
 the Gaussian(R) 94 system (copyright 1995, Gaussian, Inc.),
 the Gaussian 92(TM) system (copyright 1992, Gaussian, Inc.),
 the Gaussian 90(TM) system (copyright 1990, Gaussian, Inc.),
 the Gaussian 88(TM) system (copyright 1988, Gaussian, Inc.),
 the Gaussian 86(TM) system (copyright 1986, Carnegie Mellon
 University), and the Gaussian 82(TM) system (copyright 1983,
 Carnegie Mellon University). Gaussian is a federally registered
 trademark of Gaussian, Inc.
  
 This software contains proprietary and confidential information,
 including trade secrets, belonging to Gaussian, Inc.
  
 This software is provided under written license and may be
 used, copied, transmitted, or stored only in accord with that
 written license.
  
 The following legend is applicable only to US Government
 contracts under FAR:
  
                    RESTRICTED RIGHTS LEGEND
  
 Use, reproduction and disclosure by the US Government is
 subject to restrictions as set forth in subparagraphs (a)
 and (c) of the Commercial Computer Software - Restricted
 Rights clause in FAR 52.227-19.
  
 Gaussian, Inc.
 340 Quinnipiac St., Bldg. 40, Wallingford CT 06492
  
  
 ---------------------------------------------------------------
 Warning -- This program may not be used in any manner that
 competes with the business of Gaussian, Inc. or will provide
 assistance to any competitor of Gaussian, Inc.  The licensee
 of this program is prohibited from giving any competitor of
 Gaussian, Inc. access to this program.  By using this program,
 the user acknowledges that Gaussian, Inc. is engaged in the
 business of creating and licensing software in the field of
 computational chemistry and represents and warrants to the
 licensee that it is not a competitor of Gaussian, Inc. and that
 it will not use this program in any manner prohibited above.
 ---------------------------------------------------------------
  

 Cite this work as:
 Gaussian 09, Revision B.01,
 M. J. Frisch, G. W. Trucks, H. B. Schlegel, G. E. Scuseria, 
 M. A. Robb, J. R. Cheeseman, G. Scalmani, V. Barone, B. Mennucci, 
 G. A. Petersson, H. Nakatsuji, M. Caricato, X. Li, H. P. Hratchian, 
 A. F. Izmaylov, J. Bloino, G. Zheng, J. L. Sonnenberg, M. Hada, 
 M. Ehara, K. Toyota, R. Fukuda, J. Hasegawa, M. Ishida, T. Nakajima, 
 Y. Honda, O. Kitao, H. Nakai, T. Vreven, J. A. Montgomery, Jr., 
 J. E. Peralta, F. Ogliaro, M. Bearpark, J. J. Heyd, E. Brothers, 
 K. N. Kudin, V. N. Staroverov, T. Keith, R. Kobayashi, J. Normand, 
 K. Raghavachari, A. Rendell, J. C. Burant, S. S. Iyengar, J. Tomasi, 
 M. Cossi, N. Rega, J. M. Millam, M. Klene, J. E. Knox, J. B. Cross, 
 V. Bakken, C. Adamo, J. Jaramillo, R. Gomperts, R. E. Stratmann, 
 O. Yazyev, A. J. Austin, R. Cammi, C. Pomelli, J. W. Ochterski, 
 R. L. Martin, K. Morokuma, V. G. Zakrzewski, G. A. Voth, 
 P. Salvador, J. J. Dannenberg, S. Dapprich, A. D. Daniels, 
 O. Farkas, J. B. Foresman, J. V. Ortiz, J. Cioslowski, 
 and D. J. Fox, Gaussian, Inc., Wallingford CT, 2010.
 
 ******************************************
 Gaussian 09:  EM64L-G09RevB.01 12-Aug-2010
                27-Nov-2021 
 ******************************************
 %nproc=8
 Will use up to    8 processors via shared memory.
 %mem=8GB
 -----------------------------------------------------
 # qcisd/aug-cc-pvtz nosymm density=current output=wfn
 -----------------------------------------------------
 1/30=1,38=1/1;
 2/12=2,15=1,17=6,18=5,40=1/2;
 3/5=16,6=1,7=10,11=9,16=1,25=1,30=1,71=1/1,2,3;
 4//1;
 5/5=2,38=5/2;
 8/6=4,9=120000,10=1/1,4;
 9/5=8,15=1/13;
 11/28=-7,31=1,32=3,42=3/11;
 10/5=6,13=10,31=1/2;
 6/7=2,8=2,9=2,10=2,22=-1,31=1/1;
 99/5=1,6=1100,9=1/99;
 ------------------
 cl2co-wavefunction
 ------------------
 Symbolic Z-matrix:
 Charge =  0 Multiplicity = 1
 O                     0.        0.        0.6834 
 C                     0.        0.       -0.49469 
 Cl                    0.       -1.44687  -1.46981 
 Cl                   -0.01      1.44687  -1.46981 
 
                          Input orientation:                          
 ---------------------------------------------------------------------
 Center     Atomic      Atomic             Coordinates (Angstroms)
 Number     Number       Type             X           Y           Z
 ---------------------------------------------------------------------
      1          8           0        0.000000    0.000000    0.683397
      2          6           0        0.000000    0.000000   -0.494687
      3         17           0        0.000000   -1.446870   -1.469805
      4         17           0       -0.010000    1.446870   -1.469805
 ---------------------------------------------------------------------
                    Distance matrix (angstroms):
                    1          2          3          4
     1  O    0.000000
     2  C    1.178084   0.000000
     3  Cl   2.594169   1.744789   0.000000
     4  Cl   2.594188   1.744817   2.893757   0.000000
 Symmetry turned off by external request.
 Stoichiometry    CCl2O
 Framework group  C1[X(CCl2O)]
 Deg. of freedom     6
 Full point group                 C1      NOp   1
 Rotational constants (GHZ):      7.9178715      3.4517663      2.4038287
 Standard basis: Aug-CC-pVTZ (5D, 7F)
 Integral buffers will be    131072 words long.
 Raffenetti 1 integral format.
 Two-electron integral symmetry is turned off.
   192 basis functions,   372 primitive gaussians,   228 cartesian basis functions
    24 alpha electrons       24 beta electrons
       nuclear repulsion energy       191.7648614567 Hartrees.
 NAtoms=    4 NActive=    4 NUniq=    4 SFac= 1.00D+00 NAtFMM=   50 NAOKFM=F Big=F
 One-electron integrals computed using PRISM.
 NBasis=   192 RedAO= T  NBF=   192
 NBsUse=   192 1.00D-06 NBFU=   192
 Harris functional with IExCor=  205 diagonalized for initial guess.
 ExpMin= 3.57D-02 ExpMax= 4.56D+05 ExpMxC= 1.44D+03 IAcc=3 IRadAn=         0 AccDes= 0.00D+00
 HarFok:  IExCor=  205 AccDes= 0.00D+00 IRadAn=         0 IDoV= 1
 ScaDFX=  1.000000  1.000000  1.000000  1.000000
 FoFCou: FMM=F IPFlag=           0 FMFlag=      100000 FMFlg1=           0
         NFxFlg=           0 DoJE=T BraDBF=F KetDBF=T FulRan=T
         Omega=  0.000000  0.000000  1.000000  0.000000  0.000000 ICntrl=     500 IOpCl=  0
         NMat0=    1 NMatS0=    1 NMatT0=    0 NMatD0=    1 NMtDS0=    0 NMtDT0=    0
         I1Cent=           4 NGrid=           0.
 Symmetry not used in FoFCou.
 Requested convergence on RMS density matrix=1.00D-08 within 128 cycles.
 Requested convergence on MAX density matrix=1.00D-06.
 Requested convergence on             energy=1.00D-06.
 No special actions if energy rises.
 Keep R1 ints in memory in canonical form, NReq=346956363.
 SCF Done:  E(RHF) =  -1031.80274087     A.U. after   12 cycles
             Convg  =    0.4652D-08             -V/T =  2.0003
 ExpMin= 3.57D-02 ExpMax= 4.56D+05 ExpMxC= 1.44D+03 IAcc=3 IRadAn=         5 AccDes= 0.00D+00
 HarFok:  IExCor=  205 AccDes= 0.00D+00 IRadAn=         5 IDoV=-2
 ScaDFX=  1.000000  1.000000  1.000000  1.000000
 DSYEVD returned Info=          93 IAlg= 4 N=    46 NDim=    46 NE2=    21472416 trying DSYEV.
 DSYEVD returned Info=         101 IAlg= 4 N=    50 NDim=    50 NE2=    21472416 trying DSYEV.
 DSYEVD returned Info=         101 IAlg= 4 N=    50 NDim=    50 NE2=    21472416 trying DSYEV.
 Range of M.O.s used for correlation:    13   192
 NBasis=   192 NAE=    24 NBE=    24 NFC=    12 NFV=     0
 NROrb=    180 NOA=    12 NOB=    12 NVA=   168 NVB=   168

 **** Warning!!: The largest alpha MO coefficient is  0.28788225D+02

 Semi-Direct transformation.
 ModeAB=           2 MOrb=            12 LenV=    1072714337
 LASXX=     33405819 LTotXX=    33405819 LenRXX=    33405819
 LTotAB=    33954012 MaxLAS=    56388960 LenRXY=    56388960
 NonZer=    66811638 LenScr=   100987392 LnRSAI=           0
 LnScr1=           0 LExtra=           0 Total=    190782171
 MaxDsk=          -1 SrtSym=           F ITran=            4
 JobTyp=0 Pass  1:  I=   1 to  12.
 (rs|ai) integrals will be sorted in core.
 Spin components of T(2) and E(2):
     alpha-alpha T2 =       0.3523615293D-01 E2=     -0.1018046928D+00
     alpha-beta  T2 =       0.1834149543D+00 E2=     -0.5757999855D+00
     beta-beta   T2 =       0.3523615293D-01 E2=     -0.1018046928D+00
 ANorm=    0.1119771075D+01
 E2 =    -0.7794093711D+00 EUMP2 =    -0.10325821502396D+04
 R2 and R3 integrals will be kept in memory, NReq=   687553722.
 Iterations=  50 Convergence= 0.100D-07
 Iteration Nr.   1
 **********************
 DD1Dir will call FoFMem   1 times, MxPair=       156
 NAB=    78 NAA=     0 NBB=     0.
 MP4(R+Q)=  0.22520501D-01
 E3=       -0.19054699D-01        EUMP3=      -0.10326012049D+04
 E4(DQ)=    0.28541446D-02        UMP4(DQ)=   -0.10325983508D+04
 E4(SDQ)=  -0.61277813D-02        UMP4(SDQ)=  -0.10326073327D+04
 DE(Corr)= -0.77594357     E(Corr)=     -1032.5786844    
 NORM(A)=   0.11213538D+01
 Iteration Nr.   2
 **********************
 DD1Dir will call FoFMem   1 times, MxPair=       156
 NAB=    78 NAA=     0 NBB=     0.
 DE(Corr)= -0.80165667     E(CORR)=     -1032.6043975     Delta=-2.57D-02
 NORM(A)=   0.11307146D+01
 Iteration Nr.   3
 **********************
 DD1Dir will call FoFMem   1 times, MxPair=       156
 NAB=    78 NAA=     0 NBB=     0.
 DE(Corr)= -0.80005276     E(CORR)=     -1032.6027936     Delta= 1.60D-03
 NORM(A)=   0.11333185D+01
 Iteration Nr.   4
 **********************
 DD1Dir will call FoFMem   1 times, MxPair=       156
 NAB=    78 NAA=     0 NBB=     0.
 DE(Corr)= -0.80248266     E(CORR)=     -1032.6052235     Delta=-2.43D-03
 NORM(A)=   0.11343299D+01
 Iteration Nr.   5
 **********************
 DD1Dir will call FoFMem   1 times, MxPair=       156
 NAB=    78 NAA=     0 NBB=     0.
 DE(Corr)= -0.80279996     E(CORR)=     -1032.6055408     Delta=-3.17D-04
 NORM(A)=   0.11347203D+01
 Iteration Nr.   6
 **********************
 DD1Dir will call FoFMem   1 times, MxPair=       156
 NAB=    78 NAA=     0 NBB=     0.
 DE(Corr)= -0.80285062     E(CORR)=     -1032.6055915     Delta=-5.07D-05
 NORM(A)=   0.11347915D+01
 Iteration Nr.   7
 **********************
 DD1Dir will call FoFMem   1 times, MxPair=       156
 NAB=    78 NAA=     0 NBB=     0.
 DE(Corr)= -0.80285977     E(CORR)=     -1032.6056006     Delta=-9.15D-06
 NORM(A)=   0.11347927D+01
 Iteration Nr.   8
 **********************
 DD1Dir will call FoFMem   1 times, MxPair=       156
 NAB=    78 NAA=     0 NBB=     0.
 DE(Corr)= -0.80285935     E(CORR)=     -1032.6056002     Delta= 4.16D-07
 NORM(A)=   0.11348008D+01
 Iteration Nr.   9
 **********************
 DD1Dir will call FoFMem   1 times, MxPair=       156
 NAB=    78 NAA=     0 NBB=     0.
 DE(Corr)= -0.80285809     E(CORR)=     -1032.6055990     Delta= 1.26D-06
 NORM(A)=   0.11348003D+01
 Iteration Nr.  10
 **********************
 DD1Dir will call FoFMem   1 times, MxPair=       156
 NAB=    78 NAA=     0 NBB=     0.
 DE(Corr)= -0.80285928     E(CORR)=     -1032.6056001     Delta=-1.19D-06
 NORM(A)=   0.11348020D+01
 Iteration Nr.  11
 **********************
 DD1Dir will call FoFMem   1 times, MxPair=       156
 NAB=    78 NAA=     0 NBB=     0.
 DE(Corr)= -0.80286010     E(CORR)=     -1032.6056010     Delta=-8.18D-07
 NORM(A)=   0.11348031D+01
 Iteration Nr.  12
 **********************
 DD1Dir will call FoFMem   1 times, MxPair=       156
 NAB=    78 NAA=     0 NBB=     0.
 DE(Corr)= -0.80286035     E(CORR)=     -1032.6056012     Delta=-2.48D-07
 NORM(A)=   0.11348038D+01
 Iteration Nr.  13
 **********************
 DD1Dir will call FoFMem   1 times, MxPair=       156
 NAB=    78 NAA=     0 NBB=     0.
 DE(Corr)= -0.80286067     E(CORR)=     -1032.6056015     Delta=-3.25D-07
 NORM(A)=   0.11348042D+01
 Iteration Nr.  14
 **********************
 DD1Dir will call FoFMem   1 times, MxPair=       156
 NAB=    78 NAA=     0 NBB=     0.
 DE(Corr)= -0.80286074     E(CORR)=     -1032.6056016     Delta=-6.48D-08
 NORM(A)=   0.11348044D+01
 Iteration Nr.  15
 **********************
 DD1Dir will call FoFMem   1 times, MxPair=       156
 NAB=    78 NAA=     0 NBB=     0.
 DE(Corr)= -0.80286078     E(CORR)=     -1032.6056017     Delta=-4.78D-08
 NORM(A)=   0.11348045D+01
 Iteration Nr.  16
 **********************
 DD1Dir will call FoFMem   1 times, MxPair=       156
 NAB=    78 NAA=     0 NBB=     0.
 DE(Corr)= -0.80286080     E(CORR)=     -1032.6056017     Delta=-1.62D-08
 NORM(A)=   0.11348045D+01
 Iteration Nr.  17
 **********************
 DD1Dir will call FoFMem   1 times, MxPair=       156
 NAB=    78 NAA=     0 NBB=     0.
 DE(Corr)= -0.80286080     E(CORR)=     -1032.6056017     Delta= 1.56D-09
 NORM(A)=   0.11348045D+01
 Iteration Nr.  18
 **********************
 DD1Dir will call FoFMem   1 times, MxPair=       156
 NAB=    78 NAA=     0 NBB=     0.
 DE(Corr)= -0.80286080     E(CORR)=     -1032.6056017     Delta=-5.92D-10
 NORM(A)=   0.11348045D+01
 Iteration Nr.  19
 **********************
 DD1Dir will call FoFMem   1 times, MxPair=       156
 NAB=    78 NAA=     0 NBB=     0.
 DE(Corr)= -0.80286080     E(CORR)=     -1032.6056017     Delta= 2.47D-09
 NORM(A)=   0.11348045D+01
 Iteration Nr.  20
 **********************
 DD1Dir will call FoFMem   1 times, MxPair=       156
 NAB=    78 NAA=     0 NBB=     0.
 DE(Corr)= -0.80286080     E(CORR)=     -1032.6056017     Delta=-3.17D-09
 NORM(A)=   0.11348045D+01
 Iteration Nr.  21
 **********************
 DD1Dir will call FoFMem   1 times, MxPair=       156
 NAB=    78 NAA=     0 NBB=     0.
 DE(Corr)= -0.80286080     E(CORR)=     -1032.6056017     Delta= 2.76D-10
 NORM(A)=   0.11348045D+01
 Largest amplitude= 3.32D-02

 Z-AMPLITUDE ITERATIONS

 Iteration Nr.   1
 **********************
 DD1Dir will call FoFMem   1 times, MxPair=       156
 NAB=    78 NAA=     0 NBB=     0.
 DE(Z)  -0.77482456D+00          E(Z)=    -0.10325775654D+04
 NORM(A)=   0.11348488D+01
 Iteration Nr.   2
 **********************
 DD1Dir will call FoFMem   1 times, MxPair=       156
 NAB=    78 NAA=     0 NBB=     0.
 DE(Z)  -0.77482602D+00          E(Z)=    -0.10325775669D+04
 NORM(A)=   0.11347763D+01
 Iteration Nr.   3
 **********************
 DD1Dir will call FoFMem   1 times, MxPair=       156
 NAB=    78 NAA=     0 NBB=     0.
 DE(Z)  -0.77482372D+00          E(Z)=    -0.10325775646D+04
 NORM(A)=   0.11346027D+01
 Iteration Nr.   4
 **********************
 DD1Dir will call FoFMem   1 times, MxPair=       156
 NAB=    78 NAA=     0 NBB=     0.
 DE(Z)  -0.77481812D+00          E(Z)=    -0.10325775590D+04
 NORM(A)=   0.11346858D+01
 Iteration Nr.   5
 **********************
 DD1Dir will call FoFMem   1 times, MxPair=       156
 NAB=    78 NAA=     0 NBB=     0.
 DE(Z)  -0.77482074D+00          E(Z)=    -0.10325775616D+04
 NORM(A)=   0.11251224D+01
 Iteration Nr.   6
 **********************
 DD1Dir will call FoFMem   1 times, MxPair=       156
 NAB=    78 NAA=     0 NBB=     0.
 DE(Z)  -0.77451345D+00          E(Z)=    -0.10325772543D+04
 NORM(A)=   0.11251592D+01
 Iteration Nr.   7
 **********************
 DD1Dir will call FoFMem   1 times, MxPair=       156
 NAB=    78 NAA=     0 NBB=     0.
 DE(Z)  -0.77449757D+00          E(Z)=    -0.10325772384D+04
 NORM(A)=   0.11251379D+01
 Iteration Nr.   8
 **********************
 DD1Dir will call FoFMem   1 times, MxPair=       156
 NAB=    78 NAA=     0 NBB=     0.
 DE(Z)  -0.77450593D+00          E(Z)=    -0.10325772468D+04
 NORM(A)=   0.11251384D+01
 Iteration Nr.   9
 **********************
 DD1Dir will call FoFMem   1 times, MxPair=       156
 NAB=    78 NAA=     0 NBB=     0.
 DE(Z)  -0.77450694D+00          E(Z)=    -0.10325772478D+04
 NORM(A)=   0.11251383D+01
 Iteration Nr.  10
 **********************
 DD1Dir will call FoFMem   1 times, MxPair=       156
 NAB=    78 NAA=     0 NBB=     0.
 DE(Z)  -0.77450647D+00          E(Z)=    -0.10325772473D+04
 NORM(A)=   0.11251382D+01
 Iteration Nr.  11
 **********************
 DD1Dir will call FoFMem   1 times, MxPair=       156
 NAB=    78 NAA=     0 NBB=     0.
 DE(Z)  -0.77450658D+00          E(Z)=    -0.10325772475D+04
 NORM(A)=   0.11251382D+01
 Iteration Nr.  12
 **********************
 DD1Dir will call FoFMem   1 times, MxPair=       156
 NAB=    78 NAA=     0 NBB=     0.
 DE(Z)  -0.77450652D+00          E(Z)=    -0.10325772474D+04
 NORM(A)=   0.11251382D+01
 Iteration Nr.  13
 **********************
 DD1Dir will call FoFMem   1 times, MxPair=       156
 NAB=    78 NAA=     0 NBB=     0.
 DE(Z)  -0.77450652D+00          E(Z)=    -0.10325772474D+04
 NORM(A)=   0.11251382D+01
 Iteration Nr.  14
 **********************
 DD1Dir will call FoFMem   1 times, MxPair=       156
 NAB=    78 NAA=     0 NBB=     0.
 DE(Z)  -0.77450653D+00          E(Z)=    -0.10325772474D+04
 NORM(A)=   0.11251382D+01
 Discarding MO integrals.
          Differentiating once with respect to electric field.
                with respect to dipole field.
          Electric field/nuclear overlap derivatives assumed to be zero.
          Keep R1 ints in memory in canonical form, NReq=342715808.
          There are     1 degrees of freedom in the 1st order CPHF.  IDoFFX=0.
 LinEq1:  Iter=  0 NonCon=     1 RMS=2.34D-03 Max=5.60D-02
 AX will form     1 AO Fock derivatives at one time.
 LinEq1:  Iter=  1 NonCon=     1 RMS=8.29D-04 Max=1.86D-02
 LinEq1:  Iter=  2 NonCon=     1 RMS=3.10D-04 Max=5.63D-03
 LinEq1:  Iter=  3 NonCon=     1 RMS=1.28D-04 Max=3.30D-03
 LinEq1:  Iter=  4 NonCon=     1 RMS=5.11D-05 Max=1.23D-03
 LinEq1:  Iter=  5 NonCon=     1 RMS=1.65D-05 Max=3.62D-04
 LinEq1:  Iter=  6 NonCon=     1 RMS=4.17D-06 Max=5.72D-05
 LinEq1:  Iter=  7 NonCon=     1 RMS=9.92D-07 Max=1.16D-05
 LinEq1:  Iter=  8 NonCon=     1 RMS=2.10D-07 Max=3.15D-06
 LinEq1:  Iter=  9 NonCon=     1 RMS=4.75D-08 Max=8.05D-07
 LinEq1:  Iter= 10 NonCon=     1 RMS=1.20D-08 Max=2.23D-07
 LinEq1:  Iter= 11 NonCon=     1 RMS=2.52D-09 Max=3.83D-08
 LinEq1:  Iter= 12 NonCon=     1 RMS=4.62D-10 Max=1.16D-08
 LinEq1:  Iter= 13 NonCon=     1 RMS=7.82D-11 Max=1.20D-09
 LinEq1:  Iter= 14 NonCon=     0 RMS=1.14D-11 Max=1.28D-10
 Linear equations converged to 1.000D-10 1.000D-09 after    14 iterations.
 End of Minotr Frequency-dependent properties file   721 does not exist.
 End of Minotr Frequency-dependent properties file   722 does not exist.

 **********************************************************************

            Population analysis using the QCI/CC density.

 **********************************************************************

     Natural Orbital Coefficients:
                           1         2         3         4         5
     Eigenvalues --     2.00004   2.00004   2.00003   2.00003   2.00003
   1 1   O  1S          0.00000   0.01082   0.00000  -0.00011   0.00001
   2        2S          0.00000  -0.00025   0.00000   0.00001   0.00000
   3        3S          0.00000   0.00050   0.00000   0.00000   0.00000
   4        4S          0.00000   0.00084   0.00000   0.00001   0.00000
   5        5S          0.00000   0.00297   0.00000   0.00000   0.00000
   6        6PX         0.00000   0.00000   0.00000  -0.00106   0.00000
   7        6PY        -0.00018   0.00000   0.00000   0.00000   0.00026
   8        6PZ         0.00000   0.00032   0.00000   0.00000   0.00000
   9        7PX         0.00000   0.00000   0.00000  -0.00158   0.00000
  10        7PY        -0.00100   0.00000   0.00000  -0.00001   0.00049
  11        7PZ         0.00000   0.00062   0.00000   0.00000   0.00000
  12        8PX         0.00001   0.00002   0.00000  -0.00150  -0.00001
  13        8PY        -0.00366   0.00000   0.00004  -0.00001   0.00155
  14        8PZ         0.00000   0.00239   0.00000   0.00000   0.00000
  15        9PX         0.00000   0.00001   0.00000   0.00034   0.00000
  16        9PY        -0.00047   0.00000   0.00002   0.00000   0.00117
  17        9PZ         0.00000   0.00025   0.00000   0.00000   0.00000
  18       10D 0        0.00000   0.00001   0.00000   0.00000   0.00000
  19       10D+1        0.00000   0.00000   0.00000  -0.00003   0.00000
  20       10D-1       -0.00002   0.00000   0.00000   0.00000   0.00003
  21       10D+2        0.00000   0.00003   0.00000   0.00000   0.00000
  22       10D-2        0.00000   0.00000   0.00001   0.00000   0.00000
  23       11D 0        0.00000  -0.00022   0.00000   0.00000   0.00000
  24       11D+1        0.00000   0.00000   0.00000   0.00013   0.00000
  25       11D-1       -0.00005   0.00000   0.00000   0.00000  -0.00009
  26       11D+2        0.00000  -0.00024   0.00000   0.00000   0.00000
  27       11D-2        0.00000   0.00000   0.00003   0.00000   0.00000
  28       12D 0        0.00000  -0.00072   0.00000   0.00001   0.00000
  29       12D+1        0.00000   0.00000   0.00000   0.00014   0.00000
  30       12D-1        0.00058   0.00000  -0.00001   0.00000  -0.00028
  31       12D+2        0.00000   0.00019   0.00001   0.00001   0.00000
  32       12D-2       -0.00001   0.00000  -0.00083   0.00000   0.00000
  33       13F 0        0.00000   0.00001   0.00000   0.00000   0.00000
  34       13F+1        0.00000   0.00000   0.00000   0.00002   0.00000
  35       13F-1        0.00003   0.00000   0.00000   0.00000  -0.00002
  36       13F+2        0.00000   0.00000   0.00000   0.00000   0.00000
  37       13F-2        0.00000   0.00000  -0.00006   0.00000   0.00000
  38       13F+3        0.00000   0.00000   0.00000   0.00004   0.00000
  39       13F-3        0.00004   0.00000   0.00000   0.00000   0.00000
  40       14F 0        0.00000   0.00011   0.00000   0.00000   0.00000
  41       14F+1        0.00000   0.00000   0.00000  -0.00008   0.00000
  42       14F-1        0.00031   0.00000   0.00000   0.00000   0.00003
  43       14F+2        0.00000   0.00014   0.00000   0.00000   0.00000
  44       14F-2        0.00000   0.00000   0.00020   0.00000   0.00000
  45       14F+3        0.00000   0.00000   0.00000  -0.00017   0.00000
  46       14F-3       -0.00019   0.00000   0.00000   0.00000   0.00004
  47 2   C  1S          0.00000  -0.01164   0.00000   0.00040  -0.00013
  48        2S          0.00000   0.00143   0.00000  -0.00001   0.00000
  49        3S          0.00000  -0.00016   0.00000   0.00001   0.00000
  50        4S          0.00000  -0.00008   0.00000   0.00000  -0.00001
  51        5S          0.00000   0.00125   0.00000   0.00002   0.00000
  52        6PX         0.00000   0.00000   0.00000   0.00169   0.00000
  53        6PY         0.00051   0.00000   0.00000   0.00001  -0.00071
  54        6PZ         0.00000   0.00045   0.00000   0.00000   0.00000
  55        7PX         0.00000   0.00000   0.00000   0.00197   0.00000
  56        7PY         0.00034   0.00000   0.00000   0.00001   0.00016
  57        7PZ         0.00000   0.00193   0.00000   0.00000   0.00000
  58        8PX         0.00000  -0.00001   0.00000   0.00087  -0.00001
  59        8PY         0.00071   0.00000  -0.00005   0.00000   0.00248
  60        8PZ         0.00000  -0.00201   0.00000   0.00002   0.00000
  61        9PX         0.00000   0.00000   0.00000  -0.00072   0.00000
  62        9PY        -0.00040   0.00000  -0.00002   0.00000  -0.00112
  63        9PZ         0.00000  -0.00099   0.00000   0.00000   0.00000
  64       10D 0        0.00000  -0.00032   0.00000   0.00000   0.00000
  65       10D+1        0.00000   0.00000   0.00000  -0.00031   0.00000
  66       10D-1        0.00005   0.00000   0.00000   0.00000  -0.00002
  67       10D+2        0.00000  -0.00022   0.00000   0.00000   0.00000
  68       10D-2        0.00000   0.00000   0.00036   0.00000   0.00000
  69       11D 0        0.00000   0.00038   0.00000  -0.00001   0.00000
  70       11D+1        0.00000  -0.00001   0.00000   0.00024   0.00001
  71       11D-1        0.00019   0.00000  -0.00001   0.00000  -0.00153
  72       11D+2        0.00000   0.00065   0.00000   0.00000   0.00000
  73       11D-2        0.00000   0.00000  -0.00012   0.00000  -0.00001
  74       12D 0        0.00000  -0.00394   0.00000  -0.00002   0.00000
  75       12D+1        0.00000  -0.00001   0.00000  -0.00082   0.00001
  76       12D-1        0.00108   0.00000  -0.00002   0.00000  -0.00226
  77       12D+2        0.00000  -0.00228  -0.00001  -0.00002   0.00000
  78       12D-2        0.00000  -0.00002   0.00143   0.00000  -0.00001
  79       13F 0        0.00000   0.00017   0.00000   0.00000   0.00000
  80       13F+1        0.00000   0.00000   0.00000   0.00006   0.00000
  81       13F-1       -0.00041   0.00000   0.00000   0.00000   0.00002
  82       13F+2        0.00000   0.00002   0.00000   0.00000   0.00000
  83       13F-2        0.00000   0.00000  -0.00011   0.00000   0.00000
  84       13F+3        0.00000   0.00000   0.00000  -0.00009   0.00000
  85       13F-3       -0.00009   0.00000   0.00000   0.00000   0.00000
  86       14F 0        0.00000  -0.00090   0.00000  -0.00001   0.00000
  87       14F+1       -0.00001  -0.00001   0.00000   0.00011   0.00000
  88       14F-1        0.00402   0.00000  -0.00001   0.00000  -0.00044
  89       14F+2        0.00000  -0.00005  -0.00001  -0.00001   0.00000
  90       14F-2        0.00001   0.00000   0.00120   0.00000   0.00000
  91       14F+3       -0.00001   0.00000   0.00000   0.00061   0.00000
  92       14F-3        0.00119   0.00000   0.00001   0.00001  -0.00042
  93 3   Cl 1S         -0.00044  -0.00240  -0.00009   0.00031  -0.17376
  94        2S          0.00184   0.00846   0.00030  -0.00104   0.58656
  95        3S          0.00041   0.00014  -0.00001   0.00004  -0.01737
  96        4S          0.00012   0.00047   0.00002  -0.00008   0.04548
  97        5S         -0.00055  -0.00105   0.00000   0.00000  -0.00098
  98        6S         -0.00067  -0.00196  -0.00003  -0.00001  -0.00161
  99        7PX         0.00212  -0.00180   0.69251  -0.69202  -0.00092
 100        7PY        -0.39325   0.34591   0.00019   0.00032  -0.30927
 101        7PZ         0.57077  -0.60000  -0.00245   0.00224  -0.21467
 102        8PX        -0.00005   0.00004  -0.01495   0.01340   0.00002
 103        8PY         0.00990  -0.00733   0.00000   0.00000   0.00601
 104        8PZ        -0.01393   0.01387   0.00006  -0.00004   0.00434
 105        9PX         0.00011  -0.00009   0.03665  -0.03712  -0.00005
 106        9PY        -0.02044   0.01802   0.00001   0.00002  -0.01758
 107        9PZ         0.02982  -0.03146  -0.00013   0.00012  -0.01223
 108       10PX        -0.00002   0.00000  -0.00381   0.00332   0.00001
 109       10PY         0.00309  -0.00150   0.00000   0.00001   0.00170
 110       10PZ        -0.00500   0.00198   0.00000  -0.00003   0.00133
 111       11PX         0.00000   0.00000  -0.00056   0.00081   0.00000
 112       11PY         0.00040  -0.00043   0.00000   0.00000   0.00015
 113       11PZ        -0.00064   0.00026   0.00000   0.00000  -0.00009
 114       12D 0        0.00043  -0.00025   0.00000   0.00000  -0.00005
 115       12D+1        0.00000   0.00000   0.00017  -0.00015   0.00000
 116       12D-1        0.00022  -0.00013   0.00000   0.00000   0.00013
 117       12D+2        0.00024  -0.00013   0.00000   0.00000  -0.00005
 118       12D-2        0.00000   0.00000   0.00029  -0.00015   0.00000
 119       13D 0       -0.00193   0.00106   0.00000   0.00000   0.00023
 120       13D+1       -0.00001   0.00000  -0.00072   0.00060   0.00000
 121       13D-1       -0.00080   0.00102   0.00001   0.00000   0.00064
 122       13D+2       -0.00085   0.00063   0.00000   0.00000  -0.00039
 123       13D-2        0.00000   0.00000  -0.00107   0.00097   0.00000
 124       14D 0       -0.00006  -0.00076  -0.00001  -0.00001  -0.00005
 125       14D+1        0.00000  -0.00001   0.00043   0.00005   0.00000
 126       14D-1       -0.00006  -0.00020   0.00000   0.00000   0.00028
 127       14D+2        0.00008  -0.00045   0.00000   0.00000   0.00014
 128       14D-2        0.00000   0.00000   0.00025  -0.00010   0.00000
 129       15F 0        0.00000   0.00001   0.00000   0.00000   0.00002
 130       15F+1        0.00000   0.00000  -0.00007  -0.00004   0.00000
 131       15F-1        0.00001   0.00003   0.00000   0.00000   0.00002
 132       15F+2        0.00003   0.00002   0.00000   0.00000  -0.00001
 133       15F-2        0.00000   0.00000   0.00000  -0.00001   0.00000
 134       15F+3        0.00000   0.00000  -0.00001  -0.00001   0.00000
 135       15F-3        0.00002   0.00004   0.00000   0.00000  -0.00001
 136       16F 0       -0.00039  -0.00013   0.00000   0.00000  -0.00014
 137       16F+1        0.00000   0.00000   0.00014   0.00016   0.00000
 138       16F-1       -0.00090   0.00050   0.00000   0.00000   0.00016
 139       16F+2       -0.00006  -0.00029   0.00000   0.00000  -0.00022
 140       16F-2        0.00000   0.00000  -0.00036   0.00033   0.00000
 141       16F+3        0.00000   0.00000   0.00032  -0.00028   0.00000
 142       16F-3       -0.00019   0.00018   0.00000   0.00000  -0.00006
 143 4   Cl 1S          0.00044  -0.00239   0.00009   0.00031   0.17345
 144        2S         -0.00184   0.00846  -0.00030  -0.00104  -0.58552
 145        3S         -0.00041   0.00014   0.00001   0.00004   0.01734
 146        4S         -0.00012   0.00047  -0.00002  -0.00008  -0.04540
 147        5S          0.00055  -0.00104   0.00000   0.00000   0.00098
 148        6S          0.00067  -0.00196   0.00003  -0.00001   0.00161
 149        7PX         0.00059   0.00059  -0.69249  -0.69201   0.00305
 150        7PY        -0.39313  -0.34605  -0.00460  -0.00510  -0.30871
 151        7PZ        -0.57057  -0.60020   0.00245   0.00224   0.21437
 152        8PX        -0.00001  -0.00001   0.01495   0.01340  -0.00006
 153        8PY         0.00989   0.00733   0.00010   0.00010   0.00600
 154        8PZ         0.01393   0.01388  -0.00006  -0.00004  -0.00434
 155        9PX         0.00003   0.00003  -0.03665  -0.03712   0.00017
 156        9PY        -0.02043  -0.01803  -0.00025  -0.00028  -0.01755
 157        9PZ        -0.02981  -0.03147   0.00013   0.00012   0.01221
 158       10PX         0.00000  -0.00001   0.00381   0.00332  -0.00002
 159       10PY         0.00309   0.00150   0.00002   0.00001   0.00170
 160       10PZ         0.00500   0.00198   0.00000  -0.00003  -0.00133
 161       11PX         0.00000   0.00000   0.00056   0.00081   0.00000
 162       11PY         0.00040   0.00043   0.00001   0.00000   0.00015
 163       11PZ         0.00064   0.00026   0.00000   0.00000   0.00009
 164       12D 0       -0.00043  -0.00025   0.00000   0.00000   0.00005
 165       12D+1        0.00000   0.00000  -0.00017  -0.00015   0.00000
 166       12D-1        0.00022   0.00013   0.00000   0.00000   0.00013
 167       12D+2       -0.00024  -0.00013   0.00000   0.00000   0.00005
 168       12D-2        0.00000   0.00000   0.00029   0.00015   0.00000
 169       13D 0        0.00193   0.00106   0.00000   0.00000  -0.00023
 170       13D+1        0.00001   0.00001   0.00072   0.00060  -0.00001
 171       13D-1       -0.00080  -0.00102   0.00001   0.00001   0.00064
 172       13D+2        0.00085   0.00063   0.00002   0.00001   0.00039
 173       13D-2        0.00001   0.00000  -0.00107  -0.00097   0.00001
 174       14D 0        0.00006  -0.00076   0.00001  -0.00001   0.00005
 175       14D+1        0.00000  -0.00001  -0.00043   0.00005   0.00000
 176       14D-1       -0.00006   0.00020  -0.00001   0.00000   0.00028
 177       14D+2       -0.00008  -0.00045   0.00000   0.00000  -0.00014
 178       14D-2        0.00000   0.00000   0.00025   0.00010   0.00000
 179       15F 0        0.00000   0.00001   0.00000   0.00000  -0.00002
 180       15F+1        0.00000   0.00000   0.00007  -0.00004   0.00000
 181       15F-1        0.00001  -0.00003   0.00000   0.00000   0.00002
 182       15F+2       -0.00003   0.00002   0.00000   0.00000   0.00001
 183       15F-2        0.00000   0.00000   0.00000   0.00001   0.00000
 184       15F+3        0.00000   0.00000   0.00001  -0.00001   0.00000
 185       15F-3        0.00002  -0.00004   0.00000   0.00000  -0.00001
 186       16F 0        0.00039  -0.00013   0.00000   0.00000   0.00014
 187       16F+1        0.00001   0.00000  -0.00014   0.00016   0.00000
 188       16F-1       -0.00090  -0.00050   0.00000   0.00000   0.00016
 189       16F+2        0.00006  -0.00029   0.00001   0.00001   0.00022
 190       16F-2        0.00000   0.00000  -0.00036  -0.00033   0.00000
 191       16F+3        0.00000   0.00000  -0.00032  -0.00028   0.00000
 192       16F-3       -0.00019  -0.00018  -0.00001  -0.00001  -0.00006
                           6         7         8         9        10
     Eigenvalues --     2.00003   2.00001   2.00001   2.00001   2.00000
   1 1   O  1S          0.01415  -0.00048  -0.25889   0.88076   0.34102
   2        2S         -0.00043   0.00001   0.00566  -0.01618  -0.00557
   3        3S          0.00056  -0.00002  -0.01081   0.03746   0.01491
   4        4S          0.00066   0.00000   0.00047  -0.00328  -0.00109
   5        5S          0.00031   0.00000  -0.00181  -0.00099  -0.00167
   6        6PX         0.00000   0.00000   0.00000   0.00000   0.00000
   7        6PY         0.00000  -0.00079   0.00000   0.00000   0.00000
   8        6PZ        -0.00009   0.00000   0.00177  -0.00374   0.00045
   9        7PX        -0.00001   0.00000   0.00000   0.00000   0.00000
  10        7PY         0.00000  -0.00135   0.00000   0.00000   0.00000
  11        7PZ        -0.00022   0.00000   0.00129  -0.00077   0.00313
  12        8PX         0.00000   0.00001   0.00000   0.00000   0.00001
  13        8PY         0.00000  -0.00415   0.00001   0.00000   0.00000
  14        8PZ        -0.00078   0.00000   0.00206  -0.00260   0.00278
  15        9PX         0.00001   0.00001  -0.00001  -0.00001   0.00001
  16        9PY         0.00000  -0.00154   0.00000   0.00000   0.00000
  17        9PZ         0.00017   0.00000   0.00028  -0.00032   0.00086
  18       10D 0        0.00002   0.00000  -0.00010   0.00021   0.00002
  19       10D+1        0.00000   0.00000   0.00000   0.00000   0.00000
  20       10D-1        0.00000  -0.00004   0.00000   0.00000   0.00000
  21       10D+2        0.00000   0.00000   0.00000  -0.00007   0.00000
  22       10D-2        0.00000   0.00000   0.00000   0.00000   0.00000
  23       11D 0        0.00008   0.00000  -0.00009  -0.00036  -0.00104
  24       11D+1        0.00000   0.00000   0.00000   0.00000   0.00000
  25       11D-1        0.00000   0.00011   0.00000   0.00000   0.00000
  26       11D+2       -0.00002   0.00000   0.00017  -0.00004  -0.00012
  27       11D-2        0.00000   0.00000   0.00000   0.00000   0.00000
  28       12D 0        0.00007   0.00000  -0.00003   0.00074  -0.00096
  29       12D+1        0.00000   0.00000   0.00000   0.00000  -0.00001
  30       12D-1        0.00000   0.00105   0.00000   0.00000   0.00000
  31       12D+2       -0.00022   0.00000   0.00062   0.00016  -0.00003
  32       12D-2        0.00000  -0.00001   0.00000   0.00000   0.00000
  33       13F 0        0.00001   0.00000  -0.00009   0.00006  -0.00013
  34       13F+1        0.00000   0.00000   0.00000   0.00000   0.00000
  35       13F-1        0.00000   0.00006   0.00000   0.00000   0.00000
  36       13F+2       -0.00001   0.00000   0.00002  -0.00002  -0.00002
  37       13F-2        0.00000   0.00000   0.00000   0.00000   0.00000
  38       13F+3        0.00000   0.00000   0.00000   0.00000   0.00000
  39       13F-3        0.00000   0.00000   0.00000   0.00000   0.00000
  40       14F 0        0.00006   0.00000  -0.00014  -0.00007   0.00053
  41       14F+1        0.00000   0.00000   0.00000   0.00000   0.00000
  42       14F-1        0.00000  -0.00004   0.00000   0.00000   0.00000
  43       14F+2        0.00009   0.00000  -0.00029  -0.00010   0.00018
  44       14F-2        0.00000   0.00000   0.00000   0.00000   0.00000
  45       14F+3        0.00000   0.00000   0.00000   0.00000   0.00000
  46       14F-3        0.00000  -0.00007   0.00000   0.00000   0.00000
  47 2   C  1S         -0.14558   0.00117   0.61539  -0.10437   0.74242
  48        2S          0.00292  -0.00002  -0.01071   0.00089  -0.00666
  49        3S         -0.00533   0.00005   0.02398  -0.00507   0.03219
  50        4S         -0.00632   0.00001   0.00580   0.00573  -0.01223
  51        5S         -0.00041   0.00000   0.00251   0.00149  -0.00228
  52        6PX         0.00000  -0.00001   0.00000   0.00000   0.00000
  53        6PY         0.00000   0.00245   0.00000   0.00000   0.00000
  54        6PZ        -0.00038   0.00000   0.00061   0.00096  -0.00197
  55        7PX         0.00001   0.00000   0.00000   0.00000   0.00001
  56        7PY         0.00000  -0.00036   0.00000   0.00000   0.00000
  57        7PZ        -0.00071   0.00000   0.00134   0.00086   0.00501
  58        8PX         0.00002   0.00000  -0.00002  -0.00001   0.00002
  59        8PY         0.00000  -0.00009   0.00000   0.00000   0.00000
  60        8PZ         0.00244   0.00000  -0.00172  -0.00103   0.00412
  61        9PX        -0.00001   0.00000   0.00001   0.00000   0.00000
  62        9PY         0.00000   0.00141   0.00000   0.00000   0.00000
  63        9PZ        -0.00028   0.00000  -0.00012   0.00017   0.00017
  64       10D 0       -0.00007   0.00000   0.00025   0.00008   0.00070
  65       10D+1        0.00000   0.00000   0.00000   0.00000   0.00000
  66       10D-1        0.00000  -0.00012   0.00000   0.00000   0.00000
  67       10D+2        0.00007   0.00000  -0.00012   0.00003  -0.00016
  68       10D-2        0.00000   0.00000   0.00000   0.00000   0.00000
  69       11D 0       -0.00023   0.00000   0.00001   0.00093   0.00102
  70       11D+1       -0.00001  -0.00001   0.00000   0.00001  -0.00002
  71       11D-1        0.00000   0.00275  -0.00001   0.00000   0.00000
  72       11D+2        0.00090   0.00000  -0.00056  -0.00112   0.00329
  73       11D-2        0.00001   0.00001   0.00000  -0.00001   0.00002
  74       12D 0       -0.00013   0.00000   0.00044  -0.00006  -0.00066
  75       12D+1       -0.00001  -0.00001   0.00001   0.00001  -0.00001
  76       12D-1        0.00000   0.00258   0.00000   0.00000   0.00000
  77       12D+2        0.00078   0.00000  -0.00106  -0.00085   0.00113
  78       12D-2        0.00001   0.00001  -0.00001  -0.00001   0.00001
  79       13F 0       -0.00015   0.00000   0.00029  -0.00014   0.00038
  80       13F+1        0.00000   0.00000   0.00000   0.00000   0.00000
  81       13F-1        0.00000  -0.00007   0.00000   0.00000   0.00000
  82       13F+2       -0.00002   0.00000  -0.00010  -0.00007  -0.00008
  83       13F-2        0.00000   0.00000   0.00000   0.00000   0.00000
  84       13F+3        0.00000   0.00000   0.00000   0.00000   0.00000
  85       13F-3        0.00000  -0.00003   0.00000   0.00000   0.00000
  86       14F 0        0.00022   0.00000  -0.00108   0.00088  -0.00090
  87       14F+1        0.00000  -0.00001  -0.00001   0.00000   0.00000
  88       14F-1        0.00000   0.00154   0.00000   0.00000   0.00000
  89       14F+2       -0.00006   0.00000  -0.00060   0.00035  -0.00098
  90       14F-2        0.00000   0.00001   0.00000   0.00000  -0.00001
  91       14F+3        0.00000  -0.00001   0.00000   0.00000  -0.00001
  92       14F-3        0.00000   0.00079   0.00000   0.00000   0.00000
  93 3   Cl 1S         -0.17712  -0.11165  -0.09116  -0.03786   0.03577
  94        2S          0.59752   0.37876   0.31112   0.12915  -0.12209
  95        3S         -0.01782  -0.00664  -0.00469  -0.00157   0.00080
  96        4S          0.04650   0.03151   0.02537   0.01088  -0.01094
  97        5S         -0.00188  -0.00640  -0.00430  -0.00354   0.00810
  98        6S         -0.00021   0.00279  -0.00090  -0.00077   0.00224
  99        7PX        -0.00159   0.00087   0.00053   0.00026  -0.00037
 100        7PY        -0.29980   0.47706   0.34736   0.22257  -0.30880
 101        7PZ        -0.16324   0.32747   0.19609   0.13901  -0.18369
 102        8PX         0.00003  -0.00001   0.00000   0.00000   0.00000
 103        8PY         0.00528  -0.00843  -0.00515  -0.00336   0.00516
 104        8PZ         0.00285  -0.00624  -0.00294  -0.00216   0.00363
 105        9PX        -0.00009   0.00005   0.00003   0.00002  -0.00002
 106        9PY        -0.01706   0.02911   0.02116   0.01385  -0.01980
 107        9PZ        -0.00934   0.02015   0.01197   0.00866  -0.01194
 108       10PX         0.00000   0.00000   0.00000   0.00000   0.00000
 109       10PY         0.00225  -0.00007  -0.00107  -0.00094   0.00308
 110       10PZ         0.00119  -0.00053  -0.00041  -0.00098   0.00219
 111       11PX         0.00000   0.00000   0.00000   0.00000   0.00000
 112       11PY         0.00003   0.00010  -0.00006  -0.00005   0.00020
 113       11PZ         0.00012   0.00026  -0.00004  -0.00016   0.00019
 114       12D 0       -0.00005   0.00001   0.00000   0.00002   0.00000
 115       12D+1        0.00000   0.00000   0.00000   0.00000   0.00000
 116       12D-1        0.00017   0.00042   0.00025   0.00024  -0.00035
 117       12D+2       -0.00009  -0.00032  -0.00023  -0.00014   0.00022
 118       12D-2        0.00000   0.00000   0.00000   0.00000   0.00000
 119       13D 0       -0.00007  -0.00047   0.00011   0.00008   0.00006
 120       13D+1        0.00000   0.00000   0.00000   0.00000   0.00000
 121       13D-1        0.00038  -0.00224  -0.00088  -0.00090   0.00211
 122       13D+2       -0.00047   0.00122   0.00105   0.00065  -0.00132
 123       13D-2        0.00000   0.00000   0.00000   0.00000   0.00000
 124       14D 0       -0.00008  -0.00010   0.00005  -0.00008   0.00008
 125       14D+1        0.00000   0.00000   0.00000   0.00000   0.00000
 126       14D-1        0.00030   0.00014   0.00026  -0.00015   0.00065
 127       14D+2       -0.00034  -0.00068   0.00002   0.00007  -0.00052
 128       14D-2        0.00000   0.00000   0.00000   0.00000   0.00000
 129       15F 0        0.00000  -0.00001   0.00003  -0.00002   0.00002
 130       15F+1        0.00000   0.00000   0.00000   0.00000   0.00000
 131       15F-1        0.00000  -0.00007  -0.00001   0.00004  -0.00002
 132       15F+2        0.00000   0.00004   0.00003  -0.00004  -0.00001
 133       15F-2        0.00000   0.00000   0.00000   0.00000   0.00000
 134       15F+3        0.00000   0.00000   0.00000   0.00000   0.00000
 135       15F-3       -0.00003   0.00002   0.00007   0.00003  -0.00005
 136       16F 0       -0.00004   0.00029  -0.00007   0.00014  -0.00034
 137       16F+1        0.00000   0.00000   0.00000   0.00000   0.00000
 138       16F-1        0.00001  -0.00047   0.00000  -0.00013   0.00038
 139       16F+2       -0.00016   0.00059   0.00018   0.00029  -0.00060
 140       16F-2        0.00000   0.00000   0.00000   0.00000   0.00000
 141       16F+3        0.00000   0.00000   0.00000   0.00000   0.00000
 142       16F-3       -0.00011   0.00017   0.00021   0.00008  -0.00024
 143 4   Cl 1S         -0.17743   0.11130  -0.09159  -0.03786   0.03577
 144        2S          0.59856  -0.37756   0.31255   0.12915  -0.12209
 145        3S         -0.01785   0.00663  -0.00471  -0.00157   0.00080
 146        4S          0.04658  -0.03142   0.02549   0.01088  -0.01094
 147        5S         -0.00188   0.00639  -0.00433  -0.00354   0.00810
 148        6S         -0.00021  -0.00280  -0.00089  -0.00077   0.00224
 149        7PX        -0.00367  -0.00415   0.00295   0.00180  -0.00250
 150        7PY         0.30032   0.47573  -0.34917  -0.22258   0.30879
 151        7PZ        -0.16361  -0.32672   0.19734   0.13902  -0.18369
 152        8PX         0.00006   0.00007  -0.00004  -0.00003   0.00004
 153        8PY        -0.00529  -0.00841   0.00518   0.00337  -0.00516
 154        8PZ         0.00286   0.00623  -0.00296  -0.00216   0.00363
 155        9PX        -0.00021  -0.00025   0.00018   0.00011  -0.00016
 156        9PY         0.01709   0.02903  -0.02127  -0.01385   0.01979
 157        9PZ        -0.00936  -0.02010   0.01205   0.00866  -0.01194
 158       10PX         0.00002   0.00001   0.00000   0.00000   0.00002
 159       10PY        -0.00225  -0.00007   0.00107   0.00094  -0.00308
 160       10PZ         0.00119   0.00053  -0.00041  -0.00097   0.00219
 161       11PX         0.00000   0.00000   0.00000   0.00000   0.00000
 162       11PY        -0.00003   0.00010   0.00006   0.00005  -0.00020
 163       11PZ         0.00012  -0.00026  -0.00004  -0.00016   0.00019
 164       12D 0       -0.00005  -0.00001   0.00000   0.00002   0.00000
 165       12D+1        0.00000   0.00000   0.00000   0.00000   0.00000
 166       12D-1       -0.00017   0.00042  -0.00025  -0.00024   0.00035
 167       12D+2       -0.00009   0.00032  -0.00023  -0.00014   0.00022
 168       12D-2        0.00000   0.00000   0.00000   0.00000   0.00000
 169       13D 0       -0.00007   0.00047   0.00011   0.00008   0.00006
 170       13D+1        0.00000   0.00002  -0.00001  -0.00001   0.00001
 171       13D-1       -0.00038  -0.00224   0.00089   0.00090  -0.00211
 172       13D+2       -0.00047  -0.00121   0.00105   0.00065  -0.00132
 173       13D-2       -0.00001  -0.00002   0.00001   0.00001  -0.00002
 174       14D 0       -0.00008   0.00010   0.00005  -0.00008   0.00008
 175       14D+1        0.00000   0.00000   0.00000   0.00000   0.00000
 176       14D-1       -0.00030   0.00013  -0.00026   0.00015  -0.00065
 177       14D+2       -0.00034   0.00068   0.00002   0.00007  -0.00052
 178       14D-2        0.00000   0.00001   0.00000   0.00000  -0.00001
 179       15F 0        0.00000   0.00001   0.00003  -0.00002   0.00002
 180       15F+1        0.00000   0.00000   0.00000   0.00000   0.00000
 181       15F-1        0.00000  -0.00007   0.00001  -0.00004   0.00002
 182       15F+2        0.00000  -0.00004   0.00003  -0.00004  -0.00001
 183       15F-2        0.00000   0.00000   0.00000   0.00000   0.00000
 184       15F+3        0.00000   0.00000   0.00000   0.00000   0.00000
 185       15F-3        0.00003   0.00002  -0.00007  -0.00003   0.00005
 186       16F 0       -0.00004  -0.00029  -0.00006   0.00014  -0.00034
 187       16F+1        0.00000   0.00000   0.00000   0.00000   0.00000
 188       16F-1       -0.00001  -0.00047   0.00000   0.00013  -0.00038
 189       16F+2       -0.00017  -0.00059   0.00018   0.00029  -0.00060
 190       16F-2        0.00000  -0.00001   0.00000   0.00000  -0.00001
 191       16F+3        0.00000  -0.00001   0.00000   0.00000  -0.00001
 192       16F-3        0.00011   0.00017  -0.00021  -0.00008   0.00024
                          11        12        13        14        15
     Eigenvalues --     2.00000   2.00000   1.98120   1.97616   1.97460
   1 1   O  1S          0.00003   0.00000  -0.18606  -0.06286   0.00000
   2        2S          0.00001   0.00000   0.48174   0.17007  -0.00001
   3        3S          0.00000   0.00000   0.13549   0.04886   0.00000
   4        4S          0.00003   0.00000   0.29381   0.13439   0.00000
   5        5S          0.00004   0.00000   0.01959   0.02324   0.00000
   6        6PX         0.00000   0.00000  -0.00002   0.00005  -0.00015
   7        6PY         0.00000   0.00000   0.00000   0.00000   0.04396
   8        6PZ         0.00000   0.00000  -0.00873   0.02885   0.00000
   9        7PX         0.00000   0.00000  -0.00003   0.00006  -0.00019
  10        7PY         0.00000   0.00001   0.00000   0.00000   0.05471
  11        7PZ         0.00000   0.00000  -0.01519   0.03064   0.00000
  12        8PX         0.00000   0.00000   0.00002   0.00003  -0.00014
  13        8PY         0.00000   0.00006   0.00000   0.00000   0.04004
  14        8PZ         0.00003   0.00000   0.04929   0.02589   0.00000
  15        9PX         0.00000   0.00000   0.00003  -0.00003   0.00000
  16        9PY         0.00000   0.00001   0.00000   0.00000   0.00091
  17        9PZ         0.00000   0.00000   0.01375  -0.00042   0.00000
  18       10D 0        0.00000   0.00000   0.00496   0.00003   0.00000
  19       10D+1        0.00000   0.00000   0.00000   0.00000   0.00001
  20       10D-1        0.00000   0.00000   0.00000   0.00000  -0.00210
  21       10D+2        0.00000   0.00000  -0.00001  -0.00002   0.00000
  22       10D-2        0.00000   0.00000   0.00000   0.00000   0.00000
  23       11D 0       -0.00001   0.00000   0.01088   0.00141   0.00000
  24       11D+1        0.00000   0.00000   0.00000   0.00000   0.00002
  25       11D-1        0.00000   0.00000   0.00000   0.00000  -0.00534
  26       11D+2        0.00000   0.00000   0.00026   0.00100   0.00000
  27       11D-2        0.00000   0.00000   0.00000   0.00001  -0.00001
  28       12D 0       -0.00002   0.00000  -0.01505  -0.00336   0.00000
  29       12D+1        0.00000   0.00000  -0.00001   0.00000   0.00001
  30       12D-1        0.00000  -0.00002   0.00000   0.00000  -0.00400
  31       12D+2        0.00000   0.00000   0.00142   0.00136   0.00000
  32       12D-2        0.00000   0.00000   0.00001   0.00001  -0.00003
  33       13F 0        0.00000   0.00000  -0.00275  -0.00032   0.00000
  34       13F+1        0.00000   0.00000   0.00000   0.00000  -0.00001
  35       13F-1        0.00000   0.00000   0.00000   0.00000   0.00147
  36       13F+2        0.00000   0.00000   0.00021  -0.00005   0.00000
  37       13F-2        0.00000   0.00000   0.00000   0.00000   0.00000
  38       13F+3        0.00000   0.00000   0.00000   0.00000   0.00000
  39       13F-3        0.00000   0.00000   0.00000   0.00000   0.00008
  40       14F 0        0.00000   0.00000  -0.00008  -0.00057   0.00000
  41       14F+1        0.00000   0.00000   0.00001  -0.00001   0.00000
  42       14F-1        0.00000   0.00000   0.00000   0.00000   0.00015
  43       14F+2        0.00000   0.00000  -0.00069  -0.00104   0.00000
  44       14F-2        0.00000   0.00000   0.00000  -0.00001   0.00001
  45       14F+3        0.00000   0.00000   0.00000   0.00001   0.00000
  46       14F-3        0.00000   0.00000   0.00000   0.00000   0.00044
  47 2   C  1S         -0.00030   0.00000  -0.08435   0.04576   0.00000
  48        2S          0.00003   0.00000   0.19424  -0.12665   0.00000
  49        3S          0.00002   0.00000   0.04627  -0.02636   0.00000
  50        4S         -0.00013   0.00000   0.00263  -0.05553   0.00000
  51        5S         -0.00005   0.00000  -0.00447  -0.02446   0.00000
  52        6PX         0.00000   0.00000  -0.00007   0.00019  -0.00025
  53        6PY         0.00000  -0.00001   0.00000   0.00001   0.07153
  54        6PZ        -0.00001   0.00000   0.06360   0.05729   0.00000
  55        7PX         0.00000   0.00000  -0.00012   0.00027  -0.00033
  56        7PY         0.00000   0.00004   0.00000   0.00001   0.09693
  57        7PZ         0.00005   0.00000   0.04905   0.06670   0.00000
  58        8PX         0.00000   0.00000   0.00000   0.00001   0.00003
  59        8PY         0.00000  -0.00009   0.00000   0.00000  -0.00734
  60        8PZ        -0.00001   0.00000  -0.01845  -0.00344   0.00000
  61        9PX         0.00000   0.00000  -0.00003   0.00004  -0.00002
  62        9PY         0.00000  -0.00001   0.00000   0.00000   0.00604
  63        9PZ         0.00000   0.00000  -0.00732   0.00329   0.00000
  64       10D 0        0.00000   0.00000   0.01557   0.00259   0.00000
  65       10D+1        0.00000   0.00000   0.00001  -0.00003   0.00002
  66       10D-1        0.00000   0.00000   0.00000   0.00000  -0.00592
  67       10D+2        0.00000   0.00000  -0.00266   0.00660   0.00000
  68       10D-2        0.00000   0.00000  -0.00002   0.00005  -0.00004
  69       11D 0       -0.00001   0.00000   0.00615  -0.00225   0.00000
  70       11D+1        0.00000   0.00000   0.00000  -0.00006   0.00007
  71       11D-1        0.00000  -0.00007   0.00000   0.00000  -0.01928
  72       11D+2        0.00005   0.00000  -0.00326   0.01161   0.00000
  73       11D-2        0.00000   0.00000  -0.00002   0.00008  -0.00009
  74       12D 0       -0.00003   0.00000  -0.02001  -0.00788   0.00000
  75       12D+1        0.00000   0.00000  -0.00003   0.00002  -0.00002
  76       12D-1        0.00000  -0.00001   0.00000   0.00000   0.00452
  77       12D+2        0.00001   0.00000  -0.00112  -0.00272   0.00000
  78       12D-2        0.00000   0.00000  -0.00001  -0.00002   0.00006
  79       13F 0        0.00000   0.00000   0.00592  -0.00204   0.00000
  80       13F+1        0.00000   0.00000  -0.00001   0.00001  -0.00001
  81       13F-1        0.00000   0.00000   0.00000   0.00000   0.00231
  82       13F+2       -0.00001   0.00000   0.00257  -0.00425   0.00000
  83       13F-2        0.00000   0.00000   0.00002  -0.00003   0.00002
  84       13F+3        0.00000   0.00000   0.00002  -0.00002   0.00003
  85       13F-3        0.00000  -0.00001   0.00000   0.00000  -0.00265
  86       14F 0       -0.00003   0.00000  -0.00661  -0.00482   0.00000
  87       14F+1        0.00000   0.00000   0.00000   0.00000   0.00000
  88       14F-1        0.00000  -0.00001   0.00000   0.00000   0.00139
  89       14F+2       -0.00003   0.00000  -0.00283  -0.00584   0.00000
  90       14F-2        0.00000   0.00000  -0.00002  -0.00004   0.00006
  91       14F+3        0.00000   0.00000   0.00000  -0.00001   0.00000
  92       14F-3        0.00000  -0.00001   0.00000   0.00000   0.00003
  93 3   Cl 1S          0.70506   0.70518   0.01119  -0.04764  -0.05216
  94        2S          0.00700   0.00716  -0.04059   0.17867   0.19509
  95        3S          0.00011   0.00012   0.09174  -0.38024  -0.41800
  96        4S          0.00015   0.00016   0.01037  -0.04677  -0.05250
  97        5S          0.00001  -0.00006   0.04985  -0.22573  -0.25699
  98        6S          0.00001  -0.00007  -0.00312   0.01089   0.00587
  99        7PX         0.00000   0.00000  -0.00001  -0.00002   0.00003
 100        7PY        -0.00084  -0.00043  -0.00743   0.01510   0.00077
 101        7PZ        -0.00045  -0.00034  -0.00922   0.00159   0.00820
 102        8PX         0.00000   0.00000   0.00004   0.00008  -0.00010
 103        8PY         0.00007   0.00006   0.01290  -0.02045   0.01570
 104        8PZ         0.00005   0.00004   0.02309   0.01016  -0.01107
 105        9PX         0.00000   0.00000   0.00001   0.00003  -0.00003
 106        9PY        -0.00008  -0.00006   0.00600  -0.00962   0.00646
 107        9PZ        -0.00005  -0.00004   0.00995   0.00375  -0.00516
 108       10PX         0.00000   0.00000   0.00001   0.00004  -0.00005
 109       10PY        -0.00001  -0.00007   0.00311   0.00223   0.01604
 110       10PZ        -0.00002  -0.00004   0.00274   0.00959  -0.00091
 111       11PX         0.00000   0.00000   0.00001  -0.00001   0.00002
 112       11PY         0.00000  -0.00001  -0.00125   0.00379   0.00221
 113       11PZ         0.00000   0.00000   0.00097   0.00167   0.00263
 114       12D 0        0.00000   0.00000   0.00035   0.00145  -0.00093
 115       12D+1        0.00000   0.00000   0.00000   0.00000   0.00000
 116       12D-1        0.00000   0.00001   0.00347  -0.00585  -0.00592
 117       12D+2        0.00000   0.00000  -0.00267   0.00548   0.00302
 118       12D-2        0.00000   0.00000   0.00000   0.00001  -0.00001
 119       13D 0        0.00000   0.00000  -0.00047   0.00213  -0.00245
 120       13D+1        0.00000   0.00000   0.00000   0.00001  -0.00002
 121       13D-1        0.00003   0.00002   0.00379  -0.00509  -0.00488
 122       13D+2       -0.00001  -0.00001  -0.00139   0.00601   0.00134
 123       13D-2        0.00000   0.00000   0.00000   0.00002  -0.00003
 124       14D 0        0.00000   0.00000  -0.00001  -0.00054  -0.00068
 125       14D+1        0.00000   0.00000  -0.00001   0.00000   0.00001
 126       14D-1       -0.00001  -0.00002  -0.00197   0.00142   0.00190
 127       14D+2        0.00001   0.00002  -0.00091  -0.00195  -0.00294
 128       14D-2        0.00000   0.00000  -0.00001   0.00001  -0.00001
 129       15F 0        0.00000   0.00000  -0.00033   0.00140   0.00086
 130       15F+1        0.00000   0.00000   0.00000   0.00000   0.00000
 131       15F-1        0.00000   0.00000   0.00040  -0.00022  -0.00163
 132       15F+2       -0.00001   0.00000  -0.00077   0.00221   0.00221
 133       15F-2        0.00000   0.00000   0.00000   0.00000   0.00000
 134       15F+3        0.00000   0.00000   0.00000   0.00000   0.00000
 135       15F-3        0.00000   0.00000  -0.00059   0.00181   0.00084
 136       16F 0        0.00000   0.00000  -0.00044   0.00011  -0.00048
 137       16F+1        0.00000   0.00000   0.00000   0.00000   0.00000
 138       16F-1        0.00000   0.00000  -0.00026   0.00024  -0.00025
 139       16F+2        0.00000   0.00000   0.00016   0.00022  -0.00100
 140       16F-2        0.00000   0.00000   0.00000   0.00000  -0.00001
 141       16F+3        0.00000   0.00000   0.00000   0.00000   0.00001
 142       16F-3        0.00000   0.00000   0.00095   0.00008  -0.00072
 143 4   Cl 1S          0.70522  -0.70502   0.01119  -0.04763   0.05216
 144        2S          0.00700  -0.00716  -0.04059   0.17865  -0.19511
 145        3S          0.00011  -0.00012   0.09173  -0.38020   0.41805
 146        4S          0.00015  -0.00016   0.01037  -0.04676   0.05250
 147        5S          0.00001   0.00006   0.04985  -0.22571   0.25702
 148        6S          0.00001   0.00007  -0.00311   0.01089  -0.00587
 149        7PX        -0.00001   0.00000  -0.00006   0.00008  -0.00004
 150        7PY         0.00084  -0.00043   0.00743  -0.01510   0.00078
 151        7PZ        -0.00045   0.00034  -0.00922   0.00159  -0.00820
 152        8PX         0.00000   0.00000   0.00013  -0.00006  -0.00001
 153        8PY        -0.00007   0.00006  -0.01290   0.02045   0.01570
 154        8PZ         0.00005  -0.00004   0.02309   0.01016   0.01107
 155        9PX         0.00000   0.00000   0.00005  -0.00003  -0.00001
 156        9PY         0.00008  -0.00006  -0.00600   0.00962   0.00645
 157        9PZ        -0.00005   0.00004   0.00995   0.00375   0.00516
 158       10PX         0.00000   0.00000   0.00003   0.00006  -0.00007
 159       10PY         0.00001  -0.00007  -0.00311  -0.00223   0.01604
 160       10PZ        -0.00002   0.00004   0.00274   0.00959   0.00091
 161       11PX         0.00000   0.00000   0.00000   0.00002  -0.00003
 162       11PY         0.00000  -0.00001   0.00125  -0.00379   0.00221
 163       11PZ         0.00000   0.00000   0.00097   0.00167  -0.00264
 164       12D 0        0.00000   0.00000   0.00035   0.00145   0.00093
 165       12D+1        0.00000   0.00000   0.00002  -0.00004   0.00004
 166       12D-1        0.00000   0.00001  -0.00347   0.00585  -0.00592
 167       12D+2        0.00000   0.00000  -0.00267   0.00548  -0.00302
 168       12D-2        0.00000   0.00000  -0.00003   0.00007  -0.00005
 169       13D 0        0.00000   0.00000  -0.00047   0.00213   0.00245
 170       13D+1        0.00000   0.00000   0.00003  -0.00003   0.00005
 171       13D-1       -0.00003   0.00002  -0.00379   0.00509  -0.00488
 172       13D+2       -0.00001   0.00001  -0.00139   0.00601  -0.00134
 173       13D-2        0.00000   0.00000  -0.00002   0.00007  -0.00005
 174       14D 0        0.00000   0.00000  -0.00001  -0.00054   0.00068
 175       14D+1        0.00000   0.00000  -0.00002   0.00001  -0.00002
 176       14D-1        0.00001  -0.00002   0.00197  -0.00142   0.00190
 177       14D+2        0.00001  -0.00002  -0.00091  -0.00195   0.00294
 178       14D-2        0.00000   0.00000  -0.00001  -0.00004   0.00003
 179       15F 0        0.00000   0.00000  -0.00033   0.00140  -0.00086
 180       15F+1        0.00000   0.00000   0.00000   0.00000   0.00001
 181       15F-1        0.00000   0.00000  -0.00040   0.00022  -0.00163
 182       15F+2       -0.00001   0.00000  -0.00077   0.00221  -0.00221
 183       15F-2        0.00000   0.00000  -0.00001   0.00003  -0.00003
 184       15F+3        0.00000   0.00000  -0.00001   0.00003  -0.00002
 185       15F-3        0.00000   0.00000   0.00059  -0.00181   0.00084
 186       16F 0        0.00000   0.00000  -0.00044   0.00011   0.00048
 187       16F+1        0.00000   0.00000   0.00000   0.00000   0.00000
 188       16F-1        0.00000   0.00000   0.00026  -0.00024  -0.00025
 189       16F+2        0.00000   0.00000   0.00016   0.00022   0.00100
 190       16F-2        0.00000   0.00000   0.00000   0.00000   0.00001
 191       16F+3        0.00000   0.00000   0.00002   0.00000   0.00001
 192       16F-3        0.00000   0.00000  -0.00095  -0.00008  -0.00072
                          16        17        18        19        20
     Eigenvalues --     1.96277   1.95785   1.95159   1.94905   1.94743
   1 1   O  1S          0.03972   0.00000  -0.00845  -0.00022  -0.00001
   2        2S         -0.12879   0.00000   0.02178   0.00058   0.00001
   3        3S         -0.04227   0.00000   0.00680   0.00016   0.00000
   4        4S         -0.23871  -0.00001   0.02419   0.00008   0.00001
   5        5S         -0.05963   0.00000   0.02430   0.00007   0.00000
   6        6PX        -0.00037  -0.00103  -0.00008   0.02761  -0.00039
   7        6PY        -0.00001   0.29831   0.00000   0.00010   0.11179
   8        6PZ        -0.29531  -0.00001  -0.00757  -0.00099  -0.00002
   9        7PX        -0.00045  -0.00128  -0.00010   0.03494  -0.00047
  10        7PY        -0.00001   0.37047   0.00000   0.00012   0.13664
  11        7PZ        -0.34967  -0.00001  -0.01062  -0.00120  -0.00002
  12        8PX        -0.00034  -0.00094   0.00003   0.01729  -0.00033
  13        8PY        -0.00001   0.27131   0.00000   0.00006   0.09521
  14        8PZ        -0.15253   0.00000  -0.00030  -0.00035  -0.00001
  15        9PX        -0.00004  -0.00013   0.00008  -0.01198  -0.00005
  16        9PY         0.00000   0.03766   0.00000  -0.00004   0.01522
  17        9PZ         0.00122   0.00000   0.00063   0.00003   0.00000
  18       10D 0        0.01320   0.00000   0.00021   0.00004   0.00000
  19       10D+1        0.00001   0.00003   0.00001  -0.00313   0.00001
  20       10D-1        0.00000  -0.00900   0.00000  -0.00001  -0.00203
  21       10D+2       -0.00002   0.00000   0.00058   0.00000   0.00000
  22       10D-2        0.00000   0.00000   0.00000   0.00000   0.00001
  23       11D 0        0.02658   0.00000   0.00139   0.00009   0.00000
  24       11D+1        0.00004   0.00009   0.00000  -0.00875   0.00001
  25       11D-1        0.00000  -0.02621   0.00000  -0.00003  -0.00260
  26       11D+2        0.00116   0.00000   0.00046   0.00001   0.00000
  27       11D-2        0.00001   0.00000   0.00000   0.00000   0.00004
  28       12D 0       -0.00325   0.00000  -0.00116  -0.00013   0.00000
  29       12D+1        0.00003   0.00006   0.00000  -0.00699   0.00000
  30       12D-1        0.00000  -0.01713   0.00000  -0.00002  -0.00143
  31       12D+2        0.00218   0.00000   0.00223  -0.00001   0.00000
  32       12D-2        0.00002  -0.00003   0.00002   0.00000   0.00006
  33       13F 0       -0.00481   0.00000  -0.00004  -0.00002   0.00000
  34       13F+1        0.00000  -0.00002   0.00000   0.00166   0.00000
  35       13F-1        0.00000   0.00562   0.00000   0.00001   0.00095
  36       13F+2       -0.00068   0.00000  -0.00016   0.00000   0.00000
  37       13F-2        0.00000   0.00000   0.00000   0.00000  -0.00001
  38       13F+3        0.00000  -0.00001   0.00000  -0.00001   0.00000
  39       13F-3        0.00000   0.00091   0.00000   0.00000   0.00046
  40       14F 0       -0.00410   0.00000  -0.00024  -0.00002   0.00000
  41       14F+1        0.00000  -0.00001   0.00001   0.00110   0.00000
  42       14F-1        0.00000   0.00424   0.00000   0.00000  -0.00007
  43       14F+2       -0.00163   0.00000   0.00032  -0.00001   0.00000
  44       14F-2       -0.00001   0.00001   0.00000   0.00000  -0.00002
  45       14F+3        0.00000  -0.00001   0.00000   0.00073   0.00000
  46       14F-3        0.00000   0.00102   0.00000   0.00001   0.00013
  47 2   C  1S         -0.11378   0.00000  -0.03594   0.00034   0.00002
  48        2S          0.30978   0.00001   0.10101  -0.00099  -0.00004
  49        3S          0.08111   0.00000   0.02501  -0.00019  -0.00001
  50        4S          0.10667   0.00000   0.05276  -0.00028  -0.00003
  51        5S          0.00864   0.00000   0.01335  -0.00023   0.00000
  52        6PX        -0.00018  -0.00050  -0.00034   0.11089  -0.00005
  53        6PY         0.00000   0.14452   0.00000   0.00038   0.01542
  54        6PZ         0.14801   0.00000  -0.04928   0.00115   0.00003
  55        7PX        -0.00025  -0.00065  -0.00050   0.15304  -0.00008
  56        7PY        -0.00001   0.18807   0.00000   0.00053   0.02344
  57        7PZ         0.15696   0.00000  -0.07107   0.00142   0.00004
  58        8PX        -0.00009  -0.00006  -0.00019   0.04537  -0.00002
  59        8PY         0.00000   0.01617   0.00000   0.00016   0.00493
  60        8PZ        -0.00184   0.00000  -0.02649  -0.00015   0.00001
  61        9PX         0.00000   0.00003  -0.00006   0.01279   0.00003
  62        9PY         0.00000  -0.00874   0.00000   0.00004  -0.00993
  63        9PZ        -0.00250   0.00000  -0.01084  -0.00007   0.00000
  64       10D 0        0.01573   0.00000   0.01076   0.00016   0.00000
  65       10D+1       -0.00003  -0.00007   0.00004  -0.00465  -0.00001
  66       10D-1        0.00000   0.02076   0.00000  -0.00002   0.00398
  67       10D+2        0.00003   0.00000   0.00397   0.00004   0.00000
  68       10D-2        0.00000  -0.00001   0.00003   0.00000   0.00021
  69       11D 0        0.00135   0.00000   0.03300   0.00027   0.00000
  70       11D+1       -0.00003  -0.00007   0.00011  -0.02721  -0.00001
  71       11D-1        0.00000   0.01994   0.00000  -0.00009   0.00291
  72       11D+2       -0.00442   0.00000   0.01549   0.00001   0.00000
  73       11D-2       -0.00003  -0.00004   0.00011   0.00000   0.00065
  74       12D 0        0.00024   0.00000  -0.02336  -0.00021  -0.00001
  75       12D+1        0.00003   0.00005  -0.00010  -0.00823  -0.00005
  76       12D-1        0.00000  -0.01541   0.00000  -0.00003   0.01412
  77       12D+2        0.00441   0.00000  -0.01757  -0.00007   0.00000
  78       12D-2        0.00003   0.00015  -0.00012   0.00000  -0.00008
  79       13F 0        0.00919   0.00000  -0.00069   0.00000   0.00000
  80       13F+1        0.00000  -0.00002  -0.00004   0.00252  -0.00003
  81       13F-1        0.00000   0.00512   0.00000   0.00001   0.00855
  82       13F+2        0.00173   0.00000   0.00173  -0.00001   0.00000
  83       13F-2        0.00001   0.00001   0.00001   0.00000  -0.00007
  84       13F+3        0.00002   0.00003   0.00000  -0.00482  -0.00002
  85       13F-3        0.00000  -0.00291   0.00000  -0.00005   0.00150
  86       14F 0       -0.01003   0.00000  -0.00458  -0.00011   0.00000
  87       14F+1        0.00001  -0.00001  -0.00005  -0.00050  -0.00005
  88       14F-1        0.00000   0.00159   0.00000   0.00000   0.01443
  89       14F+2       -0.00324   0.00000  -0.00099   0.00003   0.00000
  90       14F-2       -0.00002   0.00003  -0.00001   0.00000  -0.00016
  91       14F+3        0.00002  -0.00001  -0.00001  -0.00312  -0.00004
  92       14F-3        0.00000   0.00077   0.00000  -0.00003   0.00347
  93 3   Cl 1S         -0.01193   0.01512  -0.01051   0.00009  -0.00125
  94        2S          0.04624  -0.05759   0.03995  -0.00034   0.00494
  95        3S         -0.09411   0.12342  -0.08672   0.00077  -0.00973
  96        4S         -0.01266   0.01716  -0.01356   0.00013  -0.00201
  97        5S         -0.07972   0.11891  -0.08162   0.00071  -0.01051
  98        6S         -0.00812   0.00808  -0.02259   0.00014  -0.01260
  99        7PX         0.00001   0.00004   0.00074  -0.14799   0.00274
 100        7PY        -0.00338   0.00422  -0.10714   0.00011   0.09059
 101        7PZ        -0.01477   0.04401   0.10881   0.00147  -0.14018
 102        8PX        -0.00001  -0.00013  -0.00174   0.34871  -0.00640
 103        8PY         0.00417   0.00283   0.24743  -0.00014  -0.21178
 104        8PZ         0.03225  -0.09625  -0.25995  -0.00337   0.33245
 105        9PX        -0.00001  -0.00004  -0.00083   0.16281  -0.00304
 106        9PY         0.00385  -0.00284   0.11690  -0.00006  -0.10251
 107        9PZ         0.01664  -0.04808  -0.12442  -0.00160   0.15769
 108       10PX         0.00003   0.00002  -0.00107   0.19595  -0.00395
 109       10PY        -0.01544   0.03081   0.12754   0.00026  -0.13502
 110       10PZ         0.00601  -0.03821  -0.17652  -0.00189   0.20809
 111       11PX         0.00001   0.00002  -0.00003   0.00081  -0.00020
 112       11PY        -0.00088   0.00443   0.00036   0.00003  -0.00659
 113       11PZ         0.00003   0.00269  -0.00754  -0.00004   0.01046
 114       12D 0        0.00315  -0.00566  -0.00694   0.00000   0.00097
 115       12D+1       -0.00001  -0.00002  -0.00002   0.00559  -0.00007
 116       12D-1        0.00566  -0.01037   0.00153  -0.00016  -0.00133
 117       12D+2       -0.00099   0.00445  -0.00942   0.00008   0.00066
 118       12D-2       -0.00001  -0.00001  -0.00005   0.01069  -0.00010
 119       13D 0        0.00219  -0.00864  -0.00846  -0.00001  -0.00075
 120       13D+1       -0.00001  -0.00004  -0.00002   0.00830  -0.00008
 121       13D-1        0.00533  -0.00691   0.00106  -0.00016  -0.00082
 122       13D+2        0.00167   0.00051  -0.01148   0.00008  -0.00156
 123       13D-2        0.00000  -0.00003  -0.00008   0.01641  -0.00011
 124       14D 0        0.00231  -0.00604  -0.00795  -0.00001   0.00140
 125       14D+1        0.00001   0.00002  -0.00005   0.00176  -0.00010
 126       14D-1       -0.00037  -0.00170  -0.00341  -0.00007   0.00147
 127       14D+2        0.00314  -0.00295  -0.00567  -0.00002   0.00044
 128       14D-2        0.00000   0.00001  -0.00005   0.00527  -0.00012
 129       15F 0        0.00033  -0.00023  -0.00195   0.00002   0.00081
 130       15F+1        0.00000   0.00000   0.00000   0.00052  -0.00001
 131       15F-1        0.00146  -0.00359  -0.00400  -0.00004   0.00274
 132       15F+2       -0.00035   0.00231  -0.00130   0.00005   0.00031
 133       15F-2        0.00000  -0.00001  -0.00002   0.00440  -0.00005
 134       15F+3        0.00000   0.00000   0.00002  -0.00433   0.00005
 135       15F-3        0.00033   0.00051  -0.00321   0.00002   0.00093
 136       16F 0       -0.00158  -0.00135  -0.00046   0.00000  -0.00046
 137       16F+1        0.00000   0.00000   0.00000  -0.00046  -0.00001
 138       16F-1       -0.00016  -0.00050  -0.00207  -0.00001   0.00148
 139       16F+2       -0.00020  -0.00212  -0.00053   0.00000  -0.00057
 140       16F-2        0.00000  -0.00001  -0.00002   0.00222  -0.00003
 141       16F+3        0.00001   0.00001   0.00001  -0.00243   0.00002
 142       16F-3        0.00117  -0.00160  -0.00110   0.00000  -0.00055
 143 4   Cl 1S         -0.01193  -0.01512  -0.01051   0.00009   0.00126
 144        2S          0.04623   0.05759   0.03995  -0.00034  -0.00496
 145        3S         -0.09411  -0.12342  -0.08672   0.00077   0.00978
 146        4S         -0.01265  -0.01716  -0.01356   0.00013   0.00202
 147        5S         -0.07971  -0.11891  -0.08162   0.00071   0.01056
 148        6S         -0.00812  -0.00808  -0.02259   0.00014   0.01261
 149        7PX        -0.00002  -0.00007   0.00000  -0.14799  -0.00337
 150        7PY         0.00338   0.00422   0.10714  -0.00113   0.09054
 151        7PZ        -0.01476  -0.04401   0.10881   0.00147   0.14022
 152        8PX         0.00002   0.00011  -0.00003   0.34869   0.00787
 153        8PY        -0.00417   0.00283  -0.24743   0.00255  -0.21168
 154        8PZ         0.03225   0.09625  -0.25995  -0.00337  -0.33254
 155        9PX         0.00002   0.00006  -0.00002   0.16281   0.00375
 156        9PY        -0.00385  -0.00283  -0.11690   0.00118  -0.10246
 157        9PZ         0.01664   0.04808  -0.12442  -0.00160  -0.15774
 158       10PX        -0.00008  -0.00024  -0.00019   0.19595   0.00488
 159       10PY         0.01544   0.03081  -0.12754   0.00109  -0.13498
 160       10PZ         0.00601   0.03821  -0.17652  -0.00189  -0.20814
 161       11PX         0.00000  -0.00005  -0.00003   0.00081   0.00024
 162       11PY         0.00088   0.00443  -0.00036  -0.00003  -0.00659
 163       11PZ         0.00003  -0.00269  -0.00754  -0.00004  -0.01046
 164       12D 0        0.00315   0.00566  -0.00694   0.00000  -0.00097
 165       12D+1        0.00003   0.00009  -0.00001   0.00559   0.00008
 166       12D-1       -0.00566  -0.01037  -0.00153   0.00020  -0.00132
 167       12D+2       -0.00099  -0.00445  -0.00942   0.00023  -0.00065
 168       12D-2       -0.00001  -0.00007  -0.00008  -0.01068  -0.00011
 169       13D 0        0.00219   0.00864  -0.00846  -0.00001   0.00076
 170       13D+1        0.00003   0.00009  -0.00002   0.00830   0.00009
 171       13D-1       -0.00533  -0.00691  -0.00106   0.00022  -0.00081
 172       13D+2        0.00167  -0.00051  -0.01148   0.00031   0.00156
 173       13D-2        0.00002  -0.00004  -0.00008  -0.01641  -0.00008
 174       14D 0        0.00231   0.00604  -0.00795  -0.00001  -0.00140
 175       14D+1        0.00000   0.00000  -0.00007   0.00176   0.00009
 176       14D-1        0.00037  -0.00170   0.00341   0.00008   0.00147
 177       14D+2        0.00314   0.00295  -0.00567   0.00006  -0.00044
 178       14D-2        0.00005   0.00005  -0.00003  -0.00527  -0.00013
 179       15F 0        0.00033   0.00023  -0.00195   0.00002  -0.00081
 180       15F+1        0.00001   0.00003  -0.00003   0.00052  -0.00001
 181       15F-1       -0.00146  -0.00359   0.00400   0.00004   0.00274
 182       15F+2       -0.00035  -0.00231  -0.00130   0.00012  -0.00031
 183       15F-2        0.00000  -0.00004   0.00000  -0.00440  -0.00006
 184       15F+3        0.00001  -0.00001  -0.00005  -0.00433  -0.00007
 185       15F-3       -0.00033   0.00051   0.00321  -0.00011   0.00093
 186       16F 0       -0.00158   0.00135  -0.00046   0.00000   0.00046
 187       16F+1        0.00000   0.00000  -0.00002  -0.00046   0.00000
 188       16F-1        0.00016  -0.00050   0.00207   0.00001   0.00148
 189       16F+2       -0.00020   0.00212  -0.00053   0.00003   0.00057
 190       16F-2       -0.00001   0.00002   0.00001  -0.00222  -0.00002
 191       16F+3        0.00003   0.00003  -0.00001  -0.00243  -0.00001
 192       16F-3       -0.00117  -0.00160   0.00110  -0.00005  -0.00056
                          21        22        23        24        25
     Eigenvalues --     1.94726   1.94726   1.93696   1.93116   0.06664
   1 1   O  1S         -0.02735   0.00001   0.00000   0.00009   0.00008
   2        2S          0.07390  -0.00001   0.00000  -0.00027  -0.00031
   3        3S          0.02085   0.00000   0.00000  -0.00009  -0.00007
   4        4S          0.02951  -0.00001   0.00000  -0.00045  -0.00076
   5        5S          0.00093   0.00000   0.00000  -0.00005  -0.00036
   6        6PX        -0.00005  -0.00001   0.00049   0.29513  -0.34429
   7        6PY        -0.00003   0.00193  -0.14083   0.00102  -0.00119
   8        6PZ        -0.10269   0.00002   0.00001  -0.00014   0.00062
   9        7PX        -0.00006  -0.00001   0.00061   0.36986  -0.39620
  10        7PY        -0.00004   0.00236  -0.17514   0.00128  -0.00137
  11        7PZ        -0.12538   0.00002   0.00001  -0.00016   0.00077
  12        8PX         0.00009   0.00000   0.00042   0.24748  -0.07270
  13        8PY        -0.00003   0.00178  -0.12136   0.00086  -0.00025
  14        8PZ        -0.04099   0.00001   0.00000   0.00000   0.00007
  15        9PX         0.00018   0.00000   0.00008   0.02589  -0.00388
  16        9PY         0.00000   0.00038  -0.02174   0.00009  -0.00001
  17        9PZ         0.00342   0.00000   0.00000   0.00003   0.00003
  18       10D 0        0.00478   0.00000   0.00000   0.00001  -0.00002
  19       10D+1        0.00001   0.00000   0.00000  -0.01036  -0.01309
  20       10D-1        0.00000  -0.00004   0.00021  -0.00004  -0.00005
  21       10D+2        0.00003   0.00000   0.00000   0.00000   0.00002
  22       10D-2        0.00000  -0.00038   0.00000   0.00000   0.00000
  23       11D 0        0.00931   0.00000   0.00000   0.00001  -0.00008
  24       11D+1        0.00004   0.00000   0.00000  -0.02824  -0.01096
  25       11D-1        0.00000  -0.00006  -0.00017  -0.00010  -0.00004
  26       11D+2        0.00206   0.00001   0.00000   0.00000   0.00002
  27       11D-2        0.00001  -0.00173  -0.00002   0.00000   0.00000
  28       12D 0       -0.01209   0.00000   0.00000   0.00002   0.00007
  29       12D+1        0.00002   0.00000   0.00003  -0.01256   0.01610
  30       12D-1        0.00000  -0.00008  -0.00749  -0.00004   0.00006
  31       12D+2        0.00225   0.00003   0.00000   0.00003  -0.00004
  32       12D-2        0.00001  -0.00384  -0.00001   0.00000   0.00000
  33       13F 0       -0.00190   0.00000   0.00000   0.00000   0.00001
  34       13F+1       -0.00001   0.00000   0.00000   0.00541   0.00389
  35       13F-1        0.00000   0.00002   0.00021   0.00002   0.00001
  36       13F+2       -0.00048   0.00000   0.00000   0.00000   0.00001
  37       13F-2        0.00000   0.00034   0.00000   0.00000   0.00000
  38       13F+3        0.00000   0.00000   0.00000   0.00105  -0.00254
  39       13F-3        0.00000   0.00001  -0.00045   0.00001  -0.00003
  40       14F 0       -0.00196   0.00000   0.00000   0.00000   0.00003
  41       14F+1       -0.00001   0.00000   0.00000   0.00347  -0.00534
  42       14F-1        0.00000   0.00001  -0.00072   0.00001  -0.00002
  43       14F+2       -0.00234  -0.00001   0.00000  -0.00001   0.00002
  44       14F-2       -0.00002   0.00120   0.00001   0.00000   0.00000
  45       14F+3        0.00000   0.00000   0.00000   0.00088  -0.00075
  46       14F-3        0.00000  -0.00001  -0.00019   0.00001  -0.00001
  47 2   C  1S          0.07645  -0.00002   0.00000  -0.00030  -0.00084
  48        2S         -0.21886   0.00004   0.00001   0.00085   0.00260
  49        3S         -0.04712   0.00001   0.00000   0.00022   0.00089
  50        4S         -0.16444   0.00003   0.00001   0.00069   0.00353
  51        5S         -0.02105   0.00000   0.00000   0.00005   0.00049
  52        6PX        -0.00052   0.00000  -0.00048   0.17268   0.30819
  53        6PY         0.00000   0.00032   0.13970   0.00060   0.00107
  54        6PZ         0.17335  -0.00003  -0.00001  -0.00014  -0.00104
  55        7PX        -0.00074   0.00000  -0.00069   0.21997   0.46722
  56        7PY         0.00000   0.00046   0.19863   0.00076   0.00161
  57        7PZ         0.22201  -0.00004  -0.00001  -0.00017  -0.00151
  58        8PX        -0.00034   0.00000  -0.00010   0.08355   0.15526
  59        8PY         0.00000  -0.00023   0.02856   0.00029   0.00054
  60        8PZ         0.03426  -0.00001   0.00000   0.00020  -0.00043
  61        9PX        -0.00016   0.00000   0.00000  -0.00178   0.01046
  62        9PY         0.00000  -0.00037  -0.00027  -0.00001   0.00004
  63        9PZ        -0.00728   0.00000   0.00000   0.00002  -0.00007
  64       10D 0        0.01293   0.00000   0.00000  -0.00002  -0.00004
  65       10D+1        0.00002   0.00000   0.00010   0.02390  -0.00026
  66       10D-1        0.00000   0.00007  -0.02896   0.00008   0.00000
  67       10D+2        0.00961   0.00007   0.00000   0.00001   0.00004
[...]
  73       11D-2        0.00364   0.00324   0.00005   0.00385  -0.00124
  74       12D 0        0.00019   1.24976   0.00351   0.00026  -0.00113
  75       12D+1       -0.02441  -0.00668   0.75328  -0.00791  -0.00339
  76       12D-1        7.06455  -0.00040   0.00260   2.28846   0.98016
  77       12D+2       -0.00004   1.43859   0.00205   0.00005  -0.00048
  78       12D-2        0.00413   0.00994   0.00004   0.02587  -0.01109
  79       13F 0        0.00000  -0.05441  -0.00065   0.00000  -0.00002
  80       13F+1        0.00008   0.00067  -0.09376  -0.00027   0.00007
  81       13F-1       -0.02173   0.00000  -0.00032   0.07715  -0.01967
  82       13F+2        0.00000  -0.03896  -0.00059   0.00000   0.00000
  83       13F-2        0.00009  -0.00027   0.00000   0.00029   0.00019
  84       13F+3        0.00007  -0.00051   0.03856   0.00011  -0.00019
  85       13F-3       -0.00669   0.00000   0.00040  -0.01061   0.01859
  86       14F 0        0.00003   0.10758  -0.00088   0.00000   0.00002
  87       14F+1       -0.00155  -0.00093  -0.17853  -0.00066   0.00073
  88       14F-1        0.44773  -0.00001  -0.00062   0.19206  -0.21049
  89       14F+2        0.00003   0.26128  -0.00143   0.00000  -0.00008
  90       14F-2        0.00137   0.00181  -0.00001   0.00150   0.00006
  91       14F+3       -0.00203  -0.00084   0.01347  -0.00198   0.00108
  92       14F-3        0.19596  -0.00003   0.00014   0.19124  -0.10391
  93 3   Cl 1S          0.02896  -0.01488  -0.00005   0.01194   0.00894
  94        2S          0.46375  -0.22398  -0.00072   0.15468   0.15549
  95        3S          1.16600  -0.58536  -0.00205   0.45476   0.36467
  96        4S         -0.22972   0.09511  -0.00009   0.01546  -0.13476
  97        5S         -6.82583   1.76080   0.00887  -3.63304  -0.96190
  98        6S         -2.96624   1.52888   0.02843 -12.86353   1.20211
  99        7PX         0.00004   0.00005  -0.01672  -0.00010   0.00010
 100        7PY         0.00675   0.00337   0.00018   0.01310  -0.00104
 101        7PZ        -0.01104  -0.00778   0.00013  -0.00136   0.00496
 102        8PX         0.00057   0.00040  -0.21330  -0.00176   0.00144
 103        8PY        -0.00358   0.05251   0.00256   0.21730   0.06783
 104        8PZ        -0.28214  -0.09272   0.00211  -0.00739   0.11265
 105        9PX        -0.00014  -0.00019   0.06486   0.00038  -0.00038
 106        9PY        -0.01926  -0.02874  -0.00074  -0.04939   0.00656
 107        9PZ         0.04488   0.01467  -0.00055   0.00825  -0.01772
 108       10PX        -0.01001  -0.00144   0.92644   0.00562  -0.00781
 109       10PY        -3.37135   0.43029   0.01020  -4.73038  -0.42886
 110       10PZ        -1.12467   1.92552   0.01369  -3.44257  -0.06691
 111       11PX         0.00221   0.01559  -2.24912   0.00422   0.01584
 112       11PY        -0.50027  -0.66469  -0.00381  -2.27606  -3.04545
 113       11PZ         0.29889  -2.01980  -0.00161  -1.58394   0.69856
 114       12D 0        0.00765  -0.04192  -0.00016   0.02120   0.00600
 115       12D+1        0.00002   0.00016  -0.02664   0.00024  -0.00012
 116       12D-1        0.05125  -0.08380  -0.00048  -0.01844  -0.01517
 117       12D+2       -0.01083   0.06989   0.00025   0.03388   0.05925
 118       12D-2       -0.00004   0.00020  -0.00982   0.00026   0.00025
 119       13D 0       -0.12132   0.17074   0.00088  -0.12659  -0.00387
 120       13D+1       -0.00048  -0.00086   0.08305  -0.00134   0.00062
 121       13D-1       -0.38678   0.37109   0.00350  -0.05258   0.13770
 122       13D+2        0.12707  -0.28476  -0.00189  -0.07511  -0.26554
 123       13D-2       -0.00018  -0.00104   0.03560  -0.00150  -0.00089
 124       14D 0        0.57415   0.26259   0.00087  -0.06543   0.26828
 125       14D+1       -0.00054   0.00319  -0.07904   0.00366  -0.00315
 126       14D-1       -0.19234   0.12769   0.00592  -1.56509  -0.13853
 127       14D+2        0.25900   0.37137  -0.00203   1.05416   0.70947
 128       14D-2       -0.00545   0.00101   0.19140   0.00251   0.00080
 129       15F 0       -0.03346  -0.00101   0.00027  -0.00832   0.01333
 130       15F+1       -0.00043  -0.00030  -0.00491  -0.00035   0.00022
 131       15F-1       -0.00419  -0.04229  -0.00036   0.04676  -0.00422
 132       15F+2       -0.00144   0.02889   0.00017  -0.01252   0.00314
 133       15F-2        0.00012  -0.00010  -0.01638   0.00012   0.00024
 134       15F+3       -0.00024  -0.00029   0.04297  -0.00026  -0.00006
 135       15F-3        0.03179  -0.00161   0.00015   0.00756   0.01091
 136       16F 0        0.13660   0.00380  -0.00118   0.03733  -0.02516
 137       16F+1        0.00100   0.00081  -0.00131   0.00080  -0.00047
 138       16F-1       -0.05887   0.18136   0.00173  -0.19058   0.05353
 139       16F+2        0.10030  -0.13250  -0.00176   0.11217  -0.02641
 140       16F-2       -0.00071   0.00023   0.03624  -0.00046  -0.00060
 141       16F+3        0.00096   0.00080  -0.10365   0.00062   0.00003
 142       16F-3       -0.03152  -0.03693  -0.00099   0.02414  -0.00239
 143 4   Cl 1S         -0.02896  -0.01487  -0.00005  -0.01194  -0.00895
 144        2S         -0.46373  -0.22392  -0.00072  -0.15468  -0.15560
 145        3S         -1.16596  -0.58521  -0.00205  -0.45475  -0.36492
 146        4S          0.22972   0.09509  -0.00009  -0.01547   0.13485
 147        5S          6.82511   1.75974   0.00886   3.63299   0.96251
 148        6S          2.96585   1.52763   0.02843  12.86419  -1.20601
 149        7PX        -0.00009   0.00007  -0.01672   0.00001  -0.00009
 150        7PY         0.00675  -0.00337  -0.00030   0.01311  -0.00104
 151        7PZ         0.01104  -0.00779   0.00013   0.00136  -0.00495
 152        8PX        -0.00054   0.00077  -0.21328   0.00026  -0.00191
 153        8PY        -0.00353  -0.05248  -0.00404   0.21731   0.06775
 154        8PZ         0.28208  -0.09275   0.00211   0.00735  -0.11245
 155        9PX         0.00028  -0.00039   0.06486  -0.00004   0.00033
 156        9PY        -0.01926   0.02873   0.00119  -0.04940   0.00658
 157        9PZ        -0.04488   0.01468  -0.00055  -0.00824   0.01767
 158       10PX         0.03331   0.00153   0.92646   0.02707   0.01076
 159       10PY        -3.37081  -0.42964  -0.00379  -4.73030  -0.42927
 160       10PZ         1.12464   1.92503   0.01369   3.44284   0.06579
 161       11PX         0.00125   0.01100  -2.24908   0.01151   0.00521
 162       11PY        -0.50027   0.66501  -0.01174  -2.27608  -3.04468
 163       11PZ        -0.29904  -2.01983  -0.00161   1.58373  -0.69782
 164       12D 0       -0.00766  -0.04192  -0.00016  -0.02120  -0.00599
 165       12D+1       -0.00038  -0.00042  -0.02664  -0.00011   0.00022
 166       12D-1        0.05125   0.08380   0.00029  -0.01844  -0.01516
 167       12D+2        0.01083   0.06989   0.00011  -0.03388  -0.05926
 168       12D-2        0.00011   0.00077   0.00982  -0.00021  -0.00056
 169       13D 0        0.12134   0.17072   0.00088   0.12660   0.00382
 170       13D+1        0.00315   0.00171   0.08308   0.00170  -0.00157
 171       13D-1       -0.38674  -0.37104  -0.00293  -0.05260   0.13764
 172       13D+2       -0.12703  -0.28473  -0.00140   0.07510   0.26551
 173       13D-2       -0.00194  -0.00290  -0.03563  -0.00047   0.00278
 174       14D 0       -0.57411   0.26261   0.00087   0.06548  -0.26846
 175       14D+1        0.00187   0.00407  -0.07901   0.00716   0.00410
 176       14D-1       -0.19234  -0.12752  -0.00647  -1.56509  -0.13837
 177       14D+2       -0.25885   0.37144   0.00062  -1.05403  -0.70972
 178       14D-2       -0.00903   0.00413  -0.19139  -0.01206  -0.00901
 179       15F 0        0.03346  -0.00101   0.00027   0.00832  -0.01333
 180       15F+1        0.00046  -0.00059  -0.00491   0.00003  -0.00019
 181       15F-1       -0.00418   0.04228   0.00033   0.04676  -0.00421
 182       15F+2        0.00144   0.02889  -0.00006   0.01252  -0.00315
 183       15F-2        0.00014   0.00050   0.01638   0.00029   0.00019
 184       15F+3       -0.00042  -0.00032   0.04296   0.00011  -0.00017
 185       15F-3        0.03178   0.00159   0.00075   0.00756   0.01091
 186       16F 0       -0.13660   0.00381  -0.00118  -0.03733   0.02517
 187       16F+1       -0.00060   0.00207  -0.00130   0.00052   0.00010
 188       16F-1       -0.05889  -0.18134  -0.00174  -0.19058   0.05352
 189       16F+2       -0.10029  -0.13248  -0.00126  -0.11217   0.02640
 190       16F-2       -0.00210  -0.00206  -0.03626  -0.00201  -0.00023
 191       16F+3       -0.00031   0.00004  -0.10365  -0.00112   0.00002
 192       16F-3       -0.03153   0.03695  -0.00116   0.02412  -0.00236
                         191       192
     Eigenvalues --     0.00000   0.00000
   1 1   O  1S          0.07127   0.07099
   2        2S          0.38111   0.36324
   3        3S          0.01085  -0.01499
   4        4S         -4.64212  -2.96434
   5        5S         -9.45992  -8.51723
   6        6PX         0.00010  -0.00005
   7        6PY         0.00000   0.00000
   8        6PZ        -0.00977   0.00440
   9        7PX        -0.00032   0.00042
  10        7PY         0.00001   0.00000
  11        7PZ         0.15328  -0.01103
  12        8PX         0.00750  -0.00332
  13        8PY         0.00031  -0.00003
  14        8PZ         2.75110   2.14738
  15        9PX        -0.01866  -0.01101
  16        9PY        -0.00155   0.00001
  17        9PZ        -1.38978  -0.04357
  18       10D 0        0.03868   0.04111
  19       10D+1        0.00003   0.00030
  20       10D-1        0.00001   0.00000
  21       10D+2       -0.02815  -0.01394
  22       10D-2       -0.00019  -0.00010
  23       11D 0       -0.31831  -0.21735
  24       11D+1       -0.00042  -0.00115
  25       11D-1       -0.00008   0.00000
  26       11D+2        0.08028   0.04298
  27       11D-2        0.00055   0.00030
  28       12D 0       -0.40839  -0.30917
  29       12D+1       -0.00260   0.00312
  30       12D-1       -0.00005   0.00002
  31       12D+2       -0.44747  -0.13118
  32       12D-2       -0.00309  -0.00091
  33       13F 0        0.00934  -0.00968
  34       13F+1       -0.00016   0.00000
  35       13F-1       -0.00001   0.00000
  36       13F+2       -0.01498  -0.00610
  37       13F-2       -0.00010  -0.00004
  38       13F+3        0.00018  -0.00006
  39       13F-3        0.00000   0.00000
  40       14F 0        0.12931   0.11634
  41       14F+1        0.00072   0.00013
  42       14F-1        0.00005   0.00000
  43       14F+2        0.06859   0.02577
  44       14F-2        0.00047   0.00018
  45       14F+3       -0.00041   0.00021
  46       14F-3       -0.00001   0.00000
  47 2   C  1S          0.20718   0.02752
  48        2S          1.14649   0.23991
  49        3S         -0.04747   0.10567
  50        4S          6.57811  12.28232
  51        5S         -2.31613  19.33004
  52        6PX         0.00032  -0.00014
  53        6PY         0.00000   0.00000
  54        6PZ         0.01966   0.00932
  55        7PX        -0.00315  -0.00014
  56        7PY        -0.00007   0.00001
  57        7PZ         1.05468   0.59738
  58        8PX        -0.00873  -0.01060
  59        8PY         0.00038  -0.00015
  60        8PZ         2.83383  -0.74126
  61        9PX         0.03640  -0.00927
  62        9PY         0.00339  -0.00019
  63        9PZ         7.25752  -0.54543
  64       10D 0        0.06275   0.04601
  65       10D+1       -0.00008  -0.00006
  66       10D-1        0.00000   0.00000
  67       10D+2        0.01285  -0.02113
  68       10D-2        0.00009  -0.00015
  69       11D 0        0.51364   0.20937
  70       11D+1       -0.00140   0.00065
  71       11D-1       -0.00022   0.00001
  72       11D+2       -0.05983  -0.02771
  73       11D-2       -0.00041  -0.00019
  74       12D 0        3.23266   1.63175
  75       12D+1        0.00513   0.01108
  76       12D-1        0.00032   0.00005
  77       12D+2        1.52239  -0.74786
  78       12D-2        0.01052  -0.00517
  79       13F 0        0.06143  -0.01192
  80       13F+1        0.00025  -0.00045
  81       13F-1       -0.00001   0.00000
  82       13F+2       -0.01156   0.00018
  83       13F-2       -0.00008   0.00000
  84       13F+3        0.00023   0.00008
  85       13F-3        0.00001   0.00000
  86       14F 0       -0.04833  -0.04250
  87       14F+1       -0.00249   0.00038
  88       14F-1       -0.00011   0.00001
  89       14F+2        0.23778   0.02130
  90       14F-2        0.00164   0.00015
  91       14F+3        0.00053  -0.00040
  92       14F-3       -0.00004   0.00000
  93 3   Cl 1S          0.00771   0.00044
  94        2S          0.13255  -0.01435
  95        3S          0.31363   0.00454
  96        4S         -0.10068   0.06707
  97        5S         -0.84311  -0.55468
  98        6S          4.70187 -10.20779
  99        7PX        -0.00008  -0.00001
 100        7PY        -0.00522   0.01043
 101        7PZ        -0.01713   0.00572
 102        8PX        -0.00134  -0.00014
 103        8PY        -0.08471   0.18082
 104        8PZ        -0.26886   0.10260
 105        9PX         0.00029   0.00004
 106        9PY         0.01881  -0.03701
 107        9PZ         0.06389  -0.02066
 108       10PX         0.00946   0.00122
 109       10PY        -0.80487  -2.88693
 110       10PZ         1.51783  -1.34589
 111       11PX        -0.00776   0.00007
 112       11PY         0.87512  -1.63169
 113       11PZ        -1.07952  -1.33359
 114       12D 0       -0.01818   0.00182
 115       12D+1       -0.00006   0.00011
 116       12D-1        0.00764  -0.00178
 117       12D+2        0.00348  -0.02312
 118       12D-2        0.00009  -0.00020
 119       13D 0        0.07464   0.00940
 120       13D+1       -0.00005  -0.00038
 121       13D-1       -0.04845  -0.00545
 122       13D+2        0.02039   0.10139
 123       13D-2       -0.00048   0.00064
 124       14D 0        0.28173   0.13342
 125       14D+1        0.00267   0.00065
 126       14D-1        0.14644  -0.76233
 127       14D+2        0.46904   0.63968
 128       14D-2        0.00339  -0.00081
 129       15F 0        0.00246  -0.01650
 130       15F+1       -0.00029   0.00007
 131       15F-1        0.01439   0.00801
 132       15F+2        0.00112  -0.04132
 133       15F-2       -0.00029  -0.00008
 134       15F+3       -0.00007  -0.00001
 135       15F-3       -0.00209  -0.03447
 136       16F 0       -0.00244   0.05460
 137       16F+1        0.00065  -0.00020
 138       16F-1       -0.01174  -0.02075
 139       16F+2        0.01819   0.13818
 140       16F-2        0.00072   0.00024
 141       16F+3        0.00010   0.00011
 142       16F-3        0.04802   0.11636
 143 4   Cl 1S          0.00771   0.00044
 144        2S          0.13245  -0.01436
 145        3S          0.31340   0.00452
 146        4S         -0.10058   0.06707
 147        5S         -0.84261  -0.55450
 148        6S          4.69956 -10.20729
 149        7PX        -0.00011   0.00006
 150        7PY         0.00521  -0.01043
 151        7PZ        -0.01714   0.00572
 152        8PX        -0.00192   0.00111
 153        8PY         0.08470  -0.18082
 154        8PZ        -0.26893   0.10261
 155        9PX         0.00042  -0.00021
 156        9PY        -0.01880   0.03701
 157        9PZ         0.06390  -0.02066
 158       10PX         0.00390  -0.01873
 159       10PY         0.80500   2.88671
 160       10PZ         1.51749  -1.34577
 161       11PX        -0.00171  -0.01121
 162       11PY        -0.87724   1.63171
 163       11PZ        -1.08021  -1.33351
 164       12D 0       -0.01818   0.00182
 165       12D+1       -0.00001   0.00010
 166       12D-1       -0.00765   0.00178
 167       12D+2        0.00344  -0.02312
 168       12D-2       -0.00005  -0.00012
 169       13D 0        0.07463   0.00940
 170       13D+1       -0.00038  -0.00042
 171       13D-1        0.04855   0.00544
 172       13D+2        0.02057   0.10138
 173       13D-2        0.00076   0.00076
 174       14D 0        0.28150   0.13344
 175       14D+1        0.00369  -0.00462
 176       14D-1       -0.14636   0.76228
 177       14D+2        0.46861   0.63961
 178       14D-2        0.00309   0.00965
 179       15F 0        0.00245  -0.01650
 180       15F+1       -0.00019   0.00013
 181       15F-1       -0.01440  -0.00801
 182       15F+2        0.00111  -0.04132
 183       15F-2        0.00030  -0.00049
 184       15F+3       -0.00011  -0.00072
 185       15F-3        0.00210   0.03447
 186       16F 0       -0.00241   0.05460
 187       16F+1        0.00057  -0.00034
 188       16F-1        0.01181   0.02074
 189       16F+2        0.01823   0.13817
 190       16F-2       -0.00047   0.00167
 191       16F+3        0.00109   0.00252
 192       16F-3       -0.04802  -0.11634
          Condensed to atoms (all electrons):
              1          2          3          4
     1  O    8.034130   0.435602  -0.074465  -0.074461
     2  C    0.435602   4.966563   0.136371   0.136386
     3  Cl  -0.074465   0.136371  17.040658  -0.100441
     4  Cl  -0.074461   0.136386  -0.100441  17.040668
 Mulliken atomic charges:
              1
     1  O   -0.320805
     2  C    0.325078
     3  Cl  -0.002122
     4  Cl  -0.002151
 Sum of Mulliken atomic charges =   0.00000
 Mulliken charges with hydrogens summed into heavy atoms:
              1
     1  O   -0.320805
     2  C    0.325078
     3  Cl  -0.002122
     4  Cl  -0.002151
 Sum of Mulliken charges with hydrogens summed into heavy atoms =   0.00000
 Electronic spatial extent (au):  <R**2>=            613.6925
 Charge=              0.0000 electrons
 Dipole moment (field-independent basis, Debye):
    X=             -0.0001    Y=             -0.0001    Z=             -1.2392  Tot=              1.2392
 Quadrupole moment (field-independent basis, Debye-Ang):
   XX=            -35.0849   YY=            -34.3837   ZZ=            -36.2852
   XY=             -0.0024   XZ=              0.0031   YZ=              0.0002
 Traceless Quadrupole moment (field-independent basis, Debye-Ang):
   XX=              0.1663   YY=              0.8676   ZZ=             -1.0339
   XY=             -0.0024   XZ=              0.0031   YZ=              0.0002
 Octapole moment (field-independent basis, Debye-Ang**2):
  XXX=              0.3767  YYY=             -0.0008  ZZZ=            106.2012  XYY=              0.0881
  XXY=              0.0001  XXZ=             36.0666  XZZ=              0.1057  YZZ=             -0.0005
  YYZ=             29.7046  XYZ=              0.0220
 Hexadecapole moment (field-independent basis, Debye-Ang**3):
 XXXX=            -37.1390 YYYY=           -329.2948 ZZZZ=           -383.1008 XXXY=              0.5482
 XXXZ=             -0.5543 YYYX=              0.4614 YYYZ=              0.0013 ZZZX=             -0.5010
 ZZZY=              0.0012 XXYY=            -65.2570 XXZZ=            -71.0867 YYZZ=           -106.8882
 XXYZ=             -0.0004 YYXZ=             -0.0936 ZZXY=              0.1237
 N-N= 1.917648614567D+02 E-N=-2.837759021222D+03  KE= 1.032422029355D+03
 1\1\GINC-TRAPISTA\SP\RQCISD-FC\Aug-CC-pVTZ\C1Cl2O1\BRUNS\27-Nov-2021\0
 \\# qcisd/aug-cc-pvtz nosymm density=current output=wfn\\cl2co-wavefun
 ction\\0,1\O,0,0.,0.,0.683397\C,0,0.,0.,-0.494687\Cl,0,0.,-1.44687,-1.
 469805\Cl,0,-0.01,1.44687,-1.469805\\Version=EM64L-G09RevB.01\HF=-1031
 .8027409\MP2=-1032.5821502\MP3=-1032.6012049\MP4D=-1032.6208713\MP4DQ=
 -1032.5983508\MP4SDQ=-1032.6073327\QCISD=-1032.6056017\RMSD=4.652e-09\
 Dipole=-0.0000246,-0.0000505,-0.4875381\Quadrupole=0.1236769,0.6450036
 ,-0.7686805,-0.0018012,0.0022838,0.0001543\PG=C01 [X(C1Cl2O1)]\\@

 Writing a WFN file to GAUSSIAN.wfn.


 Just remember, when you're over the hill, you begin to pick up speed.
 -- Charles Schulz
 Job cpu time:  0 days  2 hours  9 minutes 28.3 seconds.
 File lengths (MBytes):  RWF=  18183 Int=      0 D2E=      0 Chk=      3 Scr=      1
 Normal termination of Gaussian 09 at Sat Nov 27 17:23:12 2021.
