 cl2co-wavefunction
GAUSSIAN            192 MOL ORBITALS    372 PRIMITIVES        4 NUCLEI
  O    1    (CENTRE  1)   0.00000000  0.01889726  1.29143317  CHARGE =  8.0
  C    2    (CENTRE  2)   0.00000000  0.00000000 -0.93482295  CHARGE =  6.0
  Cl   3    (CENTRE  3)   0.00000000 -2.73418805 -2.77752892  CHARGE = 17.0
  Cl   4    (CENTRE  4)   0.00000000  2.73418805 -2.77752892  CHARGE = 17.0
CENTRE ASSIGNMENTS    1  1  1  1  1  1  1  1  1  1  1  1  1  1  1  1  1  1  1  1
CENTRE ASSIGNMENTS    1  1  1  1  1  1  1  1  1  1  1  1  1  1  1  1  1  1  1  1
CENTRE ASSIGNMENTS    1  1  1  1  1  1  1  1  1  1  1  1  1  1  1  1  1  1  1  1
CENTRE ASSIGNMENTS    1  1  1  1  1  1  1  1  1  1  1  1  2  2  2  2  2  2  2  2
CENTRE ASSIGNMENTS    2  2  2  2  2  2  2  2  2  2  2  2  2  2  2  2  2  2  2  2
CENTRE ASSIGNMENTS    2  2  2  2  2  2  2  2  2  2  2  2  2  2  2  2  2  2  2  2
CENTRE ASSIGNMENTS    2  2  2  2  2  2  2  2  2  2  2  2  2  2  2  2  2  2  2  2
CENTRE ASSIGNMENTS    2  2  2  2  3  3  3  3  3  3  3  3  3  3  3  3  3  3  3  3
CENTRE ASSIGNMENTS    3  3  3  3  3  3  3  3  3  3  3  3  3  3  3  3  3  3  3  3
CENTRE ASSIGNMENTS    3  3  3  3  3  3  3  3  3  3  3  3  3  3  3  3  3  3  3  3
CENTRE ASSIGNMENTS    3  3  3  3  3  3  3  3  3  3  3  3  3  3  3  3  3  3  3  3
CENTRE ASSIGNMENTS    3  3  3  3  3  3  3  3  3  3  3  3  3  3  3  3  3  3  3  3
CENTRE ASSIGNMENTS    3  3  3  3  3  3  3  3  3  3  3  3  3  3  3  3  3  3  4  4
CENTRE ASSIGNMENTS    4  4  4  4  4  4  4  4  4  4  4  4  4  4  4  4  4  4  4  4
CENTRE ASSIGNMENTS    4  4  4  4  4  4  4  4  4  4  4  4  4  4  4  4  4  4  4  4
CENTRE ASSIGNMENTS    4  4  4  4  4  4  4  4  4  4  4  4  4  4  4  4  4  4  4  4
CENTRE ASSIGNMENTS    4  4  4  4  4  4  4  4  4  4  4  4  4  4  4  4  4  4  4  4
CENTRE ASSIGNMENTS    4  4  4  4  4  4  4  4  4  4  4  4  4  4  4  4  4  4  4  4
CENTRE ASSIGNMENTS    4  4  4  4  4  4  4  4  4  4  4  4
TYPE ASSIGNMENTS      1  1  1  1  1  1  1  1  1  1  1  1  1  1  1  1  2  2  2  3
TYPE ASSIGNMENTS      3  3  4  4  4  2  3  4  2  3  4  2  3  4  5  6  7  8  9 10
TYPE ASSIGNMENTS      5  6  7  8  9 10  5  6  7  8  9 10 11 12 13 17 14 15 18 19
TYPE ASSIGNMENTS     16 20 11 12 13 17 14 15 18 19 16 20  1  1  1  1  1  1  1  1
TYPE ASSIGNMENTS      1  1  1  1  1  1  1  1  2  2  2  3  3  3  4  4  4  2  3  4
TYPE ASSIGNMENTS      2  3  4  2  3  4  5  6  7  8  9 10  5  6  7  8  9 10  5  6
TYPE ASSIGNMENTS      7  8  9 10 11 12 13 17 14 15 18 19 16 20 11 12 13 17 14 15
TYPE ASSIGNMENTS     18 19 16 20  1  1  1  1  1  1  1  1  1  1  1  1  1  1  1  1
TYPE ASSIGNMENTS      1  1  1  1  1  1  1  1  1  1  1  1  1  1  1  2  2  2  2  2
TYPE ASSIGNMENTS      2  3  3  3  3  3  3  4  4  4  4  4  4  2  2  2  2  2  2  3
TYPE ASSIGNMENTS      3  3  3  3  3  4  4  4  4  4  4  2  3  4  2  3  4  2  3  4
TYPE ASSIGNMENTS      5  6  7  8  9 10  5  6  7  8  9 10  5  6  7  8  9 10 11 12
TYPE ASSIGNMENTS     13 17 14 15 18 19 16 20 11 12 13 17 14 15 18 19 16 20  1  1
TYPE ASSIGNMENTS      1  1  1  1  1  1  1  1  1  1  1  1  1  1  1  1  1  1  1  1
TYPE ASSIGNMENTS      1  1  1  1  1  1  1  1  1  2  2  2  2  2  2  3  3  3  3  3
TYPE ASSIGNMENTS      3  4  4  4  4  4  4  2  2  2  2  2  2  3  3  3  3  3  3  4
TYPE ASSIGNMENTS      4  4  4  4  4  2  3  4  2  3  4  2  3  4  5  6  7  8  9 10
TYPE ASSIGNMENTS      5  6  7  8  9 10  5  6  7  8  9 10 11 12 13 17 14 15 18 19
TYPE ASSIGNMENTS     16 20 11 12 13 17 14 15 18 19 16 20
EXPONENTS  0.1533000D+05 0.2299000D+04 0.5224000D+03 0.1473000D+03 0.4755000D+02
EXPONENTS  0.1676000D+02 0.6207000D+01 0.5224000D+03 0.1473000D+03 0.4755000D+02
EXPONENTS  0.1676000D+02 0.6207000D+01 0.6882000D+00 0.1752000D+01 0.2384000D+00
EXPONENTS  0.7376000D-01 0.3446000D+02 0.7749000D+01 0.2280000D+01 0.3446000D+02
EXPONENTS  0.7749000D+01 0.2280000D+01 0.3446000D+02 0.7749000D+01 0.2280000D+01
EXPONENTS  0.7156000D+00 0.7156000D+00 0.7156000D+00 0.2140000D+00 0.2140000D+00
EXPONENTS  0.2140000D+00 0.5974000D-01 0.5974000D-01 0.5974000D-01 0.2314000D+01
EXPONENTS  0.2314000D+01 0.2314000D+01 0.2314000D+01 0.2314000D+01 0.2314000D+01
EXPONENTS  0.6450000D+00 0.6450000D+00 0.6450000D+00 0.6450000D+00 0.6450000D+00
EXPONENTS  0.6450000D+00 0.2140000D+00 0.2140000D+00 0.2140000D+00 0.2140000D+00
EXPONENTS  0.2140000D+00 0.2140000D+00 0.1428000D+01 0.1428000D+01 0.1428000D+01
EXPONENTS  0.1428000D+01 0.1428000D+01 0.1428000D+01 0.1428000D+01 0.1428000D+01
EXPONENTS  0.1428000D+01 0.1428000D+01 0.5000000D+00 0.5000000D+00 0.5000000D+00
EXPONENTS  0.5000000D+00 0.5000000D+00 0.5000000D+00 0.5000000D+00 0.5000000D+00
EXPONENTS  0.5000000D+00 0.5000000D+00 0.8236000D+04 0.1235000D+04 0.2808000D+03
EXPONENTS  0.7927000D+02 0.2559000D+02 0.8997000D+01 0.3319000D+01 0.2808000D+03
EXPONENTS  0.7927000D+02 0.2559000D+02 0.8997000D+01 0.3319000D+01 0.3643000D+00
EXPONENTS  0.9059000D+00 0.1285000D+00 0.4402000D-01 0.1871000D+02 0.4133000D+01
EXPONENTS  0.1200000D+01 0.1871000D+02 0.4133000D+01 0.1200000D+01 0.1871000D+02
EXPONENTS  0.4133000D+01 0.1200000D+01 0.3827000D+00 0.3827000D+00 0.3827000D+00
EXPONENTS  0.1209000D+00 0.1209000D+00 0.1209000D+00 0.3569000D-01 0.3569000D-01
EXPONENTS  0.3569000D-01 0.1097000D+01 0.1097000D+01 0.1097000D+01 0.1097000D+01
EXPONENTS  0.1097000D+01 0.1097000D+01 0.3180000D+00 0.3180000D+00 0.3180000D+00
EXPONENTS  0.3180000D+00 0.3180000D+00 0.3180000D+00 0.1000000D+00 0.1000000D+00
EXPONENTS  0.1000000D+00 0.1000000D+00 0.1000000D+00 0.1000000D+00 0.7610000D+00
EXPONENTS  0.7610000D+00 0.7610000D+00 0.7610000D+00 0.7610000D+00 0.7610000D+00
EXPONENTS  0.7610000D+00 0.7610000D+00 0.7610000D+00 0.7610000D+00 0.2680000D+00
EXPONENTS  0.2680000D+00 0.2680000D+00 0.2680000D+00 0.2680000D+00 0.2680000D+00
EXPONENTS  0.2680000D+00 0.2680000D+00 0.2680000D+00 0.2680000D+00 0.4561000D+06
EXPONENTS  0.6833000D+05 0.1555000D+05 0.4405000D+04 0.1439000D+04 0.5204000D+03
EXPONENTS  0.2031000D+03 0.8396000D+02 0.3620000D+02 0.1583000D+02 0.6334000D+01
EXPONENTS  0.4405000D+04 0.1439000D+04 0.5204000D+03 0.2031000D+03 0.8396000D+02
EXPONENTS  0.3620000D+02 0.1583000D+02 0.6334000D+01 0.2694000D+01 0.1439000D+04
EXPONENTS  0.2031000D+03 0.8396000D+02 0.3620000D+02 0.1583000D+02 0.6334000D+01
EXPONENTS  0.2694000D+01 0.4313000D+00 0.9768000D+00 0.1625000D+00 0.5910000D-01
EXPONENTS  0.6633000D+03 0.1568000D+03 0.4998000D+02 0.1842000D+02 0.7240000D+01
EXPONENTS  0.2922000D+01 0.6633000D+03 0.1568000D+03 0.4998000D+02 0.1842000D+02
EXPONENTS  0.7240000D+01 0.2922000D+01 0.6633000D+03 0.1568000D+03 0.4998000D+02
EXPONENTS  0.1842000D+02 0.7240000D+01 0.2922000D+01 0.1568000D+03 0.4998000D+02
EXPONENTS  0.1842000D+02 0.7240000D+01 0.2922000D+01 0.3818000D+00 0.1568000D+03
EXPONENTS  0.4998000D+02 0.1842000D+02 0.7240000D+01 0.2922000D+01 0.3818000D+00
EXPONENTS  0.1568000D+03 0.4998000D+02 0.1842000D+02 0.7240000D+01 0.2922000D+01
EXPONENTS  0.3818000D+00 0.1022000D+01 0.1022000D+01 0.1022000D+01 0.1301000D+00
EXPONENTS  0.1301000D+00 0.1301000D+00 0.4190000D-01 0.4190000D-01 0.4190000D-01
EXPONENTS  0.1046000D+01 0.1046000D+01 0.1046000D+01 0.1046000D+01 0.1046000D+01
EXPONENTS  0.1046000D+01 0.3440000D+00 0.3440000D+00 0.3440000D+00 0.3440000D+00
EXPONENTS  0.3440000D+00 0.3440000D+00 0.1350000D+00 0.1350000D+00 0.1350000D+00
EXPONENTS  0.1350000D+00 0.1350000D+00 0.1350000D+00 0.7060000D+00 0.7060000D+00
EXPONENTS  0.7060000D+00 0.7060000D+00 0.7060000D+00 0.7060000D+00 0.7060000D+00
EXPONENTS  0.7060000D+00 0.7060000D+00 0.7060000D+00 0.3120000D+00 0.3120000D+00
EXPONENTS  0.3120000D+00 0.3120000D+00 0.3120000D+00 0.3120000D+00 0.3120000D+00
EXPONENTS  0.3120000D+00 0.3120000D+00 0.3120000D+00 0.4561000D+06 0.6833000D+05
EXPONENTS  0.1555000D+05 0.4405000D+04 0.1439000D+04 0.5204000D+03 0.2031000D+03
EXPONENTS  0.8396000D+02 0.3620000D+02 0.1583000D+02 0.6334000D+01 0.4405000D+04
EXPONENTS  0.1439000D+04 0.5204000D+03 0.2031000D+03 0.8396000D+02 0.3620000D+02
EXPONENTS  0.1583000D+02 0.6334000D+01 0.2694000D+01 0.1439000D+04 0.2031000D+03
EXPONENTS  0.8396000D+02 0.3620000D+02 0.1583000D+02 0.6334000D+01 0.2694000D+01
EXPONENTS  0.4313000D+00 0.9768000D+00 0.1625000D+00 0.5910000D-01 0.6633000D+03
EXPONENTS  0.1568000D+03 0.4998000D+02 0.1842000D+02 0.7240000D+01 0.2922000D+01
EXPONENTS  0.6633000D+03 0.1568000D+03 0.4998000D+02 0.1842000D+02 0.7240000D+01
EXPONENTS  0.2922000D+01 0.6633000D+03 0.1568000D+03 0.4998000D+02 0.1842000D+02
EXPONENTS  0.7240000D+01 0.2922000D+01 0.1568000D+03 0.4998000D+02 0.1842000D+02
EXPONENTS  0.7240000D+01 0.2922000D+01 0.3818000D+00 0.1568000D+03 0.4998000D+02
EXPONENTS  0.1842000D+02 0.7240000D+01 0.2922000D+01 0.3818000D+00 0.1568000D+03
EXPONENTS  0.4998000D+02 0.1842000D+02 0.7240000D+01 0.2922000D+01 0.3818000D+00
EXPONENTS  0.1022000D+01 0.1022000D+01 0.1022000D+01 0.1301000D+00 0.1301000D+00
EXPONENTS  0.1301000D+00 0.4190000D-01 0.4190000D-01 0.4190000D-01 0.1046000D+01
EXPONENTS  0.1046000D+01 0.1046000D+01 0.1046000D+01 0.1046000D+01 0.1046000D+01
EXPONENTS  0.3440000D+00 0.3440000D+00 0.3440000D+00 0.3440000D+00 0.3440000D+00
EXPONENTS  0.3440000D+00 0.1350000D+00 0.1350000D+00 0.1350000D+00 0.1350000D+00
EXPONENTS  0.1350000D+00 0.1350000D+00 0.7060000D+00 0.7060000D+00 0.7060000D+00
EXPONENTS  0.7060000D+00 0.7060000D+00 0.7060000D+00 0.7060000D+00 0.7060000D+00
EXPONENTS  0.7060000D+00 0.7060000D+00 0.3120000D+00 0.3120000D+00 0.3120000D+00
EXPONENTS  0.3120000D+00 0.3120000D+00 0.3120000D+00 0.3120000D+00 0.3120000D+00
EXPONENTS  0.3120000D+00 0.3120000D+00
MO    1     MO 0.0        OCC NO =    2.0000387  ORB. ENERGY =    0.000000
  0.96013861D-04  0.17895405D-03  0.30344174D-03  0.45922681D-03  0.57284924D-03
  0.49158988D-03  0.18825281D-03  0.10096632D-06  0.10833024D-05  0.39932565D-05
  0.11676048D-04  0.14070205D-04 -0.16949053D-04  0.56542364D-05 -0.99847869D-05
  0.11307753D-05 -0.57004320D-12 -0.55275015D-12 -0.37288199D-12 -0.87625773D-03
 -0.84967524D-03 -0.57318590D-03  0.29926598D-04  0.29018734D-04  0.19575866D-04
 -0.16277754D-12 -0.94134341D-03  0.81811063D-05 -0.33869591D-13 -0.75990651D-03
  0.78805896D-05  0.20024150D-14 -0.19860767D-04  0.43190060D-06  0.91731975D-05
 -0.19879534D-04  0.10706336D-04  0.21932450D-13 -0.41358606D-13 -0.20037890D-03
 -0.96466394D-05  0.10429749D-04 -0.78310973D-06  0.59054945D-14  0.18374239D-13
 -0.70782295D-04 -0.14613428D-05  0.42068571D-05 -0.27455143D-05 -0.29825084D-13
  0.22102740D-14  0.11215105D-03  0.83978714D-14 -0.14707611D-03 -0.97348486D-05
 -0.34868335D-13  0.22200451D-03  0.58732315D-05  0.96747211D-14  0.21922381D-03
  0.23331314D-04 -0.13902901D-12 -0.35624995D-14 -0.10327270D-04  0.20019451D-05
  0.14708598D-13 -0.20027099D-03  0.27455004D-05 -0.40211000D-14  0.23125280D-03
 -0.87513357D-05  0.44787780D-13 -0.67601669D-04 -0.12602313D-03 -0.21299626D-03
 -0.32017310D-03 -0.39327531D-03 -0.33191049D-03 -0.12480701D-03 -0.53759206D-07
 -0.40181676D-06 -0.15016810D-05 -0.41894561D-05 -0.56127161D-05  0.66275712D-05
  0.21532818D-05 -0.32517171D-05 -0.35994208D-06  0.40286842D-12  0.37771475D-12
  0.26895540D-12  0.11087732D-02  0.10395453D-02  0.74021820D-03 -0.84367496D-05
 -0.79099890D-05 -0.56323834D-05  0.89818043D-13  0.14417433D-03  0.21712300D-06
  0.93503105D-14  0.71676974D-04  0.34390737D-05 -0.20754649D-14 -0.87342921D-05
 -0.22749437D-06  0.15737952D-05  0.66134484D-05 -0.81872436D-05  0.22898109D-12
 -0.11620350D-12  0.18427764D-03  0.22125625D-05 -0.37771149D-05  0.15645524D-05
 -0.80276285D-14  0.96314638D-14  0.74508435D-04  0.14730063D-06  0.63045733D-06
 -0.77775796D-06  0.13725638D-13 -0.47968805D-14  0.54671606D-04 -0.88036236D-14
  0.25490805D-03  0.19028929D-05  0.12967631D-13  0.37182471D-04  0.40799717D-05
  0.13443239D-13 -0.80190663D-03 -0.97886505D-05 -0.64138750D-13  0.32503108D-14
 -0.25892980D-03 -0.70447800D-06 -0.12191624D-13  0.27244211D-04  0.77994322D-06
  0.24406911D-14  0.74954520D-03  0.13334908D-05  0.67074453D-13 -0.20390680D-03
 -0.38148787D-03 -0.65912642D-03 -0.10685214D-02 -0.16226522D-02 -0.22553339D-02
 -0.26814192D-02 -0.23887014D-02 -0.11862796D-02 -0.19098099D-03 -0.20149622D-05
 -0.12624419D-05 -0.42112948D-04 -0.14675519D-03 -0.52848921D-03 -0.11649887D-02
 -0.16399281D-02  0.78229914D-04  0.21461307D-02  0.12689936D-02  0.28287982D-06
  0.34263655D-05  0.71453239D-05  0.20491545D-04  0.10640974D-05 -0.88369480D-04
 -0.22832977D-03  0.18603235D-03  0.61412568D-04 -0.95809758D-04 -0.57382701D-04
  0.67860302D-09  0.89387892D-09  0.98608837D-09  0.81902360D-09  0.43492426D-09
  0.11221273D-09 -0.46394281D+01 -0.61112121D+01 -0.67416236D+01 -0.55994462D+01
 -0.29734613D+01 -0.76716856D+00  0.67007777D+01  0.88264917D+01  0.97370020D+01
  0.80873426D+01  0.42946033D+01  0.11080301D+01 -0.33772588D-13  0.32649165D-12
  0.46038731D-12  0.65847564D-12 -0.33344280D-14 -0.60388427D-12  0.23641215D-03
 -0.22854806D-02 -0.32227662D-02 -0.46094081D-02  0.23341394D-04  0.42272620D-02
 -0.33101487D-03  0.32000388D-02  0.45123887D-02  0.64539096D-02 -0.32681690D-04
 -0.59188438D-02  0.43506113D-11 -0.29776824D-01  0.43221728D-01 -0.41922831D-13
  0.34428945D-03 -0.55309277D-03 -0.35683889D-15  0.10832952D-04 -0.17022337D-04
 -0.14016559D-04 -0.74435731D-03  0.75837387D-03  0.12466347D-12  0.49152613D-13
  0.68082686D-03  0.58186357D-04  0.43016398D-03 -0.48835033D-03 -0.44199595D-13
 -0.32073721D-13 -0.34633458D-03  0.47394952D-05 -0.14650337D-05 -0.32744615D-05
  0.32310163D-14  0.76098916D-14 -0.48455142D-05  0.52427527D-14 -0.14260199D-04
 -0.21987533D-05  0.11712601D-13  0.18649016D-04  0.36667955D-04 -0.27440859D-13
  0.24131582D-04 -0.30071695D-04 -0.37578968D-14 -0.32634691D-15  0.74574177D-04
 -0.42320184D-04 -0.10683749D-13  0.11651254D-04  0.51062872D-04  0.11662790D-13
 -0.23537379D-03  0.75897680D-04 -0.13215367D-13  0.34044906D-03  0.63694387D-03
  0.11004977D-02  0.17840361D-02  0.27092300D-02  0.37655748D-02  0.44769800D-02
  0.39882493D-02  0.19806489D-02  0.31886772D-03  0.33642428D-05  0.19023830D-05
  0.63460311D-04  0.22114648D-03  0.79638428D-03  0.17555300D-02  0.24712197D-02
 -0.11788523D-03 -0.32340201D-02 -0.19122559D-02 -0.26823171D-06 -0.32489410D-05
 -0.67753240D-05 -0.19430450D-04 -0.10089962D-05  0.83793523D-04  0.21650637D-03
 -0.17639920D-03 -0.10269970D-03  0.10618529D-03  0.56934391D-04 -0.24682224D-08
 -0.32512263D-08 -0.35866116D-08 -0.29789617D-08 -0.15819113D-08 -0.40814140D-09
 -0.46877529D+01 -0.61748672D+01 -0.68118452D+01 -0.56577708D+01 -0.30044333D+01
 -0.77515949D+00 -0.68367717D+01 -0.90056277D+01 -0.99346170D+01 -0.82514773D+01
 -0.43817634D+01 -0.11305179D+01  0.10393936D-12 -0.10048189D-11 -0.14168995D-11
 -0.20265411D-11  0.10262119D-13  0.18585293D-11  0.23843025D-03 -0.23049902D-02
 -0.32502768D-02 -0.46487557D-02  0.23540644D-04  0.42633474D-02  0.33752731D-03
 -0.32629969D-02 -0.46011662D-02 -0.65808848D-02  0.33324674D-04  0.60352920D-02
 -0.16205294D-10 -0.30086153D-01 -0.44106501D-01  0.12196496D-12  0.34385672D-03
  0.56098129D-03  0.54721938D-14  0.11047859D-04  0.17389693D-04  0.14844926D-04
  0.75069917D-03 -0.76554409D-03  0.22127699D-12 -0.14557766D-12  0.69337275D-03
 -0.58875418D-04 -0.43404027D-03  0.49291569D-03 -0.13622486D-12  0.89037600D-13
 -0.35819669D-03 -0.47939451D-05  0.21711851D-05  0.26227600D-05  0.50226616D-14
 -0.64356888D-14 -0.49304305D-05 -0.40163480D-14 -0.13450857D-04  0.30646647D-05
 -0.31296265D-14  0.18359427D-04 -0.37407581D-04  0.15178671D-13  0.21993145D-04
  0.28213586D-04  0.50901101D-14 -0.69374184D-14  0.75548541D-04  0.41854574D-04
  0.23839313D-13  0.11173916D-04 -0.51687026D-04 -0.30270579D-14 -0.23781954D-03
 -0.73876695D-04 -0.42788327D-13
MO    2     MO 0.0        OCC NO =    2.0000377  ORB. ENERGY =    0.000000
  0.55193859D-02  0.10287228D-01  0.17443440D-01  0.26398792D-01  0.32930412D-01
  0.28259193D-01  0.10821770D-01  0.87290159D-06  0.93656612D-05  0.34523591D-04
  0.10094495D-03  0.12164358D-03 -0.14653258D-03  0.54193573D-03  0.20357924D-03
  0.29994033D-03  0.12842121D-11  0.12452538D-11  0.84004085D-12  0.15903682D-04
  0.15421222D-04  0.10403065D-04  0.15915797D-02  0.15432969D-02  0.10410990D-02
  0.36189869D-12  0.22091450D-04  0.58557188D-03  0.63858935D-13  0.33227858D-05
  0.49682920D-03 -0.41491699D-14 -0.84055818D-06  0.10504257D-04  0.13167078D-03
 -0.21735729D-03  0.85686501D-04 -0.22077676D-13  0.84453180D-13 -0.65989256D-06
 -0.76304262D-04  0.24733707D-03 -0.17103281D-03 -0.10208644D-13 -0.26116861D-13
 -0.12271736D-04  0.58130754D-04  0.22101918D-04 -0.80232672D-04  0.37843227D-13
 -0.42076754D-15 -0.20206607D-05 -0.18123957D-13 -0.14355537D-05  0.33019255D-04
  0.91232821D-13 -0.88229600D-05 -0.37539197D-04 -0.36860949D-13  0.13129621D-04
 -0.61518568D-04  0.17656410D-12  0.92444880D-14 -0.74965343D-06  0.34683191D-04
 -0.32218557D-13  0.28684573D-05  0.32310497D-04  0.44850929D-14 -0.61949702D-06
 -0.13636007D-03 -0.56318593D-13 -0.38858839D-02 -0.72440704D-02 -0.12243466D-01
 -0.18404213D-01 -0.22606279D-01 -0.19078902D-01 -0.71741654D-02 -0.41656155D-05
 -0.31135395D-04 -0.11636008D-03 -0.32462650D-03 -0.43491001D-03  0.51354763D-03
 -0.10468235D-03 -0.12322124D-04  0.85678167D-04 -0.94069086D-12 -0.88195748D-12
 -0.62800627D-12  0.19296021D-05  0.18091246D-05  0.12882045D-05  0.97978545D-03
  0.91861114D-03  0.65410586D-03 -0.19737946D-12  0.12254656D-05  0.82772237D-03
 -0.14508274D-13 -0.34767269D-05 -0.20433189D-03  0.41345167D-14  0.27722498D-06
 -0.21912895D-04 -0.68448328D-04  0.68314743D-03 -0.61469911D-03 -0.28972809D-12
  0.26437485D-12 -0.52376509D-05  0.82254942D-04 -0.16592133D-03  0.83666387D-04
  0.11914032D-13 -0.99539538D-14  0.49735446D-06 -0.13275155D-06  0.11552528D-03
 -0.11539252D-03 -0.17162397D-13  0.10622133D-13 -0.65312760D-06  0.20698428D-13
 -0.26222130D-05  0.13660778D-03 -0.38274663D-13 -0.35458505D-07 -0.17583667D-03
 -0.23820620D-13  0.79020975D-05 -0.23398667D-03  0.84364318D-13 -0.86702034D-14
  0.22510489D-05 -0.68575743D-04  0.28612484D-13  0.35321497D-06  0.94801515D-04
 -0.26018739D-14 -0.71063618D-05  0.11092571D-03 -0.84865173D-13 -0.15281843D-02
 -0.28590698D-02 -0.49398385D-02 -0.80080586D-02 -0.12161005D-01 -0.16902653D-01
 -0.20095960D-01 -0.17902179D-01 -0.88906008D-02 -0.14313115D-02 -0.15101182D-04
 -0.74665986D-05 -0.24907323D-03 -0.86797034D-03 -0.31257017D-02 -0.68902205D-02
 -0.96992066D-02  0.46268377D-03  0.12693096D-01  0.75053483D-02  0.86229407D-07
  0.10444487D-05  0.21780876D-05  0.62463761D-05  0.32436562D-06 -0.26937403D-04
 -0.69601077D-04  0.56707681D-04  0.34342690D-03 -0.19459953D-03 -0.16694332D-03
  0.95193633D-10  0.12539228D-09  0.13832732D-09  0.11489167D-09  0.61010664D-10
  0.15741070D-10  0.41614119D+01  0.54815529D+01  0.60470110D+01  0.50225161D+01
  0.26670954D+01  0.68812455D+00 -0.71641822D+01 -0.94369039D+01 -0.10410382D+02
 -0.86466375D+01 -0.45916045D+01 -0.11846580D+01  0.51479988D-14 -0.49767540D-13
 -0.70177426D-13 -0.10037228D-12  0.50827112D-15  0.92050851D-13 -0.17882592D-03
  0.17287740D-02  0.24377517D-02  0.34866299D-02 -0.17655803D-04 -0.31975684D-02
  0.33523437D-03 -0.32408302D-02 -0.45699088D-02 -0.65361785D-02  0.33098288D-04
  0.59942922D-02  0.80217532D-12  0.26771695D-01 -0.46383062D-01  0.71208868D-14
 -0.17154493D-03  0.22272817D-03 -0.19421342D-14 -0.11798069D-04  0.72037796D-05
  0.21450502D-04  0.43583355D-03 -0.45728405D-03 -0.10743001D-12 -0.97996724D-14
 -0.40049292D-03  0.49176521D-05 -0.27860285D-03  0.27368520D-03  0.65236849D-14
  0.10050708D-13  0.45017630D-03 -0.65467222D-06  0.38168115D-04 -0.37513443D-04
 -0.38507163D-14 -0.10435277D-13 -0.16944623D-04 -0.76481039D-14 -0.32837692D-04
  0.10094953D-04 -0.17547613D-13  0.51263290D-04  0.48876866D-05  0.40491925D-13
  0.47249787D-04 -0.35172546D-04  0.39985426D-14  0.43606139D-14 -0.48739125D-04
 -0.13056964D-04  0.60833446D-14  0.14311355D-04 -0.40190391D-04 -0.19165186D-13
  0.13190602D-03  0.79361284D-04  0.77573175D-15 -0.14253219D-02 -0.26666251D-02
 -0.46073367D-02 -0.74690342D-02 -0.11342445D-01 -0.15764932D-01 -0.18743296D-01
 -0.16697179D-01 -0.82921722D-02 -0.13349696D-02 -0.14084717D-04 -0.69864755D-05
 -0.23305713D-03 -0.81215743D-03 -0.29247104D-02 -0.64471601D-02 -0.90755206D-02
  0.43293191D-03  0.11876895D-01  0.70227335D-02  0.97703003D-07  0.11834220D-05
  0.24679017D-05  0.70775125D-05  0.36752537D-06 -0.30521666D-04 -0.78862124D-04
  0.64253147D-04  0.31243142D-03 -0.18682166D-03 -0.16810092D-03  0.40166685D-08
  0.52908920D-08  0.58366821D-08  0.48478215D-08  0.25743277D-08  0.66419001D-09
 -0.40462935D+01 -0.53299152D+01 -0.58797307D+01 -0.48835768D+01 -0.25933148D+01
 -0.66908877D+00 -0.70711173D+01 -0.93143156D+01 -0.10275148D+02 -0.85343151D+01
 -0.45319581D+01 -0.11692689D+01 -0.16614168D-12  0.16061508D-11  0.22648403D-11
  0.32393208D-11 -0.16403465D-13 -0.29707627D-11  0.17290716D-03 -0.16715552D-02
 -0.23570673D-02 -0.33712298D-02  0.17071433D-04  0.30917357D-02  0.33069294D-03
 -0.31969266D-02 -0.45080002D-02 -0.64476329D-02  0.32649905D-04  0.59130874D-02
  0.26433305D-10 -0.26028040D-01 -0.45787721D-01 -0.19607751D-12  0.16246122D-03
  0.21802866D-03 -0.92146222D-14  0.11508839D-04  0.70976929D-05  0.23192861D-04
  0.42126398D-03 -0.44445684D-03 -0.32726975D-12  0.23342942D-12  0.39835690D-03
  0.45347299D-05 -0.26913135D-03  0.26459662D-03  0.21890773D-12 -0.14159589D-12
 -0.44849843D-03 -0.66881938D-06  0.37980945D-04 -0.37312126D-04 -0.62661565D-14
  0.70587131D-14  0.16587880D-04  0.34872347D-14  0.32760456D-04  0.99523422D-05
  0.10533892D-14 -0.51278010D-04  0.55998903D-05 -0.11515093D-13 -0.47003359D-04
 -0.35456917D-04 -0.10506060D-13  0.12756813D-13  0.47472795D-04 -0.13913640D-04
 -0.37233930D-13 -0.13979876D-04 -0.39866043D-04 -0.10365104D-14 -0.12843851D-03
  0.81606964D-04  0.69934905D-13
MO    3     MO 0.0        OCC NO =    2.0000335  ORB. ENERGY =    0.000000
  0.38017152D-11  0.70857721D-11  0.12014922D-10  0.18183307D-10  0.22682243D-10
  0.19464739D-10  0.74539609D-11  0.46649037D-15  0.50051355D-14  0.18449872D-13
  0.53946343D-13  0.65007967D-13 -0.78308985D-13  0.35767067D-12  0.99044127D-13
  0.87651744D-13  0.25406840D-05  0.24636088D-05  0.16619360D-05  0.47845545D-13
  0.46394084D-13  0.31297175D-13  0.41438459D-12  0.40181366D-12  0.27106112D-12
  0.22239467D-06  0.14447102D-12  0.14947556D-12 -0.32006884D-05  0.12083674D-12
  0.97907239D-13 -0.36160290D-06  0.84090455D-16  0.17149695D-14  0.28982704D-13
 -0.34115435D-13  0.51327314D-14  0.11527928D-03 -0.10780906D-05  0.24050727D-13
 -0.16474952D-13  0.52903943D-13 -0.36428991D-13  0.33281302D-04 -0.22064648D-05
  0.21812364D-13  0.14226241D-13  0.22589705D-14 -0.16485212D-13 -0.15866043D-03
  0.82181470D-06 -0.16107453D-13  0.67589788D-06  0.22836470D-13 -0.10003259D-14
 -0.78338109D-05 -0.42133080D-13  0.10020621D-13  0.58061172D-05 -0.26376330D-13
 -0.70196436D-14 -0.78147426D-03 -0.89553359D-06  0.39188099D-14  0.71026345D-14
  0.23173215D-05  0.37364236D-13  0.62189778D-14  0.36927931D-06 -0.49120666D-13
 -0.27526881D-13  0.24312370D-03  0.41190179D-11  0.76786791D-11  0.12978014D-10
  0.19508375D-10  0.23962545D-10  0.20223543D-10  0.76045802D-11 -0.27978078D-15
 -0.20911880D-14 -0.78152469D-14 -0.21803322D-13 -0.29210440D-13  0.34492083D-13
  0.38280016D-12 -0.86126512D-13  0.19171786D-14 -0.11210073D-04 -0.10510156D-04
 -0.74838574D-05 -0.78726758D-13 -0.73811340D-13 -0.52558071D-13  0.22939701D-12
  0.21507428D-12  0.15314570D-12 -0.32681306D-05 -0.47309635D-13  0.19115925D-12
  0.11479878D-05 -0.47629680D-13 -0.46351064D-13  0.53665809D-07  0.23739803D-14
 -0.47097711D-14 -0.35180981D-13  0.16872182D-12 -0.13354084D-12  0.12035423D-02
 -0.24017958D-05 -0.50865649D-13  0.27473850D-13 -0.41011399D-13  0.13537550D-13
 -0.45938715D-04 -0.11964530D-05  0.39664078D-13  0.85676245D-15  0.27520551D-13
 -0.28377314D-13  0.72279431D-04  0.48579421D-06 -0.10050669D-14  0.15709889D-05
 -0.50527238D-13  0.33774866D-13 -0.15917581D-05 -0.56872525D-14 -0.45169956D-13
 -0.31212085D-05  0.15726897D-12 -0.56154641D-13 -0.35043860D-03 -0.65994836D-06
  0.46715988D-13 -0.18695244D-13  0.18392452D-05 -0.41356661D-15  0.21084079D-13
  0.14059985D-06 -0.13973440D-12  0.35001654D-13  0.35486696D-03 -0.58205105D-11
 -0.10889554D-10 -0.18814734D-10 -0.30500894D-10 -0.46318535D-10 -0.64378406D-10
 -0.76540992D-10 -0.68185375D-10 -0.33862299D-10 -0.54515437D-11 -0.57517006D-13
  0.21368747D-13  0.71282564D-12  0.24840547D-11  0.89454830D-11  0.19719204D-10
  0.27758275D-10 -0.13241602D-11 -0.36326523D-10 -0.21479646D-10  0.57061772D-15
  0.69115741D-14  0.14413359D-13  0.41335005D-13  0.21464692D-14 -0.17825659D-12
 -0.46058079D-12  0.37525954D-12 -0.13616608D-11 -0.33134279D-13 -0.16717286D-13
  0.82294976D+01  0.10840174D+02  0.11958408D+02  0.99323944D+01  0.52743770D+01
  0.13608168D+01  0.21780844D-08  0.28690467D-08  0.31650076D-08  0.26287866D-08
  0.13959587D-08  0.36016463D-09 -0.27953577D-08 -0.36821401D-08 -0.40619769D-08
 -0.33737899D-08 -0.17915760D-08 -0.46223598D-09 -0.35960428D-03  0.34764228D-02
  0.49021191D-02  0.70113271D-02 -0.35504373D-04 -0.64300482D-02 -0.98610465D-13
  0.95330252D-12  0.13442561D-11  0.19226418D-11 -0.97359873D-14 -0.17632438D-11
  0.13632951D-12 -0.13179460D-11 -0.18584415D-11 -0.26580629D-11  0.13460056D-13
  0.24376944D-11  0.53787737D-01  0.14211901D-10 -0.17920333D-10 -0.42444452D-03
 -0.11689905D-12  0.15000629D-12 -0.15152281D-04 -0.48696134D-14  0.50600872D-14
  0.65762025D-16  0.24417201D-12 -0.24423777D-12  0.90906620D-03  0.51473784D-03
 -0.22537902D-12  0.12319733D-14 -0.15654805D-12  0.15531608D-12 -0.47358223D-03
 -0.32006988D-03  0.14709391D-12 -0.17437242D-14  0.10250757D-13 -0.85070328D-14
  0.21767520D-04  0.36898227D-04 -0.41842331D-14  0.23129555D-04 -0.46918976D-14
  0.32803651D-14  0.41160070D-04  0.11379473D-13 -0.52803284D-14 -0.11054874D-03
  0.26962193D-14 -0.45607669D-14  0.89448814D-05  0.17608778D-04 -0.25850517D-13
  0.57642730D-14 -0.90474359D-04  0.44346098D-14 -0.16056866D-13  0.37648025D-04
  0.73116942D-13 -0.12359534D-14 -0.14800820D-03 -0.27178851D-10 -0.50848729D-10
 -0.87855326D-10 -0.14242381D-09 -0.21628422D-09 -0.30061471D-09 -0.35740786D-09
 -0.31839134D-09 -0.15811987D-09 -0.25455962D-10 -0.26857543D-12  0.26500013D-14
  0.88399609D-13  0.30805494D-12  0.11093557D-11  0.24454366D-11  0.34423855D-11
 -0.16421301D-12 -0.45049592D-11 -0.26637542D-11  0.94192459D-16  0.11409007D-14
  0.23792281D-14  0.68232121D-14  0.35431990D-15 -0.29425000D-13 -0.76028548D-13
  0.61944482D-13 -0.21474241D-12  0.31281719D-13 -0.32028268D-13 -0.81988749D+01
 -0.10799836D+02 -0.11913910D+02 -0.98954350D+01 -0.52547506D+01 -0.13557531D+01
  0.57807050D-10  0.76145408D-10  0.84000305D-10  0.69768830D-10  0.37049185D-10
  0.95588833D-11 -0.47552473D-09 -0.62637731D-09 -0.69099222D-09 -0.57392314D-09
 -0.30476911D-09 -0.78632024D-10  0.35812769D-03 -0.34621481D-02 -0.48819902D-02
 -0.69825374D-02  0.35358587D-04  0.64036454D-02 -0.10207684D-13  0.98681320D-13
  0.13915096D-12  0.19902269D-12 -0.10078229D-14 -0.18252258D-12  0.18493938D-13
 -0.17878749D-12 -0.25210903D-12 -0.36058260D-12  0.18259395D-14  0.33068825D-12
 -0.53589505D-01  0.51215364D-12 -0.32412882D-11  0.42380511D-03 -0.52804482D-13
 -0.39708006D-13  0.15182662D-04 -0.22637523D-15 -0.11638270D-14  0.17852917D-13
 -0.57872399D-13  0.40019482D-13  0.90553542D-03 -0.50684889D-03  0.84612428D-15
  0.18473304D-15  0.28001016D-13 -0.28185749D-13 -0.47001756D-03  0.31566860D-03
 -0.74534177D-13  0.46611700D-15  0.91650591D-14 -0.96311761D-14  0.21328913D-04
 -0.36841982D-04  0.68184628D-15 -0.22352595D-04  0.10592391D-13  0.36388586D-14
 -0.42804648D-04 -0.11591604D-13  0.56995305D-15  0.10986243D-03 -0.20185570D-13
 -0.11486529D-13  0.10308102D-04 -0.17541617D-04 -0.26923876D-14 -0.13316720D-13
  0.90727024D-04 -0.32222854D-14 -0.97440769D-15 -0.38102174D-04  0.11299448D-13
  0.40924566D-13 -0.14685150D-03
MO    4     MO 0.0        OCC NO =    2.0000300  ORB. ENERGY =    0.000000
 -0.35329052D-10 -0.65847545D-10 -0.11165377D-09 -0.16897610D-09 -0.21078437D-09
 -0.18088435D-09 -0.69269095D-10 -0.37617151D-14 -0.40360734D-13 -0.14877727D-12
 -0.43501600D-12 -0.52421543D-12  0.63147304D-12 -0.32345313D-11  0.14265470D-12
  0.11342958D-12 -0.52017825D-02 -0.50439792D-02 -0.34026386D-02 -0.11329415D-13
 -0.10985722D-13 -0.74109030D-14  0.11356601D-11  0.11012083D-11  0.74286860D-12
 -0.14815152D-02  0.60363714D-13 -0.55312486D-13 -0.31075533D-03  0.49793704D-13
  0.95444633D-13  0.14426845D-04 -0.93579141D-14  0.37611862D-14  0.10729725D-12
 -0.81916235D-13 -0.25381020D-13 -0.94807827D-05 -0.38617581D-03 -0.56929264D-13
 -0.65692704D-13  0.35023116D-13  0.30669588D-13  0.68632524D-05  0.17472552D-03
  0.29077133D-13  0.46011416D-14  0.21334641D-13 -0.25935783D-13  0.21182789D-05
  0.27516209D-04 -0.12569820D-13  0.63032118D-04  0.23569782D-14  0.46050170D-13
 -0.33272518D-03 -0.23482278D-13 -0.83318870D-13  0.14362883D-03  0.16411343D-13
 -0.54831640D-13  0.14102815D-04 -0.26666533D-04  0.46350513D-14  0.15075579D-13
  0.13871468D-03  0.18861984D-13  0.32170799D-13 -0.58715087D-04 -0.32767138D-13
 -0.77397538D-13 -0.90523322D-05 -0.38838939D-10 -0.72403606D-10 -0.12237196D-09
 -0.18394788D-09 -0.22594702D-09 -0.19069131D-09 -0.71704914D-10 -0.67608720D-14
 -0.50533330D-13 -0.18885459D-12 -0.52687490D-12 -0.70586711D-12  0.83349744D-12
 -0.29107138D-11 -0.22423105D-12  0.13182751D-13  0.37017921D-02  0.34706654D-02
  0.24713205D-02  0.46552141D-13  0.43645591D-13  0.31078261D-13 -0.14713650D-12
 -0.13794982D-12 -0.98228492D-13  0.84386063D-03 -0.26086038D-13 -0.24328124D-13
  0.87926294D-04 -0.98162744D-13 -0.10170621D-13 -0.15971692D-04  0.70021150D-14
 -0.85799406D-14  0.11600804D-12  0.17718029D-12 -0.29318833D-12 -0.61107715D-07
 -0.10321103D-02  0.25885813D-13  0.81416405D-13 -0.65730921D-13 -0.15685483D-13
 -0.14541404D-05  0.91101057D-04  0.10628525D-12  0.78452722D-14  0.22114433D-13
 -0.29959706D-13 -0.70862579D-06 -0.41653733D-04  0.22233892D-13 -0.86553473D-04
 -0.27554700D-13 -0.14700900D-13  0.13298971D-03 -0.60440182D-14  0.55966961D-13