 Entering Gaussian System, Link 0=/home/bruns/programas/chemistry/gaussian/g09/g09
 Input=GAUSSIAN.com
 Output=GAUSSIAN.log
 Initial command:
 /home/bruns/programas/chemistry/gaussian/g09/l1.exe /home/bruns/programas/chemistry/gaussian/work/Gau-42011.inp -scrdir=/home/bruns/programas/chemistry/gaussian/work/
 Entering Link 1 = /home/bruns/programas/chemistry/gaussian/g09/l1.exe PID=     42013.
  
 Copyright (c) 1988,1990,1992,1993,1995,1998,2003,2009,2010,
            Gaussian, Inc.  All Rights Reserved.
  
 This is part of the Gaussian(R) 09 program.  It is based on
 the Gaussian(R) 03 system (copyright 2003, Gaussian, Inc.),
 the Gaussian(R) 98 system (copyright 1998, Gaussian, Inc.),
 the Gaussian(R) 94 system (copyright 1995, Gaussian, Inc.),
 the Gaussian 92(TM) system (copyright 1992, Gaussian, Inc.),
 the Gaussian 90(TM) system (copyright 1990, Gaussian, Inc.),
 the Gaussian 88(TM) system (copyright 1988, Gaussian, Inc.),
 the Gaussian 86(TM) system (copyright 1986, Carnegie Mellon
 University), and the Gaussian 82(TM) system (copyright 1983,
 Carnegie Mellon University). Gaussian is a federally registered
 trademark of Gaussian, Inc.
  
 This software contains proprietary and confidential information,
 including trade secrets, belonging to Gaussian, Inc.
  
 This software is provided under written license and may be
 used, copied, transmitted, or stored only in accord with that
 written license.
  
 The following legend is applicable only to US Government
 contracts under FAR:
  
                    RESTRICTED RIGHTS LEGEND
  
 Use, reproduction and disclosure by the US Government is
 subject to restrictions as set forth in subparagraphs (a)
 and (c) of the Commercial Computer Software - Restricted
 Rights clause in FAR 52.227-19.
  
 Gaussian, Inc.
 340 Quinnipiac St., Bldg. 40, Wallingford CT 06492
  
  
 ---------------------------------------------------------------
 Warning -- This program may not be used in any manner that
 competes with the business of Gaussian, Inc. or will provide
 assistance to any competitor of Gaussian, Inc.  The licensee
 of this program is prohibited from giving any competitor of
 Gaussian, Inc. access to this program.  By using this program,
 the user acknowledges that Gaussian, Inc. is engaged in the
 business of creating and licensing software in the field of
 computational chemistry and represents and warrants to the
 licensee that it is not a competitor of Gaussian, Inc. and that
 it will not use this program in any manner prohibited above.
 ---------------------------------------------------------------
  

 Cite this work as:
 Gaussian 09, Revision B.01,
 M. J. Frisch, G. W. Trucks, H. B. Schlegel, G. E. Scuseria, 
 M. A. Robb, J. R. Cheeseman, G. Scalmani, V. Barone, B. Mennucci, 
 G. A. Petersson, H. Nakatsuji, M. Caricato, X. Li, H. P. Hratchian, 
 A. F. Izmaylov, J. Bloino, G. Zheng, J. L. Sonnenberg, M. Hada, 
 M. Ehara, K. Toyota, R. Fukuda, J. Hasegawa, M. Ishida, T. Nakajima, 
 Y. Honda, O. Kitao, H. Nakai, T. Vreven, J. A. Montgomery, Jr., 
 J. E. Peralta, F. Ogliaro, M. Bearpark, J. J. Heyd, E. Brothers, 
 K. N. Kudin, V. N. Staroverov, T. Keith, R. Kobayashi, J. Normand, 
 K. Raghavachari, A. Rendell, J. C. Burant, S. S. Iyengar, J. Tomasi, 
 M. Cossi, N. Rega, J. M. Millam, M. Klene, J. E. Knox, J. B. Cross, 
 V. Bakken, C. Adamo, J. Jaramillo, R. Gomperts, R. E. Stratmann, 
 O. Yazyev, A. J. Austin, R. Cammi, C. Pomelli, J. W. Ochterski, 
 R. L. Martin, K. Morokuma, V. G. Zakrzewski, G. A. Voth, 
 P. Salvador, J. J. Dannenberg, S. Dapprich, A. D. Daniels, 
 O. Farkas, J. B. Foresman, J. V. Ortiz, J. Cioslowski, 
 and D. J. Fox, Gaussian, Inc., Wallingford CT, 2010.
 
 ******************************************
 Gaussian 09:  EM64L-G09RevB.01 12-Aug-2010
                27-Nov-2021 
 ******************************************
 %nproc=8
 Will use up to    8 processors via shared memory.
 %mem=8GB
 -----------------------------------------------------
 # qcisd/aug-cc-pvtz nosymm density=current output=wfn
 -----------------------------------------------------
 1/30=1,38=1/1;
 2/12=2,15=1,17=6,18=5,40=1/2;
 3/5=16,6=1,7=10,11=9,16=1,25=1,30=1,71=1/1,2,3;
 4//1;
 5/5=2,38=5/2;
 8/6=4,9=120000,10=1/1,4;
 9/5=8,15=1/13;
 11/28=-7,31=1,32=3,42=3/11;
 10/5=6,13=10,31=1/2;
 6/7=2,8=2,9=2,10=2,22=-1,31=1/1;
 99/5=1,6=1100,9=1/99;
 ------------------
 cl2co-wavefunction
 ------------------
 Symbolic Z-matrix:
 Charge =  0 Multiplicity = 1
 O                     0.01      0.        0.6834 
 C                     0.        0.       -0.49469 
 Cl                    0.       -1.44687  -1.46981 
 Cl                    0.        1.44687  -1.46981 
 
                          Input orientation:                          
 ---------------------------------------------------------------------
 Center     Atomic      Atomic             Coordinates (Angstroms)
 Number     Number       Type             X           Y           Z
 ---------------------------------------------------------------------
      1          8           0        0.010000    0.000000    0.683397
      2          6           0        0.000000    0.000000   -0.494687
      3         17           0        0.000000   -1.446870   -1.469805
      4         17           0        0.000000    1.446870   -1.469805
 ---------------------------------------------------------------------
                    Distance matrix (angstroms):
                    1          2          3          4
     1  O    0.000000
     2  C    1.178126   0.000000
     3  Cl   2.594188   1.744789   0.000000
     4  Cl   2.594188   1.744789   2.893740   0.000000
 Symmetry turned off by external request.
 Stoichiometry    CCl2O
 Framework group  CS[SG(CO),X(Cl2)]
 Deg. of freedom     4
 Full point group                 CS      NOp   2
 Rotational constants (GHZ):      7.9177675      3.4518045      2.4038406
 Standard basis: Aug-CC-pVTZ (5D, 7F)
 Integral buffers will be    131072 words long.
 Raffenetti 1 integral format.
 Two-electron integral symmetry is turned off.
   192 basis functions,   372 primitive gaussians,   228 cartesian basis functions
    24 alpha electrons       24 beta electrons
       nuclear repulsion energy       191.7647022723 Hartrees.
 NAtoms=    4 NActive=    4 NUniq=    4 SFac= 1.00D+00 NAtFMM=   50 NAOKFM=F Big=F
 One-electron integrals computed using PRISM.
 NBasis=   192 RedAO= T  NBF=   192
 NBsUse=   192 1.00D-06 NBFU=   192
 Harris functional with IExCor=  205 diagonalized for initial guess.
 ExpMin= 3.57D-02 ExpMax= 4.56D+05 ExpMxC= 1.44D+03 IAcc=3 IRadAn=         0 AccDes= 0.00D+00
 HarFok:  IExCor=  205 AccDes= 0.00D+00 IRadAn=         0 IDoV= 1
 ScaDFX=  1.000000  1.000000  1.000000  1.000000
 FoFCou: FMM=F IPFlag=           0 FMFlag=      100000 FMFlg1=           0
         NFxFlg=           0 DoJE=T BraDBF=F KetDBF=T FulRan=T
         Omega=  0.000000  0.000000  1.000000  0.000000  0.000000 ICntrl=     500 IOpCl=  0
         NMat0=    1 NMatS0=    1 NMatT0=    0 NMatD0=    1 NMtDS0=    0 NMtDT0=    0
         I1Cent=           4 NGrid=           0.
 Symmetry not used in FoFCou.
 Requested convergence on RMS density matrix=1.00D-08 within 128 cycles.
 Requested convergence on MAX density matrix=1.00D-06.
 Requested convergence on             energy=1.00D-06.
 No special actions if energy rises.
 Keep R1 ints in memory in canonical form, NReq=346956363.
 SCF Done:  E(RHF) =  -1031.80273352     A.U. after   12 cycles
             Convg  =    0.4654D-08             -V/T =  2.0003
 ExpMin= 3.57D-02 ExpMax= 4.56D+05 ExpMxC= 1.44D+03 IAcc=3 IRadAn=         5 AccDes= 0.00D+00
 HarFok:  IExCor=  205 AccDes= 0.00D+00 IRadAn=         5 IDoV=-2
 ScaDFX=  1.000000  1.000000  1.000000  1.000000
 DSYEVD returned Info=          93 IAlg= 4 N=    46 NDim=    46 NE2=    21472416 trying DSYEV.
 Range of M.O.s used for correlation:    13   192
 NBasis=   192 NAE=    24 NBE=    24 NFC=    12 NFV=     0
 NROrb=    180 NOA=    12 NOB=    12 NVA=   168 NVB=   168

 **** Warning!!: The largest alpha MO coefficient is  0.28781108D+02

 Semi-Direct transformation.
 ModeAB=           2 MOrb=            12 LenV=    1072714337
 LASXX=     33405819 LTotXX=    33405819 LenRXX=    33405819
 LTotAB=    33954012 MaxLAS=    56388960 LenRXY=    56388960
 NonZer=    66811638 LenScr=   100987392 LnRSAI=           0
 LnScr1=           0 LExtra=           0 Total=    190782171
 MaxDsk=          -1 SrtSym=           F ITran=            4
 JobTyp=0 Pass  1:  I=   1 to  12.
 (rs|ai) integrals will be sorted in core.
 Spin components of T(2) and E(2):
     alpha-alpha T2 =       0.3523675918D-01 E2=     -0.1018054518D+00
     alpha-beta  T2 =       0.1834180425D+00 E2=     -0.5758037342D+00
     beta-beta   T2 =       0.3523675918D-01 E2=     -0.1018054518D+00
 ANorm=    0.1119772995D+01
 E2 =    -0.7794146378D+00 EUMP2 =    -0.10325821481533D+04
 R2 and R3 integrals will be kept in memory, NReq=   687553722.
 Iterations=  50 Convergence= 0.100D-07
 Iteration Nr.   1
 **********************
 DD1Dir will call FoFMem   1 times, MxPair=       156
 NAB=    78 NAA=     0 NBB=     0.
 MP4(R+Q)=  0.22520900D-01
 E3=       -0.19052546D-01        EUMP3=      -0.10326012007D+04
 E4(DQ)=    0.28536026D-02        UMP4(DQ)=   -0.10325983471D+04
 E4(SDQ)=  -0.61290682D-02        UMP4(SDQ)=  -0.10326073298D+04
 DE(Corr)= -0.77594628     E(Corr)=     -1032.5786798    
 NORM(A)=   0.11213551D+01
 Iteration Nr.   2
 **********************
 DD1Dir will call FoFMem   1 times, MxPair=       156
 NAB=    78 NAA=     0 NBB=     0.
 DE(Corr)= -0.80166104     E(CORR)=     -1032.6043946     Delta=-2.57D-02
 NORM(A)=   0.11307163D+01
 Iteration Nr.   3
 **********************
 DD1Dir will call FoFMem   1 times, MxPair=       156
 NAB=    78 NAA=     0 NBB=     0.
 DE(Corr)= -0.80005667     E(CORR)=     -1032.6027902     Delta= 1.60D-03
 NORM(A)=   0.11333206D+01
 Iteration Nr.   4
 **********************
 DD1Dir will call FoFMem   1 times, MxPair=       156
 NAB=    78 NAA=     0 NBB=     0.
 DE(Corr)= -0.80248681     E(CORR)=     -1032.6052203     Delta=-2.43D-03
 NORM(A)=   0.11343322D+01
 Iteration Nr.   5
 **********************
 DD1Dir will call FoFMem   1 times, MxPair=       156
 NAB=    78 NAA=     0 NBB=     0.
 DE(Corr)= -0.80280417     E(CORR)=     -1032.6055377     Delta=-3.17D-04
 NORM(A)=   0.11347227D+01
 Iteration Nr.   6
 **********************
 DD1Dir will call FoFMem   1 times, MxPair=       156
 NAB=    78 NAA=     0 NBB=     0.
 DE(Corr)= -0.80285484     E(CORR)=     -1032.6055884     Delta=-5.07D-05
 NORM(A)=   0.11347939D+01
 Iteration Nr.   7
 **********************
 DD1Dir will call FoFMem   1 times, MxPair=       156
 NAB=    78 NAA=     0 NBB=     0.
 DE(Corr)= -0.80286399     E(CORR)=     -1032.6055975     Delta=-9.15D-06
 NORM(A)=   0.11347951D+01
 Iteration Nr.   8
 **********************
 DD1Dir will call FoFMem   1 times, MxPair=       156
 NAB=    78 NAA=     0 NBB=     0.
 DE(Corr)= -0.80286357     E(CORR)=     -1032.6055971     Delta= 4.14D-07
 NORM(A)=   0.11348032D+01
 Iteration Nr.   9
 **********************
 DD1Dir will call FoFMem   1 times, MxPair=       156
 NAB=    78 NAA=     0 NBB=     0.
 DE(Corr)= -0.80286231     E(CORR)=     -1032.6055958     Delta= 1.26D-06
 NORM(A)=   0.11348027D+01
 Iteration Nr.  10
 **********************
 DD1Dir will call FoFMem   1 times, MxPair=       156
 NAB=    78 NAA=     0 NBB=     0.
 DE(Corr)= -0.80286350     E(CORR)=     -1032.6055970     Delta=-1.19D-06
 NORM(A)=   0.11348043D+01
 Iteration Nr.  11
 **********************
 DD1Dir will call FoFMem   1 times, MxPair=       156
 NAB=    78 NAA=     0 NBB=     0.
 DE(Corr)= -0.80286432     E(CORR)=     -1032.6055978     Delta=-8.18D-07
 NORM(A)=   0.11348055D+01
 Iteration Nr.  12
 **********************
 DD1Dir will call FoFMem   1 times, MxPair=       156
 NAB=    78 NAA=     0 NBB=     0.
 DE(Corr)= -0.80286457     E(CORR)=     -1032.6055981     Delta=-2.48D-07
 NORM(A)=   0.11348061D+01
 Iteration Nr.  13
 **********************
 DD1Dir will call FoFMem   1 times, MxPair=       156
 NAB=    78 NAA=     0 NBB=     0.
 DE(Corr)= -0.80286489     E(CORR)=     -1032.6055984     Delta=-3.25D-07
 NORM(A)=   0.11348066D+01
 Iteration Nr.  14
 **********************
 DD1Dir will call FoFMem   1 times, MxPair=       156
 NAB=    78 NAA=     0 NBB=     0.
 DE(Corr)= -0.80286496     E(CORR)=     -1032.6055985     Delta=-6.49D-08
 NORM(A)=   0.11348068D+01
 Iteration Nr.  15
 **********************
 DD1Dir will call FoFMem   1 times, MxPair=       156
 NAB=    78 NAA=     0 NBB=     0.
 DE(Corr)= -0.80286501     E(CORR)=     -1032.6055985     Delta=-4.77D-08
 NORM(A)=   0.11348068D+01
 Iteration Nr.  16
 **********************
 DD1Dir will call FoFMem   1 times, MxPair=       156
 NAB=    78 NAA=     0 NBB=     0.
 DE(Corr)= -0.80286502     E(CORR)=     -1032.6055985     Delta=-1.63D-08
 NORM(A)=   0.11348069D+01
 Iteration Nr.  17
 **********************
 DD1Dir will call FoFMem   1 times, MxPair=       156
 NAB=    78 NAA=     0 NBB=     0.
 DE(Corr)= -0.80286502     E(CORR)=     -1032.6055985     Delta= 1.55D-09
 NORM(A)=   0.11348069D+01
 Iteration Nr.  18
 **********************
 DD1Dir will call FoFMem   1 times, MxPair=       156
 NAB=    78 NAA=     0 NBB=     0.
 DE(Corr)= -0.80286502     E(CORR)=     -1032.6055985     Delta=-1.80D-10
 NORM(A)=   0.11348069D+01
 Iteration Nr.  19
 **********************
 DD1Dir will call FoFMem   1 times, MxPair=       156
 NAB=    78 NAA=     0 NBB=     0.
 DE(Corr)= -0.80286502     E(CORR)=     -1032.6055985     Delta=-5.97D-10
 NORM(A)=   0.11348069D+01
 Largest amplitude= 3.31D-02

 Z-AMPLITUDE ITERATIONS

 Iteration Nr.   1
 **********************
 DD1Dir will call FoFMem   1 times, MxPair=       156
 NAB=    78 NAA=     0 NBB=     0.
 DE(Z)  -0.77482806D+00          E(Z)=    -0.10325775616D+04
 NORM(A)=   0.11347874D+01
 Iteration Nr.   2
 **********************
 DD1Dir will call FoFMem   1 times, MxPair=       156
 NAB=    78 NAA=     0 NBB=     0.
 DE(Z)  -0.77482742D+00          E(Z)=    -0.10325775609D+04
 NORM(A)=   0.11347621D+01
 Iteration Nr.   3
 **********************
 DD1Dir will call FoFMem   1 times, MxPair=       156
 NAB=    78 NAA=     0 NBB=     0.
 DE(Z)  -0.77482673D+00          E(Z)=    -0.10325775602D+04
 NORM(A)=   0.11349029D+01
 Iteration Nr.   4
 **********************
 DD1Dir will call FoFMem   1 times, MxPair=       156
 NAB=    78 NAA=     0 NBB=     0.
 DE(Z)  -0.77483109D+00          E(Z)=    -0.10325775646D+04
 NORM(A)=   0.11347668D+01
 Iteration Nr.   5
 **********************
 DD1Dir will call FoFMem   1 times, MxPair=       156
 NAB=    78 NAA=     0 NBB=     0.
 DE(Z)  -0.77482676D+00          E(Z)=    -0.10325775603D+04
 NORM(A)=   0.11251384D+01
 Iteration Nr.   6
 **********************
 DD1Dir will call FoFMem   1 times, MxPair=       156
 NAB=    78 NAA=     0 NBB=     0.
 DE(Z)  -0.77451004D+00          E(Z)=    -0.10325772436D+04
 NORM(A)=   0.11251387D+01
 Iteration Nr.   7
 **********************
 DD1Dir will call FoFMem   1 times, MxPair=       156
 NAB=    78 NAA=     0 NBB=     0.
 DE(Z)  -0.77451002D+00          E(Z)=    -0.10325772435D+04
 NORM(A)=   0.11251393D+01
 Iteration Nr.   8
 **********************
 DD1Dir will call FoFMem   1 times, MxPair=       156
 NAB=    78 NAA=     0 NBB=     0.
 DE(Z)  -0.77450983D+00          E(Z)=    -0.10325772433D+04
 NORM(A)=   0.11251397D+01
 Iteration Nr.   9
 **********************
 DD1Dir will call FoFMem   1 times, MxPair=       156
 NAB=    78 NAA=     0 NBB=     0.
 DE(Z)  -0.77451012D+00          E(Z)=    -0.10325772436D+04
 NORM(A)=   0.11251401D+01
 Iteration Nr.  10
 **********************
 DD1Dir will call FoFMem   1 times, MxPair=       156
 NAB=    78 NAA=     0 NBB=     0.
 DE(Z)  -0.77451004D+00          E(Z)=    -0.10325772436D+04
 NORM(A)=   0.11251402D+01
 Iteration Nr.  11
 **********************
 DD1Dir will call FoFMem   1 times, MxPair=       156
 NAB=    78 NAA=     0 NBB=     0.
 DE(Z)  -0.77451010D+00          E(Z)=    -0.10325772436D+04
 NORM(A)=   0.11251402D+01
 Iteration Nr.  12
 **********************
 DD1Dir will call FoFMem   1 times, MxPair=       156
 NAB=    78 NAA=     0 NBB=     0.
 DE(Z)  -0.77451008D+00          E(Z)=    -0.10325772436D+04
 NORM(A)=   0.11251402D+01
 Iteration Nr.  13
 **********************
 DD1Dir will call FoFMem   1 times, MxPair=       156
 NAB=    78 NAA=     0 NBB=     0.
 DE(Z)  -0.77451009D+00          E(Z)=    -0.10325772436D+04
 NORM(A)=   0.11251402D+01
 Iteration Nr.  14
 **********************
 DD1Dir will call FoFMem   1 times, MxPair=       156
 NAB=    78 NAA=     0 NBB=     0.
 DE(Z)  -0.77451009D+00          E(Z)=    -0.10325772436D+04
 NORM(A)=   0.11251402D+01
 Discarding MO integrals.
          Differentiating once with respect to electric field.
                with respect to dipole field.
          Electric field/nuclear overlap derivatives assumed to be zero.
          Keep R1 ints in memory in canonical form, NReq=342715808.
          There are     1 degrees of freedom in the 1st order CPHF.  IDoFFX=0.
 LinEq1:  Iter=  0 NonCon=     1 RMS=2.34D-03 Max=5.59D-02
 AX will form     1 AO Fock derivatives at one time.
 LinEq1:  Iter=  1 NonCon=     1 RMS=8.30D-04 Max=1.86D-02
 LinEq1:  Iter=  2 NonCon=     1 RMS=3.10D-04 Max=5.63D-03
 LinEq1:  Iter=  3 NonCon=     1 RMS=1.28D-04 Max=3.29D-03
 LinEq1:  Iter=  4 NonCon=     1 RMS=5.11D-05 Max=1.23D-03
 LinEq1:  Iter=  5 NonCon=     1 RMS=1.65D-05 Max=3.62D-04
 LinEq1:  Iter=  6 NonCon=     1 RMS=4.17D-06 Max=5.73D-05
 LinEq1:  Iter=  7 NonCon=     1 RMS=9.92D-07 Max=1.16D-05
 LinEq1:  Iter=  8 NonCon=     1 RMS=2.10D-07 Max=3.14D-06
 LinEq1:  Iter=  9 NonCon=     1 RMS=4.75D-08 Max=8.04D-07
 LinEq1:  Iter= 10 NonCon=     1 RMS=1.20D-08 Max=2.23D-07
 LinEq1:  Iter= 11 NonCon=     1 RMS=2.52D-09 Max=3.83D-08
 LinEq1:  Iter= 12 NonCon=     1 RMS=4.62D-10 Max=1.16D-08
 LinEq1:  Iter= 13 NonCon=     1 RMS=7.84D-11 Max=1.20D-09
 LinEq1:  Iter= 14 NonCon=     0 RMS=1.18D-11 Max=1.30D-10
 Linear equations converged to 1.000D-10 1.000D-09 after    14 iterations.
 End of Minotr Frequency-dependent properties file   721 does not exist.
 End of Minotr Frequency-dependent properties file   722 does not exist.

 **********************************************************************

            Population analysis using the QCI/CC density.

 **********************************************************************

     Natural Orbital Coefficients:
                           1         2         3         4         5
     Eigenvalues --     2.00004   2.00004   2.00003   2.00003   2.00003
   1 1   O  1S          0.00000   0.01081   0.00000   0.00018   0.00000
   2        2S          0.00000  -0.00025   0.00000  -0.00002   0.00000
   3        3S          0.00000   0.00050   0.00000   0.00001   0.00000
   4        4S          0.00000   0.00084   0.00000  -0.00001   0.00000
   5        5S          0.00000   0.00297   0.00000   0.00000   0.00000
   6        6PX         0.00000   0.00000   0.00000  -0.00106   0.00000
   7        6PY        -0.00018   0.00000   0.00000   0.00000   0.00026
   8        6PZ         0.00000   0.00032   0.00000   0.00001   0.00000
   9        7PX         0.00000   0.00000   0.00000  -0.00158   0.00000
  10        7PY        -0.00100   0.00000   0.00000   0.00000   0.00049
  11        7PZ         0.00000   0.00062   0.00000   0.00002   0.00000
  12        8PX         0.00000  -0.00001   0.00000  -0.00150   0.00000
  13        8PY        -0.00366   0.00000  -0.00006   0.00000   0.00155
  14        8PZ         0.00000   0.00239   0.00000   0.00001   0.00000
  15        9PX         0.00000  -0.00001   0.00000   0.00034   0.00000
  16        9PY        -0.00047   0.00000  -0.00003   0.00000   0.00117
  17        9PZ         0.00000   0.00025   0.00000   0.00000   0.00000
  18       10D 0        0.00000   0.00001   0.00000   0.00000   0.00000
  19       10D+1        0.00000   0.00000   0.00000  -0.00003   0.00000
  20       10D-1       -0.00002   0.00000   0.00000   0.00000   0.00003
  21       10D+2        0.00000   0.00003   0.00000   0.00000   0.00000
  22       10D-2        0.00000   0.00000   0.00001   0.00000   0.00000
  23       11D 0        0.00000  -0.00022   0.00000   0.00000   0.00000
  24       11D+1        0.00000   0.00000   0.00000   0.00013   0.00000
  25       11D-1       -0.00005   0.00000   0.00000   0.00000  -0.00009
  26       11D+2        0.00000  -0.00024   0.00000   0.00000   0.00000
  27       11D-2        0.00001   0.00000   0.00003   0.00000   0.00000
  28       12D 0        0.00000  -0.00072   0.00000  -0.00001   0.00000
  29       12D+1        0.00000  -0.00001   0.00000   0.00014   0.00000
  30       12D-1        0.00058   0.00000   0.00002   0.00000  -0.00028
  31       12D+2        0.00000   0.00019   0.00000  -0.00001   0.00000
  32       12D-2        0.00002   0.00000  -0.00083   0.00000  -0.00001
  33       13F 0        0.00000   0.00001   0.00000   0.00000   0.00000
  34       13F+1        0.00000   0.00000   0.00000   0.00002   0.00000
  35       13F-1        0.00003   0.00000   0.00000   0.00000  -0.00002
  36       13F+2        0.00000   0.00000   0.00000   0.00000   0.00000
  37       13F-2        0.00000   0.00000  -0.00006   0.00000   0.00000
  38       13F+3        0.00000   0.00000   0.00000   0.00004   0.00000
  39       13F-3        0.00004   0.00000   0.00000   0.00000   0.00000
  40       14F 0        0.00000   0.00011   0.00000   0.00001   0.00000
  41       14F+1        0.00000   0.00000   0.00000  -0.00008   0.00000
  42       14F-1        0.00031   0.00000   0.00000   0.00000   0.00003
  43       14F+2        0.00000   0.00014   0.00000   0.00001   0.00000
  44       14F-2        0.00000   0.00000   0.00020   0.00000   0.00000
  45       14F+3        0.00000   0.00000   0.00000  -0.00017   0.00000
  46       14F-3       -0.00019   0.00000   0.00001   0.00000   0.00004
  47 2   C  1S          0.00000  -0.01164   0.00000  -0.00067   0.00000
  48        2S          0.00000   0.00143   0.00000   0.00002   0.00000
  49        3S          0.00000  -0.00016   0.00000  -0.00002   0.00000
  50        4S          0.00000  -0.00008   0.00000   0.00000   0.00000
  51        5S          0.00000   0.00125   0.00000  -0.00003   0.00000
  52        6PX         0.00000   0.00000   0.00000   0.00169   0.00000
  53        6PY         0.00051   0.00000   0.00001   0.00000  -0.00071
  54        6PZ         0.00000   0.00045   0.00000  -0.00002   0.00000
  55        7PX         0.00000   0.00001   0.00000   0.00197   0.00000
  56        7PY         0.00034   0.00000   0.00000   0.00000   0.00016
  57        7PZ         0.00000   0.00193   0.00000  -0.00001   0.00000
  58        8PX         0.00000   0.00000   0.00000   0.00087   0.00000
  59        8PY         0.00071   0.00000   0.00009   0.00000   0.00248
  60        8PZ         0.00000  -0.00201   0.00000  -0.00005   0.00000
  61        9PX         0.00000   0.00000   0.00000  -0.00072   0.00000
  62        9PY        -0.00040   0.00000   0.00004   0.00000  -0.00112
  63        9PZ         0.00000  -0.00099   0.00000   0.00001   0.00000
  64       10D 0        0.00000  -0.00032   0.00000   0.00000   0.00000
  65       10D+1        0.00000   0.00000   0.00000  -0.00031   0.00000
  66       10D-1        0.00005   0.00000   0.00000   0.00000  -0.00002
  67       10D+2        0.00000  -0.00022   0.00000   0.00000   0.00000
  68       10D-2        0.00000   0.00000   0.00036   0.00000   0.00000
  69       11D 0        0.00000   0.00038   0.00000   0.00001   0.00000
  70       11D+1        0.00000   0.00001   0.00000   0.00024   0.00000
  71       11D-1        0.00019   0.00000   0.00003   0.00000  -0.00153
  72       11D+2        0.00000   0.00065   0.00000   0.00001   0.00000
  73       11D-2        0.00000   0.00000  -0.00012   0.00000   0.00000
  74       12D 0        0.00000  -0.00394   0.00000   0.00005   0.00000
  75       12D+1        0.00000  -0.00002   0.00000  -0.00082   0.00000
  76       12D-1        0.00108   0.00000   0.00002   0.00000  -0.00226
  77       12D+2        0.00000  -0.00228   0.00000   0.00003   0.00000
  78       12D-2        0.00001   0.00000   0.00143   0.00000  -0.00001
  79       13F 0        0.00000   0.00017   0.00000   0.00000   0.00000
  80       13F+1        0.00000   0.00000   0.00000   0.00006   0.00000
  81       13F-1       -0.00041   0.00000   0.00000   0.00000   0.00002
  82       13F+2        0.00000   0.00002   0.00000   0.00000   0.00000
  83       13F-2        0.00000   0.00000  -0.00011   0.00000   0.00000
  84       13F+3        0.00000   0.00000   0.00000  -0.00009   0.00000
  85       13F-3       -0.00009   0.00000   0.00000   0.00000   0.00000
  86       14F 0        0.00000  -0.00090   0.00000   0.00001   0.00000
  87       14F+1        0.00000   0.00000   0.00000   0.00011   0.00000
  88       14F-1        0.00402   0.00000   0.00000   0.00000  -0.00044
  89       14F+2        0.00000  -0.00005   0.00000   0.00002   0.00000
  90       14F-2        0.00002   0.00000   0.00120   0.00000   0.00000
  91       14F+3        0.00000   0.00001   0.00000   0.00061   0.00000
  92       14F-3        0.00119   0.00000   0.00000   0.00000  -0.00042
  93 3   Cl 1S         -0.00044  -0.00239   0.00015  -0.00051  -0.17360
  94        2S          0.00185   0.00846  -0.00050   0.00172   0.58604
  95        3S          0.00041   0.00014   0.00001  -0.00007  -0.01735
  96        4S          0.00012   0.00047  -0.00003   0.00013   0.04544
  97        5S         -0.00055  -0.00105   0.00001  -0.00001  -0.00098
  98        6S         -0.00067  -0.00196   0.00004   0.00001  -0.00161
  99        7PX         0.00358  -0.00409   0.69250  -0.69201   0.00147
 100        7PY        -0.39319   0.34598   0.00365  -0.00448  -0.30899
 101        7PZ         0.57066  -0.60009  -0.00183   0.00217  -0.21454
 102        8PX        -0.00009   0.00009  -0.01495   0.01340  -0.00003
 103        8PY         0.00989  -0.00733  -0.00009   0.00008   0.00601
 104        8PZ        -0.01393   0.01388   0.00003  -0.00005   0.00434
 105        9PX         0.00019  -0.00021   0.03665  -0.03711   0.00008
 106        9PY        -0.02044   0.01802   0.00020  -0.00025  -0.01757
 107        9PZ         0.02981  -0.03146  -0.00009   0.00011  -0.01222
 108       10PX        -0.00002   0.00003  -0.00381   0.00332  -0.00001
 109       10PY         0.00309  -0.00150  -0.00001   0.00000   0.00170
 110       10PZ        -0.00500   0.00198   0.00004   0.00002   0.00133
 111       11PX         0.00000   0.00000  -0.00056   0.00081   0.00000
 112       11PY         0.00040  -0.00043  -0.00001   0.00000   0.00015
 113       11PZ        -0.00064   0.00026   0.00001   0.00000  -0.00009
 114       12D 0        0.00043  -0.00025   0.00000   0.00000  -0.00005
 115       12D+1        0.00000   0.00000   0.00017  -0.00015   0.00000
 116       12D-1        0.00022  -0.00013   0.00000   0.00000   0.00013
 117       12D+2        0.00024  -0.00013   0.00000   0.00000  -0.00005
 118       12D-2        0.00000   0.00000   0.00029  -0.00015   0.00000
 119       13D 0       -0.00193   0.00106   0.00001   0.00000   0.00023
 120       13D+1        0.00000   0.00000  -0.00072   0.00060   0.00000
 121       13D-1       -0.00080   0.00102  -0.00001   0.00000   0.00064
 122       13D+2       -0.00085   0.00063   0.00001  -0.00001  -0.00039
 123       13D-2       -0.00001   0.00001  -0.00107   0.00097   0.00000
 124       14D 0       -0.00006  -0.00076   0.00001   0.00001  -0.00005
 125       14D+1        0.00000   0.00000   0.00043   0.00005   0.00000
 126       14D-1       -0.00006  -0.00020   0.00000   0.00000   0.00028
 127       14D+2        0.00008  -0.00045   0.00000   0.00001   0.00014
 128       14D-2        0.00000   0.00000   0.00025  -0.00010   0.00000
 129       15F 0        0.00000   0.00001   0.00000   0.00000   0.00002
 130       15F+1        0.00000   0.00000  -0.00007  -0.00004   0.00000
 131       15F-1        0.00001   0.00003   0.00000   0.00000   0.00002
 132       15F+2        0.00003   0.00002   0.00000   0.00000  -0.00001
 133       15F-2        0.00000   0.00000   0.00000  -0.00001   0.00000
 134       15F+3        0.00000   0.00000  -0.00001  -0.00001   0.00000
 135       15F-3        0.00002   0.00004   0.00000   0.00000  -0.00001
 136       16F 0       -0.00039  -0.00013   0.00000   0.00000  -0.00014
 137       16F+1        0.00000   0.00000   0.00014   0.00016   0.00000
 138       16F-1       -0.00090   0.00050   0.00000   0.00000   0.00016
 139       16F+2       -0.00006  -0.00029   0.00000   0.00000  -0.00022
 140       16F-2        0.00000   0.00000  -0.00036   0.00033   0.00000
 141       16F+3        0.00000   0.00000   0.00032  -0.00028   0.00000
 142       16F-3       -0.00019   0.00018   0.00000   0.00000  -0.00006
 143 4   Cl 1S          0.00044  -0.00239  -0.00015  -0.00051   0.17360
 144        2S         -0.00185   0.00846   0.00050   0.00172  -0.58604
 145        3S         -0.00041   0.00014  -0.00001  -0.00007   0.01735
 146        4S         -0.00012   0.00047   0.00003   0.00013  -0.04544
 147        5S          0.00055  -0.00105  -0.00001  -0.00001   0.00098
 148        6S          0.00067  -0.00196  -0.00004   0.00001   0.00161
 149        7PX        -0.00358  -0.00409  -0.69250  -0.69201  -0.00147
 150        7PY        -0.39319  -0.34598   0.00365   0.00448  -0.30899
 151        7PZ        -0.57066  -0.60009   0.00183   0.00217   0.21454
 152        8PX         0.00009   0.00009   0.01495   0.01340   0.00003
 153        8PY         0.00989   0.00733  -0.00009  -0.00008   0.00601
 154        8PZ         0.01393   0.01388  -0.00003  -0.00005  -0.00434
 155        9PX        -0.00019  -0.00021  -0.03665  -0.03711  -0.00008
 156        9PY        -0.02044  -0.01802   0.00020   0.00025  -0.01757
 157        9PZ        -0.02981  -0.03146   0.00009   0.00011   0.01222
 158       10PX         0.00002   0.00003   0.00381   0.00332   0.00001
 159       10PY         0.00309   0.00150  -0.00001   0.00000   0.00170
 160       10PZ         0.00500   0.00198  -0.00004   0.00002  -0.00133
 161       11PX         0.00000   0.00000   0.00056   0.00081   0.00000
 162       11PY         0.00040   0.00043  -0.00001   0.00000   0.00015
 163       11PZ         0.00064   0.00026  -0.00001   0.00000   0.00009
 164       12D 0       -0.00043  -0.00025   0.00000   0.00000   0.00005
 165       12D+1        0.00000   0.00000  -0.00017  -0.00015   0.00000
 166       12D-1        0.00022   0.00013   0.00000   0.00000   0.00013
 167       12D+2       -0.00024  -0.00013   0.00000   0.00000   0.00005
 168       12D-2        0.00000   0.00000   0.00029   0.00015   0.00000
 169       13D 0        0.00193   0.00106  -0.00001   0.00000  -0.00023
 170       13D+1        0.00000   0.00000   0.00072   0.00060   0.00000
 171       13D-1       -0.00080  -0.00102  -0.00001   0.00000   0.00064
 172       13D+2        0.00085   0.00063  -0.00001  -0.00001   0.00039
 173       13D-2       -0.00001  -0.00001  -0.00107  -0.00097   0.00000
 174       14D 0        0.00006  -0.00076  -0.00001   0.00001   0.00005
 175       14D+1        0.00000   0.00000  -0.00043   0.00005   0.00000
 176       14D-1       -0.00006   0.00020   0.00000   0.00000   0.00028
 177       14D+2       -0.00008  -0.00045   0.00000   0.00001  -0.00014
 178       14D-2        0.00000   0.00000   0.00025   0.00010   0.00000
 179       15F 0        0.00000   0.00001   0.00000   0.00000  -0.00002
 180       15F+1        0.00000   0.00000   0.00007  -0.00004   0.00000
 181       15F-1        0.00001  -0.00003   0.00000   0.00000   0.00002
 182       15F+2       -0.00003   0.00002   0.00000   0.00000   0.00001
 183       15F-2        0.00000   0.00000   0.00000   0.00001   0.00000
 184       15F+3        0.00000   0.00000   0.00001  -0.00001   0.00000
 185       15F-3        0.00002  -0.00004   0.00000   0.00000  -0.00001
 186       16F 0        0.00039  -0.00013   0.00000   0.00000   0.00014
 187       16F+1        0.00000   0.00000  -0.00014   0.00016   0.00000
 188       16F-1       -0.00090  -0.00050   0.00000   0.00000   0.00016
 189       16F+2        0.00006  -0.00029   0.00000   0.00000   0.00022
 190       16F-2        0.00000   0.00000  -0.00036  -0.00033   0.00000
 191       16F+3        0.00000   0.00000  -0.00032  -0.00028   0.00000
 192       16F-3       -0.00019  -0.00018   0.00000   0.00000  -0.00006
                           6         7         8         9        10
     Eigenvalues --     2.00003   2.00001   2.00001   2.00001   2.00000
   1 1   O  1S          0.01415   0.00000  -0.25889   0.88078   0.34098
   2        2S         -0.00043   0.00000   0.00566  -0.01618  -0.00557
   3        3S          0.00056   0.00000  -0.01081   0.03746   0.01491
   4        4S          0.00066   0.00000   0.00047  -0.00328  -0.00109
   5        5S          0.00031   0.00000  -0.00181  -0.00099  -0.00167
   6        6PX         0.00001   0.00000   0.00002  -0.00003   0.00001
   7        6PY         0.00000  -0.00079   0.00000   0.00000   0.00000
   8        6PZ        -0.00009   0.00000   0.00177  -0.00373   0.00045
   9        7PX         0.00001   0.00000   0.00001  -0.00001   0.00003
  10        7PY         0.00000  -0.00135   0.00000   0.00000   0.00000
  11        7PZ        -0.00022   0.00000   0.00129  -0.00077   0.00313
  12        8PX         0.00000   0.00000   0.00001  -0.00002   0.00000
  13        8PY         0.00000  -0.00415   0.00000   0.00000   0.00000
  14        8PZ        -0.00078   0.00000   0.00206  -0.00260   0.00278
  15        9PX        -0.00001   0.00000   0.00001   0.00001   0.00000
  16        9PY         0.00000  -0.00154   0.00000   0.00000   0.00000
  17        9PZ         0.00017   0.00000   0.00028  -0.00032   0.00086
  18       10D 0        0.00002   0.00000  -0.00010   0.00021   0.00002
  19       10D+1        0.00000   0.00000   0.00000   0.00000   0.00000
  20       10D-1        0.00000  -0.00004   0.00000   0.00000   0.00000
  21       10D+2        0.00000   0.00000   0.00000  -0.00007   0.00000
  22       10D-2        0.00000   0.00000   0.00000   0.00000   0.00000
  23       11D 0        0.00008   0.00000  -0.00009  -0.00036  -0.00104
  24       11D+1        0.00000   0.00000   0.00000  -0.00001  -0.00001
  25       11D-1        0.00000   0.00011   0.00000   0.00000   0.00000
  26       11D+2       -0.00002   0.00000   0.00017  -0.00004  -0.00012
  27       11D-2        0.00000   0.00000   0.00000   0.00000   0.00000
  28       12D 0        0.00007   0.00000  -0.00003   0.00074  -0.00096
  29       12D+1        0.00001   0.00000  -0.00001   0.00001   0.00000
  30       12D-1        0.00000   0.00105   0.00000   0.00000   0.00000
  31       12D+2       -0.00022   0.00000   0.00062   0.00016  -0.00003
  32       12D-2        0.00000   0.00002   0.00000   0.00000   0.00000
  33       13F 0        0.00001   0.00000  -0.00009   0.00006  -0.00013
  34       13F+1        0.00000   0.00000   0.00000   0.00000   0.00000
  35       13F-1        0.00000   0.00006   0.00000   0.00000   0.00000
  36       13F+2       -0.00001   0.00000   0.00002  -0.00002  -0.00002
  37       13F-2        0.00000   0.00000   0.00000   0.00000   0.00000
  38       13F+3        0.00000   0.00000   0.00000   0.00000   0.00000
  39       13F-3        0.00000   0.00000   0.00000   0.00000   0.00000
  40       14F 0        0.00006   0.00000  -0.00014  -0.00007   0.00053
  41       14F+1        0.00000   0.00000   0.00000   0.00000   0.00001
  42       14F-1        0.00000  -0.00004   0.00000   0.00000   0.00000
  43       14F+2        0.00009   0.00000  -0.00029  -0.00010   0.00018
  44       14F-2        0.00000  -0.00001   0.00000   0.00000   0.00000
  45       14F+3        0.00000   0.00000   0.00000   0.00000   0.00000
  46       14F-3        0.00000  -0.00007   0.00000   0.00000   0.00000
  47 2   C  1S         -0.14558   0.00000   0.61538  -0.10433   0.74242
  48        2S          0.00292   0.00000  -0.01071   0.00089  -0.00666
  49        3S         -0.00533   0.00000   0.02398  -0.00506   0.03219
  50        4S         -0.00632   0.00000   0.00580   0.00573  -0.01223
  51        5S         -0.00041   0.00000   0.00251   0.00149  -0.00228
  52        6PX        -0.00001   0.00000   0.00000   0.00000  -0.00001
  53        6PY         0.00000   0.00245   0.00000   0.00000   0.00000
  54        6PZ        -0.00038   0.00000   0.00061   0.00096  -0.00197
  55        7PX        -0.00001   0.00000   0.00001   0.00001   0.00003
  56        7PY         0.00000  -0.00036   0.00000   0.00000   0.00000
  57        7PZ        -0.00071   0.00000   0.00134   0.00086   0.00501
  58        8PX        -0.00001   0.00000   0.00001   0.00001   0.00000
  59        8PY         0.00000  -0.00009   0.00000   0.00000   0.00000
  60        8PZ         0.00244   0.00000  -0.00172  -0.00103   0.00412
  61        9PX         0.00001   0.00000  -0.00001   0.00000   0.00001
  62        9PY         0.00000   0.00141   0.00000   0.00000   0.00000
  63        9PZ        -0.00028   0.00000  -0.00012   0.00017   0.00017
  64       10D 0       -0.00007   0.00000   0.00025   0.00008   0.00070
  65       10D+1        0.00000   0.00000   0.00000   0.00000   0.00001
  66       10D-1        0.00000  -0.00012   0.00000   0.00000   0.00000
  67       10D+2        0.00007   0.00000  -0.00012   0.00003  -0.00016
  68       10D-2        0.00000   0.00000   0.00000   0.00000   0.00000
  69       11D 0       -0.00023   0.00000   0.00001   0.00093   0.00102
  70       11D+1        0.00000   0.00000   0.00000   0.00001   0.00002
  71       11D-1        0.00000   0.00275   0.00000   0.00000   0.00000
  72       11D+2        0.00090   0.00000  -0.00056  -0.00112   0.00329
  73       11D-2        0.00000   0.00000   0.00000   0.00000   0.00000
  74       12D 0       -0.00013   0.00000   0.00044  -0.00006  -0.00066
  75       12D+1        0.00001   0.00000  -0.00001  -0.00001   0.00000
  76       12D-1        0.00000   0.00258   0.00000   0.00000   0.00000
  77       12D+2        0.00078   0.00000  -0.00106  -0.00085   0.00113
  78       12D-2        0.00000   0.00001   0.00000   0.00000   0.00000
  79       13F 0       -0.00015   0.00000   0.00029  -0.00014   0.00038
  80       13F+1        0.00000   0.00000   0.00001   0.00000   0.00001
  81       13F-1        0.00000  -0.00007   0.00000   0.00000   0.00000
  82       13F+2       -0.00002   0.00000  -0.00010  -0.00007  -0.00008
  83       13F-2        0.00000   0.00000   0.00000   0.00000   0.00000
  84       13F+3        0.00000   0.00000   0.00000   0.00000   0.00000
  85       13F-3        0.00000  -0.00003   0.00000   0.00000   0.00000
  86       14F 0        0.00022   0.00000  -0.00108   0.00088  -0.00090
  87       14F+1        0.00000   0.00000   0.00000   0.00002   0.00000
  88       14F-1        0.00000   0.00154   0.00000   0.00000   0.00000
  89       14F+2       -0.00006   0.00000  -0.00060   0.00035  -0.00098
  90       14F-2        0.00000   0.00000   0.00000   0.00000   0.00000
  91       14F+3        0.00000   0.00000  -0.00001   0.00000   0.00000
  92       14F-3        0.00000   0.00079   0.00000   0.00000   0.00000
  93 3   Cl 1S         -0.17727  -0.11148  -0.09138  -0.03786   0.03577
  94        2S          0.59804   0.37816   0.31184   0.12914  -0.12210
  95        3S         -0.01784  -0.00664  -0.00470  -0.00157   0.00080
  96        4S          0.04654   0.03147   0.02543   0.01088  -0.01094
  97        5S         -0.00188  -0.00640  -0.00431  -0.00354   0.00810
  98        6S         -0.00021   0.00280  -0.00089  -0.00077   0.00224
  99        7PX         0.00296  -0.00138  -0.00121  -0.00053   0.00082
 100        7PY        -0.30005   0.47639   0.34827   0.22256  -0.30880
 101        7PZ        -0.16344   0.32710   0.19672   0.13901  -0.18370
 102        8PX        -0.00005   0.00002   0.00001   0.00001  -0.00001
 103        8PY         0.00528  -0.00842  -0.00516  -0.00336   0.00516
 104        8PZ         0.00286  -0.00623  -0.00295  -0.00216   0.00363
 105        9PX         0.00016  -0.00008  -0.00007  -0.00003   0.00005
 106        9PY        -0.01707   0.02907   0.02122   0.01385  -0.01980
 107        9PZ        -0.00935   0.02012   0.01201   0.00866  -0.01194
 108       10PX        -0.00001   0.00000   0.00000  -0.00001   0.00001
 109       10PY         0.00225  -0.00007  -0.00107  -0.00094   0.00308
 110       10PZ         0.00119  -0.00053  -0.00041  -0.00097   0.00219
 111       11PX        -0.00001   0.00000   0.00001   0.00000   0.00000
 112       11PY         0.00003   0.00010  -0.00006  -0.00005   0.00020
 113       11PZ         0.00012   0.00026  -0.00004  -0.00016   0.00019
 114       12D 0       -0.00005   0.00001   0.00000   0.00002   0.00000
 115       12D+1        0.00000   0.00000   0.00000   0.00000   0.00000
 116       12D-1        0.00017   0.00042   0.00025   0.00024  -0.00035
 117       12D+2       -0.00009  -0.00032  -0.00023  -0.00014   0.00022
 118       12D-2        0.00000   0.00000   0.00000   0.00000   0.00000
 119       13D 0       -0.00007  -0.00047   0.00011   0.00008   0.00006
 120       13D+1        0.00000   0.00000   0.00000   0.00000   0.00000
 121       13D-1        0.00038  -0.00224  -0.00089  -0.00090   0.00211
 122       13D+2       -0.00047   0.00122   0.00105   0.00065  -0.00132
 123       13D-2        0.00000   0.00000   0.00000   0.00000   0.00000
 124       14D 0       -0.00008  -0.00010   0.00005  -0.00008   0.00008
 125       14D+1        0.00000   0.00000   0.00000   0.00000   0.00000
 126       14D-1        0.00030   0.00013   0.00026  -0.00015   0.00065
 127       14D+2       -0.00034  -0.00068   0.00002   0.00007  -0.00052
 128       14D-2        0.00000   0.00000   0.00000   0.00000   0.00000
 129       15F 0        0.00000  -0.00001   0.00003  -0.00002   0.00002
 130       15F+1        0.00000   0.00000   0.00000   0.00000   0.00000
 131       15F-1        0.00000  -0.00007  -0.00001   0.00004  -0.00002
 132       15F+2        0.00000   0.00004   0.00003  -0.00004  -0.00001
 133       15F-2        0.00000   0.00000   0.00000   0.00000   0.00000
 134       15F+3        0.00000   0.00000   0.00000   0.00000   0.00000
 135       15F-3       -0.00003   0.00002   0.00007   0.00003  -0.00005
 136       16F 0       -0.00004   0.00029  -0.00006   0.00014  -0.00034
 137       16F+1        0.00000   0.00000   0.00000   0.00000   0.00000
 138       16F-1        0.00001  -0.00047   0.00000  -0.00013   0.00038
 139       16F+2       -0.00016   0.00059   0.00018   0.00029  -0.00060
 140       16F-2        0.00000   0.00000   0.00000   0.00000   0.00000
 141       16F+3        0.00000   0.00000   0.00000   0.00000   0.00000
 142       16F-3       -0.00011   0.00017   0.00021   0.00008  -0.00024
 143 4   Cl 1S         -0.17727   0.11148  -0.09138  -0.03786   0.03577
 144        2S          0.59804  -0.37816   0.31184   0.12914  -0.12210
 145        3S         -0.01784   0.00664  -0.00470  -0.00157   0.00080
 146        4S          0.04654  -0.03147   0.02543   0.01088  -0.01094
 147        5S         -0.00188   0.00640  -0.00431  -0.00354   0.00810
 148        6S         -0.00021  -0.00280  -0.00089  -0.00077   0.00224
 149        7PX         0.00296   0.00138  -0.00121  -0.00053   0.00082
 150        7PY         0.30005   0.47639  -0.34827  -0.22256   0.30880
 151        7PZ        -0.16344  -0.32710   0.19672   0.13901  -0.18370
 152        8PX        -0.00005  -0.00002   0.00001   0.00001  -0.00001
 153        8PY        -0.00528  -0.00842   0.00516   0.00336  -0.00516
 154        8PZ         0.00286   0.00623  -0.00295  -0.00216   0.00363
 155        9PX         0.00016   0.00008  -0.00007  -0.00003   0.00005
 156        9PY         0.01707   0.02907  -0.02122  -0.01385   0.01980
 157        9PZ        -0.00935  -0.02012   0.01201   0.00866  -0.01194
 158       10PX        -0.00001   0.00000   0.00000  -0.00001   0.00001
 159       10PY        -0.00225  -0.00007   0.00107   0.00094  -0.00308
 160       10PZ         0.00119   0.00053  -0.00041  -0.00097   0.00219
 161       11PX        -0.00001   0.00000   0.00001   0.00000   0.00000
 162       11PY        -0.00003   0.00010   0.00006   0.00005  -0.00020
 163       11PZ         0.00012  -0.00026  -0.00004  -0.00016   0.00019
 164       12D 0       -0.00005  -0.00001   0.00000   0.00002   0.00000
 165       12D+1        0.00000   0.00000   0.00000   0.00000   0.00000
 166       12D-1       -0.00017   0.00042  -0.00025  -0.00024   0.00035
 167       12D+2       -0.00009   0.00032  -0.00023  -0.00014   0.00022
 168       12D-2        0.00000   0.00000   0.00000   0.00000   0.00000
 169       13D 0       -0.00007   0.00047   0.00011   0.00008   0.00006
 170       13D+1        0.00000   0.00000   0.00000   0.00000   0.00000
 171       13D-1       -0.00038  -0.00224   0.00089   0.00090  -0.00211
 172       13D+2       -0.00047  -0.00122   0.00105   0.00065  -0.00132
 173       13D-2        0.00000   0.00000   0.00000   0.00000   0.00000
 174       14D 0       -0.00008   0.00010   0.00005  -0.00008   0.00008
 175       14D+1        0.00000   0.00000   0.00000   0.00000   0.00000
 176       14D-1       -0.00030   0.00013  -0.00026   0.00015  -0.00065
 177       14D+2       -0.00034   0.00068   0.00002   0.00007  -0.00052
 178       14D-2        0.00000   0.00000   0.00000   0.00000   0.00000
 179       15F 0        0.00000   0.00001   0.00003  -0.00002   0.00002
 180       15F+1        0.00000   0.00000   0.00000   0.00000   0.00000
 181       15F-1        0.00000  -0.00007   0.00001  -0.00004   0.00002
 182       15F+2        0.00000  -0.00004   0.00003  -0.00004  -0.00001
 183       15F-2        0.00000   0.00000   0.00000   0.00000   0.00000
 184       15F+3        0.00000   0.00000   0.00000   0.00000   0.00000
 185       15F-3        0.00003   0.00002  -0.00007  -0.00003   0.00005
 186       16F 0       -0.00004  -0.00029  -0.00006   0.00014  -0.00034
 187       16F+1        0.00000   0.00000   0.00000   0.00000   0.00000
 188       16F-1       -0.00001  -0.00047   0.00000   0.00013  -0.00038
 189       16F+2       -0.00016  -0.00059   0.00018   0.00029  -0.00060
 190       16F-2        0.00000   0.00000   0.00000   0.00000   0.00000
 191       16F+3        0.00000   0.00000   0.00000   0.00000   0.00000
 192       16F-3        0.00011   0.00017  -0.00021  -0.00008   0.00024
                          11        12        13        14        15
     Eigenvalues --     2.00000   2.00000   1.98120   1.97616   1.97460
   1 1   O  1S          0.00003   0.00000  -0.18605  -0.06286   0.00000
   2        2S          0.00001   0.00000   0.48174   0.17008   0.00000
   3        3S          0.00000   0.00000   0.13549   0.04887   0.00000
   4        4S          0.00003   0.00000   0.29382   0.13440   0.00000
   5        5S          0.00004   0.00000   0.01960   0.02324   0.00000
   6        6PX         0.00000   0.00000  -0.00004   0.00017   0.00000
   7        6PY         0.00000   0.00000   0.00000   0.00000   0.04396
   8        6PZ         0.00000   0.00000  -0.00872   0.02885   0.00000
   9        7PX         0.00000   0.00000  -0.00009   0.00016   0.00000
  10        7PY         0.00000   0.00001   0.00000   0.00000   0.05471
  11        7PZ         0.00000   0.00000  -0.01518   0.03063   0.00000
  12        8PX         0.00000   0.00000   0.00039   0.00018   0.00000
  13        8PY         0.00000   0.00006   0.00000   0.00000   0.04004
  14        8PZ         0.00003   0.00000   0.04928   0.02588   0.00000
  15        9PX         0.00000   0.00000   0.00006   0.00004   0.00000
  16        9PY         0.00000   0.00001   0.00000   0.00000   0.00092
  17        9PZ         0.00000   0.00000   0.01375  -0.00042   0.00000
  18       10D 0        0.00000   0.00000   0.00496   0.00003   0.00000
  19       10D+1        0.00000   0.00000   0.00007   0.00001   0.00000
  20       10D-1        0.00000   0.00000   0.00000   0.00000  -0.00210
  21       10D+2        0.00000   0.00000  -0.00001  -0.00002   0.00000
  22       10D-2        0.00000   0.00000   0.00000   0.00000  -0.00002
  23       11D 0       -0.00001   0.00000   0.01088   0.00141   0.00000
  24       11D+1        0.00000   0.00000   0.00016   0.00002   0.00000
  25       11D-1        0.00000   0.00000   0.00000   0.00000  -0.00534
  26       11D+2        0.00000   0.00000   0.00026   0.00100   0.00000
  27       11D-2        0.00000   0.00000   0.00000   0.00000  -0.00003
  28       12D 0       -0.00002   0.00000  -0.01505  -0.00336   0.00000
  29       12D+1        0.00000   0.00000  -0.00022  -0.00007   0.00000
  30       12D-1        0.00000  -0.00002   0.00000   0.00000  -0.00400
  31       12D+2        0.00000   0.00000   0.00142   0.00136   0.00000
  32       12D-2        0.00000   0.00000   0.00000   0.00000   0.00002
  33       13F 0        0.00000   0.00000  -0.00275  -0.00032   0.00000
  34       13F+1        0.00000   0.00000  -0.00006  -0.00001   0.00000
  35       13F-1        0.00000   0.00000   0.00000   0.00000   0.00147
  36       13F+2        0.00000   0.00000   0.00021  -0.00005   0.00000
  37       13F-2        0.00000   0.00000   0.00000   0.00000   0.00002
  38       13F+3        0.00000   0.00000   0.00000   0.00000   0.00000
  39       13F-3        0.00000   0.00000   0.00000   0.00000   0.00008
  40       14F 0        0.00000   0.00000  -0.00008  -0.00057   0.00000
  41       14F+1        0.00000   0.00000   0.00000   0.00001   0.00000
  42       14F-1        0.00000   0.00000   0.00000   0.00000   0.00015
  43       14F+2        0.00000   0.00000  -0.00069  -0.00104   0.00000
  44       14F-2        0.00000   0.00000   0.00000   0.00000  -0.00002
  45       14F+3        0.00000   0.00000  -0.00001  -0.00002   0.00000
  46       14F-3        0.00000   0.00000   0.00000   0.00000   0.00044
  47 2   C  1S         -0.00030   0.00000  -0.08434   0.04576   0.00000
  48        2S          0.00003   0.00000   0.19423  -0.12665   0.00000
  49        3S          0.00002   0.00000   0.04627  -0.02637   0.00000
  50        4S         -0.00013   0.00000   0.00263  -0.05553   0.00000
  51        5S         -0.00005   0.00000  -0.00447  -0.02446   0.00000
  52        6PX         0.00000   0.00000   0.00065   0.00017   0.00000
  53        6PY         0.00000  -0.00001   0.00000   0.00000   0.07153
  54        6PZ        -0.00001   0.00000   0.06359   0.05729   0.00000
  55        7PX         0.00000   0.00000   0.00061   0.00012   0.00000
  56        7PY         0.00000   0.00004   0.00000   0.00000   0.09693
  57        7PZ         0.00005   0.00000   0.04904   0.06670   0.00000
  58        8PX         0.00000   0.00000  -0.00015  -0.00004   0.00000
  59        8PY         0.00000  -0.00009   0.00000   0.00000  -0.00734
  60        8PZ        -0.00001   0.00000  -0.01844  -0.00344   0.00000
  61        9PX         0.00000   0.00000  -0.00001  -0.00004   0.00000
  62        9PY         0.00000  -0.00001   0.00000   0.00000   0.00604
  63        9PZ         0.00000   0.00000  -0.00732   0.00329   0.00000
  64       10D 0        0.00000   0.00000   0.01556   0.00259   0.00000
  65       10D+1        0.00000   0.00000   0.00024   0.00003   0.00000
  66       10D-1        0.00000   0.00000   0.00000   0.00000  -0.00592
  67       10D+2        0.00000   0.00000  -0.00266   0.00660   0.00000
  68       10D-2        0.00000   0.00000   0.00000   0.00000   0.00002
  69       11D 0       -0.00001   0.00000   0.00615  -0.00225   0.00000
  70       11D+1        0.00000   0.00000   0.00012  -0.00004   0.00000
  71       11D-1        0.00000  -0.00007   0.00000   0.00000  -0.01928
  72       11D+2        0.00005   0.00000  -0.00326   0.01161   0.00000
  73       11D-2        0.00000   0.00000   0.00000   0.00000  -0.00001
  74       12D 0       -0.00003   0.00000  -0.02000  -0.00788   0.00000
  75       12D+1        0.00000   0.00000  -0.00023  -0.00013   0.00000
  76       12D-1        0.00000  -0.00001   0.00000   0.00000   0.00452
  77       12D+2        0.00001   0.00000  -0.00112  -0.00272   0.00000
  78       12D-2        0.00000   0.00000   0.00000   0.00000  -0.00007
  79       13F 0        0.00000   0.00000   0.00592  -0.00204   0.00000
  80       13F+1        0.00000   0.00000   0.00010  -0.00001   0.00000
  81       13F-1        0.00000   0.00000   0.00000   0.00000   0.00231
  82       13F+2       -0.00001   0.00000   0.00258  -0.00425   0.00000
  83       13F-2        0.00000   0.00000   0.00000   0.00000   0.00002
  84       13F+3        0.00000   0.00000   0.00000  -0.00001   0.00000
  85       13F-3        0.00000  -0.00001   0.00000   0.00000  -0.00265
  86       14F 0       -0.00003   0.00000  -0.00661  -0.00482   0.00000
  87       14F+1        0.00000   0.00000  -0.00010  -0.00002   0.00000
  88       14F-1        0.00000  -0.00001   0.00000   0.00000   0.00139
  89       14F+2       -0.00003   0.00000  -0.00283  -0.00584   0.00000
  90       14F-2        0.00000   0.00000   0.00000   0.00000  -0.00008
  91       14F+3        0.00000   0.00000  -0.00003  -0.00004   0.00000
  92       14F-3        0.00000  -0.00001   0.00000   0.00000   0.00003
  93 3   Cl 1S          0.70481   0.70543   0.01119  -0.04764  -0.05216
  94        2S          0.00700   0.00716  -0.04060   0.17865   0.19510
  95        3S          0.00011   0.00012   0.09174  -0.38022  -0.41803
  96        4S          0.00015   0.00016   0.01037  -0.04676  -0.05250
  97        5S          0.00001  -0.00006   0.04986  -0.22572  -0.25700
  98        6S          0.00001  -0.00007  -0.00311   0.01089   0.00587
  99        7PX         0.00000   0.00000  -0.00002  -0.00004   0.00001
 100        7PY        -0.00084  -0.00043  -0.00743   0.01510   0.00078
 101        7PZ        -0.00045  -0.00034  -0.00922   0.00159   0.00820
 102        8PX         0.00000   0.00000   0.00006   0.00007  -0.00002
 103        8PY         0.00007   0.00006   0.01290  -0.02045   0.01570
 104        8PZ         0.00005   0.00004   0.02309   0.01016  -0.01107
 105        9PX         0.00000   0.00000   0.00003   0.00003  -0.00003
 106        9PY        -0.00008  -0.00006   0.00600  -0.00962   0.00645
 107        9PZ        -0.00005  -0.00004   0.00995   0.00375  -0.00516
 108       10PX         0.00000   0.00000  -0.00001   0.00000  -0.00002
 109       10PY        -0.00001  -0.00007   0.00311   0.00223   0.01604
 110       10PZ        -0.00002  -0.00004   0.00274   0.00960  -0.00091
 111       11PX         0.00000   0.00000   0.00000   0.00001  -0.00002
 112       11PY         0.00000  -0.00001  -0.00125   0.00379   0.00221
 113       11PZ         0.00000   0.00000   0.00097   0.00167   0.00264
 114       12D 0        0.00000   0.00000   0.00035   0.00145  -0.00093
 115       12D+1        0.00000   0.00000   0.00001   0.00001   0.00000
 116       12D-1        0.00000   0.00001   0.00347  -0.00585  -0.00592
 117       12D+2        0.00000   0.00000  -0.00267   0.00548   0.00302
 118       12D-2        0.00000   0.00000   0.00000   0.00000   0.00000
 119       13D 0        0.00000   0.00000  -0.00047   0.00213  -0.00245
 120       13D+1        0.00000   0.00000  -0.00002   0.00000   0.00001
 121       13D-1        0.00003   0.00002   0.00379  -0.00509  -0.00488
 122       13D+2       -0.00001  -0.00001  -0.00139   0.00601   0.00134
 123       13D-2        0.00000   0.00000   0.00001   0.00000   0.00002
 124       14D 0        0.00000   0.00000  -0.00001  -0.00054  -0.00068
 125       14D+1        0.00000   0.00000   0.00003   0.00001  -0.00001
 126       14D-1       -0.00001  -0.00002  -0.00197   0.00143   0.00190
 127       14D+2        0.00001   0.00002  -0.00091  -0.00195  -0.00295
 128       14D-2        0.00000   0.00000  -0.00002  -0.00003   0.00000
 129       15F 0        0.00000   0.00000  -0.00033   0.00140   0.00086
 130       15F+1        0.00000   0.00000   0.00000   0.00000   0.00000
 131       15F-1        0.00000   0.00000   0.00040  -0.00022  -0.00163
 132       15F+2       -0.00001   0.00000  -0.00077   0.00221   0.00221
 133       15F-2        0.00000   0.00000   0.00000   0.00000   0.00000
 134       15F+3        0.00000   0.00000   0.00000   0.00000   0.00000
 135       15F-3        0.00000   0.00000  -0.00059   0.00181   0.00084
 136       16F 0        0.00000   0.00000  -0.00044   0.00011  -0.00048
 137       16F+1        0.00000   0.00000  -0.00001   0.00001   0.00000
 138       16F-1        0.00000   0.00000  -0.00026   0.00024  -0.00025
 139       16F+2        0.00000   0.00000   0.00016   0.00022  -0.00100
 140       16F-2        0.00000   0.00000  -0.00001   0.00000   0.00001
 141       16F+3        0.00000   0.00000  -0.00001   0.00001  -0.00001
 142       16F-3        0.00000   0.00000   0.00095   0.00008  -0.00072
 143 4   Cl 1S          0.70547  -0.70477   0.01119  -0.04764   0.05216
 144        2S          0.00701  -0.00716  -0.04060   0.17865  -0.19510
 145        3S          0.00011  -0.00012   0.09174  -0.38022   0.41803
 146        4S          0.00015  -0.00016   0.01037  -0.04676   0.05250
 147        5S          0.00001   0.00006   0.04986  -0.22572   0.25700
 148        6S          0.00001   0.00007  -0.00311   0.01089  -0.00587
 149        7PX         0.00000   0.00000  -0.00002  -0.00004  -0.00001
 150        7PY         0.00085  -0.00043   0.00743  -0.01510   0.00078
 151        7PZ        -0.00045   0.00034  -0.00922   0.00159  -0.00820
 152        8PX         0.00000   0.00000   0.00006   0.00007   0.00002
 153        8PY        -0.00007   0.00006  -0.01290   0.02045   0.01570
 154        8PZ         0.00005  -0.00004   0.02309   0.01016   0.01107
 155        9PX         0.00000   0.00000   0.00003   0.00003   0.00003
 156        9PY         0.00008  -0.00006  -0.00600   0.00962   0.00645
 157        9PZ        -0.00005   0.00004   0.00995   0.00375   0.00516
 158       10PX         0.00000   0.00000  -0.00001   0.00000   0.00002
 159       10PY         0.00001  -0.00007  -0.00311  -0.00223   0.01604
 160       10PZ        -0.00002   0.00004   0.00274   0.00960   0.00091
 161       11PX         0.00000   0.00000   0.00000   0.00001   0.00002
 162       11PY         0.00000  -0.00001   0.00125  -0.00379   0.00221
 163       11PZ         0.00000   0.00000   0.00097   0.00167  -0.00264
 164       12D 0        0.00000   0.00000   0.00035   0.00145   0.00093
 165       12D+1        0.00000   0.00000   0.00001   0.00001   0.00000
 166       12D-1        0.00000   0.00001  -0.00347   0.00585  -0.00592
 167       12D+2        0.00000   0.00000  -0.00267   0.00548  -0.00302
 168       12D-2        0.00000   0.00000   0.00000   0.00000   0.00000
 169       13D 0        0.00000   0.00000  -0.00047   0.00213   0.00245
 170       13D+1        0.00000   0.00000  -0.00002   0.00000  -0.00001
 171       13D-1       -0.00003   0.00002  -0.00379   0.00509  -0.00488
 172       13D+2       -0.00001   0.00001  -0.00139   0.00601  -0.00134
 173       13D-2        0.00000   0.00000  -0.00001   0.00000   0.00002
 174       14D 0        0.00000   0.00000  -0.00001  -0.00054   0.00068
 175       14D+1        0.00000   0.00000   0.00003   0.00001   0.00001
 176       14D-1        0.00001  -0.00002   0.00197  -0.00143   0.00190
 177       14D+2        0.00001  -0.00002  -0.00091  -0.00195   0.00295
 178       14D-2        0.00000   0.00000   0.00002   0.00003   0.00000
 179       15F 0        0.00000   0.00000  -0.00033   0.00140  -0.00086
 180       15F+1        0.00000   0.00000   0.00000   0.00000   0.00000
 181       15F-1        0.00000   0.00000  -0.00040   0.00022  -0.00163
 182       15F+2       -0.00001   0.00000  -0.00077   0.00221  -0.00221
 183       15F-2        0.00000   0.00000   0.00000   0.00000   0.00000
 184       15F+3        0.00000   0.00000   0.00000   0.00000   0.00000
 185       15F-3        0.00000   0.00000   0.00059  -0.00181   0.00084
 186       16F 0        0.00000   0.00000  -0.00044   0.00011   0.00048
 187       16F+1        0.00000   0.00000  -0.00001   0.00001   0.00000
 188       16F-1        0.00000   0.00000   0.00026  -0.00024  -0.00025
 189       16F+2        0.00000   0.00000   0.00016   0.00022   0.00100
 190       16F-2        0.00000   0.00000   0.00001   0.00000   0.00001
 191       16F+3        0.00000   0.00000  -0.00001   0.00001   0.00001
 192       16F-3        0.00000   0.00000  -0.00095  -0.00008  -0.00072
                          16        17        18        19        20
     Eigenvalues --     1.96277   1.95785   1.95159   1.94905   1.94743
   1 1   O  1S          0.03971   0.00000  -0.00845   0.00037   0.00000
   2        2S         -0.12878   0.00000   0.02178  -0.00096   0.00000
   3        3S         -0.04226   0.00000   0.00680  -0.00027   0.00000
   4        4S         -0.23869   0.00000   0.02418  -0.00014   0.00000
   5        5S         -0.05963   0.00000   0.02430  -0.00011   0.00000
   6        6PX        -0.00190   0.00000   0.00008   0.02760   0.00000
   7        6PY         0.00000   0.29832   0.00000   0.00000   0.11177
   8        6PZ        -0.29529   0.00000  -0.00757   0.00140   0.00000
   9        7PX        -0.00221   0.00000   0.00007   0.03494   0.00000
  10        7PY         0.00000   0.37047   0.00000   0.00000   0.13661
  11        7PZ        -0.34965   0.00000  -0.01062   0.00169   0.00000
  12        8PX        -0.00074   0.00000  -0.00006   0.01728   0.00000
  13        8PY         0.00000   0.27132   0.00000   0.00000   0.09519
  14        8PZ        -0.15254   0.00000  -0.00030   0.00044   0.00000
  15        9PX         0.00008   0.00000  -0.00012  -0.01198   0.00000
  16        9PY         0.00000   0.03766   0.00000   0.00000   0.01521
  17        9PZ         0.00122   0.00000   0.00063   0.00006   0.00000
  18       10D 0        0.01320   0.00000   0.00021  -0.00003   0.00000
  19       10D+1        0.00018   0.00000  -0.00002  -0.00313   0.00000
  20       10D-1        0.00000  -0.00900   0.00000   0.00000  -0.00203
  21       10D+2       -0.00002   0.00000   0.00058  -0.00003   0.00000
  22       10D-2        0.00000  -0.00008   0.00000   0.00000  -0.00003
  23       11D 0        0.02658   0.00000   0.00139  -0.00003   0.00000
  24       11D+1        0.00032   0.00000   0.00001  -0.00875   0.00000
  25       11D-1        0.00000  -0.02621   0.00000   0.00000  -0.00260
  26       11D+2        0.00116   0.00000   0.00047  -0.00008   0.00000
  27       11D-2        0.00000  -0.00022   0.00000   0.00000  -0.00008
  28       12D 0       -0.00324   0.00000  -0.00116   0.00032   0.00000
  29       12D+1       -0.00011   0.00000  -0.00003  -0.00698   0.00000
  30       12D-1        0.00000  -0.01713   0.00000   0.00000  -0.00142
  31       12D+2        0.00218   0.00000   0.00223  -0.00004   0.00000
  32       12D-2        0.00000  -0.00009   0.00000   0.00000  -0.00011
  33       13F 0       -0.00481   0.00000  -0.00004   0.00000   0.00000
  34       13F+1       -0.00008   0.00000   0.00001   0.00166   0.00000
  35       13F-1        0.00000   0.00562   0.00000   0.00000   0.00095
  36       13F+2       -0.00068   0.00000  -0.00016   0.00003   0.00000
  37       13F-2        0.00000   0.00007   0.00000   0.00000   0.00002
  38       13F+3       -0.00001   0.00000   0.00000  -0.00001   0.00000
  39       13F-3        0.00000   0.00091   0.00000   0.00000   0.00046
  40       14F 0       -0.00410   0.00000  -0.00024   0.00000   0.00000
  41       14F+1       -0.00006   0.00000  -0.00002   0.00110   0.00000
  42       14F-1        0.00000   0.00424   0.00000   0.00000  -0.00008
  43       14F+2       -0.00163   0.00000   0.00032   0.00002   0.00000
  44       14F-2        0.00000   0.00003   0.00000   0.00000   0.00003
  45       14F+3       -0.00001   0.00000   0.00001   0.00073   0.00000
  46       14F-3        0.00000   0.00102   0.00000   0.00000   0.00013
  47 2   C  1S         -0.11378   0.00000  -0.03595  -0.00056   0.00000
  48        2S          0.30980   0.00000   0.10102   0.00164   0.00000
  49        3S          0.08111   0.00000   0.02501   0.00031   0.00000
  50        4S          0.10669   0.00000   0.05277   0.00047   0.00000
  51        5S          0.00864   0.00000   0.01335   0.00038   0.00000
  52        6PX         0.00155   0.00000   0.00014   0.11086   0.00000
  53        6PY         0.00000   0.14452   0.00000   0.00000   0.01541
  54        6PZ         0.14800   0.00000  -0.04929  -0.00284   0.00000
  55        7PX         0.00175   0.00000   0.00022   0.15300   0.00000
  56        7PY         0.00000   0.18806   0.00000   0.00000   0.02343
  57        7PZ         0.15694   0.00000  -0.07108  -0.00365   0.00000
  58        8PX         0.00014   0.00000   0.00009   0.04536   0.00000
  59        8PY         0.00000   0.01617   0.00000   0.00000   0.00494
  60        8PZ        -0.00184   0.00000  -0.02649  -0.00013   0.00000
  61        9PX        -0.00002   0.00000   0.00000   0.01279   0.00000
  62        9PY         0.00000  -0.00874   0.00000   0.00000  -0.00992
  63        9PZ        -0.00250   0.00000  -0.01084   0.00001   0.00000
  64       10D 0        0.01573   0.00000   0.01076  -0.00020   0.00000
  65       10D+1        0.00028   0.00000   0.00006  -0.00465   0.00000
  66       10D-1        0.00000   0.02076   0.00000   0.00000   0.00398
  67       10D+2        0.00003   0.00000   0.00397  -0.00011   0.00000
  68       10D-2        0.00000   0.00019   0.00000   0.00000  -0.00031
  69       11D 0        0.00135   0.00000   0.03300  -0.00005   0.00000
  70       11D+1        0.00010   0.00000   0.00017  -0.02721   0.00000
  71       11D-1        0.00000   0.01994   0.00000   0.00000   0.00292
  72       11D+2       -0.00443   0.00000   0.01549  -0.00024   0.00000
  73       11D-2        0.00000   0.00023   0.00000   0.00000  -0.00104
  74       12D 0        0.00024   0.00000  -0.02336   0.00046   0.00000
  75       12D+1       -0.00009   0.00000  -0.00003  -0.00823   0.00000
  76       12D-1        0.00000  -0.01540   0.00000   0.00000   0.01411
  77       12D+2        0.00441   0.00000  -0.01757   0.00004   0.00000
  78       12D-2        0.00000  -0.00037   0.00000   0.00000   0.00025
  79       13F 0        0.00919   0.00000  -0.00069  -0.00004   0.00000
  80       13F+1        0.00017   0.00000   0.00002   0.00251   0.00000
  81       13F-1        0.00000   0.00512   0.00000   0.00000   0.00855
  82       13F+2        0.00173   0.00000   0.00173   0.00010   0.00000
  83       13F-2        0.00000   0.00008   0.00000   0.00000   0.00021
  84       13F+3       -0.00001   0.00000   0.00001  -0.00482   0.00000
  85       13F-3        0.00000  -0.00291   0.00000   0.00000   0.00151
  86       14F 0       -0.01002   0.00000  -0.00458   0.00019   0.00000
  87       14F+1       -0.00018   0.00000   0.00000  -0.00049   0.00000
  88       14F-1        0.00000   0.00159   0.00000   0.00000   0.01442
  89       14F+2       -0.00324   0.00000  -0.00099  -0.00003   0.00000
  90       14F-2        0.00000  -0.00004   0.00000   0.00000   0.00042
  91       14F+3       -0.00006   0.00000   0.00000  -0.00312   0.00000
  92       14F-3        0.00000   0.00077   0.00000   0.00000   0.00347
  93 3   Cl 1S         -0.01193   0.01512  -0.01052  -0.00015  -0.00125
  94        2S          0.04624  -0.05759   0.03995   0.00056   0.00495
  95        3S         -0.09412   0.12342  -0.08673  -0.00128  -0.00974
  96        4S         -0.01266   0.01716  -0.01356  -0.00022  -0.00202
  97        5S         -0.07972   0.11891  -0.08163  -0.00117  -0.01053
  98        6S         -0.00812   0.00808  -0.02259  -0.00024  -0.01260
  99        7PX        -0.00012   0.00028   0.00031  -0.14799  -0.00624
 100        7PY        -0.00338   0.00422  -0.10714  -0.00103   0.09052
 101        7PZ        -0.01477   0.04402   0.10881  -0.00117  -0.14012
 102        8PX         0.00027  -0.00061  -0.00074   0.34871   0.01461
 103        8PY         0.00418   0.00283   0.24744   0.00222  -0.21162
 104        8PZ         0.03226  -0.09625  -0.25994   0.00262   0.33231
 105        9PX         0.00013  -0.00032  -0.00035   0.16281   0.00695
 106        9PY         0.00385  -0.00283   0.11691   0.00103  -0.10243
 107        9PZ         0.01665  -0.04808  -0.12442   0.00127   0.15763
 108       10PX         0.00010  -0.00054  -0.00045   0.19595   0.00907
 109       10PY        -0.01544   0.03081   0.12754   0.00069  -0.13493
 110       10PZ         0.00602  -0.03822  -0.17651   0.00147   0.20800
 111       11PX         0.00000  -0.00003  -0.00002   0.00081   0.00045
 112       11PY        -0.00088   0.00443   0.00036  -0.00005  -0.00659
 113       11PZ         0.00003   0.00269  -0.00754   0.00006   0.01046
 114       12D 0        0.00315  -0.00566  -0.00694  -0.00008   0.00097
 115       12D+1        0.00003  -0.00003   0.00001   0.00559   0.00013
 116       12D-1        0.00566  -0.01037   0.00153   0.00021  -0.00133
 117       12D+2       -0.00099   0.00445  -0.00942  -0.00021   0.00066
 118       12D-2        0.00005  -0.00002  -0.00001   0.01069   0.00016
 119       13D 0        0.00219  -0.00864  -0.00846  -0.00011  -0.00076
 120       13D+1        0.00000  -0.00003   0.00001   0.00830   0.00014
 121       13D-1        0.00533  -0.00692   0.00106   0.00017  -0.00081
 122       13D+2        0.00166   0.00051  -0.01148  -0.00025  -0.00156
 123       13D-2        0.00006   0.00000   0.00000   0.01641   0.00015
 124       14D 0        0.00230  -0.00604  -0.00795  -0.00001   0.00140
 125       14D+1        0.00000  -0.00008   0.00003   0.00176   0.00017
 126       14D-1       -0.00037  -0.00170  -0.00341   0.00008   0.00147
 127       14D+2        0.00314  -0.00295  -0.00567  -0.00002   0.00044
 128       14D-2        0.00004  -0.00006  -0.00001   0.00527   0.00022
 129       15F 0        0.00032  -0.00023  -0.00195  -0.00005   0.00081
 130       15F+1        0.00001  -0.00001   0.00000   0.00052   0.00001
 131       15F-1        0.00146  -0.00359  -0.00400   0.00001   0.00274
 132       15F+2       -0.00035   0.00231  -0.00130  -0.00009   0.00031
 133       15F-2        0.00002  -0.00001  -0.00001   0.00440   0.00012
 134       15F+3       -0.00001   0.00001   0.00001  -0.00433  -0.00009
 135       15F-3        0.00033   0.00051  -0.00321  -0.00006   0.00093
 136       16F 0       -0.00158  -0.00135  -0.00046   0.00001  -0.00046
 137       16F+1       -0.00003   0.00000   0.00001  -0.00046   0.00001
 138       16F-1       -0.00016  -0.00050  -0.00207  -0.00002   0.00148
 139       16F+2       -0.00020  -0.00212  -0.00053   0.00000  -0.00057
 140       16F-2       -0.00002   0.00000   0.00000   0.00222   0.00006
 141       16F+3       -0.00003   0.00000   0.00000  -0.00243  -0.00003
 142       16F-3        0.00117  -0.00160  -0.00110  -0.00002  -0.00055
 143 4   Cl 1S         -0.01193  -0.01512  -0.01052  -0.00015   0.00125
 144        2S          0.04624   0.05759   0.03995   0.00056  -0.00495
 145        3S         -0.09412  -0.12342  -0.08673  -0.00128   0.00974
 146        4S         -0.01266  -0.01716  -0.01356  -0.00022   0.00202
 147        5S         -0.07972  -0.11891  -0.08163  -0.00117   0.01053
 148        6S         -0.00812  -0.00808  -0.02259  -0.00024   0.01260
 149        7PX        -0.00012  -0.00028   0.00031  -0.14799   0.00624
 150        7PY         0.00338   0.00422   0.10714   0.00103   0.09052
 151        7PZ        -0.01477  -0.04402   0.10881  -0.00117   0.14012
 152        8PX         0.00027   0.00061  -0.00074   0.34871  -0.01461
 153        8PY        -0.00418   0.00283  -0.24744  -0.00222  -0.21162
 154        8PZ         0.03226   0.09625  -0.25994   0.00262  -0.33231
 155        9PX         0.00013   0.00032  -0.00035   0.16281  -0.00695
 156        9PY        -0.00385  -0.00283  -0.11691  -0.00103  -0.10243
 157        9PZ         0.01665   0.04808  -0.12442   0.00127  -0.15763
 158       10PX         0.00010   0.00054  -0.00045   0.19595  -0.00907
 159       10PY         0.01544   0.03081  -0.12754  -0.00069  -0.13493
 160       10PZ         0.00602   0.03822  -0.17651   0.00147  -0.20800
 161       11PX         0.00000   0.00003  -0.00002   0.00081  -0.00045
 162       11PY         0.00088   0.00443  -0.00036   0.00005  -0.00659
 163       11PZ         0.00003  -0.00269  -0.00754   0.00006  -0.01046
 164       12D 0        0.00315   0.00566  -0.00694  -0.00008  -0.00097
 165       12D+1        0.00003   0.00003   0.00001   0.00559  -0.00013
 166       12D-1       -0.00566  -0.01037  -0.00153  -0.00021  -0.00133
 167       12D+2       -0.00099  -0.00445  -0.00942  -0.00021  -0.00066
 168       12D-2       -0.00005  -0.00002   0.00001  -0.01069   0.00016
 169       13D 0        0.00219   0.00864  -0.00846  -0.00011   0.00076
 170       13D+1        0.00000   0.00003   0.00001   0.00830  -0.00014
 171       13D-1       -0.00533  -0.00692  -0.00106  -0.00017  -0.00081
 172       13D+2        0.00166  -0.00051  -0.01148  -0.00025   0.00156
 173       13D-2       -0.00006   0.00000   0.00000  -0.01641   0.00015
 174       14D 0        0.00230   0.00604  -0.00795  -0.00001  -0.00140
 175       14D+1        0.00000   0.00008   0.00003   0.00176  -0.00017
 176       14D-1        0.00037  -0.00170   0.00341  -0.00008   0.00147
 177       14D+2        0.00314   0.00295  -0.00567  -0.00002  -0.00044
 178       14D-2       -0.00004  -0.00006   0.00001  -0.00527   0.00022
 179       15F 0        0.00032   0.00023  -0.00195  -0.00005  -0.00081
 180       15F+1        0.00001   0.00001   0.00000   0.00052  -0.00001
 181       15F-1       -0.00146  -0.00359   0.00400  -0.00001   0.00274
 182       15F+2       -0.00035  -0.00231  -0.00130  -0.00009  -0.00031
 183       15F-2       -0.00002  -0.00001   0.00001  -0.00440   0.00012
 184       15F+3       -0.00001  -0.00001   0.00001  -0.00433   0.00009
 185       15F-3       -0.00033   0.00051   0.00321   0.00006   0.00093
 186       16F 0       -0.00158   0.00135  -0.00046   0.00001   0.00046
 187       16F+1       -0.00003   0.00000   0.00001  -0.00046  -0.00001
 188       16F-1        0.00016  -0.00050   0.00207   0.00002   0.00148
 189       16F+2       -0.00020   0.00212  -0.00053   0.00000   0.00057
 190       16F-2        0.00002   0.00000   0.00000  -0.00222   0.00006
 191       16F+3       -0.00003   0.00000   0.00000  -0.00243   0.00003
 192       16F-3       -0.00117  -0.00160   0.00110   0.00002  -0.00055
                          21        22        23        24        25
     Eigenvalues --     1.94726   1.94726   1.93696   1.93116   0.06665
   1 1   O  1S         -0.02734   0.00000   0.00000  -0.00015  -0.00014
   2        2S          0.07389   0.00000   0.00000   0.00045   0.00051
   3        3S          0.02085   0.00000   0.00000   0.00014   0.00012
   4        4S          0.02950   0.00000   0.00000   0.00075   0.00125
   5        5S          0.00092   0.00000   0.00000   0.00008   0.00059
   6        6PX        -0.00080   0.00000   0.00000   0.29512  -0.34427
   7        6PY         0.00000  -0.00319  -0.14083   0.00000   0.00000
   8        6PZ        -0.10270   0.00000   0.00000  -0.00227   0.00189
   9        7PX        -0.00097   0.00000   0.00000   0.36985  -0.39618
  10        7PY         0.00000  -0.00389  -0.17513   0.00000   0.00000
  11        7PZ        -0.12540   0.00000   0.00000  -0.00287   0.00208
  12        8PX        -0.00049   0.00000   0.00000   0.24748  -0.07270
  13        8PY         0.00000  -0.00295  -0.12136   0.00000   0.00000
  14        8PZ        -0.04100   0.00000   0.00000  -0.00210   0.00051
  15        9PX        -0.00027   0.00000   0.00000   0.02589  -0.00388
  16        9PY         0.00000  -0.00063  -0.02174   0.00000   0.00000
  17        9PZ         0.00342   0.00000   0.00000  -0.00026  -0.00002
  18       10D 0        0.00478   0.00000   0.00000   0.00014   0.00022
  19       10D+1        0.00005   0.00000   0.00000  -0.01036  -0.01309
  20       10D-1        0.00000   0.00006   0.00021   0.00000   0.00000
  21       10D+2        0.00003   0.00000   0.00000  -0.00009  -0.00015
  22       10D-2        0.00000  -0.00038   0.00000   0.00000   0.00000
  23       11D 0        0.00931   0.00000   0.00000   0.00040   0.00029
  24       11D+1        0.00006   0.00000   0.00000  -0.02823  -0.01096
  25       11D-1        0.00000   0.00012  -0.00017   0.00000   0.00000
  26       11D+2        0.00206   0.00000   0.00000  -0.00024  -0.00012
  27       11D-2        0.00000  -0.00173   0.00002   0.00000   0.00000
  28       12D 0       -0.01209   0.00000   0.00000   0.00014  -0.00035
  29       12D+1       -0.00023   0.00000   0.00000  -0.01256   0.01610
  30       12D-1        0.00000   0.00016  -0.00749   0.00000   0.00000
  31       12D+2        0.00225   0.00000   0.00000  -0.00016   0.00020
  32       12D-2        0.00000  -0.00384  -0.00005   0.00000   0.00000
  33       13F 0       -0.00190   0.00000   0.00000  -0.00011  -0.00009
  34       13F+1       -0.00002   0.00000   0.00000   0.00541   0.00389
  35       13F-1        0.00000  -0.00003   0.00021   0.00000   0.00000
  36       13F+2       -0.00048   0.00000   0.00000   0.00006   0.00007
  37       13F-2        0.00000   0.00034   0.00000   0.00000   0.00000
  38       13F+3        0.00000   0.00000   0.00000   0.00105  -0.00254
  39       13F-3        0.00000  -0.00001  -0.00045   0.00000   0.00000
  40       14F 0       -0.00196   0.00000   0.00000  -0.00007   0.00007
  41       14F+1        0.00001   0.00000   0.00000   0.00347  -0.00534
  42       14F-1        0.00000  -0.00003  -0.00072   0.00000   0.00000
  43       14F+2       -0.00234   0.00000   0.00000   0.00005  -0.00010
  44       14F-2        0.00000   0.00120  -0.00003   0.00000   0.00000
  45       14F+3       -0.00002   0.00000   0.00000   0.00088  -0.00075
  46       14F-3        0.00000   0.00002  -0.00019   0.00000   0.00000
  47 2   C  1S          0.07644   0.00000   0.00000   0.00050   0.00140
  48        2S         -0.21884   0.00000   0.00000  -0.00141  -0.00431
  49        3S         -0.04711   0.00000   0.00000  -0.00037  -0.00147
  50        4S         -0.16443   0.00000   0.00000  -0.00115  -0.00584
  51        5S         -0.02105   0.00000   0.00000  -0.00008  -0.00081
  52        6PX         0.00233   0.00000   0.00000   0.17268   0.30819
  53        6PY         0.00000  -0.00053   0.13970   0.00000   0.00000
  54        6PZ         0.17333   0.00000   0.00000  -0.00124  -0.00090
  55        7PX         0.00310   0.00000   0.00000   0.21997   0.46720
  56        7PY         0.00000  -0.00076   0.19864   0.00000   0.00000
  57        7PZ         0.22199   0.00000   0.00000  -0.00159  -0.00146
  58        8PX         0.00085   0.00000   0.00000   0.08356   0.15525
  59        8PY         0.00000   0.00037   0.02857   0.00000   0.00000
  60        8PZ         0.03427   0.00000   0.00000  -0.00104  -0.00060
  61        9PX         0.00021   0.00000   0.00000  -0.00177   0.01046
  62        9PY         0.00000   0.00061  -0.00027   0.00000   0.00000
  63        9PZ        -0.00728   0.00000   0.00000  -0.00002   0.00003
  64       10D 0        0.01293   0.00000   0.00000  -0.00032   0.00006
  65       10D+1        0.00007   0.00000   0.00000   0.02389  -0.00026
  66       10D-1        0.00000  -0.00003  -0.02896   0.00000   0.00000
  67       10D+2        0.00962   0.00000   0.00000   0.00018  -0.00007
  68       10D-2        0.00000  -0.01042  -0.00012   0.00000   0.00000
  69       11D 0        0.00926   0.00000   0.00000  -0.00049  -0.00046
  70       11D+1       -0.00029   0.00000   0.00000   0.03717   0.02331
  71       11D-1        0.00000   0.00026  -0.07218   0.00000   0.00000
  72       11D+2        0.01852   0.00000   0.00000   0.00029   0.00077
  73       11D-2        0.00000  -0.03276  -0.00037   0.00000   0.00000
  74       12D 0       -0.03080   0.00000   0.00000   0.00043  -0.00054
  75       12D+1       -0.00030   0.00000   0.00000  -0.00616   0.01358
  76       12D-1        0.00000  -0.00028  -0.02040   0.00000   0.00000
[...]
  74       12D 0        0.00000   1.24930  -0.01687   0.00000   0.00000
  75       12D+1        0.00000   0.01722   0.75317   0.00000   0.00000
  76       12D-1        7.06465   0.00000   0.00000  -2.28745   0.98032
  77       12D+2        0.00000   1.43868   0.00301   0.00000   0.00000
  78       12D-2        0.05313   0.00000   0.00000   0.02342   0.02666
  79       13F 0        0.00000  -0.05438   0.00303   0.00000   0.00000
  80       13F+1        0.00000  -0.00171  -0.09371   0.00000   0.00000
  81       13F-1       -0.02172   0.00000   0.00000  -0.07713  -0.01964
  82       13F+2        0.00000  -0.03898  -0.00068   0.00000   0.00000
  83       13F-2       -0.00037   0.00000   0.00000  -0.00067  -0.00078
  84       13F+3        0.00000   0.00045   0.03855   0.00000   0.00000
  85       13F-3       -0.00670   0.00000   0.00000   0.01061   0.01859
  86       14F 0        0.00000   0.10754   0.00516   0.00000   0.00000
  87       14F+1        0.00000   0.00026  -0.17851   0.00000   0.00000
  88       14F-1        0.44778   0.00000   0.00000  -0.19210  -0.21045
  89       14F+2        0.00000   0.26124  -0.00017   0.00000   0.00000
  90       14F-2        0.00170   0.00000   0.00000   0.00189  -0.00184
  91       14F+3        0.00000   0.00411   0.01346   0.00000   0.00000
  92       14F-3        0.19601   0.00000   0.00000  -0.19122  -0.10390
  93 3   Cl 1S          0.02896  -0.01487   0.00009  -0.01193   0.00895
  94        2S          0.46376  -0.22394   0.00120  -0.15463   0.15554
  95        3S          1.16605  -0.58525   0.00340  -0.45462   0.36481
  96        4S         -0.22972   0.09510   0.00015  -0.01550  -0.13478
  97        5S         -6.82613   1.76033  -0.01466   3.63228  -0.96251
  98        6S         -2.96766   1.52734  -0.04702  12.86394   1.20200
  99        7PX        -0.00020  -0.00016  -0.01672  -0.00008  -0.00011
 100        7PY         0.00675   0.00337  -0.00040  -0.01311  -0.00104
 101        7PZ        -0.01104  -0.00778  -0.00007   0.00136   0.00496
 102        8PX        -0.00332  -0.00175  -0.21327  -0.00161  -0.00182
 103        8PY        -0.00355   0.05250  -0.00546  -0.21733   0.06781
 104        8PZ        -0.28210  -0.09268  -0.00169   0.00735   0.11255
 105        9PX         0.00073   0.00060   0.06485   0.00027   0.00043
 106        9PY        -0.01927  -0.02873   0.00160   0.04940   0.00656
 107        9PZ         0.04488   0.01466   0.00037  -0.00825  -0.01769
 108       10PX         0.02631   0.01625   0.92623   0.01148   0.01481
 109       10PY        -3.37170   0.42983  -0.01156   4.73000  -0.42975
 110       10PZ        -1.12530   1.92490  -0.03050   3.44274  -0.06685
 111       11PX         0.00174  -0.03913  -2.24876   0.00741  -0.00287
 112       11PY        -0.50053  -0.66506  -0.00657   2.27544  -3.04551
 113       11PZ         0.29884  -2.01960   0.02174   1.58394   0.69791
 114       12D 0        0.00766  -0.04191   0.00066  -0.02120   0.00600
 115       12D+1       -0.00013  -0.00099  -0.02663   0.00027  -0.00013
 116       12D-1        0.05125  -0.08380   0.00072   0.01844  -0.01517
 117       12D+2       -0.01082   0.06988  -0.00052  -0.03387   0.05926
 118       12D-2        0.00038  -0.00024  -0.00982   0.00020   0.00013
 119       13D 0       -0.12137   0.17070  -0.00268   0.12662  -0.00385
 120       13D+1        0.00015   0.00422   0.08301  -0.00130   0.00038
 121       13D-1       -0.38677   0.37106  -0.00562   0.05258   0.13767
 122       13D+2        0.12705  -0.28474   0.00342   0.07508  -0.26554
 123       13D-2       -0.00153   0.00161   0.03559  -0.00118  -0.00040
 124       14D 0        0.57407   0.26264  -0.00028   0.06558   0.26833
 125       14D+1        0.00824  -0.00530  -0.07900   0.00701   0.00392
 126       14D-1       -0.19261   0.12742  -0.01188   1.56508  -0.13873
 127       14D+2        0.25902   0.37143   0.00049  -1.05395   0.70981
 128       14D-2        0.01035   0.00367   0.19133   0.00539   0.00562
 129       15F 0       -0.03347  -0.00103  -0.00035   0.00832   0.01333
 130       15F+1        0.00006   0.00033  -0.00491  -0.00031  -0.00010
 131       15F-1       -0.00417  -0.04228   0.00079  -0.04676  -0.00420
 132       15F+2       -0.00143   0.02888  -0.00060   0.01252   0.00314
 133       15F-2       -0.00060  -0.00005  -0.01638  -0.00021  -0.00052
 134       15F+3       -0.00017   0.00080   0.04296  -0.00018  -0.00006
 135       15F-3        0.03179  -0.00160   0.00033  -0.00756   0.01091
 136       16F 0        0.13661   0.00384   0.00199  -0.03732  -0.02516
 137       16F+1        0.00017  -0.00053  -0.00131   0.00096   0.00030
 138       16F-1       -0.05894   0.18133  -0.00335   0.19060   0.05349
 139       16F+2        0.10030  -0.13247   0.00356  -0.11216  -0.02638
 140       16F-2        0.00186   0.00092   0.03622   0.00077   0.00143
 141       16F+3       -0.00001  -0.00207  -0.10363   0.00027  -0.00029
 142       16F-3       -0.03153  -0.03694   0.00024  -0.02413  -0.00236
 143 4   Cl 1S         -0.02896  -0.01487   0.00009   0.01193  -0.00895
 144        2S         -0.46376  -0.22394   0.00120   0.15463  -0.15554
 145        3S         -1.16605  -0.58525   0.00340   0.45462  -0.36481
 146        4S          0.22972   0.09510   0.00015   0.01550   0.13478
 147        5S          6.82613   1.76033  -0.01466  -3.63228   0.96251
 148        6S          2.96766   1.52734  -0.04702 -12.86394  -1.20200
 149        7PX         0.00020  -0.00016  -0.01672   0.00008   0.00011
 150        7PY         0.00675  -0.00337   0.00040  -0.01311  -0.00104
 151        7PZ         0.01104  -0.00778  -0.00007  -0.00136  -0.00496
 152        8PX         0.00332  -0.00175  -0.21327   0.00161   0.00182
 153        8PY        -0.00355  -0.05250   0.00546  -0.21733   0.06781
 154        8PZ         0.28210  -0.09268  -0.00169  -0.00735  -0.11255
 155        9PX        -0.00073   0.00060   0.06485  -0.00027  -0.00043
 156        9PY        -0.01927   0.02873  -0.00160   0.04940   0.00656
 157        9PZ        -0.04488   0.01466   0.00037   0.00825   0.01769
 158       10PX        -0.02631   0.01625   0.92623  -0.01148  -0.01481
 159       10PY        -3.37170  -0.42983   0.01156   4.73000  -0.42975
 160       10PZ         1.12530   1.92490  -0.03050  -3.44274   0.06685
 161       11PX        -0.00174  -0.03913  -2.24876  -0.00741   0.00287
 162       11PY        -0.50053   0.66506   0.00657   2.27544  -3.04551
 163       11PZ        -0.29884  -2.01960   0.02174  -1.58394  -0.69791
 164       12D 0       -0.00766  -0.04191   0.00066   0.02120  -0.00600
 165       12D+1        0.00013  -0.00099  -0.02663  -0.00027   0.00013
 166       12D-1        0.05125   0.08380  -0.00072   0.01844  -0.01517
 167       12D+2        0.01082   0.06988  -0.00052   0.03387  -0.05926
 168       12D-2        0.00038   0.00024   0.00982   0.00020   0.00013
 169       13D 0        0.12137   0.17070  -0.00268  -0.12662   0.00385
 170       13D+1       -0.00015   0.00422   0.08301   0.00130  -0.00038
 171       13D-1       -0.38677  -0.37106   0.00562   0.05258   0.13767
 172       13D+2       -0.12705  -0.28474   0.00342  -0.07508   0.26554
 173       13D-2       -0.00153  -0.00161  -0.03559  -0.00118  -0.00040
 174       14D 0       -0.57407   0.26264  -0.00028  -0.06558  -0.26833
 175       14D+1       -0.00824  -0.00530  -0.07900  -0.00701  -0.00392
 176       14D-1       -0.19261  -0.12742   0.01188   1.56508  -0.13873
 177       14D+2       -0.25902   0.37143   0.00049   1.05395  -0.70981
 178       14D-2        0.01035  -0.00367  -0.19133   0.00539   0.00562
 179       15F 0        0.03347  -0.00103  -0.00035  -0.00832  -0.01333
 180       15F+1       -0.00006   0.00033  -0.00491   0.00031   0.00010
 181       15F-1       -0.00417   0.04228  -0.00079  -0.04676  -0.00420
 182       15F+2        0.00143   0.02888  -0.00060  -0.01252  -0.00314
 183       15F-2       -0.00060   0.00005   0.01638  -0.00021  -0.00052
 184       15F+3        0.00017   0.00080   0.04296   0.00018   0.00006
 185       15F-3        0.03179   0.00160  -0.00033  -0.00756   0.01091
 186       16F 0       -0.13661   0.00384   0.00199   0.03732   0.02516
 187       16F+1       -0.00017  -0.00053  -0.00131  -0.00096  -0.00030
 188       16F-1       -0.05894  -0.18133   0.00335   0.19060   0.05349
 189       16F+2       -0.10030  -0.13247   0.00356   0.11216   0.02638
 190       16F-2        0.00186  -0.00092  -0.03622   0.00077   0.00143
 191       16F+3        0.00001  -0.00207  -0.10363  -0.00027   0.00029
 192       16F-3       -0.03153   0.03694  -0.00024  -0.02413  -0.00236
                         191       192
     Eigenvalues --     0.00000   0.00000
   1 1   O  1S          0.07128   0.07098
   2        2S          0.38116   0.36320
   3        3S          0.01085  -0.01499
   4        4S         -4.64173  -2.96364
   5        5S         -9.45988  -8.51618
   6        6PX        -0.00025   0.00012
   7        6PY         0.00000   0.00000
   8        6PZ        -0.00976   0.00440
   9        7PX         0.00183  -0.00079
  10        7PY         0.00000   0.00000
  11        7PZ         0.15318  -0.01107
  12        8PX         0.01093   0.02372
  13        8PY         0.00000   0.00000
  14        8PZ         2.75109   2.14701
  15        9PX         0.01910   0.01785
  16        9PY         0.00000   0.00000
  17        9PZ        -1.38997  -0.04335
  18       10D 0        0.03869   0.04110
  19       10D+1        0.00075   0.00023
  20       10D-1        0.00000   0.00000
  21       10D+2       -0.02815  -0.01394
  22       10D-2        0.00000   0.00000
  23       11D 0       -0.31829  -0.21731
  24       11D+1       -0.00466  -0.00165
  25       11D-1        0.00000   0.00000
  26       11D+2        0.08027   0.04298
  27       11D-2        0.00000   0.00000
  28       12D 0       -0.40840  -0.30908
  29       12D+1        0.00209  -0.00859
  30       12D-1        0.00000   0.00000
  31       12D+2       -0.44741  -0.13120
  32       12D-2        0.00000   0.00000
  33       13F 0        0.00932  -0.00968
  34       13F+1        0.00065  -0.00012
  35       13F-1        0.00000   0.00000
  36       13F+2       -0.01498  -0.00610
  37       13F-2        0.00000   0.00000
  38       13F+3       -0.00045   0.00003
  39       13F-3        0.00000   0.00000
  40       14F 0        0.12932   0.11632
  41       14F+1        0.00057   0.00186
  42       14F-1        0.00000   0.00000
  43       14F+2        0.06857   0.02577
  44       14F-2        0.00000   0.00000
  45       14F+3        0.00138  -0.00008
  46       14F-3        0.00000   0.00000
  47 2   C  1S          0.20715   0.02750
  48        2S          1.14632   0.23977
  49        3S         -0.04748   0.10565
  50        4S          6.57791  12.28175
  51        5S         -2.31472  19.33030
  52        6PX        -0.00037   0.00031
  53        6PY         0.00000   0.00000
  54        6PZ         0.01966   0.00931
  55        7PX         0.01416   0.00531
  56        7PY         0.00000   0.00000
  57        7PZ         1.05451   0.59724
  58        8PX         0.03850   0.01126
  59        8PY         0.00000   0.00000
  60        8PZ         2.83352  -0.74169
  61        9PX         0.00133   0.01071
  62        9PY         0.00000   0.00000
  63        9PZ         7.25765  -0.54630
  64       10D 0        0.06274   0.04600
  65       10D+1        0.00094   0.00095
  66       10D-1        0.00000   0.00000
  67       10D+2        0.01285  -0.02112
  68       10D-2        0.00000   0.00000
  69       11D 0        0.51350   0.20931
  70       11D+1        0.01038   0.00224
  71       11D-1        0.00000   0.00000
  72       11D+2       -0.05974  -0.02770
  73       11D-2        0.00000   0.00000
  74       12D 0        3.23245   1.63139
  75       12D+1        0.02611   0.01200
  76       12D-1        0.00000   0.00000
  77       12D+2        1.52233  -0.74801
  78       12D-2        0.00000   0.00000
  79       13F 0        0.06141  -0.01193
  80       13F+1        0.00102   0.00050
  81       13F-1        0.00000   0.00000
  82       13F+2       -0.01155   0.00019
  83       13F-2        0.00000   0.00000
  84       13F+3       -0.00051  -0.00013
  85       13F-3        0.00000   0.00000
  86       14F 0       -0.04838  -0.04249
  87       14F+1       -0.00007  -0.00180
  88       14F-1        0.00000   0.00000
  89       14F+2        0.23775   0.02125
  90       14F-2        0.00000   0.00000
  91       14F+3        0.00159   0.00088
  92       14F-3        0.00000   0.00000
  93 3   Cl 1S          0.00771   0.00044
  94        2S          0.13249  -0.01436
  95        3S          0.31350   0.00451
  96        4S         -0.10062   0.06707
  97        5S         -0.84271  -0.55455
  98        6S          4.69985 -10.20811
  99        7PX         0.00001   0.00001
 100        7PY        -0.00521   0.01043
 101        7PZ        -0.01713   0.00572
 102        8PX         0.00041   0.00007
 103        8PY        -0.08466   0.18083
 104        8PZ        -0.26887   0.10264
 105        9PX        -0.00005  -0.00004
 106        9PY         0.01880  -0.03701
 107        9PZ         0.06389  -0.02067
 108       10PX         0.00182   0.00307
 109       10PY        -0.80502  -2.88680
 110       10PZ         1.51751  -1.34604
 111       11PX        -0.00132  -0.00210
 112       11PY         0.87604  -1.63181
 113       11PZ        -1.08010  -1.33341
 114       12D 0       -0.01818   0.00183
 115       12D+1       -0.00024   0.00006
 116       12D-1        0.00765  -0.00178
 117       12D+2        0.00346  -0.02312
 118       12D-2       -0.00005   0.00006
 119       13D 0        0.07463   0.00939
 120       13D+1        0.00128  -0.00006
 121       13D-1       -0.04849  -0.00544
 122       13D+2        0.02047   0.10139
 123       13D-2        0.00061   0.00005
 124       14D 0        0.28160   0.13340
 125       14D+1       -0.00510  -0.00018
 126       14D-1        0.14634  -0.76235
 127       14D+2        0.46882   0.63963
 128       14D-2        0.00100   0.00219
 129       15F 0        0.00245  -0.01650
 130       15F+1        0.00043   0.00005
 131       15F-1        0.01439   0.00801
 132       15F+2        0.00112  -0.04132
 133       15F-2        0.00071   0.00012
 134       15F+3        0.00016   0.00018
 135       15F-3       -0.00210  -0.03447
 136       16F 0       -0.00241   0.05460
 137       16F+1       -0.00130  -0.00027
 138       16F-1       -0.01177  -0.02074
 139       16F+2        0.01821   0.13819
 140       16F-2       -0.00164  -0.00030
 141       16F+3       -0.00079  -0.00074
 142       16F-3        0.04802   0.11635
 143 4   Cl 1S          0.00771   0.00044
 144        2S          0.13249  -0.01436
 145        3S          0.31350   0.00451
 146        4S         -0.10062   0.06707
 147        5S         -0.84271  -0.55455
 148        6S          4.69985 -10.20811
 149        7PX         0.00001   0.00001
 150        7PY         0.00521  -0.01043
 151        7PZ        -0.01713   0.00572
 152        8PX         0.00041   0.00007
 153        8PY         0.08466  -0.18083
 154        8PZ        -0.26887   0.10264
 155        9PX        -0.00005  -0.00004
 156        9PY        -0.01880   0.03701
 157        9PZ         0.06389  -0.02067
 158       10PX         0.00182   0.00307
 159       10PY         0.80502   2.88680
 160       10PZ         1.51751  -1.34604
 161       11PX        -0.00132  -0.00210
 162       11PY        -0.87604   1.63181
 163       11PZ        -1.08010  -1.33341
 164       12D 0       -0.01818   0.00183
 165       12D+1       -0.00024   0.00006
 166       12D-1       -0.00765   0.00178
 167       12D+2        0.00346  -0.02312
 168       12D-2        0.00005  -0.00006
 169       13D 0        0.07463   0.00939
 170       13D+1        0.00128  -0.00006
 171       13D-1        0.04849   0.00544
 172       13D+2        0.02047   0.10139
 173       13D-2       -0.00061  -0.00005
 174       14D 0        0.28160   0.13340
 175       14D+1       -0.00510  -0.00018
 176       14D-1       -0.14634   0.76235
 177       14D+2        0.46882   0.63963
 178       14D-2       -0.00100  -0.00219
 179       15F 0        0.00245  -0.01650
 180       15F+1        0.00043   0.00005
 181       15F-1       -0.01439  -0.00801
 182       15F+2        0.00112  -0.04132
 183       15F-2       -0.00071  -0.00012
 184       15F+3        0.00016   0.00018
 185       15F-3        0.00210   0.03447
 186       16F 0       -0.00241   0.05460
 187       16F+1       -0.00130  -0.00027
 188       16F-1        0.01177   0.02074
 189       16F+2        0.01821   0.13819
 190       16F-2        0.00164   0.00030
 191       16F+3       -0.00079  -0.00074
 192       16F-3       -0.04802  -0.11635
          Condensed to atoms (all electrons):
              1          2          3          4
     1  O    8.034180   0.435572  -0.074459  -0.074459
     2  C    0.435572   4.966621   0.136367   0.136367
     3  Cl  -0.074459   0.136367  17.040646  -0.100436
     4  Cl  -0.074459   0.136367  -0.100436  17.040646
 Mulliken atomic charges:
              1
     1  O   -0.320834
     2  C    0.325072
     3  Cl  -0.002119
     4  Cl  -0.002119
 Sum of Mulliken atomic charges =   0.00000
 Mulliken charges with hydrogens summed into heavy atoms:
              1
     1  O   -0.320834
     2  C    0.325072
     3  Cl  -0.002119
     4  Cl  -0.002119
 Sum of Mulliken charges with hydrogens summed into heavy atoms =   0.00000
 Electronic spatial extent (au):  <R**2>=            613.6891
 Charge=              0.0000 electrons
 Dipole moment (field-independent basis, Debye):
    X=             -0.0104    Y=              0.0000    Z=             -1.2394  Tot=              1.2395
 Quadrupole moment (field-independent basis, Debye-Ang):
   XX=            -35.0851   YY=            -34.3835   ZZ=            -36.2849
   XY=              0.0000   XZ=             -0.0205   YZ=              0.0000
 Traceless Quadrupole moment (field-independent basis, Debye-Ang):
   XX=              0.1660   YY=              0.8677   ZZ=             -1.0337
   XY=              0.0000   XZ=             -0.0205   YZ=              0.0000
 Octapole moment (field-independent basis, Debye-Ang**2):
  XXX=             -0.1472  YYY=              0.0000  ZZZ=            106.2000  XYY=             -0.0381
  XXY=              0.0000  XXZ=             36.0664  XZZ=             -0.0381  YZZ=              0.0000
  YYZ=             29.7038  XYZ=              0.0000
 Hexadecapole moment (field-independent basis, Debye-Ang**3):
 XXXX=            -37.1345 YYYY=           -329.2926 ZZZZ=           -383.0984 XXXY=              0.0000
 XXXZ=             -0.1230 YYYX=              0.0000 YYYZ=              0.0000 ZZZX=             -0.1663
 ZZZY=              0.0000 XXYY=            -65.2568 XXZZ=            -71.0863 YYZZ=           -106.8868
 XXYZ=              0.0000 YYXZ=             -0.0737 ZZXY=              0.0000
 N-N= 1.917647022723D+02 E-N=-2.837758582514D+03  KE= 1.032421892168D+03
 1\1\GINC-TRAPISTA\SP\RQCISD-FC\Aug-CC-pVTZ\C1Cl2O1\BRUNS\27-Nov-2021\0
 \\# qcisd/aug-cc-pvtz nosymm density=current output=wfn\\cl2co-wavefun
 ction\\0,1\O,0,0.01,0.,0.683397\C,0,0.,0.,-0.494687\Cl,0,0.,-1.44687,-
 1.469805\Cl,0,0.,1.44687,-1.469805\\Version=EM64L-G09RevB.01\HF=-1031.
 8027335\MP2=-1032.5821482\MP3=-1032.6012007\MP4D=-1032.620868\MP4DQ=-1
 032.5983471\MP4SDQ=-1032.6073298\QCISD=-1032.6055985\RMSD=4.654e-09\Di
 pole=-0.0040977,0.,-0.4876326\Quadrupole=0.1234361,0.6451187,-0.768554
 8,0.,-0.0152244,0.\PG=CS [SG(C1O1),X(Cl2)]\\@

 Writing a WFN file to GAUSSIAN.wfn.


 TWO ROADS DIVERGED IN A WOOD, AND I--
 I TOOK THE ONE LESS TRAVELED BY,
 AND THAT HAS MADE ALL THE DIFFERENCE.

                       -- ROBERT FROST
 Job cpu time:  0 days  2 hours  3 minutes 59.1 seconds.
 File lengths (MBytes):  RWF=  18183 Int=      0 D2E=      0 Chk=      3 Scr=      1
 Normal termination of Gaussian 09 at Sat Nov 27 10:41:20 2021.
