 cl2co-wavefunction
GAUSSIAN            192 MOL ORBITALS    372 PRIMITIVES        4 NUCLEI
  O    1    (CENTRE  1)  -0.01889726  0.00000000  1.29143317  CHARGE =  8.0
  C    2    (CENTRE  2)   0.00000000  0.00000000 -0.93482295  CHARGE =  6.0
  Cl   3    (CENTRE  3)   0.00000000 -2.73418805 -2.77752892  CHARGE = 17.0
  Cl   4    (CENTRE  4)   0.00000000  2.73418805 -2.77752892  CHARGE = 17.0
CENTRE ASSIGNMENTS    1  1  1  1  1  1  1  1  1  1  1  1  1  1  1  1  1  1  1  1
CENTRE ASSIGNMENTS    1  1  1  1  1  1  1  1  1  1  1  1  1  1  1  1  1  1  1  1
CENTRE ASSIGNMENTS    1  1  1  1  1  1  1  1  1  1  1  1  1  1  1  1  1  1  1  1
CENTRE ASSIGNMENTS    1  1  1  1  1  1  1  1  1  1  1  1  2  2  2  2  2  2  2  2
CENTRE ASSIGNMENTS    2  2  2  2  2  2  2  2  2  2  2  2  2  2  2  2  2  2  2  2
CENTRE ASSIGNMENTS    2  2  2  2  2  2  2  2  2  2  2  2  2  2  2  2  2  2  2  2
CENTRE ASSIGNMENTS    2  2  2  2  2  2  2  2  2  2  2  2  2  2  2  2  2  2  2  2
CENTRE ASSIGNMENTS    2  2  2  2  3  3  3  3  3  3  3  3  3  3  3  3  3  3  3  3
CENTRE ASSIGNMENTS    3  3  3  3  3  3  3  3  3  3  3  3  3  3  3  3  3  3  3  3
CENTRE ASSIGNMENTS    3  3  3  3  3  3  3  3  3  3  3  3  3  3  3  3  3  3  3  3
CENTRE ASSIGNMENTS    3  3  3  3  3  3  3  3  3  3  3  3  3  3  3  3  3  3  3  3
CENTRE ASSIGNMENTS    3  3  3  3  3  3  3  3  3  3  3  3  3  3  3  3  3  3  3  3
CENTRE ASSIGNMENTS    3  3  3  3  3  3  3  3  3  3  3  3  3  3  3  3  3  3  4  4
CENTRE ASSIGNMENTS    4  4  4  4  4  4  4  4  4  4  4  4  4  4  4  4  4  4  4  4
CENTRE ASSIGNMENTS    4  4  4  4  4  4  4  4  4  4  4  4  4  4  4  4  4  4  4  4
CENTRE ASSIGNMENTS    4  4  4  4  4  4  4  4  4  4  4  4  4  4  4  4  4  4  4  4
CENTRE ASSIGNMENTS    4  4  4  4  4  4  4  4  4  4  4  4  4  4  4  4  4  4  4  4
CENTRE ASSIGNMENTS    4  4  4  4  4  4  4  4  4  4  4  4  4  4  4  4  4  4  4  4
CENTRE ASSIGNMENTS    4  4  4  4  4  4  4  4  4  4  4  4
TYPE ASSIGNMENTS      1  1  1  1  1  1  1  1  1  1  1  1  1  1  1  1  2  2  2  3
TYPE ASSIGNMENTS      3  3  4  4  4  2  3  4  2  3  4  2  3  4  5  6  7  8  9 10
TYPE ASSIGNMENTS      5  6  7  8  9 10  5  6  7  8  9 10 11 12 13 17 14 15 18 19
TYPE ASSIGNMENTS     16 20 11 12 13 17 14 15 18 19 16 20  1  1  1  1  1  1  1  1
TYPE ASSIGNMENTS      1  1  1  1  1  1  1  1  2  2  2  3  3  3  4  4  4  2  3  4
TYPE ASSIGNMENTS      2  3  4  2  3  4  5  6  7  8  9 10  5  6  7  8  9 10  5  6
TYPE ASSIGNMENTS      7  8  9 10 11 12 13 17 14 15 18 19 16 20 11 12 13 17 14 15
TYPE ASSIGNMENTS     18 19 16 20  1  1  1  1  1  1  1  1  1  1  1  1  1  1  1  1
TYPE ASSIGNMENTS      1  1  1  1  1  1  1  1  1  1  1  1  1  1  1  2  2  2  2  2
TYPE ASSIGNMENTS      2  3  3  3  3  3  3  4  4  4  4  4  4  2  2  2  2  2  2  3
TYPE ASSIGNMENTS      3  3  3  3  3  4  4  4  4  4  4  2  3  4  2  3  4  2  3  4
TYPE ASSIGNMENTS      5  6  7  8  9 10  5  6  7  8  9 10  5  6  7  8  9 10 11 12
TYPE ASSIGNMENTS     13 17 14 15 18 19 16 20 11 12 13 17 14 15 18 19 16 20  1  1
TYPE ASSIGNMENTS      1  1  1  1  1  1  1  1  1  1  1  1  1  1  1  1  1  1  1  1
TYPE ASSIGNMENTS      1  1  1  1  1  1  1  1  1  2  2  2  2  2  2  3  3  3  3  3
TYPE ASSIGNMENTS      3  4  4  4  4  4  4  2  2  2  2  2  2  3  3  3  3  3  3  4
TYPE ASSIGNMENTS      4  4  4  4  4  2  3  4  2  3  4  2  3  4  5  6  7  8  9 10
TYPE ASSIGNMENTS      5  6  7  8  9 10  5  6  7  8  9 10 11 12 13 17 14 15 18 19
TYPE ASSIGNMENTS     16 20 11 12 13 17 14 15 18 19 16 20
EXPONENTS  0.1533000D+05 0.2299000D+04 0.5224000D+03 0.1473000D+03 0.4755000D+02
EXPONENTS  0.1676000D+02 0.6207000D+01 0.5224000D+03 0.1473000D+03 0.4755000D+02
EXPONENTS  0.1676000D+02 0.6207000D+01 0.6882000D+00 0.1752000D+01 0.2384000D+00
EXPONENTS  0.7376000D-01 0.3446000D+02 0.7749000D+01 0.2280000D+01 0.3446000D+02
EXPONENTS  0.7749000D+01 0.2280000D+01 0.3446000D+02 0.7749000D+01 0.2280000D+01
EXPONENTS  0.7156000D+00 0.7156000D+00 0.7156000D+00 0.2140000D+00 0.2140000D+00
EXPONENTS  0.2140000D+00 0.5974000D-01 0.5974000D-01 0.5974000D-01 0.2314000D+01
EXPONENTS  0.2314000D+01 0.2314000D+01 0.2314000D+01 0.2314000D+01 0.2314000D+01
EXPONENTS  0.6450000D+00 0.6450000D+00 0.6450000D+00 0.6450000D+00 0.6450000D+00
EXPONENTS  0.6450000D+00 0.2140000D+00 0.2140000D+00 0.2140000D+00 0.2140000D+00
EXPONENTS  0.2140000D+00 0.2140000D+00 0.1428000D+01 0.1428000D+01 0.1428000D+01
EXPONENTS  0.1428000D+01 0.1428000D+01 0.1428000D+01 0.1428000D+01 0.1428000D+01
EXPONENTS  0.1428000D+01 0.1428000D+01 0.5000000D+00 0.5000000D+00 0.5000000D+00
EXPONENTS  0.5000000D+00 0.5000000D+00 0.5000000D+00 0.5000000D+00 0.5000000D+00
EXPONENTS  0.5000000D+00 0.5000000D+00 0.8236000D+04 0.1235000D+04 0.2808000D+03
EXPONENTS  0.7927000D+02 0.2559000D+02 0.8997000D+01 0.3319000D+01 0.2808000D+03
EXPONENTS  0.7927000D+02 0.2559000D+02 0.8997000D+01 0.3319000D+01 0.3643000D+00
EXPONENTS  0.9059000D+00 0.1285000D+00 0.4402000D-01 0.1871000D+02 0.4133000D+01
EXPONENTS  0.1200000D+01 0.1871000D+02 0.4133000D+01 0.1200000D+01 0.1871000D+02
EXPONENTS  0.4133000D+01 0.1200000D+01 0.3827000D+00 0.3827000D+00 0.3827000D+00
EXPONENTS  0.1209000D+00 0.1209000D+00 0.1209000D+00 0.3569000D-01 0.3569000D-01
EXPONENTS  0.3569000D-01 0.1097000D+01 0.1097000D+01 0.1097000D+01 0.1097000D+01
EXPONENTS  0.1097000D+01 0.1097000D+01 0.3180000D+00 0.3180000D+00 0.3180000D+00
EXPONENTS  0.3180000D+00 0.3180000D+00 0.3180000D+00 0.1000000D+00 0.1000000D+00
EXPONENTS  0.1000000D+00 0.1000000D+00 0.1000000D+00 0.1000000D+00 0.7610000D+00
EXPONENTS  0.7610000D+00 0.7610000D+00 0.7610000D+00 0.7610000D+00 0.7610000D+00
EXPONENTS  0.7610000D+00 0.7610000D+00 0.7610000D+00 0.7610000D+00 0.2680000D+00
EXPONENTS  0.2680000D+00 0.2680000D+00 0.2680000D+00 0.2680000D+00 0.2680000D+00
EXPONENTS  0.2680000D+00 0.2680000D+00 0.2680000D+00 0.2680000D+00 0.4561000D+06
EXPONENTS  0.6833000D+05 0.1555000D+05 0.4405000D+04 0.1439000D+04 0.5204000D+03
EXPONENTS  0.2031000D+03 0.8396000D+02 0.3620000D+02 0.1583000D+02 0.6334000D+01
EXPONENTS  0.4405000D+04 0.1439000D+04 0.5204000D+03 0.2031000D+03 0.8396000D+02
EXPONENTS  0.3620000D+02 0.1583000D+02 0.6334000D+01 0.2694000D+01 0.1439000D+04
EXPONENTS  0.2031000D+03 0.8396000D+02 0.3620000D+02 0.1583000D+02 0.6334000D+01
EXPONENTS  0.2694000D+01 0.4313000D+00 0.9768000D+00 0.1625000D+00 0.5910000D-01
EXPONENTS  0.6633000D+03 0.1568000D+03 0.4998000D+02 0.1842000D+02 0.7240000D+01
EXPONENTS  0.2922000D+01 0.6633000D+03 0.1568000D+03 0.4998000D+02 0.1842000D+02
EXPONENTS  0.7240000D+01 0.2922000D+01 0.6633000D+03 0.1568000D+03 0.4998000D+02
EXPONENTS  0.1842000D+02 0.7240000D+01 0.2922000D+01 0.1568000D+03 0.4998000D+02
EXPONENTS  0.1842000D+02 0.7240000D+01 0.2922000D+01 0.3818000D+00 0.1568000D+03
EXPONENTS  0.4998000D+02 0.1842000D+02 0.7240000D+01 0.2922000D+01 0.3818000D+00
EXPONENTS  0.1568000D+03 0.4998000D+02 0.1842000D+02 0.7240000D+01 0.2922000D+01
EXPONENTS  0.3818000D+00 0.1022000D+01 0.1022000D+01 0.1022000D+01 0.1301000D+00
EXPONENTS  0.1301000D+00 0.1301000D+00 0.4190000D-01 0.4190000D-01 0.4190000D-01
EXPONENTS  0.1046000D+01 0.1046000D+01 0.1046000D+01 0.1046000D+01 0.1046000D+01
EXPONENTS  0.1046000D+01 0.3440000D+00 0.3440000D+00 0.3440000D+00 0.3440000D+00
EXPONENTS  0.3440000D+00 0.3440000D+00 0.1350000D+00 0.1350000D+00 0.1350000D+00
EXPONENTS  0.1350000D+00 0.1350000D+00 0.1350000D+00 0.7060000D+00 0.7060000D+00
EXPONENTS  0.7060000D+00 0.7060000D+00 0.7060000D+00 0.7060000D+00 0.7060000D+00
EXPONENTS  0.7060000D+00 0.7060000D+00 0.7060000D+00 0.3120000D+00 0.3120000D+00
EXPONENTS  0.3120000D+00 0.3120000D+00 0.3120000D+00 0.3120000D+00 0.3120000D+00
EXPONENTS  0.3120000D+00 0.3120000D+00 0.3120000D+00 0.4561000D+06 0.6833000D+05
EXPONENTS  0.1555000D+05 0.4405000D+04 0.1439000D+04 0.5204000D+03 0.2031000D+03
EXPONENTS  0.8396000D+02 0.3620000D+02 0.1583000D+02 0.6334000D+01 0.4405000D+04
EXPONENTS  0.1439000D+04 0.5204000D+03 0.2031000D+03 0.8396000D+02 0.3620000D+02
EXPONENTS  0.1583000D+02 0.6334000D+01 0.2694000D+01 0.1439000D+04 0.2031000D+03
EXPONENTS  0.8396000D+02 0.3620000D+02 0.1583000D+02 0.6334000D+01 0.2694000D+01
EXPONENTS  0.4313000D+00 0.9768000D+00 0.1625000D+00 0.5910000D-01 0.6633000D+03
EXPONENTS  0.1568000D+03 0.4998000D+02 0.1842000D+02 0.7240000D+01 0.2922000D+01
EXPONENTS  0.6633000D+03 0.1568000D+03 0.4998000D+02 0.1842000D+02 0.7240000D+01
EXPONENTS  0.2922000D+01 0.6633000D+03 0.1568000D+03 0.4998000D+02 0.1842000D+02
EXPONENTS  0.7240000D+01 0.2922000D+01 0.1568000D+03 0.4998000D+02 0.1842000D+02
EXPONENTS  0.7240000D+01 0.2922000D+01 0.3818000D+00 0.1568000D+03 0.4998000D+02
EXPONENTS  0.1842000D+02 0.7240000D+01 0.2922000D+01 0.3818000D+00 0.1568000D+03
EXPONENTS  0.4998000D+02 0.1842000D+02 0.7240000D+01 0.2922000D+01 0.3818000D+00
EXPONENTS  0.1022000D+01 0.1022000D+01 0.1022000D+01 0.1301000D+00 0.1301000D+00
EXPONENTS  0.1301000D+00 0.4190000D-01 0.4190000D-01 0.4190000D-01 0.1046000D+01
EXPONENTS  0.1046000D+01 0.1046000D+01 0.1046000D+01 0.1046000D+01 0.1046000D+01
EXPONENTS  0.3440000D+00 0.3440000D+00 0.3440000D+00 0.3440000D+00 0.3440000D+00
EXPONENTS  0.3440000D+00 0.1350000D+00 0.1350000D+00 0.1350000D+00 0.1350000D+00
EXPONENTS  0.1350000D+00 0.1350000D+00 0.7060000D+00 0.7060000D+00 0.7060000D+00
EXPONENTS  0.7060000D+00 0.7060000D+00 0.7060000D+00 0.7060000D+00 0.7060000D+00
EXPONENTS  0.7060000D+00 0.7060000D+00 0.3120000D+00 0.3120000D+00 0.3120000D+00
EXPONENTS  0.3120000D+00 0.3120000D+00 0.3120000D+00 0.3120000D+00 0.3120000D+00
EXPONENTS  0.3120000D+00 0.3120000D+00
MO    1     MO 0.0        OCC NO =    2.0000387  ORB. ENERGY =    0.000000
 -0.19374374D-10 -0.36110648D-10 -0.61230678D-10 -0.92666120D-10 -0.11559368D-09
 -0.99196576D-10 -0.37987019D-10 -0.30054122D-14 -0.32246101D-13 -0.11886520D-12
 -0.34755487D-12 -0.41882052D-12  0.50451370D-12 -0.18207881D-11 -0.28598685D-12
 -0.61636757D-12 -0.73398758D-12 -0.71172106D-12 -0.48012282D-12 -0.87633326D-03
 -0.84974848D-03 -0.57323531D-03 -0.29167753D-11 -0.28282909D-11 -0.19079483D-11
 -0.20267824D-12 -0.94190669D-03 -0.12178910D-11 -0.39253336D-13 -0.75995768D-03
 -0.11229039D-11  0.17063710D-14 -0.19848906D-04 -0.26591848D-13 -0.25773322D-12
  0.49865568D-12 -0.24092246D-12  0.13668088D-04 -0.35236477D-13 -0.20039274D-03
  0.17349207D-12 -0.54572035D-12  0.37222828D-12 -0.66499792D-05  0.15076593D-13
 -0.70646192D-04 -0.12592720D-12 -0.52795746D-13  0.17872295D-12 -0.31408650D-05
 -0.34442490D-14  0.11215546D-03  0.12886625D-13 -0.14730479D-03 -0.87373602D-13
 -0.56394330D-13  0.22251419D-03  0.11118136D-12  0.17734456D-13  0.21940017D-03
  0.15093945D-12 -0.13467074D-04 -0.58550522D-14 -0.10253979D-04 -0.75901649D-13
  0.18682582D-13 -0.20050654D-03 -0.75328928D-13 -0.11174255D-14  0.23126848D-03
  0.30303387D-12  0.98278253D-06  0.19685757D-10  0.36698217D-10  0.62024986D-10
  0.93235122D-10  0.11452265D-09  0.96653075D-10  0.36344080D-10  0.10351997D-13
  0.77374768D-13  0.28916717D-12  0.80673139D-12  0.10807976D-11 -0.12762205D-11
  0.11758520D-11 -0.48778248D-12 -0.30366170D-12  0.55671884D-12  0.52195930D-12
  0.37166611D-12  0.11087903D-02  0.10395614D-02  0.74022962D-03 -0.22421781D-11
 -0.21021845D-11 -0.14968806D-11  0.12488736D-12  0.14400636D-03 -0.17844922D-11
  0.66652374D-14  0.71697946D-04  0.51004281D-12 -0.25265826D-14 -0.87386976D-05
  0.54528347D-13  0.83706975D-13 -0.14780368D-11  0.13943298D-11 -0.80019424D-06
 -0.16183005D-12  0.18420632D-03 -0.12804529D-12  0.33594290D-12 -0.20789761D-12
  0.15055920D-05  0.12860566D-13  0.74451371D-04  0.66109431D-14 -0.25951295D-12
  0.25290201D-12 -0.59043624D-06 -0.77527532D-14  0.54664220D-04 -0.13724348D-13
  0.25495670D-03 -0.28774815D-12  0.22175830D-13  0.37152284D-04  0.35829473D-12
  0.18997214D-13 -0.80202237D-03  0.50494972D-12  0.12676086D-04  0.62325371D-14
 -0.25893265D-03  0.13833501D-12 -0.19570310D-13  0.27213594D-04 -0.20879642D-12
  0.87269842D-15  0.74958435D-03 -0.20620860D-12 -0.50605677D-05 -0.27094948D-03
 -0.50691757D-03 -0.87584113D-03 -0.14198414D-02 -0.21561654D-02 -0.29968670D-02
 -0.35630452D-02 -0.31740845D-02 -0.15763175D-02 -0.25377378D-03 -0.26774633D-05
 -0.15767123D-05 -0.52596483D-04 -0.18328821D-03 -0.66005054D-03 -0.14549993D-02
 -0.20481694D-02  0.97704355D-04  0.26803853D-02  0.15848951D-02  0.27578380D-06
  0.33404153D-05  0.69660839D-05  0.19977516D-04  0.10374046D-05 -0.86152737D-04
 -0.22260213D-03  0.18136573D-03  0.81681361D-04 -0.10094327D-03 -0.57173407D-04
 -0.42437183D-01 -0.55899697D-01 -0.61666116D-01 -0.51218538D-01 -0.27198465D-01
 -0.70173461D-02 -0.46638436D+01 -0.61433731D+01 -0.67771022D+01 -0.56289140D+01
 -0.29891095D+01 -0.77120588D+00  0.67688542D+01  0.89161644D+01  0.98359250D+01
  0.81695058D+01  0.43382343D+01  0.11192871D+01  0.20624595D-05 -0.19938531D-04
 -0.28115410D-04 -0.40212474D-04  0.20363031D-06  0.36878631D-04  0.23743545D-03
 -0.22953732D-02 -0.32367158D-02 -0.46293598D-02  0.23442426D-04  0.42455596D-02
 -0.33427290D-03  0.32315353D-02  0.45568022D-02  0.65174325D-02 -0.33003361D-04
 -0.59771003D-02 -0.27296199D-03 -0.29933119D-01  0.43664622D-01  0.27079430D-05
  0.34408278D-03 -0.55705102D-03  0.72469953D-07  0.10941438D-04 -0.17205960D-04
 -0.14428162D-04 -0.74754815D-03  0.76197631D-03 -0.72423140D-05 -0.23735752D-05
  0.68709993D-03  0.58528716D-04  0.43212035D-03 -0.49064907D-03  0.39364698D-05
  0.19361084D-05 -0.35228251D-03  0.47703550D-05 -0.18181292D-05 -0.29522258D-05
 -0.54050273D-08 -0.23606509D-06 -0.48950671D-05 -0.13992299D-06 -0.13859742D-04
 -0.26204278D-05 -0.98051939D-06  0.18504262D-04  0.37013852D-04  0.14002884D-05
  0.23074964D-04 -0.29152569D-04 -0.11083413D-06 -0.15368679D-06  0.75066774D-04
 -0.42091100D-04  0.10997648D-05  0.11413270D-04  0.51385682D-04 -0.63870441D-06
 -0.23661359D-03  0.74887619D-04  0.12089841D-05  0.27094954D-03  0.50691768D-03
  0.87584132D-03  0.14198417D-02  0.21561659D-02  0.29968677D-02  0.35630460D-02
  0.31740852D-02  0.15763178D-02  0.25377384D-03  0.26774639D-05  0.15767125D-05
  0.52596488D-04  0.18328823D-03  0.66005060D-03  0.14549994D-02  0.20481696D-02
 -0.97704363D-04 -0.26803855D-02 -0.15848952D-02 -0.27578380D-06 -0.33404153D-05
 -0.69660839D-05 -0.19977516D-04 -0.10374046D-05  0.86152736D-04  0.22260212D-03
 -0.18136573D-03 -0.81681369D-04  0.10094327D-03  0.57173408D-04  0.42437180D-01
  0.55899694D-01  0.61666112D-01  0.51218535D-01  0.27198463D-01  0.70173457D-02
 -0.46638436D+01 -0.61433730D+01 -0.67771021D+01 -0.56289139D+01 -0.29891095D+01
 -0.77120588D+00 -0.67688541D+01 -0.89161643D+01 -0.98359250D+01 -0.81695058D+01
 -0.43382343D+01 -0.11192871D+01 -0.20624594D-05  0.19938530D-04  0.28115409D-04
  0.40212472D-04 -0.20363030D-06 -0.36878629D-04  0.23743545D-03 -0.22953732D-02
 -0.32367158D-02 -0.46293598D-02  0.23442426D-04  0.42455596D-02  0.33427290D-03
 -0.32315353D-02 -0.45568021D-02 -0.65174325D-02  0.33003361D-04  0.59771003D-02
  0.27296198D-03 -0.29933119D-01 -0.43664622D-01 -0.27079428D-05  0.34408278D-03
  0.55705102D-03 -0.72469946D-07  0.10941438D-04  0.17205960D-04  0.14428162D-04
  0.74754815D-03 -0.76197631D-03 -0.72423138D-05  0.23735751D-05  0.68709993D-03
 -0.58528716D-04 -0.43212035D-03  0.49064906D-03  0.39364697D-05 -0.19361083D-05
 -0.35228251D-03 -0.47703551D-05  0.18181290D-05  0.29522260D-05 -0.54050255D-08
  0.23606509D-06 -0.48950672D-05  0.13992300D-06 -0.13859742D-04  0.26204278D-05
  0.98051940D-06  0.18504262D-04 -0.37013852D-04 -0.14002884D-05  0.23074965D-04
  0.29152569D-04 -0.11083411D-06  0.15368678D-06  0.75066774D-04  0.42091100D-04
 -0.10997648D-05  0.11413270D-04 -0.51385682D-04  0.63870443D-06 -0.23661359D-03
 -0.74887619D-04  0.12089841D-05
MO    2     MO 0.0        OCC NO =    2.0000377  ORB. ENERGY =    0.000000
  0.55198548D-02  0.10288102D-01  0.17444922D-01  0.26401035D-01  0.32933210D-01
  0.28261594D-01  0.10822689D-01  0.87482907D-06  0.93863418D-05  0.34599823D-04
  0.10116785D-03  0.12191218D-03 -0.14685614D-03  0.54196281D-03  0.20346620D-03
  0.29992914D-03 -0.13319014D-04 -0.12914963D-04 -0.87123579D-05 -0.22970102D-11
 -0.22273273D-11 -0.15025418D-11  0.15917936D-02  0.15435043D-02  0.10412389D-02
 -0.23530250D-05 -0.22261391D-11  0.58583079D-03  0.16480937D-05 -0.18254287D-11
  0.49683195D-03  0.34856476D-06 -0.50776444D-13  0.10501832D-04  0.13184123D-03
 -0.21761031D-03  0.85769080D-04  0.20075887D-13  0.56904681D-05 -0.56838067D-12
 -0.76416385D-04  0.24752196D-03 -0.17110558D-03 -0.22436308D-13 -0.51400135D-06
 -0.75035194D-13  0.58110900D-04  0.22137255D-04 -0.80248155D-04  0.17877929D-13
  0.14430850D-05  0.29711835D-12 -0.40141022D-06 -0.34330233D-12  0.32911334D-04
  0.29762255D-05  0.47755758D-12 -0.37504423D-04 -0.17719949D-05  0.55234941D-12
 -0.61229578D-04  0.86505509D-13  0.31785520D-06 -0.12770979D-13  0.34722122D-04
  0.12118924D-06 -0.43853200D-12  0.32394813D-04 -0.10747548D-05  0.47684494D-12
 -0.13656118D-03 -0.36526745D-13 -0.38868892D-02 -0.72459445D-02 -0.12246633D-01
 -0.18408974D-01 -0.22612127D-01 -0.19083838D-01 -0.71760214D-02 -0.41659256D-05
 -0.31137713D-04 -0.11636874D-03 -0.32465067D-03 -0.43494240D-03  0.51358587D-03
 -0.10468956D-03 -0.12341487D-04  0.85669899D-04 -0.75140777D-05 -0.70449254D-05
 -0.50164066D-05  0.28019941D-11  0.26270475D-11  0.18706144D-11  0.97969118D-03
  0.91852275D-03  0.65404292D-03 -0.63809108D-05  0.33715385D-12  0.82772938D-03
  0.42802327D-06  0.20120672D-12 -0.20428543D-03  0.63556765D-07 -0.16038947D-13
 -0.21910902D-04 -0.68433161D-04  0.68320602D-03 -0.61477286D-03 -0.19145968D-12
  0.71811702D-05  0.37485953D-12  0.82289274D-04 -0.16600069D-03  0.83711414D-04
  0.11205584D-13 -0.34638660D-05  0.31475470D-12 -0.13150087D-06  0.11551218D-03
 -0.11538068D-03 -0.12527859D-13  0.81160692D-06  0.12930757D-12  0.53076698D-06
  0.55866020D-12  0.13660859D-03  0.13924047D-05  0.89371609D-13 -0.17576420D-03
 -0.29847057D-05 -0.17653522D-11 -0.23406156D-03  0.83452436D-13 -0.41498754D-06
 -0.58750768D-12 -0.68573290D-04  0.12021748D-05  0.60580155D-13  0.94815147D-04
  0.42787786D-07  0.17019429D-11  0.11090472D-03 -0.68656978D-13 -0.14772361D-02
 -0.27637511D-02 -0.47751488D-02 -0.77410773D-02 -0.11755569D-01 -0.16339134D-01
 -0.19425979D-01 -0.17305337D-01 -0.85941963D-02 -0.13835929D-02 -0.14597722D-04
 -0.72287458D-05 -0.24113886D-03 -0.84032065D-03 -0.30261307D-02 -0.66707286D-02
 -0.93902329D-02  0.44794471D-03  0.12288750D-01  0.72662612D-02  0.91837815D-07
  0.11123802D-05  0.23197517D-05  0.66526439D-05  0.34546253D-06 -0.28689427D-04
 -0.74127969D-04  0.60395980D-04  0.32806555D-03 -0.19063847D-03 -0.16751634D-03
  0.48538138D-01  0.63936082D-01  0.70531507D-01  0.58581939D-01  0.31108635D-01
  0.80261905D-02  0.41038017D+01  0.54056668D+01  0.59632967D+01  0.49529848D+01
  0.26301724D+01  0.67859822D+00 -0.71178981D+01 -0.93759369D+01 -0.10343126D+02
 -0.85907761D+01 -0.45619405D+01 -0.11770045D+01 -0.21917457D-05  0.21188387D-04
  0.29877838D-04  0.42733212D-04 -0.21639497D-06 -0.39190386D-04 -0.17586327D-03
  0.17001330D-02  0.23973650D-02  0.34288661D-02 -0.17363295D-04 -0.31445936D-02
  0.33297571D-03 -0.32189950D-02 -0.45391189D-02 -0.64921408D-02  0.32875287D-04
  0.59539054D-02  0.31244588D-03  0.26399519D-01 -0.46087049D-01 -0.29849600D-05
 -0.16700259D-03  0.22042542D-03 -0.11551877D-06 -0.11653495D-04  0.71503900D-05
  0.22331622D-04  0.42854962D-03 -0.45088124D-03  0.58213277D-05  0.30974554D-05
 -0.39944413D-03  0.47148162D-05 -0.27387444D-03  0.26915962D-03 -0.35940840D-05
 -0.16985334D-05  0.44937737D-03 -0.66074281D-06  0.38071722D-04 -0.37410979D-04
  0.15397026D-06 -0.22504066D-06 -0.16762469D-04 -0.16010540D-06 -0.32805040D-04
  0.10027193D-04 -0.31535761D-06  0.51265028D-04  0.52296583D-05  0.79567381D-06
  0.47150092D-04 -0.35311238D-04  0.78994218D-06  0.33850925D-06 -0.48108950D-04
 -0.13485268D-04 -0.54413306D-06  0.14147010D-04 -0.40029698D-04 -0.47139470D-06
  0.13017984D-03  0.80485503D-04 -0.14294364D-05 -0.14772361D-02 -0.27637510D-02
 -0.47751488D-02 -0.77410772D-02 -0.11755569D-01 -0.16339134D-01 -0.19425979D-01
 -0.17305337D-01 -0.85941962D-02 -0.13835929D-02 -0.14597722D-04 -0.72287458D-05
 -0.24113886D-03 -0.84032065D-03 -0.30261307D-02 -0.66707286D-02 -0.93902328D-02
  0.44794471D-03  0.12288750D-01  0.72662612D-02  0.91837814D-07  0.11123802D-05
  0.23197516D-05  0.66526438D-05  0.34546253D-06 -0.28689427D-04 -0.74127968D-04
  0.60395979D-04  0.32806555D-03 -0.19063847D-03 -0.16751634D-03  0.48538140D-01
  0.63936086D-01  0.70531511D-01  0.58581942D-01  0.31108637D-01  0.80261909D-02
 -0.41038017D+01 -0.54056668D+01 -0.59632967D+01 -0.49529848D+01 -0.26301724D+01
 -0.67859822D+00 -0.71178981D+01 -0.93759370D+01 -0.10343126D+02 -0.85907761D+01
 -0.45619405D+01 -0.11770045D+01 -0.21917458D-05  0.21188389D-04  0.29877840D-04
  0.42733215D-04 -0.21639498D-06 -0.39190388D-04  0.17586328D-03 -0.17001330D-02
 -0.23973650D-02 -0.34288661D-02  0.17363295D-04  0.31445936D-02  0.33297572D-03
 -0.32189950D-02 -0.45391189D-02 -0.64921408D-02  0.32875287D-04  0.59539054D-02
  0.31244589D-03 -0.26399519D-01 -0.46087049D-01 -0.29849601D-05  0.16700259D-03
  0.22042543D-03 -0.11551878D-06  0.11653495D-04  0.71503901D-05  0.22331622D-04
  0.42854962D-03 -0.45088124D-03 -0.58213280D-05  0.30974556D-05  0.39944414D-03
  0.47148158D-05 -0.27387444D-03  0.26915963D-03  0.35940841D-05 -0.16985335D-05
 -0.44937737D-03 -0.66074283D-06  0.38071722D-04 -0.37410979D-04 -0.15397027D-06
 -0.22504065D-06  0.16762469D-04 -0.16010539D-06  0.32805040D-04  0.10027193D-04
 -0.31535759D-06 -0.51265028D-04  0.52296582D-05  0.79567377D-06 -0.47150091D-04
 -0.35311238D-04 -0.78994219D-06  0.33850926D-06  0.48108950D-04 -0.13485268D-04
 -0.54413310D-06 -0.14147009D-04 -0.40029698D-04 -0.47139468D-06 -0.13017984D-03
  0.80485503D-04  0.14294365D-05
MO    3     MO 0.0        OCC NO =    2.0000335  ORB. ENERGY =    0.000000
 -0.25206038D-10 -0.46979911D-10 -0.79661041D-10 -0.12055851D-09 -0.15038724D-09
 -0.12905463D-09 -0.49421067D-10 -0.29297539D-14 -0.31434337D-13 -0.11587289D-12
 -0.33880552D-12 -0.40827713D-12  0.49181306D-12 -0.22913822D-11  0.82334771D-13
  0.53062984D-13 -0.82210756D-11 -0.79716780D-11 -0.53776469D-11  0.11206696D-04
  0.10866725D-04  0.73306286D-05  0.10279942D-11  0.99680857D-12  0.67244118D-12
 -0.23401943D-11  0.32174260D-05  0.24165302D-13 -0.48490372D-12  0.12387679D-04
  0.82619401D-13  0.24079851D-13  0.12327895D-05  0.46333822D-14  0.86650504D-13
 -0.47502678D-13 -0.39147826D-13  0.11508739D-03 -0.59284327D-12  0.11929639D-04
 -0.36430225D-13  0.27340152D-13  0.90900735D-14  0.33378454D-04  0.26368946D-12
 -0.53575571D-05  0.52277890D-14  0.12677085D-13 -0.17904873D-13 -0.15862762D-03
  0.42078166D-13 -0.41417575D-05  0.96022344D-13 -0.18220900D-05  0.11661754D-13
 -0.52980325D-12  0.13211218D-04 -0.15433375D-13  0.24173622D-12 -0.77449481D-05
 -0.19551886D-13 -0.78114595D-03 -0.42718358D-13  0.54125190D-06  0.11556416D-13
  0.21919563D-12 -0.44561170D-05  0.15035265D-13 -0.91040552D-13  0.28323613D-05
 -0.49704515D-13  0.24295029D-03 -0.15643066D-10 -0.29161827D-10 -0.49287460D-10
 -0.74088246D-10 -0.91004140D-10 -0.76804283D-10 -0.28880416D-10 -0.33404958D-14
 -0.24968137D-13 -0.93311628D-13 -0.26032491D-12 -0.34876361D-12  0.41182479D-12
 -0.10866675D-11 -0.14279581D-12  0.27080637D-13  0.59169884D-11  0.55475527D-11
  0.39501880D-11 -0.14913256D-04 -0.13982125D-04 -0.99561061D-05 -0.16802922D-12
 -0.15753808D-12 -0.11217649D-12  0.13428257D-11 -0.11735370D-05  0.31590172D-13
  0.14876000D-12 -0.87448024D-05  0.15724106D-13 -0.25351895D-13 -0.78596395D-06
 -0.64079533D-14  0.54734294D-13  0.10807469D-12 -0.16280899D-12  0.12034934D-02
 -0.16385284D-11  0.10728795D-04  0.63876597D-13 -0.56848313D-13 -0.70282839D-14
 -0.45886131D-04  0.13585672D-12 -0.96947012D-05  0.51309693D-14  0.15655873D-13
 -0.20786842D-13  0.72298013D-04 -0.69710578D-13 -0.12531890D-05 -0.13452278D-12
  0.69753932D-06  0.34827792D-15  0.20895546D-12 -0.55709841D-08  0.18965478D-13
  0.19461288D-12 -0.20870470D-05 -0.20010312D-13 -0.35040714D-03  0.49608252D-13
  0.75611334D-07 -0.80973018D-14 -0.18008909D-12 -0.43594603D-06  0.10198965D-13
  0.31264338D-13  0.20911202D-06  0.14092941D-13  0.35487441D-03 -0.91102612D-04
 -0.17044327D-03 -0.29448816D-03 -0.47739990D-03 -0.72497756D-03 -0.10076506D-02
 -0.11980194D-02 -0.10672373D-02 -0.53001260D-03 -0.85327544D-04 -0.90025599D-06
 -0.42635160D-06 -0.14222376D-04 -0.49562132D-04 -0.17848126D-03 -0.39343973D-03
 -0.55383616D-03  0.26419790D-04  0.72479079D-03  0.42856426D-03 -0.81733070D-08
 -0.98998708D-07 -0.20645137D-06 -0.59206658D-06 -0.30745193D-07  0.25532782D-05
  0.65971806D-05 -0.53750722D-05  0.24402706D-04 -0.11561502D-05 -0.36508584D-05
  0.82140562D+01  0.10819833D+02  0.11935970D+02  0.99137577D+01  0.52644804D+01
  0.13582635D+01 -0.43272582D-01 -0.57000114D-01 -0.62880048D-01 -0.52226803D-01
 -0.27733882D-01 -0.71554865D-02  0.21670757D-01  0.28545457D-01  0.31490107D-01
  0.26155000D-01  0.13889031D-01  0.35834425D-02 -0.35886225D-03  0.34692493D-02
  0.48920037D-02  0.69968594D-02 -0.35431111D-04 -0.64167799D-02  0.20466298D-05
 -0.19785500D-04 -0.27899620D-04 -0.39903837D-04  0.20206742D-06  0.36595582D-04
 -0.80034655D-06  0.77372354D-05  0.10910310D-04  0.15604629D-04 -0.79019644D-07
 -0.14310916D-04  0.53687726D-01 -0.28723635D-03  0.13752336D-03 -0.42409719D-03
  0.15985694D-05 -0.39498594D-05 -0.15167155D-04  0.14875813D-06 -0.20584358D-06
  0.14512989D-05 -0.40482512D-05  0.25969522D-05  0.90727981D-03  0.51079281D-03
  0.26250985D-05 -0.10617073D-05  0.24121231D-05 -0.13504158D-05 -0.47178866D-03
 -0.31785835D-03  0.22851692D-05  0.74433380D-07  0.18733270D-06 -0.26176608D-06
  0.21552410D-04  0.36876253D-04 -0.32978251D-06  0.22740844D-04 -0.62646733D-06
 -0.18092884D-06  0.41984696D-04  0.85109874D-06  0.55143666D-06 -0.11020723D-03
  0.10283033D-05 -0.86501565D-08  0.96271107D-05  0.17573770D-04  0.46492715D-06
 -0.28395146D-06 -0.90600032D-04 -0.84840478D-06 -0.46458247D-06  0.37878722D-04
 -0.54637669D-06  0.13164368D-05 -0.14742187D-03  0.91102598D-04  0.17044324D-03
  0.29448811D-03  0.47739983D-03  0.72497745D-03  0.10076505D-02  0.11980192D-02
  0.10672371D-02  0.53001252D-03  0.85327531D-04  0.90025586D-06  0.42635147D-06
  0.14222371D-04  0.49562117D-04  0.17848121D-03  0.39343961D-03  0.55383599D-03
 -0.26419782D-04 -0.72479058D-03 -0.42856413D-03  0.81733036D-08  0.98998667D-07
  0.20645128D-06  0.59206633D-06  0.30745180D-07 -0.25532772D-05 -0.65971778D-05
  0.53750700D-05 -0.24402698D-04  0.11561501D-05  0.36508583D-05 -0.82140562D+01
 -0.10819834D+02 -0.11935970D+02 -0.99137577D+01 -0.52644804D+01 -0.13582635D+01
 -0.43272582D-01 -0.57000113D-01 -0.62880047D-01 -0.52226803D-01 -0.27733881D-01
 -0.71554864D-02 -0.21670761D-01 -0.28545461D-01 -0.31490112D-01 -0.26155004D-01
 -0.13889033D-01 -0.35834431D-02  0.35886225D-03 -0.34692493D-02 -0.48920037D-02
 -0.69968594D-02  0.35431111D-04  0.64167800D-02  0.20466298D-05 -0.19785500D-04
 -0.27899620D-04 -0.39903837D-04  0.20206741D-06  0.36595582D-04  0.80034669D-06
 -0.77372369D-05 -0.10910312D-04 -0.15604632D-04  0.79019659D-07  0.14310919D-04
 -0.53687726D-01 -0.28723634D-03 -0.13752339D-03  0.42409719D-03  0.15985694D-05
  0.39498595D-05  0.15167155D-04  0.14875814D-06  0.20584359D-06 -0.14512989D-05
  0.40482513D-05 -0.25969524D-05  0.90727981D-03 -0.51079281D-03  0.26250986D-05
  0.10617073D-05 -0.24121231D-05  0.13504158D-05 -0.47178866D-03  0.31785835D-03
  0.22851689D-05 -0.74433382D-07 -0.18733268D-06  0.26176606D-06  0.21552410D-04
 -0.36876253D-04 -0.32978250D-06 -0.22740844D-04 -0.62646734D-06  0.18092884D-06
 -0.41984696D-04  0.85109876D-06 -0.55143666D-06  0.11020723D-03  0.10283033D-05
  0.86501400D-08  0.96271108D-05 -0.17573770D-04  0.46492717D-06  0.28395145D-06
  0.90600032D-04 -0.84840476D-06  0.46458244D-06 -0.37878722D-04 -0.54637673D-06
 -0.13164368D-05 -0.14742187D-03
MO    4     MO 0.0        OCC NO =    2.0000300  ORB. ENERGY =    0.000000
 -0.90255642D-04 -0.16822168D-03 -0.28524349D-03 -0.43168569D-03 -0.53849388D-03
 -0.46210786D-03 -0.17696276D-03 -0.51732521D-07 -0.55505601D-06 -0.20460409D-05
 -0.59825037D-05 -0.72092079D-05  0.86842548D-05 -0.62894797D-05  0.22295160D-05
 -0.11173951D-06 -0.52013664D-02 -0.50435758D-02 -0.34023664D-02  0.30611400D-12
  0.29682761D-12  0.20023815D-12 -0.49201965D-04 -0.47709355D-04 -0.32184449D-04
 -0.14814138D-02  0.21906178D-12 -0.16319902D-04 -0.31071241D-03  0.17661353D-12
 -0.25531502D-05  0.14431192D-04  0.13736998D-13  0.90804571D-07  0.27936312D-06
  0.26961134D-05 -0.29754765D-05 -0.16943803D-12 -0.38615370D-03  0.13419960D-12
  0.22662446D-06 -0.11602261D-05  0.93360166D-06 -0.51949282D-13  0.17473191D-03
 -0.36957494D-13  0.66167394D-06 -0.18569310D-05  0.11952570D-05  0.24926401D-12
  0.27513951D-04 -0.28787830D-13  0.63042152D-04  0.39272135D-13  0.38256395D-05
 -0.33276400D-03 -0.53931946D-13  0.51032264D-06  0.14363754D-03 -0.63884459D-13
 -0.11987241D-04  0.12265377D-11 -0.26671569D-04 -0.58702587D-14 -0.15624040D-05
  0.13873490D-03  0.38741145D-13 -0.81993364D-06 -0.58720192D-04 -0.21130369D-13
  0.55071456D-05 -0.37885285D-12  0.22347941D-03  0.41661064D-03  0.70412874D-03
  0.10584368D-02  0.13001001D-02  0.10972386D-02  0.41259036D-03  0.55744887D-07
  0.41665850D-06  0.15571479D-05  0.43442003D-05  0.58200307D-05 -0.68723710D-05
  0.15130608D-04  0.33304270D-06  0.17208926D-05  0.37016564D-02  0.34705381D-02
  0.24712299D-02 -0.38250636D-12 -0.35862402D-12 -0.25536167D-12  0.37052227D-04
  0.34738818D-04  0.24736108D-04  0.84379204D-03 -0.72265318D-14  0.50766399D-05
  0.87902693D-04  0.70549538D-13  0.48530082D-05 -0.15972596D-04 -0.32040720D-14
 -0.12244890D-06  0.88891659D-06  0.21110030D-05 -0.29999196D-05 -0.19145796D-11
 -0.10321570D-02 -0.60749120D-13 -0.99245397D-06  0.24466203D-05 -0.14541664D-05
  0.74372874D-13  0.91074758D-04 -0.15813872D-12 -0.54677964D-07  0.14627128D-05
 -0.14080348D-05 -0.11289672D-12 -0.41651834D-04 -0.36022770D-13 -0.86535981D-04
 -0.34313507D-13  0.13083858D-05  0.13300361D-03 -0.13407431D-13 -0.23508994D-05