 cl2co-wavefunction
GAUSSIAN            192 MOL ORBITALS    372 PRIMITIVES        4 NUCLEI
  O    1    (CENTRE  1)   0.00000000  0.00000000  1.27253591  CHARGE =  8.0
  C    2    (CENTRE  2)   0.00000000  0.00000000 -0.93482295  CHARGE =  6.0
  Cl   3    (CENTRE  3)   0.00000000 -2.73418805 -2.77752892  CHARGE = 17.0
  Cl   4    (CENTRE  4)   0.00000000  2.73418805 -2.77752892  CHARGE = 17.0
CENTRE ASSIGNMENTS    1  1  1  1  1  1  1  1  1  1  1  1  1  1  1  1  1  1  1  1
CENTRE ASSIGNMENTS    1  1  1  1  1  1  1  1  1  1  1  1  1  1  1  1  1  1  1  1
CENTRE ASSIGNMENTS    1  1  1  1  1  1  1  1  1  1  1  1  1  1  1  1  1  1  1  1
CENTRE ASSIGNMENTS    1  1  1  1  1  1  1  1  1  1  1  1  2  2  2  2  2  2  2  2
CENTRE ASSIGNMENTS    2  2  2  2  2  2  2  2  2  2  2  2  2  2  2  2  2  2  2  2
CENTRE ASSIGNMENTS    2  2  2  2  2  2  2  2  2  2  2  2  2  2  2  2  2  2  2  2
CENTRE ASSIGNMENTS    2  2  2  2  2  2  2  2  2  2  2  2  2  2  2  2  2  2  2  2
CENTRE ASSIGNMENTS    2  2  2  2  3  3  3  3  3  3  3  3  3  3  3  3  3  3  3  3
CENTRE ASSIGNMENTS    3  3  3  3  3  3  3  3  3  3  3  3  3  3  3  3  3  3  3  3
CENTRE ASSIGNMENTS    3  3  3  3  3  3  3  3  3  3  3  3  3  3  3  3  3  3  3  3
CENTRE ASSIGNMENTS    3  3  3  3  3  3  3  3  3  3  3  3  3  3  3  3  3  3  3  3
CENTRE ASSIGNMENTS    3  3  3  3  3  3  3  3  3  3  3  3  3  3  3  3  3  3  3  3
CENTRE ASSIGNMENTS    3  3  3  3  3  3  3  3  3  3  3  3  3  3  3  3  3  3  4  4
CENTRE ASSIGNMENTS    4  4  4  4  4  4  4  4  4  4  4  4  4  4  4  4  4  4  4  4
CENTRE ASSIGNMENTS    4  4  4  4  4  4  4  4  4  4  4  4  4  4  4  4  4  4  4  4
CENTRE ASSIGNMENTS    4  4  4  4  4  4  4  4  4  4  4  4  4  4  4  4  4  4  4  4
CENTRE ASSIGNMENTS    4  4  4  4  4  4  4  4  4  4  4  4  4  4  4  4  4  4  4  4
CENTRE ASSIGNMENTS    4  4  4  4  4  4  4  4  4  4  4  4  4  4  4  4  4  4  4  4
CENTRE ASSIGNMENTS    4  4  4  4  4  4  4  4  4  4  4  4
TYPE ASSIGNMENTS      1  1  1  1  1  1  1  1  1  1  1  1  1  1  1  1  2  2  2  3
TYPE ASSIGNMENTS      3  3  4  4  4  2  3  4  2  3  4  2  3  4  5  6  7  8  9 10
TYPE ASSIGNMENTS      5  6  7  8  9 10  5  6  7  8  9 10 11 12 13 17 14 15 18 19
TYPE ASSIGNMENTS     16 20 11 12 13 17 14 15 18 19 16 20  1  1  1  1  1  1  1  1
TYPE ASSIGNMENTS      1  1  1  1  1  1  1  1  2  2  2  3  3  3  4  4  4  2  3  4
TYPE ASSIGNMENTS      2  3  4  2  3  4  5  6  7  8  9 10  5  6  7  8  9 10  5  6
TYPE ASSIGNMENTS      7  8  9 10 11 12 13 17 14 15 18 19 16 20 11 12 13 17 14 15
TYPE ASSIGNMENTS     18 19 16 20  1  1  1  1  1  1  1  1  1  1  1  1  1  1  1  1
TYPE ASSIGNMENTS      1  1  1  1  1  1  1  1  1  1  1  1  1  1  1  2  2  2  2  2
TYPE ASSIGNMENTS      2  3  3  3  3  3  3  4  4  4  4  4  4  2  2  2  2  2  2  3
TYPE ASSIGNMENTS      3  3  3  3  3  4  4  4  4  4  4  2  3  4  2  3  4  2  3  4
TYPE ASSIGNMENTS      5  6  7  8  9 10  5  6  7  8  9 10  5  6  7  8  9 10 11 12
TYPE ASSIGNMENTS     13 17 14 15 18 19 16 20 11 12 13 17 14 15 18 19 16 20  1  1
TYPE ASSIGNMENTS      1  1  1  1  1  1  1  1  1  1  1  1  1  1  1  1  1  1  1  1
TYPE ASSIGNMENTS      1  1  1  1  1  1  1  1  1  2  2  2  2  2  2  3  3  3  3  3
TYPE ASSIGNMENTS      3  4  4  4  4  4  4  2  2  2  2  2  2  3  3  3  3  3  3  4
TYPE ASSIGNMENTS      4  4  4  4  4  2  3  4  2  3  4  2  3  4  5  6  7  8  9 10
TYPE ASSIGNMENTS      5  6  7  8  9 10  5  6  7  8  9 10 11 12 13 17 14 15 18 19
TYPE ASSIGNMENTS     16 20 11 12 13 17 14 15 18 19 16 20
EXPONENTS  0.1533000D+05 0.2299000D+04 0.5224000D+03 0.1473000D+03 0.4755000D+02
EXPONENTS  0.1676000D+02 0.6207000D+01 0.5224000D+03 0.1473000D+03 0.4755000D+02
EXPONENTS  0.1676000D+02 0.6207000D+01 0.6882000D+00 0.1752000D+01 0.2384000D+00
EXPONENTS  0.7376000D-01 0.3446000D+02 0.7749000D+01 0.2280000D+01 0.3446000D+02
EXPONENTS  0.7749000D+01 0.2280000D+01 0.3446000D+02 0.7749000D+01 0.2280000D+01
EXPONENTS  0.7156000D+00 0.7156000D+00 0.7156000D+00 0.2140000D+00 0.2140000D+00
EXPONENTS  0.2140000D+00 0.5974000D-01 0.5974000D-01 0.5974000D-01 0.2314000D+01
EXPONENTS  0.2314000D+01 0.2314000D+01 0.2314000D+01 0.2314000D+01 0.2314000D+01
EXPONENTS  0.6450000D+00 0.6450000D+00 0.6450000D+00 0.6450000D+00 0.6450000D+00
EXPONENTS  0.6450000D+00 0.2140000D+00 0.2140000D+00 0.2140000D+00 0.2140000D+00
EXPONENTS  0.2140000D+00 0.2140000D+00 0.1428000D+01 0.1428000D+01 0.1428000D+01
EXPONENTS  0.1428000D+01 0.1428000D+01 0.1428000D+01 0.1428000D+01 0.1428000D+01
EXPONENTS  0.1428000D+01 0.1428000D+01 0.5000000D+00 0.5000000D+00 0.5000000D+00
EXPONENTS  0.5000000D+00 0.5000000D+00 0.5000000D+00 0.5000000D+00 0.5000000D+00
EXPONENTS  0.5000000D+00 0.5000000D+00 0.8236000D+04 0.1235000D+04 0.2808000D+03
EXPONENTS  0.7927000D+02 0.2559000D+02 0.8997000D+01 0.3319000D+01 0.2808000D+03
EXPONENTS  0.7927000D+02 0.2559000D+02 0.8997000D+01 0.3319000D+01 0.3643000D+00
EXPONENTS  0.9059000D+00 0.1285000D+00 0.4402000D-01 0.1871000D+02 0.4133000D+01
EXPONENTS  0.1200000D+01 0.1871000D+02 0.4133000D+01 0.1200000D+01 0.1871000D+02
EXPONENTS  0.4133000D+01 0.1200000D+01 0.3827000D+00 0.3827000D+00 0.3827000D+00
EXPONENTS  0.1209000D+00 0.1209000D+00 0.1209000D+00 0.3569000D-01 0.3569000D-01
EXPONENTS  0.3569000D-01 0.1097000D+01 0.1097000D+01 0.1097000D+01 0.1097000D+01
EXPONENTS  0.1097000D+01 0.1097000D+01 0.3180000D+00 0.3180000D+00 0.3180000D+00
EXPONENTS  0.3180000D+00 0.3180000D+00 0.3180000D+00 0.1000000D+00 0.1000000D+00
EXPONENTS  0.1000000D+00 0.1000000D+00 0.1000000D+00 0.1000000D+00 0.7610000D+00
EXPONENTS  0.7610000D+00 0.7610000D+00 0.7610000D+00 0.7610000D+00 0.7610000D+00
EXPONENTS  0.7610000D+00 0.7610000D+00 0.7610000D+00 0.7610000D+00 0.2680000D+00
EXPONENTS  0.2680000D+00 0.2680000D+00 0.2680000D+00 0.2680000D+00 0.2680000D+00
EXPONENTS  0.2680000D+00 0.2680000D+00 0.2680000D+00 0.2680000D+00 0.4561000D+06
EXPONENTS  0.6833000D+05 0.1555000D+05 0.4405000D+04 0.1439000D+04 0.5204000D+03
EXPONENTS  0.2031000D+03 0.8396000D+02 0.3620000D+02 0.1583000D+02 0.6334000D+01
EXPONENTS  0.4405000D+04 0.1439000D+04 0.5204000D+03 0.2031000D+03 0.8396000D+02
EXPONENTS  0.3620000D+02 0.1583000D+02 0.6334000D+01 0.2694000D+01 0.1439000D+04
EXPONENTS  0.2031000D+03 0.8396000D+02 0.3620000D+02 0.1583000D+02 0.6334000D+01
EXPONENTS  0.2694000D+01 0.4313000D+00 0.9768000D+00 0.1625000D+00 0.5910000D-01
EXPONENTS  0.6633000D+03 0.1568000D+03 0.4998000D+02 0.1842000D+02 0.7240000D+01
EXPONENTS  0.2922000D+01 0.6633000D+03 0.1568000D+03 0.4998000D+02 0.1842000D+02
EXPONENTS  0.7240000D+01 0.2922000D+01 0.6633000D+03 0.1568000D+03 0.4998000D+02
EXPONENTS  0.1842000D+02 0.7240000D+01 0.2922000D+01 0.1568000D+03 0.4998000D+02
EXPONENTS  0.1842000D+02 0.7240000D+01 0.2922000D+01 0.3818000D+00 0.1568000D+03
EXPONENTS  0.4998000D+02 0.1842000D+02 0.7240000D+01 0.2922000D+01 0.3818000D+00
EXPONENTS  0.1568000D+03 0.4998000D+02 0.1842000D+02 0.7240000D+01 0.2922000D+01
EXPONENTS  0.3818000D+00 0.1022000D+01 0.1022000D+01 0.1022000D+01 0.1301000D+00
EXPONENTS  0.1301000D+00 0.1301000D+00 0.4190000D-01 0.4190000D-01 0.4190000D-01
EXPONENTS  0.1046000D+01 0.1046000D+01 0.1046000D+01 0.1046000D+01 0.1046000D+01
EXPONENTS  0.1046000D+01 0.3440000D+00 0.3440000D+00 0.3440000D+00 0.3440000D+00
EXPONENTS  0.3440000D+00 0.3440000D+00 0.1350000D+00 0.1350000D+00 0.1350000D+00
EXPONENTS  0.1350000D+00 0.1350000D+00 0.1350000D+00 0.7060000D+00 0.7060000D+00
EXPONENTS  0.7060000D+00 0.7060000D+00 0.7060000D+00 0.7060000D+00 0.7060000D+00
EXPONENTS  0.7060000D+00 0.7060000D+00 0.7060000D+00 0.3120000D+00 0.3120000D+00
EXPONENTS  0.3120000D+00 0.3120000D+00 0.3120000D+00 0.3120000D+00 0.3120000D+00
EXPONENTS  0.3120000D+00 0.3120000D+00 0.3120000D+00 0.4561000D+06 0.6833000D+05
EXPONENTS  0.1555000D+05 0.4405000D+04 0.1439000D+04 0.5204000D+03 0.2031000D+03
EXPONENTS  0.8396000D+02 0.3620000D+02 0.1583000D+02 0.6334000D+01 0.4405000D+04
EXPONENTS  0.1439000D+04 0.5204000D+03 0.2031000D+03 0.8396000D+02 0.3620000D+02
EXPONENTS  0.1583000D+02 0.6334000D+01 0.2694000D+01 0.1439000D+04 0.2031000D+03
EXPONENTS  0.8396000D+02 0.3620000D+02 0.1583000D+02 0.6334000D+01 0.2694000D+01
EXPONENTS  0.4313000D+00 0.9768000D+00 0.1625000D+00 0.5910000D-01 0.6633000D+03
EXPONENTS  0.1568000D+03 0.4998000D+02 0.1842000D+02 0.7240000D+01 0.2922000D+01
EXPONENTS  0.6633000D+03 0.1568000D+03 0.4998000D+02 0.1842000D+02 0.7240000D+01
EXPONENTS  0.2922000D+01 0.6633000D+03 0.1568000D+03 0.4998000D+02 0.1842000D+02
EXPONENTS  0.7240000D+01 0.2922000D+01 0.1568000D+03 0.4998000D+02 0.1842000D+02
EXPONENTS  0.7240000D+01 0.2922000D+01 0.3818000D+00 0.1568000D+03 0.4998000D+02
EXPONENTS  0.1842000D+02 0.7240000D+01 0.2922000D+01 0.3818000D+00 0.1568000D+03
EXPONENTS  0.4998000D+02 0.1842000D+02 0.7240000D+01 0.2922000D+01 0.3818000D+00
EXPONENTS  0.1022000D+01 0.1022000D+01 0.1022000D+01 0.1301000D+00 0.1301000D+00
EXPONENTS  0.1301000D+00 0.4190000D-01 0.4190000D-01 0.4190000D-01 0.1046000D+01
EXPONENTS  0.1046000D+01 0.1046000D+01 0.1046000D+01 0.1046000D+01 0.1046000D+01
EXPONENTS  0.3440000D+00 0.3440000D+00 0.3440000D+00 0.3440000D+00 0.3440000D+00
EXPONENTS  0.3440000D+00 0.1350000D+00 0.1350000D+00 0.1350000D+00 0.1350000D+00
EXPONENTS  0.1350000D+00 0.1350000D+00 0.7060000D+00 0.7060000D+00 0.7060000D+00
EXPONENTS  0.7060000D+00 0.7060000D+00 0.7060000D+00 0.7060000D+00 0.7060000D+00
EXPONENTS  0.7060000D+00 0.7060000D+00 0.3120000D+00 0.3120000D+00 0.3120000D+00
EXPONENTS  0.3120000D+00 0.3120000D+00 0.3120000D+00 0.3120000D+00 0.3120000D+00
EXPONENTS  0.3120000D+00 0.3120000D+00
MO    1     MO 0.0        OCC NO =    2.0000387  ORB. ENERGY =    0.000000
  0.61505905D-11  0.11463689D-10  0.19438296D-10  0.29417794D-10  0.36696380D-10
  0.31490953D-10  0.12059362D-10  0.80294243D-15  0.86150453D-14  0.31756679D-13
  0.92854667D-13  0.11189439D-12 -0.13478865D-12  0.53226224D-12 -0.29940601D-13
 -0.93669805D-13 -0.28435476D-12 -0.27572846D-12 -0.18600479D-12 -0.87837412D-03
 -0.85172743D-03 -0.57457029D-03 -0.10969651D-11 -0.10636872D-11 -0.71755707D-12
 -0.84312937D-13 -0.94636789D-03 -0.31267427D-12 -0.21491152D-13 -0.76258157D-03
 -0.28111404D-12 -0.48643475D-15 -0.19704239D-04 -0.76540941D-14 -0.67869800D-13
  0.89034742D-13 -0.21164942D-13  0.93378281D-13 -0.20798872D-13 -0.17910324D-03
  0.14622584D-13 -0.11289371D-12  0.98271122D-13  0.21673747D-13  0.14674251D-13
 -0.10317239D-03 -0.32371375D-13 -0.50361760D-14  0.37407551D-13 -0.11638824D-12
  0.35350077D-14  0.10745054D-03  0.20039966D-14 -0.15087630D-03 -0.12484931D-13
 -0.16552863D-13  0.21814233D-03 -0.58236293D-14  0.10540873D-13  0.23448655D-03
  0.43278423D-13 -0.57902299D-12 -0.12692270D-14 -0.11851710D-04 -0.13467047D-13
  0.96399945D-14 -0.20412047D-03 -0.24380087D-14 -0.58323135D-14  0.23967560D-03
  0.42839151D-13  0.17646373D-12 -0.75518922D-11 -0.14078248D-10 -0.23794158D-10
 -0.35767057D-10 -0.43933423D-10 -0.37078259D-10 -0.13942394D-10  0.52459697D-15
  0.39210373D-14  0.14653812D-13  0.40881853D-13  0.54770412D-13 -0.64673644D-13
 -0.65531885D-12 -0.15804526D-12 -0.73190921D-13  0.20703604D-12  0.19410944D-12
  0.13821749D-12  0.11133872D-02  0.10438712D-02  0.74329851D-03 -0.49074998D-12
 -0.46010930D-12 -0.32762523D-12  0.50267636D-13  0.12908487D-03 -0.41501504D-12
  0.37598687D-14  0.68479425D-04  0.83629499D-13 -0.22251940D-15 -0.88990044D-05
  0.98643409D-14  0.66226355D-13 -0.28180226D-12  0.21557591D-12  0.86583784D-12
 -0.58284195D-13  0.15746135D-03 -0.17715482D-13  0.54560931D-13 -0.36845449D-13
 -0.31824387D-13  0.11188810D-13  0.79475742D-04  0.34128428D-14 -0.57522090D-13
  0.54109247D-13  0.52283591D-13 -0.82044319D-15  0.54622839D-04 -0.61254921D-14
  0.25636440D-03 -0.74300915D-13  0.82993621D-14  0.41533617D-04  0.97539657D-13
  0.10077114D-13 -0.81062683D-03  0.12536309D-12 -0.25588587D-12  0.21797810D-14
 -0.25998631D-03  0.33862873D-13 -0.78073720D-14  0.28147939D-04 -0.39591357D-13
  0.12680290D-14  0.75181100D-03 -0.61997263D-13  0.25889340D-12 -0.18459597D-03
 -0.34535936D-03 -0.59670437D-03 -0.96732789D-03 -0.14689802D-02 -0.20417443D-02
 -0.24274775D-02 -0.21624813D-02 -0.10739340D-02 -0.17289428D-03 -0.18241368D-05
 -0.11763769D-05 -0.39241966D-04 -0.13675039D-03 -0.49246031D-03 -0.10855675D-02
 -0.15281286D-02  0.72896716D-04  0.19998217D-02  0.11824820D-02  0.28965653D-06
  0.35084480D-05  0.73164983D-05  0.20982443D-04  0.10895891D-05 -0.90486472D-04
 -0.23379967D-03  0.19048896D-03  0.59270297D-04 -0.10691170D-03 -0.58514136D-04
  0.54241610D-08  0.71448890D-08  0.78819310D-08  0.65465608D-08  0.34764054D-08
  0.89693078D-09 -0.46487137D+01 -0.61234434D+01 -0.67551166D+01 -0.56106533D+01
 -0.29794126D+01 -0.76870402D+00  0.67793359D+01  0.89299713D+01  0.98511563D+01
  0.81821566D+01  0.43449522D+01  0.11210204D+01 -0.23949316D-12  0.23152657D-11
  0.32647664D-11  0.46694795D-11 -0.23645587D-13 -0.42823531D-11  0.23647328D-03
 -0.22860715D-02 -0.32235995D-02 -0.46106000D-02  0.23347429D-04  0.42283550D-02
 -0.33499880D-03  0.32385528D-02  0.45666975D-02  0.65315855D-02 -0.33075030D-04
 -0.59900799D-02  0.35411888D-10 -0.29838021D-01  0.43746963D-01 -0.28145066D-12
  0.34125920D-03 -0.56025236D-03 -0.99059191D-14  0.10958875D-04 -0.17315347D-04
 -0.15867325D-04 -0.74541319D-03  0.76128052D-03  0.62324669D-12  0.33609808D-12
  0.69042897D-03  0.60412009D-04  0.43136422D-03 -0.49177623D-03 -0.31480573D-12
 -0.21293362D-12 -0.35715309D-03  0.49633758D-05 -0.18142861D-05 -0.31490897D-05
  0.15753219D-13  0.26861214D-13 -0.52911390D-05  0.17312146D-13 -0.13774358D-04
 -0.22829914D-05  0.30839047D-13  0.19088101D-04  0.37628381D-04 -0.82775486D-13
  0.22234974D-04 -0.30779407D-04  0.19427414D-14  0.10506757D-13  0.75040713D-04
 -0.42037986D-04 -0.61062269D-13  0.12208928D-04  0.51995516D-04  0.29541999D-13
 -0.23733107D-03  0.74118443D-04 -0.96653427D-13  0.18459599D-03  0.34535940D-03
  0.59670444D-03  0.96732801D-03  0.14689804D-02  0.20417445D-02  0.24274778D-02
  0.21624816D-02  0.10739341D-02  0.17289430D-03  0.18241370D-05  0.11763769D-05
  0.39241963D-04  0.13675039D-03  0.49246028D-03  0.10855674D-02  0.15281285D-02
 -0.72896711D-04 -0.19998216D-02 -0.11824820D-02 -0.28965653D-06 -0.35084480D-05
 -0.73164984D-05 -0.20982444D-04 -0.10895891D-05  0.90486473D-04  0.23379967D-03
 -0.19048896D-03 -0.59270292D-04  0.10691170D-03  0.58514136D-04 -0.63601371D-08
 -0.83777884D-08 -0.92420121D-08 -0.76762147D-08 -0.40762830D-08 -0.10517023D-08
 -0.46487137D+01 -0.61234434D+01 -0.67551166D+01 -0.56106533D+01 -0.29794126D+01
 -0.76870402D+00 -0.67793359D+01 -0.89299713D+01 -0.98511562D+01 -0.81821566D+01
 -0.43449522D+01 -0.11210204D+01  0.27577997D-12 -0.26660633D-11 -0.37594275D-11
 -0.53769759D-11  0.27228249D-13  0.49311940D-11  0.23647328D-03 -0.22860715D-02
 -0.32235995D-02 -0.46106000D-02  0.23347429D-04  0.42283550D-02  0.33499879D-03
 -0.32385528D-02 -0.45666975D-02 -0.65315855D-02  0.33075030D-04  0.59900799D-02
 -0.41615633D-10 -0.29838021D-01 -0.43746963D-01  0.32843109D-12  0.34125920D-03
  0.56025236D-03  0.11838194D-13  0.10958875D-04  0.17315347D-04  0.15867325D-04
  0.74541319D-03 -0.76128052D-03  0.68025511D-12 -0.39361143D-12  0.69042897D-03
 -0.60412009D-04 -0.43136422D-03  0.49177623D-03 -0.36560550D-12  0.24534512D-12
 -0.35715309D-03 -0.49633758D-05  0.18142861D-05  0.31490897D-05  0.14972586D-13
 -0.25943489D-13 -0.52911390D-05 -0.15288714D-13 -0.13774358D-04  0.22829914D-05
 -0.31089074D-13  0.19088101D-04 -0.37628381D-04  0.76955216D-13  0.22234974D-04
  0.30779407D-04  0.87369465D-14 -0.14952651D-13  0.75040713D-04  0.42037986D-04
  0.70145523D-13  0.12208928D-04 -0.51995516D-04 -0.25287569D-13 -0.23733107D-03
 -0.74118443D-04 -0.11489690D-12
MO    2     MO 0.0        OCC NO =    2.0000377  ORB. ENERGY =    0.000000
  0.56706670D-02  0.10569191D-01  0.17921548D-01  0.27122358D-01  0.33833003D-01
  0.29033750D-01  0.11118384D-01  0.91947039D-06  0.98653139D-05  0.36365405D-04
  0.10633031D-03  0.12813319D-03 -0.15435001D-03  0.55022187D-03  0.20154671D-03
  0.30294958D-03 -0.17335037D-13 -0.16809154D-13 -0.11339356D-13 -0.37303282D-12
 -0.36171635D-12 -0.24401172D-12  0.15716978D-02  0.15240182D-02  0.10280937D-02
 -0.10187493D-13 -0.41074746D-12  0.58089016D-03  0.18832165D-13 -0.35736715D-12
  0.49844158D-03  0.27923135D-14 -0.94832850D-14  0.10732561D-04  0.13272180D-03
 -0.21604128D-03  0.83319482D-04 -0.24749744D-13  0.44611546D-14 -0.93747766D-13
 -0.79798093D-04  0.24927117D-03 -0.16947308D-03 -0.69000753D-14 -0.84058877D-14
 -0.29042362D-13  0.57636675D-04  0.21429358D-04 -0.79066033D-04  0.30414764D-13
 -0.96363872D-14  0.60806178D-13  0.51638252D-14 -0.65272955D-13  0.37984013D-04
  0.12147193D-13  0.85098666D-13 -0.36496709D-04 -0.27638668D-13  0.11072020D-12
 -0.77455330D-04  0.14160163D-12 -0.25255834D-14 -0.36669828D-14  0.33039613D-04
 -0.24747274D-14 -0.83735162D-13  0.34396765D-04  0.10051478D-13  0.94736110D-13
 -0.13351560D-03 -0.44175887D-13 -0.38760158D-02 -0.72256743D-02 -0.12212374D-01
 -0.18357476D-01 -0.22548871D-01 -0.19030452D-01 -0.71559468D-02 -0.41874205D-05
 -0.31298374D-04 -0.11696917D-03 -0.32632577D-03 -0.43718657D-03  0.51623582D-03
 -0.10005450D-03 -0.26013136D-04  0.84287268D-04  0.33649980D-13  0.31548995D-13
  0.22464764D-13  0.44956560D-12  0.42149633D-12  0.30013049D-12  0.95054311D-03
  0.89119458D-03  0.63458363D-03 -0.96165007D-14  0.51517966D-13  0.81812125D-03
 -0.67051960D-14  0.54319269D-13 -0.20399657D-03 -0.11804833D-14 -0.25080082D-14
 -0.21962298D-04 -0.67782434D-04  0.68403489D-03 -0.61625246D-03 -0.23106895D-12
 -0.42833771D-14  0.63779289D-13  0.84960281D-04 -0.16667013D-03  0.81709851D-04
  0.94123221D-14 -0.16352749D-13  0.54251445D-13 -0.94576607D-07  0.11529141D-03
 -0.11519684D-03 -0.13845389D-13 -0.31170017D-14  0.20339127D-13 -0.95322644D-15
  0.10872474D-12  0.13527960D-03  0.34793566D-14  0.24124750D-13 -0.17048938D-03
 -0.61967729D-15 -0.35029897D-12 -0.23534941D-03  0.67568001D-13  0.84493182D-15
 -0.11355476D-12 -0.68903238D-04  0.25883091D-15  0.75242846D-14  0.94487437D-04
 -0.27936264D-14  0.33313999D-12  0.11222228D-03 -0.68244035D-13 -0.15407504D-02
 -0.28825795D-02 -0.49804580D-02 -0.80739076D-02 -0.12261003D-01 -0.17041641D-01
 -0.20261206D-01 -0.18049386D-01 -0.89637068D-02 -0.14430810D-02 -0.15225356D-04
 -0.75220562D-05 -0.25092320D-03 -0.87441712D-03 -0.31489176D-02 -0.69413971D-02
 -0.97712467D-02  0.46612032D-03  0.12787373D-01  0.75610937D-02  0.81917625D-07
  0.99222249D-06  0.20691754D-05  0.59340348D-05  0.30814616D-06 -0.25590436D-04
 -0.66120772D-04  0.53872092D-04  0.34565713D-03 -0.18617768D-03 -0.16640907D-03
 -0.16311758D-08 -0.21486401D-08 -0.23702863D-08 -0.19687084D-08 -0.10454388D-08
 -0.26972867D-09  0.40920227D+01  0.53901511D+01  0.59461804D+01  0.49387684D+01
  0.26226231D+01  0.67665046D+00 -0.71247211D+01 -0.93849244D+01 -0.10353041D+02
 -0.85990109D+01 -0.45663134D+01 -0.11781327D+01  0.70875421D-13 -0.68517796D-12
 -0.96617245D-12 -0.13818822D-11  0.69976569D-14  0.12673163D-11 -0.17524565D-03
  0.16941622D-02  0.23889455D-02  0.34168240D-02 -0.17302316D-04 -0.31335499D-02
  0.33335187D-03 -0.32226314D-02 -0.45442467D-02 -0.64994749D-02  0.32912426D-04
  0.59606315D-02 -0.10676673D-10  0.26324788D-01 -0.46140783D-01  0.81710336D-13
 -0.16530537D-03  0.22259696D-03  0.34847644D-14 -0.11650902D-04  0.72329941D-05
  0.22166227D-04  0.42718121D-03 -0.44934744D-03 -0.17586744D-12 -0.98409792D-13
 -0.40049910D-03  0.38526395D-05 -0.27301251D-03  0.26915987D-03  0.92323045D-13
  0.60824471D-13  0.45148471D-03 -0.77983523D-06  0.38080438D-04 -0.37300603D-04
 -0.45819242D-14 -0.65056968D-14 -0.16400993D-04 -0.39973266D-14 -0.32748143D-04
  0.10253344D-04 -0.81767865D-14  0.51060871D-04  0.49803248D-05  0.20168766D-13
  0.47183560D-04 -0.35740356D-04 -0.18788796D-14 -0.35230672D-14 -0.48079727D-04
 -0.13640781D-04  0.17356953D-13  0.13926987D-04 -0.40095656D-04 -0.67877509D-14
  0.13031219D-03  0.81018000D-04  0.28504891D-13 -0.15407504D-02 -0.28825795D-02
 -0.49804580D-02 -0.80739076D-02 -0.12261003D-01 -0.17041641D-01 -0.20261206D-01
 -0.18049386D-01 -0.89637068D-02 -0.14430810D-02 -0.15225356D-04 -0.75220562D-05
 -0.25092320D-03 -0.87441712D-03 -0.31489176D-02 -0.69413971D-02 -0.97712467D-02
  0.46612032D-03  0.12787373D-01  0.75610937D-02  0.81917625D-07  0.99222249D-06
  0.20691754D-05  0.59340348D-05  0.30814616D-06 -0.25590436D-04 -0.66120771D-04
  0.53872092D-04  0.34565713D-03 -0.18617768D-03 -0.16640907D-03  0.15151218D-08
  0.19957699D-08  0.22016466D-08  0.18286399D-08  0.97105851D-09  0.25053817D-09
 -0.40920227D+01 -0.53901511D+01 -0.59461805D+01 -0.49387684D+01 -0.26226231D+01
 -0.67665047D+00 -0.71247211D+01 -0.93849244D+01 -0.10353041D+02 -0.85990109D+01
 -0.45663134D+01 -0.11781327D+01 -0.66343434D-13  0.64136563D-12  0.90439249D-12
  0.12935205D-11 -0.65502057D-14 -0.11862803D-11  0.17524565D-03 -0.16941622D-02
 -0.23889455D-02 -0.34168240D-02  0.17302316D-04  0.31335499D-02  0.33335187D-03
 -0.32226314D-02 -0.45442467D-02 -0.64994749D-02  0.32912426D-04  0.59606315D-02
  0.98985693D-11 -0.26324788D-01 -0.46140783D-01 -0.80511521D-13  0.16530537D-03
  0.22259696D-03 -0.23540653D-14  0.11650902D-04  0.72329942D-05  0.22166228D-04
  0.42718121D-03 -0.44934744D-03 -0.16833060D-12  0.98688862D-13  0.40049910D-03
  0.38526395D-05 -0.27301251D-03  0.26915987D-03  0.88081322D-13 -0.61278412D-13
 -0.45148471D-03 -0.77983524D-06  0.38080438D-04 -0.37300603D-04 -0.34386541D-14
  0.74474228D-14  0.16400993D-04  0.40814753D-14  0.32748143D-04  0.10253344D-04
  0.89659875D-14 -0.51060871D-04  0.49803248D-05 -0.21210413D-13 -0.47183560D-04
 -0.35740356D-04 -0.14313820D-14  0.34168773D-14  0.48079727D-04 -0.13640781D-04
 -0.17643930D-13 -0.13926987D-04 -0.40095656D-04  0.73932981D-14 -0.13031219D-03
  0.81018000D-04  0.28384642D-13
MO    3     MO 0.0        OCC NO =    2.0000335  ORB. ENERGY =    0.000000
  0.18797829D-10  0.35036062D-10  0.59408567D-10  0.89908549D-10  0.11215383D-09
  0.96244670D-10  0.36856596D-10  0.22431367D-14  0.24067385D-13  0.88716911D-13
  0.25940305D-12  0.31259328D-12 -0.37655173D-12  0.17280889D-11  0.14352063D-12
  0.10087223D-12 -0.42380176D-11 -0.41094514D-11 -0.27722117D-11  0.22877868D-11
  0.22183837D-11  0.14965085D-11 -0.17705517D-12 -0.17168395D-12 -0.11581698D-12
 -0.12109433D-11  0.12442211D-11  0.13678996D-12 -0.24797536D-12  0.96601040D-12
  0.68175750D-13  0.12897031D-13  0.60972316D-13  0.14594319D-14 -0.18470730D-13
 -0.79978594D-13  0.98449324D-13  0.12417838D-03 -0.30029107D-12  0.47261793D-12
 -0.74165493D-14  0.74396928D-13 -0.66980378D-13  0.31575897D-04  0.13612191D-12
 -0.38844754D-13  0.12407942D-13  0.77910905D-14 -0.20199033D-13 -0.16149294D-03
  0.19027098D-13 -0.16469890D-12  0.56092716D-13  0.17811539D-12 -0.38080629D-14
 -0.27506119D-12 -0.11709899D-12 -0.13562526D-14  0.10678304D-12 -0.41724720D-12
  0.12780441D-13 -0.78962780D-03 -0.23791983D-13 -0.86483856D-14  0.19268113D-13
  0.11383288D-12  0.16718640D-12 -0.27155040D-15 -0.42456931D-13 -0.14124124D-12
 -0.57532790D-13  0.24411322D-03  0.72486564D-12  0.13512956D-11  0.22838736D-11
  0.34330880D-11  0.42169337D-11  0.35589433D-11  0.13382556D-11 -0.17305524D-14
 -0.12934807D-13 -0.48340329D-13 -0.13486199D-12 -0.18067788D-12  0.21334689D-12
  0.24567412D-12 -0.49152705D-12 -0.60017788D-13  0.30217570D-11  0.28330892D-11
  0.20173283D-11 -0.29451781D-11 -0.27612917D-11 -0.19662042D-11 -0.66969768D-13
 -0.62788415D-13 -0.44709092D-13  0.68203466D-12 -0.31340425D-13  0.23156139D-12
  0.66394035D-13  0.76474464D-13  0.22597115D-13 -0.13483633D-13 -0.17264888D-13
 -0.18370354D-14 -0.64420654D-13  0.12780474D-12 -0.63384089D-13  0.12033603D-02
 -0.84875780D-12 -0.50036684D-13  0.88281989D-13 -0.91622439D-13  0.33404502D-14
 -0.42757745D-04  0.70772005D-13 -0.67199861D-12  0.80596237D-14  0.20259674D-13
 -0.28319298D-13  0.72872414D-04 -0.34408674D-13 -0.13877972D-12 -0.71434997D-13
 -0.20109910D-12  0.16033654D-13  0.11137065D-12 -0.25871586D-13 -0.32153629D-13
  0.10293434D-12  0.62916889D-12 -0.15947334D-13 -0.35146873D-03  0.27054299D-13
  0.24119263D-12 -0.18704934D-13 -0.95919791D-13 -0.67317111D-13  0.12632164D-13
  0.14756896D-13 -0.65626077D-12  0.43482637D-13  0.35825056D-03 -0.59440228D-10
 -0.11120632D-09 -0.19213986D-09 -0.31148129D-09 -0.47301423D-09 -0.65744527D-09
 -0.78165205D-09 -0.69632281D-09 -0.34580863D-09 -0.55672264D-10 -0.58737527D-12
 -0.22559493D-12 -0.75254692D-11 -0.26224754D-10 -0.94439584D-10 -0.20818031D-09
 -0.29305069D-09  0.13979473D-10  0.38350771D-09  0.22676571D-09 -0.63986816D-14
 -0.77503660D-13 -0.16162571D-12 -0.46351441D-12 -0.24069658D-13  0.19988989D-11
  0.51647709D-11 -0.42080122D-11  0.13894402D-10  0.38188175D-12 -0.72811537D-13
  0.82141932D+01  0.10820014D+02  0.11936169D+02  0.99139230D+01  0.52645682D+01
  0.13582861D+01  0.15697683D-09  0.20677521D-09  0.22810542D-09  0.18945942D-09
  0.10060821D-09  0.25957443D-10 -0.89011319D-08 -0.11724873D-07 -0.12934370D-07
 -0.10743007D-07 -0.57048350D-08 -0.14718772D-08 -0.35901027D-03  0.34706803D-02
  0.48940215D-02  0.69997453D-02 -0.35445725D-04 -0.64194266D-02 -0.52942031D-13
  0.51180950D-12  0.72170481D-12  0.10322288D-11 -0.52270614D-14 -0.94665117D-12
  0.41202109D-12 -0.39831548D-11 -0.56166641D-11 -0.80333154D-11  0.40679579D-13
  0.73673079D-11  0.53693650D-01 -0.22997809D-11 -0.59699865D-10 -0.42444860D-03
 -0.85436684D-13  0.58339743D-12 -0.15185638D-04 -0.58770713D-14  0.11541866D-13
  0.13462935D-12  0.55411133D-12 -0.68874068D-12  0.90597299D-03  0.50793582D-03
 -0.70874161D-12 -0.22022648D-12 -0.24403888D-12  0.46426536D-12 -0.47271626D-03
 -0.31834501D-03  0.83588902D-12  0.19393167D-14  0.53062761D-14 -0.72455928D-14
  0.21539172D-04  0.36844029D-04  0.22220030D-13  0.22655375D-04  0.70558143D-15
  0.13996265D-13  0.42091435D-04 -0.45419655D-13 -0.61918970D-13 -0.11005756D-03
  0.43302910D-13  0.19930174D-13  0.92832339D-05  0.17641306D-04 -0.68499308D-13
  0.75160230D-14 -0.90886433D-04 -0.48861466D-13 -0.84737366D-13  0.37962514D-04
  0.25435939D-12  0.62189297D-13 -0.14752331D-03  0.89282039D-10  0.16703717D-09
  0.28860318D-09  0.46785966D-09  0.71048978D-09  0.98751396D-09  0.11740784D-08
  0.10459099D-08  0.51942095D-09  0.83622379D-10  0.88226549D-12  0.24164511D-12
  0.80608763D-11  0.28090540D-10  0.10115858D-09  0.22299151D-09  0.31390007D-09
 -0.14974056D-10 -0.41079275D-09 -0.24289918D-09  0.63474683D-14  0.76883342D-13
  0.16033210D-12  0.45980456D-12  0.23877010D-13 -0.19829003D-11 -0.51234334D-11
  0.41743324D-11 -0.15166406D-10 -0.38220251D-13  0.13974745D-12 -0.82141932D+01
 -0.10820014D+02 -0.11936169D+02 -0.99139230D+01 -0.52645682D+01 -0.13582861D+01
 -0.56192196D-09 -0.74018267D-09 -0.81653735D-09 -0.67819821D-09 -0.36014207D-09
 -0.92918536D-10  0.56878450D-08  0.74922224D-08  0.82650941D-08  0.68648078D-08
  0.36454034D-08  0.94053314D-09  0.35901027D-03 -0.34706803D-02 -0.48940215D-02
 -0.69997453D-02  0.35445725D-04  0.64194267D-02 -0.17179143D-13  0.16607690D-12
  0.23418577D-12  0.33494760D-12 -0.16961275D-14 -0.30717854D-12 -0.26412868D-12
  0.25534261D-11  0.36005974D-11  0.51498067D-11 -0.26077896D-13 -0.47228585D-11
 -0.53693650D-01 -0.58541668D-11  0.38237411D-10  0.42444860D-03 -0.17805621D-12
 -0.41399815D-12  0.15185638D-04 -0.60561889D-14 -0.64604830D-14 -0.63647689D-13
 -0.45143241D-12  0.51508010D-12  0.90597300D-03 -0.50793582D-03 -0.37275506D-12
  0.15303951D-12  0.21049656D-12 -0.36353607D-12 -0.47271626D-03  0.31834501D-03
  0.47046272D-12 -0.12217586D-13  0.21939918D-13 -0.97223313D-14  0.21539172D-04
 -0.36844029D-04  0.62405541D-14 -0.22655375D-04  0.59767946D-14 -0.86061447D-14
 -0.42091435D-04 -0.39115440D-13  0.53147874D-13  0.11005756D-03  0.21185056D-13
 -0.27329440D-13  0.92832339D-05 -0.17641306D-04 -0.52041738D-13 -0.20376784D-13
  0.90886433D-04 -0.34447819D-13  0.53443112D-13 -0.37962514D-04  0.19057303D-12
  0.76872406D-14 -0.14752331D-03
MO    4     MO 0.0        OCC NO =    2.0000300  ORB. ENERGY =    0.000000
 -0.10602435D-10 -0.19761195D-10 -0.33507884D-10 -0.50710619D-10 -0.63257500D-10
 -0.54284346D-10 -0.20788021D-10 -0.13013988D-14 -0.13963155D-13 -0.51470819D-13
 -0.15049766D-12 -0.18135699D-12  0.21846372D-12 -0.96013002D-12  0.93091828D-13
  0.16087813D-13 -0.51690845D-02 -0.50122731D-02 -0.33812499D-02 -0.11771355D-11
 -0.11414255D-11 -0.76999887D-12  0.43910836D-12  0.42578740D-12  0.28723366D-12
 -0.14811955D-02 -0.38217197D-12 -0.90505662D-14 -0.31272817D-03 -0.26029649D-12
 -0.13744463D-13  0.14874870D-04 -0.37241960D-13  0.37789232D-15  0.18279975D-13
 -0.60510333D-15 -0.17674872D-13 -0.10494922D-12 -0.38903485D-03 -0.26543184D-12
 -0.26625661D-14 -0.42908082D-14  0.69533744D-14 -0.24070671D-13  0.17549692D-03
  0.10052099D-12 -0.37445608D-15  0.24031511D-14 -0.20286950D-14  0.13133773D-12
  0.28582566D-04  0.50699718D-13  0.63448755D-04 -0.41858209D-13 -0.41018557D-14
 -0.33602712D-03 -0.30457353D-13  0.56352195D-14  0.14568086D-03  0.15603198D-12
  0.66703477D-14  0.62618227D-12 -0.27353230D-04  0.14552352D-13  0.36073679D-14
  0.14033913D-03 -0.66915203D-14 -0.26262034D-15 -0.58279436D-04 -0.36965537D-13
 -0.10559483D-13 -0.19778270D-12 -0.69589346D-12 -0.12972856D-11 -0.21925894D-11
 -0.32958708D-11 -0.40483870D-11 -0.34166958D-11 -0.12847668D-11 -0.43995744D-15
 -0.32884093D-14 -0.12289536D-13 -0.34285892D-13 -0.45933643D-13  0.54239068D-13
  0.17787297D-13 -0.30775267D-12 -0.37447751D-13  0.36754378D-02  0.34459566D-02
  0.24537264D-02  0.15007118D-11  0.14070127D-11  0.10018769D-11 -0.13776587D-12
 -0.12916426D-12 -0.91972649D-13  0.84268967D-03 -0.42425839D-13 -0.19463630D-13
  0.88018357D-04 -0.15563786D-12  0.43735970D-13 -0.16151895D-04  0.19480626D-13
  0.97373128D-15 -0.14576888D-13  0.70185075D-14  0.75583805D-14 -0.98988779D-12
 -0.10342407D-02 -0.22399717D-13  0.48314590D-13 -0.28158411D-13 -0.20156180D-13
  0.36115809D-13  0.94316040D-04  0.47881807D-12  0.48126062D-14 -0.44858791D-14
 -0.32672717D-15 -0.59430603D-13 -0.41785821D-04  0.82681324D-13 -0.86790218D-04
 -0.20040993D-14 -0.98301127D-14  0.13140904D-03 -0.14526476D-13  0.62236643D-14